Title
82264
    1SAPS     N    1   5.190   6.490  11.433 -0.3127  0.3025  0.4700
    1SAPS   HN1    2   5.280   6.510  11.385  0.6855 -1.1697  1.6458
    1SAPS   HN2    3   5.111   6.533  11.381  0.1404  0.4304 -0.1300
    1SAPS   HN3    4   5.189   6.518  11.533 -0.6183  1.5157  0.1438
    1SAPS   C12    5   5.163   6.346  11.413 -0.6151  0.1949 -0.2922
    1SAPS  H12A    6   5.229   6.297  11.482  0.3427  0.4920 -0.9857
    1SAPS   C13    7   5.017   6.287  11.430 -0.3433 -0.1269 -1.3344
    1SAPS  O13A    8   4.916   6.362  11.441  0.3769  0.5104 -0.8034
    1SAPS  O13B    9   4.995   6.162  11.407 -0.2128  0.5044  0.1046
    1SAPS   C11   10   5.197   6.325  11.263 -0.0699 -0.0219 -0.6310
    1SAPS  H11A   11   5.127   6.387  11.203 -1.4871  0.3944  1.3782
    1SAPS  H11B   12   5.185   6.218  11.236 -0.2676 -0.1462 -0.0557
    1SAPS     P   13   5.409   6.392  11.109 -0.0614 -0.2042 -0.4405
    1SAPS   O13   14   5.460   6.532  11.109  0.0143 -0.3961  0.0941
    1SAPS   O14   15   5.505   6.287  11.066  0.3889  0.3216 -0.3827
    1SAPS   O12   16   5.340   6.357  11.244  0.1843  0.3338  0.0735
    1SAPS   O11   17   5.290   6.394  11.004  0.6858 -0.0878 -0.4557
    1SAPS    C1   18   5.228   6.514  10.960  0.6640  0.1140  0.0542
    1SAPS    HA   19   5.124   6.485  10.932  0.1286  1.7833  0.2319
    1SAPS    HB   20   5.212   6.576  11.051 -0.2537  1.5090 -1.0230
    1SAPS    C2   21   5.282   6.580  10.838  0.1303 -0.1397  0.3140
    1SAPS    HS   22   5.386   6.609  10.862  1.0662 -3.5412  0.8833
    1SAPS   O21   23   5.199   6.702  10.819  0.0887 -0.4220  0.1166
    1SAPS   C21   24   5.249   6.799  10.738 -1.0565  0.4489 -0.3516
    1SAPS   O22   25   5.364   6.804  10.703 -0.6625  0.1967  0.3207
    1SAPS   C22   26   5.142   6.890  10.678  0.3961 -0.3776 -0.0019
    1SAPS   H2R   27   5.051   6.827  10.667  0.7131 -0.5519 -1.7528
    1SAPS   H2S   28   5.125   6.965  10.759  0.3258 -2.5263  2.0952
    1SAPS    C3   29   5.272   6.494  10.707 -0.0486  0.2680 -0.8499
    1SAPS    HX   30   5.164   6.472  10.697  0.1499 -0.4913 -1.4520
    1SAPS    HY   31   5.319   6.397  10.732 -1.6037 -0.5379 -1.0007
    1SAPS   O31   32   5.311   6.545  10.579 -0.8556  0.0902 -0.1025
    1SAPS   C31   33   5.439   6.530  10.560  0.3134 -0.1786 -0.1348
    1SAPS   O32   34   5.520   6.473  10.630  0.3279 -0.0210  0.0125
    1SAPS   C32   35   5.484   6.614  10.437  0.7758 -0.1608  1.0722
    1SAPS   H2X   36   5.430   6.711  10.426  1.8578  0.2663 -1.2474
    1SAPS   H2Y   37   5.442   6.553  10.354 -0.7645  0.4350  1.3884
    1SAPS   C23   38   5.195   6.968  10.554  0.4100 -0.3647  0.3919
    1SAPS   H3R   39   5.195   6.894  10.471 -3.4649 -0.3803  0.2037
    1SAPS   H3S   40   5.298   6.995  10.582  0.6281 -0.4904 -0.2754
    1SAPS   C24   41   5.112   7.096  10.517 -0.3210 -0.4049 -0.4976
    1SAPS   H4R   42   5.176   7.150  10.445  1.7592 -1.5459  0.4011
    1SAPS   H4S   43   5.104   7.164  10.604  3.5058 -1.8630  1.2582
    1SAPS   C25   44   4.975   7.050  10.460 -0.0235 -0.4644 -0.3957
    1SAPS   H5R   45   4.914   6.991  10.531  0.1933  0.3775  0.5257
    1SAPS   C26   46   4.919   7.089  10.336  0.0611 -0.0450 -0.7557
    1SAPS   H6R   47   4.824   7.036  10.320  1.5265 -3.7793  1.4612
    1SAPS   C27   48   4.976   7.181  10.234  0.4459 -0.6890  0.4110
    1SAPS   H7R   49   5.004   7.126  10.142 -0.1099  0.4737 -0.4766
    1SAPS   H7S   50   5.060   7.246  10.265 -0.8111  1.5228 -0.5794
    1SAPS   C28   51   4.877   7.280  10.193  0.0944 -0.2029 -0.2660
    1SAPS   H8R   52   4.815   7.323  10.272  1.2938  0.0881  0.5494
    1SAPS   C29   53   4.847   7.328  10.073 -0.6307 -0.3124 -0.0713
    1SAPS   H9R   54   4.755   7.388  10.072 -1.5876 -1.5902  2.2998
    1SAPS  C210   55   4.914   7.301   9.941  0.4523 -0.3565 -0.0118
    1SAPS  H10R   56   4.858   7.227   9.880 -1.0489  0.3408  0.4662
    1SAPS  H10S   57   5.019   7.264   9.951  1.2112  1.7520  0.2808
    1SAPS  C211   58   4.938   7.431   9.869  0.1180 -0.0223 -0.3793
    1SAPS  H11R   59   4.974   7.510   9.936  2.0644 -1.3048  0.1574
    1SAPS  C212   60   4.919   7.464   9.744  0.6295 -0.1482  0.3780
    1SAPS  H12R   61   4.944   7.570   9.730  0.6371 -0.3932 -1.8964
    1SAPS  C213   62   4.866   7.377   9.632  1.1464  0.0643 -0.1852
    1SAPS  H13R   63   4.892   7.275   9.668  3.2683  0.1748 -1.3051
    1SAPS  H13S   64   4.917   7.406   9.539  0.7673  1.3562 -0.0039
    1SAPS  C214   65   4.712   7.373   9.611 -0.6839 -0.2843  0.4385
    1SAPS  H14R   66   4.655   7.376   9.705  0.0873  0.1966  0.8998
    1SAPS  C215   67   4.654   7.356   9.487  0.2020  0.1200  0.1203
    1SAPS  H15R   68   4.547   7.380   9.484 -0.0752 -1.0192 -3.1905
    1SAPS  C216   69   4.722   7.344   9.354 -0.6025 -0.7644  0.6408
    1SAPS  H16R   70   4.648   7.304   9.282  0.0400 -0.0421 -0.4650
    1SAPS  H16S   71   4.811   7.278   9.363 -3.0234 -4.0449  2.2667
    1SAPS  C217   72   4.765   7.475   9.294 -0.0052 -0.5811 -0.1279
    1SAPS  H17R   73   4.823   7.539   9.364 -1.4446 -0.1046  0.6523
    1SAPS  H17S   74   4.676   7.540   9.280  1.5836  2.1579  1.5229
    1SAPS  C218   75   4.842   7.458   9.163  0.0120 -0.7672  0.4560
    1SAPS  H18R   76   4.782   7.411   9.082  1.4886 -0.0881 -1.0683
    1SAPS  H18S   77   4.917   7.382   9.193  0.8648  1.5988  5.3156
    1SAPS  C219   78   4.899   7.589   9.117 -0.3418  0.2540 -0.3500
    1SAPS  H19R   79   4.980   7.559   9.047 -0.8257  1.3322 -1.4022
    1SAPS  H19S   80   4.945   7.638   9.205  0.7510  1.9745 -1.7943
    1SAPS  C220   81   4.791   7.679   9.054 -0.5518  1.0049  0.5465
    1SAPS  H20R   82   4.832   7.766   8.998 -1.5102  1.4761  0.5496
    1SAPS  H20S   83   4.718   7.704   9.134 -2.3500 -1.1139 -0.3335
    1SAPS  H20T   84   4.735   7.631   8.971  0.2754  2.5320 -0.9572
    1SAPS   C33   85   5.632   6.638  10.420  0.0761 -0.0531  0.5376
    1SAPS   H3X   86   5.681   6.543  10.389  0.3131 -0.4187  1.9613
    1SAPS   H3Y   87   5.676   6.671  10.516 -2.4241  1.3807  1.2890
    1SAPS   C34   88   5.650   6.747  10.309 -0.1942 -0.5737  0.4982
    1SAPS   H4X   89   5.758   6.738  10.287 -0.3665 -1.8339  0.1398
    1SAPS   H4Y   90   5.621   6.840  10.364  0.6881  0.4766 -0.7527
    1SAPS   C35   91   5.579   6.734  10.176  0.2381  0.1398 -0.1469
    1SAPS   H5X   92   5.472   6.752  10.197  0.0551  0.0003 -0.9540
    1SAPS   H5Y   93   5.584   6.625  10.155 -0.7047 -0.0072  0.3602
    1SAPS   C36   94   5.656   6.808  10.071 -0.2791 -0.2157 -0.8118
    1SAPS   H6X   95   5.762   6.777  10.061 -0.0927 -0.6048  1.6836
    1SAPS   H6Y   96   5.650   6.918  10.088 -0.4569 -0.2304 -0.7799
    1SAPS   C37   97   5.595   6.792   9.934  0.4717 -0.0707  0.3682
    1SAPS   H7X   98   5.486   6.815   9.939  0.3466 -0.5601 -0.0340
    1SAPS   H7Y   99   5.596   6.684   9.910  1.8330 -0.4160  1.8069
    1SAPS   C38  100   5.660   6.865   9.817 -0.5116 -0.4750  0.7033
    1SAPS   H8X  101   5.768   6.843   9.804 -0.5679 -0.1074 -0.4950
    1SAPS   H8Y  102   5.652   6.975   9.833 -0.7540 -0.3445 -0.2307
    1SAPS   C39  103   5.586   6.832   9.684 -0.3675  0.4421  0.3409
    1SAPS   H9X  104   5.506   6.759   9.707 -0.4722 -0.1547 -1.7374
    1SAPS   H9Y  105   5.655   6.775   9.617  0.3595 -1.3246  2.4972
    1SAPS  C310  106   5.530   6.954   9.604  0.3218 -0.6240  0.1092
    1SAPS  H10X  107   5.599   7.041   9.594  0.9596 -1.3799 -3.0892
    1SAPS  H10Y  108   5.442   6.996   9.658  0.8447  1.3257 -0.4620
    1SAPS  C311  109   5.495   6.935   9.459  0.3390  0.5889  0.4748
    1SAPS  H11X  110   5.455   7.028   9.412  1.0344  0.0175 -1.3335
    1SAPS  H11Y  111   5.424   6.851   9.449  2.6077 -1.5537  1.3198
    1SAPS  C312  112   5.611   6.905   9.369 -0.9258  0.2094  0.6725
    1SAPS  H12X  113   5.691   6.848   9.420 -0.4413 -1.6473 -1.9357
    1SAPS  H12Y  114   5.648   7.004   9.334  2.1484 -0.0190  2.9274
    1SAPS  C313  115   5.576   6.817   9.242  0.1100  0.1576 -0.3660
    1SAPS  H13X  116   5.537   6.722   9.284 -1.2729 -0.1434 -2.2341
    1SAPS  H13Y  117   5.676   6.797   9.198  0.0235 -2.1677  0.3657
    1SAPS  C314  118   5.496   6.890   9.141  0.2975  0.3317 -0.5568
    1SAPS  H14X  119   5.541   6.992   9.131  2.3697 -0.4663  0.1112
    1SAPS  H14Y  120   5.392   6.897   9.181  0.6017  0.5181  0.2268
    1SAPS  C315  121   5.503   6.809   9.014  0.5416 -0.5314 -0.2051
    1SAPS  H15X  122   5.461   6.710   9.041  0.0058  0.5142  3.2187
    1SAPS  H15Y  123   5.613   6.804   8.998  0.6566  0.0475  0.3702
    1SAPS  C316  124   5.425   6.870   8.899 -0.3267 -0.0942  0.2404
    1SAPS  H16X  125   5.436   6.980   8.888 -2.4532  0.0506 -0.7784
    1SAPS  H16Y  126   5.318   6.851   8.921 -0.8414 -0.7346 -2.4213
    1SAPS  C317  127   5.467   6.791   8.766  0.1887 -0.5232  0.3492
    1SAPS  H17X  128   5.451   6.688   8.805  1.3121 -0.0699  2.1654
    1SAPS  H17Y  129   5.577   6.801   8.749  0.6221 -0.6631  2.6718
    1SAPS  C318  130   5.379   6.827   8.642  0.4887 -0.0908 -0.5882
    1SAPS  H18X  131   5.400   6.756   8.559 -3.2082 -1.3145 -0.6182
    1SAPS  H18Y  132   5.402   6.933   8.615 -2.4959  0.7314 -0.1706
    1SAPS  H18Z  133   5.273   6.831   8.672  0.2156 -0.5558 -1.4656
    2SAPS     N  134   2.340   2.765  11.339  0.2217  0.2819  0.7347
    2SAPS   HN1  135   2.302   2.821  11.259  0.6425 -1.8368 -1.0453
    2SAPS   HN2  136   2.258   2.710  11.373  0.3514  0.8891  2.0453
    2SAPS   HN3  137   2.383   2.825  11.411 -0.7845  2.3041 -0.2626
    2SAPS   C12  138   2.433   2.658  11.295  0.2652 -0.0532 -0.0488
    2SAPS  H12A  139   2.523   2.713  11.274 -0.2334  0.6419 -0.3808
    2SAPS   C13  140   2.455   2.550  11.406  0.1103 -0.4743 -0.0131
    2SAPS  O13A  141   2.403   2.557  11.523  0.4714 -0.3510  0.5989
    2SAPS  O13B  142   2.522   2.451  11.370 -0.1548  0.0940 -0.1284
    2SAPS   C11  143   2.378   2.598  11.159 -0.0819  0.2640  0.4466
    2SAPS  H11A  144   2.440   2.508  11.137 -0.7980 -0.0399 -0.3761
    2SAPS  H11B  145   2.408   2.665  11.075  1.3120 -1.9402 -0.9352
    2SAPS     P  146   2.183   2.420  11.164  0.0238 -0.0448  0.4835
    2SAPS   O13  147   2.161   2.393  11.305 -0.4020 -0.2530 -0.0941
    2SAPS   O14  148   2.070   2.423  11.066  0.1062 -0.1328  0.0441
    2SAPS   O12  149   2.243   2.565  11.156 -0.3437 -0.7842  0.4927
    2SAPS   O11  150   2.299   2.335  11.112  0.1370  0.0222 -0.2079
    2SAPS    C1  151   2.288   2.224  11.022  0.2983 -0.3728  0.3203
    2SAPS    HA  152   2.356   2.147  11.065 -0.4485  0.8979  4.1426
    2SAPS    HB  153   2.186   2.182  11.030 -1.5591  3.9381  2.2285
    2SAPS    C2  154   2.328   2.257  10.874  0.4437 -0.1124 -0.4273
    2SAPS    HS  155   2.252   2.321  10.825  0.2934 -0.8632 -1.2124
    2SAPS   O21  156   2.345   2.141  10.794  0.1538  0.0385  0.6077
    2SAPS   C21  157   2.229   2.075  10.771 -0.1122  0.1744 -0.0537
    2SAPS   O22  158   2.124   2.126  10.789 -0.3293  0.0884  0.2439
    2SAPS   C22  159   2.256   1.931  10.728 -0.2096 -0.3690  0.2367
    2SAPS   H2R  160   2.356   1.894  10.761  0.0135  1.8006  2.1958
    2SAPS   H2S  161   2.194   1.877  10.802 -0.3160 -0.4224  0.1088
    2SAPS    C3  162   2.457   2.344  10.869  0.5875  0.5475  0.6595
    2SAPS    HX  163   2.538   2.279  10.907  0.6358 -0.2731 -0.7702
    2SAPS    HY  164   2.449   2.429  10.940  0.5183  0.6687  0.5093
    2SAPS   O31  165   2.478   2.385  10.732  0.3091 -0.0325 -0.2940
    2SAPS   C31  166   2.565   2.319  10.661 -0.1121  0.3834  0.6327
    2SAPS   O32  167   2.636   2.224  10.690  0.2531  0.7498  0.9633
    2SAPS   C32  168   2.557   2.379  10.523 -0.1366  0.3591  0.0864
    2SAPS   H2X  169   2.657   2.378  10.475 -0.2769 -0.1588 -0.2043
    2SAPS   H2Y  170   2.515   2.481  10.542 -0.2229  0.0965  1.4002
    2SAPS   C23  171   2.218   1.897  10.587 -0.0381  0.3326 -0.3487
    2SAPS   H3R  172   2.109   1.908  10.574 -0.2321 -0.1648  0.7417
    2SAPS   H3S  173   2.241   1.788  10.579 -0.7414  0.3306 -3.2026
    2SAPS   C24  174   2.297   1.965  10.476  0.0291 -0.4740 -0.3356
    2SAPS   H4R  175   2.271   2.073  10.477  0.6084 -0.3350  0.2105
    2SAPS   H4S  176   2.269   1.919  10.379  1.6876  4.1886 -3.4475
    2SAPS   C25  177   2.444   1.954  10.484  0.3833 -0.4380 -0.2031
    2SAPS   H5R  178   2.490   2.025  10.553  1.9559  0.3580 -1.9997
    2SAPS   C26  179   2.517   1.865  10.422 -0.2669 -0.5080  0.1634
    2SAPS   H6R  180   2.625   1.874  10.440 -0.5251  1.8269  0.8390
    2SAPS   C27  181   2.470   1.762  10.322  0.5134  0.7377 -0.3504
    2SAPS   H7R  182   2.435   1.816  10.232 -1.0698 -0.4653 -0.5131
    2SAPS   H7S  183   2.378   1.713  10.361  0.9164 -0.1249 -0.4455
    2SAPS   C28  184   2.578   1.652  10.311 -0.1063 -0.3813  0.5518
    2SAPS   H8R  185   2.589   1.588  10.400 -1.2881 -0.6765  0.5024
    2SAPS   C29  186   2.631   1.606  10.200 -0.8103 -0.1500 -0.6159
    2SAPS   H9R  187   2.717   1.537  10.207  0.4237  1.0239 -2.8417
    2SAPS  C210  188   2.608   1.647  10.056  0.3455 -0.0849  0.1748
    2SAPS  H10R  189   2.705   1.669  10.007  0.4523  0.9599  0.8491
    2SAPS  H10S  190   2.557   1.745  10.053  2.0857  0.8579  0.2500
    2SAPS  C211  191   2.532   1.555   9.967 -0.4056  0.5662  0.7717
    2SAPS  H11R  192   2.442   1.512  10.011 -0.8656  0.5473 -0.1660
    2SAPS  C212  193   2.537   1.546   9.831  0.2521  0.1139 -0.2543
    2SAPS  H12R  194   2.472   1.473   9.779 -0.5290  1.4423 -1.2022
    2SAPS  C213  195   2.629   1.628   9.745  0.0513  0.5734  0.5926
    2SAPS  H13R  196   2.660   1.564   9.660 -0.1135 -0.2175  1.1154
    2SAPS  H13S  197   2.722   1.653   9.800  0.4279  0.9909 -0.2237
    2SAPS  C214  198   2.554   1.747   9.683  0.3124 -0.1680 -0.0542
    2SAPS  H14R  199   2.542   1.828   9.756 -3.2481  0.0524 -0.7404
    2SAPS  C215  200   2.495   1.759   9.560 -0.6055 -0.4100 -0.4482
    2SAPS  H15R  201   2.452   1.852   9.519 -0.7530 -0.6195 -0.7771
    2SAPS  C216  202   2.476   1.657   9.449 -0.5420 -0.4060  0.3299
    2SAPS  H16R  203   2.376   1.671   9.402  0.0299 -0.5188 -0.9612
    2SAPS  H16S  204   2.484   1.556   9.493  0.9634 -0.2881  0.3665
    2SAPS  C217  205   2.584   1.661   9.340 -0.3244  0.9084  0.0317
    2SAPS  H17R  206   2.566   1.571   9.278 -0.2096  1.2614 -0.5282
    2SAPS  H17S  207   2.687   1.644   9.378 -0.5329 -0.5494 -0.0094
    2SAPS  C218  208   2.579   1.783   9.244  1.4078  0.1334 -0.1678
    2SAPS  H18R  209   2.677   1.793   9.191  1.7857  1.6235  0.7203
    2SAPS  H18S  210   2.563   1.870   9.312 -0.6233 -2.0155  2.2906
    2SAPS  C219  211   2.478   1.780   9.140  0.6408 -0.4814 -0.0251
    2SAPS  H19R  212   2.504   1.869   9.079  0.5677 -0.5012 -0.0848
    2SAPS  H19S  213   2.374   1.783   9.180  0.6339 -1.2799  0.0305
    2SAPS  C220  214   2.470   1.657   9.047 -0.2880  0.0075  0.2114
    2SAPS  H20R  215   2.576   1.640   9.019 -0.7137 -3.0808  0.0803
    2SAPS  H20S  216   2.401   1.660   8.960  0.7361 -1.9721 -0.7277
    2SAPS  H20T  217   2.430   1.568   9.101 -0.3678 -0.6236 -0.8531
    2SAPS   C33  218   2.452   2.322  10.426 -0.0067  0.4923  1.1041
    2SAPS   H3X  219   2.351   2.350  10.462  0.6344  3.2843  1.0139
    2SAPS   H3Y  220   2.460   2.212  10.418 -2.3020  0.4021 -0.9112
    2SAPS   C34  221   2.482   2.378  10.278 -0.3720 -0.3491 -0.1501
    2SAPS   H4X  222   2.589   2.355  10.261 -0.5912 -0.8205 -0.9704
    2SAPS   H4Y  223   2.461   2.487  10.276  0.9973 -0.0757 -0.7106
    2SAPS   C35  224   2.393   2.314  10.165 -0.1178 -1.4523 -0.8374
    2SAPS   H5X  225   2.290   2.347  10.189  0.6777  0.3143  0.4424
    2SAPS   H5Y  226   2.394   2.204  10.181 -1.4170 -1.4797 -0.8565
    2SAPS   C36  227   2.433   2.366  10.027 -0.1887 -0.2534  0.1360
    2SAPS   H6X  228   2.542   2.385  10.028 -0.3274  0.6462 -0.7973
    2SAPS   H6Y  229   2.379   2.461  10.007  0.9917  0.1580 -1.2743
    2SAPS   C37  230   2.406   2.255   9.922  0.0126 -0.0721 -0.3182
    2SAPS   H7X  231   2.297   2.230   9.923 -0.6183  2.3572  0.6089
    2SAPS   H7Y  232   2.471   2.172   9.956  1.1034 -0.0365 -2.1721
    2SAPS   C38  233   2.452   2.293   9.781  0.6292 -0.0074 -0.0342
    2SAPS   H8X  234   2.562   2.301   9.770  0.7815  0.5674  1.5074
    2SAPS   H8Y  235   2.404   2.392   9.765 -3.7509 -1.4799  2.2566
    2SAPS   C39  236   2.403   2.204   9.670 -0.2375  0.2915  0.0768
    2SAPS   H9X  237   2.293   2.202   9.680 -0.3480  2.0660 -0.3911
    2SAPS   H9Y  238   2.451   2.104   9.679  0.9585  1.0170  2.5547
    2SAPS  C310  239   2.442   2.260   9.533 -0.8178  0.3459  0.4295
    2SAPS  H10X  240   2.551   2.279   9.522 -0.5443 -0.0542  2.1506
    2SAPS  H10Y  241   2.388   2.355   9.517  0.0777  1.0478  1.4684
    2SAPS  C311  242   2.413   2.152   9.429 -0.0657 -0.1687 -0.6677
    2SAPS  H11X  243   2.304   2.148   9.409  0.0020  1.6437 -1.6541
    2SAPS  H11Y  244   2.461   2.053   9.442 -1.0898 -0.6860 -0.7546
    2SAPS  C312  245   2.478   2.186   9.294  0.2254 -0.8701 -0.6084
    2SAPS  H12X  246   2.440   2.110   9.223 -0.0892  0.0336 -1.4380
    2SAPS  H12Y  247   2.587   2.177   9.313  0.1696  0.8373  0.8169
    2SAPS  C313  248   2.434   2.324   9.243 -0.0207 -0.1149 -0.4234
    2SAPS  H13X  249   2.518   2.391   9.272  1.0328 -1.9488  1.0037
    2SAPS  H13Y  250   2.335   2.358   9.282  0.0280  1.1707 -1.3566
    2SAPS  C314  251   2.414   2.327   9.094 -0.4398 -0.0118 -0.7446
    2SAPS  H14X  252   2.340   2.251   9.059  1.3073 -0.9151 -2.6630
    2SAPS  H14Y  253   2.506   2.299   9.039  0.2375  0.3434  0.1792
    2SAPS  C315  254   2.368   2.465   9.032 -0.3508 -0.4246 -0.3055
    2SAPS  H15X  255   2.430   2.547   9.075 -0.6057 -0.1982 -0.3690
    2SAPS  H15Y  256   2.264   2.481   9.067  0.4515  2.3347  1.0925
    2SAPS  C316  257   2.386   2.457   8.884  0.4672  0.0140 -0.3675
    2SAPS  H16X  258   2.308   2.395   8.836  0.0717  1.5809 -1.8415
    2SAPS  H16Y  259   2.491   2.431   8.858  0.5160  1.1506 -1.3994
    2SAPS  C317  260   2.360   2.597   8.818 -0.2520 -0.2080 -1.1131
    2SAPS  H17X  261   2.373   2.565   8.713  2.2765 -0.3397 -0.8053
    2SAPS  H17Y  262   2.442   2.666   8.845 -0.5927 -0.6856  1.3879
    2SAPS  C318  263   2.226   2.666   8.836 -0.5666 -0.6096 -0.1047
    2SAPS  H18X  264   2.217   2.714   8.936 -1.9290  0.7016 -0.8230
    2SAPS  H18Y  265   2.141   2.598   8.814  0.6625 -2.1760 -0.1927
    2SAPS  H18Z  266   2.229   2.752   8.766  3.0244  0.4029  1.0491
    3SAPS     N  267   2.770   3.635  11.599 -0.0712  0.4185 -0.5591
    3SAPS   HN1  268   2.772   3.731  11.559  1.0579  0.1829 -1.1014
    3SAPS   HN2  269   2.685   3.635  11.659  0.8900  0.4633  0.8300
    3SAPS   HN3  270   2.854   3.617  11.657  1.3507  1.8999 -2.0534
    3SAPS   C12  271   2.758   3.529  11.497 -0.2794 -0.0655  0.0304
    3SAPS  H12A  272   2.847   3.529  11.437  0.4134 -1.5522  1.0191
    3SAPS   C13  273   2.759   3.385  11.546  0.2152  0.5653  0.5210
    3SAPS  O13A  274   2.773   3.361  11.668  0.0861 -0.8080  0.1728
    3SAPS  O13B  275   2.746   3.295  11.463  0.0689 -0.3101 -0.4411
    3SAPS   C11  276   2.632   3.568  11.417  0.4148 -0.6182  0.0282
    3SAPS  H11A  277   2.541   3.551  11.479  0.7361 -0.1213  0.6503
    3SAPS  H11B  278   2.625   3.492  11.336  0.3651 -0.5118 -0.0683
    3SAPS     P  279   2.567   3.720  11.215 -0.2416  0.3211  0.3741
    3SAPS   O13  280   2.454   3.627  11.198 -0.4976 -0.3966 -0.3753
    3SAPS   O14  281   2.546   3.862  11.186  0.7500 -0.3757  0.0307
    3SAPS   O12  282   2.632   3.699  11.364  0.2998  0.0985 -0.9855
    3SAPS   O11  283   2.690   3.675  11.141  0.9469  0.2950 -0.0792
    3SAPS    C1  284   2.764   3.755  11.044 -0.0565  0.4123 -0.1851
    3SAPS    HA  285   2.777   3.861  11.073 -0.1236  1.1384 -2.5980
    3SAPS    HB  286   2.869   3.721  11.048 -0.2349 -0.0905  0.4187
    3SAPS    C2  287   2.709   3.746  10.901 -0.0269  0.9039  0.2673
    3SAPS    HS  288   2.615   3.803  10.886 -0.4498 -0.2525 -1.8366
    3SAPS   O21  289   2.684   3.602  10.873 -0.2394  0.4006  0.2861
    3SAPS   C21  290   2.589   3.573  10.783  0.0187 -0.8615  0.0398
    3SAPS   O22  291   2.516   3.660  10.730 -0.2651  0.5865 -0.7315
    3SAPS   C22  292   2.606   3.430  10.743 -0.0334 -1.0815  0.3294
    3SAPS   H2R  293   2.711   3.408  10.712 -0.1801  0.2092 -1.2743
    3SAPS   H2S  294   2.585   3.382  10.840  0.2641  1.4696  1.7526
    3SAPS    C3  295   2.818   3.804  10.808  0.3820 -0.6214  0.4365
    3SAPS    HX  296   2.914   3.754  10.833  1.4411  1.3744  0.6090
    3SAPS    HY  297   2.812   3.910  10.840  2.0441 -0.7314  1.2262
    3SAPS   O31  298   2.785   3.786  10.668 -0.7062 -0.1081 -0.0377
    3SAPS   C31  299   2.849   3.865  10.586 -0.4717  0.6701  0.2405
    3SAPS   O32  300   2.934   3.948  10.620 -0.2522  0.2588  0.0836
    3SAPS   C32  301   2.822   3.804  10.440 -0.9638 -0.1236  0.4823
    3SAPS   H2X  302   2.737   3.862  10.398 -0.4377 -0.3333 -0.9180
    3SAPS   H2Y  303   2.798   3.696  10.444 -0.1885 -0.4264 -1.7047
    3SAPS   C23  304   2.504   3.383  10.635  0.0170 -0.2698 -0.4386
    3SAPS   H3R  305   2.405   3.411  10.676  0.3643 -1.3086  1.2190
    3SAPS   H3S  306   2.514   3.272  10.643 -1.5335 -0.3573  0.9775
    3SAPS   C24  307   2.539   3.452  10.501  0.8830 -0.0967 -0.0213
    3SAPS   H4R  308   2.612   3.392  10.441 -0.9646  0.4035 -2.9606
    3SAPS   H4S  309   2.587   3.549  10.524  1.9252 -0.2204 -1.5383
    3SAPS   C25  310   2.417   3.470  10.411 -0.3632  0.4168 -0.4955
    3SAPS   H5R  311   2.322   3.424  10.444 -0.1941 -0.0371 -0.6519
    3SAPS   C26  312   2.423   3.514  10.284 -0.4076 -0.1097  0.3189
    3SAPS   H6R  313   2.327   3.523  10.231 -0.6105  0.1293  0.7179
    3SAPS   C27  314   2.553   3.561  10.219 -0.2557  0.2045  0.0326
    3SAPS   H7R  315   2.641   3.519  10.273  0.7080 -1.4855 -2.6579
    3SAPS   H7S  316   2.548   3.671  10.227 -1.2743  0.2022 -0.4008
    3SAPS   C28  317   2.564   3.514  10.075  0.2921  0.9360  1.1501
    3SAPS   H8R  318   2.542   3.407  10.059  1.0030  0.9643 -0.2234
    3SAPS   C29  319   2.571   3.598   9.966 -0.2791  0.2301 -0.2291
    3SAPS   H9R  320   2.572   3.560   9.862 -0.1282  1.2173 -0.6027
    3SAPS  C210  321   2.572   3.752   9.984 -0.1869  0.7756 -1.0233
    3SAPS  H10R  322   2.657   3.780   9.918  2.7314 -0.8988  1.7437
    3SAPS  H10S  323   2.619   3.779  10.081  1.9377 -0.9607 -1.4939
    3SAPS  C211  324   2.436   3.820   9.977 -0.2566 -0.2622 -0.5439
    3SAPS  H11R  325   2.349   3.784  10.035  0.7643 -1.5007  0.2697
    3SAPS  C212  326   2.395   3.914   9.890 -0.2664 -0.2877 -0.8894
    3SAPS  H12R  327   2.292   3.953   9.898  0.4809  1.3979  1.9627
    3SAPS  C213  328   2.481   3.971   9.782  0.1909 -0.2732 -0.3552
    3SAPS  H13R  329   2.586   3.969   9.817  0.5403 -1.0270 -1.4011
    3SAPS  H13S  330   2.465   4.080   9.771  1.6141  0.0269  0.3804
    3SAPS  C214  331   2.468   3.898   9.654 -0.6621  0.2032  0.3681
    3SAPS  H14R  332   2.452   3.790   9.669  1.0326 -0.0835  0.3033
    3SAPS  C215  333   2.460   3.945   9.528 -0.4549 -0.1285 -0.0794
    3SAPS  H15R  334   2.469   3.864   9.454 -0.6270 -1.6318  1.4920
    3SAPS  C216  335   2.479   4.087   9.478 -0.4563  0.8068  0.0618
    3SAPS  H16R  336   2.574   4.121   9.524 -0.1402 -0.8055  0.6738
    3SAPS  H16S  337   2.403   4.162   9.509 -0.6093 -0.1667  2.2442
    3SAPS  C217  338   2.479   4.096   9.325  0.3791 -0.7635  0.4376
    3SAPS  H17R  339   2.558   4.032   9.279 -0.3062 -0.5839 -1.0442
    3SAPS  H17S  340   2.501   4.202   9.300 -1.3618 -0.6411 -0.7061
    3SAPS  C218  341   2.343   4.084   9.256 -0.1881 -0.5950  0.3444
    3SAPS  H18R  342   2.268   4.152   9.302 -0.1613  0.5365 -1.2099
    3SAPS  H18S  343   2.289   3.989   9.274 -1.4427  0.0074 -0.1691
    3SAPS  C219  344   2.339   4.113   9.108  0.7786  0.2043  0.3151
    3SAPS  H19R  345   2.372   4.219   9.099  0.9983  0.4973  3.4693
    3SAPS  H19S  346   2.237   4.086   9.075  0.6956 -2.2187  2.2552
    3SAPS  C220  347   2.428   4.014   9.028  0.3537 -0.6542 -0.1085
    3SAPS  H20R  348   2.405   4.022   8.919 -1.3926  2.1817  0.3696
    3SAPS  H20S  349   2.411   3.910   9.064  0.1270 -1.1619 -1.5921
    3SAPS  H20T  350   2.538   4.030   9.029  0.0376  1.9176  0.8832
    3SAPS   C33  351   2.945   3.835  10.349 -0.2409  0.1564  0.7810
    3SAPS   H3X  352   3.035   3.777  10.379 -0.2256 -0.1456  0.1647
    3SAPS   H3Y  353   2.979   3.940  10.354 -0.6559  0.4482 -1.4391
    3SAPS   C34  354   2.915   3.799  10.198 -0.1733  0.0108  0.7167
    3SAPS   H4X  355   2.822   3.852  10.167  0.8864  0.5891 -1.6815
    3SAPS   H4Y  356   2.897   3.690  10.186 -2.8574  0.1811  2.2744
    3SAPS   C35  357   3.020   3.845  10.096  0.2691  0.5982 -0.1775
    3SAPS   H5X  358   3.122   3.813  10.124  0.4791  1.7592  0.4343
    3SAPS   H5Y  359   3.029   3.956  10.091  1.2814  0.5652  0.5561
    3SAPS   C36  360   2.987   3.782   9.961  0.0877  0.6990  0.3705
    3SAPS   H6X  361   2.879   3.789   9.936  0.2649 -0.8793 -0.9629
    3SAPS   H6Y  362   2.999   3.672   9.965  2.0753  0.8475 -0.4997
    3SAPS   C37  363   3.077   3.828   9.842  0.4601 -0.8431  0.3101
    3SAPS   H7X  364   3.180   3.806   9.875  0.6079 -0.1947  0.2904
    3SAPS   H7Y  365   3.062   3.937   9.824 -0.7405 -0.8392  1.2162
    3SAPS   C38  366   3.036   3.742   9.711 -0.2466 -1.1950 -0.2522
    3SAPS   H8X  367   3.079   3.641   9.734  1.5197 -0.5453 -0.5331
    3SAPS   H8Y  368   3.099   3.781   9.627  1.0672  1.1445  1.6910
    3SAPS   C39  369   2.889   3.731   9.672  0.2784  0.7332 -0.2148
    3SAPS   H9X  370   2.835   3.699   9.764  0.1049  1.7727  0.0551
    3SAPS   H9Y  371   2.881   3.649   9.597  0.5373 -0.2985  0.8488
    3SAPS  C310  372   2.841   3.861   9.617  0.8234  0.1499  0.1407
    3SAPS  H10X  373   2.880   3.937   9.688 -1.1306  0.5026  0.8861
    3SAPS  H10Y  374   2.730   3.863   9.611  0.7798 -2.3545 -2.4264
    3SAPS  C311  375   2.898   3.892   9.486  0.6610  0.4177  0.4590
    3SAPS  H11X  376   2.905   3.801   9.423  0.8683  0.2257  0.7613
    3SAPS  H11Y  377   2.997   3.943   9.495 -0.1281  2.1465 -0.1386
    3SAPS  C312  378   2.821   4.001   9.407  0.2120 -0.7858  0.9884
    3SAPS  H12X  379   2.798   4.080   9.481 -1.6152 -0.5186  0.1920
    3SAPS  H12Y  380   2.727   3.957   9.366  0.9293 -0.8739 -0.6312
    3SAPS  C313  381   2.905   4.065   9.287 -1.2636  0.1142 -0.4616
    3SAPS  H13X  382   2.938   3.980   9.224  0.4895  1.3467 -1.2761
    3SAPS  H13Y  383   2.995   4.119   9.322 -0.1542 -0.0384 -2.8755
    3SAPS  C314  384   2.825   4.149   9.197 -0.5144 -0.1203 -0.4403
    3SAPS  H14X  385   2.758   4.218   9.254  0.0589  1.1803 -1.2775
    3SAPS  H14Y  386   2.758   4.076   9.147 -1.7847  0.8740 -0.2529
    3SAPS  C315  387   2.916   4.210   9.085  0.0917 -0.3532  0.3927
    3SAPS  H15X  388   2.981   4.135   9.033  1.3992 -0.0307  1.5003
    3SAPS  H15Y  389   2.991   4.281   9.125  2.0446 -0.7161 -2.3015
    3SAPS  C316  390   2.838   4.286   8.980  0.1123  0.2962  0.6542
    3SAPS  H16X  391   2.787   4.374   9.026 -2.3461 -0.5174 -0.3451
    3SAPS  H16Y  392   2.757   4.219   8.945 -0.9659  2.2576 -0.7800
    3SAPS  C317  393   2.937   4.324   8.867 -0.9152  0.2559 -0.4085
    3SAPS  H17X  394   2.868   4.337   8.781 -1.9546 -1.4878  0.1078
    3SAPS  H17Y  395   3.000   4.236   8.843  1.6517  1.9099 -0.1834
    3SAPS  C318  396   3.013   4.459   8.864  0.6259  0.9738 -0.2943
    3SAPS  H18X  397   2.939   4.541   8.875 -0.9527 -0.5290  0.7417
    3SAPS  H18Y  398   3.085   4.465   8.779  1.2576 -0.7464  0.0712
    3SAPS  H18Z  399   3.069   4.460   8.960 -2.5454 -0.7527  1.7297
    4SAPS     N  400   6.085   0.821  10.758 -0.7924 -0.3379  0.0513
    4SAPS   HN1  401   6.131   0.837  10.666  0.2310 -0.0707  0.5953
    4SAPS   HN2  402   6.131   0.738  10.801 -1.1444  0.3636  1.8542
    4SAPS   HN3  403   5.987   0.788  10.746 -1.2040  1.4650 -2.3947
    4SAPS   C12  404   6.083   0.933  10.848 -0.4442 -0.4319 -0.2241
    4SAPS  H12A  405   6.033   1.016  10.801 -0.0726 -1.3556 -2.3568
    4SAPS   C13  406   5.999   0.907  10.977  0.9203  0.4334 -0.3347
    4SAPS  O13A  407   5.954   0.791  10.998 -0.9980 -0.3671 -0.5926
    4SAPS  O13B  408   5.943   1.014  11.020  0.4819  0.2605  0.0962
    4SAPS   C11  409   6.225   0.967  10.895  0.1590 -0.0631 -0.1861
    4SAPS  H11A  410   6.217   1.057  10.960  1.3455  0.9143 -1.3349
    4SAPS  H11B  411   6.275   0.993  10.799  0.1151 -0.1430 -0.2310
    4SAPS     P  412   6.444   0.853  10.976 -0.5077 -0.1246 -0.0139
    4SAPS   O13  413   6.489   0.990  10.962 -0.2910  0.0619  0.3489
    4SAPS   O14  414   6.485   0.783  11.101  0.0050  0.3174 -0.1344
    4SAPS   O12  415   6.287   0.857  10.969  0.9233  0.2076  0.1937
    4SAPS   O11  416   6.477   0.768  10.850 -0.1172  0.1397  0.1138
    4SAPS    C1  417   6.588   0.800  10.766  0.3779  0.8584  0.2740
    4SAPS    HA  418   6.660   0.874  10.806  0.7278  2.3309 -2.8447
    4SAPS    HB  419   6.649   0.709  10.746 -3.8420 -2.0125 -0.9092
    4SAPS    C2  420   6.532   0.852  10.635  0.7137 -0.3747 -0.9421
    4SAPS    HS  421   6.610   0.858  10.556  0.0842  1.0194 -1.4811
    4SAPS   O21  422   6.479   0.984  10.654 -0.2187  1.0187 -0.6387
    4SAPS   C21  423   6.558   1.085  10.645  0.9782  0.0520  0.8136
    4SAPS   O22  424   6.676   1.068  10.621 -0.5714  0.0068  0.6412
    4SAPS   C22  425   6.494   1.218  10.668  0.3849 -0.4671  0.2254
    4SAPS   H2R  426   6.449   1.216  10.769 -2.2146  0.1156 -0.8370
    4SAPS   H2S  427   6.568   1.301  10.670 -0.9832  0.8219  3.4556
    4SAPS    C3  428   6.420   0.763  10.568  0.0800  0.1250 -0.3517
    4SAPS    HX  429   6.343   0.763  10.648 -0.2528 -1.0068 -0.6582
    4SAPS    HY  430   6.452   0.657  10.554  2.3007  0.4517  1.6115
    4SAPS   O31  431   6.382   0.799  10.430 -0.1279 -0.2126 -0.4552
    4SAPS   C31  432   6.255   0.838  10.422  0.4319 -0.5089  0.5688
    4SAPS   O32  433   6.171   0.838  10.507 -0.1392  0.3726 -0.4559
    4SAPS   C32  434   6.230   0.885  10.272 -0.0814 -0.1765  0.3911
    4SAPS   H2X  435   6.330   0.914  10.232  0.6004 -0.0864  2.0669
    4SAPS   H2Y  436   6.183   0.985  10.280  0.4249  0.3552 -2.3146
    4SAPS   C23  437   6.403   1.271  10.549  0.3402  0.4884  0.1000
    4SAPS   H3R  438   6.466   1.270  10.457  0.0248  2.1661 -0.1657
    4SAPS   H3S  439   6.374   1.373  10.584  2.5217  1.0966  0.2596
    4SAPS   C24  440   6.270   1.200  10.517  0.3205 -0.0590  0.2517
    4SAPS   H4R  441   6.300   1.094  10.528 -1.8621 -0.6153  1.2716
    4SAPS   H4S  442   6.247   1.207  10.408 -0.2832  1.9190  0.4606
    4SAPS   C25  443   6.152   1.243  10.599  0.1892 -0.0719  0.2722
    4SAPS   H5R  444   6.178   1.263  10.704  0.1738 -0.7437  0.4070
    4SAPS   C26  445   6.019   1.264  10.559 -0.0266 -0.0426 -0.3601
    4SAPS   H6R  446   5.942   1.279  10.636 -1.3616 -0.0003 -1.6702
    4SAPS   C27  447   5.958   1.241  10.422  0.0971  0.3398  0.2551
    4SAPS   H7R  448   5.873   1.168  10.424 -2.8101  3.4862 -0.0033
    4SAPS   H7S  449   6.027   1.188  10.353  0.5092  0.8213  0.2954
    4SAPS   C28  450   5.922   1.376  10.361 -0.1598 -1.3544  1.2980
    4SAPS   H8R  451   5.836   1.425  10.410  0.5829  0.2522  1.0419
    4SAPS   C29  452   5.986   1.446  10.253  0.7345  0.7793 -0.5228
    4SAPS   H9R  453   5.952   1.545  10.223 -0.6873  0.4148 -0.1874
    4SAPS  C210  454   6.098   1.389  10.172  0.5387 -0.5824  0.5143
    4SAPS  H10R  455   6.047   1.312  10.110  1.3815 -1.1077  0.4567
    4SAPS  H10S  456   6.173   1.342  10.239 -0.6350 -2.8553  0.3742
    4SAPS  C211  457   6.156   1.478  10.068 -0.3433 -0.1113  0.1075
    4SAPS  H11R  458   6.201   1.566  10.117 -0.1037 -0.2398  0.1156
    4SAPS  C212  459   6.175   1.466   9.935  0.4018  1.3175  0.1064
    4SAPS  H12R  460   6.220   1.548   9.877 -0.9617  1.6676 -0.5058
    4SAPS  C213  461   6.143   1.340   9.849  0.3255 -0.5298  0.2500
    4SAPS  H13R  462   6.146   1.247   9.909  1.2360 -1.0251 -0.5466
    4SAPS  H13S  463   6.226   1.335   9.776 -1.9750 -0.0641 -2.5384
    4SAPS  C214  464   6.007   1.364   9.793 -0.0369  0.0243 -0.6389
    4SAPS  H14R  465   5.915   1.343   9.850  0.0981 -1.8757 -1.0500
    4SAPS  C215  466   5.986   1.398   9.661 -0.1478  0.4211 -0.3248
    4SAPS  H15R  467   5.884   1.416   9.626  0.0186  0.4340 -0.8113
    4SAPS  C216  468   6.094   1.414   9.561 -0.6820 -0.1412  0.1389
    4SAPS  H16R  469   6.098   1.320   9.502 -0.7872  0.6899 -1.2200
    4SAPS  H16S  470   6.197   1.437   9.596 -0.0647  3.2840 -3.2747
    4SAPS  C217  471   6.070   1.523   9.455 -0.1708 -0.1604  0.7714
    4SAPS  H17R  472   6.063   1.624   9.499 -0.2624  1.2674 -2.2705
    4SAPS  H17S  473   5.972   1.501   9.408 -0.8178  1.4344  1.3357
    4SAPS  C218  474   6.163   1.534   9.325  0.5724  0.0886  0.6366
    4SAPS  H18R  475   6.206   1.433   9.311 -1.1926 -0.7342  0.8858
    4SAPS  H18S  476   6.251   1.595   9.355  0.4207 -0.3356  2.0364
    4SAPS  C219  477   6.099   1.580   9.191  0.5093  0.0302  0.0562
    4SAPS  H19R  478   6.073   1.687   9.204 -1.8269 -0.7758  3.1047
    4SAPS  H19S  479   6.004   1.525   9.170  0.7925 -0.6817  0.5928
    4SAPS  C220  480   6.188   1.570   9.064 -0.2440 -0.1504  0.4089
    4SAPS  H20R  481   6.277   1.632   9.091  0.5087 -0.6846 -0.7602
    4SAPS  H20S  482   6.147   1.614   8.970 -2.5489  2.3937  2.4237
    4SAPS  H20T  483   6.230   1.468   9.055  0.2324 -0.1934  2.5124
    4SAPS   C33  484   6.145   0.799  10.186  0.3477 -0.2458 -0.0632
    4SAPS   H3X  485   6.038   0.809  10.214  0.2689  1.0140 -0.6991
    4SAPS   H3Y  486   6.175   0.693  10.198 -2.6898 -1.0933  1.1442
    4SAPS   C34  487   6.172   0.829  10.031  0.5806 -0.4709  0.0049
    4SAPS   H4X  488   6.274   0.793  10.005  0.8479 -0.0321  0.4283
    4SAPS   H4Y  489   6.182   0.937  10.008 -0.0729  0.1997  2.5386
    4SAPS   C35  490   6.077   0.753   9.945  0.2985 -0.4257  0.4432
    4SAPS   H5X  491   5.969   0.755   9.971  0.2919 -2.2290  0.7191
    4SAPS   H5Y  492   6.113   0.648   9.952  2.1769  0.2373  1.3831
    4SAPS   C36  493   6.091   0.795   9.794  0.2260  0.4675  1.1319
    4SAPS   H6X  494   6.038   0.717   9.735 -3.5124  3.5228  0.0904
    4SAPS   H6Y  495   6.198   0.788   9.763 -0.1673  1.4246 -0.5410
    4SAPS   C37  496   6.047   0.938   9.760  0.6260  0.5141  0.2068
    4SAPS   H7X  497   6.105   1.014   9.818  2.7484  0.0416 -1.1918
    4SAPS   H7Y  498   5.942   0.934   9.796  0.2280 -2.8666 -1.0642
    4SAPS   C38  499   6.045   0.982   9.613 -0.0869 -0.3015 -0.0163
    4SAPS   H8X  500   6.146   0.976   9.567  0.2373  0.9267  0.4962
    4SAPS   H8Y  501   6.000   1.083   9.607  1.4038  0.5175  1.6934
    4SAPS   C39  502   5.958   0.900   9.514  0.2453 -0.2417 -0.7749
    4SAPS   H9X  503   5.852   0.895   9.549  1.2094  1.2575  2.7506
    4SAPS   H9Y  504   5.991   0.794   9.519  0.1154 -0.2490  0.3017
    4SAPS  C310  505   5.978   0.950   9.367 -0.6954  0.4904  0.7832
    4SAPS  H10X  506   6.087   0.950   9.345 -0.9275 -1.2189 -0.5992
    4SAPS  H10Y  507   5.938   1.054   9.358 -1.8498  0.0070 -0.1022
    4SAPS  C311  508   5.906   0.876   9.264 -0.1904 -0.0191 -0.2352
    4SAPS  H11X  509   5.799   0.875   9.291 -0.0306 -0.3300  0.4186
    4SAPS  H11Y  510   5.927   0.767   9.267  1.4458  0.2820  1.2596
    4SAPS  C312  511   5.918   0.934   9.118 -0.5542 -0.8898  0.4830
    4SAPS  H12X  512   5.958   1.037   9.123 -0.8159 -0.3567 -4.0677
    4SAPS  H12Y  513   5.820   0.935   9.066 -0.7891  0.7599  0.8971
    4SAPS  C313  514   6.012   0.851   9.032 -0.2446  0.4322 -0.4856
    4SAPS  H13X  515   5.973   0.747   9.020 -0.4815  0.3734  0.6676
    4SAPS  H13Y  516   6.102   0.837   9.095  0.3532  5.1121  0.0445
    4SAPS  C314  517   6.033   0.916   8.902  0.2227 -0.4961  0.5155
    4SAPS  H14X  518   6.092   1.008   8.917  0.2997 -0.5266  0.4035
    4SAPS  H14Y  519   5.940   0.939   8.846  1.2000  0.8613 -0.6038
    4SAPS  C315  520   6.129   0.839   8.810  0.3338  0.6458  0.2343
    4SAPS  H15X  521   6.164   0.752   8.869 -1.0140 -0.7949 -1.0025
    4SAPS  H15Y  522   6.224   0.895   8.797  1.2159 -0.6253  1.0131
    4SAPS  C316  523   6.077   0.799   8.678  0.6311 -0.0217  0.5461
    4SAPS  H16X  524   6.148   0.739   8.617 -1.9463 -1.8252 -0.8592
    4SAPS  H16Y  525   6.052   0.896   8.631 -2.7107 -1.2530 -0.4897
    4SAPS  C317  526   5.958   0.703   8.693 -1.0083 -0.0285  0.1604
    4SAPS  H17X  527   5.863   0.748   8.732  0.3951  2.9319  0.4690
    4SAPS  H17Y  528   5.987   0.628   8.770  2.9972  0.5619 -0.5513
    4SAPS  C318  529   5.927   0.619   8.574 -0.3271 -0.1461 -0.2024
    4SAPS  H18X  530   5.871   0.684   8.503 -0.4640  3.0134  2.5332
    4SAPS  H18Y  531   5.868   0.528   8.595  0.4283 -1.2378 -2.5058
    4SAPS  H18Z  532   6.020   0.589   8.522 -0.9658 -2.7604  0.0195
    5SAPS     N  533   2.549   6.419  10.876  0.1963 -0.0141 -0.7334
    5SAPS   HN1  534   2.455   6.426  10.833 -0.9719  3.1905  1.8856
    5SAPS   HN2  535   2.601   6.495  10.828  0.1897  0.0670 -0.6118
    5SAPS   HN3  536   2.598   6.328  10.859  0.3869  0.1404 -1.0067
    5SAPS   C12  537   2.525   6.445  11.029  0.0826 -0.0902  0.5436
    5SAPS  H12A  538   2.464   6.361  11.058 -0.5093  0.2277  0.2334
    5SAPS   C13  539   2.643   6.456  11.119 -0.7143  0.5089 -1.0087
    5SAPS  O13A  540   2.756   6.477  11.073 -0.0776  0.2328 -0.0384
    5SAPS  O13B  541   2.616   6.472  11.245 -0.1371 -0.0824  0.2694
    5SAPS   C11  542   2.438   6.574  11.040 -0.3636  0.2549 -0.1055
    5SAPS  H11A  543   2.487   6.671  11.020 -1.9997  1.5379  1.7101
    5SAPS  H11B  544   2.408   6.580  11.147  0.3505 -3.3625  0.4221
    5SAPS     P  545   2.192   6.654  10.991  0.0418 -0.5225 -0.3342
    5SAPS   O13  546   2.103   6.589  11.090  0.1390 -0.1417  0.0380
    5SAPS   O14  547   2.237   6.795  11.011  0.5486  0.5254  0.3921
    5SAPS   O12  548   2.316   6.561  10.965 -0.3425 -0.3160  0.1191
    5SAPS   O11  549   2.127   6.643  10.851  0.6341 -0.1237 -0.7369
    5SAPS    C1  550   2.123   6.757  10.763  0.7165  1.0163 -0.1086
    5SAPS    HA  551   2.026   6.757  10.709  1.8953  1.5058 -2.3425
    5SAPS    HB  552   2.123   6.857  10.812  1.7187  1.2250 -0.4993
    5SAPS    C2  553   2.228   6.739  10.643  0.2329 -0.1841 -0.7305
    5SAPS    HS  554   2.188   6.804  10.562 -3.4142  1.4280  2.0529
    5SAPS   O21  555   2.239   6.603  10.596  0.4192 -0.1786 -0.2327
    5SAPS   C21  556   2.157   6.578  10.485 -0.7100 -0.1743  0.2508
    5SAPS   O22  557   2.068   6.647  10.451 -0.4366 -0.2802  0.2602
    5SAPS   C22  558   2.208   6.452  10.426 -0.2666  0.5052  0.7295
    5SAPS   H2R  559   2.319   6.452  10.426 -0.2648  0.9078  1.1665
    5SAPS   H2S  560   2.173   6.356  10.471  0.2841  0.4821  1.1236
    5SAPS    C3  561   2.371   6.782  10.685 -0.0856  0.0972  0.0688
    5SAPS    HX  562   2.400   6.701  10.755 -1.0442 -0.2209  0.1210
    5SAPS    HY  563   2.366   6.879  10.738 -3.3973 -0.0584  0.2733
    5SAPS   O31  564   2.464   6.775  10.571  0.6760 -0.0013  0.3889
    5SAPS   C31  565   2.451   6.879  10.493  0.1899  1.2863  0.7247
    5SAPS   O32  566   2.384   6.978  10.513 -0.0474 -0.0516  0.3058
    5SAPS   C32  567   2.530   6.831  10.363  0.3478 -0.1265 -0.3409
    5SAPS   H2X  568   2.476   6.752  10.307  0.1307  1.8489 -3.1581
    5SAPS   H2Y  569   2.627   6.783  10.387 -0.1082 -0.5090  0.8077
    5SAPS   C23  570   2.162   6.444  10.280 -0.5444  0.2042  0.5036
    5SAPS   H3R  571   2.053   6.462  10.268 -0.7833  0.2330  2.4996
    5SAPS   H3S  572   2.164   6.335  10.256  1.4010  0.4523 -0.7143
    5SAPS   C24  573   2.249   6.502  10.164 -0.1685  0.1668 -0.4967
    5SAPS   H4R  574   2.229   6.450  10.068 -0.7202 -1.2494  0.3626
    5SAPS   H4S  575   2.352   6.473  10.194 -0.1698  0.4778 -0.1756
    5SAPS   C25  576   2.232   6.657  10.137  0.6907  0.3837 -0.1960
    5SAPS   H5R  577   2.229   6.714  10.231 -4.5907  0.5003 -0.1130
    5SAPS   C26  578   2.212   6.718  10.016  0.4781 -0.7368 -0.2261
    5SAPS   H6R  579   2.203   6.828  10.017 -1.5149 -0.8664  0.5842
    5SAPS   C27  580   2.205   6.665   9.877  0.1014  1.0606  0.4741
    5SAPS   H7R  581   2.108   6.679   9.825  0.3740 -1.3376 -0.7915
    5SAPS   H7S  582   2.207   6.554   9.868  0.2509  1.1702 -1.0309
    5SAPS   C28  583   2.321   6.720   9.799  0.7538  1.2774  0.2290
    5SAPS   H8R  584   2.399   6.771   9.858  1.0439 -0.2381  1.2373
    5SAPS   C29  585   2.319   6.711   9.665 -0.5488 -0.0692 -0.7244
    5SAPS   H9R  586   2.414   6.729   9.614 -0.3718 -1.5884 -0.9957
    5SAPS  C210  587   2.210   6.649   9.578 -0.0961 -0.4235  0.0141
    5SAPS  H10R  588   2.191   6.709   9.486  1.0989  0.6400  0.4290
    5SAPS  H10S  589   2.106   6.643   9.617 -0.8308 -0.8190 -1.8723
    5SAPS  C211  590   2.252   6.507   9.538  0.3257 -0.2728 -0.6592
    5SAPS  H11R  591   2.273   6.439   9.621 -1.1687 -0.6474 -0.5651
    5SAPS  C212  592   2.267   6.463   9.411  0.0739 -0.0802 -0.2794
    5SAPS  H12R  593   2.274   6.355   9.389 -2.9602 -0.3382 -0.3905
    5SAPS  C213  594   2.241   6.548   9.290 -0.5382 -0.1554  0.5424
    5SAPS  H13R  595   2.200   6.651   9.302  1.5059  0.9251 -1.1879
    5SAPS  H13S  596   2.160   6.494   9.237  0.7348  0.2647 -1.9566
    5SAPS  C214  597   2.360   6.556   9.197 -0.4304  0.2793  0.4801
    5SAPS  H14R  598   2.446   6.620   9.223  1.1790 -2.0658  1.3066
    5SAPS  C215  599   2.370   6.490   9.080  0.4922  0.1452  0.0800
    5SAPS  H15R  600   2.468   6.508   9.032 -1.0483  1.9327 -2.6020
    5SAPS  C216  601   2.268   6.391   9.021 -0.1060  0.9280 -0.4775
    5SAPS  H16R  602   2.202   6.440   8.946 -2.0576 -2.3516 -1.0990
    5SAPS  H16S  603   2.201   6.348   9.099 -0.8471  1.0319 -1.0381
    5SAPS  C217  604   2.340   6.276   8.943 -0.1371  0.3581 -0.1776
    5SAPS  H17R  605   2.422   6.229   9.000 -0.3532 -0.1766 -0.3073
    5SAPS  H17S  606   2.377   6.326   8.851 -1.8147 -1.3209 -1.8517
    5SAPS  C218  607   2.241   6.157   8.907  0.0141 -0.8070 -0.1365
    5SAPS  H18R  608   2.214   6.110   9.004 -1.6467 -1.0675 -0.7057
    5SAPS  H18S  609   2.149   6.203   8.867 -0.1896 -0.9611  0.1543
    5SAPS  C219  610   2.300   6.060   8.808 -0.1172 -0.0777  0.7545
    5SAPS  H19R  611   2.399   6.040   8.855  0.5694  0.5858 -0.3398
    5SAPS  H19S  612   2.313   6.121   8.716 -2.4322  0.6100  0.8199
    5SAPS  C220  613   2.215   5.936   8.791 -0.4177  0.2606 -0.2024
    5SAPS  H20R  614   2.261   5.864   8.721 -0.5261  0.2819 -0.2947
    5SAPS  H20S  615   2.116   5.970   8.753 -1.5846 -1.7892  0.7816
    5SAPS  H20T  616   2.196   5.885   8.889 -0.0193  1.5926  0.5956
    5SAPS   C33  617   2.554   6.948  10.263  0.2321 -0.2973  0.0806
    5SAPS   H3X  618   2.638   7.013  10.294  0.0296 -0.6804  1.5028
    5SAPS   H3Y  619   2.463   7.013  10.266  0.3450 -0.1077 -0.4893
    5SAPS   C34  620   2.575   6.920  10.112  0.5975  0.2110 -0.4494
    5SAPS   H4X  621   2.583   7.015  10.055 -1.0787  1.0186  0.5754
    5SAPS   H4Y  622   2.498   6.851  10.071 -0.1318  0.3624  0.6410
    5SAPS   C35  623   2.714   6.853  10.097  0.1546  0.5080 -0.2843
    5SAPS   H5X  624   2.713   6.766  10.167  0.3271  0.8903  0.1957
    5SAPS   H5Y  625   2.797   6.922  10.121  0.7070 -0.2822  0.1382
    5SAPS   C36  626   2.732   6.788   9.949 -0.0689 -0.7423  0.0072
    5SAPS   H6X  627   2.646   6.734   9.905 -2.0695  1.1673  1.3623
    5SAPS   H6Y  628   2.816   6.715   9.951  0.3170 -0.3401 -1.0968
    5SAPS   C37  629   2.759   6.913   9.855  0.2547  0.0931 -0.6980
    5SAPS   H7X  630   2.841   6.976   9.895  2.0155 -2.7949  0.5442
    5SAPS   H7Y  631   2.670   6.980   9.852  1.2562  1.4532 -2.6464
    5SAPS   C38  632   2.793   6.877   9.707 -0.0568 -0.3733  0.2011
    5SAPS   H8X  633   2.893   6.831   9.696 -0.1610 -0.1208 -2.3910
    5SAPS   H8Y  634   2.803   6.973   9.653 -0.4048 -0.5719 -0.2198
    5SAPS   C39  635   2.684   6.798   9.636  0.7160  0.3679 -0.6022
    5SAPS   H9X  636   2.595   6.852   9.674  0.9614 -0.3343  1.0890
    5SAPS   H9Y  637   2.676   6.691   9.664 -0.6585  0.5038 -0.4021
    5SAPS  C310  638   2.680   6.797   9.485  0.3238 -0.5266  0.0995
    5SAPS  H10X  639   2.692   6.897   9.438 -1.4095 -0.4227 -0.1670
    5SAPS  H10Y  640   2.582   6.757   9.451  0.1286  0.0649 -0.0482
    5SAPS  C311  641   2.796   6.716   9.427 -0.2815 -0.3088  0.0417
    5SAPS  H11X  642   2.799   6.619   9.481 -1.6859 -0.0452  0.6398
    5SAPS  H11Y  643   2.889   6.769   9.458 -0.4043 -0.2964  0.3887
    5SAPS  C312  644   2.797   6.703   9.278  0.8499  0.3274  0.5089
    5SAPS  H12X  645   2.797   6.804   9.233 -0.9588  0.8606  1.5918
    5SAPS  H12Y  646   2.712   6.639   9.247  0.1535  1.8646 -0.9085
    5SAPS  C313  647   2.928   6.634   9.225  0.9150 -0.1182 -0.5633
    5SAPS  H13X  648   2.939   6.530   9.260  1.1293  0.5701  1.5132
    5SAPS  H13Y  649   3.015   6.685   9.271  1.4749 -1.7951  0.3112
    5SAPS  C314  650   2.951   6.640   9.077 -0.2761 -0.4040 -1.0456
    5SAPS  H14X  651   3.047   6.587   9.062 -0.1955 -0.0364 -1.8621
    5SAPS  H14Y  652   2.952   6.749   9.055 -1.4971  0.2897  1.8278
    5SAPS  C315  653   2.842   6.573   8.990  0.1024  0.3939  0.1822
    5SAPS  H15X  654   2.747   6.630   8.985 -1.0921 -1.6107 -1.5812
    5SAPS  H15Y  655   2.829   6.470   9.030  1.3021  0.1980  0.1145
    5SAPS  C316  656   2.899   6.544   8.850 -0.1882  0.3621 -0.3866
    5SAPS  H16X  657   3.002   6.502   8.854  0.4108  1.7421 -0.9577
    5SAPS  H16Y  658   2.895   6.633   8.784 -0.9967 -0.7988 -1.9606
    5SAPS  C317  659   2.812   6.437   8.768 -0.4734  0.0075 -0.1780
    5SAPS  H17X  660   2.843   6.333   8.793  1.9229 -0.1501 -3.1337
    5SAPS  H17Y  661   2.836   6.430   8.660  0.7553 -2.2859  0.1796
    5SAPS  C318  662   2.658   6.457   8.792 -0.7078  0.3943  0.1450
    5SAPS  H18X  663   2.608   6.362   8.765  1.7442 -0.7509 -0.6157
    5SAPS  H18Y  664   2.615   6.528   8.718 -1.5735 -1.2988 -1.0295
    5SAPS  H18Z  665   2.626   6.489   8.894 -0.2614 -0.3542  0.5280
    6SAPS     N  666   2.041   5.690  11.082  0.4466  0.4229  0.7539
    6SAPS   HN1  667   1.972   5.662  11.154  0.0854 -1.9545 -0.4231
    6SAPS   HN2  668   2.041   5.622  11.004 -2.7988 -0.9751  1.7794
    6SAPS   HN3  669   2.129   5.673  11.135  0.2236 -1.2240  0.6409
    6SAPS   C12  670   2.025   5.827  11.035  0.0392  0.0787 -0.6825
    6SAPS  H12A  671   1.923   5.852  11.008  0.0885 -0.0420 -0.9847
    6SAPS   C13  672   2.057   5.926  11.151  0.7083 -0.3203 -0.4487
    6SAPS  O13A  673   2.091   5.886  11.266 -0.1574 -0.8454  0.6621
    6SAPS  O13B  674   2.061   6.047  11.117  0.2782 -0.4566 -0.0673
    6SAPS   C11  675   2.107   5.851  10.911 -0.6635  0.0516  1.4661
    6SAPS  H11A  676   2.214   5.820  10.916 -0.2121  1.3805  0.4843
    6SAPS  H11B  677   2.103   5.958  10.884  2.9670 -0.4459 -2.0604
    6SAPS     P  678   2.101   5.777  10.660 -0.0418  0.1850 -0.0048
    6SAPS   O13  679   2.226   5.690  10.661 -0.1623 -0.3737  0.5607
    6SAPS   O14  680   1.990   5.741  10.567  0.1304  0.5507 -0.8968
    6SAPS   O12  681   2.048   5.775  10.806  0.4229  0.5715 -0.2057
    6SAPS   O11  682   2.140   5.928  10.627  0.5827 -0.2527  0.2272
    6SAPS    C1  683   2.050   6.036  10.608  0.1263 -0.0086  0.6152
    6SAPS    HA  684   1.958   6.018  10.667 -0.6106  0.0816 -0.4814
    6SAPS    HB  685   2.100   6.131  10.634  1.3659 -0.7248  0.9499
    6SAPS    C2  686   1.997   6.055  10.460 -0.6602 -0.3680 -0.1313
    6SAPS    HS  687   1.945   5.961  10.432 -0.8748 -0.4500  0.5399
    6SAPS   O21  688   2.111   6.077  10.379  0.1021  0.4893 -0.6912
    6SAPS   C21  689   2.092   6.009  10.264  0.1541 -0.1416  0.7928
    6SAPS   O22  690   1.996   5.933  10.233 -0.6167 -0.6883 -0.2048
    6SAPS   C22  691   2.202   6.051  10.161  0.3479  0.4178  0.6752
    6SAPS   H2R  692   2.275   6.116  10.214  0.3435 -0.2477  1.5181
    6SAPS   H2S  693   2.255   5.962  10.121 -1.3268 -0.0258 -0.6677
    6SAPS    C3  694   1.904   6.176  10.457 -0.1657 -0.8687 -0.3042
    6SAPS    HX  695   1.970   6.265  10.457 -0.1364 -0.8831 -0.8565
    6SAPS    HY  696   1.838   6.186  10.545 -1.1038 -1.0317 -0.9718
    6SAPS   O31  697   1.831   6.202  10.330  0.4692  0.2339 -0.2126
    6SAPS   C31  698   1.729   6.117  10.312 -0.7332  0.1268 -0.1647
    6SAPS   O32  699   1.698   6.022  10.382  0.3792  0.4115 -0.4881
    6SAPS   C32  700   1.658   6.152  10.184  0.1457 -1.3350  0.0089
    6SAPS   H2X  701   1.647   6.263  10.186 -2.0856 -1.4882 -1.0058
    6SAPS   H2Y  702   1.558   6.104  10.173 -1.2834  1.3621  0.4513
    6SAPS   C23  703   2.140   6.118  10.033 -0.3585 -0.7638 -0.1325
    6SAPS   H3R  704   2.104   6.218  10.064  1.5653  1.1926 -3.5674
    6SAPS   H3S  705   2.048   6.060  10.008  0.1061 -1.5628 -0.0279
    6SAPS   C24  706   2.226   6.144   9.904  0.2283 -0.2931  0.2995
    6SAPS   H4R  707   2.263   6.044   9.871 -0.8824 -0.8859  0.7710
    6SAPS   H4S  708   2.323   6.187   9.935  0.5928 -1.3147  0.6137
    6SAPS   C25  709   2.152   6.230   9.803  0.2804 -0.0757 -0.0878
    6SAPS   H5R  710   2.121   6.329   9.841  1.6937 -0.3405  1.9114
    6SAPS   C26  711   2.115   6.197   9.675 -0.2686 -0.0749 -0.4454
    6SAPS   H6R  712   2.052   6.261   9.612 -2.3320 -2.1221 -0.6009
    6SAPS   C27  713   2.156   6.071   9.604 -0.5099 -0.1854 -0.0482
    6SAPS   H7R  714   2.069   6.023   9.555 -1.3105  1.9197 -0.7969
    6SAPS   H7S  715   2.189   5.994   9.677  1.0251  0.1909 -0.2970
    6SAPS   C28  716   2.270   6.101   9.507 -0.3567 -0.8235 -0.1060
    6SAPS   H8R  717   2.333   6.180   9.550 -0.5991  2.2563 -4.7622
    6SAPS   C29  718   2.276   6.056   9.379 -0.2674 -0.1916 -0.0785
    6SAPS   H9R  719   2.350   6.103   9.313 -1.1721  2.4033  0.6250
    6SAPS  C210  720   2.171   5.974   9.306  0.6560 -0.7773  0.0069
    6SAPS  H10R  721   2.153   5.874   9.351  2.9109 -1.3623 -0.2433
    6SAPS  H10S  722   2.211   5.941   9.207  0.3822 -4.1368  0.8929
    6SAPS  C211  723   2.039   6.044   9.288  0.1424  0.3368  0.2062
    6SAPS  H11R  724   2.016   6.124   9.360 -0.5137 -0.6549  1.1444
    6SAPS  C212  725   1.953   6.022   9.186  0.0514  0.3278 -0.3674
    6SAPS  H12R  726   1.862   6.083   9.180  0.2818  0.6669 -0.4697
    6SAPS  C213  727   1.961   5.946   9.056 -0.2994 -0.0914 -1.0655
    6SAPS  H13R  728   2.066   5.934   9.023 -0.3473 -1.4938 -0.8115
    6SAPS  H13S  729   1.904   5.993   8.973  1.9790  0.7739 -2.2107
    6SAPS  C214  730   1.907   5.807   9.071 -0.1316  0.7535  0.2698
    6SAPS  H14R  731   1.956   5.752   9.152  1.5074 -0.4825 -1.4544
    6SAPS  C215  732   1.817   5.731   9.004 -0.0165 -0.4968  0.2526
    6SAPS  H15R  733   1.790   5.635   9.052  1.2715 -0.2002  1.6216
    6SAPS  C216  734   1.745   5.758   8.875  0.0283 -0.8992 -0.3418
    6SAPS  H16R  735   1.764   5.858   8.832  1.8055 -0.7501  0.7299
    6SAPS  H16S  736   1.635   5.753   8.892 -0.2364 -0.7360 -1.8776
    6SAPS  C217  737   1.788   5.662   8.755  0.6924  0.5448 -0.6059
    6SAPS  H17R  738   1.738   5.689   8.659 -1.9945 -1.2624  0.1869
    6SAPS  H17S  739   1.762   5.558   8.783  1.7166  1.1339  2.9840
    6SAPS  C218  740   1.942   5.666   8.732 -0.3197 -0.6639 -0.5315
    6SAPS  H18R  741   1.984   5.596   8.808  1.0829 -0.8729 -1.4592
    6SAPS  H18S  742   1.975   5.765   8.771  0.9451 -1.7946  1.4868
    6SAPS  C219  743   1.999   5.628   8.594  0.3146 -0.0111  0.0590
    6SAPS  H19R  744   1.973   5.520   8.597 -3.3217  0.7552  0.4433
    6SAPS  H19S  745   2.109   5.639   8.597  0.6274 -2.5761  0.6283
    6SAPS  C220  746   1.946   5.710   8.471  0.4067 -0.4860 -0.0320
    6SAPS  H20R  747   1.983   5.671   8.374  2.1481  0.2787  0.2836
    6SAPS  H20S  748   1.971   5.819   8.475 -1.3642 -0.0526  0.1189
    6SAPS  H20T  749   1.836   5.713   8.455  0.4141 -3.4574 -1.2626
    6SAPS   C33  750   1.747   6.120  10.060 -0.6280  0.5929  0.1778
    6SAPS   H3X  751   1.783   6.016  10.074  1.7516  0.5699 -4.4133
    6SAPS   H3Y  752   1.836   6.186  10.057  0.3719 -0.4254  3.0535
    6SAPS   C34  753   1.664   6.140   9.927 -0.1234 -0.0042  0.9407
    6SAPS   H4X  754   1.600   6.232   9.932  0.4018  0.4684 -0.5720
    6SAPS   H4Y  755   1.590   6.059   9.909 -0.0482 -0.5217  2.7447
    6SAPS   C35  756   1.755   6.131   9.799 -0.4169 -0.5294 -0.1837
    6SAPS   H5X  757   1.816   6.039   9.809 -0.9363 -0.7235  1.4029
    6SAPS   H5Y  758   1.820   6.221   9.797 -1.4449  0.3292  1.9306
    6SAPS   C36  759   1.678   6.123   9.665 -0.4254 -0.5208  0.1393
    6SAPS   H6X  760   1.610   6.211   9.673 -0.1691 -0.3394  0.3155
    6SAPS   H6Y  761   1.615   6.032   9.673  2.0633 -2.1618  2.8092
    6SAPS   C37  762   1.768   6.135   9.539 -0.1178 -0.4203  0.5153
    6SAPS   H7X  763   1.818   6.037   9.524  1.4766  0.3878  0.2836
    6SAPS   H7Y  764   1.854   6.204   9.557  1.3466 -2.3172  1.0978
    6SAPS   C38  765   1.685   6.192   9.419  0.4284 -0.2909  0.4795
    6SAPS   H8X  766   1.759   6.218   9.340 -0.9137  0.7672 -0.4705
    6SAPS   H8Y  767   1.636   6.285   9.456 -0.5558 -0.5740 -0.0770
    6SAPS   C39  768   1.572   6.097   9.369  0.0560 -0.3290 -0.4549
    6SAPS   H9X  769   1.476   6.142   9.400 -0.5161 -1.7698 -0.0368
    6SAPS   H9Y  770   1.584   6.003   9.428 -1.3856 -0.3426 -0.1681
    6SAPS  C310  771   1.564   6.081   9.218 -0.3719 -0.2203  0.2796
    6SAPS  H10X  772   1.487   6.001   9.210 -1.0683  0.3952  0.7116
    6SAPS  H10Y  773   1.660   6.052   9.171 -0.2053  1.7551 -0.6988
    6SAPS  C311  774   1.517   6.206   9.140  0.2101 -0.0116 -0.3057
    6SAPS  H11X  775   1.535   6.300   9.197  1.5394 -0.4182 -0.0100
    6SAPS  H11Y  776   1.407   6.216   9.144  0.3320  1.5264 -0.2089
    6SAPS  C312  777   1.564   6.204   8.995 -0.1470 -0.4177  0.1048
    6SAPS  H12X  778   1.674   6.188   8.986 -0.0912 -1.4482  2.1188
    6SAPS  H12Y  779   1.538   6.305   8.955 -1.3950 -0.4658  0.7704
    6SAPS  C313  780   1.494   6.094   8.919  0.6637  0.0204  0.9489
    6SAPS  H13X  781   1.539   5.997   8.951 -0.3809 -0.5721  0.6666
    6SAPS  H13Y  782   1.521   6.099   8.811 -0.7928  2.6249  0.6336
    6SAPS  C314  783   1.339   6.097   8.913 -0.1930 -0.3066 -0.7248
    6SAPS  H14X  784   1.303   6.094   9.019  1.7880 -1.1225 -0.0182
    6SAPS  H14Y  785   1.316   6.002   8.860 -0.0828 -0.6033 -0.2516
    6SAPS  C315  786   1.289   6.214   8.833  0.2415 -0.5113  0.5109
    6SAPS  H15X  787   1.313   6.196   8.727 -2.5926  0.0619 -0.3226
    6SAPS  H15Y  788   1.346   6.305   8.860  2.6523 -2.0792  0.9591
    6SAPS  C316  789   1.131   6.231   8.835 -1.0419  0.1787 -0.5112
    6SAPS  H16X  790   1.101   6.251   8.940 -0.5665  0.4445 -0.4216
    6SAPS  H16Y  791   1.086   6.134   8.805  0.3888 -0.9960  0.9076
    6SAPS  C317  792   1.081   6.336   8.750 -0.4649 -0.5199 -0.3513
    6SAPS  H17X  793   1.143   6.428   8.751  0.4881 -1.0778 -2.0400
    6SAPS  H17Y  794   0.975   6.360   8.771 -0.1564  1.3025 -0.7540
    6SAPS  C318  795   1.091   6.294   8.596  0.3249 -0.3101 -0.4184
    6SAPS  H18X  796   1.039   6.199   8.572 -0.7846  0.4888 -1.2730
    6SAPS  H18Y  797   1.198   6.282   8.567  0.1907  0.8197 -1.4634
    6SAPS  H18Z  798   1.049   6.375   8.533  1.2382 -0.2790 -1.0209
    7SAPS     N  799   4.701   4.963  10.801  0.2972 -0.1168 -0.2748
    7SAPS   HN1  800   4.754   5.051  10.819 -0.1490  0.0674  0.1655
    7SAPS   HN2  801   4.771   4.887  10.811  0.6111  0.3440  1.2813
    7SAPS   HN3  802   4.658   4.974  10.707  2.8673  0.0628 -1.5224
    7SAPS   C12  803   4.594   4.942  10.903 -0.2768 -0.0943  0.5619
    7SAPS  H12A  804   4.540   4.856  10.866 -0.3317  1.6361 -4.0580
    7SAPS   C13  805   4.657   4.904  11.040 -0.3257  0.1871  0.8079
    7SAPS  O13A  806   4.783   4.905  11.052 -0.0060  0.3740  0.7472
    7SAPS  O13B  807   4.580   4.893  11.141  0.2228 -0.7572  0.1224
    7SAPS   C11  808   4.499   5.069  10.908 -0.1907  0.7629 -0.1316
    7SAPS  H11A  809   4.557   5.158  10.941  0.0616  1.5039 -2.4136
    7SAPS  H11B  810   4.423   5.035  10.981 -0.9277 -1.6302 -1.8911
    7SAPS     P  811   4.334   5.214  10.779  0.2666  0.0377  0.4667
    7SAPS   O13  812   4.217   5.179  10.866 -0.2586 -0.0339 -0.4690
    7SAPS   O14  813   4.405   5.340  10.808 -0.3796 -0.5251 -0.2648
    7SAPS   O12  814   4.449   5.099  10.778  0.0996 -0.2404 -0.1405
    7SAPS   O11  815   4.279   5.214  10.627 -0.3336 -0.1396 -0.1803
    7SAPS    C1  816   4.376   5.170  10.531 -0.1768 -0.3720  0.4612
    7SAPS    HA  817   4.479   5.197  10.562  0.1890  0.7762 -1.5598
    7SAPS    HB  818   4.377   5.060  10.513  0.3608 -0.6018  1.8096
    7SAPS    C2  819   4.347   5.242  10.393 -0.0337 -0.0737 -0.2989
    7SAPS    HS  820   4.407   5.198  10.311  1.0834 -0.2542  0.5911
    7SAPS   O21  821   4.377   5.382  10.398 -0.6221 -0.3083 -0.6385
    7SAPS   C21  822   4.501   5.417  10.391 -0.2265 -0.5547  1.1739
    7SAPS   O22  823   4.596   5.344  10.392 -0.0286  0.1385  0.0976
    7SAPS   C22  824   4.510   5.569  10.355 -0.2569  1.2133  0.0049
    7SAPS   H2R  825   4.443   5.621  10.426 -1.6602  0.3603 -0.6636
    7SAPS   H2S  826   4.617   5.591  10.379  0.4026 -0.8140 -0.9195
    7SAPS    C3  827   4.192   5.227  10.357 -0.1529  0.4439  0.1549
    7SAPS    HX  828   4.141   5.295  10.428 -0.3391  1.2840 -0.7639
    7SAPS    HY  829   4.158   5.123  10.378 -2.5937  0.8956 -1.2177
    7SAPS   O31  830   4.175   5.262  10.218 -0.0913  0.1481  0.5604
    7SAPS   C31  831   4.046   5.275  10.191  0.4164 -1.1193  0.7111
    7SAPS   O32  832   3.954   5.250  10.267  0.3667 -0.1907  0.0852
    7SAPS   C32  833   4.022   5.329  10.049 -0.4806  0.2206  0.1707
    7SAPS   H2X  834   3.989   5.435  10.055 -1.0132 -0.0167  3.6653
    7SAPS   H2Y  835   3.943   5.272   9.996  0.6397  1.8482 -3.6263
    7SAPS   C23  836   4.449   5.606  10.218  0.5339 -0.1385  0.1766
    7SAPS   H3R  837   4.455   5.715  10.198 -0.3279  0.0711  0.9575
    7SAPS   H3S  838   4.342   5.574  10.223 -0.5516  3.1315  0.4192
    7SAPS   C24  839   4.520   5.540  10.101  0.4864  0.1520 -0.7565
    7SAPS   H4R  840   4.520   5.430  10.117  4.2747  0.2088  0.9291
    7SAPS   H4S  841   4.629   5.564  10.102  0.9307 -1.7302 -0.3107
    7SAPS   C25  842   4.461   5.568   9.963  0.0651  0.6638 -0.4849
    7SAPS   H5R  843   4.361   5.524   9.946 -0.1812  0.9529  0.1922
    7SAPS   C26  844   4.517   5.622   9.856 -0.6273 -0.8401  0.3232
    7SAPS   H6R  845   4.465   5.621   9.759  1.0247  2.0497 -0.7205
    7SAPS   C27  846   4.656   5.684   9.840 -0.0309 -0.1072  0.0160
    7SAPS   H7R  847   4.672   5.745   9.931  0.9650 -0.2520 -0.0443
    7SAPS   H7S  848   4.660   5.751   9.751  2.4065  1.2922  1.0903
    7SAPS   C28  849   4.758   5.570   9.844 -0.3031  0.6279 -0.2450
    7SAPS   H8R  850   4.778   5.526   9.943 -0.0620 -2.9377 -1.7300
    7SAPS   C29  851   4.836   5.547   9.732  0.2689  0.0704 -0.7500
    7SAPS   H9R  852   4.918   5.474   9.737  1.3034  1.2372 -0.3784
    7SAPS  C210  853   4.834   5.611   9.598 -0.0291 -0.2912 -0.0441
    7SAPS  H10R  854   4.940   5.637   9.579 -0.4304  0.6475 -1.1015
    7SAPS  H10S  855   4.797   5.716   9.603 -0.0440 -0.2302 -1.1916
    7SAPS  C211  856   4.756   5.542   9.491  0.1185 -0.1081 -0.2535
    7SAPS  H11R  857   4.668   5.491   9.533  1.2548 -2.4878 -0.5860
    7SAPS  C212  858   4.785   5.530   9.365 -0.3671  0.1951  0.9161
    7SAPS  H12R  859   4.721   5.492   9.284  0.5473 -1.4985  0.9300
    7SAPS  C213  860   4.911   5.597   9.298 -0.3520 -0.5132  0.3881
    7SAPS  H13R  861   4.947   5.538   9.211  2.8240  0.2503  1.0532
    7SAPS  H13S  862   5.004   5.615   9.356  0.2865  0.3872 -0.8762
    7SAPS  C214  863   4.868   5.739   9.252 -0.3796 -0.6603  0.3653
    7SAPS  H14R  864   4.817   5.803   9.325 -0.2305  2.5880 -2.1608
    7SAPS  C215  865   4.876   5.785   9.124 -0.4060  0.0026  0.4951
    7SAPS  H15R  866   4.845   5.888   9.103  3.1669  1.2766  0.7260
    7SAPS  C216  867   4.932   5.705   9.008  0.0179  0.0757 -0.3809
    7SAPS  H16R  868   4.854   5.636   8.968 -0.8025 -0.0187  1.2976
    7SAPS  H16S  869   5.014   5.641   9.047 -1.1027 -0.7645  0.6832
    7SAPS  C217  870   4.979   5.787   8.893 -0.5439 -0.3343 -0.2220
    7SAPS  H17R  871   4.899   5.855   8.855 -0.7569  0.8943  2.2547
    7SAPS  H17S  872   5.017   5.722   8.812 -0.8483  0.2456 -0.8442
    7SAPS  C218  873   5.101   5.880   8.930  0.1558  0.0071  0.1340
    7SAPS  H18R  874   5.188   5.821   8.966  2.0013  2.2766 -0.3656
    7SAPS  H18S  875   5.075   5.948   9.014  0.9720 -0.0318  0.4261
    7SAPS  C219  876   5.149   5.964   8.809 -0.0835 -0.6230  0.2156
    7SAPS  H19R  877   5.144   5.891   8.725 -2.6984 -0.0535 -0.2084
    7SAPS  H19S  878   5.252   6.002   8.829 -0.8504  1.2897  0.7402
    7SAPS  C220  879   5.056   6.085   8.766 -0.3901  0.1755  0.5480
    7SAPS  H20R  880   5.113   6.161   8.708 -2.6986  1.8711  0.3663
    7SAPS  H20S  881   4.996   6.133   8.847 -0.6261  2.7023 -1.0167
    7SAPS  H20T  882   4.980   6.047   8.694  0.1137  1.8945 -0.9640
    7SAPS   C33  883   4.151   5.329   9.955  0.3683  0.4493  0.5185
    7SAPS   H3X  884   4.187   5.224   9.946  1.2261  0.6326  1.6414
    7SAPS   H3Y  885   4.227   5.391  10.008  3.5178 -0.9685 -2.0035
    7SAPS   C34  886   4.113   5.387   9.817  0.0916  0.0383  0.1302
    7SAPS   H4X  887   4.101   5.497   9.830  1.9612  0.1050  1.6533
    7SAPS   H4Y  888   4.017   5.344   9.780 -1.0450  0.8404  1.9742
    7SAPS   C35  889   4.217   5.372   9.710  0.1431  0.4415 -0.6100
    7SAPS   H5X  890   4.253   5.268   9.697 -0.3986  0.2668 -0.7252
    7SAPS   H5Y  891   4.310   5.421   9.746  0.5816 -1.4633  0.9890
    7SAPS   C36  892   4.178   5.426   9.568  0.5321 -0.4187 -1.0558
    7SAPS   H6X  893   4.167   5.536   9.579 -0.9293 -0.8213  3.3367
    7SAPS   H6Y  894   4.080   5.381   9.539 -0.0610 -0.3870  0.7958
    7SAPS   C37  895   4.283   5.400   9.455 -0.8287  0.9455 -0.6015
    7SAPS   H7X  896   4.295   5.293   9.426 -0.4977  1.4658 -2.5034
    7SAPS   H7Y  897   4.381   5.421   9.504 -0.8329 -1.1841  0.4320
    7SAPS   C38  898   4.288   5.486   9.325 -0.6293 -1.0773 -0.2850
    7SAPS   H8X  899   4.278   5.595   9.345  0.9034 -0.9215 -0.2951
    7SAPS   H8Y  900   4.193   5.463   9.272 -0.3280  0.3295 -1.5289
    7SAPS   C39  901   4.407   5.449   9.234  0.6287 -0.2308  0.1163
    7SAPS   H9X  902   4.404   5.338   9.233 -3.5470 -0.2503 -0.1033
    7SAPS   H9Y  903   4.504   5.481   9.278  1.1172 -0.3283 -0.8695
    7SAPS  C310  904   4.404   5.506   9.091  0.3117  0.0234 -0.7262
    7SAPS  H10X  905   4.305   5.479   9.050  0.1402 -0.1489 -0.2158
    7SAPS  H10Y  906   4.491   5.467   9.034  0.6654 -0.5957  0.2085
    7SAPS  C311  907   4.439   5.655   9.079 -0.2762  0.3782 -0.2652
    7SAPS  H11X  908   4.521   5.672   9.151 -0.3901 -0.9783  0.2143
    7SAPS  H11Y  909   4.343   5.702   9.109 -0.8369  0.5332 -2.1361
    7SAPS  C312  910   4.480   5.699   8.933 -0.1169  0.0501 -0.2826
    7SAPS  H12X  911   4.421   5.638   8.860  0.8824  1.3160 -2.2192
    7SAPS  H12Y  912   4.576   5.655   8.899  0.4358 -0.6168  1.9748
    7SAPS  C313  913   4.458   5.835   8.898  0.4935 -0.5960  0.6178
    7SAPS  H13X  914   4.526   5.910   8.944 -1.0400  0.5384  1.1140
    7SAPS  H13Y  915   4.355   5.865   8.929  0.4681 -1.8435  1.8306
    7SAPS  C314  916   4.457   5.865   8.744 -0.0614 -0.5463  0.6345
    7SAPS  H14X  917   4.563   5.855   8.715 -0.2137 -0.6991  0.1227
    7SAPS  H14Y  918   4.432   5.971   8.719 -0.5517 -1.2543 -2.1417
    7SAPS  C315  919   4.368   5.772   8.666  0.9266  0.3549 -0.3461
    7SAPS  H15X  920   4.282   5.734   8.725  0.9206  0.5080 -0.2550
    7SAPS  H15Y  921   4.426   5.680   8.645  1.7056  0.0428  2.7028
    7SAPS  C316  922   4.315   5.827   8.529 -0.5712  0.8556 -1.0932
    7SAPS  H16X  923   4.271   5.927   8.546  2.7574  2.3134 -0.2552
    7SAPS  H16Y  924   4.235   5.757   8.495 -0.1621 -0.8700  1.2113
    7SAPS  C317  925   4.421   5.822   8.416  0.0728  0.0098  0.5536
    7SAPS  H17X  926   4.432   5.717   8.382  1.5211  0.5097 -0.6587
    7SAPS  H17Y  927   4.517   5.863   8.456 -0.8046  2.3656  0.4196
    7SAPS  C318  928   4.361   5.897   8.305  0.3488 -0.6940  0.2052
    7SAPS  H18X  929   4.351   6.008   8.308 -2.2842 -0.8744  0.2198
    7SAPS  H18Y  930   4.257   5.864   8.282  0.3150 -0.5200  0.1004
    7SAPS  H18Z  931   4.425   5.882   8.215  0.5176 -0.9462  0.3663
    8SAPS     N  932   4.073   6.107  11.161 -0.9550 -0.3822 -0.2758
    8SAPS   HN1  933   4.080   6.207  11.135  0.8517 -0.3669  0.1298
    8SAPS   HN2  934   4.170   6.071  11.175 -1.5890 -1.5455  1.4978
    8SAPS   HN3  935   4.018   6.052  11.092  0.7369 -1.6149 -0.7065
    8SAPS   C12  936   4.001   6.099  11.288 -0.4330  0.4515  0.5484
    8SAPS  H12A  937   4.003   5.993  11.311 -1.0332  0.0143 -1.2330
    8SAPS   C13  938   4.072   6.165  11.408 -0.3548  0.5370 -0.1385
    8SAPS  O13A  939   4.187   6.217  11.398 -0.3131 -0.0144  0.1965
    8SAPS  O13B  940   4.001   6.166  11.513  0.0474 -0.3367 -0.1487
    8SAPS   C11  941   3.861   6.153  11.257  0.6427 -0.0387  0.2190
    8SAPS  H11A  942   3.875   6.254  11.214 -0.2695  0.2711  0.6370
    8SAPS  H11B  943   3.809   6.177  11.352  1.1811  0.3425  0.4193
    8SAPS     P  944   3.625   6.114  11.149  0.0430 -0.0135 -0.6297
    8SAPS   O13  945   3.548   5.999  11.206 -0.1113  0.3823 -0.6473
    8SAPS   O14  946   3.584   6.248  11.196 -0.6993  0.4141 -0.5945
    8SAPS   O12  947   3.784   6.079  11.161 -0.8780  0.1002 -0.1822
    8SAPS   O11  948   3.602   6.121  10.994 -0.5365  0.1181 -0.0615
    8SAPS    C1  949   3.675   6.037  10.911  0.1551  0.0405  0.0792
    8SAPS    HA  950   3.781   6.070  10.902  0.3504 -0.8917 -1.4893
    8SAPS    HB  951   3.677   5.934  10.955  3.2574 -0.2499 -0.4684
    8SAPS    C2  952   3.605   6.026  10.779  0.3474  0.6625  0.3744
    8SAPS    HS  953   3.644   5.939  10.722  1.2244  1.5238 -0.3876
    8SAPS   O21  954   3.637   6.144  10.703  0.3070 -0.3577  0.5734
    8SAPS   C21  955   3.746   6.147  10.637 -0.7813  0.5412  0.2168
    8SAPS   O22  956   3.829   6.057  10.617  0.6016 -0.4847 -0.3762
    8SAPS   C22  957   3.763   6.286  10.567  0.1234 -0.1419 -0.2586
    8SAPS   H2R  958   3.797   6.353  10.649 -1.3335 -0.4791  0.6611
    8SAPS   H2S  959   3.854   6.274  10.504 -0.4795  2.8945 -1.9062
    8SAPS    C3  960   3.449   6.013  10.768  0.0421  0.2056 -0.1492
    8SAPS    HX  961   3.418   6.089  10.844  2.0918  0.7455  0.2213
    8SAPS    HY  962   3.424   5.913  10.809  1.1340  0.4881  1.3215
    8SAPS   O31  963   3.411   6.036  10.635  0.4575 -0.2890 -0.3871
    8SAPS   C31  964   3.340   6.140  10.606  0.6967 -0.4810  0.2340
    8SAPS   O32  965   3.321   6.241  10.675  0.5660 -0.6235 -0.2537
    8SAPS   C32  966   3.299   6.132  10.462  0.2047  0.3584 -0.8561
    8SAPS   H2X  967   3.231   6.046  10.448  1.6275 -0.7860 -0.9123
    8SAPS   H2Y  968   3.395   6.115  10.410  0.5924 -1.9536  0.4943
    8SAPS   C23  969   3.640   6.341  10.497  0.4093 -0.1434  0.0080
    8SAPS   H3R  970   3.658   6.447  10.470  0.7289 -0.4037 -0.8553
    8SAPS   H3S  971   3.548   6.341  10.559 -0.7365  1.4117 -1.5919
    8SAPS   C24  972   3.613   6.266  10.369  0.9246 -0.4643 -0.3672
    8SAPS   H4R  973   3.517   6.308  10.332 -0.2299 -0.7726  2.0534
    8SAPS   H4S  974   3.608   6.157  10.391  2.2914 -0.0677  2.3613
    8SAPS   C25  975   3.710   6.302  10.257 -0.6285 -0.0508 -0.1488
    8SAPS   H5R  976   3.801   6.241  10.258  0.8706  1.8178  4.1728
    8SAPS   C26  977   3.701   6.404  10.170 -0.1994 -0.9887 -0.0069
    8SAPS   H6R  978   3.772   6.412  10.086 -1.7815 -0.5550 -1.3412
    8SAPS   C27  979   3.595   6.512  10.158 -0.3233  0.5352 -0.2565
    8SAPS   H7R  980   3.564   6.546  10.259  1.4559  0.9719  0.1680
    8SAPS   H7S  981   3.502   6.460  10.127  0.9538 -0.8373 -1.9533
    8SAPS   C28  982   3.629   6.630  10.071 -0.0087  0.7344  0.4513
    8SAPS   H8R  983   3.719   6.685  10.101  0.1899 -0.4872  2.2277
    8SAPS   C29  984   3.570   6.661   9.953  0.4748  0.1612 -0.6076
    8SAPS   H9R  985   3.608   6.751   9.902  0.9578 -0.6015 -1.6503
    8SAPS  C210  986   3.459   6.576   9.893  0.6086 -0.0543  0.2530
    8SAPS  H10R  987   3.393   6.644   9.835  0.6701 -0.2960 -0.1079
    8SAPS  H10S  988   3.388   6.528   9.964 -0.4465  0.8929 -0.1366
    8SAPS  C211  989   3.513   6.471   9.796 -0.2942 -0.1346 -0.1660
    8SAPS  H11R  990   3.505   6.368   9.832 -1.5823 -0.1553 -0.4563
    8SAPS  C212  991   3.541   6.488   9.667 -0.3686 -0.6050  0.5070
    8SAPS  H12R  992   3.597   6.406   9.620  0.7356 -0.1110  0.9327
    8SAPS  C213  993   3.537   6.618   9.588  0.1657  0.4084  0.2067
    8SAPS  H13R  994   3.518   6.712   9.644 -0.2406  1.1591 -1.1480
    8SAPS  H13S  995   3.461   6.608   9.507 -1.6385 -2.2546  2.0634
    8SAPS  C214  996   3.675   6.629   9.528 -0.6969  0.1610  0.5867
    8SAPS  H14R  997   3.752   6.675   9.591 -1.3257  1.6966  0.2697
    8SAPS  C215  998   3.720   6.582   9.405 -0.2454 -0.4691  0.3705
    8SAPS  H15R  999   3.826   6.600   9.385 -0.6027  1.5284  0.1134
    8SAPS  C216 1000   3.639   6.507   9.301  0.1924 -0.0460  0.0936
    8SAPS  H16R 1001   3.629   6.553   9.201  0.1298 -0.3533 -0.0436
    8SAPS  H16S 1002   3.532   6.507   9.331 -0.6399 -0.5437 -2.6507
    8SAPS  C217 1003   3.692   6.366   9.267  0.1599  0.0524 -0.4741
    8SAPS  H17R 1004   3.790   6.377   9.216 -0.5741  1.6337 -1.6681
    8SAPS  H17S 1005   3.629   6.321   9.188 -0.9992 -4.1070  2.4989
    8SAPS  C218 1006   3.685   6.261   9.383  0.3469 -0.6880  0.6722
    8SAPS  H18R 1007   3.584   6.276   9.426  0.8347  1.4180  1.2169
    8SAPS  H18S 1008   3.755   6.290   9.464 -0.1679  0.7657  0.6245
    8SAPS  C219 1009   3.738   6.125   9.330 -0.2160 -0.2627 -0.5558
    8SAPS  H19R 1010   3.789   6.058   9.403 -1.4153 -0.2645  0.3110
    8SAPS  H19S 1011   3.813   6.157   9.255 -0.4098  1.1636 -0.1711
    8SAPS  C220 1012   3.633   6.039   9.265  0.3885  0.1153  0.0080
    8SAPS  H20R 1013   3.571   6.000   9.349  2.2061  1.0327  1.8815
    8SAPS  H20S 1014   3.689   5.951   9.227 -1.0103 -1.6967  1.9178
    8SAPS  H20T 1015   3.583   6.088   9.179  0.9470 -0.5125 -0.6917
    8SAPS   C33 1016   3.234   6.257  10.402 -0.0722  0.0258  0.5742
    8SAPS   H3X 1017   3.297   6.347  10.417  1.2401 -0.2969 -2.3594
    8SAPS   H3Y 1018   3.134   6.276  10.446 -0.5775  0.2972 -0.6314
    8SAPS   C34 1019   3.201   6.230  10.256  0.0221 -0.0358 -0.3819
    8SAPS   H4X 1020   3.136   6.141  10.239  0.1097 -0.9121  3.0838
    8SAPS   H4Y 1021   3.294   6.204  10.201 -2.2123 -0.6857 -4.2257
    8SAPS   C35 1022   3.139   6.362  10.202  0.6961 -0.7300  0.7174
    8SAPS   H5X 1023   3.213   6.440  10.230  0.5919 -0.7566  1.0719
    8SAPS   H5Y 1024   3.056   6.403  10.264  0.7791  1.5144 -0.5394
    8SAPS   C36 1025   3.112   6.367  10.051  0.2447  0.4036  0.2371
    8SAPS   H6X 1026   3.018   6.308  10.051  1.0793 -1.0549  2.5582
    8SAPS   H6Y 1027   3.191   6.317   9.991 -0.2898  0.8459 -0.8660
    8SAPS   C37 1028   3.092   6.511  10.007  0.3803  0.3351  0.7171
    8SAPS   H7X 1029   3.185   6.570  10.017  0.6239  0.2798 -0.9202
    8SAPS   H7Y 1030   3.021   6.562  10.075  0.7858  1.8963  0.0183
    8SAPS   C38 1031   3.039   6.531   9.866 -0.0175 -0.0394  0.6580
    8SAPS   H8X 1032   3.053   6.639   9.844 -1.1264 -0.1523 -0.7767
    8SAPS   H8Y 1033   2.930   6.514   9.870  0.1187 -1.0813  0.3885
    8SAPS   C39 1034   3.107   6.447   9.761 -0.2497 -1.1187  0.1959
    8SAPS   H9X 1035   3.072   6.341   9.764  0.3356 -1.2832  1.9066
    8SAPS   H9Y 1036   3.218   6.450   9.768 -0.2653 -2.1709  1.2574
    8SAPS  C310 1037   3.069   6.502   9.621 -0.3158  0.1344  0.5544
    8SAPS  H10X 1038   3.079   6.613   9.612 -1.7882  0.2400 -0.0131
    8SAPS  H10Y 1039   2.965   6.474   9.596  0.4671 -1.5994 -1.0192
    8SAPS  C311 1040   3.156   6.443   9.505  0.2782 -0.0933 -0.3585
    8SAPS  H11X 1041   3.261   6.460   9.538  0.1676  1.0059 -0.5534
    8SAPS  H11Y 1042   3.133   6.509   9.419  0.8235  2.2485  1.1937
    8SAPS  C312 1043   3.110   6.298   9.468 -0.3842 -0.3250 -0.1222
    8SAPS  H12X 1044   2.999   6.300   9.464 -0.5110  3.6474  1.1551
    8SAPS  H12Y 1045   3.121   6.228   9.554 -0.0872  0.4064  0.4425
    8SAPS  C313 1046   3.166   6.219   9.348 -0.6002  0.3390 -0.2243
    8SAPS  H13X 1047   3.114   6.121   9.342 -1.2876  0.5996  1.1224
    8SAPS  H13Y 1048   3.269   6.188   9.379  0.0583 -1.1478 -3.4465
    8SAPS  C314 1049   3.167   6.297   9.215 -0.3267  0.0031 -0.6918
    8SAPS  H14X 1050   3.192   6.405   9.224 -0.3266  0.5816 -5.1087
    8SAPS  H14Y 1051   3.061   6.300   9.179 -0.7414 -0.6913  0.4337
    8SAPS  C315 1052   3.246   6.241   9.105  0.5595 -0.0368  0.0386
    8SAPS  H15X 1053   3.239   6.130   9.101 -1.4250  0.0520 -0.0994
    8SAPS  H15Y 1054   3.351   6.264   9.132 -0.4478  1.3838  3.2519
    8SAPS  C316 1055   3.206   6.305   8.970  0.0265  0.3200  0.3297
    8SAPS  H16X 1056   3.206   6.416   8.979  0.8898  0.3121  0.5169
    8SAPS  H16Y 1057   3.107   6.270   8.935  0.6633 -0.5308 -0.6997
    8SAPS  C317 1058   3.314   6.260   8.860  0.1610  0.5175 -0.0509
    8SAPS  H17X 1059   3.317   6.148   8.861 -3.1573  0.3452  0.7962
    8SAPS  H17Y 1060   3.404   6.290   8.918 -1.0567 -2.1212  3.6209
    8SAPS  C318 1061   3.296   6.335   8.731 -0.0693  1.2061 -0.9858
    8SAPS  H18X 1062   3.361   6.288   8.653 -1.8957  0.7741 -2.3153
    8SAPS  H18Y 1063   3.328   6.439   8.754 -1.5757  1.3830  0.4402
    8SAPS  H18Z 1064   3.191   6.318   8.700  0.1736  0.0634 -1.2452
    9SAPS     N 1065   3.946   2.192   6.010  0.2625 -0.2491 -1.0389
    9SAPS   HN1 1066   3.905   2.286   6.027  1.1520 -0.4465  3.8924
    9SAPS   HN2 1067   3.901   2.144   5.930 -0.4777 -1.1931 -0.0956
    9SAPS   HN3 1068   3.912   2.135   6.090 -1.7680 -0.0898 -1.7280
    9SAPS   C12 1069   4.095   2.203   5.999 -0.9433 -0.8649 -0.8394
    9SAPS  H12A 1070   4.147   2.114   5.969 -0.5469 -0.8057 -0.3424
    9SAPS   C13 1071   4.142   2.320   5.909  0.0895 -0.3199  0.1545
    9SAPS  O13A 1072   4.061   2.399   5.856  0.0009 -0.0262  0.1418
    9SAPS  O13B 1073   4.267   2.322   5.876  0.3027 -0.2649  0.3382
    9SAPS   C11 1074   4.143   2.256   6.138  0.3294 -0.1130  0.8927
    9SAPS  H11A 1075   4.080   2.343   6.166  0.4406  0.6991 -1.2123
    9SAPS  H11B 1076   4.246   2.296   6.141  0.2788  0.0730  0.3554
    9SAPS     P 1077   4.251   2.054   6.263 -0.3231  0.3754  0.1249
    9SAPS   O13 1078   4.288   1.988   6.138  0.5852  0.2391  0.2538
    9SAPS   O14 1079   4.361   2.124   6.335  0.2595 -0.3878  0.0164
    9SAPS   O12 1080   4.130   2.159   6.235 -0.3885 -0.1946  0.2628
    9SAPS   O11 1081   4.187   1.943   6.366 -0.2381 -0.1966  0.2196
    9SAPS    C1 1082   4.101   1.980   6.477  0.5935 -0.7769  0.0356
    9SAPS    HA 1083   4.097   2.091   6.476  0.2198 -0.7852 -1.0027
    9SAPS    HB 1084   3.995   1.950   6.458  0.2013  1.2747 -1.4126
    9SAPS    C2 1085   4.139   1.925   6.614 -0.0688 -0.2706 -0.2740
    9SAPS    HS 1086   4.071   1.974   6.687  1.9709 -0.4567  1.8992
    9SAPS   O21 1087   4.274   1.961   6.639 -0.1178  0.5772 -0.1348
    9SAPS   C21 1088   4.293   2.044   6.741  0.5090 -0.0958  0.3606
    9SAPS   O22 1089   4.203   2.089   6.816 -0.1553 -0.6109  0.8188
    9SAPS   C22 1090   4.437   2.076   6.755  0.2008  0.1379  0.0976
    9SAPS   H2R 1091   4.484   1.978   6.776  0.2047  0.3450  1.0729
    9SAPS   H2S 1092   4.470   2.120   6.658 -0.1446  2.0483  0.8015
    9SAPS    C3 1093   4.116   1.767   6.626 -0.1698  0.3205 -0.0005
    9SAPS    HX 1094   4.172   1.723   6.541  1.4030  1.3368  0.4590
    9SAPS    HY 1095   4.011   1.735   6.615  0.4638 -1.4386 -1.4937
    9SAPS   O31 1096   4.177   1.715   6.752  0.3247  0.4794 -0.3421
    9SAPS   C31 1097   4.119   1.765   6.864  0.9226 -0.6279  0.1723
    9SAPS   O32 1098   4.012   1.831   6.863  0.3528  0.4045 -0.1360
    9SAPS   C32 1099   4.193   1.733   6.993 -0.3583 -0.6676  0.0198
    9SAPS   H2X 1100   4.296   1.699   6.969 -0.6641 -1.1695 -0.6082
    9SAPS   H2Y 1101   4.131   1.653   7.040 -0.9022  1.0459  2.4158
    9SAPS   C23 1102   4.462   2.167   6.874  0.3386  0.2709  1.1482
    9SAPS   H3R 1103   4.433   2.113   6.967  0.8321 -0.4112  0.9086
    9SAPS   H3S 1104   4.394   2.254   6.862  0.6664  0.2080 -1.6359
    9SAPS   C24 1105   4.614   2.212   6.890 -0.3751  0.2697 -0.1052
    9SAPS   H4R 1106   4.620   2.297   6.960 -1.1808  0.8317 -0.6949
    9SAPS   H4S 1107   4.649   2.249   6.791  1.3561 -0.3753  0.2206
    9SAPS   C25 1108   4.705   2.102   6.943 -0.7304 -0.0176 -0.2518
    9SAPS   H5R 1109   4.755   2.043   6.864  0.1322  0.7620 -0.3086
    9SAPS   C26 1110   4.728   2.070   7.069 -0.2285 -0.0461 -0.2627
    9SAPS   H6R 1111   4.801   1.990   7.087  1.2652  1.4300  0.5775
    9SAPS   C27 1112   4.662   2.142   7.192  0.3547 -0.1615 -0.3532
    9SAPS   H7R 1113   4.682   2.084   7.285 -0.9068  1.1370  0.7749
    9SAPS   H7S 1114   4.553   2.144   7.175  0.2843  1.8236  0.0076
    9SAPS   C28 1115   4.705   2.288   7.214 -0.6013  0.3854  0.2281
    9SAPS   H8R 1116   4.727   2.345   7.123  1.9409 -2.2971 -0.9928
    9SAPS   C29 1117   4.722   2.337   7.339  0.1015 -0.5209  0.3136
    9SAPS   H9R 1118   4.738   2.444   7.362 -0.2067 -1.2311  4.8455
    9SAPS  C210 1119   4.697   2.267   7.473 -0.1169  0.1112  1.0584
    9SAPS  H10R 1120   4.777   2.300   7.542 -0.2172 -1.3124  1.8989
    9SAPS  H10S 1121   4.720   2.158   7.477 -0.8643 -0.1387 -0.7654
    9SAPS  C211 1122   4.559   2.297   7.518  0.2956 -1.1483 -0.0377
    9SAPS  H11R 1123   4.476   2.280   7.447  0.5821 -0.3026 -0.6062
    9SAPS  C212 1124   4.517   2.352   7.635 -0.9555 -0.2844  0.5409
    9SAPS  H12R 1125   4.413   2.388   7.644 -0.9483  0.0347 -0.4425
    9SAPS  C213 1126   4.602   2.399   7.750  0.3638 -0.2434 -0.0144
    9SAPS  H13R 1127   4.586   2.508   7.762 -0.9950 -0.6042  2.1157
    9SAPS  H13S 1128   4.712   2.398   7.737  0.3567 -4.0140 -1.0126
    9SAPS  C214 1129   4.582   2.321   7.876  0.7156 -0.0353 -0.0621
    9SAPS  H14R 1130   4.581   2.213   7.857 -0.6067  0.0488 -0.5860
    9SAPS  C215 1131   4.563   2.369   7.998  0.5969 -0.2465 -0.2478
    9SAPS  H15R 1132   4.555   2.304   8.086  0.4694  0.5726  0.3635
    9SAPS  C216 1133   4.554   2.511   8.050 -0.5149 -0.2035 -0.3239
    9SAPS  H16R 1134   4.577   2.583   7.969  0.9357 -0.3602 -0.0869
    9SAPS  H16S 1135   4.634   2.515   8.127  0.3765 -1.2873 -1.1384
    9SAPS  C217 1136   4.423   2.549   8.131 -0.1200  0.3385 -0.1438
    9SAPS  H17R 1137   4.340   2.520   8.062  0.8398 -0.3194 -1.0490
    9SAPS  H17S 1138   4.418   2.660   8.130 -2.4724  0.2814 -0.4320
    9SAPS  C218 1139   4.426   2.495   8.275 -0.0876 -0.2353  0.2550
    9SAPS  H18R 1140   4.453   2.387   8.274  3.5693  0.5423  0.5091
    9SAPS  H18S 1141   4.326   2.503   8.323 -0.7483 -1.4041 -0.8462
    9SAPS  C219 1142   4.525   2.567   8.366 -0.2878  0.2183  0.2169
    9SAPS  H19R 1143   4.500   2.675   8.359 -2.2471 -0.1478  0.9455
    9SAPS  H19S 1144   4.630   2.552   8.332 -0.9737 -3.3674 -0.8217
    9SAPS  C220 1145   4.504   2.533   8.508  0.8039  0.0113 -0.2602
    9SAPS  H20R 1146   4.400   2.559   8.535  0.7857 -0.8200  0.5466
    9SAPS  H20S 1147   4.567   2.594   8.576 -1.4040  1.7284  0.3353
    9SAPS  H20T 1148   4.513   2.424   8.529  0.0975  0.4132  2.6110
    9SAPS   C33 1149   4.184   1.854   7.092 -0.4489  0.3393 -0.1293
    9SAPS   H3X 1150   4.081   1.878   7.125 -0.0796  1.0290  0.5490
    9SAPS   H3Y 1151   4.221   1.949   7.046  1.0398 -0.5694 -0.8899
    9SAPS   C34 1152   4.263   1.820   7.219 -0.0746 -0.3723  0.1581
    9SAPS   H4X 1153   4.370   1.801   7.195  0.0925  0.2966  0.3364
    9SAPS   H4Y 1154   4.226   1.728   7.269  0.1856 -0.7197 -0.2860
    9SAPS   C35 1155   4.253   1.915   7.331  0.1865 -0.6709  0.3873
    9SAPS   H5X 1156   4.152   1.937   7.372  0.4177  2.0885 -0.3130
    9SAPS   H5Y 1157   4.301   2.011   7.305  0.4518 -1.4477 -2.3041
    9SAPS   C36 1158   4.328   1.855   7.446 -0.1884 -0.3947 -0.1166
    9SAPS   H6X 1159   4.426   1.806   7.426 -0.7246 -1.2313 -0.7796
    9SAPS   H6Y 1160   4.273   1.766   7.484  1.5836 -1.8525 -0.8101
    9SAPS   C37 1161   4.345   1.965   7.555  0.6956 -0.0335  0.1371
    9SAPS   H7X 1162   4.243   2.006   7.568  0.0956 -1.6438  0.8398
    9SAPS   H7Y 1163   4.405   2.051   7.518  1.2420 -0.1612  0.7030
    9SAPS   C38 1164   4.406   1.920   7.686 -0.2190 -0.0515  0.3530
    9SAPS   H8X 1165   4.516   1.931   7.676  0.1310 -0.9837  2.5337
    9SAPS   H8Y 1166   4.388   1.812   7.706 -0.5777  0.1385  1.1003
    9SAPS   C39 1167   4.349   1.990   7.811 -0.2797  0.2073 -0.4259
    9SAPS   H9X 1168   4.240   1.970   7.820 -0.1399  0.1340  1.2672
    9SAPS   H9Y 1169   4.350   2.101   7.798 -0.9885  0.1192 -1.3621
    9SAPS  C310 1170   4.428   1.960   7.935 -0.0027  0.2207 -0.5369
    9SAPS  H10X 1171   4.532   1.996   7.915 -0.2154  0.0467 -2.0621
    9SAPS  H10Y 1172   4.431   1.852   7.961 -0.6159  0.8449  2.5097
    9SAPS  C311 1173   4.372   2.028   8.058 -0.2088  0.0260  0.4536
    9SAPS  H11X 1174   4.272   1.982   8.070  1.4291 -4.1301  0.0711
    9SAPS  H11Y 1175   4.353   2.133   8.029 -1.1945 -0.1122  0.5801
    9SAPS  C312 1176   4.455   2.022   8.177 -0.5639 -0.0012  0.0072
    9SAPS  H12X 1177   4.543   2.088   8.165 -2.8447  3.4041  0.5928
    9SAPS  H12Y 1178   4.491   1.918   8.192 -0.8265 -0.5161 -2.5667
    9SAPS  C313 1179   4.394   2.072   8.310 -0.6278  0.3780  0.2482
    9SAPS  H13X 1180   4.341   1.984   8.353  2.2829 -1.4922  0.2916
    9SAPS  H13Y 1181   4.319   2.151   8.289  0.0001  1.1673  0.9181
    9SAPS  C314 1182   4.506   2.104   8.406 -0.4159 -0.0917 -0.1301
    9SAPS  H14X 1183   4.570   2.190   8.378  1.5667 -1.1070  1.0584
    9SAPS  H14Y 1184   4.579   2.020   8.404 -0.0907  0.1971 -0.4804
    9SAPS  C315 1185   4.466   2.127   8.549  0.4110  0.0680  0.1688
    9SAPS  H15X 1186   4.415   2.042   8.599  0.1117 -0.6363 -1.3026
    9SAPS  H15Y 1187   4.386   2.204   8.553 -0.5755 -0.8207 -1.4290
    9SAPS  C316 1188   4.572   2.173   8.653  0.6724 -0.5329  0.6917
    9SAPS  H16X 1189   4.619   2.267   8.617 -0.9506  0.3119  0.6920
    9SAPS  H16Y 1190   4.650   2.096   8.675  0.0584 -1.8762 -1.4834
    9SAPS  C317 1191   4.498   2.213   8.789  0.3472 -0.0324 -0.3635
    9SAPS  H17X 1192   4.457   2.129   8.849 -0.3177  0.5646  0.0407
    9SAPS  H17Y 1193   4.406   2.269   8.761 -0.3201 -1.7760 -1.8397
    9SAPS  C318 1194   4.585   2.307   8.882  0.3082 -0.0827  0.0294
    9SAPS  H18X 1195   4.688   2.266   8.895 -0.3336 -1.6026  0.5606
    9SAPS  H18Y 1196   4.541   2.319   8.984  0.7611 -0.0143  0.2226
    9SAPS  H18Z 1197   4.601   2.404   8.831  1.2631  0.2296  0.8816
   10SAPS     N 1198   6.032   6.794   5.999  0.7225 -0.7056 -0.4902
   10SAPS   HN1 1199   6.068   6.858   5.924  1.4997 -1.2384 -0.5791
   10SAPS   HN2 1200   6.008   6.855   6.079 -2.7302 -2.7282  0.1943
   10SAPS   HN3 1201   6.096   6.722   6.037 -0.2550  0.2454  3.3712
   10SAPS   C12 1202   5.900   6.745   5.949  0.2229  0.7102  0.3140
   10SAPS  H12A 1203   5.850   6.825   5.895 -0.9519  1.2330  2.0759
   10SAPS   C13 1204   5.900   6.623   5.850  0.3012  0.0437  0.0512
   10SAPS  O13A 1205   6.009   6.594   5.790 -0.6687 -0.1967 -0.1184
   10SAPS  O13B 1206   5.797   6.599   5.788  0.3201 -0.0254 -0.8685
   10SAPS   C11 1207   5.812   6.723   6.079 -0.4888 -0.0999 -0.2194
   10SAPS  H11A 1208   5.842   6.632   6.134 -1.5754 -0.3863 -0.1015
   10SAPS  H11B 1209   5.710   6.698   6.044 -0.8122  0.1665  0.5199
   10SAPS     P 1210   5.693   6.908   6.235  0.3785  0.5063  0.4386
   10SAPS   O13 1211   5.759   7.004   6.325  0.5980 -0.0942  0.9718
   10SAPS   O14 1212   5.600   6.961   6.139  0.5560  0.4458 -0.2466
   10SAPS   O12 1213   5.808   6.833   6.168 -0.3327  0.3451  0.2498
   10SAPS   O11 1214   5.613   6.793   6.317 -0.1479  0.2762  0.2222
   10SAPS    C1 1215   5.685   6.706   6.402  0.4722  0.1958  0.4945
   10SAPS    HA 1216   5.632   6.608   6.394  1.6143 -0.4385  0.5505
   10SAPS    HB 1217   5.789   6.681   6.372 -0.1364 -2.6457  0.5054
   10SAPS    C2 1218   5.675   6.751   6.549  0.0866 -0.2735  0.2548
   10SAPS    HS 1219   5.586   6.699   6.590  0.7808 -1.8501 -0.1505
   10SAPS   O21 1220   5.678   6.896   6.572 -0.6118  0.4906  0.1290
   10SAPS   C21 1221   5.557   6.953   6.566 -0.2423 -0.2577  1.1233
   10SAPS   O22 1222   5.455   6.893   6.542  0.0602 -0.0998 -0.1885
   10SAPS   C22 1223   5.554   7.106   6.602  0.1372  0.6805 -0.0172
   10SAPS   H2R 1224   5.593   7.157   6.512 -2.1402 -1.2068 -2.2294
   10SAPS   H2S 1225   5.451   7.143   6.620 -0.0987 -0.6647  1.7212
   10SAPS    C3 1226   5.787   6.687   6.636 -0.2603  0.4949  0.0664
   10SAPS    HX 1227   5.888   6.719   6.600  0.4761 -2.3740 -0.6149
   10SAPS    HY 1228   5.774   6.579   6.617 -2.5934  1.0002 -1.5925
   10SAPS   O31 1229   5.775   6.717   6.776 -0.0629 -0.2241  0.1931
   10SAPS   C31 1230   5.843   6.819   6.824 -0.2073 -0.6557 -0.0994
   10SAPS   O32 1231   5.937   6.873   6.764  0.1007  0.8376 -0.5746
   10SAPS   C32 1232   5.811   6.837   6.971 -0.5152  0.0039 -0.6554
   10SAPS   H2X 1233   5.844   6.745   7.024 -0.7011 -0.3505 -1.1562
   10SAPS   H2Y 1234   5.702   6.855   6.977 -0.3929  0.3701  2.0864
   10SAPS   C23 1235   5.648   7.144   6.721  0.7544 -0.7574  0.2151
   10SAPS   H3R 1236   5.679   7.249   6.705  1.3292 -1.0369 -0.6023
   10SAPS   H3S 1237   5.750   7.099   6.713  1.2839  0.6934 -2.8445
   10SAPS   C24 1238   5.585   7.111   6.860  1.1343  0.0596  0.1392
   10SAPS   H4R 1239   5.670   7.114   6.932  1.1147  2.5509  0.1503
   10SAPS   H4S 1240   5.553   7.005   6.846 -0.8636  0.4595  1.2691
   10SAPS   C25 1241   5.472   7.199   6.906  0.3713  0.0575  0.5968
   10SAPS   H5R 1242   5.374   7.185   6.858  0.5815 -0.9541  0.4350
   10SAPS   C26 1243   5.481   7.297   7.001  0.4999  0.3882 -0.5008
   10SAPS   H6R 1244   5.397   7.368   7.011  0.4868  0.2721  0.2884
   10SAPS   C27 1245   5.601   7.351   7.076 -0.6331  0.4307  0.1392
   10SAPS   H7R 1246   5.630   7.451   7.038 -1.6265  0.2845 -1.0357
   10SAPS   H7S 1247   5.688   7.281   7.070 -0.7165  0.1489  1.6620
   10SAPS   C28 1248   5.566   7.354   7.225  0.5098  0.0685  0.6190
   10SAPS   H8R 1249   5.546   7.250   7.257  1.3782 -0.6303 -1.0211
   10SAPS   C29 1250   5.588   7.448   7.310 -0.2883 -0.1515  0.2880
   10SAPS   H9R 1251   5.569   7.435   7.417  0.9099 -0.3402  0.4898
   10SAPS  C210 1252   5.656   7.583   7.288  0.5069  0.4028 -0.0083
   10SAPS  H10R 1253   5.622   7.663   7.357 -0.6114  0.4831 -0.6291
   10SAPS  H10S 1254   5.637   7.620   7.185  0.3097 -1.5450 -0.7155
   10SAPS  C211 1255   5.804   7.548   7.296 -0.5431  1.1576 -0.0419
   10SAPS  H11R 1256   5.851   7.474   7.229  2.3752  1.2384  1.7582
   10SAPS  C212 1257   5.885   7.599   7.394  0.1334  0.0657 -0.3597
   10SAPS  H12R 1258   5.992   7.578   7.381 -0.0224 -0.7225 -0.3906
   10SAPS  C213 1259   5.844   7.696   7.509 -0.4341 -0.2619 -0.4336
   10SAPS  H13R 1260   5.765   7.770   7.485 -2.3042 -0.3470  4.3495
   10SAPS  H13S 1261   5.931   7.758   7.541 -0.9915 -0.1888  1.0242
   10SAPS  C214 1262   5.794   7.615   7.627  0.1191  0.7092  0.1484
   10SAPS  H14R 1263   5.821   7.508   7.619 -0.9708  0.5248 -1.4627
   10SAPS  C215 1264   5.709   7.647   7.725  0.1005  0.1775  0.1293
   10SAPS  H15R 1265   5.694   7.571   7.803 -0.1331  1.2659  1.1736
   10SAPS  C216 1266   5.637   7.782   7.729  0.8281 -0.0430  0.7604
   10SAPS  H16R 1267   5.685   7.853   7.658  1.8468 -1.8617 -0.4386
   10SAPS  H16S 1268   5.642   7.829   7.830  1.9032  2.4752 -0.3727
   10SAPS  C217 1269   5.493   7.766   7.681  0.1296 -0.1397  0.2247
   10SAPS  H17R 1270   5.480   7.729   7.577 -1.3449  1.2321 -0.1106
   10SAPS  H17S 1271   5.446   7.866   7.673  0.9795  0.2297 -0.3309
   10SAPS  C218 1272   5.396   7.680   7.766 -0.7007  0.7953  0.0988
   10SAPS  H18R 1273   5.451   7.585   7.782  0.2908  0.6797 -3.3103
   10SAPS  H18S 1274   5.299   7.663   7.716 -0.5042 -2.2359  0.5704
   10SAPS  C219 1275   5.367   7.740   7.904  0.2359 -0.4160 -0.5121
   10SAPS  H19R 1276   5.458   7.787   7.948  1.8246 -0.3877 -3.5511
   10SAPS  H19S 1277   5.337   7.657   7.971 -0.4597  0.8567  0.8162
   10SAPS  C220 1278   5.254   7.842   7.928 -0.1034  0.0378 -0.0337
   10SAPS  H20R 1279   5.156   7.789   7.923  0.5269 -1.1568  0.0187
   10SAPS  H20S 1280   5.242   7.914   7.844 -0.4280 -0.0407 -0.0567
   10SAPS  H20T 1281   5.270   7.904   8.018  1.6402 -0.6270  0.1546
   10SAPS   C33 1282   5.892   6.947   7.057 -0.9361 -0.0901  0.0736
   10SAPS   H3X 1283   5.853   7.049   7.040  1.2323  0.4929 -2.0930
   10SAPS   H3Y 1284   5.997   6.950   7.021 -1.1948  2.8551 -0.6506
   10SAPS   C34 1285   5.900   6.908   7.212  1.1356 -0.1871  1.2000
   10SAPS   H4X 1286   5.974   6.974   7.264  0.2704 -0.2364  2.5388
   10SAPS   H4Y 1287   5.939   6.805   7.205 -1.7130 -1.2384 -0.7057
   10SAPS   C35 1288   5.755   6.913   7.265 -0.4606 -0.1065  0.6129
   10SAPS   H5X 1289   5.689   6.856   7.196 -1.1685  1.7910 -0.3600
   10SAPS   H5Y 1290   5.720   7.019   7.260 -0.7227 -0.1574  1.2799
   10SAPS   C36 1291   5.750   6.883   7.416  0.4009  0.2727 -0.1851
   10SAPS   H6X 1292   5.796   6.784   7.437 -0.3962  0.4651  3.0105
   10SAPS   H6Y 1293   5.642   6.886   7.442  0.4959 -1.7399  0.6171
   10SAPS   C37 1294   5.812   6.984   7.510 -0.0195  0.2083 -0.5025
   10SAPS   H7X 1295   5.775   7.086   7.488 -2.5154 -0.1398  1.5649
   10SAPS   H7Y 1296   5.923   6.987   7.509 -0.0047  0.0729  0.2268
   10SAPS   C38 1297   5.783   6.956   7.658  0.1050  0.1503  0.6815
   10SAPS   H8X 1298   5.674   6.971   7.672  0.0228 -0.2031  0.4233
   10SAPS   H8Y 1299   5.829   7.042   7.711  1.2776  0.9965 -1.5483
   10SAPS   C39 1300   5.827   6.821   7.712  0.4919  0.1121 -0.0127
   10SAPS   H9X 1301   5.916   6.772   7.667  0.4452 -0.2027  0.2275
   10SAPS   H9Y 1302   5.738   6.758   7.690 -0.3391  1.5138 -0.7978
   10SAPS  C310 1303   5.860   6.819   7.863  0.3900 -0.1795 -0.1573
   10SAPS  H10X 1304   5.939   6.897   7.875  1.5422 -1.2931 -0.3424
   10SAPS  H10Y 1305   5.907   6.726   7.902  0.7160 -0.1943 -0.5727
   10SAPS  C311 1306   5.741   6.837   7.954  0.3581  0.6306  0.1052
   10SAPS  H11X 1307   5.663   6.758   7.954  0.1318  0.8287  1.2138
   10SAPS  H11Y 1308   5.681   6.922   7.915 -1.4917 -0.9930 -0.7915
   10SAPS  C312 1309   5.767   6.868   8.102  0.8253  0.1510 -0.1701
   10SAPS  H12X 1310   5.804   6.972   8.120  0.3052  0.4007 -0.4903
   10SAPS  H12Y 1311   5.845   6.800   8.141  0.2723 -0.0985  0.5142
   10SAPS  C313 1312   5.637   6.848   8.188 -0.5064 -0.6303 -0.1113
   10SAPS  H13X 1313   5.601   6.742   8.185 -0.7697 -0.5315 -2.0777
   10SAPS  H13Y 1314   5.562   6.906   8.129  0.1785  0.0049 -0.3693
   10SAPS  C314 1315   5.641   6.924   8.315 -0.2679 -0.1147  0.1849
   10SAPS  H14X 1316   5.544   6.903   8.365 -0.8050  0.4032 -0.6132
   10SAPS  H14Y 1317   5.640   7.033   8.294  1.4106 -0.3062 -1.0520
   10SAPS  C315 1318   5.759   6.878   8.405  0.1459  0.5781  0.5493
   10SAPS  H15X 1319   5.852   6.888   8.344 -0.9504  1.3479 -1.0723
   10SAPS  H15Y 1320   5.737   6.770   8.407 -0.2616  0.6171 -0.9726
   10SAPS  C316 1321   5.757   6.936   8.553 -0.5281 -0.4164 -0.4948
   10SAPS  H16X 1322   5.662   6.971   8.598 -0.5620  1.6690 -2.0399
   10SAPS  H16Y 1323   5.817   7.029   8.544 -1.8807  0.5168 -0.1685
   10SAPS  C317 1324   5.839   6.854   8.650  0.3251 -0.3834  0.3438
   10SAPS  H17X 1325   5.944   6.824   8.631  0.5713 -0.3516  1.5319
   10SAPS  H17Y 1326   5.797   6.751   8.659 -0.0333 -0.2330  0.4105
   10SAPS  C318 1327   5.833   6.914   8.788 -0.0321 -0.2763  0.3435
   10SAPS  H18X 1328   5.728   6.936   8.817  0.1411 -0.4084  1.0890
   10SAPS  H18Y 1329   5.907   6.994   8.808 -0.8440  0.5211  0.2347
   10SAPS  H18Z 1330   5.853   6.827   8.854 -1.9124 -0.8320  0.2334
   11SAPS     N 1331   0.399   3.749   5.943  0.5701  0.3199 -0.3528
   11SAPS   HN1 1332   0.462   3.807   5.885  0.1831  0.7244 -0.3739
   11SAPS   HN2 1333   0.358   3.814   6.014  0.7400  0.7351 -0.6335
   11SAPS   HN3 1334   0.448   3.668   5.988 -0.2922  0.0836  0.1984
   11SAPS   C12 1335   0.295   3.669   5.865  0.2333 -0.5074 -0.1188
   11SAPS  H12A 1336   0.241   3.738   5.802 -0.0098  0.0995  0.7335
   11SAPS   C13 1337   0.351   3.547   5.788 -0.0776  0.1635  0.1321
   11SAPS  O13A 1338   0.475   3.521   5.791 -0.2121  0.2256  0.2416
   11SAPS  O13B 1339   0.277   3.479   5.709  0.3268  0.3890  0.1071
   11SAPS   C11 1340   0.192   3.596   5.961  1.0981 -0.3358  0.0858
   11SAPS  H11A 1341   0.251   3.544   6.039  1.3495  0.2627  0.3044
   11SAPS  H11B 1342   0.126   3.523   5.909 -2.2829  1.4819  1.4906
   11SAPS     P 1343   0.120   3.744   6.166 -0.1942 -0.1403 -0.1281
   11SAPS   O13 1344   0.251   3.815   6.166  0.1345  0.2815  0.2080
   11SAPS   O14 1345  -0.001   3.817   6.209 -0.1257  0.0130  0.0347
   11SAPS   O12 1346   0.100   3.694   6.016 -0.2232  0.5029 -0.9183
   11SAPS   O11 1347   0.145   3.612   6.250 -0.0662 -0.2271  0.3346
   11SAPS    C1 1348   0.027   3.558   6.315  0.6853  0.2430  0.1066
   11SAPS    HA 1349  -0.035   3.638   6.362  0.7387  0.0237  0.5599
   11SAPS    HB 1350  -0.033   3.495   6.247 -2.1726  2.3806  0.4355
   11SAPS    C2 1351   0.068   3.470   6.447 -0.1138  0.3617  0.6972
   11SAPS    HS 1352  -0.027   3.454   6.502 -0.5635  0.5779  0.0018
   11SAPS   O21 1353   0.162   3.537   6.530  0.6342  0.1291  0.1176
   11SAPS   C21 1354   0.104   3.629   6.605  0.1411  0.4756  0.2486
   11SAPS   O22 1355  -0.015   3.646   6.618  0.0190  0.0718  0.2853
   11SAPS   C22 1356   0.210   3.725   6.673 -0.3644  0.3683  0.1098
   11SAPS   H2R 1357   0.278   3.759   6.593 -0.3276  2.0039  0.7887
   11SAPS   H2S 1358   0.146   3.803   6.720  0.0551  2.0859 -2.0460
   11SAPS    C3 1359   0.134   3.335   6.403 -0.1434  0.2255  0.3966
   11SAPS    HX 1360   0.238   3.355   6.368 -0.0933 -0.9188 -0.1761
   11SAPS    HY 1361   0.086   3.276   6.322  0.3771 -0.0500  0.2841
   11SAPS   O31 1362   0.149   3.250   6.515  0.4856 -1.1982 -0.5894
   11SAPS   C31 1363   0.063   3.155   6.541  0.3405 -0.1272 -0.2286
   11SAPS   O32 1364  -0.041   3.137   6.474 -0.2476  0.3111  0.1997
   11SAPS   C32 1365   0.105   3.079   6.666  0.3016 -0.4042  0.3270
   11SAPS   H2X 1366   0.198   3.025   6.640  0.2548 -0.8442  1.0422
   11SAPS   H2Y 1367   0.025   3.006   6.692 -0.3964  0.7508  1.5616
   11SAPS   C23 1368   0.299   3.653   6.777 -1.1703  0.1569 -0.4793
   11SAPS   H3R 1369   0.369   3.730   6.815  1.5661 -1.8355 -1.1397
   11SAPS   H3S 1370   0.359   3.576   6.723 -1.1995 -1.7476  1.9783
   11SAPS   C24 1371   0.227   3.587   6.904 -0.1536 -0.2379  0.0811
   11SAPS   H4R 1372   0.306   3.538   6.965 -0.2759  0.4714  0.8320
   11SAPS   H4S 1373   0.155   3.513   6.862 -0.5017  0.6377 -0.8846
   11SAPS   C25 1374   0.143   3.681   6.987  0.5314 -0.2806 -0.1935
   11SAPS   H5R 1375   0.072   3.730   6.918  0.3660  0.8948  0.7753
   11SAPS   C26 1376   0.157   3.708   7.116 -0.2367 -0.6700 -0.8607
   11SAPS   H6R 1377   0.096   3.790   7.158  0.4800 -0.6399  0.1595
   11SAPS   C27 1378   0.248   3.641   7.214 -0.2012  1.0667 -0.4287
   11SAPS   H7R 1379   0.331   3.593   7.159 -0.0439 -0.9252  1.3996
   11SAPS   H7S 1380   0.205   3.544   7.247 -0.6350  1.4437  0.1299
   11SAPS   C28 1381   0.304   3.724   7.324 -0.7633 -0.7417 -0.8990
   11SAPS   H8R 1382   0.390   3.787   7.296  0.0218 -1.9899 -1.3724
   11SAPS   C29 1383   0.279   3.714   7.458 -0.5041 -0.0290 -0.1351
   11SAPS   H9R 1384   0.337   3.782   7.522  1.9041 -1.7185 -0.4048
   11SAPS  C210 1385   0.182   3.619   7.527 -0.0798 -0.0798 -0.4528
   11SAPS  H10R 1386   0.168   3.529   7.463 -1.3803  0.9832 -1.7480
   11SAPS  H10S 1387   0.081   3.665   7.519  0.3826  0.8875 -0.9006
   11SAPS  C211 1388   0.229   3.580   7.670 -0.2833 -0.6927 -0.0671
   11SAPS  H11R 1389   0.315   3.511   7.666  0.4719  0.2673 -1.5682
   11SAPS  C212 1390   0.180   3.609   7.793 -0.2620 -0.4705  0.3822
   11SAPS  H12R 1391   0.237   3.578   7.882  0.5603 -1.4622 -0.4587
   11SAPS  C213 1392   0.058   3.698   7.831  0.2670  0.8023  0.8973
   11SAPS  H13R 1393  -0.013   3.650   7.902 -1.1891  2.1742  0.4218
   11SAPS  H13S 1394  -0.004   3.716   7.740 -0.1513  1.1555  1.2470
   11SAPS  C214 1395   0.090   3.831   7.888 -0.1356  0.1073 -0.2703
   11SAPS  H14R 1396   0.130   3.906   7.819 -2.6389  1.4481 -0.3874
   11SAPS  C215 1397   0.069   3.873   8.012  0.0550  0.5881  0.2317
   11SAPS  H15R 1398   0.077   3.978   8.044  2.7945  0.6160 -0.3238
   11SAPS  C216 1399   0.014   3.785   8.113  0.8369  0.5930  0.6401
   11SAPS  H16R 1400   0.094   3.708   8.127  1.8161  1.4264 -0.2054
   11SAPS  H16S 1401  -0.078   3.738   8.073  0.6020  1.7979 -0.2937
   11SAPS  C217 1402   0.004   3.838   8.256  0.0972  0.4014 -0.2471
   11SAPS  H17R 1403   0.012   3.746   8.318  3.0828 -0.5335 -1.8084
   11SAPS  H17S 1404  -0.085   3.903   8.274 -0.3407 -0.5894  1.3380
   11SAPS  C218 1405   0.132   3.915   8.300  0.5499 -0.4742  0.2974
   11SAPS  H18R 1406   0.130   4.008   8.240 -1.9920 -0.8771 -0.3284
   11SAPS  H18S 1407   0.221   3.856   8.267  2.5527  1.9158  1.0925
   11SAPS  C219 1408   0.148   3.934   8.453 -0.0750 -0.4354 -0.5881
   11SAPS  H19R 1409   0.076   4.000   8.507 -1.0864 -1.4189 -0.6970
   11SAPS  H19S 1410   0.244   3.989   8.462 -2.0193  3.0943  0.6122
   11SAPS  C220 1411   0.152   3.801   8.532 -0.6883 -0.7542 -0.4046
   11SAPS  H20R 1412   0.055   3.747   8.534 -0.3985 -1.4005 -1.9271
   11SAPS  H20S 1413   0.193   3.822   8.633  2.5566 -1.3882 -1.4552
   11SAPS  H20T 1414   0.225   3.746   8.468  2.0313  4.2841 -2.2321
   11SAPS   C33 1415   0.130   3.177   6.785 -0.5620 -0.1161  0.3736
   11SAPS   H3X 1416   0.042   3.245   6.795 -0.5277 -0.1126  0.6623
   11SAPS   H3Y 1417   0.223   3.234   6.767 -1.4451  0.7965 -1.5537
   11SAPS   C34 1418   0.143   3.108   6.919  0.4602 -0.2541 -0.3544
   11SAPS   H4X 1419   0.223   3.031   6.920  1.3176  0.6020 -1.0168
   11SAPS   H4Y 1420   0.041   3.065   6.935 -0.3340  1.6998  0.0956
   11SAPS   C35 1421   0.166   3.205   7.026  0.1255 -0.1642  0.5083
   11SAPS   H5X 1422   0.104   3.297   7.022 -0.1450 -0.2361  2.2951
   11SAPS   H5Y 1423   0.276   3.222   7.034 -0.1521  0.8112  3.7159
   11SAPS   C36 1424   0.141   3.141   7.165 -0.2528 -0.1722  0.4756
   11SAPS   H6X 1425   0.203   3.049   7.170 -2.3347 -1.6139  1.1792
   11SAPS   H6Y 1426   0.036   3.105   7.157  0.0239 -0.8750 -0.0261
   11SAPS   C37 1427   0.143   3.227   7.290  0.2670 -0.3018 -0.4300
   11SAPS   H7X 1428   0.081   3.318   7.277  1.2412  0.1265 -2.4313
   11SAPS   H7Y 1429   0.247   3.259   7.311  0.4647 -2.2336  1.8776
   11SAPS   C38 1430   0.105   3.145   7.413 -0.3047 -0.7914 -0.6845
   11SAPS   H8X 1431   0.172   3.058   7.427  0.6156  0.0223  0.0351
   11SAPS   H8Y 1432   0.003   3.106   7.391 -0.8689  1.1073 -1.6898
   11SAPS   C39 1433   0.089   3.221   7.546  0.0710  0.5575 -0.2755
   11SAPS   H9X 1434  -0.012   3.268   7.546 -0.0868  0.2276 -0.6851
   11SAPS   H9Y 1435   0.161   3.304   7.559 -0.3717  0.7088  1.4821
   11SAPS  C310 1436   0.100   3.126   7.667  0.3334  0.4921  0.4099
   11SAPS  H10X 1437   0.190   3.069   7.634  0.2821  0.2519  0.6817
   11SAPS  H10Y 1438   0.022   3.047   7.678  1.9817 -0.9517  2.5071
   11SAPS  C311 1439   0.137   3.192   7.799  0.1292  0.0213  0.9253
   11SAPS  H11X 1440   0.205   3.273   7.767 -1.1753  0.2891 -1.3595
   11SAPS  H11Y 1441   0.188   3.112   7.856 -4.0905 -3.0896  0.8504
   11SAPS  C312 1442   0.021   3.265   7.857  0.4884 -0.1423 -0.0585
   11SAPS  H12X 1443  -0.053   3.183   7.866 -0.9049  0.8820 -1.6402
   11SAPS  H12Y 1444  -0.023   3.332   7.780  2.4575  1.8507  0.4448
   11SAPS  C313 1445   0.050   3.335   7.987 -0.3691 -0.2530  0.4612
   11SAPS  H13X 1446   0.133   3.409   7.990 -0.6489  0.0556  0.7513
   11SAPS  H13Y 1447   0.086   3.258   8.059 -0.3259  0.7100  1.5037
   11SAPS  C314 1448  -0.077   3.403   8.045 -0.0216 -0.2765 -0.9178
   11SAPS  H14X 1449  -0.162   3.332   8.051 -0.1965 -0.1021 -1.3054
   11SAPS  H14Y 1450  -0.113   3.488   7.983 -2.0035 -0.0242  0.4839
   11SAPS  C315 1451  -0.055   3.449   8.191 -0.1381  0.1403  0.2149
   11SAPS  H15X 1452  -0.150   3.489   8.233 -1.9000 -2.5377 -0.9305
   11SAPS  H15Y 1453   0.021   3.530   8.192 -1.8482  1.8185  0.1049
   11SAPS  C316 1454  -0.003   3.338   8.291  0.2511 -0.2996  0.1510
   11SAPS  H16X 1455   0.098   3.300   8.265  0.8066  0.2826  1.3952
   11SAPS  H16Y 1456  -0.073   3.252   8.284 -1.0943  0.7417  0.2539
   11SAPS  C317 1457  -0.003   3.385   8.435 -0.3812  0.6333 -0.1955
   11SAPS  H17X 1458  -0.108   3.391   8.471 -1.0025 -2.4104 -1.2423
   11SAPS  H17Y 1459   0.032   3.490   8.444 -0.9717  0.7490  0.8320
   11SAPS  C318 1460   0.075   3.287   8.520  0.5248  0.4747  0.5887
   11SAPS  H18X 1461   0.175   3.272   8.474 -0.8902  0.0738 -2.6826
   11SAPS  H18Y 1462   0.021   3.191   8.535  3.3473 -1.8169 -2.4574
   11SAPS  H18Z 1463   0.087   3.323   8.624  0.3227 -1.3242  1.2715
   12SAPS     N 1464   0.213   5.871   6.186 -0.4176 -0.5283  0.4366
   12SAPS   HN1 1465   0.253   5.837   6.276  1.7860  1.8160  0.4364
   12SAPS   HN2 1466   0.244   5.965   6.156 -0.9640 -0.7593 -0.9501
   12SAPS   HN3 1467   0.109   5.863   6.182 -0.3673 -1.0067 -0.1387
   12SAPS   C12 1468   0.271   5.781   6.072 -0.6462 -0.2348 -0.1505
   12SAPS  H12A 1469   0.236   5.683   6.099 -0.1962 -0.0116  1.3075
   12SAPS   C13 1470   0.214   5.819   5.937 -0.2079 -0.2395 -0.6667
   12SAPS  O13A 1471   0.137   5.920   5.922  0.4863 -0.5712 -0.4353
   12SAPS  O13B 1472   0.232   5.733   5.846 -0.4184  0.2848 -0.1169
   12SAPS   C11 1473   0.421   5.798   6.072 -0.1671 -0.4059 -0.2158
   12SAPS  H11A 1474   0.446   5.905   6.054 -0.0333 -0.0471  1.8269
   12SAPS  H11B 1475   0.456   5.742   5.983 -2.9315  1.1488 -2.4702
   12SAPS     P 1476   0.632   5.737   6.213  0.3435 -0.1433  0.1033
   12SAPS   O13 1477   0.653   5.603   6.266  0.2396  0.1281 -1.1499
   12SAPS   O14 1478   0.702   5.783   6.092 -0.1904 -0.7934 -0.2779
   12SAPS   O12 1479   0.472   5.754   6.197 -0.4018 -0.1686 -0.7994
   12SAPS   O11 1480   0.670   5.848   6.332  0.4857  0.6350 -0.3911
   12SAPS    C1 1481   0.567   5.888   6.413  0.0390 -0.0491  0.1724
   12SAPS    HA 1482   0.600   5.959   6.492  0.4152 -1.0917  0.9824
   12SAPS    HB 1483   0.484   5.932   6.354  0.4441  0.5084  0.0095
   12SAPS    C2 1484   0.517   5.779   6.511  0.0424 -0.4372  0.5962
   12SAPS    HS 1485   0.473   5.705   6.441 -1.0172  0.3370  0.4200
   12SAPS   O21 1486   0.417   5.830   6.606 -0.5288  0.4111  0.6512
   12SAPS   C21 1487   0.303   5.855   6.543  0.4914  0.2419  0.3634
   12SAPS   O22 1488   0.262   5.805   6.440  0.4362  0.9032  0.0955
   12SAPS   C22 1489   0.228   5.960   6.627  0.4349  0.6910 -0.8489
   12SAPS   H2R 1490   0.196   5.906   6.719 -1.3086  0.5055 -1.5219
   12SAPS   H2S 1491   0.298   6.045   6.644  2.1273 -0.8703  0.4162
   12SAPS    C3 1492   0.629   5.704   6.580  0.0942  0.6650 -0.7622
   12SAPS    HX 1493   0.670   5.783   6.646  0.3204  0.8701 -1.1461
   12SAPS    HY 1494   0.715   5.671   6.518  0.7572  1.6138 -0.3635
   12SAPS   O31 1495   0.577   5.591   6.662  0.8661  0.2921  0.3241
   12SAPS   C31 1496   0.637   5.557   6.778 -0.1970  0.0619 -0.0920
   12SAPS   O32 1497   0.740   5.609   6.819 -0.3965 -0.1580  0.2114
   12SAPS   C32 1498   0.562   5.440   6.846  0.1893 -0.0235 -0.6413
   12SAPS   H2X 1499   0.552   5.359   6.770 -0.0724 -0.3683 -0.2478
   12SAPS   H2Y 1500   0.457   5.473   6.866  0.5696  1.9924 -1.6992
   12SAPS   C23 1501   0.093   5.994   6.570 -0.3301 -0.2477 -0.0601
   12SAPS   H3R 1502   0.040   5.897   6.562 -0.9105 -0.2085  2.4784
   12SAPS   H3S 1503   0.095   6.038   6.468  1.0451 -1.6782 -0.6901
   12SAPS   C24 1504  -0.005   6.076   6.657 -0.7924 -0.0691 -0.7048
   12SAPS   H4R 1505  -0.030   6.014   6.746  1.3955  0.4853  0.3675
   12SAPS   H4S 1506  -0.104   6.081   6.608 -0.5109  2.8773 -1.1660
   12SAPS   C25 1507   0.035   6.210   6.704 -0.2627 -0.3212  0.0013
   12SAPS   H5R 1508   0.016   6.292   6.633 -1.9852 -1.1902 -0.6058
   12SAPS   C26 1509   0.108   6.238   6.820 -0.2440  0.0673  0.1434
   12SAPS   H6R 1510   0.132   6.345   6.830  0.4197 -0.0020 -0.6175
   12SAPS   C27 1511   0.142   6.160   6.942 -0.6097 -0.6739 -0.5906
   12SAPS   H7R 1512   0.141   6.050   6.929  1.0033 -0.9582  1.1771
   12SAPS   H7S 1513   0.072   6.198   7.019  2.3568  0.3981  1.8148
   12SAPS   C28 1514   0.281   6.178   7.000  0.4192  0.0230 -0.0561
   12SAPS   H8R 1515   0.340   6.260   6.958 -0.2765  0.6442  0.1670
   12SAPS   C29 1516   0.320   6.114   7.112 -0.0688  0.1472  0.3107
   12SAPS   H9R 1517   0.424   6.139   7.139 -0.6399  0.9259  1.8956
   12SAPS  C210 1518   0.238   6.014   7.182  0.3195  0.2160  0.2072
   12SAPS  H10R 1519   0.305   5.945   7.237  0.8679  0.2638 -0.3809
   12SAPS  H10S 1520   0.186   5.950   7.107  1.7623 -2.0299  1.0221
   12SAPS  C211 1521   0.132   6.063   7.281  0.7166 -0.2535 -0.5759
   12SAPS  H11R 1522   0.097   6.164   7.253 -0.4449 -0.8720 -1.4021
   12SAPS  C212 1523   0.098   6.006   7.401  0.3442 -0.6574 -0.1757
   12SAPS  H12R 1524   0.019   6.051   7.464 -0.4235  0.5963 -1.9513
   12SAPS  C213 1525   0.152   5.884   7.458 -0.0631 -0.3457 -0.8636
   12SAPS  H13R 1526   0.259   5.877   7.428 -0.2307  0.5416 -1.7435
   12SAPS  H13S 1527   0.100   5.807   7.397  0.0621 -2.2430  1.2968
   12SAPS  C214 1528   0.131   5.868   7.604 -0.2182 -0.6005  0.2433
   12SAPS  H14R 1529   0.139   5.961   7.661 -1.1491  0.1816 -0.8362
   12SAPS  C215 1530   0.096   5.757   7.674 -0.5422  0.0996 -0.0170
   12SAPS  H15R 1531   0.081   5.775   7.781  0.7891 -0.7916  0.3394
   12SAPS  C216 1532   0.068   5.619   7.610 -0.1244  0.0516 -0.1359
   12SAPS  H16R 1533   0.156   5.584   7.551 -0.6523 -1.0022 -0.3286
   12SAPS  H16S 1534  -0.028   5.628   7.555  0.1051  0.5905 -0.4576
   12SAPS  C217 1535   0.060   5.504   7.716  0.0200 -0.4903  0.7590
   12SAPS  H17R 1536   0.053   5.406   7.665 -1.2391  0.8754 -1.9168
   12SAPS  H17S 1537  -0.039   5.514   7.765  0.1273  1.6054  0.6360
   12SAPS  C218 1538   0.159   5.503   7.831 -0.5344 -0.5683  0.3109
   12SAPS  H18R 1539   0.166   5.604   7.878  0.0543 -0.2466 -0.4293
   12SAPS  H18S 1540   0.267   5.493   7.804  0.1342  0.8123  2.2613
   12SAPS  C219 1541   0.127   5.391   7.937  0.3646 -0.1450 -0.3251
   12SAPS  H19R 1542   0.104   5.296   7.886  2.6318 -1.0985  0.2893
   12SAPS  H19S 1543   0.033   5.421   7.988  0.9829 -2.2438  2.2915
   12SAPS  C220 1544   0.229   5.378   8.048  0.2708  0.1098 -0.2042
   12SAPS  H20R 1545   0.273   5.478   8.069 -0.3436 -0.0407  2.1258
   12SAPS  H20S 1546   0.311   5.309   8.021  0.3716  1.2900 -3.1924
   12SAPS  H20T 1547   0.174   5.345   8.139 -0.1054  1.3406  0.0408
   12SAPS   C33 1548   0.633   5.379   6.969  0.4171  0.2721  0.0704
   12SAPS   H3X 1549   0.685   5.461   7.023  1.2004 -0.0225 -0.2165
   12SAPS   H3Y 1550   0.705   5.311   6.917 -0.4403 -1.5464  1.1807
   12SAPS   C34 1551   0.538   5.310   7.068 -0.1494  0.1195  0.0034
   12SAPS   H4X 1552   0.473   5.244   7.006 -2.5728  1.2886  1.1976
   12SAPS   H4Y 1553   0.481   5.397   7.105 -0.8640 -0.2472 -0.2041
   12SAPS   C35 1554   0.602   5.229   7.183 -0.4759 -0.6766 -0.0211
   12SAPS   H5X 1555   0.634   5.128   7.150  0.8757  0.5132 -2.6619
   12SAPS   H5Y 1556   0.522   5.222   7.260  0.9029  0.9280  1.6837
   12SAPS   C36 1557   0.721   5.302   7.248  0.0115  0.6737  0.1452
   12SAPS   H6X 1558   0.689   5.405   7.276  2.1478  0.9801  1.6910
   12SAPS   H6Y 1559   0.803   5.314   7.174  0.0364 -1.9347 -0.3508
   12SAPS   C37 1560   0.776   5.218   7.359  0.1801 -0.6865 -0.5477
   12SAPS   H7X 1561   0.819   5.132   7.303  1.7213  0.4510 -1.1927
   12SAPS   H7Y 1562   0.699   5.190   7.434  1.2732  0.0774  0.8860
   12SAPS   C38 1563   0.878   5.307   7.442 -0.1763 -0.2705  0.1864
   12SAPS   H8X 1564   0.826   5.399   7.477 -0.7032 -0.5942  0.2641
   12SAPS   H8Y 1565   0.966   5.335   7.380 -0.9221  1.5126 -0.1455
   12SAPS   C39 1566   0.938   5.235   7.559  0.5650  0.1521  0.7721
   12SAPS   H9X 1567   0.979   5.145   7.510 -0.8328 -2.0730  3.4185
   12SAPS   H9Y 1568   0.851   5.199   7.619 -0.2769  1.4061  0.3543
   12SAPS  C310 1569   1.044   5.315   7.633 -0.4311  0.4298  0.1819
   12SAPS  H10X 1570   1.001   5.399   7.692  1.8396  0.7357  1.5308
   12SAPS  H10Y 1571   1.109   5.364   7.558 -0.0025 -0.3513  0.0290
   12SAPS  C311 1572   1.139   5.240   7.722  0.4261  0.9314 -0.2552
   12SAPS  H11X 1573   1.238   5.291   7.725  0.1336  1.4637  1.0430
   12SAPS  H11Y 1574   1.147   5.143   7.667  1.0086  0.0289  1.3316
   12SAPS  C312 1575   1.080   5.215   7.865 -0.1578  0.4546  0.7608
   12SAPS  H12X 1576   1.142   5.131   7.903 -2.0134 -0.4108  2.0497
   12SAPS  H12Y 1577   0.980   5.170   7.850  0.1662  0.3921 -1.5976
   12SAPS  C313 1578   1.078   5.329   7.968  0.3017 -0.0329 -0.6895
   12SAPS  H13X 1579   1.005   5.405   7.935 -0.8894  0.6846  3.1565
   12SAPS  H13Y 1580   1.176   5.380   7.970 -0.6494  1.8347  0.8928
   12SAPS  C314 1581   1.029   5.284   8.104  0.6439 -0.0622 -1.1668
   12SAPS  H14X 1582   0.930   5.234   8.099  0.0856  0.7101  1.0748
   12SAPS  H14Y 1583   1.014   5.381   8.156  0.0846 -0.5840 -0.3302
   12SAPS  C315 1584   1.125   5.198   8.182 -0.2447 -0.1455 -0.0741
   12SAPS  H15X 1585   1.205   5.253   8.237 -0.0909 -0.0033 -0.4365
   12SAPS  H15Y 1586   1.167   5.119   8.115 -1.0281 -2.1143  1.6438
   12SAPS  C316 1587   1.051   5.122   8.287 -0.0115  0.4901 -1.5672
   12SAPS  H16X 1588   1.107   5.040   8.336 -2.1017  0.3993  0.8428
   12SAPS  H16Y 1589   0.960   5.067   8.253  1.3750 -0.8225 -3.3496
   12SAPS  C317 1590   1.015   5.207   8.413 -0.0040 -0.6967 -0.2020
   12SAPS  H17X 1591   0.957   5.143   8.483 -0.0520  0.0177  0.4237
   12SAPS  H17Y 1592   0.940   5.282   8.377 -0.2913 -0.7105  0.3648
   12SAPS  C318 1593   1.130   5.280   8.491 -0.1239  0.3003  0.3565
   12SAPS  H18X 1594   1.114   5.300   8.599  1.3592 -1.5481  0.9834
   12SAPS  H18Y 1595   1.152   5.383   8.455  0.5833 -0.1569 -0.5893
   12SAPS  H18Z 1596   1.223   5.218   8.490 -0.2859  0.0377  1.2954
   13SAPS     N 1597   1.839   1.491   6.318 -0.8886 -0.6312  0.2666
   13SAPS   HN1 1598   1.827   1.576   6.377  1.2639 -1.4675  2.0350
   13SAPS   HN2 1599   1.790   1.498   6.227  1.8003  0.7482 -1.2129
   13SAPS   HN3 1600   1.787   1.423   6.376 -0.6800 -0.7119  0.3589
   13SAPS   C12 1601   1.973   1.433   6.331  0.7798 -0.0998 -0.8280
   13SAPS  H12A 1602   2.012   1.447   6.431 -0.2632  0.1439 -0.4417
   13SAPS   C13 1603   1.969   1.275   6.317 -0.0051 -0.4568 -0.2181
   13SAPS  O13A 1604   1.861   1.213   6.296  0.3191  0.5926 -0.2576
   13SAPS  O13B 1605   2.074   1.210   6.307 -0.5238 -0.1108 -0.0974
   13SAPS   C11 1606   2.076   1.497   6.244 -0.4354 -0.5786 -0.2378
   13SAPS  H11A 1607   2.053   1.452   6.146  0.1964 -0.4007 -0.4726
   13SAPS  H11B 1608   2.180   1.474   6.277 -0.8596 -0.0034  1.6443
   13SAPS     P 1609   2.130   1.739   6.321 -0.3903 -0.1828 -0.0399
   13SAPS   O13 1610   2.280   1.738   6.291  0.5216 -0.5176  0.0440
   13SAPS   O14 1611   2.066   1.877   6.314 -0.3176  0.3731 -0.3573
   13SAPS   O12 1612   2.056   1.637   6.222  0.4121 -0.0140 -0.3843
   13SAPS   O11 1613   2.100   1.671   6.455 -0.1734  0.5005 -0.4321
   13SAPS    C1 1614   2.110   1.727   6.585 -0.0636  0.1340  0.5712
   13SAPS    HA 1615   2.171   1.820   6.583  4.6402 -2.6550  1.6469
   13SAPS    HB 1616   2.007   1.744   6.625 -0.2076 -0.3750  0.4238
   13SAPS    C2 1617   2.179   1.641   6.703 -0.2213  0.2423  0.5268
   13SAPS    HS 1618   2.091   1.583   6.740 -1.6166  2.9167  1.6726
   13SAPS   O21 1619   2.250   1.729   6.797  0.2099  0.3748 -0.9689
   13SAPS   C21 1620   2.173   1.773   6.893  0.4291 -0.2442 -0.1786
   13SAPS   O22 1621   2.056   1.744   6.909 -0.1150 -0.4485  0.4117
   13SAPS   C22 1622   2.252   1.865   6.986  0.9342  0.3018 -0.6588
   13SAPS   H2R 1623   2.344   1.820   7.030 -0.7484 -0.4806  2.3917
   13SAPS   H2S 1624   2.277   1.951   6.920 -1.9196 -0.2396 -2.6037
   13SAPS    C3 1625   2.284   1.542   6.637 -0.5746  0.4601  0.1581
   13SAPS    HX 1626   2.364   1.609   6.598  0.0770  2.0722  3.8828
   13SAPS    HY 1627   2.230   1.489   6.555  2.6535 -1.2680 -0.9945
   13SAPS   O31 1628   2.330   1.436   6.730  0.0176 -0.2906 -1.0573
   13SAPS   C31 1629   2.414   1.356   6.682  0.1586  0.3048 -0.4603
   13SAPS   O32 1630   2.445   1.345   6.564 -0.1661 -0.5576 -0.1359
   13SAPS   C32 1631   2.464   1.258   6.792 -0.5204 -0.2293 -0.4624
   13SAPS   H2X 1632   2.542   1.317   6.846 -0.6112  0.9676 -1.6062
   13SAPS   H2Y 1633   2.509   1.173   6.737  1.2995  0.6579 -0.4195
   13SAPS   C23 1634   2.172   1.912   7.114 -0.1529  0.0063  0.6545
   13SAPS   H3R 1635   2.082   1.964   7.076 -0.0314 -1.2073 -1.4262
   13SAPS   H3S 1636   2.226   2.002   7.150  0.6424  0.3887 -1.3564
   13SAPS   C24 1637   2.158   1.804   7.225  0.4308 -0.7729 -0.3648
   13SAPS   H4R 1638   2.253   1.775   7.274 -0.1991  0.6791  1.8584
   13SAPS   H4S 1639   2.096   1.721   7.185 -3.7488  0.0983  3.4735
   13SAPS   C25 1640   2.072   1.851   7.338 -0.5428  0.3471  0.6505
   13SAPS   H5R 1641   1.972   1.878   7.300  0.1701  1.6695 -0.4071
   13SAPS   C26 1642   2.093   1.844   7.471  0.3512 -0.7637  0.1294
   13SAPS   H6R 1643   2.013   1.894   7.528 -1.0613  0.7438 -2.9061
   13SAPS   C27 1644   2.212   1.798   7.556 -0.0375  0.1934 -0.1137
   13SAPS   H7R 1645   2.240   1.877   7.629 -4.7093 -0.4649  2.8472
   13SAPS   H7S 1646   2.305   1.772   7.502 -0.3342  0.3816 -0.7235
   13SAPS   C28 1647   2.173   1.668   7.629 -1.0077  0.8298  0.4968
   13SAPS   H8R 1648   2.214   1.577   7.581 -1.4646 -1.2739  3.7366
   13SAPS   C29 1649   2.105   1.654   7.740  0.1142  0.1293  0.0885
   13SAPS   H9R 1650   2.087   1.555   7.783 -0.2725  0.1401 -0.0420
   13SAPS  C210 1651   2.053   1.781   7.815  0.3028  1.0075  0.7519
   13SAPS  H10R 1652   1.943   1.774   7.825  0.2605  1.6255  0.7222
   13SAPS  H10S 1653   2.069   1.876   7.759  0.6145 -0.4165 -1.7387
   13SAPS  C211 1654   2.137   1.780   7.939 -0.4100 -0.2443 -0.3990
   13SAPS  H11R 1655   2.234   1.832   7.935  0.1377 -1.2975 -3.4014
   13SAPS  C212 1656   2.099   1.726   8.062 -0.5401  0.4420  0.1744
   13SAPS  H12R 1657   2.176   1.710   8.139  0.7123 -2.2362 -1.4537
   13SAPS  C213 1658   1.968   1.657   8.088  0.6770  0.4154  0.0218
   13SAPS  H13R 1659   1.986   1.552   8.122 -1.4963  0.2291  0.6965
   13SAPS  H13S 1660   1.897   1.647   8.003 -1.2912 -2.1031  1.8172
   13SAPS  C214 1661   1.909   1.737   8.202  0.2009 -0.7438  0.4242
   13SAPS  H14R 1662   1.858   1.826   8.162  0.7343  0.3446  2.0685
   13SAPS  C215 1663   1.909   1.714   8.337 -0.1649  0.5366 -0.3360
   13SAPS  H15R 1664   1.860   1.790   8.399 -1.6881 -2.6405  2.7366
   13SAPS  C216 1665   1.962   1.589   8.414  0.4871  0.3070  0.8288
   13SAPS  H16R 1666   2.010   1.514   8.346  2.2894  2.1355 -0.0364
   13SAPS  H16S 1667   1.869   1.542   8.452  0.8822 -1.1389  0.0958
   13SAPS  C217 1668   2.045   1.630   8.537 -1.1536 -0.2301 -0.3646
   13SAPS  H17R 1669   2.076   1.539   8.594 -1.2180  0.0532  0.1274
   13SAPS  H17S 1670   1.979   1.690   8.603 -0.9082  0.3073 -0.6044
   13SAPS  C218 1671   2.178   1.694   8.499 -1.0422  0.0188 -0.6691
   13SAPS  H18R 1672   2.177   1.789   8.441  0.2571  0.6662  0.3421
   13SAPS  H18S 1673   2.234   1.627   8.430  0.0730  0.9368 -0.6838
   13SAPS  C219 1674   2.261   1.715   8.632  0.4407 -0.3728 -0.0483
   13SAPS  H19R 1675   2.359   1.763   8.611  1.4172 -0.3187  3.8186
   13SAPS  H19S 1676   2.301   1.626   8.686  2.6245  0.9209  0.6022
   13SAPS  C220 1677   2.191   1.785   8.742 -0.3648  0.1881  0.6128
   13SAPS  H20R 1678   2.099   1.737   8.782 -0.2037 -1.3440 -0.7298
   13SAPS  H20S 1679   2.172   1.890   8.712  4.4501  1.3864  0.9002
   13SAPS  H20T 1680   2.251   1.791   8.836 -2.4814  2.1994  1.9480
   13SAPS   C33 1681   2.349   1.211   6.887 -0.1515  0.1516 -0.1894
   13SAPS   H3X 1682   2.376   1.113   6.931  1.0308  0.8124  0.6322
   13SAPS   H3Y 1683   2.255   1.202   6.828 -0.2474 -1.2008  0.1508
   13SAPS   C34 1684   2.325   1.304   7.006  0.3232 -0.4832  0.6062
   13SAPS   H4X 1685   2.344   1.412   6.985  1.9511 -0.9985 -0.7376
   13SAPS   H4Y 1686   2.390   1.289   7.095  0.1058  1.2506  1.0926
   13SAPS   C35 1687   2.179   1.287   7.052 -0.1889 -0.4816  0.0875
   13SAPS   H5X 1688   2.164   1.188   7.099  0.3280 -0.6790 -0.1533
   13SAPS   H5Y 1689   2.104   1.283   6.970 -1.1553 -0.1589  0.9314
   13SAPS   C36 1690   2.140   1.406   7.146  0.5739 -0.5929 -0.1137
   13SAPS   H6X 1691   2.034   1.392   7.175 -0.2901  0.6358 -2.3957
   13SAPS   H6Y 1692   2.138   1.498   7.084 -0.5930 -1.2474 -1.0750
   13SAPS   C37 1693   2.233   1.430   7.264 -0.2780 -0.4196  1.3954
   13SAPS   H7X 1694   2.197   1.516   7.323 -1.4335 -0.1773  0.3786
   13SAPS   H7Y 1695   2.336   1.456   7.231 -1.3358  1.5659 -0.5820
   13SAPS   C38 1696   2.249   1.311   7.358  0.1887 -0.1782  0.2758
   13SAPS   H8X 1697   2.328   1.327   7.434 -0.1522 -1.1761  0.8672
   13SAPS   H8Y 1698   2.306   1.225   7.316  1.6433 -0.3992  2.5661
   13SAPS   C39 1699   2.121   1.269   7.431  0.0310  0.1678  0.1846
   13SAPS   H9X 1700   2.058   1.214   7.358  1.4055 -1.5555  0.2325
   13SAPS   H9Y 1701   2.058   1.353   7.469 -1.0380 -0.9136  0.8722
   13SAPS  C310 1702   2.135   1.171   7.548  0.3062  0.6535 -0.1552
   13SAPS  H10X 1703   2.197   1.084   7.519  1.0230  0.7008  1.1427
   13SAPS  H10Y 1704   2.033   1.136   7.575  0.5927 -0.6705 -0.7372
   13SAPS  C311 1705   2.196   1.232   7.676 -0.3764 -0.4559 -0.5623
   13SAPS  H11X 1706   2.146   1.328   7.699  1.0843  0.7749 -2.2376
   13SAPS  H11Y 1707   2.304   1.260   7.676 -0.5675  0.9397  3.4875
   13SAPS  C312 1708   2.197   1.140   7.795  0.7010  0.3508  0.2553
   13SAPS  H12X 1709   2.255   1.049   7.766 -2.0746 -1.8192  1.0551
   13SAPS  H12Y 1710   2.092   1.106   7.804  0.5542  0.0879 -1.9024
   13SAPS  C313 1711   2.243   1.199   7.930  0.3036  0.4738  0.1329
   13SAPS  H13X 1712   2.197   1.297   7.954 -0.5689 -0.2666  1.6156
   13SAPS  H13Y 1713   2.352   1.211   7.908  0.3369  1.5061  0.7645
   13SAPS  C314 1714   2.237   1.097   8.043  0.6168  0.3815  0.0069
   13SAPS  H14X 1715   2.300   1.011   8.011  0.4713 -1.7969  4.8037
   13SAPS  H14Y 1716   2.139   1.048   8.058  1.1371 -0.9910 -0.8592
   13SAPS  C315 1717   2.289   1.148   8.176  0.1166 -0.7117  0.1164
   13SAPS  H15X 1718   2.231   1.237   8.208  0.6888 -0.7822  1.4343
   13SAPS  H15Y 1719   2.397   1.174   8.173 -0.3613  1.3872 -0.5504
   13SAPS  C316 1720   2.270   1.047   8.294  0.1742  0.1292  0.1256
   13SAPS  H16X 1721   2.319   0.950   8.272  1.1407  0.4719  0.6933
   13SAPS  H16Y 1722   2.164   1.034   8.325  0.8834 -3.4344  1.4568
   13SAPS  C317 1723   2.338   1.095   8.423  0.4873 -0.6204 -0.4244
   13SAPS  H17X 1724   2.335   1.205   8.437  4.2449 -0.4923  0.4498
   13SAPS  H17Y 1725   2.447   1.078   8.409  0.2394 -4.0010  0.7414
   13SAPS  C318 1726   2.283   1.024   8.552 -0.0418 -0.0536  1.0758
   13SAPS  H18X 1727   2.354   1.030   8.637  0.5201  1.6014  0.5161
   13SAPS  H18Y 1728   2.261   0.916   8.539  1.7460 -0.3086 -0.0662
   13SAPS  H18Z 1729   2.199   1.085   8.592  0.5174  0.7906  0.9854
   14SAPS     N 1730   0.552   4.869   6.270 -0.5888 -0.6872  0.1546
   14SAPS   HN1 1731   0.514   4.930   6.345 -0.4430  1.2192 -1.2438
   14SAPS   HN2 1732   0.524   4.771   6.292  0.7483 -0.9919  0.5945
   14SAPS   HN3 1733   0.655   4.869   6.283 -0.6956 -2.2772  1.2775
   14SAPS   C12 1734   0.509   4.923   6.131  0.2028 -0.0152  0.0894
   14SAPS  H12A 1735   0.543   5.025   6.116 -2.0648  1.0402  1.5134
   14SAPS   C13 1736   0.568   4.848   6.013  0.1870 -0.1553  0.3846
   14SAPS  O13A 1737   0.649   4.749   6.030 -0.5159  0.0528  0.5776
   14SAPS  O13B 1738   0.543   4.888   5.895  0.7928 -0.1466 -0.1720
   14SAPS   C11 1739   0.349   4.923   6.121  0.2268  0.3073  0.2808
   14SAPS  H11A 1740   0.320   4.817   6.133  0.5764  0.2496  0.6376
   14SAPS  H11B 1741   0.336   4.954   6.015  1.4116 -0.6170 -0.1584
   14SAPS     P 1742   0.154   5.086   6.172 -0.3378  0.6152  0.0864
   14SAPS   O13 1743   0.154   5.227   6.217  0.4610  0.3492 -0.0524
   14SAPS   O14 1744   0.118   5.049   6.031 -0.3780 -0.0789  0.5767
   14SAPS   O12 1745   0.285   5.013   6.219  0.3723 -0.0850  0.1911
   14SAPS   O11 1746   0.040   5.017   6.255  0.0545  0.4692 -0.4049
   14SAPS    C1 1747   0.062   4.984   6.394  0.3013  0.2347  0.3945
   14SAPS    HA 1748   0.152   4.921   6.409  1.6023  2.1778  1.1984
   14SAPS    HB 1749   0.085   5.077   6.451  2.1975  0.6417 -0.9401
   14SAPS    C2 1750  -0.059   4.906   6.458 -0.0281 -0.0168  0.2659
   14SAPS    HS 1751  -0.104   4.838   6.383  1.0830  0.5834 -0.9926
   14SAPS   O21 1752  -0.150   5.005   6.503 -0.2707  0.5606  0.5363
   14SAPS   C21 1753  -0.275   4.970   6.528 -0.1983 -0.8195 -0.7483
   14SAPS   O22 1754  -0.319   4.859   6.507  0.0004  0.1243  0.1340
   14SAPS   C22 1755  -0.345   5.092   6.595 -0.2849  0.2826  0.1441
   14SAPS   H2R 1756  -0.339   5.173   6.519 -1.3211 -0.8368 -1.2102
   14SAPS   H2S 1757  -0.451   5.061   6.602 -0.4077  0.3730 -1.0139
   14SAPS    C3 1758  -0.013   4.808   6.574  0.3051  0.4664  0.3183
   14SAPS    HX 1759   0.048   4.729   6.524 -0.2979  0.2685 -0.1235
   14SAPS    HY 1760  -0.105   4.757   6.611  1.0255 -0.4992  0.8291
   14SAPS   O31 1761   0.063   4.865   6.677 -0.5159 -0.1675 -0.6031
   14SAPS   C31 1762  -0.005   4.888   6.801 -0.0439 -0.0766 -0.1393
   14SAPS   O32 1763  -0.115   4.850   6.827 -0.0205 -0.1976 -0.3292
   14SAPS   C32 1764   0.093   4.954   6.896  0.1240 -0.0674 -0.1322
   14SAPS   H2X 1765   0.150   5.018   6.825 -1.9857  0.6991 -1.2376
   14SAPS   H2Y 1766   0.158   4.876   6.941  1.1685 -0.6663 -2.4900
   14SAPS   C23 1767  -0.284   5.131   6.732 -0.4575 -0.4193  0.0282
   14SAPS   H3R 1768  -0.176   5.156   6.721 -0.7851  1.1914  0.1785
   14SAPS   H3S 1769  -0.281   5.048   6.805 -0.6072  0.4608  1.0457
   14SAPS   C24 1770  -0.357   5.254   6.787 -0.8279  0.0997 -0.7123
   14SAPS   H4R 1771  -0.453   5.217   6.829 -0.5000  0.2527  0.2130
   14SAPS   H4S 1772  -0.370   5.335   6.713  2.1175 -0.4851 -2.0323
   14SAPS   C25 1773  -0.277   5.312   6.907  0.2722  0.8447  0.1958
   14SAPS   H5R 1774  -0.219   5.401   6.878  0.5389  0.4856 -0.3800
   14SAPS   C26 1775  -0.274   5.262   7.034  0.2341  0.1711 -0.1672
   14SAPS   H6R 1776  -0.208   5.316   7.105  2.0066  1.7946 -2.8639
   14SAPS   C27 1777  -0.342   5.134   7.080 -0.5372 -0.0484  0.2317
   14SAPS   H7R 1778  -0.256   5.079   7.124 -0.0111  0.5662 -0.0034
   14SAPS   H7S 1779  -0.377   5.082   6.988 -0.3593 -0.5739  0.4568
   14SAPS   C28 1780  -0.442   5.151   7.184 -0.6001 -0.7357 -0.0903
   14SAPS   H8R 1781  -0.536   5.192   7.142 -1.0285 -1.9539 -0.3637
   14SAPS   C29 1782  -0.426   5.155   7.318 -0.2521 -0.2242 -0.3205
   14SAPS   H9R 1783  -0.520   5.165   7.373 -0.9160 -1.3569 -1.2074
   14SAPS  C210 1784  -0.301   5.141   7.407 -0.3690  0.8587 -0.1084
   14SAPS  H10R 1785  -0.225   5.075   7.359  0.1956  2.4675 -1.5358
   14SAPS  H10S 1786  -0.322   5.081   7.498  1.2050  0.5931  0.1000
   14SAPS  C211 1787  -0.249   5.281   7.433 -0.6061 -0.2989 -0.2537
   14SAPS  H11R 1788  -0.244   5.357   7.353  1.7982 -2.0439 -1.8965
   14SAPS  C212 1789  -0.198   5.323   7.551 -0.4624  0.3584  0.3910
   14SAPS  H12R 1790  -0.148   5.421   7.552  0.7693 -0.2537  0.7184
   14SAPS  C213 1791  -0.188   5.245   7.680  0.9607  0.4593 -0.4767
   14SAPS  H13R 1792  -0.140   5.311   7.755  1.3324  0.4581 -0.7099
   14SAPS  H13S 1793  -0.120   5.158   7.669  1.2303  0.4994  0.7837
   14SAPS  C214 1794  -0.320   5.214   7.748  0.4678  0.5398 -0.8471
   14SAPS  H14R 1795  -0.411   5.245   7.695 -0.2017 -2.8258 -1.8954
   14SAPS  C215 1796  -0.324   5.158   7.875 -0.1118  0.3764  0.7566
   14SAPS  H15R 1797  -0.422   5.132   7.915  0.5135 -3.5173  0.1664
   14SAPS  C216 1798  -0.209   5.110   7.954 -0.2487 -0.0932  0.0219
   14SAPS  H16R 1799  -0.121   5.092   7.889 -1.1771 -1.6607 -0.8635
   14SAPS  H16S 1800  -0.222   5.007   7.994  2.7352 -1.7876 -2.8291
   14SAPS  C217 1801  -0.163   5.214   8.065  0.2166 -0.4531 -0.3666
   14SAPS  H17R 1802  -0.131   5.305   8.010  0.7317 -0.7397 -0.5423
   14SAPS  H17S 1803  -0.080   5.166   8.121 -0.8405 -1.9146  0.0283
   14SAPS  C218 1804  -0.264   5.250   8.182  0.3620  0.9527 -0.2661
   14SAPS  H18R 1805  -0.367   5.246   8.143 -0.0532  1.2380  0.7607
   14SAPS  H18S 1806  -0.257   5.350   8.231 -0.7237 -0.1093  2.2247
   14SAPS  C219 1807  -0.277   5.137   8.287 -0.4487  0.6170  0.0943
   14SAPS  H19R 1808  -0.338   5.175   8.372  0.1330 -0.0861  0.8476
   14SAPS  H19S 1809  -0.179   5.100   8.326 -0.7221 -0.8475 -0.5611
   14SAPS  C220 1810  -0.350   5.008   8.238  0.2135  0.6379 -0.1501
   14SAPS  H20R 1811  -0.295   4.941   8.168 -0.6868  1.2713 -1.5202
   14SAPS  H20S 1812  -0.444   5.039   8.187  2.2711  0.4128 -4.5322
   14SAPS  H20T 1813  -0.374   4.951   8.330 -2.1777  1.9817  0.1376
   14SAPS   C33 1814   0.045   5.049   7.005  0.6066 -0.7175 -0.1465
   14SAPS   H3X 1815  -0.039   5.000   7.060 -1.1681  2.3065  0.0576
   14SAPS   H3Y 1816  -0.010   5.131   6.954 -2.3337 -1.2891  1.8313
   14SAPS   C34 1817   0.156   5.100   7.098  0.4578  0.1570 -0.2990
   14SAPS   H4X 1818   0.199   5.192   7.051  1.2192 -0.7207 -1.3745
   14SAPS   H4Y 1819   0.240   5.028   7.100  0.8705  0.6508  0.9988
   14SAPS   C35 1820   0.105   5.130   7.245 -0.1525  0.1800  0.8792
   14SAPS   H5X 1821   0.045   5.046   7.284 -2.1508  1.4997  0.7841
   14SAPS   H5Y 1822   0.044   5.223   7.244  2.9369  2.3839  1.1468
   14SAPS   C36 1823   0.224   5.155   7.336 -0.2147 -0.2322  0.0909
   14SAPS   H6X 1824   0.284   5.237   7.291 -2.0952  2.1612  1.7510
   14SAPS   H6Y 1825   0.293   5.068   7.345  0.9561  0.7963  1.5411
   14SAPS   C37 1826   0.177   5.178   7.477  0.8127 -0.4509 -0.4797
   14SAPS   H7X 1827   0.117   5.092   7.512  1.2878 -1.1798 -1.4267
   14SAPS   H7Y 1828   0.111   5.266   7.495 -1.1704 -2.0138  0.1816
   14SAPS   C38 1829   0.294   5.206   7.579  0.4237  0.3485  0.4090
   14SAPS   H8X 1830   0.353   5.112   7.585  0.7603  0.5497  0.2108
   14SAPS   H8Y 1831   0.251   5.222   7.681  1.4871  0.9679  0.7766
   14SAPS   C39 1832   0.389   5.325   7.546  0.7214 -0.0568 -0.5747
   14SAPS   H9X 1833   0.324   5.415   7.546  0.8861  0.0678 -0.0699
   14SAPS   H9Y 1834   0.431   5.308   7.445 -1.0625 -1.5803 -1.1108
   14SAPS  C310 1835   0.498   5.341   7.653 -0.7334  0.7388 -0.2810
   14SAPS  H10X 1836   0.570   5.257   7.639 -1.3205 -0.2987  2.3115
   14SAPS  H10Y 1837   0.455   5.321   7.753 -1.4147  0.2354 -0.6701
   14SAPS  C311 1838   0.576   5.474   7.638 -0.1036 -0.1308 -0.5177
   14SAPS  H11X 1839   0.505   5.559   7.624  0.4203  0.2540 -0.8716
   14SAPS  H11Y 1840   0.632   5.463   7.543  2.8138  0.2732  1.0422
   14SAPS  C312 1841   0.672   5.521   7.753 -0.1502  0.2703 -0.1099
   14SAPS  H12X 1842   0.741   5.602   7.723 -2.6991  1.8088 -2.3609
   14SAPS  H12Y 1843   0.730   5.428   7.773  2.1962  1.4365 -1.1621
   14SAPS  C313 1844   0.601   5.567   7.878 -0.6328 -0.1261 -0.2476
   14SAPS  H13X 1845   0.559   5.475   7.926 -0.4889  0.0560  0.2378
   14SAPS  H13Y 1846   0.516   5.633   7.851 -2.2291 -1.1181  1.9483
   14SAPS  C314 1847   0.696   5.643   7.969 -0.4254  0.0567 -0.5292
   14SAPS  H14X 1848   0.729   5.733   7.912 -0.4553 -0.0166 -0.6613
   14SAPS  H14Y 1849   0.794   5.591   7.970 -0.7020 -0.4971  1.1743
   14SAPS  C315 1850   0.658   5.675   8.112  0.1315  0.2666  0.4557
   14SAPS  H15X 1851   0.557   5.721   8.116  0.8622  2.2021 -1.4768
   14SAPS  H15Y 1852   0.732   5.742   8.160  0.8309 -0.3660  0.2753
   14SAPS  C316 1853   0.635   5.539   8.187 -0.8636  0.1941  0.1727
   14SAPS  H16X 1854   0.699   5.458   8.146  1.3119  1.0307  1.7125
   14SAPS  H16Y 1855   0.528   5.510   8.176 -0.5971 -0.4243 -0.8119
   14SAPS  C317 1856   0.663   5.537   8.337  0.9286  0.4531  0.1231
   14SAPS  H17X 1857   0.627   5.449   8.394 -0.8129  1.3933  0.5338
   14SAPS  H17Y 1858   0.601   5.625   8.366 -0.2720  0.7738 -3.0450
   14SAPS  C318 1859   0.815   5.560   8.371 -0.2078 -0.3526  0.8252
   14SAPS  H18X 1860   0.873   5.484   8.315 -2.4455  0.3248 -2.7328
   14SAPS  H18Y 1861   0.836   5.560   8.480 -0.4188  1.0650  0.8821
   14SAPS  H18Z 1862   0.838   5.662   8.332 -2.6119  0.1625  0.5849
   15SAPS     N 1863   0.387   6.364   6.278  0.3338  0.0816  0.3660
   15SAPS   HN1 1864   0.432   6.290   6.336 -0.3769 -2.1902 -1.7945
   15SAPS   HN2 1865   0.435   6.376   6.187 -1.2672  1.4396 -0.3475
   15SAPS   HN3 1866   0.377   6.457   6.323  0.4540  0.2865 -0.0277
   15SAPS   C12 1867   0.245   6.327   6.253 -0.0683 -0.1623 -0.6269
   15SAPS  H12A 1868   0.208   6.382   6.169  0.2361 -0.3347 -0.8767
   15SAPS   C13 1869   0.228   6.184   6.205 -0.4353 -0.3602  0.0123
   15SAPS  O13A 1870   0.328   6.127   6.159  0.3637 -0.3384  0.0380
   15SAPS  O13B 1871   0.113   6.147   6.168 -0.2826  0.4937 -0.4236
   15SAPS   C11 1872   0.159   6.353   6.377 -0.1768 -0.3020  0.4456
   15SAPS  H11A 1873   0.197   6.285   6.456  0.0391 -1.6682 -0.7872
   15SAPS  H11B 1874   0.053   6.328   6.352 -0.2851  0.0443  0.5483
   15SAPS     P 1875   0.066   6.595   6.405 -0.5447 -0.3318 -0.2548
   15SAPS   O13 1876   0.084   6.691   6.510  0.1885  0.0959  0.4139
   15SAPS   O14 1877   0.076   6.636   6.263 -0.1180 -0.2987  0.0597
   15SAPS   O12 1878   0.168   6.483   6.433  0.5210 -0.2479 -0.0713
   15SAPS   O11 1879  -0.078   6.535   6.427  0.0620  0.0935  0.7211
   15SAPS    C1 1880  -0.197   6.605   6.434  0.0519 -0.5844 -0.4028
   15SAPS    HA 1881  -0.190   6.707   6.391  0.7047 -1.4003 -2.3493
   15SAPS    HB 1882  -0.284   6.566   6.377  0.1425  0.2536 -1.1374
   15SAPS    C2 1883  -0.236   6.630   6.581  0.8817 -0.2378  0.8052
   15SAPS    HS 1884  -0.149   6.678   6.629  0.7571 -1.0832  1.9052
   15SAPS   O21 1885  -0.279   6.499   6.644  0.5761 -0.2978 -0.4957
   15SAPS   C21 1886  -0.249   6.494   6.773 -0.2488  0.1797 -0.3183
   15SAPS   O22 1887  -0.181   6.571   6.841  0.6682 -0.4422  0.1087
   15SAPS   C22 1888  -0.315   6.361   6.823  1.0040 -0.1187 -0.5407
   15SAPS   H2R 1889  -0.417   6.390   6.858  0.6041 -2.3993  0.3027
   15SAPS   H2S 1890  -0.321   6.281   6.747  0.5350  1.0293 -1.7534
   15SAPS    C3 1891  -0.353   6.732   6.579 -0.0855  0.0648  0.1289
   15SAPS    HX 1892  -0.446   6.676   6.552 -2.2143  1.3384  4.0378
   15SAPS    HY 1893  -0.338   6.814   6.505 -0.2714  0.1820  0.2209
   15SAPS   O31 1894  -0.382   6.783   6.710 -0.5733 -0.2153 -0.6228
   15SAPS   C31 1895  -0.299   6.879   6.749 -0.3275 -0.1330  0.6711
   15SAPS   O32 1896  -0.214   6.925   6.676 -0.0027 -0.4479 -0.2950
   15SAPS   C32 1897  -0.340   6.914   6.889 -0.4131 -0.0576  0.8669
   15SAPS   H2X 1898  -0.325   6.816   6.939 -1.3915  1.0883  3.5791
   15SAPS   H2Y 1899  -0.447   6.942   6.901 -0.4306 -0.0074  0.5999
   15SAPS   C23 1900  -0.234   6.309   6.942  0.6318 -0.5888 -0.5661
   15SAPS   H3R 1901  -0.235   6.384   7.024  2.7738 -0.0736 -0.9574
   15SAPS   H3S 1902  -0.128   6.287   6.919  0.0210 -1.7536 -2.4530
   15SAPS   C24 1903  -0.282   6.171   7.001 -0.4943 -0.5719 -0.0671
   15SAPS   H4R 1904  -0.225   6.132   7.088 -1.5341  2.0549  1.9599
   15SAPS   H4S 1905  -0.256   6.101   6.919 -2.2482 -0.7811 -0.4994
   15SAPS   C25 1906  -0.431   6.179   7.019 -0.1369  0.4447  0.1382
   15SAPS   H5R 1907  -0.481   6.190   6.922 -1.0616 -0.2733  0.5157
   15SAPS   C26 1908  -0.492   6.190   7.139  0.0796 -0.4297  0.2795
   15SAPS   H6R 1909  -0.601   6.182   7.128  0.1754 -1.1072 -0.2763
   15SAPS   C27 1910  -0.440   6.190   7.279 -0.6403  0.4118 -0.7660
   15SAPS   H7R 1911  -0.335   6.158   7.292 -1.3838 -1.8695 -0.0394
   15SAPS   H7S 1912  -0.488   6.105   7.331  0.1003 -0.6668 -1.8066
   15SAPS   C28 1913  -0.465   6.331   7.343 -0.0122  0.5526  0.3926
   15SAPS   H8R 1914  -0.416   6.406   7.279 -1.5829 -0.0466 -1.6243
   15SAPS   C29 1915  -0.527   6.351   7.463 -0.1180 -0.2362 -0.2632
   15SAPS   H9R 1916  -0.557   6.453   7.491 -1.7004 -0.3106 -1.5704
   15SAPS  C210 1917  -0.591   6.241   7.554  0.3264 -0.0162  0.8866
   15SAPS  H10R 1918  -0.524   6.224   7.641  1.6519  0.7323  0.0494
   15SAPS  H10S 1919  -0.587   6.144   7.499  3.0698 -0.8006  2.2617
   15SAPS  C211 1920  -0.727   6.277   7.591 -0.0407 -0.6152  0.5819
   15SAPS  H11R 1921  -0.795   6.293   7.505  0.9018 -1.8005 -0.4323
   15SAPS  C212 1922  -0.764   6.305   7.717  0.2310 -0.1825  0.0273
   15SAPS  H12R 1923  -0.871   6.328   7.734  0.0583 -0.9615  0.0119
   15SAPS  C213 1924  -0.682   6.301   7.847  0.1364  0.1928 -0.9434
   15SAPS  H13R 1925  -0.681   6.399   7.897  1.2952  1.1928 -2.8074
   15SAPS  H13S 1926  -0.576   6.272   7.828 -0.2311 -1.1413 -1.1101
   15SAPS  C214 1927  -0.746   6.209   7.947 -0.6180  0.6988  0.2445
   15SAPS  H14R 1928  -0.849   6.225   7.980 -0.3686 -0.3789  1.6178
   15SAPS  C215 1929  -0.678   6.116   8.020  0.0756 -0.4034 -0.3600
   15SAPS  H15R 1930  -0.730   6.060   8.100 -0.2369 -0.5622 -0.6732
   15SAPS  C216 1931  -0.534   6.078   8.015  0.5887  0.0492 -0.3953
   15SAPS  H16R 1932  -0.489   6.116   7.920 -0.0922  3.4638  0.5163
   15SAPS  H16S 1933  -0.533   5.967   8.014 -0.2662 -0.0625  2.5315
   15SAPS  C217 1934  -0.462   6.133   8.141 -0.2321  0.0125  0.2493
   15SAPS  H17R 1935  -0.485   6.242   8.147  0.2701  0.1941 -0.8726
   15SAPS  H17S 1936  -0.353   6.130   8.120 -0.3477 -0.0827 -0.3466
   15SAPS  C218 1937  -0.494   6.046   8.264  0.6179 -0.5061 -1.0314
   15SAPS  H18R 1938  -0.456   5.944   8.241 -0.0536 -0.0158 -4.9187
   15SAPS  H18S 1939  -0.604   6.054   8.280  0.8725  0.8695  0.3002
   15SAPS  C219 1940  -0.426   6.101   8.393 -0.0814 -0.6362  0.8151
   15SAPS  H19R 1941  -0.468   6.195   8.433  3.4099  1.0181  0.9995
   15SAPS  H19S 1942  -0.319   6.126   8.375  0.2664 -2.1353  0.6413
   15SAPS  C220 1943  -0.429   5.999   8.502 -0.8294  0.0432  0.0294
   15SAPS  H20R 1944  -0.365   5.910   8.488  2.0816  2.1821 -1.2302
   15SAPS  H20S 1945  -0.534   5.971   8.525 -0.3918 -2.7474 -1.0448
   15SAPS  H20T 1946  -0.400   6.041   8.601  0.9924 -2.0346  0.4519
   15SAPS   C33 1947  -0.252   7.015   6.966  0.2250  0.3964  0.6780
   15SAPS   H3X 1948  -0.267   7.122   6.942  0.0128  1.1172  3.6906
   15SAPS   H3Y 1949  -0.148   6.977   6.954  0.3234  1.0839 -0.8836
   15SAPS   C34 1950  -0.280   7.018   7.116  0.0354  0.1338 -0.2232
   15SAPS   H4X 1951  -0.266   6.918   7.162  0.4124  1.2682  2.3512
   15SAPS   H4Y 1952  -0.386   7.050   7.124 -0.0434 -0.2552  0.3338
   15SAPS   C35 1953  -0.203   7.124   7.198  1.3842 -0.5091  0.4672
   15SAPS   H5X 1954  -0.230   7.218   7.144 -0.8680 -0.0537  2.2625
   15SAPS   H5Y 1955  -0.093   7.110   7.195  1.4294 -0.8940  2.5086
   15SAPS   C36 1956  -0.255   7.144   7.341  0.0915 -0.8552  0.8328
   15SAPS   H6X 1957  -0.358   7.104   7.350  0.1914 -0.7058  3.0155
   15SAPS   H6Y 1958  -0.262   7.244   7.388 -0.4977 -0.0367 -0.9312
   15SAPS   C37 1959  -0.163   7.062   7.430  0.0110 -0.2419  0.2578
   15SAPS   H7X 1960  -0.062   7.109   7.432 -0.2417  0.6863 -2.9006
   15SAPS   H7Y 1961  -0.152   6.959   7.389  4.5004 -0.4281  1.3917
   15SAPS   C38 1962  -0.228   7.044   7.570 -0.5906  0.2005 -0.1918
   15SAPS   H8X 1963  -0.325   6.989   7.566 -0.6050  0.0732  1.3775
   15SAPS   H8Y 1964  -0.244   7.137   7.630  0.7186  0.7372 -0.6454
   15SAPS   C39 1965  -0.136   6.975   7.670  0.2349  0.9269 -0.3188
   15SAPS   H9X 1966  -0.027   6.989   7.660  0.3089  0.5789 -0.0437
   15SAPS   H9Y 1967  -0.163   6.867   7.677  0.0908  1.0719  4.4543
   15SAPS  C310 1968  -0.183   7.029   7.812  0.6443  0.0627  0.7688
   15SAPS  H10X 1969  -0.293   7.014   7.822 -0.0146  1.4186 -3.0292
   15SAPS  H10Y 1970  -0.173   7.139   7.821 -2.3942  0.4757  0.2545
   15SAPS  C311 1971  -0.100   6.960   7.920 -0.0905  0.7909  0.2853
   15SAPS  H11X 1972   0.007   6.982   7.899  1.0885 -3.2552  1.1916
   15SAPS  H11Y 1973  -0.101   6.850   7.907 -0.7585  0.9483 -1.1259
   15SAPS  C312 1974  -0.115   7.006   8.062 -0.3985 -0.4772  0.9102
   15SAPS  H12X 1975  -0.053   6.942   8.129  0.0546 -0.4034  0.5616
   15SAPS  H12Y 1976  -0.223   7.006   8.087 -0.5968 -0.4262  0.0945
   15SAPS  C313 1977  -0.083   7.155   8.073 -0.5045  0.1136  0.2255
   15SAPS  H13X 1978  -0.153   7.221   8.019  0.1181  0.8838  0.3432
   15SAPS  H13Y 1979   0.019   7.175   8.032 -0.8936  0.3465 -0.6538
   15SAPS  C314 1980  -0.088   7.193   8.219  0.7846  0.0184  0.1280
   15SAPS  H14X 1981  -0.013   7.132   8.275 -1.3184 -2.8442  0.0754
   15SAPS  H14Y 1982  -0.186   7.153   8.251  0.5370 -0.3482 -1.0430
   15SAPS  C315 1983  -0.093   7.342   8.250 -0.4088 -0.0560  0.8487
   15SAPS  H15X 1984  -0.183   7.372   8.191 -0.0436  1.4750  1.0207
   15SAPS  H15Y 1985  -0.008   7.400   8.209  0.5416 -0.5689  2.0398
   15SAPS  C316 1986  -0.118   7.372   8.400 -0.6175  0.1794  0.5835
   15SAPS  H16X 1987  -0.228   7.359   8.416 -1.1847  0.0221 -2.6666
   15SAPS  H16Y 1988  -0.103   7.481   8.415 -0.1453 -0.0017  1.4964
   15SAPS  C317 1989  -0.035   7.310   8.509  0.8275 -0.3898 -0.1546
   15SAPS  H17X 1990  -0.045   7.200   8.504  2.0259 -0.5544  0.6428
   15SAPS  H17Y 1991  -0.062   7.336   8.613  0.5555  1.4849 -0.6492
   15SAPS  C318 1992   0.120   7.341   8.496 -0.1827 -0.2025 -0.6278
   15SAPS  H18X 1993   0.167   7.304   8.590  1.4745  0.5691 -1.1193
   15SAPS  H18Y 1994   0.138   7.451   8.486  0.5340 -0.3697 -1.2456
   15SAPS  H18Z 1995   0.166   7.284   8.413 -2.9031 -2.7255 -0.5809
   16SAPS     N 1996   2.255   0.357   6.497  0.2543  0.1420  0.4285
   16SAPS   HN1 1997   2.286   0.356   6.597  1.3628 -1.8530  0.1148
   16SAPS   HN2 1998   2.151   0.346   6.491  0.4326 -1.0318 -1.2434
   16SAPS   HN3 1999   2.299   0.270   6.460 -1.4512 -0.3229 -0.6476
   16SAPS   C12 2000   2.301   0.477   6.423 -0.0918  0.3010  0.3412
   16SAPS  H12A 2001   2.406   0.496   6.441 -0.4715  1.4214  1.6200
   16SAPS   C13 2002   2.292   0.459   6.272  0.3539 -0.1856  0.1390
   16SAPS  O13A 2003   2.260   0.354   6.208  0.2499 -0.5814  0.1184
   16SAPS  O13B 2004   2.365   0.538   6.205  0.2854  0.4028  0.8828
   16SAPS   C11 2005   2.217   0.603   6.463  0.2288  0.0944  0.4769
   16SAPS  H11A 2006   2.246   0.694   6.405  1.4985  1.6577  3.3775
   16SAPS  H11B 2007   2.237   0.634   6.567  0.6812  3.5485 -0.5156
   16SAPS     P 2008   1.970   0.680   6.487  0.1045 -0.3683 -0.0375
   16SAPS   O13 2009   1.986   0.815   6.423 -0.4869  0.1416 -0.2614
   16SAPS   O14 2010   1.839   0.617   6.469 -0.2278  0.0046 -0.0870
   16SAPS   O12 2011   2.082   0.576   6.439 -0.1461  0.1425  0.0546
   16SAPS   O11 2012   1.997   0.698   6.642 -0.3083 -0.2422  0.0926
   16SAPS    C1 2013   2.024   0.827   6.710  0.5970  0.4068  0.8368
   16SAPS    HA 2014   2.116   0.871   6.667  1.9018 -0.3950  2.7087
   16SAPS    HB 2015   1.939   0.898   6.692  0.4037 -0.3462 -1.4815
   16SAPS    C2 2016   2.042   0.813   6.864  0.1928  0.0387  0.3183
   16SAPS    HS 2017   2.058   0.916   6.902  1.2998 -0.6844  1.9247
   16SAPS   O21 2018   2.140   0.715   6.901 -0.0905  0.4892 -0.5354
   16SAPS   C21 2019   2.263   0.759   6.884 -0.3317 -0.1079  0.5723
   16SAPS   O22 2020   2.294   0.876   6.863 -0.4833 -0.1894 -0.6919
   16SAPS   C22 2021   2.364   0.655   6.914 -0.1342 -0.8931  0.0471
   16SAPS   H2R 2022   2.306   0.567   6.947 -3.1407  0.5875 -0.9338
   16SAPS   H2S 2023   2.408   0.626   6.816  1.8955 -0.2290  0.7053
   16SAPS    C3 2024   1.909   0.767   6.927 -0.2716 -0.5744  0.1479
   16SAPS    HX 2025   1.845   0.699   6.866 -0.6922 -0.0418 -0.0154
   16SAPS    HY 2026   1.846   0.859   6.929  0.0565 -0.2600 -1.6618
   16SAPS   O31 2027   1.934   0.725   7.054  0.4082 -0.3885 -0.1023
   16SAPS   C31 2028   1.937   0.603   7.083  0.2301 -0.0528 -0.4750
   16SAPS   O32 2029   1.911   0.510   7.006  0.7591 -0.3306 -0.4278
   16SAPS   C32 2030   1.956   0.583   7.236  0.4028  0.4878  0.5459
   16SAPS   H2X 2031   1.992   0.671   7.293  1.4615 -0.4969  1.4504
   16SAPS   H2Y 2032   2.046   0.518   7.232  0.0820  0.0502 -2.9538
   16SAPS   C23 2033   2.493   0.698   6.998 -0.3653 -0.6475  0.5378
   16SAPS   H3R 2034   2.528   0.801   6.973 -2.0252 -0.4787 -1.3878
   16SAPS   H3S 2035   2.572   0.621   6.989  0.7231  0.2075  2.3394
   16SAPS   C24 2036   2.446   0.688   7.149  0.7464  0.2813 -0.1416
   16SAPS   H4R 2037   2.537   0.690   7.213  0.5752  2.5207  0.1207
   16SAPS   H4S 2038   2.397   0.588   7.153  0.0090  0.6596  2.7320
   16SAPS   C25 2039   2.345   0.791   7.197 -0.4954 -0.6604  0.0054
   16SAPS   H5R 2040   2.329   0.869   7.121  1.6952  2.5929  2.5434
   16SAPS   C26 2041   2.282   0.808   7.317  0.3724  0.8767 -0.0639
   16SAPS   H6R 2042   2.224   0.901   7.333  0.2892  0.8190 -0.0293
   16SAPS   C27 2043   2.282   0.717   7.441  0.3193 -0.2880 -0.5328
   16SAPS   H7R 2044   2.376   0.662   7.461 -0.4347 -1.8376 -1.0717
   16SAPS   H7S 2045   2.206   0.636   7.432 -0.0027  0.0178 -0.5827
   16SAPS   C28 2046   2.233   0.774   7.575 -0.5046  0.4070  0.4251
   16SAPS   H8R 2047   2.192   0.876   7.581 -0.5384  0.3720  0.8919
   16SAPS   C29 2048   2.236   0.704   7.690 -0.5688  0.2377  0.1057
   16SAPS   H9R 2049   2.215   0.766   7.778  1.4906  2.2429 -0.6938
   16SAPS  C210 2050   2.284   0.564   7.697  0.3816 -0.5773 -0.5452
   16SAPS  H10R 2051   2.384   0.560   7.650  0.1651  0.1005 -1.0702
   16SAPS  H10S 2052   2.218   0.498   7.636 -0.4929 -0.1645 -0.0649
   16SAPS  C211 2053   2.286   0.507   7.840 -0.8405 -0.1015 -0.1399
   16SAPS  H11R 2054   2.215   0.424   7.856  1.1330 -1.7034  0.8042
   16SAPS  C212 2055   2.354   0.545   7.947  0.3800 -0.4453  0.6072
   16SAPS  H12R 2056   2.333   0.485   8.036  2.6801  0.2522  1.7108
   16SAPS  C213 2057   2.457   0.657   7.968 -0.1303 -0.0461 -0.5772
   16SAPS  H13R 2058   2.421   0.739   7.903  1.2989 -0.5424 -2.0845
   16SAPS  H13S 2059   2.553   0.629   7.919  0.3556  0.8855 -0.1762
   16SAPS  C214 2060   2.470   0.707   8.108  0.2141  1.1398 -0.2968
   16SAPS  H14R 2061   2.387   0.773   8.138 -0.2312 -0.0011  1.1017
   16SAPS  C215 2062   2.579   0.690   8.196 -0.9642 -1.0994 -0.1294
   16SAPS  H15R 2063   2.574   0.739   8.294  0.5245 -0.2300 -0.4666
   16SAPS  C216 2064   2.704   0.617   8.172  0.1383  0.3698 -0.3998
   16SAPS  H16R 2065   2.773   0.661   8.248 -2.7922  1.7173  1.6464
   16SAPS  H16S 2066   2.749   0.642   8.074  0.9235  0.0881 -0.1214
   16SAPS  C217 2067   2.704   0.472   8.200  0.9659  0.1074 -0.2680
   16SAPS  H17R 2068   2.803   0.436   8.235  0.6121  0.8174  1.5265
   16SAPS  H17S 2069   2.674   0.418   8.107 -3.4142  1.0001  0.4136
   16SAPS  C218 2070   2.603   0.408   8.307  0.1015 -0.0325  0.5341
   16SAPS  H18R 2071   2.503   0.420   8.260 -0.6299  3.7604  2.6000
   16SAPS  H18S 2072   2.596   0.465   8.402  2.6837 -0.3715  0.9971
   16SAPS  C219 2073   2.646   0.266   8.342  0.1808  0.2954 -0.2708
   16SAPS  H19R 2074   2.735   0.275   8.407 -0.3833 -1.8955  0.8983
   16SAPS  H19S 2075   2.679   0.209   8.253  1.5504  0.8564 -0.1391
   16SAPS  C220 2076   2.535   0.187   8.414  0.1866 -0.7556  0.5123
   16SAPS  H20R 2077   2.541   0.076   8.408  2.4013 -0.7666  1.9115
   16SAPS  H20S 2078   2.440   0.221   8.369  0.4292 -0.4862  0.2032
   16SAPS  H20T 2079   2.530   0.210   8.523 -2.1660  0.6649  0.1769
   16SAPS   C33 2080   1.842   0.514   7.312 -0.8174 -0.4051 -0.7724
   16SAPS   H3X 2081   1.796   0.429   7.257 -0.6253 -0.8349 -0.2841
   16SAPS   H3Y 2082   1.764   0.589   7.337  0.0847 -0.3412  2.3485
   16SAPS   C34 2083   1.891   0.460   7.446  1.1594  0.5402 -0.2830
   16SAPS   H4X 2084   1.952   0.537   7.498 -0.4622  2.0572 -0.5304
   16SAPS   H4Y 2085   1.952   0.373   7.412  0.4515  0.5926 -1.7633
   16SAPS   C35 2086   1.768   0.404   7.527 -0.3274 -0.3639  0.3894
   16SAPS   H5X 2087   1.705   0.338   7.463  2.4661 -1.0232 -1.9326
   16SAPS   H5Y 2088   1.707   0.495   7.545 -0.7777 -0.4285 -0.6698
   16SAPS   C36 2089   1.811   0.329   7.654  0.6507 -0.1856  0.3621
   16SAPS   H6X 2090   1.888   0.250   7.637  1.0246  0.2214  0.1686
   16SAPS   H6Y 2091   1.724   0.281   7.704  2.0697 -1.1727  2.0054
   16SAPS   C37 2092   1.865   0.421   7.759 -0.2131 -0.3627 -0.6257
   16SAPS   H7X 2093   1.793   0.505   7.771 -0.7642 -1.1035  1.8059
   16SAPS   H7Y 2094   1.963   0.458   7.723 -0.5847  0.8847 -0.3994
   16SAPS   C38 2095   1.891   0.366   7.897  0.0015  0.4484  0.3809
   16SAPS   H8X 2096   1.949   0.445   7.949  1.1784 -0.2648  0.1689
   16SAPS   H8Y 2097   1.960   0.283   7.871 -1.2302 -0.6548  0.5047
   16SAPS   C39 2098   1.769   0.322   7.979 -0.3199 -0.4798 -0.1376
   16SAPS   H9X 2099   1.703   0.246   7.932 -1.3839 -0.4828  1.2870
   16SAPS   H9Y 2100   1.711   0.416   7.995 -1.8243 -1.2167 -1.1311
   16SAPS  C310 2101   1.807   0.276   8.130 -0.2314 -0.1118 -0.0058
   16SAPS  H10X 2102   1.873   0.349   8.181  0.5201  0.4072 -1.6365
   16SAPS  H10Y 2103   1.859   0.178   8.124 -0.8785 -0.4996  0.5962
   16SAPS  C311 2104   1.694   0.278   8.224  0.2876  0.1264 -0.2496
   16SAPS  H11X 2105   1.627   0.190   8.211 -0.5441  0.8636 -1.2146
   16SAPS  H11Y 2106   1.635   0.365   8.188  2.6844  0.7033 -3.1978
   16SAPS  C312 2107   1.730   0.282   8.372 -1.0710  0.6716 -1.2023
   16SAPS  H12X 2108   1.796   0.370   8.388 -0.8108  0.0043  2.1651
   16SAPS  H12Y 2109   1.778   0.186   8.400 -1.8577 -0.2322 -2.8270
   16SAPS  C313 2110   1.612   0.319   8.471  0.1382 -0.1161  0.0193
   16SAPS  H13X 2111   1.521   0.260   8.447 -0.5705  0.9770 -0.0130
   16SAPS  H13Y 2112   1.584   0.424   8.446  1.5032  0.3657  0.4190
   16SAPS  C314 2113   1.654   0.317   8.616  0.0829  0.0796 -0.1750
   16SAPS  H14X 2114   1.681   0.215   8.649  0.1472  0.3546  0.6514
   16SAPS  H14Y 2115   1.569   0.361   8.673  1.7230  0.4143  2.1009
   16SAPS  C315 2116   1.780   0.407   8.649  0.5766 -0.6464  0.5864
   16SAPS  H15X 2117   1.871   0.387   8.588 -1.0807  0.4950 -2.4462
   16SAPS  H15Y 2118   1.802   0.394   8.758  0.5270 -0.7326  0.5861
   16SAPS  C316 2119   1.766   0.563   8.631  0.3529  0.1165 -0.2240
   16SAPS  H16X 2120   1.673   0.577   8.689 -1.0457 -3.3073 -1.4287
   16SAPS  H16Y 2121   1.733   0.600   8.532 -1.5806  0.4799  0.5145
   16SAPS  C317 2122   1.882   0.639   8.698  0.3265  0.3416  0.0340
   16SAPS  H17X 2123   1.976   0.616   8.643 -0.2048 -1.4022 -0.2014
   16SAPS  H17Y 2124   1.885   0.597   8.801 -1.2067  0.1952  0.0413
   16SAPS  C318 2125   1.854   0.784   8.699  1.4435 -0.2251  0.7203
   16SAPS  H18X 2126   1.769   0.799   8.768  0.2042 -0.3129 -0.7318
   16SAPS  H18Y 2127   1.838   0.828   8.598  1.2101 -0.2747  0.7334
   16SAPS  H18Z 2128   1.944   0.834   8.741  2.2066 -2.0008  1.3049
   17SAPC     N 2129   0.369   2.115  10.530 -0.0885 -0.5491 -0.9391
   17SAPC   C12 2130   0.505   2.049  10.492  0.3490  0.2171  0.9510
   17SAPC  H12A 2131   0.492   1.958  10.436  2.5639 -0.8086  2.0099
   17SAPC  H12B 2132   0.553   2.010  10.580 -1.6770 -0.7966  1.6696
   17SAPC   C13 2133   0.374   2.222  10.641  0.0091 -0.1495  0.1541
   17SAPC  H13A 2134   0.270   2.244  10.661  0.0357 -0.8125  1.0797
   17SAPC  H13B 2135   0.415   2.187  10.734 -0.6116 -0.7199  0.2205
   17SAPC  H13C 2136   0.419   2.318  10.619  0.0771 -0.1659  0.2231
   17SAPC   C14 2137   0.294   2.177  10.410 -0.1380  0.3088 -0.6479
   17SAPC  H14A 2138   0.205   2.223  10.449 -0.1493 -1.5639  1.7808
   17SAPC  H14B 2139   0.356   2.258  10.374  2.3694 -1.3346 -0.3140
   17SAPC  H14C 2140   0.279   2.107  10.329  1.5883  1.7266 -2.3040
   17SAPC   C15 2141   0.293   2.002  10.588  0.5526 -0.6585 -0.1168
   17SAPC  H15A 2142   0.250   1.942  10.509  0.1694 -0.0980 -0.3362
   17SAPC  H15B 2143   0.346   1.959  10.671  0.6563  1.6397  1.0931
   17SAPC  H15C 2144   0.212   2.059  10.632  0.3230  0.7233 -2.1938
   17SAPC   C11 2145   0.610   2.144  10.420 -0.6088  0.5237 -1.2586
   17SAPC  H11A 2146   0.563   2.186  10.329 -0.3635 -0.2370 -1.7478
   17SAPC  H11B 2147   0.694   2.083  10.379  1.0278  1.6673  0.2644
   17SAPC     P 2148   0.762   2.215  10.615  0.1628 -0.0532  0.3364
   17SAPC   O13 2149   0.762   2.318  10.718 -0.2344  0.2109 -0.1727
   17SAPC   O14 2150   0.754   2.072  10.651 -0.0113 -0.6488  0.0473
   17SAPC   O12 2151   0.651   2.248  10.515  0.1215  0.0942 -0.2149
   17SAPC   O11 2152   0.898   2.230  10.534  0.2989 -0.4523 -0.4473
   17SAPC    C1 2153   0.914   2.290  10.406  0.2222 -0.3998 -0.3829
   17SAPC    HA 2154   1.005   2.248  10.358  0.5283  0.4598 -0.5830
   17SAPC    HB 2155   0.819   2.284  10.348  0.3084  1.1177 -0.7468
   17SAPC    C2 2156   0.938   2.444  10.423 -0.3798  0.0814 -0.2969
   17SAPC    HS 2157   0.868   2.480  10.501 -2.1768  0.9081 -2.2065
   17SAPC   O21 2158   0.913   2.501  10.293  0.1572  0.3771 -0.3148
   17SAPC   C21 2159   0.926   2.630  10.284 -0.4933  0.6717  0.5618
   17SAPC   O22 2160   0.918   2.714  10.375  0.5208  0.2554 -0.1611
   17SAPC   C22 2161   0.942   2.670  10.134 -0.1213  0.4790 -0.0075
   17SAPC   H2R 2162   0.963   2.779  10.126 -3.4740  1.3181  0.6853
   17SAPC   H2S 2163   1.016   2.610  10.078 -0.9713  1.6064 -2.4859
   17SAPC    C3 2164   1.083   2.473  10.476  0.2092 -0.1491  0.1168
   17SAPC    HX 2165   1.086   2.426  10.576  2.4118 -0.2547  0.0476
   17SAPC    HY 2166   1.111   2.579  10.497 -1.6332  0.6521 -1.1575
   17SAPC   O31 2167   1.187   2.412  10.403 -0.0659  0.4230 -0.1411
   17SAPC   C31 2168   1.246   2.473  10.300  0.5398 -0.1294  0.2981
   17SAPC   O32 2169   1.223   2.583  10.265 -0.3356 -1.0109  0.3253
   17SAPC   C32 2170   1.346   2.368  10.232  0.5698  0.1756  0.6450
   17SAPC   H2X 2171   1.309   2.346  10.130  1.0762 -1.5929  0.8053
   17SAPC   H2Y 2172   1.345   2.280  10.301 -0.2565  0.3211  0.8218
   17SAPC   C23 2173   0.813   2.657  10.053 -0.0073  0.0344 -0.4265
   17SAPC   H3R 2174   0.731   2.705  10.110  0.1220 -0.3034  0.0500
   17SAPC   H3S 2175   0.787   2.551  10.031 -0.6498  0.3468 -1.2095
   17SAPC   C24 2176   0.816   2.732   9.917 -0.7783  0.4384 -0.6386
   17SAPC   H4R 2177   0.912   2.697   9.873 -0.9749  0.7021 -1.2872
   17SAPC   H4S 2178   0.828   2.842   9.929  0.5666  0.3160 -0.7146
   17SAPC   C25 2179   0.706   2.688   9.830  0.3477  0.0000 -0.6155
   17SAPC   H5R 2180   0.662   2.592   9.858 -0.5648 -0.1262 -2.3225
   17SAPC   C26 2181   0.657   2.758   9.724  0.0396  0.3915  0.0506
   17SAPC   H6R 2182   0.572   2.711   9.672 -1.0836  1.2992  0.9997
   17SAPC   C27 2183   0.708   2.888   9.664 -0.0821  0.3494  0.3515
   17SAPC   H7R 2184   0.729   2.961   9.745 -1.2999 -0.4662  1.4357
   17SAPC   H7S 2185   0.634   2.932   9.594  1.1485  1.2899 -0.4206
   17SAPC   C28 2186   0.845   2.866   9.596  0.2413 -0.1418 -0.6962
   17SAPC   H8R 2187   0.906   2.799   9.658 -0.3118 -0.9909 -1.0460
   17SAPC   C29 2188   0.880   2.907   9.472  0.2630 -0.6614  0.4647
   17SAPC   H9R 2189   0.979   2.877   9.435  0.0553  0.2754 -0.9464
   17SAPC  C210 2190   0.785   2.984   9.381 -0.3611  0.3538  0.1462
   17SAPC  H10R 2191   0.851   3.034   9.306  1.3624 -2.4301 -0.3715
   17SAPC  H10S 2192   0.723   3.058   9.436 -3.2655 -3.3489  2.3558
   17SAPC  C211 2193   0.700   2.893   9.289 -0.1471 -0.4620  0.5604
   17SAPC  H11R 2194   0.607   2.856   9.335 -0.1650  0.5497  1.3627
   17SAPC  C212 2195   0.714   2.874   9.155 -0.1408  0.6068 -0.5291
   17SAPC  H12R 2196   0.630   2.827   9.103 -2.2838  2.0429  1.3958
   17SAPC  C213 2197   0.822   2.934   9.066  0.7780 -0.1891  0.2805
   17SAPC  H13R 2198   0.904   2.978   9.126  0.5890  0.8143 -0.1781
   17SAPC  H13S 2199   0.782   3.021   9.010  0.5769 -0.2221  0.3740
   17SAPC  C214 2200   0.873   2.840   8.949 -0.8295 -0.2923 -0.7102
   17SAPC  H14R 2201   0.939   2.764   8.992 -0.8150  1.6655  3.1009
   17SAPC  C215 2202   0.844   2.840   8.817  0.4741 -0.0176 -0.3263
   17SAPC  H15R 2203   0.891   2.758   8.760  1.8153  0.1583  0.4906
   17SAPC  C216 2204   0.752   2.935   8.742 -0.7317  0.2822 -0.6857
   17SAPC  H16R 2205   0.796   2.967   8.645  1.1184  1.6984  0.5477
   17SAPC  H16S 2206   0.736   3.023   8.809  1.2400  0.6354 -0.6236
   17SAPC  C217 2207   0.633   2.844   8.712 -0.1426  0.2030  0.6327
   17SAPC  H17R 2208   0.594   2.804   8.808  0.2020 -0.3588  0.5370
   17SAPC  H17S 2209   0.673   2.765   8.645  0.9132  1.2194  0.0227
   17SAPC  C218 2210   0.527   2.913   8.629 -0.2627 -0.2007 -0.2223
   17SAPC  H18R 2211   0.458   2.843   8.576 -1.5586  2.1784 -1.9108
   17SAPC  H18S 2212   0.570   2.967   8.542  0.7986 -2.2751 -1.0699
   17SAPC  C219 2213   0.447   3.009   8.716  0.4895  0.1103 -0.1103
   17SAPC  H19R 2214   0.523   3.075   8.763  1.1645 -0.8144  0.1303
   17SAPC  H19S 2215   0.397   2.952   8.797  1.1423 -1.6896 -0.9189
   17SAPC  C220 2216   0.338   3.084   8.633  0.7039 -0.4502  0.9598
   17SAPC  H20R 2217   0.284   3.141   8.712 -2.3343 -0.7367 -0.7724
   17SAPC  H20S 2218   0.269   3.011   8.586  2.0190 -0.9106 -0.3186
   17SAPC  H20T 2219   0.388   3.139   8.551 -3.1054 -1.5008 -2.3553
   17SAPC   C33 2220   1.482   2.435  10.220 -0.3153  1.2646  0.3711
   17SAPC   H3X 2221   1.554   2.351  10.232  3.4959  3.9767 -1.4640
   17SAPC   H3Y 2222   1.509   2.493  10.310 -2.0559  0.4262  1.4889
   17SAPC   C34 2223   1.510   2.512  10.090  0.5356  0.1665  0.1590
   17SAPC   H4X 2224   1.612   2.555  10.093 -0.0353  1.5465  1.0715
   17SAPC   H4Y 2225   1.441   2.597  10.070  0.7162 -0.0774 -1.6123
   17SAPC   C35 2226   1.509   2.427   9.960  0.3182  0.1678  0.0992
   17SAPC   H5X 2227   1.413   2.430   9.903  0.5206  2.9970 -0.2457
   17SAPC   H5Y 2228   1.516   2.318   9.978  0.2040  0.2775  0.8466
   17SAPC   C36 2229   1.623   2.461   9.862  0.1567  0.1159 -0.3282
   17SAPC   H6X 2230   1.716   2.448   9.920 -0.8272  0.6512  1.4271
   17SAPC   H6Y 2231   1.613   2.567   9.829  0.7322  0.7051  1.3118
   17SAPC   C37 2232   1.631   2.369   9.738  0.9859  0.5505 -0.2888
   17SAPC   H7X 2233   1.544   2.301   9.744 -0.4821  1.8378 -4.2181
   17SAPC   H7Y 2234   1.724   2.309   9.752  1.0036  0.3162 -1.3810
   17SAPC   C38 2235   1.625   2.447   9.610  0.0799  0.0857  0.5384
   17SAPC   H8X 2236   1.660   2.377   9.531 -0.6013 -1.0957  1.2387
   17SAPC   H8Y 2237   1.701   2.527   9.605 -0.9406  1.2429  2.2754
   17SAPC   C39 2238   1.474   2.492   9.582 -0.4220 -0.1878 -0.5534
   17SAPC   H9X 2239   1.447   2.580   9.644 -2.0459 -0.6434 -0.5862
   17SAPC   H9Y 2240   1.409   2.405   9.603 -0.2308 -0.1319  0.2809
   17SAPC  C310 2241   1.459   2.540   9.435  0.3221  0.0239  0.7284
   17SAPC  H10X 2242   1.473   2.463   9.355  0.0558  0.6315  0.0887
   17SAPC  H10Y 2243   1.535   2.619   9.417  0.8951 -0.6627  0.0419
   17SAPC  C311 2244   1.333   2.613   9.403 -0.1334 -0.0640 -0.1283
   17SAPC  H11X 2245   1.331   2.690   9.483 -0.0268 -0.3789  0.1780
   17SAPC  H11Y 2246   1.244   2.553   9.431 -1.6768  2.4255  0.6050
   17SAPC  C312 2247   1.322   2.684   9.270  0.0642 -0.5092  0.8529
   17SAPC  H12X 2248   1.289   2.625   9.182  0.4206  2.3116 -1.3316
   17SAPC  H12Y 2249   1.426   2.709   9.238  0.0076 -1.7378 -0.4134
   17SAPC  C313 2250   1.235   2.818   9.260  0.0314  0.1129  0.1311
   17SAPC  H13X 2251   1.266   2.877   9.349 -0.3275 -1.1780  1.1424
   17SAPC  H13Y 2252   1.129   2.788   9.272  0.0967 -2.7912 -4.0895
   17SAPC  C314 2253   1.245   2.889   9.129  0.3130  0.9327 -0.4487
   17SAPC  H14X 2254   1.172   2.845   9.059  0.4736  1.7522 -1.1528
   17SAPC  H14Y 2255   1.347   2.866   9.090 -0.3240 -1.7915 -0.6904
   17SAPC  C315 2256   1.220   3.043   9.141  0.6624  0.2562  0.4027
   17SAPC  H15X 2257   1.288   3.087   9.216 -1.3713  0.1658  2.4020
   17SAPC  H15Y 2258   1.113   3.060   9.164  0.5842  2.1847 -1.0754
   17SAPC  C316 2259   1.245   3.105   8.996 -0.3517  0.0170  0.3241
   17SAPC  H16X 2260   1.342   3.073   8.953 -0.5261  0.2759 -0.2837
   17SAPC  H16Y 2261   1.251   3.216   9.009 -0.6172 -0.2939  3.9921
   17SAPC  C317 2262   1.139   3.058   8.892  0.4807 -0.5262 -0.1017
   17SAPC  H17X 2263   1.037   3.072   8.935  0.2318  1.2990 -1.1645
   17SAPC  H17Y 2264   1.163   2.951   8.873  0.2377 -0.4253 -1.0428
   17SAPC  C318 2265   1.138   3.145   8.766 -0.5885 -0.0130  0.1353
   17SAPC  H18X 2266   1.034   3.171   8.738 -1.2540 -0.9790  1.6012
   17SAPC  H18Y 2267   1.175   3.247   8.789 -1.1082  0.2138 -0.0229
   17SAPC  H18Z 2268   1.197   3.103   8.682  2.2181  2.2197  0.8388
   18SAPC     N 2269   5.718   2.001  11.009  0.9017 -0.7562  0.4141
   18SAPC   C12 2270   5.768   1.994  10.864  0.6112  0.1352  0.3699
   18SAPC  H12A 2271   5.735   2.073  10.799  0.6588 -0.5047 -0.4434
   18SAPC  H12B 2272   5.734   1.902  10.818 -1.7067  0.7016  0.8646
   18SAPC   C13 2273   5.568   2.031  11.002 -0.0764 -0.1403 -0.1845
   18SAPC  H13A 2274   5.504   1.962  10.949 -2.0221  1.5121 -0.1097
   18SAPC  H13B 2275   5.541   2.041  11.106  3.6601  3.3416  0.7292
   18SAPC  H13C 2276   5.551   2.122  10.946  1.3201 -0.8123 -1.8102
   18SAPC   C14 2277   5.713   1.861  11.069 -0.1698  0.4355  0.3012
   18SAPC  H14A 2278   5.678   1.784  11.001  0.1977  0.7988 -0.3101
   18SAPC  H14B 2279   5.812   1.826  11.095  0.5446  0.6429 -1.8748
   18SAPC  H14C 2280   5.647   1.860  11.154  0.5463 -0.6680  0.8696
   18SAPC   C15 2281   5.786   2.101  11.095  0.0971  0.7072  0.1868
   18SAPC  H15A 2282   5.892   2.083  11.100 -0.1886 -1.5861 -0.5645
   18SAPC  H15B 2283   5.780   2.193  11.040 -1.7131 -1.2755 -3.2744
   18SAPC  H15C 2284   5.745   2.113  11.194 -1.4031 -0.8941 -0.1795
   18SAPC   C11 2285   5.924   1.973  10.854 -0.9865 -0.9584  0.0197
   18SAPC  H11A 2286   5.953   1.897  10.929 -0.7414 -0.4686  0.4313
   18SAPC  H11B 2287   5.968   2.065  10.899 -2.4151 -0.3990  0.3555
   18SAPC     P 2288   6.001   2.052  10.633 -0.0721 -0.0004  0.3350
   18SAPC   O13 2289   5.926   2.172  10.669  0.6082  0.2756 -0.0740
   18SAPC   O14 2290   6.145   2.057  10.627  0.5026  0.7755 -0.2883
   18SAPC   O12 2291   5.964   1.934  10.727 -0.2493  0.0403 -0.1530
   18SAPC   O11 2292   5.951   2.006  10.489 -0.0266 -0.3095 -0.2318
   18SAPC    C1 2293   5.973   1.869  10.458  0.5854  0.2815 -0.1610
   18SAPC    HA 2294   6.066   1.860  10.396  0.6450 -0.7518  0.0599
   18SAPC    HB 2295   5.994   1.798  10.541  2.4676 -0.6199 -1.3222
   18SAPC    C2 2296   5.853   1.807  10.375 -0.2830  0.3850  0.2306
   18SAPC    HS 2297   5.911   1.723  10.330  0.1204  2.3610 -3.3020
   18SAPC   O21 2298   5.814   1.898  10.268  0.3204  0.0873 -0.6453
   18SAPC   C21 2299   5.916   1.939  10.189 -0.0660 -0.1286  0.2735
   18SAPC   O22 2300   6.031   1.896  10.178  0.0230 -0.2253  0.6193
   18SAPC   C22 2301   5.856   2.057  10.101  0.0347 -0.0532  0.0371
   18SAPC   H2R 2302   5.746   2.044  10.100  0.1787 -1.5067  0.3778
   18SAPC   H2S 2303   5.868   2.151  10.160  1.2315 -0.7244  0.9197
   18SAPC    C3 2304   5.738   1.756  10.466 -0.1775  0.3579  0.4306
   18SAPC    HX 2305   5.696   1.839  10.528 -1.0036 -0.4853  1.0297
   18SAPC    HY 2306   5.785   1.688  10.540 -0.1226  0.0024  0.0709
   18SAPC   O31 2307   5.644   1.679  10.385  0.1372 -0.3836 -0.5472
   18SAPC   C31 2308   5.548   1.755  10.327  0.9290 -0.0305 -0.6048
   18SAPC   O32 2309   5.529   1.871  10.343 -0.2080 -0.2467  0.2435
   18SAPC   C32 2310   5.458   1.663  10.240  0.1247 -0.5549  0.3505
   18SAPC   H2X 2311   5.373   1.734  10.229  0.2374 -0.3922  0.5158
   18SAPC   H2Y 2312   5.439   1.571  10.298 -1.5835 -0.7536 -0.4698
   18SAPC   C23 2313   5.929   2.056   9.959  0.4179  0.0021  0.4818
   18SAPC   H3R 2314   5.902   1.956   9.920  1.0011 -0.6610  1.7314
   18SAPC   H3S 2315   6.038   2.066   9.977 -0.0050  1.4821  2.5786
   18SAPC   C24 2316   5.872   2.157   9.863  0.5905 -0.7696 -0.6006
   18SAPC   H4R 2317   5.894   2.251   9.919 -2.0794  0.1550 -0.9529
   18SAPC   H4S 2318   5.762   2.139   9.866  0.7417 -1.6371  1.5821
   18SAPC   C25 2319   5.921   2.153   9.721 -0.5771 -0.3976 -0.4925
   18SAPC   H5R 2320   5.984   2.067   9.691 -0.0393 -0.6111  1.1227
   18SAPC   C26 2321   5.885   2.244   9.629 -0.2998 -1.0530  0.4205
   18SAPC   H6R 2322   5.932   2.241   9.530 -0.6109 -0.6933  0.2628
   18SAPC   C27 2323   5.791   2.366   9.653 -0.7764 -0.3453  0.2276
   18SAPC   H7R 2324   5.848   2.444   9.708  1.9084 -0.5910 -1.9577
   18SAPC   H7S 2325   5.710   2.341   9.725 -0.8078  1.1778  0.7645
   18SAPC   C28 2326   5.726   2.447   9.544  0.2792  0.3923  0.5985
   18SAPC   H8R 2327   5.616   2.453   9.545  0.1971  0.3007 -1.9145
   18SAPC   C29 2328   5.780   2.497   9.430  0.1066 -0.6967 -0.3397
   18SAPC   H9R 2329   5.721   2.553   9.356  3.3363  0.3434 -2.3443
   18SAPC  C210 2330   5.925   2.514   9.397  0.4762  0.8452 -0.2692
   18SAPC  H10R 2331   5.951   2.452   9.308  0.3129 -1.3902  1.1558
   18SAPC  H10S 2332   5.987   2.468   9.478  2.6245 -0.3283 -2.4455
   18SAPC  C211 2333   5.971   2.652   9.372  0.1087 -0.8196 -0.3666
   18SAPC  H11R 2334   6.013   2.711   9.456 -2.0378  1.6398 -0.8693
   18SAPC  C212 2335   5.978   2.727   9.253 -0.2603 -0.6408 -0.7195
   18SAPC  H12R 2336   6.013   2.831   9.247  0.2474 -0.7961 -0.4943
   18SAPC  C213 2337   5.921   2.683   9.117 -0.2415 -0.1447 -0.9723
   18SAPC  H13R 2338   5.850   2.767   9.104 -0.0010  0.2950  0.4129
   18SAPC  H13S 2339   5.872   2.586   9.139  0.5172 -0.0906  1.1900
   18SAPC  C214 2340   6.032   2.667   9.012 -0.0073 -0.3076 -0.8795
   18SAPC  H14R 2341   6.124   2.612   9.039 -0.9083 -1.1848  0.5500
   18SAPC  C215 2342   6.020   2.684   8.878 -0.2839  0.5267 -0.3158
   18SAPC  H15R 2343   6.103   2.661   8.809 -0.5430  2.2979 -1.2708
   18SAPC  C216 2344   5.891   2.733   8.820 -0.2365 -0.1543  0.3761
   18SAPC  H16R 2345   5.911   2.778   8.721  0.9535 -2.9797 -0.7768
   18SAPC  H16S 2346   5.830   2.796   8.888 -1.4176 -1.7119  0.8201
   18SAPC  C217 2347   5.806   2.617   8.784 -0.4107  0.3439  0.2006
   18SAPC  H17R 2348   5.783   2.555   8.873 -0.5465  1.2666  0.8183
   18SAPC  H17S 2349   5.852   2.545   8.712 -1.5980  0.7147 -0.9766
   18SAPC  C218 2350   5.669   2.675   8.731  0.9279 -0.3269  0.2985
   18SAPC  H18R 2351   5.691   2.722   8.633 -0.3256  0.2350  0.2697
   18SAPC  H18S 2352   5.633   2.754   8.802 -1.8644 -0.6365 -0.6469
   18SAPC  C219 2353   5.555   2.574   8.702  0.2314 -0.3503 -0.5416
   18SAPC  H19R 2354   5.504   2.529   8.790  0.9507 -1.2744 -0.5796
   18SAPC  H19S 2355   5.612   2.497   8.645 -1.4915 -2.1805  0.1173
   18SAPC  C220 2356   5.445   2.629   8.610 -0.3999 -0.2679 -0.1337
   18SAPC  H20R 2357   5.391   2.716   8.653  1.6943  0.5484  0.9477
   18SAPC  H20S 2358   5.370   2.549   8.592  0.5230 -0.9175 -1.1968
   18SAPC  H20T 2359   5.479   2.658   8.508 -3.1876  0.3477 -1.0006
   18SAPC   C33 2360   5.519   1.633  10.102 -0.8420 -0.5525  0.4874
   18SAPC   H3X 2361   5.442   1.574  10.046 -0.5198 -0.9182  0.4267
   18SAPC   H3Y 2362   5.611   1.572  10.115 -0.0086  0.6218  0.2857
   18SAPC   C34 2363   5.548   1.757  10.015  1.3267  0.1035 -0.2914
   18SAPC   H4X 2364   5.608   1.829  10.074  1.7752  1.3976 -2.2258
   18SAPC   H4Y 2365   5.447   1.797   9.993  0.7223 -1.9270 -1.3752
   18SAPC   C35 2366   5.626   1.712   9.892  0.4103 -0.1946  0.1016
   18SAPC   H5X 2367   5.554   1.647   9.838 -0.9613  2.2754 -1.2446
   18SAPC   H5Y 2368   5.713   1.646   9.913  1.7239  0.9579 -1.4747
   18SAPC   C36 2369   5.661   1.810   9.785 -0.2653 -0.4044  0.8149
   18SAPC   H6X 2370   5.726   1.895   9.816 -0.1943  0.2067 -0.9220
   18SAPC   H6Y 2371   5.561   1.856   9.767  0.3005  1.0882  1.3037
   18SAPC   C37 2372   5.702   1.736   9.652  1.0663 -0.7312 -0.0806
   18SAPC   H7X 2373   5.628   1.663   9.615  0.1789  1.6400 -3.4853
   18SAPC   H7Y 2374   5.803   1.694   9.673  1.4561  0.7102  1.1264
   18SAPC   C38 2375   5.714   1.835   9.537 -0.3507 -0.3404 -0.0794
   18SAPC   H8X 2376   5.719   1.940   9.573 -0.3805 -0.4555  0.2633
   18SAPC   H8Y 2377   5.614   1.831   9.487  0.6662 -0.8866 -2.1766
   18SAPC   C39 2378   5.816   1.791   9.438  0.4631  0.3622 -0.0484
   18SAPC   H9X 2379   5.794   1.694   9.388  1.4014 -1.2263  2.4070
   18SAPC   H9Y 2380   5.913   1.773   9.488  0.0624  0.4434  0.7736
   18SAPC  C310 2381   5.837   1.906   9.326 -0.1345  0.5793 -0.5634
   18SAPC  H10X 2382   5.740   1.959   9.330 -0.0337  0.7647 -0.5390
   18SAPC  H10Y 2383   5.849   1.860   9.225  0.1812 -2.7826  0.8918
   18SAPC  C311 2384   5.948   2.001   9.366  0.1256 -0.3512  0.9323
   18SAPC  H11X 2385   6.052   1.963   9.359  0.6579  0.9357  1.4621
   18SAPC  H11Y 2386   5.930   2.015   9.475 -1.9888  0.1068  0.5544
   18SAPC  C312 2387   5.948   2.128   9.285  0.0750  0.8540  0.0660
   18SAPC  H12X 2388   6.026   2.196   9.322 -0.3166  1.0365  0.5696
   18SAPC  H12Y 2389   5.852   2.176   9.314 -0.1731 -0.3783  1.3792
   18SAPC  C313 2390   5.949   2.102   9.134  0.7316 -0.0995  0.1056
   18SAPC  H13X 2391   5.849   2.071   9.098  1.4382 -2.2425 -0.1460
   18SAPC  H13Y 2392   6.020   2.017   9.123 -0.0946 -0.9186  1.0081
   18SAPC  C314 2393   6.000   2.217   9.045  0.0400 -0.0533  0.4332
   18SAPC  H14X 2394   6.103   2.228   9.084  0.5242  1.4003 -1.1223
   18SAPC  H14Y 2395   5.935   2.305   9.058 -1.0724 -1.1476  2.7092
   18SAPC  C315 2396   6.017   2.170   8.900  0.4900  0.1444  0.2167
   18SAPC  H15X 2397   5.925   2.115   8.873 -0.1607  0.9897  0.6583
   18SAPC  H15Y 2398   6.090   2.088   8.887  1.6161  1.2922 -1.0820
   18SAPC  C316 2399   6.046   2.283   8.802  0.2231 -0.2372  0.2140
   18SAPC  H16X 2400   6.150   2.321   8.798 -0.3385  1.2019 -2.3106
   18SAPC  H16Y 2401   5.983   2.372   8.823 -1.3616 -1.5404  1.2348
   18SAPC  C317 2402   5.998   2.231   8.661  0.0141  0.0214  0.0810
   18SAPC  H17X 2403   5.887   2.230   8.659 -0.0102  0.2919 -2.3062
   18SAPC  H17Y 2404   6.029   2.125   8.648  0.4155  0.0008  1.1262
   18SAPC  C318 2405   6.042   2.320   8.545  0.4720 -0.2973 -0.4951
   18SAPC  H18X 2406   5.986   2.294   8.453 -1.3265  1.3740  0.0462
   18SAPC  H18Y 2407   6.151   2.322   8.526  0.8576 -0.7309  1.4052
   18SAPC  H18Z 2408   6.009   2.423   8.567 -3.1229 -1.1870 -1.1184
   19SAPC     N 2409   5.488   4.111  10.895  0.4015  0.6213 -0.2081
   19SAPC   C12 2410   5.508   3.983  10.978  0.5857 -1.0134  0.2824
   19SAPC  H12A 2411   5.417   3.926  10.981 -0.5247  0.6289 -0.6784
   19SAPC  H12B 2412   5.522   4.011  11.081  1.5609  1.6256 -0.4649
   19SAPC   C13 2413   5.584   4.214  10.942  0.3889 -0.0843 -0.0177
   19SAPC  H13A 2414   5.557   4.263  11.035  4.9222  0.6877  1.1363
   19SAPC  H13B 2415   5.686   4.180  10.950  0.6918  1.1715  2.3256
   19SAPC  H13C 2416   5.584   4.298  10.874 -2.6732  0.4161  0.4509
   19SAPC   C14 2417   5.521   4.086  10.748  0.4793  0.2114  0.1949
   19SAPC  H14A 2418   5.451   4.010  10.713  1.4285  0.5436 -2.6658
   19SAPC  H14B 2419   5.506   4.178  10.694 -2.0971  0.3926  1.0579
   19SAPC  H14C 2420   5.618   4.043  10.727  0.8093  1.3762 -0.7757
   19SAPC   C15 2421   5.344   4.156  10.889  0.4356 -0.0365  0.0314
   19SAPC  H15A 2422   5.306   4.155  10.990  2.2922 -0.0702  0.7601
   19SAPC  H15B 2423   5.333   4.252  10.840  1.0159 -0.6441 -1.3473
   19SAPC  H15C 2424   5.282   4.080  10.844  0.1530 -0.4000  1.0124
   19SAPC   C11 2425   5.616   3.884  10.919 -0.8955 -0.1750  0.4576
   19SAPC  H11A 2426   5.638   3.812  11.000  2.7606 -0.7580 -0.8619
   19SAPC  H11B 2427   5.711   3.937  10.896  0.5578 -2.7378  0.1326
   19SAPC     P 2428   5.436   3.733  10.810 -0.5435 -0.2677 -0.1292
   19SAPC   O13 2429   5.405   3.707  10.955 -0.4557  0.3995 -0.1612
   19SAPC   O14 2430   5.320   3.796  10.746 -0.2107 -0.3876 -0.2246
   19SAPC   O12 2431   5.559   3.827  10.800  0.7490  0.7085 -0.3962
   19SAPC   O11 2432   5.472   3.607  10.738 -0.5829 -0.2324  0.4136
   19SAPC    C1 2433   5.581   3.607  10.640  0.5460 -0.2440 -0.9606
   19SAPC    HA 2434   5.670   3.665  10.671  1.0713 -2.2191  1.5691
   19SAPC    HB 2435   5.617   3.502  10.633  1.5123 -0.1936  1.9290
   19SAPC    C2 2436   5.540   3.646  10.495 -0.0164 -0.1972  1.1988
   19SAPC    HS 2437   5.517   3.753  10.510 -0.2719 -0.0525 -0.0880
   19SAPC   O21 2438   5.429   3.568  10.454 -0.7039 -0.1783  0.4055
   19SAPC   C21 2439   5.321   3.630  10.407  0.0987 -0.6602  0.6576
   19SAPC   O22 2440   5.304   3.750  10.402 -0.3100 -0.4048  0.3482
   19SAPC   C22 2441   5.230   3.532  10.336  0.4236 -0.3860 -0.3612
   19SAPC   H2R 2442   5.287   3.484  10.253 -0.3445 -1.7136 -0.1452
   19SAPC   H2S 2443   5.198   3.455  10.409 -0.0526 -0.9814 -1.1736
   19SAPC    C3 2444   5.652   3.624  10.387  0.1774  0.1149 -0.2318
   19SAPC    HX 2445   5.604   3.660  10.294  2.0406  1.0928 -0.8751
   19SAPC    HY 2446   5.677   3.516  10.384  0.2805  0.0813  1.0610
   19SAPC   O31 2447   5.774   3.691  10.425 -0.5241  0.2403 -0.0586
   19SAPC   C31 2448   5.775   3.817  10.411  0.5114  0.1081  0.2481
   19SAPC   O32 2449   5.674   3.881  10.369  0.2669 -0.4624 -0.0869
   19SAPC   C32 2450   5.919   3.859  10.442  1.1537 -0.2089 -0.7352
   19SAPC   H2X 2451   5.985   3.778  10.404 -0.2918 -1.3688 -0.8588
   19SAPC   H2Y 2452   5.923   3.859  10.553 -3.1685 -4.7839 -0.2220
   19SAPC   C23 2453   5.108   3.601  10.275  0.4268  0.5006 -0.5522
   19SAPC   H3R 2454   5.138   3.672  10.195 -0.3837  1.8765  0.3158
   19SAPC   H3S 2455   5.058   3.670  10.347  1.9895  2.6447 -1.3906
   19SAPC   C24 2456   5.015   3.494  10.224 -0.0058  0.3140  0.1033
   19SAPC   H4R 2457   4.989   3.423  10.305 -2.3851  3.0071  1.9054
   19SAPC   H4S 2458   5.064   3.432  10.146 -0.8413 -2.6659  1.7726
   19SAPC   C25 2459   4.880   3.556  10.189 -0.3213  0.6519 -0.0061
   19SAPC   H5R 2460   4.833   3.615  10.270 -3.9317  0.3302 -1.6656
   19SAPC   C26 2461   4.806   3.523  10.080  0.6825  0.5925  0.1055
   19SAPC   H6R 2462   4.707   3.571  10.081 -0.7099 -2.0688  0.8788
   19SAPC   C27 2463   4.837   3.422   9.971  0.2133 -0.0364 -0.0877
   19SAPC   H7R 2464   4.745   3.364   9.948 -0.0238 -0.4841  1.7640
   19SAPC   H7S 2465   4.894   3.335  10.009 -0.3816 -1.1461 -1.6325
   19SAPC   C28 2466   4.920   3.471   9.856 -0.0194 -0.0325 -0.1361
   19SAPC   H8R 2467   5.027   3.488   9.878  0.3549  3.3658 -3.5355
   19SAPC   C29 2468   4.865   3.500   9.733 -0.1599 -0.9643  0.4281
   19SAPC   H9R 2469   4.930   3.542   9.655 -0.5677  1.0242  1.0823
   19SAPC  C210 2470   4.722   3.480   9.699 -0.5142 -0.2128  0.1502
   19SAPC  H10R 2471   4.681   3.577   9.663  1.2056  0.6374  0.3673
   19SAPC  H10S 2472   4.663   3.459   9.790 -0.9581  0.6233  0.0624
   19SAPC  C211 2473   4.712   3.370   9.601  0.1482  0.1719  1.0216
   19SAPC  H11R 2474   4.722   3.268   9.643 -0.0784 -0.0159  0.6297
   19SAPC  C212 2475   4.687   3.376   9.467 -0.1006 -0.1263  0.2701
   19SAPC  H12R 2476   4.676   3.289   9.402 -1.9324  0.6784 -0.5820
   19SAPC  C213 2477   4.669   3.501   9.379  0.3744  0.0084  0.4574
   19SAPC  H13R 2478   4.666   3.585   9.452 -1.6609  0.7510 -0.4214
   19SAPC  H13S 2479   4.570   3.493   9.330  1.1816 -0.1162 -1.2432
   19SAPC  C214 2480   4.772   3.531   9.275 -0.2995  0.6704 -0.9333
   19SAPC  H14R 2481   4.868   3.476   9.276 -0.6708  0.0025  0.6975
   19SAPC  C215 2482   4.743   3.620   9.180  0.1515 -0.3910 -0.5402
   19SAPC  H15R 2483   4.826   3.646   9.113  3.1434 -1.2499  2.5423
   19SAPC  C216 2484   4.615   3.708   9.165  0.3098  0.2092  0.4450
   19SAPC  H16R 2485   4.656   3.808   9.139 -1.1881  0.3162 -1.8698
   19SAPC  H16S 2486   4.571   3.726   9.265 -1.9606  0.0707 -0.4793
   19SAPC  C217 2487   4.513   3.648   9.075 -0.9074  1.1147 -0.0355
   19SAPC  H17R 2488   4.425   3.713   9.093 -1.7523 -0.3911  1.5385
   19SAPC  H17S 2489   4.481   3.546   9.104  2.5865 -0.1261 -0.0425
   19SAPC  C218 2490   4.549   3.640   8.925  0.3811 -0.7577  0.1032
   19SAPC  H18R 2491   4.642   3.579   8.920  1.6915  1.0364  1.4508
   19SAPC  H18S 2492   4.564   3.742   8.883  2.2261 -0.4362  1.4048
   19SAPC  C219 2493   4.433   3.586   8.839 -0.4894  0.6745  0.2899
   19SAPC  H19R 2494   4.418   3.480   8.867  0.5950  0.4245 -0.0067
   19SAPC  H19S 2495   4.473   3.583   8.735 -1.7963  2.0788 -0.2945
   19SAPC  C220 2496   4.304   3.663   8.830  0.2914  0.4919 -0.2240
   19SAPC  H20R 2497   4.329   3.765   8.795 -0.0642 -0.1409 -2.4207
   19SAPC  H20S 2498   4.248   3.657   8.926 -1.1910 -1.3331 -1.1316
   19SAPC  H20T 2499   4.239   3.618   8.752 -0.4603  0.4863  0.3922
   19SAPC   C33 2500   5.963   3.995  10.382 -0.2993 -0.4982  0.3909
   19SAPC   H3X 2501   6.048   4.025  10.448 -1.3603  3.8301  0.1265
   19SAPC   H3Y 2502   5.882   4.069  10.398 -1.6530 -2.0349  0.9156
   19SAPC   C34 2503   5.999   3.981  10.233  0.1834 -0.8112 -0.7062
   19SAPC   H4X 2504   5.911   3.939  10.179 -0.6986  0.3799 -0.2672
   19SAPC   H4Y 2505   6.088   3.919  10.213 -0.3532 -1.4560 -1.1330
   19SAPC   C35 2506   6.029   4.122  10.172  0.1904 -0.2604  0.2996
   19SAPC   H5X 2507   6.079   4.192  10.243 -1.3890  0.3307  0.8683
   19SAPC   H5Y 2508   5.936   4.176  10.144  0.2677 -0.3379 -0.1084
   19SAPC   C36 2509   6.119   4.108  10.049  0.1261 -0.7018 -0.0980
   19SAPC   H6X 2510   6.200   4.039  10.083  0.0153 -0.7761  0.0139
   19SAPC   H6Y 2511   6.158   4.211  10.038  0.3879 -0.9614 -1.9027
   19SAPC   C37 2512   6.056   4.054   9.919  0.2241  0.1464  0.4392
   19SAPC   H7X 2513   5.950   4.086   9.911 -0.2958 -1.4463  0.5704
   19SAPC   H7Y 2514   6.052   3.943   9.920 -1.9865  0.1838  1.1275
   19SAPC   C38 2515   6.145   4.101   9.795  0.3261  0.0484 -0.6200
   19SAPC   H8X 2516   6.243   4.060   9.827 -0.7076 -1.9522  0.1087
   19SAPC   H8Y 2517   6.144   4.211   9.777  0.9000  0.3936  1.1817
   19SAPC   C39 2518   6.107   4.039   9.660  1.1367  0.3981  0.4999
   19SAPC   H9X 2519   6.114   3.928   9.662  0.0886  0.2853 -1.0025
   19SAPC   H9Y 2520   6.174   4.074   9.579  0.2146 -1.3662 -1.0954
   19SAPC  C310 2521   5.960   4.060   9.609  0.7206 -0.2833 -0.5805
   19SAPC  H10X 2522   5.938   4.169   9.612 -1.4659 -0.6901  0.9148
   19SAPC  H10Y 2523   5.890   4.005   9.675  2.6627 -1.7164  0.3671
   19SAPC  C311 2524   5.936   4.004   9.469  0.4827 -0.2238  0.2849
   19SAPC  H11X 2525   5.833   4.028   9.437 -0.2395 -0.9886  1.9170
   19SAPC  H11Y 2526   5.934   3.893   9.463 -0.4239 -0.1547 -1.2795
   19SAPC  C312 2527   6.040   4.059   9.367  0.1550 -0.5751  0.5069
   19SAPC  H12X 2528   6.139   4.014   9.392  1.6924  3.3393  2.3365
   19SAPC  H12Y 2529   6.041   4.170   9.377 -2.8781 -0.3878 -0.3793
   19SAPC  C313 2530   6.009   4.005   9.225 -0.0075 -0.5404 -0.0941
   19SAPC  H13X 2531   5.916   4.043   9.176 -0.1528 -3.0891 -2.0405
   19SAPC  H13Y 2532   5.994   3.895   9.231 -2.9747 -0.2263 -0.1524
   19SAPC  C314 2533   6.135   4.023   9.130  0.2068 -0.4356  0.7031
   19SAPC  H14X 2534   6.216   3.963   9.177  1.0380 -2.7210 -3.2452
   19SAPC  H14Y 2535   6.163   4.131   9.135  0.6788 -0.5902  1.8569
   19SAPC  C315 2536   6.119   3.967   8.986 -0.3938 -0.8374 -0.3606
   19SAPC  H15X 2537   6.024   4.005   8.942  1.2273  2.6217 -1.2123
   19SAPC  H15Y 2538   6.112   3.856   8.987  1.5275 -1.0154 -1.7268
   19SAPC  C316 2539   6.227   4.014   8.883 -0.3548  0.8001 -0.7519
   19SAPC  H16X 2540   6.199   3.973   8.784 -0.3060 -0.0280 -0.4283
   19SAPC  H16Y 2541   6.321   3.959   8.905 -0.9244  0.7637  1.8984
   19SAPC  C317 2542   6.236   4.161   8.852  0.2563 -0.1893  0.0797
   19SAPC  H17X 2543   6.293   4.214   8.931 -1.3490  1.3096  0.2984
   19SAPC  H17Y 2544   6.130   4.195   8.847 -0.1175 -1.4149 -1.1360
   19SAPC  C318 2545   6.308   4.188   8.722 -0.2695  0.5272  0.0157
   19SAPC  H18X 2546   6.414   4.155   8.722  0.1729  1.8852 -0.2147
   19SAPC  H18Y 2547   6.300   4.297   8.707 -0.3723  0.4741 -0.3074
   19SAPC  H18Z 2548   6.249   4.129   8.650  1.1774 -0.6958 -0.2256
   20SAPC     N 2549   6.725   5.339  11.143 -0.7424  0.2711  0.0640
   20SAPC   C12 2550   6.687   5.404  11.019 -0.3167 -0.2229 -0.0165
   20SAPC  H12A 2551   6.643   5.500  11.043  0.8346  0.2357  0.2833
   20SAPC  H12B 2552   6.609   5.340  10.979  1.0434 -1.6750 -0.4255
   20SAPC   C13 2553   6.625   5.332  11.245  0.9698  0.1575  0.1142
   20SAPC  H13A 2554   6.572   5.426  11.249 -1.6930 -1.2539  0.4833
   20SAPC  H13B 2555   6.552   5.255  11.224 -0.0301  0.2933  2.6960
   20SAPC  H13C 2556   6.653   5.303  11.345 -0.9667 -1.0077  0.3737
   20SAPC   C14 2557   6.774   5.194  11.114  0.6530  0.3280 -0.0918
   20SAPC  H14A 2558   6.797   5.171  11.011 -1.0224  3.0423 -1.1760
   20SAPC  H14B 2559   6.855   5.168  11.180  0.2519  1.0276  0.7017
   20SAPC  H14C 2560   6.695   5.127  11.143  0.7460 -0.0078 -0.6088
   20SAPC   C15 2561   6.853   5.394  11.199 -0.4344 -0.6978  0.3216
   20SAPC  H15A 2562   6.930   5.410  11.125 -0.1898  1.4527  0.9897
   20SAPC  H15B 2563   6.832   5.487  11.249  2.8232  0.0810  0.4929
   20SAPC  H15C 2564   6.888   5.321  11.271 -0.9879 -1.4985 -0.1923
   20SAPC   C11 2565   6.775   5.414  10.891  0.6362 -0.0163  0.0959
   20SAPC  H11A 2566   6.722   5.472  10.812 -0.8725 -2.3464 -0.7178
   20SAPC  H11B 2567   6.782   5.314  10.843  1.8295  0.0951  0.0141
   20SAPC     P 2568   6.949   5.610  10.909 -0.0551 -0.0114 -0.1098
   20SAPC   O13 2569   6.869   5.694  11.001  0.1187  0.4177 -0.3825
   20SAPC   O14 2570   7.096   5.616  10.923 -0.2023  0.2748 -0.2318
   20SAPC   O12 2571   6.907   5.457  10.920 -0.1787 -0.6291  0.2414
   20SAPC   O11 2572   6.898   5.643  10.762 -0.0107  0.4082  0.0348
   20SAPC    C1 2573   6.963   5.589  10.653 -0.1708 -0.0933 -0.8385
   20SAPC    HA 2574   7.014   5.492  10.674 -0.3340  0.5293  3.2258
   20SAPC    HB 2575   6.888   5.575  10.573 -0.6818  0.0595 -0.3874
   20SAPC    C2 2576   7.062   5.686  10.593  0.0843  0.2200 -0.1202
   20SAPC    HS 2577   7.141   5.711  10.667 -0.2093  1.5414 -0.2184
   20SAPC   O21 2578   6.998   5.807  10.545 -0.3300  0.3511 -0.4146
   20SAPC   C21 2579   7.063   5.922  10.548  0.0996  0.4472 -0.0259
   20SAPC   O22 2580   7.175   5.944  10.585 -0.2823 -0.6351 -0.5925
   20SAPC   C22 2581   6.981   6.019  10.465 -0.6544  0.1399 -0.1782
   20SAPC   H2R 2582   6.885   5.967  10.443  0.0339 -1.4094  0.3082
   20SAPC   H2S 2583   6.964   6.118  10.512  1.1549  1.9273 -3.0638
   20SAPC    C3 2584   7.116   5.617  10.463 -0.3145  0.0885 -0.2691
   20SAPC    HX 2585   7.037   5.604  10.385 -0.5279  1.0993 -0.2306
   20SAPC    HY 2586   7.153   5.515  10.488  0.2287  0.3283 -0.0794
   20SAPC   O31 2587   7.228   5.681  10.392 -0.4796  0.1173 -0.4338
   20SAPC   C31 2588   7.348   5.678  10.453  0.1528  0.0014  0.5066
   20SAPC   O32 2589   7.377   5.609  10.552  1.3077  0.0181 -0.2097
   20SAPC   C32 2590   7.447   5.764  10.373 -0.1991 -0.6270 -0.1072
   20SAPC   H2X 2591   7.538   5.769  10.437 -0.3936 -1.2134  0.2247
   20SAPC   H2Y 2592   7.414   5.870  10.369 -0.1616 -0.6307 -0.5191
   20SAPC   C23 2593   7.064   6.080  10.352  0.0890 -0.2573  0.6038
   20SAPC   H3R 2594   7.154   6.141  10.375  0.5410 -0.6204 -0.1799
   20SAPC   H3S 2595   6.994   6.155  10.310  2.8386  0.9655 -2.1745
   20SAPC   C24 2596   7.093   5.981  10.237  0.4223  0.9074  0.2602
   20SAPC   H4R 2597   7.159   5.897  10.267  1.3261  2.0345  1.4965
   20SAPC   H4S 2598   7.159   6.034  10.165  1.3177 -0.9777 -0.3575
   20SAPC   C25 2599   6.963   5.911  10.186 -0.1892 -0.7729  0.4646
   20SAPC   H5R 2600   6.915   5.838  10.252 -1.7974 -0.1481  0.0379
   20SAPC   C26 2601   6.902   5.923  10.061 -0.0335  0.5560 -0.3650
   20SAPC   H6R 2602   6.821   5.852  10.041  0.5336  0.4249 -2.4079
   20SAPC   C27 2603   6.952   6.004   9.947 -0.0323 -0.4924  0.2423
   20SAPC   H7R 2604   6.955   5.954   9.848 -0.7503  3.0606 -1.7793
   20SAPC   H7S 2605   7.058   6.034   9.965  0.4055 -2.5587  1.3769
   20SAPC   C28 2606   6.866   6.130   9.935 -1.1052 -0.5101  0.5045
   20SAPC   H8R 2607   6.890   6.200  10.016  0.6637 -1.0612  0.5101
   20SAPC   C29 2608   6.786   6.155   9.838 -0.6099  0.4813  0.6875
   20SAPC   H9R 2609   6.734   6.252   9.841  0.1011  0.8544  2.9097
   20SAPC  C210 2610   6.754   6.062   9.734 -0.0520 -0.5787  0.1227
   20SAPC  H10R 2611   6.714   5.974   9.789 -1.2708 -1.0909 -1.5086
   20SAPC  H10S 2612   6.839   6.019   9.677 -0.5467 -0.9419 -0.3479
   20SAPC  C211 2613   6.650   6.106   9.638 -0.5174 -0.7231  0.2538
   20SAPC  H11R 2614   6.572   6.170   9.682  0.3888 -0.1637  1.1076
   20SAPC  C212 2615   6.654   6.100   9.509  0.5150 -0.4624  0.2013
   20SAPC  H12R 2616   6.567   6.138   9.453  0.1286 -1.7327 -0.1108
   20SAPC  C213 2617   6.760   6.039   9.418  0.3720 -0.1779 -0.1255
   20SAPC  H13R 2618   6.856   6.034   9.475  0.6710  2.7356 -0.2174
   20SAPC  H13S 2619   6.781   6.112   9.336  0.2986  0.3922  0.3622
   20SAPC  C214 2620   6.720   5.902   9.352  0.3366  0.0145  0.4056
   20SAPC  H14R 2621   6.786   5.816   9.373 -0.2124 -0.6481 -0.5133
   20SAPC  C215 2622   6.610   5.876   9.276  0.3316 -0.0082 -0.7392
   20SAPC  H15R 2623   6.609   5.778   9.226 -1.9781 -0.3011 -0.2178
   20SAPC  C216 2624   6.496   5.966   9.229 -0.2819  0.0304  0.3489
   20SAPC  H16R 2625   6.506   6.069   9.269 -2.1448  0.6363 -0.6171
   20SAPC  H16S 2626   6.395   5.927   9.256 -0.5965  0.5064 -0.1225
   20SAPC  C217 2627   6.502   5.982   9.075  0.2238  0.1134  0.6774
   20SAPC  H17R 2628   6.599   6.029   9.051 -0.6300  1.4735 -0.2609
   20SAPC  H17S 2629   6.435   6.067   9.051  3.6101  2.5548 -0.8444
   20SAPC  C218 2630   6.471   5.865   8.984 -0.6494 -0.0309  0.5813
   20SAPC  H18R 2631   6.555   5.793   8.980  0.2117  0.9761  0.3805
   20SAPC  H18S 2632   6.454   5.900   8.880 -3.1413 -0.3047  0.8281
   20SAPC  C219 2633   6.342   5.783   9.018 -0.0329 -0.4066  0.0063
   20SAPC  H19R 2634   6.370   5.727   9.110  1.2720 -0.8661 -0.6447
   20SAPC  H19S 2635   6.316   5.714   8.934 -0.8324  1.6623 -1.5291
   20SAPC  C220 2636   6.220   5.868   9.043  0.0571  0.0217  0.5798
   20SAPC  H20R 2637   6.134   5.800   9.062  0.1021 -0.0305  0.5947
   20SAPC  H20S 2638   6.199   5.934   8.956  1.1291  1.0941  1.1033
   20SAPC  H20T 2639   6.242   5.931   9.132  1.7214  2.0655 -1.1669
   20SAPC   C33 2640   7.488   5.707  10.232  0.0236  0.3169  0.3278
   20SAPC   H3X 2641   7.537   5.608  10.227  0.9689  0.7836  0.0692
   20SAPC   H3Y 2642   7.567   5.775  10.193  0.8428 -0.6682  0.2364
   20SAPC   C34 2643   7.370   5.721  10.136  0.3742  0.3840  0.6072
   20SAPC   H4X 2644   7.322   5.821  10.139 -1.7149 -0.5755  1.8412
   20SAPC   H4Y 2645   7.285   5.655  10.163 -1.4115  2.3624  0.0765
   20SAPC   C35 2646   7.408   5.707   9.988  0.4860  0.0219  0.4152
   20SAPC   H5X 2647   7.444   5.602   9.979  2.0126  0.6359 -0.9982
   20SAPC   H5Y 2648   7.485   5.780   9.956 -1.4084  1.0888 -2.0057
   20SAPC   C36 2649   7.289   5.713   9.890 -0.8027 -0.2680  0.2721
   20SAPC   H6X 2650   7.242   5.813   9.905  1.6223  1.0296 -0.1994
   20SAPC   H6Y 2651   7.227   5.623   9.904  0.3905 -1.2517 -0.5706
   20SAPC   C37 2652   7.335   5.713   9.739  0.6882 -1.0214  0.0069
   20SAPC   H7X 2653   7.390   5.618   9.726  3.6068  0.5735 -0.0260
   20SAPC   H7Y 2654   7.393   5.807   9.726 -1.8518  1.1106  2.8346
   20SAPC   C38 2655   7.221   5.711   9.635 -0.7866  0.2852 -0.5412
   20SAPC   H8X 2656   7.137   5.779   9.661 -0.0548  0.9347  0.1705
   20SAPC   H8Y 2657   7.188   5.606   9.646  0.0574 -0.0293 -0.9324
   20SAPC   C39 2658   7.267   5.728   9.497  0.3738 -0.1850 -0.1520
   20SAPC   H9X 2659   7.335   5.645   9.467  1.1151  1.1907 -2.6285
   20SAPC   H9Y 2660   7.334   5.816   9.483  0.6330 -0.5001 -1.0314
   20SAPC  C310 2661   7.142   5.708   9.401 -0.2298 -1.1423 -0.2245
   20SAPC  H10X 2662   7.058   5.776   9.424  0.1515 -1.2110  1.5132
   20SAPC  H10Y 2663   7.096   5.610   9.426 -1.8775 -0.8156 -1.7734
   20SAPC  C311 2664   7.195   5.733   9.260  0.4311 -0.2261 -0.2362
   20SAPC  H11X 2665   7.288   5.677   9.240  1.2313  1.3974 -1.3018
   20SAPC  H11Y 2666   7.228   5.839   9.258  1.5700 -0.5384 -3.5627
   20SAPC  C312 2667   7.090   5.715   9.148 -0.6249  0.3697 -0.4079
   20SAPC  H12X 2668   6.984   5.742   9.170 -0.0477  0.4573  2.6066
   20SAPC  H12Y 2669   7.089   5.605   9.140  1.3279  0.3484 -0.8961
   20SAPC  C313 2670   7.128   5.774   9.011 -0.1388  0.9569 -0.4015
   20SAPC  H13X 2671   7.105   5.883   9.015  0.2692  1.0239  0.1205
   20SAPC  H13Y 2672   7.058   5.741   8.931 -1.2693  3.5502 -0.5741
   20SAPC  C314 2673   7.276   5.740   8.966  0.4509 -0.0112 -0.2657
   20SAPC  H14X 2674   7.315   5.643   9.004  1.6789  0.3158 -0.6502
   20SAPC  H14Y 2675   7.322   5.821   9.026 -2.9801 -0.5483  3.4977
   20SAPC  C315 2676   7.291   5.762   8.806  0.0319 -0.2697 -0.3553
   20SAPC  H15X 2677   7.240   5.672   8.766 -0.7825  0.7414 -1.6929
   20SAPC  H15Y 2678   7.400   5.761   8.781  0.0927 -3.4579 -0.2441
   20SAPC  C316 2679   7.216   5.883   8.747 -0.1351  0.6823 -0.3099
   20SAPC  H16X 2680   7.215   5.961   8.827  0.1932  0.5694 -0.1916
   20SAPC  H16Y 2681   7.109   5.858   8.738  0.3044 -1.1535 -0.7780
   20SAPC  C317 2682   7.270   5.930   8.609  0.6807  0.0097 -0.4203
   20SAPC  H17X 2683   7.304   5.838   8.555 -3.5469 -1.9022 -0.1845
   20SAPC  H17Y 2684   7.363   5.987   8.629  2.2628 -1.4366 -2.9737
   20SAPC  C318 2685   7.168   6.011   8.526 -0.7296  0.0497  0.0546
   20SAPC  H18X 2686   7.084   5.948   8.489 -0.7704  0.0848  0.0868
   20SAPC  H18Y 2687   7.206   6.063   8.436  1.4694 -0.5953  0.5607
   20SAPC  H18Z 2688   7.127   6.093   8.589 -1.0895  1.0314 -1.4298
   21SAPC     N 2689   0.033   0.586  11.265  0.8853  0.2268  0.5882
   21SAPC   C12 2690  -0.077   0.618  11.168  0.5997 -0.2513 -0.6706
   21SAPC  H12A 2691  -0.103   0.723  11.166 -1.6910 -0.7693 -1.0216
   21SAPC  H12B 2692  -0.160   0.560  11.205  1.9038  0.0300  3.1040
   21SAPC   C13 2693   0.064   0.442  11.262 -0.8063 -0.5113 -0.4962
   21SAPC  H13A 2694  -0.007   0.393  11.327 -1.3038 -0.6203 -1.1124
   21SAPC  H13B 2695   0.063   0.412  11.159 -2.5827 -0.1403 -0.6143
   21SAPC  H13C 2696   0.163   0.424  11.303 -0.8800  2.6962  1.4477
   21SAPC   C14 2697   0.152   0.673  11.234  0.0820 -0.0926  1.0750
   21SAPC  H14A 2698   0.114   0.774  11.232 -3.2895 -1.1925  1.9743
   21SAPC  H14B 2699   0.246   0.655  11.283  0.9428 -0.5265 -0.6636
   21SAPC  H14C 2700   0.175   0.658  11.130  1.9862  0.3624  1.4024
   21SAPC   C15 2701  -0.005   0.618  11.406 -0.2413  0.5471 -0.0565
   21SAPC  H15A 2702  -0.092   0.561  11.433 -0.4321 -0.3475 -2.3457
   21SAPC  H15B 2703   0.073   0.584  11.473 -0.2825 -1.1081 -0.7976
   21SAPC  H15C 2704  -0.027   0.720  11.432  2.4498  1.2421 -0.1834
   21SAPC   C11 2705  -0.054   0.582  11.015 -0.5822  0.0412 -0.3241
   21SAPC  H11A 2706   0.023   0.651  10.975 -0.3155 -0.5330 -0.8198
   21SAPC  H11B 2707  -0.146   0.600  10.956  1.8821  0.1460 -4.4898
   21SAPC     P 2708  -0.114   0.327  10.978 -0.1586 -0.1470  0.2759
   21SAPC   O13 2709  -0.073   0.227  11.078  0.0992  0.6661 -0.4834
   21SAPC   O14 2710  -0.251   0.377  10.990 -0.1378 -0.5026  0.0680
   21SAPC   O12 2711  -0.006   0.445  10.989 -0.1392 -0.4939  0.5829
   21SAPC   O11 2712  -0.097   0.267  10.832  0.5154 -0.0034  0.1776
   21SAPC    C1 2713   0.023   0.287  10.757 -0.2237 -0.1077 -0.4216
   21SAPC    HA 2714   0.109   0.329  10.814  0.5946  2.2954 -3.1599
   21SAPC    HB 2715   0.054   0.187  10.719  0.8553 -0.1346  0.4917
   21SAPC    C2 2716   0.009   0.391  10.643  0.1682 -0.4758  0.0441
   21SAPC    HS 2717  -0.036   0.481  10.690  0.3128  0.3546 -1.3301
   21SAPC   O21 2718  -0.076   0.331  10.541  0.0482  0.4301  0.1366
   21SAPC   C21 2719  -0.144   0.416  10.471  0.2385  0.2112 -0.1830
   21SAPC   O22 2720  -0.148   0.539  10.479  0.6424 -0.0668 -0.5987
   21SAPC   C22 2721  -0.202   0.343  10.355  0.1819 -0.0564 -0.1479
   21SAPC   H2R 2722  -0.215   0.236  10.380 -0.9677  0.3891  1.3016
   21SAPC   H2S 2723  -0.307   0.378  10.344 -0.4684 -2.2489 -1.4150
   21SAPC    C3 2724   0.151   0.432  10.590  0.0309  0.6272  0.2253
   21SAPC    HX 2725   0.201   0.345  10.542  1.9850  1.5501  0.5082
   21SAPC    HY 2726   0.226   0.454  10.669 -1.5613 -0.2002  2.0432
   21SAPC   O31 2727   0.145   0.532  10.489  0.5064 -0.2687 -0.5057
   21SAPC   C31 2728   0.140   0.656  10.533  0.1189  0.5454 -0.1195
   21SAPC   O32 2729   0.138   0.686  10.650 -0.2576  0.2726  0.5192
   21SAPC   C32 2730   0.142   0.744  10.408  0.2142  0.8607 -0.0190
   21SAPC   H2X 2731   0.112   0.846  10.440  1.2769  0.9668  0.7041
   21SAPC   H2Y 2732   0.075   0.708  10.327  2.5946 -0.2523 -1.6093
   21SAPC   C23 2733  -0.124   0.353  10.222 -0.7742 -0.5577 -0.8591
   21SAPC   H3R 2734  -0.019   0.317  10.226 -1.0740 -1.3463  0.3459
   21SAPC   H3S 2735  -0.121   0.461  10.193  0.2185 -0.7019 -1.3421
   21SAPC   C24 2736  -0.191   0.280  10.106  0.5676  0.9965 -0.2483
   21SAPC   H4R 2737  -0.159   0.174  10.105 -1.9548  0.1722 -1.3171
   21SAPC   H4S 2738  -0.148   0.327  10.015  0.6785  4.0672  1.2448
   21SAPC   C25 2739  -0.335   0.297  10.097  0.4327  0.7414 -0.0478
   21SAPC   H5R 2740  -0.393   0.217  10.145  0.6881  0.7783  0.3382
   21SAPC   C26 2741  -0.392   0.406  10.042 -0.1219 -1.1866 -0.5173
   21SAPC   H6R 2742  -0.502   0.405  10.041 -0.2394  1.0347 -2.9802
   21SAPC   C27 2743  -0.330   0.532   9.978  0.3303 -0.2142 -0.2279
   21SAPC   H7R 2744  -0.221   0.516   9.986  0.2431 -0.2474  1.3600
   21SAPC   H7S 2745  -0.361   0.617  10.043 -0.5908 -1.0518  0.4611
   21SAPC   C28 2746  -0.387   0.548   9.840 -0.6907  0.1799 -0.3738
   21SAPC   H8R 2747  -0.454   0.632   9.816 -2.1751 -0.6842  0.6595
   21SAPC   C29 2748  -0.359   0.465   9.743 -0.8121  0.6066  0.3493
   21SAPC   H9R 2749  -0.404   0.494   9.647 -2.4858  0.3988  1.0327
   21SAPC  C210 2750  -0.280   0.342   9.731 -0.2970  0.3887 -0.1349
   21SAPC  H10R 2751  -0.217   0.324   9.820  2.6952 -2.2838 -2.5717
   21SAPC  H10S 2752  -0.204   0.359   9.652  0.2005 -0.3213  0.1860
   21SAPC  C211 2753  -0.354   0.214   9.708 -0.0740 -0.5012 -0.1368
   21SAPC  H11R 2754  -0.423   0.183   9.788  0.6087  1.6460  1.3766
   21SAPC  C212 2755  -0.348   0.146   9.592  0.0376 -0.3002  0.3868
   21SAPC  H12R 2756  -0.414   0.058   9.585  1.1271 -1.6175  4.1954
   21SAPC  C213 2757  -0.272   0.165   9.461  0.6769  0.7901 -0.1217
   21SAPC  H13R 2758  -0.261   0.070   9.406 -0.7046  0.5894 -0.0778
   21SAPC  H13S 2759  -0.164   0.188   9.473  0.7812  0.1959  0.0758
   21SAPC  C214 2760  -0.323   0.288   9.387  0.1848  0.6782 -0.1875
   21SAPC  H14R 2761  -0.353   0.373   9.449  2.1003  0.9300  0.4529
   21SAPC  C215 2762  -0.337   0.292   9.257  0.7000 -0.0824 -0.4786
   21SAPC  H15R 2763  -0.370   0.387   9.212  0.2268  0.4738  0.9977
   21SAPC  C216 2764  -0.305   0.177   9.166 -0.4542  0.2013  0.1435
   21SAPC  H16R 2765  -0.354   0.194   9.067  3.0833  1.5006 -1.5231
   21SAPC  H16S 2766  -0.360   0.092   9.212 -3.2594  2.9025  2.2244
   21SAPC  C217 2767  -0.151   0.156   9.148 -0.3767 -0.2169  0.8148
   21SAPC  H17R 2768  -0.143   0.056   9.101  2.8565  1.2029 -2.0327
   21SAPC  H17S 2769  -0.104   0.165   9.248  1.6437 -0.1334 -0.0989
   21SAPC  C218 2770  -0.072   0.244   9.050 -0.6333 -0.2522 -0.2600
   21SAPC  H18R 2771   0.039   0.233   9.050 -0.6792 -0.7779 -0.9028
   21SAPC  H18S 2772  -0.074   0.353   9.073  1.6587 -0.2098 -0.0779
   21SAPC  C219 2773  -0.113   0.230   8.900 -0.2847  0.4359  0.1490
   21SAPC  H19R 2774  -0.222   0.245   8.881 -0.4273 -1.1039 -0.4373
   21SAPC  H19S 2775  -0.100   0.130   8.853 -2.1991  0.3719 -0.3239
   21SAPC  C220 2776  -0.051   0.336   8.811 -0.2928 -0.2181 -0.3283
   21SAPC  H20R 2777   0.060   0.339   8.822 -0.3972  1.8037  0.5507
   21SAPC  H20S 2778  -0.100   0.434   8.825  0.6552  0.0571  1.3262
   21SAPC  H20T 2779  -0.069   0.308   8.705  2.2842 -1.0196 -0.6467
   21SAPC   C33 2780   0.283   0.760  10.346 -0.3513 -0.2729  0.1871
   21SAPC   H3X 2781   0.358   0.748  10.428 -1.3354 -3.2639  0.7728
   21SAPC   H3Y 2782   0.308   0.861  10.309 -1.5068 -0.5538 -1.4325
   21SAPC   C34 2783   0.325   0.654  10.236  0.3279  0.2627 -0.1835
   21SAPC   H4X 2784   0.314   0.555  10.286 -1.7042 -0.6992 -2.3694
   21SAPC   H4Y 2785   0.424   0.670  10.187 -0.6120  0.0131 -2.2466
   21SAPC   C35 2786   0.230   0.656  10.112 -0.0610  0.5587  0.8321
   21SAPC   H5X 2787   0.228   0.758  10.069  1.7890  0.1426 -0.3634
   21SAPC   H5Y 2788   0.125   0.634  10.139  0.0680 -1.4342 -0.0648
   21SAPC   C36 2789   0.255   0.547  10.004  0.5079  0.0237 -0.7950
   21SAPC   H6X 2790   0.275   0.451  10.057  1.3417 -1.6845 -3.9038
   21SAPC   H6Y 2791   0.350   0.566   9.950  1.3175  1.9993  1.1803
   21SAPC   C37 2792   0.143   0.514   9.905 -1.2083 -0.1605 -0.6797
   21SAPC   H7X 2793   0.049   0.504   9.965  0.2808 -1.0919  1.6450
   21SAPC   H7Y 2794   0.165   0.412   9.867  3.6134  0.1928  0.5567
   21SAPC   C38 2795   0.138   0.618   9.793 -0.6343 -0.1254  0.0142
   21SAPC   H8X 2796   0.234   0.593   9.743 -1.0303  0.0084 -0.8289
   21SAPC   H8Y 2797   0.149   0.721   9.833  0.6554  0.1439 -0.9646
   21SAPC   C39 2798   0.020   0.608   9.697  0.8702  0.6069  0.0473
   21SAPC   H9X 2799  -0.055   0.688   9.714  1.1119  0.8172  0.1331
   21SAPC   H9Y 2800  -0.038   0.514   9.710  1.7454  0.0802  0.2616
   21SAPC  C310 2801   0.065   0.614   9.553 -0.4075  0.0100 -0.2470
   21SAPC  H10X 2802   0.160   0.561   9.536  0.0737  1.4014 -2.2099
   21SAPC  H10Y 2803   0.097   0.719   9.534  1.1792 -0.6081 -1.1109
   21SAPC  C311 2804  -0.037   0.571   9.445  0.2320 -0.1198 -0.2212
   21SAPC  H11X 2805  -0.056   0.465   9.474  1.5138 -0.1815  0.4820
   21SAPC  H11Y 2806   0.017   0.575   9.348 -1.6640  0.4261 -1.2921
   21SAPC  C312 2807  -0.150   0.667   9.439 -0.3710  0.1870  0.2643
   21SAPC  H12X 2808  -0.111   0.771   9.431 -1.4939  0.6075 -0.0379
   21SAPC  H12Y 2809  -0.213   0.655   9.530 -1.2424 -1.9456 -0.5560
   21SAPC  C313 2810  -0.235   0.637   9.312  0.0469  0.3405  0.1597
   21SAPC  H13X 2811  -0.339   0.676   9.316  0.7811  2.6087 -0.6476
   21SAPC  H13Y 2812  -0.250   0.529   9.294  0.6280  0.4439 -1.0510
   21SAPC  C314 2813  -0.170   0.682   9.179 -0.1940  0.5629 -0.1840
   21SAPC  H14X 2814  -0.089   0.609   9.160  0.5011  1.3130 -0.1329
   21SAPC  H14Y 2815  -0.117   0.779   9.191 -0.9909  1.1038 -0.8740
   21SAPC  C315 2816  -0.265   0.709   9.064 -0.1110  0.6100  0.0437
   21SAPC  H15X 2817  -0.342   0.785   9.090  0.6391  2.0633 -1.7425
   21SAPC  H15Y 2818  -0.329   0.620   9.046  1.7838 -0.4680 -1.7972
   21SAPC  C316 2819  -0.200   0.763   8.933 -0.1389  0.0616 -0.0467
   21SAPC  H16X 2820  -0.103   0.714   8.911 -0.3570 -0.5004  0.2086
   21SAPC  H16Y 2821  -0.180   0.871   8.947  2.8917 -0.1955 -1.6912
   21SAPC  C317 2822  -0.288   0.761   8.809  0.0796 -0.8925 -0.0896
   21SAPC  H17X 2823  -0.379   0.822   8.823 -0.6444 -1.5682 -1.5958
   21SAPC  H17Y 2824  -0.312   0.654   8.788  1.0852 -0.9458 -1.1179
   21SAPC  C318 2825  -0.222   0.812   8.685  0.6815  0.3447 -0.3636
   21SAPC  H18X 2826  -0.186   0.916   8.702 -0.2031  0.2598  2.4300
   21SAPC  H18Y 2827  -0.286   0.813   8.594  0.6122  1.2201 -0.3097
   21SAPC  H18Z 2828  -0.133   0.748   8.666  0.3608 -0.0052 -0.7284
   22SAPC     N 2829   1.904   4.355  11.276  0.3189  0.8784 -0.1041
   22SAPC   C12 2830   1.791   4.353  11.172  0.5156 -0.3722  0.3346
   22SAPC  H12A 2831   1.756   4.454  11.158 -2.4260 -0.8340  3.4140
   22SAPC  H12B 2832   1.708   4.299  11.213 -1.1937  0.0120 -2.3522
   22SAPC   C13 2833   1.873   4.447  11.387 -0.0805  0.0761 -0.4123
   22SAPC  H13A 2834   1.792   4.408  11.445 -1.1989 -1.3500 -2.7692
   22SAPC  H13B 2835   1.964   4.460  11.444  0.3229  0.6347 -1.1614
   22SAPC  H13C 2836   1.842   4.545  11.354  1.3820  1.2157  1.4087
   22SAPC   C14 2837   1.923   4.215  11.325  0.2319  0.3600 -0.2924
   22SAPC  H14A 2838   1.849   4.182  11.397 -0.3481 -0.0405 -1.0491
   22SAPC  H14B 2839   1.934   4.140  11.248  1.0133 -0.2865  0.4374
   22SAPC  H14C 2840   2.018   4.221  11.375  0.1933 -0.9937 -0.0198
   22SAPC   C15 2841   2.038   4.389  11.220  0.0863 -0.3304  0.5431
   22SAPC  H15A 2842   2.073   4.325  11.141  0.5227  0.8281 -0.2414
   22SAPC  H15B 2843   2.033   4.493  11.190  0.7911 -0.1232  1.1196
   22SAPC  H15C 2844   2.113   4.379  11.296  1.1533 -1.1804 -0.5762
   22SAPC   C11 2845   1.819   4.304  11.028 -1.3084  0.1531 -0.0523
   22SAPC  H11A 2846   1.722   4.287  10.977 -2.6162  0.9167  2.0586
   22SAPC  H11B 2847   1.863   4.202  11.031  0.6278  0.8953 -1.1138
   22SAPC     P 2848   1.866   4.537  10.917  0.4326  0.5512 -0.2058
   22SAPC   O13 2849   1.782   4.599  11.019  0.6272 -0.2091 -0.2271
   22SAPC   O14 2850   1.973   4.618  10.858 -0.6654  1.1307 -0.2840
   22SAPC   O12 2851   1.910   4.390  10.956  0.2870  0.2849 -0.3592
   22SAPC   O11 2852   1.760   4.497  10.806 -0.1414 -0.3533 -0.2285
   22SAPC    C1 2853   1.796   4.402  10.705 -0.1414  0.4254  0.2318
   22SAPC    HA 2854   1.840   4.308  10.745 -0.3504  1.3339  2.7600
   22SAPC    HB 2855   1.709   4.359  10.652  1.3178 -1.5309 -0.7123
   22SAPC    C2 2856   1.884   4.466  10.595 -0.6659  0.6246  0.3627
   22SAPC    HS 2857   1.975   4.489  10.653  0.2994 -2.0155  0.0021
   22SAPC   O21 2858   1.820   4.587  10.546 -1.0723 -0.5337 -0.7345
   22SAPC   C21 2859   1.908   4.683  10.504 -0.6804 -0.2646  0.1663
   22SAPC   O22 2860   2.033   4.675  10.502 -0.3072  0.0413  0.0765
   22SAPC   C22 2861   1.826   4.808  10.460 -0.3904  0.4633 -0.5375
   22SAPC   H2R 2862   1.793   4.852  10.557  1.7662 -1.3808  1.1596
   22SAPC   H2S 2863   1.900   4.877  10.414  0.2406 -0.5278 -1.0647
   22SAPC    C3 2864   1.918   4.366  10.481  0.2177 -0.7518 -0.7656
   22SAPC    HX 2865   1.822   4.348  10.427  0.0955  0.8910 -1.1633
   22SAPC    HY 2866   1.960   4.277  10.533  3.1421  1.1385  0.3425
   22SAPC   O31 2867   2.003   4.415  10.380 -0.2634  0.2828 -0.2491
   22SAPC   C31 2868   2.133   4.409  10.414  0.1093 -0.0072  0.5550
   22SAPC   O32 2869   2.176   4.364  10.519  0.1334  0.4273  0.1760
   22SAPC   C32 2870   2.226   4.473  10.305  0.5273 -0.2467 -0.3286
   22SAPC   H2X 2871   2.309   4.525  10.357 -0.3049  1.2236 -0.4089
   22SAPC   H2Y 2872   2.169   4.556  10.259 -2.2226 -1.8616 -0.1086
   22SAPC   C23 2873   1.707   4.782  10.370  0.6430 -0.2160 -0.3522
   22SAPC   H3R 2874   1.629   4.861  10.372 -0.1266 -0.7474 -3.7045
   22SAPC   H3S 2875   1.663   4.687  10.409  3.0971 -1.3762 -0.2557
   22SAPC   C24 2876   1.743   4.774  10.219  0.1518 -0.4141  0.1890
   22SAPC   H4R 2877   1.654   4.743  10.160 -0.6498 -0.7630  1.5447
   22SAPC   H4S 2878   1.816   4.691  10.210  0.9801  0.3601 -0.4453
   22SAPC   C25 2879   1.790   4.903  10.161  0.0301  0.0873  0.2342
   22SAPC   H5R 2880   1.713   4.966  10.115 -0.1141 -0.7924 -0.7573
   22SAPC   C26 2881   1.916   4.932  10.133  0.1944  0.9415  0.1628
   22SAPC   H6R 2882   1.932   5.027  10.080 -0.8993  0.4572 -1.1057
   22SAPC   C27 2883   2.032   4.840  10.144  0.4637  0.4730  0.6499
   22SAPC   H7R 2884   2.030   4.774  10.055  1.7827  0.9628  0.2441
   22SAPC   H7S 2885   2.012   4.767  10.226  0.3438 -0.9877 -0.6220
   22SAPC   C28 2886   2.159   4.901  10.181  0.6939  0.1554  0.1240
   22SAPC   H8R 2887   2.190   4.899  10.286 -1.1126  0.3748  0.6900
   22SAPC   C29 2888   2.237   4.975  10.101  0.4502 -0.4018 -1.0023
   22SAPC   H9R 2889   2.331   5.008  10.148 -0.8358  0.0478  1.4195
   22SAPC  C210 2890   2.215   5.008   9.957  0.1953 -0.1045  0.0664
   22SAPC  H10R 2891   2.143   4.931   9.923 -0.5183  0.6330 -0.1238
   22SAPC  H10S 2892   2.312   4.983   9.907  1.0131 -0.1466  1.6039
   22SAPC  C211 2893   2.168   5.151   9.939 -0.1130  0.2631  0.3350
   22SAPC  H11R 2894   2.105   5.183  10.023 -2.5029 -2.8432 -0.0854
   22SAPC  C212 2895   2.177   5.222   9.826  0.1272 -0.2453 -0.5593
   22SAPC  H12R 2896   2.119   5.315   9.832 -0.6042 -0.7885  1.7438
   22SAPC  C213 2897   2.242   5.197   9.694 -0.3197  0.6059 -0.0095
   22SAPC  H13R 2898   2.291   5.097   9.692  0.9032  1.1992 -1.1492
   22SAPC  H13S 2899   2.319   5.274   9.672  0.9951 -0.2211  1.5135
   22SAPC  C214 2900   2.142   5.196   9.579  0.1264 -0.5500 -0.1872
   22SAPC  H14R 2901   2.077   5.284   9.594  0.7252 -0.4745  2.6881
   22SAPC  C215 2902   2.130   5.114   9.472 -0.3526 -0.3012 -0.1798
   22SAPC  H15R 2903   2.053   5.124   9.394 -0.5300  1.0130  0.1507
   22SAPC  C216 2904   2.213   4.992   9.447  0.4136 -0.0779  0.3283
   22SAPC  H16R 2905   2.145   4.905   9.440 -0.0189  0.3096 -0.3691
   22SAPC  H16S 2906   2.284   4.967   9.529  0.5375 -2.2286 -0.3684
   22SAPC  C217 2907   2.295   4.994   9.317  0.6675 -0.4409  0.7075
   22SAPC  H17R 2908   2.232   5.027   9.232  0.9408 -1.5699  0.0564
   22SAPC  H17S 2909   2.322   4.893   9.282  0.8316 -0.6002  1.2794
   22SAPC  C218 2910   2.419   5.079   9.325 -0.0393  0.0965 -0.2063
   22SAPC  H18R 2911   2.498   5.056   9.400 -0.0577  2.4977  0.6299
   22SAPC  H18S 2912   2.377   5.175   9.361 -3.1666 -1.0775 -0.3934
   22SAPC  C219 2913   2.492   5.086   9.187 -0.1326  0.3418  0.3165
   22SAPC  H19R 2914   2.411   5.115   9.117 -1.9618 -0.7300  1.8871
   22SAPC  H19S 2915   2.518   4.982   9.157  1.5199  1.3655 -2.1174
   22SAPC  C220 2916   2.607   5.182   9.173 -0.4156 -0.5000  0.3977
   22SAPC  H20R 2917   2.654   5.160   9.075 -1.1547 -3.2566  0.5755
   22SAPC  H20S 2918   2.678   5.168   9.257 -0.3303  0.5527  0.5097
   22SAPC  H20T 2919   2.575   5.288   9.170  1.1997  0.0018 -0.1718
   22SAPC   C33 2920   2.287   4.373  10.216 -0.0892  0.6345  0.4459
   22SAPC   H3X 2921   2.212   4.314  10.159  1.5860 -2.2269  1.0463
   22SAPC   H3Y 2922   2.345   4.297  10.272  1.1100  0.3127 -1.1513
   22SAPC   C34 2923   2.375   4.441  10.102  1.1391  0.3024  0.2275
   22SAPC   H4X 2924   2.377   4.371  10.016 -4.0554 -0.3138  0.2490
   22SAPC   H4Y 2925   2.473   4.452  10.153  1.3540 -0.9959  0.1261
   22SAPC   C35 2926   2.328   4.568  10.043 -0.9482 -0.5714  0.6912
   22SAPC   H5X 2927   2.404   4.609   9.973 -1.0429  0.1383  0.9936
   22SAPC   H5Y 2928   2.330   4.653  10.115  2.4307  0.0228  0.0446
   22SAPC   C36 2929   2.190   4.557   9.968  0.2165 -0.7243 -0.1027
   22SAPC   H6X 2930   2.166   4.654   9.918 -1.8005 -1.8952 -1.6038
   22SAPC   H6Y 2931   2.121   4.548  10.054 -0.1549  0.1922 -0.2902
   22SAPC   C37 2932   2.166   4.449   9.859 -0.0934 -0.0181  0.3506
   22SAPC   H7X 2933   2.066   4.467   9.813  0.4771  1.3925 -0.3975
   22SAPC   H7Y 2934   2.141   4.353   9.909 -0.7395 -0.4544 -0.7834
   22SAPC   C38 2935   2.269   4.446   9.745 -0.1062 -0.0946 -0.0120
   22SAPC   H8X 2936   2.235   4.359   9.685 -3.1596  1.3185 -0.5245
   22SAPC   H8Y 2937   2.360   4.419   9.802 -1.0701 -0.7269  1.2853
   22SAPC   C39 2938   2.293   4.579   9.666 -0.2345  0.2950  0.2127
   22SAPC   H9X 2939   2.336   4.657   9.732 -0.9058 -0.2557  1.3387
   22SAPC   H9Y 2940   2.201   4.626   9.623  0.2386  1.2500  0.2236
   22SAPC  C310 2941   2.384   4.552   9.547  0.0625  0.0306 -1.0577
   22SAPC  H10X 2942   2.473   4.495   9.581 -1.1748 -1.7050 -0.5940
   22SAPC  H10Y 2943   2.425   4.648   9.509  1.1957 -0.4949 -1.2038
   22SAPC  C311 2944   2.320   4.465   9.435  0.3716 -0.5115 -0.0646
   22SAPC  H11X 2945   2.211   4.489   9.437  0.4282 -0.2356  1.8620
   22SAPC  H11Y 2946   2.335   4.357   9.452 -1.3085 -0.6852  0.4643
   22SAPC  C312 2947   2.388   4.495   9.300  0.0817  0.0286  0.4645
   22SAPC  H12X 2948   2.352   4.593   9.260 -0.5481 -0.6641 -0.7475
   22SAPC  H12Y 2949   2.342   4.424   9.227  0.5032  0.8212 -0.5917
   22SAPC  C313 2950   2.537   4.490   9.309 -0.8024  0.0043  0.0368
   22SAPC  H13X 2951   2.564   4.399   9.368 -1.5961  0.0564  0.4924
   22SAPC  H13Y 2952   2.580   4.581   9.357  1.6451 -0.7399 -0.6006
   22SAPC  C314 2953   2.610   4.479   9.176 -1.0440  0.0169 -0.3983
   22SAPC  H14X 2954   2.602   4.375   9.137  1.4378  0.2811 -1.8056
   22SAPC  H14Y 2955   2.717   4.502   9.193 -0.9560  0.5428 -1.5485
   22SAPC  C315 2956   2.549   4.564   9.064 -0.4739  0.7902  0.3950
   22SAPC  H15X 2957   2.522   4.667   9.097  0.5986  0.6561  1.7871
   22SAPC  H15Y 2958   2.451   4.521   9.034  0.1705 -0.9646  0.6836
   22SAPC  C316 2959   2.645   4.572   8.945 -0.0189 -0.6917 -0.0646
   22SAPC  H16X 2960   2.651   4.482   8.880 -0.3090 -0.6635 -0.1336
   22SAPC  H16Y 2961   2.746   4.599   8.984 -0.0188 -0.2828 -0.3467
   22SAPC  C317 2962   2.620   4.700   8.854 -0.3924  0.2108 -0.1345
   22SAPC  H17X 2963   2.691   4.691   8.769  0.8523  0.5826  0.8423
   22SAPC  H17Y 2964   2.640   4.790   8.915  0.8980  1.6322 -2.4989
   22SAPC  C318 2965   2.481   4.698   8.783 -0.1108 -1.0375 -0.6854
   22SAPC  H18X 2966   2.404   4.708   8.863 -0.5488  0.6597 -1.2729
   22SAPC  H18Y 2967   2.470   4.611   8.716 -0.3015  0.8903 -3.2952
   22SAPC  H18Z 2968   2.457   4.791   8.726 -2.6990 -0.1892  1.5466
   23SAPC     N 2969   0.662   6.372  11.065  0.1826 -0.5544  0.2408
   23SAPC   C12 2970   0.652   6.423  10.920  0.0688  0.0035 -0.1646
   23SAPC  H12A 2971   0.553   6.463  10.904  0.0576  0.1910  0.3705
   23SAPC  H12B 2972   0.678   6.338  10.859 -3.5524 -1.5784  0.2948
   23SAPC   C13 2973   0.560   6.255  11.087 -0.2424  0.4153  0.5032
   23SAPC  H13A 2974   0.555   6.215  11.187 -0.2101 -0.2025  0.2669
   23SAPC  H13B 2975   0.458   6.283  11.070 -1.2632 -2.1520  1.8141
   23SAPC  H13C 2976   0.592   6.181  11.014  0.3438 -0.2174  1.3756
   23SAPC   C14 2977   0.796   6.309  11.093 -0.6270  0.2412 -0.6248
   23SAPC  H14A 2978   0.826   6.241  11.015  0.0465  2.1226 -2.0916
   23SAPC  H14B 2979   0.865   6.391  11.076  0.3524 -0.3378  0.4410
   23SAPC  H14C 2980   0.799   6.259  11.188 -1.0306  3.3145  1.1475
   23SAPC   C15 2981   0.630   6.488  11.159  0.3494  0.2235 -0.0247
   23SAPC  H15A 2982   0.533   6.529  11.133 -0.0488 -0.8004 -0.1815
   23SAPC  H15B 2983   0.631   6.459  11.262  0.0415  0.9094  0.1827
   23SAPC  H15C 2984   0.703   6.567  11.146 -0.4396  0.9557 -0.1830
   23SAPC   C11 2985   0.751   6.539  10.876 -0.2796 -0.0239 -0.2803
   23SAPC  H11A 2986   0.741   6.633  10.935  2.1293 -0.9864  1.8874
   23SAPC  H11B 2987   0.715   6.572  10.776  1.4870 -0.4942 -1.1181
   23SAPC     P 2988   0.946   6.420  10.756  0.4060 -0.1409 -0.0271
   23SAPC   O13 2989   1.079   6.380  10.783  0.1602 -0.6771 -0.0778
   23SAPC   O14 2990   0.864   6.306  10.715 -0.0622  0.4153 -0.4351
   23SAPC   O12 2991   0.889   6.502  10.877  0.6859 -0.1457  0.1103
   23SAPC   O11 2992   0.943   6.517  10.635 -0.4003 -0.0995 -0.0302
   23SAPC    C1 2993   0.965   6.654  10.649 -0.0186  0.3151  1.1487
   23SAPC    HA 2994   0.874   6.714  10.627  0.4871  0.2142 -1.4256
   23SAPC    HB 2995   1.004   6.684  10.749  2.2373  0.8326  0.1773
   23SAPC    C2 2996   1.077   6.715  10.559  0.3576 -0.0156  0.2869
   23SAPC    HS 2997   1.083   6.826  10.560 -1.2884  0.1069  1.8719
   23SAPC   O21 2998   1.044   6.673  10.425  0.8215 -0.5788 -0.2166
   23SAPC   C21 2999   0.950   6.749  10.368  0.4525  0.9665  0.6946
   23SAPC   O22 3000   0.880   6.832  10.417  0.5226 -0.1053  0.1634
   23SAPC   C22 3001   0.934   6.697  10.227 -0.2107 -0.4203  0.2704
   23SAPC   H2R 3002   1.034   6.675  10.183 -0.3432  0.8332 -0.7154
   23SAPC   H2S 3003   0.867   6.608  10.232 -2.6078  1.3221  1.3804
   23SAPC    C3 3004   1.217   6.662  10.584  0.6446  0.1087  0.2785
   23SAPC    HX 3005   1.205   6.563  10.535 -2.3804  0.6672 -0.3368
   23SAPC    HY 3006   1.224   6.660  10.695  1.1206  2.5789  0.3614
   23SAPC   O31 3007   1.324   6.740  10.521  0.5215 -0.1316  0.0152
   23SAPC   C31 3008   1.443   6.684  10.531  0.5180 -0.4930  0.0927
   23SAPC   O32 3009   1.469   6.577  10.590 -0.5197 -0.4880 -0.2673
   23SAPC   C32 3010   1.547   6.782  10.468 -0.3403  0.1410 -0.5498
   23SAPC   H2X 3011   1.532   6.881  10.515  0.7679 -0.6098  1.5572
   23SAPC   H2Y 3012   1.527   6.791  10.359 -0.2849  1.0636 -0.4878
   23SAPC   C23 3013   0.857   6.794  10.134 -0.0651 -0.3127  0.2132
   23SAPC   H3R 3014   0.916   6.885  10.107 -0.3183 -0.5864 -1.3211
   23SAPC   H3S 3015   0.768   6.833  10.189 -0.0869 -0.0654  0.0043
   23SAPC   C24 3016   0.802   6.723  10.005 -0.3236 -0.2618 -1.2239
   23SAPC   H4R 3017   0.730   6.794   9.959 -1.1486 -2.1447 -3.0219
   23SAPC   H4S 3018   0.740   6.638  10.041  2.9610 -1.5816  1.9705
   23SAPC   C25 3019   0.906   6.668   9.908 -0.5600  0.2146  0.0057
   23SAPC   H5R 3020   0.991   6.625   9.963  0.3924  0.1800 -1.4389
   23SAPC   C26 3021   0.907   6.679   9.769  0.4844  0.3219 -0.1455
   23SAPC   H6R 3022   0.984   6.618   9.721 -0.5141 -0.1956 -1.1444
   23SAPC   C27 3023   0.799   6.734   9.678  0.5154 -0.0029  0.8645
   23SAPC   H7R 3024   0.827   6.833   9.637  0.2025 -0.2442  0.0493
   23SAPC   H7S 3025   0.701   6.748   9.728 -1.9818 -0.8233 -3.2845
   23SAPC   C28 3026   0.770   6.630   9.573 -0.5351 -0.2372  0.7548
   23SAPC   H8R 3027   0.761   6.530   9.617  0.1650  0.1145  1.7211
   23SAPC   C29 3028   0.772   6.646   9.436  0.1766 -1.1475 -0.4987
   23SAPC   H9R 3029   0.765   6.555   9.376  1.1251 -1.5595 -0.0048
   23SAPC  C210 3030   0.800   6.780   9.370  0.8527 -0.3522  0.1948
   23SAPC  H10R 3031   0.899   6.815   9.408  0.6732  0.8816 -0.4298
   23SAPC  H10S 3032   0.714   6.843   9.399  0.5466 -0.3956 -0.6013
   23SAPC  C211 3033   0.811   6.761   9.218 -0.1761  0.1755 -0.1634
   23SAPC  H11R 3034   0.853   6.663   9.190  2.7983  0.5399  2.4128
   23SAPC  C212 3035   0.791   6.863   9.129 -0.2632  0.5894 -0.1981
   23SAPC  H12R 3036   0.801   6.829   9.025  1.3214  1.1732 -0.2572
   23SAPC  C213 3037   0.751   7.008   9.157 -0.0062  0.4814 -0.1076
   23SAPC  H13R 3038   0.705   7.021   9.257  0.2416 -0.7182  0.1800
   23SAPC  H13S 3039   0.676   7.035   9.079 -1.9391  0.0312  1.4933
   23SAPC  C214 3040   0.865   7.111   9.165 -0.1542 -0.2535  0.3614
   23SAPC  H14R 3041   0.938   7.102   9.247 -0.8353  1.7227  1.2360
   23SAPC  C215 3042   0.879   7.220   9.091  0.2702 -0.3989  1.1148
   23SAPC  H15R 3043   0.960   7.288   9.120 -0.7355  0.9845  0.7745
   23SAPC  C216 3044   0.789   7.267   8.976 -0.2285  0.2145  0.4695
   23SAPC  H16R 3045   0.794   7.378   8.975  0.9308  0.2065  1.9305
   23SAPC  H16S 3046   0.685   7.252   9.011 -0.1999  0.5238  0.6921
   23SAPC  C217 3047   0.805   7.204   8.838 -0.2526  0.3895  0.1515
   23SAPC  H17R 3048   0.747   7.109   8.849 -0.3209  0.1108 -2.1806
   23SAPC  H17S 3049   0.911   7.173   8.822  0.1126 -0.3686  3.2542
   23SAPC  C218 3050   0.743   7.298   8.730 -0.2402 -0.0453  0.2841
   23SAPC  H18R 3051   0.768   7.274   8.624 -0.7284  0.6245  0.0115
   23SAPC  H18S 3052   0.778   7.403   8.740 -0.0517 -0.1855  1.2104
   23SAPC  C219 3053   0.590   7.319   8.734 -0.4114  0.2440  0.5903
   23SAPC  H19R 3054   0.547   7.219   8.753  1.1582 -0.5930 -0.0831
   23SAPC  H19S 3055   0.564   7.360   8.634  0.5391  1.3523  0.7645
   23SAPC  C220 3056   0.555   7.433   8.830  1.0571  0.2306 -0.0676
   23SAPC  H20R 3057   0.597   7.430   8.933 -0.6579  0.6302  0.6746
   23SAPC  H20S 3058   0.446   7.437   8.854  0.7057 -1.9368 -1.0886
   23SAPC  H20T 3059   0.584   7.529   8.783 -4.3205  2.0794 -0.2907
   23SAPC   C33 3060   1.687   6.734  10.509  0.7366 -0.7427 -0.1422
   23SAPC   H3X 3061   1.707   6.731  10.618 -2.3725 -1.9216  0.5098
   23SAPC   H3Y 3062   1.762   6.798  10.458  1.4505 -2.4131 -1.2653
   23SAPC   C34 3063   1.722   6.598  10.457  0.1120 -0.3848  0.5685
   23SAPC   H4X 3064   1.676   6.520  10.521  1.0875 -0.1904  1.5319
   23SAPC   H4Y 3065   1.829   6.577  10.478  0.9900  0.9120 -2.0983
   23SAPC   C35 3066   1.695   6.579  10.314 -0.1520 -0.1189 -0.7766
   23SAPC   H5X 3067   1.593   6.614  10.284 -0.5573  0.9942  1.6396
   23SAPC   H5Y 3068   1.704   6.471  10.291  0.5595 -0.1629 -0.3213
   23SAPC   C36 3069   1.802   6.650  10.227  0.0997  0.4865  0.9150
   23SAPC   H6X 3070   1.893   6.662  10.290  1.2584  0.0465 -0.6058
   23SAPC   H6Y 3071   1.779   6.756  10.200  1.6763  0.8962  1.0741
   23SAPC   C37 3072   1.832   6.572  10.105 -0.1174  0.1521  1.4463
   23SAPC   H7X 3073   1.842   6.464  10.129 -2.2334 -0.8873 -1.7211
   23SAPC   H7Y 3074   1.933   6.601  10.068 -0.9483  1.7605  0.3051
   23SAPC   C38 3075   1.738   6.600   9.990 -0.2774  0.0045  0.1458
   23SAPC   H8X 3076   1.709   6.707   9.984 -1.3832 -0.1927  1.4356
   23SAPC   H8Y 3077   1.646   6.539   9.999 -1.3615  1.5771  0.0209
   23SAPC   C39 3078   1.806   6.557   9.854  0.2561 -0.1972  0.1090
   23SAPC   H9X 3079   1.851   6.455   9.861  0.8516  0.0041 -0.6714
   23SAPC   H9Y 3080   1.896   6.622   9.853 -1.0711  1.8601 -3.6509
   23SAPC  C310 3081   1.711   6.588   9.739  0.3577 -0.1116 -0.3149
   23SAPC  H10X 3082   1.654   6.682   9.760  2.5080  0.9598  1.1214
   23SAPC  H10Y 3083   1.640   6.503   9.744 -1.1085  0.7118 -4.0049
   23SAPC  C311 3084   1.782   6.579   9.608  0.2354  0.0217 -0.0834
   23SAPC  H11X 3085   1.836   6.482   9.601 -0.0537 -0.3337  1.8959
   23SAPC  H11Y 3086   1.857   6.660   9.600  1.0174 -0.7559 -0.9149
   23SAPC  C312 3087   1.692   6.592   9.486 -0.8188 -0.0893 -0.7202
   23SAPC  H12X 3088   1.639   6.689   9.499 -0.4222 -0.0721  0.9655
   23SAPC  H12Y 3089   1.615   6.512   9.485  1.1784 -2.1168 -0.4972
   23SAPC  C313 3090   1.766   6.605   9.350  0.3208  0.6370  0.1862
   23SAPC  H13X 3091   1.840   6.522   9.345 -1.6630 -1.2352  0.2343
   23SAPC  H13Y 3092   1.814   6.705   9.344 -1.0518  1.3593  0.8400
   23SAPC  C314 3093   1.657   6.606   9.242  0.4664 -0.4661  0.8924
   23SAPC  H14X 3094   1.586   6.691   9.257  0.1497 -0.8483  1.6609
   23SAPC  H14Y 3095   1.594   6.516   9.261 -1.1482  0.0642 -1.4792
   23SAPC  C315 3096   1.704   6.600   9.099  0.0858 -0.4824 -0.0843
   23SAPC  H15X 3097   1.745   6.697   9.064  0.7594 -0.3639  0.9773
   23SAPC  H15Y 3098   1.614   6.567   9.043 -1.2078 -0.2056  1.7417
   23SAPC  C316 3099   1.817   6.498   9.080  1.1396 -0.3600  0.2949
   23SAPC  H16X 3100   1.801   6.414   9.151 -0.8320  1.7201  2.4829
   23SAPC  H16Y 3101   1.907   6.544   9.126  1.9902 -1.8822  0.2283
   23SAPC  C317 3102   1.839   6.453   8.930  0.4570  0.4904  0.0790
   23SAPC  H17X 3103   1.746   6.431   8.874 -0.3071 -1.2342  1.9201
   23SAPC  H17Y 3104   1.898   6.359   8.929 -0.4582 -0.1116 -1.3142
   23SAPC  C318 3105   1.912   6.564   8.847  0.1594  0.2148  0.1092
   23SAPC  H18X 3106   1.900   6.535   8.741  1.9834 -1.5520  0.3391
   23SAPC  H18Y 3107   2.017   6.578   8.879  0.0070 -0.4845  0.9651
   23SAPC  H18Z 3108   1.849   6.653   8.865 -1.0922 -0.7030  0.4506
   24SAPC     N 3109   4.318   1.899  11.291 -0.1138  0.3564  0.0268
   24SAPC   C12 3110   4.269   2.043  11.281 -0.0981  0.0318 -0.3508
   24SAPC  H12A 3111   4.314   2.101  11.360  0.6796 -1.8937  0.6910
   24SAPC  H12B 3112   4.163   2.046  11.301 -0.6227  5.3649 -2.4044
   24SAPC   C13 3113   4.257   1.831  11.406 -0.9627 -0.5015 -0.0940
   24SAPC  H13A 3114   4.154   1.856  11.425 -0.9596  1.0886 -1.9076
   24SAPC  H13B 3115   4.247   1.726  11.382 -0.9053 -0.8739  1.4071
   24SAPC  H13C 3116   4.303   1.837  11.503 -2.0534 -0.4480  0.4291
   24SAPC   C14 3117   4.279   1.819  11.172  0.1698  0.3296  0.8183
   24SAPC  H14A 3118   4.172   1.828  11.164  0.3277  2.9838  0.9744
   24SAPC  H14B 3119   4.310   1.863  11.078  0.2390 -2.0536 -0.3547
   24SAPC  H14C 3120   4.305   1.714  11.172 -0.4981  0.1569  0.5373
   24SAPC   C15 3121   4.467   1.889  11.299  0.4092  0.0402 -0.0976
   24SAPC  H15A 3122   4.510   1.799  11.339  3.0358  2.2128  2.3615
   24SAPC  H15B 3123   4.511   1.912  11.203  0.8277 -2.3973 -0.5588
   24SAPC  H15C 3124   4.493   1.964  11.371  2.1122  0.2003 -0.8380
   24SAPC   C11 3125   4.300   2.117  11.151  0.3708  0.5907  0.4789
   24SAPC  H11A 3126   4.408   2.099  11.134 -0.0211 -1.5372 -0.0604
   24SAPC  H11B 3127   4.280   2.226  11.159 -1.8151  0.3659 -1.0275
   24SAPC     P 3128   4.064   2.087  11.051  0.6457  0.4022  0.3511
   24SAPC   O13 3129   4.004   1.982  11.141 -0.1741 -0.2988  0.0152
   24SAPC   O14 3130   4.035   2.231  11.088  0.2493  0.1687  0.4682
   24SAPC   O12 3131   4.219   2.065  11.038  0.0340 -0.2919 -0.7062
   24SAPC   O11 3132   3.994   2.052  10.903 -0.3794 -0.7205 -0.2988
   24SAPC    C1 3133   4.046   1.955  10.817  0.0364 -0.0469 -0.5680
   24SAPC    HA 3134   4.120   2.009  10.754  0.7168  0.4010  0.5756
   24SAPC    HB 3135   4.094   1.871  10.873  1.9487  1.5970  0.4245
   24SAPC    C2 3136   3.936   1.893  10.732  0.4855 -0.0811  0.2517
   24SAPC    HS 3137   3.985   1.809  10.678  0.1488 -1.2251  1.6532
   24SAPC   O21 3138   3.874   1.996  10.647 -0.4545  0.1621  0.0122
   24SAPC   C21 3139   3.841   1.966  10.525 -0.4568 -0.7333  0.1870
   24SAPC   O22 3140   3.869   1.859  10.469  0.3160 -0.2671  0.7089
   24SAPC   C22 3141   3.777   2.089  10.451 -0.2555  0.0220  0.2942
   24SAPC   H2R 3142   3.693   2.126  10.513  0.4818  1.9390  0.2184
   24SAPC   H2S 3143   3.850   2.171  10.467 -0.5039  0.6763 -1.6629
   24SAPC    C3 3144   3.825   1.829  10.824  0.0260  0.5959  0.7637
   24SAPC    HX 3145   3.755   1.911  10.854 -0.4054  0.3489  0.4419
   24SAPC    HY 3146   3.863   1.776  10.913 -1.3007 -1.6901  0.0423
   24SAPC   O31 3147   3.738   1.736  10.749 -0.5852 -0.8414  0.1577
   24SAPC   C31 3148   3.784   1.610  10.736 -0.0244  0.8324  0.2596
   24SAPC   O32 3149   3.873   1.560  10.802 -0.0976  0.8380  0.0541
   24SAPC   C32 3150   3.706   1.543  10.615  0.3505  0.8159 -0.0314
   24SAPC   H2X 3151   3.710   1.614  10.531  0.1553  3.0241  1.7412
   24SAPC   H2Y 3152   3.597   1.546  10.639  0.1848 -0.7423 -0.4402
   24SAPC   C23 3153   3.736   2.066  10.299 -0.0702 -0.3746  0.0964
   24SAPC   H3R 3154   3.655   2.140  10.279  0.4584  0.2867  0.3990
   24SAPC   H3S 3155   3.686   1.966  10.297  0.1611 -0.6681  3.3671
   24SAPC   C24 3156   3.855   2.092  10.203  0.0104  0.1642 -0.7088
   24SAPC   H4R 3157   3.813   2.061  10.105 -1.4443 -1.5167  0.3760
   24SAPC   H4S 3158   3.937   2.022  10.232  0.3098  0.7281 -0.1798
   24SAPC   C25 3159   3.913   2.232  10.209 -0.4451  0.2550 -0.2614
   24SAPC   H5R 3160   3.908   2.281  10.307 -0.3230  0.8379 -0.5384
   24SAPC   C26 3161   3.960   2.306  10.105 -0.8965  1.2608  0.5515
   24SAPC   H6R 3162   3.997   2.408  10.125 -0.3208  1.4869 -1.4074
   24SAPC   C27 3163   3.965   2.270   9.956  0.3877  0.0920 -0.8659
   24SAPC   H7R 3164   4.014   2.172   9.938  0.8529  0.1954 -0.1796
   24SAPC   H7S 3165   4.044   2.342   9.928  0.1841  1.3239  1.5092
   24SAPC   C28 3166   3.833   2.279   9.881 -0.3080  0.4207  0.7577
   24SAPC   H8R 3167   3.743   2.239   9.930  0.9695 -1.4252  1.7053
   24SAPC   C29 3168   3.825   2.330   9.754 -0.4554  0.4789 -0.2542
   24SAPC   H9R 3169   3.723   2.324   9.712 -0.7714  0.6974  0.4713
   24SAPC  C210 3170   3.940   2.377   9.669 -0.2015 -0.2475 -0.0214
   24SAPC  H10R 3171   4.031   2.397   9.728 -0.8849 -1.7549  1.6537
   24SAPC  H10S 3172   3.907   2.472   9.621 -0.2886 -0.1648  0.1994
   24SAPC  C211 3173   3.966   2.264   9.574  0.2781  0.4848 -0.1206
   24SAPC  H11R 3174   3.976   2.166   9.623  3.1345  0.7891  0.0698
   24SAPC  C212 3175   3.980   2.262   9.440  0.0889  0.0583  0.8838
   24SAPC  H12R 3176   3.981   2.165   9.388 -1.7140  1.0377 -1.1575
   24SAPC  C213 3177   3.970   2.388   9.348 -0.5922 -0.0011 -0.4728
   24SAPC  H13R 3178   4.059   2.394   9.283 -0.4666 -2.7768 -0.6455
   24SAPC  H13S 3179   3.988   2.479   9.411  3.3440 -0.5257 -0.6229
   24SAPC  C214 3180   3.844   2.409   9.263  0.2740  0.6209 -0.0355
   24SAPC  H14R 3181   3.758   2.347   9.294  0.1978  0.5561 -0.3646
   24SAPC  C215 3182   3.826   2.495   9.157  0.3158  0.0847  0.2615
   24SAPC  H15R 3183   3.735   2.493   9.096  0.4468  0.4270  0.0483
   24SAPC  C216 3184   3.937   2.586   9.115 -0.0556 -0.0522  0.6229
   24SAPC  H16R 3185   4.006   2.534   9.045 -1.8499 -2.6453  0.6238
   24SAPC  H16S 3186   3.997   2.619   9.203  1.9965  0.9009 -1.0414
   24SAPC  C217 3187   3.882   2.719   9.064  0.5844 -0.4400 -0.3614
   24SAPC  H17R 3188   3.828   2.775   9.144 -0.4490 -0.3239 -1.1075
   24SAPC  H17S 3189   3.812   2.690   8.983 -1.4274  1.5916  0.5274
   24SAPC  C218 3190   3.987   2.822   9.008  0.2182 -0.1995 -0.0998
   24SAPC  H18R 3191   3.933   2.905   8.960  1.0689  0.0036 -0.7317
   24SAPC  H18S 3192   4.048   2.776   8.927  0.0867  0.5090 -0.6101
   24SAPC  C219 3193   4.080   2.899   9.110 -0.3431  0.3017 -0.0532
   24SAPC  H19R 3194   4.164   2.830   9.132 -0.9860 -0.5016 -0.0785
   24SAPC  H19S 3195   4.021   2.917   9.203 -0.0845 -0.7324  0.3222
   24SAPC  C220 3196   4.126   3.039   9.057  0.6006  0.5437  1.0519
   24SAPC  H20R 3197   4.165   3.096   9.145 -1.3272 -0.8356  2.9217
   24SAPC  H20S 3198   4.037   3.090   9.015  1.6970  0.4269 -1.5717
   24SAPC  H20T 3199   4.190   3.034   8.967 -1.2286  1.8010 -0.4068
   24SAPC   C33 3200   3.771   1.412  10.557  0.2746 -0.1691 -0.2297
   24SAPC   H3X 3201   3.702   1.363  10.485 -0.8704 -0.7480  1.1942
   24SAPC   H3Y 3202   3.785   1.340  10.640  1.4801  1.4499  1.0216
   24SAPC   C34 3203   3.895   1.443  10.474 -0.2224 -0.1536 -0.1144
   24SAPC   H4X 3204   3.970   1.506  10.527 -0.1394  0.8687 -1.3833
   24SAPC   H4Y 3205   3.865   1.508  10.388  1.3177 -1.8593 -2.0548
   24SAPC   C35 3206   3.948   1.309  10.427 -0.3377  0.7167  0.0656
   24SAPC   H5X 3207   3.866   1.234  10.434  0.8492 -0.8235 -1.8051
   24SAPC   H5Y 3208   4.018   1.280  10.508 -0.5108  1.6608  0.5713
   24SAPC   C36 3209   4.003   1.303  10.282 -0.0675 -0.5817  1.0313
   24SAPC   H6X 3210   4.042   1.201  10.263  0.3100 -0.6060  1.8909
   24SAPC   H6Y 3211   4.093   1.368  10.278  0.0116 -0.7629 -0.3554
   24SAPC   C37 3212   3.900   1.343  10.178 -0.4846  0.6984 -0.2491
   24SAPC   H7X 3213   3.877   1.451  10.192  0.1762  0.9181 -0.7764
   24SAPC   H7Y 3214   3.807   1.283  10.189  0.0391 -0.5203 -1.9008
   24SAPC   C38 3215   3.948   1.312  10.036  0.0529 -0.0709  1.0841
   24SAPC   H8X 3216   3.977   1.205  10.035 -2.4369 -0.8325  1.5038
   24SAPC   H8Y 3217   4.041   1.371  10.027 -1.1020  1.4812 -2.3403
   24SAPC   C39 3218   3.837   1.354   9.925  0.2053 -0.1310  0.0004
   24SAPC   H9X 3219   3.809   1.461   9.934 -0.3671 -0.2664 -0.1708
   24SAPC   H9Y 3220   3.751   1.284   9.935 -0.9392  1.1112 -0.8166
   24SAPC  C310 3221   3.905   1.325   9.788 -0.0725  0.1759 -0.1089
   24SAPC  H10X 3222   3.920   1.217   9.770  1.5064  0.2531  0.6220
   24SAPC  H10Y 3223   4.007   1.369   9.789 -0.3158  0.8546 -1.7356
   24SAPC  C311 3224   3.825   1.382   9.665  0.1725  0.7117 -0.3827
   24SAPC  H11X 3225   3.802   1.487   9.696 -1.6677 -0.0833  1.1409
   24SAPC  H11Y 3226   3.728   1.329   9.671 -0.0672  1.3032  1.3647
   24SAPC  C312 3227   3.887   1.373   9.530 -0.0209 -0.0084 -0.7834
   24SAPC  H12X 3228   3.934   1.273   9.523 -1.4066 -0.8511  1.0773
   24SAPC  H12Y 3229   3.967   1.450   9.524  0.0256 -0.1124 -1.5021
   24SAPC  C313 3230   3.786   1.383   9.414 -0.6098 -0.1969 -0.3776
   24SAPC  H13X 3231   3.743   1.485   9.417  0.8128  0.4173  1.5455
   24SAPC  H13Y 3232   3.696   1.320   9.428 -0.2600 -0.5865  0.2023
   24SAPC  C314 3233   3.840   1.355   9.274  0.6841  0.1964  0.3203
   24SAPC  H14X 3234   3.897   1.260   9.281  0.5117 -0.0413 -1.2365
   24SAPC  H14Y 3235   3.900   1.444   9.249  0.5939  0.6760  1.6973
   24SAPC  C315 3236   3.725   1.357   9.174  0.1629 -0.1344  0.5042
   24SAPC  H15X 3237   3.668   1.451   9.190  0.4296  0.2672 -0.7605
   24SAPC  H15Y 3238   3.664   1.269   9.202  1.3302 -0.9284  0.6377
   24SAPC  C316 3239   3.773   1.357   9.027  0.0889 -0.2283 -0.0705
   24SAPC  H16X 3240   3.790   1.254   8.990 -1.9255 -0.5582 -0.2003
   24SAPC  H16Y 3241   3.868   1.411   9.005  0.2809 -1.1265 -1.5999
   24SAPC  C317 3242   3.679   1.425   8.927  0.4760 -0.3320  0.2796
   24SAPC  H17X 3243   3.649   1.527   8.959 -0.6821 -0.6365  0.1968
   24SAPC  H17Y 3244   3.586   1.367   8.913 -0.5250  1.4801 -0.9418
   24SAPC  C318 3245   3.742   1.431   8.776 -0.0117 -0.3647  0.3956
   24SAPC  H18X 3246   3.803   1.524   8.771  0.8519 -0.9491 -0.2647
   24SAPC  H18Y 3247   3.665   1.449   8.698  0.8597  1.3691 -0.1240
   24SAPC  H18Z 3248   3.811   1.347   8.756  1.1363  0.4866  0.6669
   25SAPC     N 3249   6.588   3.757   5.853 -0.2816 -1.1587  0.5825
   25SAPC   C12 3250   6.597   3.668   5.979 -0.0848 -0.0799  0.2102
   25SAPC  H12A 3251   6.569   3.735   6.060 -0.1885  2.9321 -2.1382
   25SAPC  H12B 3252   6.703   3.655   5.994 -0.4485 -2.4399  1.0550
   25SAPC   C13 3253   6.460   3.831   5.844  0.1325 -0.2756  0.6856
   25SAPC  H13A 3254   6.451   3.891   5.754 -1.7422  2.1085  2.3144
   25SAPC  H13B 3255   6.374   3.766   5.854 -0.9103  0.7978 -0.8034
   25SAPC  H13C 3256   6.450   3.897   5.929  0.0249  0.4952  0.0891
   25SAPC   C14 3257   6.700   3.857   5.864  0.1791 -0.3035 -0.4809
   25SAPC  H14A 3258   6.680   3.919   5.949 -2.9877 -0.6557 -0.8446
   25SAPC  H14B 3259   6.791   3.806   5.890  0.0626 -0.2794 -0.0302
   25SAPC  H14C 3260   6.710   3.913   5.772 -0.8268 -0.9228 -0.9932
   25SAPC   C15 3261   6.617   3.689   5.724  0.4625  0.4571  0.3261
   25SAPC  H15A 3262   6.702   3.623   5.737 -0.9046 -1.3152  0.7331
   25SAPC  H15B 3263   6.532   3.626   5.703  1.2074 -1.5933  2.9008
   25SAPC  H15C 3264   6.634   3.762   5.647  1.3521 -0.1705 -0.1003
   25SAPC   C11 3265   6.499   3.545   5.997  0.3225 -0.4742 -0.5012
   25SAPC  H11A 3266   6.548   3.477   6.070  3.0307  0.1933 -1.5744
   25SAPC  H11B 3267   6.490   3.490   5.901 -1.3439 -1.2281  0.0534
   25SAPC     P 3268   6.349   3.682   6.168  0.0469  0.0122  0.2523
   25SAPC   O13 3269   6.382   3.826   6.157 -0.2785 -0.1505  0.2847
   25SAPC   O14 3270   6.212   3.650   6.211 -0.3427  0.5311 -0.3526
   25SAPC   O12 3271   6.377   3.604   6.035 -0.1743  0.1483  0.2368
   25SAPC   O11 3272   6.449   3.618   6.266  0.3486 -0.2536  0.1496
   25SAPC    C1 3273   6.417   3.563   6.396  0.0671 -0.2307  0.3463
   25SAPC    HA 3274   6.332   3.492   6.382 -0.1062  0.3613 -2.1448
   25SAPC    HB 3275   6.507   3.520   6.442 -0.3614 -1.6328 -0.0854
   25SAPC    C2 3276   6.362   3.663   6.508 -0.0321 -0.3222 -0.0331
   25SAPC    HS 3277   6.276   3.717   6.463  0.4430  0.1959 -0.3368
   25SAPC   O21 3278   6.465   3.765   6.529 -0.0515 -0.2874  0.5962
   25SAPC   C21 3279   6.411   3.864   6.596  0.2265 -0.7700  0.0175
   25SAPC   O22 3280   6.292   3.889   6.602 -0.0232 -0.3122  0.5381
   25SAPC   C22 3281   6.512   3.968   6.655 -0.2706 -0.3274 -0.6139
   25SAPC   H2R 3282   6.609   3.915   6.661  0.3870  0.8424 -0.6583
   25SAPC   H2S 3283   6.523   4.046   6.577 -1.1824  0.4208 -0.0107
   25SAPC    C3 3284   6.312   3.588   6.630  0.2907  0.5956 -0.3320
   25SAPC    HX 3285   6.229   3.522   6.595  1.6010 -0.5850 -1.3103
   25SAPC    HY 3286   6.270   3.657   6.706  0.0692  0.9731 -0.7948
   25SAPC   O31 3287   6.413   3.502   6.689  0.3970  0.6330  0.4598
   25SAPC   C31 3288   6.486   3.567   6.780  0.0001  0.7485  0.1908
   25SAPC   O32 3289   6.477   3.684   6.807  0.0375 -0.4296  0.1341
   25SAPC   C32 3290   6.590   3.468   6.847  0.2594 -0.2247  0.7478
   25SAPC   H2X 3291   6.668   3.455   6.769 -3.2150  1.0861 -3.3834
   25SAPC   H2Y 3292   6.540   3.370   6.860  0.3065 -0.2743  0.5548
   25SAPC   C23 3293   6.474   4.025   6.798  0.0505  0.3832 -0.1605
   25SAPC   H3R 3294   6.473   3.932   6.859  1.4011 -0.7088 -1.6913
   25SAPC   H3S 3295   6.380   4.084   6.803 -1.9019 -2.0611 -3.6773
   25SAPC   C24 3296   6.576   4.121   6.862  0.2562  0.3757  0.0642
   25SAPC   H4R 3297   6.528   4.143   6.959  0.9906  1.9385  0.0997
   25SAPC   H4S 3298   6.582   4.213   6.801  0.6535  0.1886 -0.1821
   25SAPC   C25 3299   6.716   4.067   6.864  0.3707 -1.2525  0.2556
   25SAPC   H5R 3300   6.760   4.055   6.764 -0.2880 -2.5955  0.1072
   25SAPC   C26 3301   6.793   4.038   6.970  0.1354  0.0952  0.0184
   25SAPC   H6R 3302   6.896   4.004   6.951 -0.5827 -1.2119 -1.9587
   25SAPC   C27 3303   6.758   4.046   7.117 -0.5356  0.5065 -0.5653
   25SAPC   H7R 3304   6.735   4.152   7.140  0.0693  0.3415  0.8969
   25SAPC   H7S 3305   6.851   4.022   7.173  1.1070 -0.6061 -3.5304
   25SAPC   C28 3306   6.650   3.947   7.148  0.2200  0.4656  0.3786
   25SAPC   H8R 3307   6.639   3.863   7.079 -0.4013  0.7797  0.0918
   25SAPC   C29 3308   6.587   3.941   7.268  0.3438  0.0769  0.0037
   25SAPC   H9R 3309   6.522   3.854   7.285 -1.2444  0.5381 -3.0850
   25SAPC  C210 3310   6.614   4.029   7.387  0.5300  0.1418  0.2991
   25SAPC  H10R 3311   6.531   4.011   7.458  1.5892 -1.6452  1.1769
   25SAPC  H10S 3312   6.616   4.135   7.356  0.3102  0.4873  1.4361
   25SAPC  C211 3313   6.742   3.991   7.460  0.1880  0.1284  0.3495
   25SAPC  H11R 3314   6.811   3.930   7.401  1.1940  0.9850  0.6018
   25SAPC  C212 3315   6.780   4.039   7.582  0.6903  0.3586 -0.0440
   25SAPC  H12R 3316   6.881   4.014   7.618  1.1606  0.9771 -0.9057
   25SAPC  C213 3317   6.702   4.137   7.665  0.2010  1.1930  0.2588
   25SAPC  H13R 3318   6.646   4.217   7.612  0.8236  1.3299 -0.2123
   25SAPC  H13S 3319   6.776   4.189   7.729  0.1505  0.2705  1.0906
   25SAPC  C214 3320   6.604   4.051   7.750 -0.1244 -0.4766  0.3596
   25SAPC  H14R 3321   6.580   3.950   7.714 -0.3996 -0.1615 -0.3603
   25SAPC  C215 3322   6.555   4.090   7.872  0.1344 -0.0163  0.7402
   25SAPC  H15R 3323   6.471   4.044   7.926 -0.2031 -0.9874 -0.5543
   25SAPC  C216 3324   6.587   4.225   7.935 -0.2238 -0.0095 -0.3293
   25SAPC  H16R 3325   6.495   4.277   7.968 -0.0707 -0.5555  1.0355
   25SAPC  H16S 3326   6.655   4.294   7.881 -1.4218  2.6786  1.4031
   25SAPC  C217 3327   6.675   4.182   8.053  0.2320  0.1872 -0.6303
   25SAPC  H17R 3328   6.763   4.134   8.005 -1.3447 -2.5099 -1.0099
   25SAPC  H17S 3329   6.629   4.107   8.121 -1.2018  4.1812  3.3214
   25SAPC  C218 3330   6.705   4.303   8.144  0.6155  0.8283 -0.8492
   25SAPC  H18R 3331   6.620   4.366   8.176  1.5582  0.9597  1.7003
   25SAPC  H18S 3332   6.775   4.368   8.088 -0.2681  2.4211 -0.1748
   25SAPC  C219 3333   6.784   4.275   8.276 -0.6846 -0.3860 -0.3217
   25SAPC  H19R 3334   6.812   4.376   8.314  0.2985 -0.6270 -0.4015
   25SAPC  H19S 3335   6.883   4.227   8.263 -0.4763 -0.1077  0.1849
   25SAPC  C220 3336   6.700   4.200   8.380 -0.0071 -0.1870 -0.0332
   25SAPC  H20R 3337   6.735   4.209   8.485 -0.9307  1.3981  0.1643
   25SAPC  H20S 3338   6.713   4.091   8.366 -0.5805 -0.1307 -1.0793
   25SAPC  H20T 3339   6.594   4.234   8.375  0.2742  0.9868  1.3478
   25SAPC   C33 3340   6.634   3.512   6.985 -0.2107  0.2995 -0.3593
   25SAPC   H3X 3341   6.640   3.623   6.986 -1.2011  0.4390 -3.0798
   25SAPC   H3Y 3342   6.734   3.466   7.005 -0.1672  0.4816 -0.1589
   25SAPC   C34 3343   6.545   3.462   7.109  0.2982  0.3869  0.5064
   25SAPC   H4X 3344   6.540   3.351   7.098 -4.0334  0.5801 -1.9554
   25SAPC   H4Y 3345   6.444   3.506   7.099  0.2863  0.7430  2.0772
   25SAPC   C35 3346   6.592   3.523   7.240  0.5045 -0.2584 -0.5835
   25SAPC   H5X 3347   6.605   3.633   7.228 -1.7008  0.0881 -0.1930
   25SAPC   H5Y 3348   6.690   3.478   7.268  0.4775  0.3730  0.6168
   25SAPC   C36 3349   6.495   3.496   7.354 -0.2316 -0.7899  0.5765
   25SAPC   H6X 3350   6.490   3.386   7.370  0.5733 -1.6077 -3.5673
   25SAPC   H6Y 3351   6.394   3.530   7.322  1.5493  1.6177 -3.2134
   25SAPC   C37 3352   6.529   3.558   7.488  0.3810 -0.2934  0.1212
   25SAPC   H7X 3353   6.529   3.668   7.470  2.8783 -0.1446  0.6183
   25SAPC   H7Y 3354   6.635   3.548   7.519  0.3322 -0.6233  0.1850
   25SAPC   C38 3355   6.434   3.522   7.601  0.6515 -0.2414  0.4049
   25SAPC   H8X 3356   6.427   3.421   7.646  0.5338 -0.6778 -0.5713
   25SAPC   H8Y 3357   6.329   3.550   7.580  0.5544 -0.7004  0.2883
   25SAPC   C39 3358   6.480   3.604   7.725  0.1832 -0.2043 -0.8911
   25SAPC   H9X 3359   6.505   3.711   7.713 -2.5480  0.4586 -1.3327
   25SAPC   H9Y 3360   6.578   3.570   7.765 -1.3468 -1.6331  1.9956
   25SAPC  C310 3361   6.382   3.610   7.840  0.0682  0.4029 -0.2973
   25SAPC  H10X 3362   6.367   3.505   7.873  1.3246  0.2121 -0.3106
   25SAPC  H10Y 3363   6.283   3.649   7.808  0.6993  2.4389  0.1052
   25SAPC  C311 3364   6.438   3.684   7.957 -0.3995 -0.8021  0.2584
   25SAPC  H11X 3365   6.445   3.793   7.938 -0.6887 -0.8738 -0.2660
   25SAPC  H11Y 3366   6.541   3.651   7.985  0.6408  0.4016 -1.9092
   25SAPC  C312 3367   6.353   3.656   8.079 -0.1121  0.5973  0.2177
   25SAPC  H12X 3368   6.344   3.547   8.096  0.4394  0.3696 -0.8513
   25SAPC  H12Y 3369   6.249   3.680   8.050 -1.0496 -0.7274  2.2520
   25SAPC  C313 3370   6.395   3.715   8.213 -0.4516 -1.3571 -0.1311
   25SAPC  H13X 3371   6.380   3.825   8.218  2.3055 -0.9759  1.2800
   25SAPC  H13Y 3372   6.504   3.700   8.224 -0.0441  1.6756  1.2481
   25SAPC  C314 3373   6.337   3.632   8.331 -0.3199 -0.5329 -0.5502
   25SAPC  H14X 3374   6.383   3.531   8.321  1.5241  0.2655 -0.4767
   25SAPC  H14Y 3375   6.229   3.623   8.305 -0.1803 -1.7652 -0.7792
   25SAPC  C315 3376   6.350   3.696   8.468  0.0659 -0.2176  0.0319
   25SAPC  H15X 3377   6.302   3.638   8.550 -1.8031  0.2017 -0.7112
   25SAPC  H15Y 3378   6.297   3.793   8.454 -0.1270 -0.7807 -5.5550
   25SAPC  C316 3379   6.492   3.726   8.519  0.0008  0.7732 -0.1267
   25SAPC  H16X 3380   6.539   3.788   8.439  1.4439 -0.0280  0.0613
   25SAPC  H16Y 3381   6.563   3.641   8.510 -0.4846  0.5273 -2.0704
   25SAPC  C317 3382   6.490   3.788   8.657  0.2697 -0.0715  0.4160
   25SAPC  H17X 3383   6.429   3.732   8.731 -0.4085 -0.2818 -0.2846
   25SAPC  H17Y 3384   6.437   3.884   8.639 -2.4636 -1.5572 -0.0734
   25SAPC  C318 3385   6.630   3.813   8.713  0.0106  0.1008  0.0765
   25SAPC  H18X 3386   6.683   3.888   8.651  0.1486 -0.4574 -0.4920
   25SAPC  H18Y 3387   6.687   3.719   8.725  1.7065  1.1761  0.8260
   25SAPC  H18Z 3388   6.623   3.863   8.812  0.1547 -0.2810  0.2835
   26SAPC     N 3389   4.494   0.260   6.351  0.3185 -0.1584 -0.8151
   26SAPC   C12 3390   4.559   0.321   6.473 -0.5877  0.1133 -0.0196
   26SAPC  H12A 3391   4.667   0.311   6.467 -0.4007  1.1501  1.0881
   26SAPC  H12B 3392   4.528   0.266   6.560 -0.5974  0.3696  0.1415
   26SAPC   C13 3393   4.515   0.112   6.333  0.3274 -0.1073  0.6024
   26SAPC  H13A 3394   4.460   0.073   6.249  0.3683 -0.4722  0.7421
   26SAPC  H13B 3395   4.614   0.091   6.295 -0.7373 -0.5443 -2.1171
   26SAPC  H13C 3396   4.491   0.057   6.423  0.1725  2.4478  2.2619
   26SAPC   C14 3397   4.356   0.298   6.366 -0.1163 -0.2158 -0.8741
   26SAPC  H14A 3398   4.344   0.400   6.399 -2.5933 -0.2930 -1.3536
   26SAPC  H14B 3399   4.307   0.295   6.269  0.1091  0.3436 -1.0111
   26SAPC  H14C 3400   4.319   0.229   6.440  2.2167 -1.5258 -0.8231
   26SAPC   C15 3401   4.568   0.326   6.237  0.2434  0.1890  0.4464
   26SAPC  H15A 3402   4.667   0.284   6.222  0.6994  1.4255 -0.1100
   26SAPC  H15B 3403   4.503   0.324   6.151 -3.8383  0.4626  3.2730
   26SAPC  H15C 3404   4.575   0.431   6.262  3.7182  0.4644 -1.0345
   26SAPC   C11 3405   4.527   0.470   6.511 -0.2536  1.2168  0.3059
   26SAPC  H11A 3406   4.607   0.495   6.584  1.2171 -1.4676 -0.2642
   26SAPC  H11B 3407   4.428   0.461   6.562  0.3902 -0.4776  1.3410
   26SAPC     P 3408   4.535   0.713   6.413  0.0818  0.0911 -0.5034
   26SAPC   O13 3409   4.583   0.769   6.282 -0.3341  0.3996 -0.1387
   26SAPC   O14 3410   4.416   0.774   6.476 -0.2966 -0.6294 -0.4483
   26SAPC   O12 3411   4.516   0.558   6.401 -0.1235 -0.3222  0.5941
   26SAPC   O11 3412   4.650   0.720   6.523  0.3570  0.3650 -0.6186
   26SAPC    C1 3413   4.661   0.838   6.601  0.0622 -0.4024  0.3720
   26SAPC    HA 3414   4.730   0.911   6.553  1.5109 -0.0493  2.8361
   26SAPC    HB 3415   4.572   0.905   6.602  2.1286  2.5186  0.2378
   26SAPC    C2 3416   4.704   0.805   6.748 -0.4351 -0.1805  0.3728
   26SAPC    HS 3417   4.705   0.894   6.814 -0.0716  0.8803 -1.0195
   26SAPC   O21 3418   4.842   0.754   6.750  0.1839 -0.0757 -0.1580
   26SAPC   C21 3419   4.927   0.856   6.728  0.0216  0.2415  0.1553
   26SAPC   O22 3420   4.895   0.974   6.725 -0.1884 -0.7545  0.1418
   26SAPC   C22 3421   5.063   0.800   6.711  0.3702 -1.1050 -0.1054
   26SAPC   H2R 3422   5.077   0.734   6.800  2.7148 -1.6618 -0.8111
   26SAPC   H2S 3423   5.071   0.745   6.615  0.5421  0.9480 -1.3257
   26SAPC    C3 3424   4.598   0.707   6.811  0.1190  0.1590 -0.2376
   26SAPC    HX 3425   4.604   0.612   6.753 -2.0788 -1.0429  1.3545
   26SAPC    HY 3426   4.495   0.745   6.795 -1.6977 -3.5987  1.2759
   26SAPC   O31 3427   4.622   0.680   6.951 -0.2661 -0.0141  0.3275
   26SAPC   C31 3428   4.582   0.558   6.989 -0.7269 -0.6904 -0.0062
   26SAPC   O32 3429   4.518   0.480   6.919  0.2128  0.1145 -0.5818
   26SAPC   C32 3430   4.613   0.541   7.136  0.5725  0.1790  0.5123
   26SAPC   H2X 3431   4.575   0.625   7.198 -1.1592 -0.2494  0.0897
   26SAPC   H2Y 3432   4.723   0.525   7.140  1.1215  2.9182 -1.2774
   26SAPC   C23 3433   5.187   0.904   6.702  0.4198  0.0117 -0.0870
   26SAPC   H3R 3434   5.172   0.982   6.625  1.0170  1.1645  0.9231
   26SAPC   H3S 3435   5.277   0.848   6.669 -0.1413  0.0363 -1.7269
   26SAPC   C24 3436   5.215   0.967   6.841 -0.6206 -0.0159  0.0103
   26SAPC   H4R 3437   5.129   1.035   6.862 -1.2470 -1.3425  1.9906
   26SAPC   H4S 3438   5.314   1.016   6.832 -0.6343 -0.1272 -0.7654
   26SAPC   C25 3439   5.228   0.882   6.968  0.5443  0.8409  0.5406
   26SAPC   H5R 3440   5.317   0.818   6.967  0.6531  0.9998 -0.6182
   26SAPC   C26 3441   5.156   0.886   7.083  0.1967 -0.1584  0.0139
   26SAPC   H6R 3442   5.177   0.812   7.162 -0.7749  1.0229  1.4295
   26SAPC   C27 3443   5.042   0.984   7.120  0.3473 -0.1214  0.7848
   26SAPC   H7R 3444   5.025   1.063   7.044 -0.4973 -0.4565  0.6149
   26SAPC   H7S 3445   5.061   1.033   7.218 -0.5248  2.0347 -0.0627
   26SAPC   C28 3446   4.904   0.917   7.135  0.0150  0.5385 -0.1413
   26SAPC   H8R 3447   4.833   0.947   7.057  0.2343  0.6948 -0.2821
   26SAPC   C29 3448   4.860   0.836   7.234 -0.3140  0.1027  1.0901
   26SAPC   H9R 3449   4.757   0.798   7.227 -0.6354  1.1897 -0.5348
   26SAPC  C210 3450   4.936   0.792   7.356  0.4405 -0.3623  0.8066
   26SAPC  H10R 3451   5.013   0.868   7.381  1.4251 -0.0345 -2.6782
   26SAPC  H10S 3452   4.988   0.698   7.326 -1.4805 -1.0790 -0.4384
   26SAPC  C211 3453   4.853   0.767   7.479  0.2542 -0.7319  0.1824
   26SAPC  H11R 3454   4.767   0.836   7.474  1.7312  1.1490 -0.0461
   26SAPC  C212 3455   4.875   0.688   7.589  0.1257 -0.6232  0.5134
   26SAPC  H12R 3456   4.794   0.700   7.663  0.6626 -1.3917  1.2383
   26SAPC  C213 3457   4.986   0.598   7.617  0.2677  0.8478 -0.6919
   26SAPC  H13R 3458   5.043   0.574   7.525 -1.5140  1.5243 -2.0311
   26SAPC  H13S 3459   4.954   0.499   7.656 -1.1502  1.5233 -0.0689
   26SAPC  C214 3460   5.078   0.657   7.726  0.0544  0.2704 -0.1781
   26SAPC  H14R 3461   5.109   0.757   7.694  0.1576  0.5927  0.8896
   26SAPC  C215 3462   5.117   0.604   7.839 -1.1602 -1.0168  0.2564
   26SAPC  H15R 3463   5.189   0.654   7.906 -1.6900 -0.1062  0.1603
   26SAPC  C216 3464   5.088   0.470   7.893 -0.1025  1.0162 -0.9259
   26SAPC  H16R 3465   5.183   0.414   7.901  0.0198  1.4333  1.1381
   26SAPC  H16S 3466   5.019   0.410   7.830 -0.9979  1.9089 -0.8252
   26SAPC  C217 3467   5.040   0.456   8.041 -0.7914 -0.2245  0.2263
   26SAPC  H17R 3468   5.011   0.351   8.063 -1.0602 -0.7165 -2.2022
   26SAPC  H17S 3469   4.946   0.513   8.058  0.0638  1.1416  0.5355
   26SAPC  C218 3470   5.141   0.506   8.142 -0.8678 -0.5248  0.1893
   26SAPC  H18R 3471   5.140   0.616   8.128 -2.7323 -0.3212  1.6089
   26SAPC  H18S 3472   5.239   0.464   8.111 -0.6051 -0.1689  0.5398
   26SAPC  C219 3473   5.096   0.468   8.282 -0.0573 -0.5301 -0.1040
   26SAPC  H19R 3474   4.985   0.461   8.285 -0.3416  2.0896 -1.4452
   26SAPC  H19S 3475   5.108   0.556   8.348  1.1878 -1.5269  1.0714
   26SAPC  C220 3476   5.165   0.348   8.349  0.3247 -0.5357 -0.4639
   26SAPC  H20R 3477   5.271   0.374   8.368  0.0530 -0.7924  1.6689
   26SAPC  H20S 3478   5.163   0.262   8.280 -0.5047 -0.0181 -1.1074
   26SAPC  H20T 3479   5.111   0.326   8.444  0.1177 -1.2930 -0.7577
   26SAPC   C33 3480   4.538   0.409   7.175  0.2919  0.0554  0.3143
   26SAPC   H3X 3481   4.560   0.337   7.094  1.5126 -0.5051  1.1203
   26SAPC   H3Y 3482   4.428   0.425   7.177  0.3219  1.5813 -3.4005
   26SAPC   C34 3483   4.590   0.339   7.301  0.0166  0.1624  0.1605
   26SAPC   H4X 3484   4.699   0.324   7.281 -0.0717  0.3860 -0.4943
   26SAPC   H4Y 3485   4.538   0.240   7.299  1.9382 -0.8899 -1.1165
   26SAPC   C35 3486   4.562   0.422   7.420  0.5065  0.4178  0.2486
   26SAPC   H5X 3487   4.453   0.433   7.432 -0.0078 -2.9151 -0.1980
   26SAPC   H5Y 3488   4.618   0.517   7.419 -1.2499  1.6047  3.3284
   26SAPC   C36 3489   4.615   0.340   7.536 -0.0639  0.5352 -0.6094
   26SAPC   H6X 3490   4.724   0.329   7.519 -0.3754 -0.5949 -2.0294
   26SAPC   H6Y 3491   4.573   0.237   7.535 -0.0368  0.5256 -0.7394
   26SAPC   C37 3492   4.589   0.398   7.674 -0.4314  0.7184  0.2813
   26SAPC   H7X 3493   4.480   0.416   7.687 -0.6311  0.1753 -0.5035
   26SAPC   H7Y 3494   4.632   0.500   7.680 -0.6304  0.8529 -0.4362
   26SAPC   C38 3495   4.663   0.321   7.786  0.6170 -0.5588 -0.2313
   26SAPC   H8X 3496   4.765   0.319   7.743 -0.0323  1.4150 -2.0554
   26SAPC   H8Y 3497   4.627   0.218   7.810  1.2908 -0.2981  2.1804
   26SAPC   C39 3498   4.655   0.398   7.923 -1.0534  0.3814 -0.2964
   26SAPC   H9X 3499   4.550   0.432   7.940 -0.9373  0.0355  1.2851
   26SAPC   H9Y 3500   4.708   0.495   7.919  1.4985 -0.7864  2.0525
   26SAPC  C310 3501   4.700   0.308   8.034 -0.0987  0.3128 -0.2965
   26SAPC  H10X 3502   4.804   0.275   8.010 -0.1036  1.0003 -1.3046
   26SAPC  H10Y 3503   4.637   0.218   8.042  1.5530 -0.8385  0.4198
   26SAPC  C311 3504   4.684   0.375   8.169 -0.6094  0.4627  0.1116
   26SAPC  H11X 3505   4.577   0.397   8.190 -0.3994  2.2289 -0.4592
   26SAPC  H11Y 3506   4.748   0.466   8.167  2.9255 -1.7393  2.5843
   26SAPC  C312 3507   4.752   0.290   8.283  0.3313 -0.2868  0.6846
   26SAPC  H12X 3508   4.862   0.279   8.271  0.1784 -1.0125 -0.1563
   26SAPC  H12Y 3509   4.705   0.189   8.283  1.0801 -0.6876 -1.0982
   26SAPC  C313 3510   4.731   0.359   8.416 -0.1802  0.0790  0.4926
   26SAPC  H13X 3511   4.774   0.461   8.405  0.2499 -0.3500 -2.8889
   26SAPC  H13Y 3512   4.794   0.305   8.489  0.8884  1.0765  0.3308
   26SAPC  C314 3513   4.581   0.354   8.454 -0.0478  0.1081  0.5155
   26SAPC  H14X 3514   4.562   0.264   8.516 -0.1965  1.0738  1.9270
   26SAPC  H14Y 3515   4.515   0.328   8.368  1.3571 -0.6832 -0.3489
   26SAPC  C315 3516   4.520   0.476   8.528 -0.6386 -0.3154  0.0590
   26SAPC  H15X 3517   4.529   0.557   8.452  1.2160 -2.4730 -2.1681
   26SAPC  H15Y 3518   4.588   0.490   8.615 -2.0030  1.2773  0.9295
   26SAPC  C316 3519   4.378   0.446   8.570  0.1720 -0.4221  0.7812
   26SAPC  H16X 3520   4.390   0.374   8.654  0.2812 -0.4261  0.7627
   26SAPC  H16Y 3521   4.322   0.416   8.479  2.0765 -0.0297 -0.6093
   26SAPC  C317 3522   4.299   0.574   8.614 -0.7305 -0.1526  0.3519
   26SAPC  H17X 3523   4.286   0.634   8.522 -0.8950 -0.4339  0.1889
   26SAPC  H17Y 3524   4.354   0.651   8.671 -1.2609  1.8990 -1.7641
   26SAPC  C318 3525   4.161   0.530   8.657 -0.3489  0.2796  0.8509
   26SAPC  H18X 3526   4.095   0.484   8.580  0.5217  0.4681 -0.0225
   26SAPC  H18Y 3527   4.105   0.621   8.689 -1.0232  0.6224 -1.1780
   26SAPC  H18Z 3528   4.167   0.464   8.747  2.5058 -0.3002  0.3214
   27SAPC     N 3529   3.280   0.288   6.380  0.1979 -0.7601 -0.3556
   27SAPC   C12 3530   3.133   0.236   6.413 -0.6003  0.1749  0.2180
   27SAPC  H12A 3531   3.129   0.130   6.393 -1.5239  0.5470 -1.8149
   27SAPC  H12B 3532   3.060   0.291   6.356 -0.1911  0.0934 -0.3948
   27SAPC   C13 3533   3.285   0.313   6.236 -0.5814  0.0681  0.0482
   27SAPC  H13A 3534   3.212   0.384   6.198 -0.7519 -0.4279 -0.5691
   27SAPC  H13B 3535   3.387   0.337   6.209 -0.8214  1.7115  0.4504
   27SAPC  H13C 3536   3.269   0.224   6.178  0.4993  0.0202 -0.2083
   27SAPC   C14 3537   3.297   0.418   6.454  0.3845  0.8419 -0.1043
   27SAPC  H14A 3538   3.396   0.459   6.440 -0.3630  3.2169  1.0105
   27SAPC  H14B 3539   3.219   0.488   6.428 -0.7616  0.7073  2.6496
   27SAPC  H14C 3540   3.282   0.405   6.560  1.2603  0.8425  0.0255
   27SAPC   C15 3541   3.391   0.199   6.428  0.6219  0.5002 -0.5728
   27SAPC  H15A 3542   3.382   0.181   6.534 -1.1562  1.3850 -0.5487
   27SAPC  H15B 3543   3.386   0.099   6.387 -0.5858  0.2939  0.0419
   27SAPC  H15C 3544   3.483   0.249   6.402 -0.3460  1.2319 -2.9315
   27SAPC   C11 3545   3.086   0.235   6.560  0.4563 -0.0920  0.2892
   27SAPC  H11A 3546   2.985   0.191   6.566  0.1369  0.6548  0.4880
   27SAPC  H11B 3547   3.060   0.336   6.598  0.1462 -0.4536  1.0518
   27SAPC     P 3548   3.185   0.022   6.676  0.2072  0.2860  0.1553
   27SAPC   O13 3549   3.166  -0.036   6.539  0.4903 -0.4437 -0.3249
   27SAPC   O14 3550   3.313  -0.016   6.750  0.3580  0.1392 -0.1593
   27SAPC   O12 3551   3.180   0.177   6.652 -0.6970  0.0169  0.5343
   27SAPC   O11 3552   3.065  -0.020   6.768 -0.8809 -0.2781  0.4937
   27SAPC    C1 3553   3.015   0.064   6.871 -0.0773 -0.0419  0.5878
   27SAPC    HA 3554   3.027   0.170   6.843  1.2613  0.3462  2.4147
   27SAPC    HB 3555   2.905   0.049   6.875 -0.2524 -0.4172 -2.6583
   27SAPC    C2 3556   3.081   0.042   7.010 -0.7934 -0.3527 -0.2429
   27SAPC    HS 3557   3.003   0.066   7.085 -1.3437 -1.6317 -0.3796
   27SAPC   O21 3558   3.202   0.123   7.028 -0.1243 -0.7194  0.0542
   27SAPC   C21 3559   3.182   0.252   7.039  0.6289 -0.0734 -0.3356
   27SAPC   O22 3560   3.075   0.307   7.062 -0.1985 -0.0221  0.0706
   27SAPC   C22 3561   3.318   0.332   7.043  0.1837  0.8060  0.1927
   27SAPC   H2R 3562   3.375   0.280   6.963 -2.0421 -1.3003 -0.1564
   27SAPC   H2S 3563   3.291   0.437   7.020  1.8743  0.8088 -2.1185
   27SAPC    C3 3564   3.111  -0.109   7.041  0.1734 -0.2903  0.2822
   27SAPC    HX 3565   3.193  -0.143   6.974  0.2501 -1.7337  1.0724
   27SAPC    HY 3566   3.026  -0.179   7.022  1.0143 -1.1157 -0.5364
   27SAPC   O31 3567   3.148  -0.124   7.179  0.3269 -0.1853  0.3314
   27SAPC   C31 3568   3.265  -0.155   7.215 -0.2133  0.1797  0.1503
   27SAPC   O32 3569   3.363  -0.186   7.147  0.1824  0.4342 -0.0901
   27SAPC   C32 3570   3.272  -0.154   7.373 -0.4020 -0.0673 -0.6887
   27SAPC   H2X 3571   3.194  -0.221   7.415 -0.3222 -0.2260 -0.7942
   27SAPC   H2Y 3572   3.248  -0.050   7.402 -1.5774 -0.4515 -0.2233
   27SAPC   C23 3573   3.385   0.304   7.179 -0.1480  0.4453  0.0437
   27SAPC   H3R 3574   3.402   0.196   7.198  2.2110  0.8577  0.6663
   27SAPC   H3S 3575   3.334   0.359   7.261  0.9081  2.1591 -0.3958
   27SAPC   C24 3576   3.518   0.381   7.183  0.0100  0.0591 -0.2375
   27SAPC   H4R 3577   3.596   0.329   7.124  1.2630 -0.3773  1.7307
   27SAPC   H4S 3578   3.551   0.370   7.288  0.1795 -0.0126 -0.2989
   27SAPC   C25 3579   3.518   0.531   7.151 -0.3145  0.4011  0.5441
   27SAPC   H5R 3580   3.441   0.578   7.089 -1.0433  0.0087  1.1245
   27SAPC   C26 3581   3.613   0.614   7.208  0.3190  0.2962  0.3845
   27SAPC   H6R 3582   3.609   0.719   7.173  0.9860  0.5423  1.0202
   27SAPC   C27 3583   3.726   0.597   7.301 -0.5201  0.4558 -0.8538
   27SAPC   H7R 3584   3.822   0.610   7.248 -0.9769 -0.7878 -2.0660
   27SAPC   H7S 3585   3.734   0.490   7.329 -0.6804  0.4793 -0.7142
   27SAPC   C28 3586   3.727   0.696   7.414 -0.0041 -0.1786  0.0460
   27SAPC   H8R 3587   3.744   0.801   7.385  1.4397 -0.7163 -1.2039
   27SAPC   C29 3588   3.730   0.655   7.545  0.5138  0.5494  0.4117
   27SAPC   H9R 3589   3.725   0.726   7.629  1.7827  0.3129  0.6996
   27SAPC  C210 3590   3.718   0.516   7.599  0.1030  0.2405  0.3893
   27SAPC  H10R 3591   3.763   0.435   7.539  1.1918  1.5834 -0.6613
   27SAPC  H10S 3592   3.610   0.488   7.597  0.8750 -3.1404 -0.6424
   27SAPC  C211 3593   3.787   0.508   7.740  0.0264 -0.4074  0.2938
   27SAPC  H11R 3594   3.895   0.497   7.727 -0.1091  0.2158 -1.8442
   27SAPC  C212 3595   3.723   0.522   7.860  0.0966  0.1137  0.7992
   27SAPC  H12R 3596   3.796   0.533   7.942  1.4520  0.7089 -0.4197
   27SAPC  C213 3597   3.574   0.538   7.879  0.5831 -0.1337 -0.5118
   27SAPC  H13R 3598   3.521   0.521   7.782 -2.4473 -0.7419  1.1428
   27SAPC  H13S 3599   3.566   0.636   7.931  0.5671  0.2430 -1.2014
   27SAPC  C214 3600   3.528   0.422   7.965  0.4855  0.1219  0.4370
   27SAPC  H14R 3601   3.546   0.437   8.072  0.1512 -0.5367  0.5862
   27SAPC  C215 3602   3.461   0.315   7.925 -0.3472  1.0401 -0.3529
   27SAPC  H15R 3603   3.455   0.236   8.001 -1.8431  1.8192  0.3725
   27SAPC  C216 3604   3.423   0.270   7.782  0.0650 -0.9442 -0.3118
   27SAPC  H16R 3605   3.416   0.159   7.769 -1.5008 -0.7066 -1.8730
   27SAPC  H16S 3606   3.497   0.290   7.702  0.0220  2.1458  0.3245
   27SAPC  C217 3607   3.284   0.312   7.734  0.4702 -0.5496 -0.0695
   27SAPC  H17R 3608   3.290   0.422   7.721 -0.4039 -0.3575  0.9768
   27SAPC  H17S 3609   3.206   0.281   7.807 -0.5048  0.8386 -0.4760
   27SAPC  C218 3610   3.248   0.254   7.600 -0.4747  0.1049  0.1586
   27SAPC  H18R 3611   3.222   0.146   7.609  0.5954 -0.2232 -0.5973
   27SAPC  H18S 3612   3.338   0.251   7.535  0.0326 -1.4318  0.8822
   27SAPC  C219 3613   3.144   0.325   7.523 -0.2007  0.6585  0.9472
   27SAPC  H19R 3614   3.049   0.328   7.580 -0.8290  0.2743 -0.0587
   27SAPC  H19S 3615   3.123   0.262   7.434  1.2322  2.5008 -0.7936
   27SAPC  C220 3616   3.190   0.464   7.469 -0.4305  0.1052  0.0380
   27SAPC  H20R 3617   3.297   0.458   7.496 -0.8636 -3.9661  1.4839
   27SAPC  H20S 3618   3.135   0.545   7.522 -2.0617 -0.1291 -1.2378
   27SAPC  H20T 3619   3.188   0.485   7.359 -1.1052  2.2649  0.4053
   27SAPC   C33 3620   3.407  -0.182   7.445 -0.2998  0.5117 -0.3486
   27SAPC   H3X 3621   3.483  -0.104   7.424 -0.1296 -0.1976 -2.6520
   27SAPC   H3Y 3622   3.454  -0.264   7.386  1.4808  1.7480 -0.7401
   27SAPC   C34 3623   3.402  -0.211   7.601 -0.2412 -0.4756  0.2209
   27SAPC   H4X 3624   3.303  -0.259   7.618 -0.1067 -0.3628  1.4127
   27SAPC   H4Y 3625   3.418  -0.109   7.642 -0.9332 -0.1892 -0.1983
   27SAPC   C35 3626   3.507  -0.313   7.660 -0.1164  0.3003  0.5244
   27SAPC   H5X 3627   3.603  -0.270   7.626 -0.4843  1.8863  1.4026
   27SAPC   H5Y 3628   3.474  -0.410   7.617 -0.6955  0.8319 -0.2468
   27SAPC   C36 3629   3.487  -0.332   7.813 -0.2911 -0.3612  0.2317
   27SAPC   H6X 3630   3.380  -0.348   7.838 -0.1602  0.7940  1.7033
   27SAPC   H6Y 3631   3.501  -0.234   7.864 -3.7255 -1.2074  3.1996
   27SAPC   C37 3632   3.562  -0.440   7.890 -0.5626 -0.0843  0.1175
   27SAPC   H7X 3633   3.672  -0.438   7.874 -0.2175 -0.0260  2.2127
   27SAPC   H7Y 3634   3.528  -0.535   7.844  0.2576  0.6725 -2.1877
   27SAPC   C38 3635   3.539  -0.419   8.043 -0.4339  0.5063 -0.3639
   27SAPC   H8X 3636   3.443  -0.460   8.082  1.4029 -0.9317  2.9758
   27SAPC   H8Y 3637   3.543  -0.311   8.072 -0.8940  0.6744 -0.9032
   27SAPC   C39 3638   3.655  -0.503   8.098 -0.4927  0.0225 -0.2532
   27SAPC   H9X 3639   3.757  -0.479   8.063  0.3639 -2.6393  0.2081
   27SAPC   H9Y 3640   3.634  -0.602   8.054 -1.0755  0.1720 -0.3196
   27SAPC  C310 3641   3.652  -0.509   8.251 -0.7854 -0.3082  0.1659
   27SAPC  H10X 3642   3.621  -0.410   8.290 -3.4204 -1.3800  0.9768
   27SAPC  H10Y 3643   3.759  -0.518   8.281 -1.3067  0.7031  2.4731
   27SAPC  C311 3644   3.567  -0.619   8.315  0.0538 -0.1731 -0.1031
   27SAPC  H11X 3645   3.613  -0.718   8.297  1.6311  0.7806 -1.5618
   27SAPC  H11Y 3646   3.469  -0.645   8.268 -0.2925 -1.0468  1.0633
   27SAPC  C312 3647   3.557  -0.608   8.462  0.7619 -0.7597 -0.2831
   27SAPC  H12X 3648   3.504  -0.695   8.507  1.0293 -0.0152  1.5861
   27SAPC  H12Y 3649   3.489  -0.522   8.482 -0.6721 -1.2551 -2.6679
   27SAPC  C313 3650   3.692  -0.592   8.542 -0.1244 -0.0955 -0.3445
   27SAPC  H13X 3651   3.746  -0.501   8.508  1.5332 -0.7753  0.3287
   27SAPC  H13Y 3652   3.767  -0.671   8.521  0.8445  0.4659  0.8813
   27SAPC  C314 3653   3.666  -0.580   8.699  0.4709 -0.3507  0.4075
   27SAPC  H14X 3654   3.598  -0.658   8.739 -0.9204  0.6713  0.1212
   27SAPC  H14Y 3655   3.620  -0.481   8.718  2.9075  0.7460  1.0204
   27SAPC  C315 3656   3.792  -0.598   8.790  0.0305 -0.2888  0.3893
   27SAPC  H15X 3657   3.816  -0.706   8.797 -1.7821 -0.6828  1.2707
   27SAPC  H15Y 3658   3.760  -0.550   8.885 -1.1481  0.7113 -0.4799
   27SAPC  C316 3659   3.909  -0.511   8.757 -0.2968 -0.4853  0.2461
   27SAPC  H16X 3660   3.877  -0.404   8.760  1.6317  0.1210  0.8683
   27SAPC  H16Y 3661   3.943  -0.531   8.653  2.5394 -2.4887  1.4266
   27SAPC  C317 3662   4.035  -0.521   8.854  0.2675 -0.1366  0.2891
   27SAPC  H17X 3663   4.047  -0.630   8.873 -0.5249 -0.3086 -0.1410
   27SAPC  H17Y 3664   4.012  -0.467   8.948  0.8120  2.0023 -0.7376
   27SAPC  C318 3665   4.155  -0.471   8.773  0.4470  0.1635 -0.0882
   27SAPC  H18X 3666   4.186  -0.554   8.705 -0.6741 -0.0904 -0.3055
   27SAPC  H18Y 3667   4.240  -0.453   8.842  1.2772 -0.7494 -0.8317
   27SAPC  H18Z 3668   4.142  -0.382   8.709  2.4745 -0.1584 -1.0279
   28SAPC     N 3669   2.377   2.123   6.241  0.3894  0.2903 -1.1141
   28SAPC   C12 3670   2.486   2.088   6.344 -0.4643 -1.1478 -0.0093
   28SAPC  H12A 3671   2.584   2.075   6.300  0.7774 -0.1497  2.2728
   28SAPC  H12B 3672   2.461   1.988   6.375  0.4296 -1.9606 -1.8073
   28SAPC   C13 3673   2.381   2.010   6.142 -0.3183  0.6707  0.1665
   28SAPC  H13A 3674   2.475   1.979   6.099 -0.7601 -1.5677  0.6672
   28SAPC  H13B 3675   2.341   1.919   6.184  0.0572  0.5067  0.1738
   28SAPC  H13C 3676   2.316   2.027   6.057 -2.3603 -3.2326  0.7098
   28SAPC   C14 3677   2.242   2.153   6.300  0.5663  0.1831 -0.4460
   28SAPC  H14A 3678   2.204   2.079   6.368  1.6896 -0.4856 -0.5323
   28SAPC  H14B 3679   2.243   2.250   6.349 -1.0656  0.7471 -1.4165
   28SAPC  H14C 3680   2.165   2.164   6.225  1.1253  0.9701 -0.9156
   28SAPC   C15 3681   2.421   2.242   6.173 -0.8812 -0.1094  1.0251
   28SAPC  H15A 3682   2.347   2.280   6.105  0.2410 -2.2333 -1.5557
   28SAPC  H15B 3683   2.448   2.324   6.238  1.4154 -0.6574  0.8652
   28SAPC  H15C 3684   2.509   2.213   6.117 -0.8201  0.3378  0.8870
   28SAPC   C11 3685   2.511   2.186   6.471 -0.0609  0.3491 -0.0703
   28SAPC  H11A 3686   2.594   2.150   6.534  0.1794 -0.6713 -0.9338
   28SAPC  H11B 3687   2.419   2.171   6.532 -1.3751  1.9880 -1.5127
   28SAPC     P 3688   2.440   2.438   6.493  0.6844  0.0268 -0.2502
   28SAPC   O13 3689   2.505   2.570   6.489 -0.1059 -0.4414  0.4860
   28SAPC   O14 3690   2.310   2.429   6.421  0.1146 -0.1075  0.0088
   28SAPC   O12 3691   2.533   2.325   6.440 -0.1522 -0.3362 -0.7106
   28SAPC   O11 3692   2.411   2.416   6.644  0.0368  0.3488  0.2167
   28SAPC    C1 3693   2.514   2.402   6.743  0.1891  0.0526 -0.0384
   28SAPC    HA 3694   2.547   2.296   6.750  1.4241  0.5279  1.6277
   28SAPC    HB 3695   2.605   2.452   6.705  0.6889 -0.8770 -0.0825
   28SAPC    C2 3696   2.482   2.466   6.884 -0.3200 -0.4809  0.3468
   28SAPC    HS 3697   2.520   2.396   6.962  0.0323 -1.7796 -0.9397
   28SAPC   O21 3698   2.339   2.485   6.900  0.2744 -0.5734  0.4278
   28SAPC   C21 3699   2.262   2.376   6.893  0.7614  0.5526  0.3303
   28SAPC   O22 3700   2.305   2.265   6.892  0.1766  0.3324 -0.2914
   28SAPC   C22 3701   2.116   2.424   6.879 -0.1914 -0.7087  0.4610
   28SAPC   H2R 3702   2.094   2.513   6.941 -0.2201  0.3492 -0.9940
   28SAPC   H2S 3703   2.116   2.469   6.777  0.5275 -2.4798 -0.3676
   28SAPC    C3 3704   2.547   2.599   6.903  0.4634  0.1560  0.5490
   28SAPC    HX 3705   2.518   2.673   6.826  0.3133 -0.3797  0.0805
   28SAPC    HY 3706   2.655   2.586   6.880  0.4710  0.6815  0.2888
   28SAPC   O31 3707   2.529   2.642   7.038  0.1014 -0.2448  0.0418
   28SAPC   C31 3708   2.425   2.709   7.083 -0.0970  1.2183  0.0622
   28SAPC   O32 3709   2.338   2.756   7.007 -0.1510 -0.1058 -0.2087
   28SAPC   C32 3710   2.432   2.729   7.233 -0.2932 -0.8657 -0.9303
   28SAPC   H2X 3711   2.481   2.825   7.258 -1.0010 -0.9507  0.9420
   28SAPC   H2Y 3712   2.489   2.642   7.272  1.7468  1.2221  1.0555
   28SAPC   C23 3713   1.997   2.324   6.891 -0.5264 -1.1302 -0.0468
   28SAPC   H3R 3714   1.999   2.243   6.814  0.1257 -0.7014 -0.4907
   28SAPC   H3S 3715   1.907   2.385   6.869 -1.0312 -1.4583  1.0316
   28SAPC   C24 3716   1.975   2.281   7.041  0.1251  0.1363 -0.8433
   28SAPC   H4R 3717   1.875   2.233   7.029  0.1692 -0.2443  0.2008
   28SAPC   H4S 3718   2.055   2.206   7.057  0.0175  0.3686  0.9025
   28SAPC   C25 3719   1.966   2.383   7.144  0.5601  0.5860 -1.0262
   28SAPC   H5R 3720   1.870   2.435   7.129 -0.5480 -1.4457 -1.2446
   28SAPC   C26 3721   2.047   2.414   7.247 -0.0526 -0.7032 -0.8664
   28SAPC   H6R 3722   2.023   2.505   7.304 -1.4723 -1.7494  0.2813
   28SAPC   C27 3723   2.174   2.336   7.275 -0.0241  0.3206 -0.6915
   28SAPC   H7R 3724   2.265   2.400   7.281  2.4339 -3.0366  1.1085
   28SAPC   H7S 3725   2.191   2.271   7.187 -1.0411 -0.5194 -0.3011
   28SAPC   C28 3726   2.172   2.244   7.401  0.0738 -0.0054  0.3656
   28SAPC   H8R 3727   2.151   2.138   7.381  0.8972  0.1445 -1.5003
   28SAPC   C29 3728   2.175   2.288   7.526  0.1868 -0.5594  0.0828
   28SAPC   H9R 3729   2.188   2.209   7.601 -1.6238 -1.6693 -0.6868
   28SAPC  C210 3730   2.190   2.427   7.572 -1.4831 -0.0083 -0.1480
   28SAPC  H10R 3731   2.091   2.467   7.603 -0.9201 -1.1696  3.7250
   28SAPC  H10S 3732   2.222   2.490   7.487 -0.3132 -2.2904 -1.5175
   28SAPC  C211 3733   2.288   2.441   7.688  0.6365  0.1605 -0.6179
   28SAPC  H11R 3734   2.393   2.465   7.663  0.3404 -0.0211 -2.1307
   28SAPC  C212 3735   2.248   2.419   7.813  0.2072  0.0893 -0.4916
   28SAPC  H12R 3736   2.322   2.427   7.894 -0.5692 -1.2275  0.3933
   28SAPC  C213 3737   2.111   2.400   7.863  0.0154  0.2292 -0.1179
   28SAPC  H13R 3738   2.052   2.488   7.828  0.0675  0.1918 -0.3028
   28SAPC  H13S 3739   2.107   2.416   7.973  0.7225 -0.8010  0.0762
   28SAPC  C214 3740   2.049   2.266   7.830 -0.0949  0.0091  0.0066
   28SAPC  H14R 3741   1.998   2.260   7.733 -1.2984 -0.6949  0.6548
   28SAPC  C215 3742   2.044   2.158   7.910  0.7321 -0.0476  0.3627
   28SAPC  H15R 3743   1.992   2.072   7.866  2.4529 -1.0844  0.2589
   28SAPC  C216 3744   2.101   2.150   8.048  0.5538 -0.1574  0.4321
   28SAPC  H16R 3745   2.151   2.241   8.089  1.9920 -0.9318  0.4671
   28SAPC  H16S 3746   2.176   2.068   8.044 -0.7517 -1.3391 -0.5888
   28SAPC  C217 3747   1.997   2.106   8.157 -0.6405 -0.2603 -0.4035
   28SAPC  H17R 3748   2.051   2.075   8.248 -3.3455 -2.7710  0.5047
   28SAPC  H17S 3749   1.948   2.009   8.134 -1.6784  0.4882 -1.4780
   28SAPC  C218 3750   1.898   2.216   8.188  0.2676  0.6169  0.9980
   28SAPC  H18R 3751   1.854   2.255   8.094  0.4782 -4.5187 -1.5724
   28SAPC  H18S 3752   1.941   2.309   8.232 -2.1006  2.0621  0.4764
   28SAPC  C219 3753   1.782   2.169   8.275 -0.8084  0.9696  0.5953
   28SAPC  H19R 3754   1.823   2.112   8.361 -1.8385  0.4883  0.7735
   28SAPC  H19S 3755   1.722   2.095   8.218 -1.8914 -0.7128  3.6924
   28SAPC  C220 3756   1.686   2.279   8.314 -0.0586 -0.1353  0.1018
   28SAPC  H20R 3757   1.630   2.322   8.228 -3.2519  0.9096  2.5107
   28SAPC  H20S 3758   1.744   2.361   8.361  0.7980 -1.3425  1.2250
   28SAPC  H20T 3759   1.608   2.235   8.379  1.4926  0.1775  2.2949
   28SAPC   C33 3760   2.299   2.754   7.306  0.8406 -0.4508  0.0410
   28SAPC   H3X 3761   2.235   2.665   7.292  0.2350  0.0205 -0.2112
   28SAPC   H3Y 3762   2.240   2.836   7.260 -0.1928 -0.1082  1.8877
   28SAPC   C34 3763   2.328   2.772   7.454 -0.5635 -0.1681  0.2069
   28SAPC   H4X 3764   2.398   2.858   7.464 -0.9097  0.0988  0.3484
   28SAPC   H4Y 3765   2.386   2.684   7.492 -0.6463  0.5379  2.0481
   28SAPC   C35 3766   2.207   2.796   7.541 -0.2760 -0.0062 -0.2401
   28SAPC   H5X 3767   2.142   2.711   7.510 -1.3436  1.0986 -1.1377
   28SAPC   H5Y 3768   2.152   2.884   7.502 -0.1325 -0.9312 -2.6815
   28SAPC   C36 3769   2.230   2.797   7.692  0.4933  0.5042  0.2105
   28SAPC   H6X 3770   2.307   2.875   7.711  0.3690  1.2857 -2.2038
   28SAPC   H6Y 3771   2.286   2.706   7.723 -1.7212 -1.2250 -0.5811
   28SAPC   C37 3772   2.099   2.809   7.779  0.4308 -0.3387 -0.0982
   28SAPC   H7X 3773   2.025   2.741   7.732  0.6422  0.3751 -1.4959
   28SAPC   H7Y 3774   2.065   2.915   7.776  2.2137  0.2494 -2.8948
   28SAPC   C38 3775   2.123   2.762   7.924  0.2568  0.5310 -1.0252
   28SAPC   H8X 3776   2.221   2.796   7.961 -0.8950  0.8124  2.0690
   28SAPC   H8Y 3777   2.118   2.651   7.930 -1.9949  0.6558  0.6595
   28SAPC   C39 3778   2.009   2.804   8.021  0.3656  0.2305  0.4590
   28SAPC   H9X 3779   1.913   2.770   7.978  0.8594 -1.4183  0.5944
   28SAPC   H9Y 3780   2.016   2.915   8.027 -2.6586  0.4480  1.4140
   28SAPC  C310 3781   2.037   2.740   8.160  0.5690 -0.2351 -0.4615
   28SAPC  H10X 3782   2.124   2.795   8.201  0.6004  0.7913 -1.8469
   28SAPC  H10Y 3783   2.058   2.631   8.161 -1.6887 -0.7565  1.5567
   28SAPC  C311 3784   1.904   2.733   8.242  0.0448  0.0513 -0.7690
   28SAPC  H11X 3785   1.916   2.665   8.329  1.8920 -0.8355 -1.6542
   28SAPC  H11Y 3786   1.833   2.691   8.168 -1.4540 -0.4111  0.8841
   28SAPC  C312 3787   1.842   2.872   8.289 -0.0535 -0.2070  0.1597
   28SAPC  H12X 3788   1.748   2.844   8.342 -0.9413  1.8843 -0.2142
   28SAPC  H12Y 3789   1.815   2.941   8.207  0.5274  2.0489  1.7621
   28SAPC  C313 3790   1.921   2.947   8.395 -0.1912  0.1120  0.5142
   28SAPC  H13X 3791   2.022   2.966   8.354  0.1956 -0.1245  1.3558
   28SAPC  H13Y 3792   1.922   2.888   8.489 -0.7663 -0.8270 -0.0571
   28SAPC  C314 3793   1.863   3.089   8.422 -0.1416 -0.0549  0.3319
   28SAPC  H14X 3794   1.754   3.073   8.435 -0.2165 -0.4690 -0.6726
   28SAPC  H14Y 3795   1.880   3.147   8.329 -0.8008 -0.8882 -0.3275
   28SAPC  C315 3796   1.925   3.153   8.538  0.0098 -0.3253  0.3838
   28SAPC  H15X 3797   2.022   3.189   8.497 -0.0382 -0.6328 -0.0081
   28SAPC  H15Y 3798   1.931   3.081   8.623 -0.4643  0.2188  0.8926
   28SAPC  C316 3799   1.859   3.279   8.591  0.3918  0.8820  0.2808
   28SAPC  H16X 3800   1.920   3.316   8.675 -0.2018  1.8981  0.2850
   28SAPC  H16Y 3801   1.761   3.242   8.629 -0.0949  1.7424 -0.1070
   28SAPC  C317 3802   1.821   3.384   8.482 -0.2044  0.0839  0.1201
   28SAPC  H17X 3803   1.748   3.332   8.417  0.4690 -0.3175 -0.3157
   28SAPC  H17Y 3804   1.903   3.411   8.412  1.5140 -2.2656  1.0899
   28SAPC  C318 3805   1.763   3.507   8.547  0.1900 -0.4911  0.0674
   28SAPC  H18X 3806   1.836   3.547   8.620  1.2691  0.2520 -1.3700
   28SAPC  H18Y 3807   1.665   3.482   8.592 -0.4063 -1.1505 -1.5226
   28SAPC  H18Z 3808   1.748   3.591   8.476  1.7838  0.6569  1.0113
   29SAPC     N 3809   4.971   2.922   6.479 -0.0924 -0.5694  0.3899
   29SAPC   C12 3810   4.829   2.915   6.534  0.4364  0.1623  0.0707
   29SAPC  H12A 3811   4.823   2.968   6.628  4.5049  0.6096  0.2475
   29SAPC  H12B 3812   4.817   2.811   6.561 -0.5679 -0.6772 -3.1360
   29SAPC   C13 3813   4.999   2.836   6.362  0.1476  0.2735 -0.2045
   29SAPC  H13A 3814   4.948   2.865   6.272  1.2378 -2.9322 -1.9928
   29SAPC  H13B 3815   5.105   2.838   6.341  0.3894 -1.5533  0.6325
   29SAPC  H13C 3816   4.977   2.732   6.379  1.6345  0.0586  0.6406
   29SAPC   C14 3817   4.991   3.068   6.440 -0.3773 -0.2231  0.1268
   29SAPC  H14A 3818   5.087   3.095   6.398 -1.1220  0.4956 -1.1913
   29SAPC  H14B 3819   4.922   3.092   6.360 -1.8798  1.4740  1.8464
   29SAPC  H14C 3820   4.981   3.122   6.532 -1.3016 -2.3143  1.3324
   29SAPC   C15 3821   5.065   2.894   6.585  0.1759 -0.0809 -0.5077
   29SAPC  H15A 3822   5.165   2.897   6.543 -0.3761  0.0662 -1.8628
   29SAPC  H15B 3823   5.051   2.972   6.657 -1.7311 -0.1011 -0.8063
   29SAPC  H15C 3824   5.055   2.795   6.628  1.8154  0.0924  0.3456
   29SAPC   C11 3825   4.719   2.952   6.440  0.0723 -0.7739 -0.4211
   29SAPC  H11A 3826   4.732   3.060   6.417 -0.8614 -0.3277  1.0138
   29SAPC  H11B 3827   4.629   2.948   6.504 -0.8384  3.5270 -1.1446
   29SAPC     P 3828   4.644   2.720   6.332 -0.4883 -0.1260  0.2370
   29SAPC   O13 3829   4.522   2.737   6.251 -0.0394 -0.3187  0.2763
   29SAPC   O14 3830   4.741   2.622   6.285 -0.4776  0.0453 -0.3254
   29SAPC   O12 3831   4.713   2.862   6.332  0.0736  0.0852  0.0543
   29SAPC   O11 3832   4.603   2.699   6.487 -0.0688 -0.0148  0.1695
   29SAPC    C1 3833   4.670   2.606   6.565  0.0448 -0.7375  0.3266
   29SAPC    HA 3834   4.663   2.506   6.518  0.7779  0.4631 -2.6368
   29SAPC    HB 3835   4.777   2.638   6.564 -0.3174  0.5154 -0.0666
   29SAPC    C2 3836   4.618   2.607   6.708  0.8007 -0.7293 -0.2537
   29SAPC    HS 3837   4.599   2.715   6.725  1.7397 -0.5865 -0.0504
   29SAPC   O21 3838   4.724   2.568   6.807  0.0073  0.3397  0.5696
   29SAPC   C21 3839   4.810   2.664   6.833 -0.1012 -0.4934  0.0911
   29SAPC   O22 3840   4.800   2.777   6.787 -0.2642  0.5879 -0.2885
   29SAPC   C22 3841   4.908   2.617   6.941 -0.0853  0.9445 -0.3534
   29SAPC   H2R 3842   4.883   2.515   6.978  1.8789  0.5970  0.0791
   29SAPC   H2S 3843   5.003   2.603   6.885 -0.1707  0.9474 -0.5003
   29SAPC    C3 3844   4.489   2.522   6.726  0.3370  0.6805  0.3680
   29SAPC    HX 3845   4.517   2.419   6.693  1.1923  1.0555 -0.0876
   29SAPC    HY 3846   4.415   2.549   6.647 -0.9948 -0.7862  1.0588
   29SAPC   O31 3847   4.426   2.530   6.849  1.0742 -0.6472 -0.4976
   29SAPC   C31 3848   4.338   2.627   6.871  0.3013  0.2299  0.3019
   29SAPC   O32 3849   4.312   2.716   6.792  0.4694  0.2510  0.4236
   29SAPC   C32 3850   4.262   2.612   7.001 -0.2384 -0.5423 -0.2088
   29SAPC   H2X 3851   4.234   2.715   7.032  0.8167  0.7114 -3.0921
   29SAPC   H2Y 3852   4.322   2.558   7.077  0.1768  0.5367  0.2501
   29SAPC   C23 3853   4.909   2.723   7.052 -0.4674 -0.1531  0.0711
   29SAPC   H3R 3854   4.809   2.764   7.079  0.6723  1.5970  1.9422
   29SAPC   H3S 3855   4.978   2.802   7.016  2.0545 -1.8066  0.9978
   29SAPC   C24 3856   4.965   2.661   7.186  0.0673 -0.2940  0.8992
   29SAPC   H4R 3857   4.922   2.561   7.212 -2.6609  0.2329 -1.1093
   29SAPC   H4S 3858   4.927   2.741   7.252 -0.4366  1.9447 -1.9010
   29SAPC   C25 3859   5.115   2.649   7.179  0.5505  0.0967 -0.0810
   29SAPC   H5R 3860   5.143   2.590   7.091  1.7160  1.1786 -0.4662
   29SAPC   C26 3861   5.196   2.712   7.269  0.2484 -0.4508  0.4192
   29SAPC   H6R 3862   5.305   2.694   7.263  0.4612  0.5731  1.0056
   29SAPC   C27 3863   5.162   2.808   7.383 -0.4454 -0.0906  0.7678
   29SAPC   H7R 3864   5.052   2.816   7.400 -0.9402 -3.2325 -0.2618
   29SAPC   H7S 3865   5.194   2.910   7.353  1.4076 -0.6443  0.7520
   29SAPC   C28 3866   5.242   2.772   7.507  0.2809  0.5157  0.4118
   29SAPC   H8R 3867   5.349   2.753   7.488 -0.0309  1.4705 -2.9025
   29SAPC   C29 3868   5.192   2.782   7.634 -0.3937 -0.3587 -0.1935
   29SAPC   H9R 3869   5.248   2.745   7.721  0.4517  0.4866 -0.3649
   29SAPC  C210 3870   5.052   2.826   7.672 -0.2128  0.6474 -1.0506
   29SAPC  H10R 3871   5.002   2.895   7.601 -2.6661  1.3646  1.2029
   29SAPC  H10S 3872   5.058   2.879   7.769  0.8416 -2.3618  0.6732
   29SAPC  C211 3873   4.958   2.704   7.704 -0.3310 -0.1837 -0.0429
   29SAPC  H11R 3874   4.979   2.658   7.801 -2.7043  2.2118  1.7437
   29SAPC  C212 3875   4.867   2.654   7.626 -0.5535 -0.4589 -0.3264
   29SAPC  H12R 3876   4.820   2.566   7.671 -1.2473  0.2445  0.3613
   29SAPC  C213 3877   4.808   2.700   7.493 -0.5168 -0.5950 -0.4551
   29SAPC  H13R 3878   4.821   2.618   7.419 -0.5370 -1.5013  0.5229
   29SAPC  H13S 3879   4.859   2.790   7.451 -1.0290 -0.5172 -0.9248
   29SAPC  C214 3880   4.661   2.725   7.506 -0.2650 -0.1926  0.3790
   29SAPC  H14R 3881   4.628   2.757   7.606  0.1681 -0.8650  0.7427
   29SAPC  C215 3882   4.568   2.721   7.412  0.0703  0.3474  0.4282
   29SAPC  H15R 3883   4.468   2.761   7.436 -0.4182 -0.4380 -0.2391
   29SAPC  C216 3884   4.578   2.685   7.268 -0.2547  0.4183  0.0867
   29SAPC  H16R 3885   4.499   2.607   7.264  1.7174 -1.8448  1.8284
   29SAPC  H16S 3886   4.678   2.642   7.244 -0.2055  0.3795  0.3554
   29SAPC  C217 3887   4.562   2.797   7.160 -0.1851 -0.2471 -0.1393
   29SAPC  H17R 3888   4.553   2.750   7.059  1.1561 -0.6608 -0.0879
   29SAPC  H17S 3889   4.649   2.866   7.164 -0.0773 -0.1387 -2.6259
   29SAPC  C218 3890   4.439   2.886   7.182  0.1065  0.5014  0.0309
   29SAPC  H18R 3891   4.434   2.924   7.286 -0.8722 -0.2006  0.2523
   29SAPC  H18S 3892   4.346   2.829   7.160  0.3659 -1.6589  3.7848
   29SAPC  C219 3893   4.439   3.019   7.104  0.4798  0.8672 -0.6922
   29SAPC  H19R 3894   4.531   3.068   7.144  0.8473 -2.3040  2.9556
   29SAPC  H19S 3895   4.345   3.076   7.117 -0.2679 -0.5044  0.1586
   29SAPC  C220 3896   4.447   2.985   6.954 -0.3723 -0.2776  0.9729
   29SAPC  H20R 3897   4.537   2.923   6.934 -1.1901 -0.6100 -2.1181
   29SAPC  H20S 3898   4.459   3.079   6.897 -3.6111  0.5893  1.5195
   29SAPC  H20T 3899   4.357   2.934   6.914  0.1427 -0.1301 -0.4077
   29SAPC   C33 3900   4.123   2.531   6.989 -0.6023  0.7057 -0.5482
   29SAPC   H3X 3901   4.140   2.438   6.931  2.0182  1.3812 -1.0151
   29SAPC   H3Y 3902   4.054   2.586   6.921  1.6613  2.3705 -1.6437
   29SAPC   C34 3903   4.055   2.510   7.133  0.1278  0.3752 -0.4527
   29SAPC   H4X 3904   3.976   2.436   7.108  1.1439 -1.4380  1.3740
   29SAPC   H4Y 3905   4.022   2.608   7.172 -0.5217  0.6066 -1.5369
   29SAPC   C35 3906   4.145   2.445   7.240  0.1367  0.3100 -0.8801
   29SAPC   H5X 3907   4.224   2.514   7.277  1.9347 -2.2102  0.2466
   29SAPC   H5Y 3908   4.194   2.353   7.203 -1.2249 -0.5623 -0.5836
   29SAPC   C36 3909   4.064   2.416   7.367 -0.0143  0.6090 -0.0126
   29SAPC   H6X 3910   4.001   2.327   7.349  2.9009 -2.2668  2.6164
   29SAPC   H6Y 3911   4.009   2.511   7.389  1.2918  1.3328  0.2612
   29SAPC   C37 3912   4.157   2.381   7.492  0.4653  0.1608 -0.7293
   29SAPC   H7X 3913   4.239   2.454   7.479 -0.1332  0.8149 -0.8530
   29SAPC   H7Y 3914   4.191   2.276   7.475  1.4941  0.8154 -3.1009
   29SAPC   C38 3915   4.081   2.390   7.625 -0.6587 -0.1270 -0.0527
   29SAPC   H8X 3916   3.996   2.319   7.616 -1.1931  0.6018 -0.9395
   29SAPC   H8Y 3917   4.043   2.493   7.640  1.2085  0.7706 -1.1060
   29SAPC   C39 3918   4.167   2.353   7.753  0.4331 -0.0059 -0.7860
   29SAPC   H9X 3919   4.223   2.444   7.783  2.3125  0.2823 -4.5959
   29SAPC   H9Y 3920   4.242   2.273   7.737  0.4188  0.0485 -1.1233
   29SAPC  C310 3921   4.098   2.306   7.880 -0.0234  0.0391 -0.1525
   29SAPC  H10X 3922   4.185   2.288   7.947 -0.8411 -1.3439  0.5864
   29SAPC  H10Y 3923   4.038   2.213   7.868 -0.1891  0.1176  0.0604
   29SAPC  C311 3924   4.014   2.421   7.943  0.6864 -0.4870  0.4264
   29SAPC  H11X 3925   3.925   2.436   7.877  0.8642 -5.3339 -1.3042
   29SAPC  H11Y 3926   4.068   2.518   7.947 -1.4175  0.6989  2.4017
   29SAPC  C312 3927   3.963   2.397   8.084  0.3727  0.2007 -0.4095
   29SAPC  H12X 3928   3.889   2.314   8.079  2.8774 -2.0737 -2.7735
   29SAPC  H12Y 3929   3.900   2.474   8.135  1.0741 -0.0236  0.8529
   29SAPC  C313 3930   4.063   2.354   8.197  0.0712  0.0165  0.4984
   29SAPC  H13X 3931   4.132   2.439   8.217  0.6216 -0.0890 -0.8732
   29SAPC  H13Y 3932   4.134   2.273   8.169  1.5873  1.6679 -0.7275
   29SAPC  C314 3933   4.001   2.341   8.341 -0.4297  0.7504 -0.4219
   29SAPC  H14X 3934   3.938   2.250   8.341  2.3294 -1.3053 -2.2180
   29SAPC  H14Y 3935   3.935   2.431   8.341  1.0087  1.8559 -1.5075
   29SAPC  C315 3936   4.094   2.363   8.461 -0.1975 -0.2316 -0.3275
   29SAPC  H15X 3937   4.131   2.467   8.462 -1.4519  0.2314  0.4216
   29SAPC  H15Y 3938   4.180   2.295   8.439  0.5202  0.0834  1.3818
   29SAPC  C316 3939   4.022   2.335   8.592 -0.2351  0.0324  0.5529
   29SAPC  H16X 3940   4.094   2.326   8.676  1.2032 -1.0534 -0.7369
   29SAPC  H16Y 3941   3.966   2.239   8.590 -0.2830 -0.0218  2.6462
   29SAPC  C317 3942   3.940   2.457   8.627  0.2775 -0.0771  0.3866
   29SAPC  H17X 3943   3.851   2.457   8.561  0.9425  2.4788 -0.6288
   29SAPC  H17Y 3944   4.003   2.546   8.604  0.9662 -0.5742  0.3404
   29SAPC  C318 3945   3.892   2.456   8.773 -0.7203  0.6258 -0.2645
   29SAPC  H18X 3946   3.798   2.514   8.791 -0.9916 -0.4560  2.2270
   29SAPC  H18Y 3947   3.977   2.489   8.836 -2.4506  1.5636  1.7224
   29SAPC  H18Z 3948   3.876   2.351   8.806  0.9249  1.0355  2.0675
   30SAPC     N 3949   4.688   5.155   6.382  0.0373  0.5055  0.0903
   30SAPC   C12 3950   4.835   5.123   6.373  0.6305  0.1298  0.6905
   30SAPC  H12A 3951   4.893   5.206   6.409  0.0055  0.4141  1.0715
   30SAPC  H12B 3952   4.851   5.107   6.268  0.7715  1.2818  0.5321
   30SAPC   C13 3953   4.665   5.296   6.327  0.6778 -0.9635 -0.7976
   30SAPC  H13A 3954   4.743   5.365   6.356 -0.6000  1.0650 -1.9146
   30SAPC  H13B 3955   4.674   5.285   6.220  1.3345 -2.4157 -0.6093
   30SAPC  H13C 3956   4.565   5.334   6.347  0.7991 -0.6502 -0.7770
   30SAPC   C14 3957   4.603   5.054   6.312  0.4876 -0.0698  0.2909
   30SAPC  H14A 3958   4.507   5.095   6.286  1.3135  2.0715  0.3647
   30SAPC  H14B 3959   4.655   5.025   6.222  0.0306 -2.6959  0.7892
   30SAPC  H14C 3960   4.599   4.964   6.371  1.6411  1.2008  2.4374
   30SAPC   C15 3961   4.662   5.140   6.527  0.3864  0.1526 -0.1691
   30SAPC  H15A 3962   4.558   5.166   6.539  0.6704  1.1645  0.2594
   30SAPC  H15B 3963   4.687   5.042   6.563  0.3326 -0.0894 -0.7788
   30SAPC  H15C 3964   4.718   5.210   6.588  0.7848 -1.5610  1.5097
   30SAPC   C11 3965   4.881   4.988   6.445  0.3023  0.2689  0.7742
   30SAPC  H11A 3966   4.864   4.979   6.554  1.1281  1.5042  1.0162
   30SAPC  H11B 3967   4.989   4.989   6.422  0.0542 -0.2536 -0.5508
   30SAPC     P 3968   4.861   4.812   6.244  0.0316  0.1461 -0.1716
   30SAPC   O13 3969   4.748   4.726   6.206 -0.3549 -0.1400 -0.0088
   30SAPC   O14 3970   4.890   4.928   6.151 -0.4825 -0.6184 -0.0644
   30SAPC   O12 3971   4.821   4.877   6.383  0.6445  0.1411  0.3138
   30SAPC   O11 3972   4.989   4.721   6.273  0.2317  0.2250  0.1439
   30SAPC    C1 3973   4.992   4.632   6.386 -0.0587  0.2706  0.0105
   30SAPC    HA 3974   4.899   4.604   6.440  1.4940 -2.4021  1.4993
   30SAPC    HB 3975   5.025   4.543   6.328  1.2478  1.2174 -0.7751
   30SAPC    C2 3976   5.112   4.638   6.480 -0.7848  0.3022  0.1729
   30SAPC    HS 3977   5.105   4.547   6.544 -0.7174 -0.7331 -1.2482
   30SAPC   O21 3978   5.100   4.751   6.560  0.4099 -0.0815 -0.0557
   30SAPC   C21 3979   5.120   4.734   6.693 -0.0499 -0.0585  0.6718
   30SAPC   O22 3980   5.171   4.633   6.742  1.1300 -0.4194  0.2297
   30SAPC   C22 3981   5.069   4.854   6.764  0.6898  0.0192 -0.0982
   30SAPC   H2R 3982   5.087   4.939   6.695  0.3295 -0.8407 -1.2869
   30SAPC   H2S 3983   4.958   4.848   6.770  0.4847  1.0253 -2.1369
   30SAPC    C3 3984   5.250   4.635   6.404  0.6573 -0.3219 -0.5198
   30SAPC    HX 3985   5.273   4.735   6.359 -1.3863  0.0414 -0.8354
   30SAPC    HY 3986   5.245   4.574   6.311  0.0128 -0.2149 -0.5609
   30SAPC   O31 3987   5.358   4.582   6.477  0.3793  0.4015 -0.6549
   30SAPC   C31 3988   5.428   4.680   6.545 -0.5697  0.3745  0.4980
   30SAPC   O32 3989   5.416   4.798   6.532  0.3252 -0.3440  0.0122
   30SAPC   C32 3990   5.539   4.611   6.635 -0.2744  0.1782  0.2920
   30SAPC   H2X 3991   5.610   4.554   6.571  0.6787  1.2679  0.3380
   30SAPC   H2Y 3992   5.484   4.547   6.706  1.2764 -0.3033  1.1206
   30SAPC   C23 3993   5.143   4.879   6.903  0.8930 -0.6563  0.2183
   30SAPC   H3R 3994   5.253   4.873   6.890  0.9447 -4.0298  1.3516
   30SAPC   H3S 3995   5.128   4.795   6.974 -0.3857  0.4964  1.3893
   30SAPC   C24 3996   5.107   5.021   6.960  0.3043  0.5874  0.3935
   30SAPC   H4R 3997   5.122   5.084   6.869 -0.3609 -2.2852 -1.8800
   30SAPC   H4S 3998   5.174   5.056   7.041  1.5504  0.6255 -0.6148
   30SAPC   C25 3999   4.961   5.031   7.001  0.4798 -0.6205  0.7997
   30SAPC   H5R 4000   4.898   5.089   6.933  2.7317  0.4315 -0.5030
   30SAPC   C26 4001   4.920   4.994   7.125  0.4337  0.1986  0.0372
   30SAPC   H6R 4002   4.815   5.012   7.152  0.1404 -1.4142  0.0629
   30SAPC   C27 4003   5.012   4.930   7.227 -0.4038 -0.6299  0.2758
   30SAPC   H7R 4004   5.118   4.912   7.200 -0.0508  0.1985  1.0534
   30SAPC   H7S 4005   4.980   4.829   7.262  1.0627 -0.4274  2.4219
   30SAPC   C28 4006   5.034   5.035   7.339  0.0522  0.8767  0.0713
   30SAPC   H8R 4007   5.088   5.124   7.303 -0.8170  1.2167 -0.4300
   30SAPC   C29 4008   4.993   5.021   7.465 -0.4843  0.0738 -0.5971
   30SAPC   H9R 4009   5.018   5.092   7.545 -0.1916 -1.7293  0.9863
   30SAPC  C210 4010   4.926   4.900   7.519  0.2053  0.1256 -0.0861
   30SAPC  H10R 4011   4.981   4.871   7.611 -1.8998 -1.3331  0.7963
   30SAPC  H10S 4012   4.927   4.804   7.462  0.5217  1.0190 -1.6529
   30SAPC  C211 4013   4.787   4.923   7.578 -0.5422 -0.9849 -0.5456
   30SAPC  H11R 4014   4.721   4.992   7.524 -0.4477 -1.4154 -1.2190
   30SAPC  C212 4015   4.735   4.866   7.686  0.3358 -0.2123  0.4417
   30SAPC  H12R 4016   4.636   4.897   7.723  0.1115 -2.5392  2.0338
   30SAPC  C213 4017   4.802   4.777   7.780 -1.0121 -0.7692 -1.4995
   30SAPC  H13R 4018   4.864   4.704   7.723 -0.9501 -1.6291 -0.3778
   30SAPC  H13S 4019   4.720   4.725   7.834 -1.4440  1.0949 -0.2673
   30SAPC  C214 4020   4.892   4.844   7.882 -0.5741  0.4573  0.0552
   30SAPC  H14R 4021   4.928   4.941   7.845  0.5154 -0.2666 -0.8605
   30SAPC  C215 4022   4.933   4.796   7.996  0.5427 -1.1122 -0.3574
   30SAPC  H15R 4023   5.008   4.853   8.052 -0.1679 -1.3054  0.8549
   30SAPC  C216 4024   4.897   4.663   8.061  1.3283  0.2984  0.3233
   30SAPC  H16R 4025   4.985   4.627   8.119  0.7446 -3.7838 -0.9874
   30SAPC  H16S 4026   4.865   4.592   7.981  1.2922  0.3134  0.3246
   30SAPC  C217 4027   4.776   4.674   8.158  0.6416 -0.0147  0.1195
   30SAPC  H17R 4028   4.785   4.772   8.209  0.4837 -1.0733  2.2768
   30SAPC  H17S 4029   4.789   4.595   8.235  1.9280 -0.7486 -0.8010
   30SAPC  C218 4030   4.638   4.657   8.099 -0.1078 -0.3402  0.3222
   30SAPC  H18R 4031   4.643   4.561   8.041  0.7175 -0.0936 -0.0289
   30SAPC  H18S 4032   4.621   4.744   8.032 -2.8519 -0.1948  1.0927
   30SAPC  C219 4033   4.521   4.667   8.199  0.2547 -0.3338  0.2398
   30SAPC  H19R 4034   4.425   4.681   8.144  1.4597  0.3539 -1.8195
   30SAPC  H19S 4035   4.530   4.756   8.265 -3.2682 -1.1426  2.0344
   30SAPC  C220 4036   4.511   4.541   8.283  0.3989 -0.0443  0.0407
   30SAPC  H20R 4037   4.416   4.540   8.341  0.0654 -1.7104 -0.4986
   30SAPC  H20S 4038   4.585   4.545   8.366 -0.4661  0.7758  0.7920
   30SAPC  H20T 4039   4.516   4.442   8.232  2.8392 -1.0112  1.9566
   30SAPC   C33 4040   5.616   4.703   6.730  0.0772 -0.5692 -0.3197
   30SAPC   H3X 4041   5.702   4.753   6.680  0.2780  0.0048  0.5888
   30SAPC   H3Y 4042   5.666   4.639   6.805  1.3806  1.3900  0.5435
   30SAPC   C34 4043   5.530   4.806   6.804 -0.1594  0.7563  0.5182
   30SAPC   H4X 4044   5.428   4.763   6.817 -0.7866  1.8623 -0.5435
   30SAPC   H4Y 4045   5.509   4.898   6.746 -3.3375 -0.3849 -0.3656
   30SAPC   C35 4046   5.588   4.821   6.941 -0.9188  0.1853 -0.8006
   30SAPC   H5X 4047   5.685   4.875   6.941 -1.4733  1.2153  0.0995
   30SAPC   H5Y 4048   5.607   4.722   6.987 -0.7199  1.3735  1.8099
   30SAPC   C36 4049   5.502   4.891   7.047  0.1607  0.0241  0.3536
   30SAPC   H6X 4050   5.401   4.848   7.032  0.3782  0.0280 -1.4455
   30SAPC   H6Y 4051   5.496   4.999   7.021  0.5616  0.3323  1.4728
   30SAPC   C37 4052   5.549   4.876   7.190 -0.2439  0.0052  0.0606
   30SAPC   H7X 4053   5.644   4.930   7.212  0.6929 -1.6328  0.2040
   30SAPC   H7Y 4054   5.577   4.770   7.207  0.5326  0.3456  1.0008
   30SAPC   C38 4055   5.444   4.918   7.293 -0.0633  0.1469  0.6378
   30SAPC   H8X 4056   5.356   4.866   7.249  0.1829  0.0795  0.2119
   30SAPC   H8Y 4057   5.422   5.026   7.302 -1.6790  0.0978 -1.7346
   30SAPC   C39 4058   5.476   4.849   7.427 -0.4451  0.0290  0.3299
   30SAPC   H9X 4059   5.567   4.900   7.465  0.1468 -0.7813  0.0403
   30SAPC   H9Y 4060   5.500   4.742   7.409  2.1866  0.4979  0.6132
   30SAPC  C310 4061   5.365   4.875   7.528  0.1292  0.3573 -1.0824
   30SAPC  H10X 4062   5.279   4.807   7.512  1.3958 -0.9740 -2.6875
   30SAPC  H10Y 4063   5.333   4.979   7.507  3.5255  1.7953  0.0818
   30SAPC  C311 4064   5.428   4.858   7.674  0.6937  0.4287 -0.5060
   30SAPC  H11X 4065   5.498   4.941   7.695 -1.5495  1.9117  1.6716
   30SAPC  H11Y 4066   5.482   4.761   7.678  0.9630  0.5992  0.3070
   30SAPC  C312 4067   5.335   4.870   7.796  0.0458 -0.2633  1.2418
   30SAPC  H12X 4068   5.238   4.819   7.780 -0.2512  0.9466 -1.2645
   30SAPC  H12Y 4069   5.304   4.976   7.785 -2.0385 -0.9256  0.0885
   30SAPC  C313 4070   5.408   4.836   7.930  1.1518  0.1189  0.3850
   30SAPC  H13X 4071   5.502   4.896   7.930  0.7595  0.7693  1.5528
   30SAPC  H13Y 4072   5.424   4.726   7.928 -1.0622 -0.3450 -3.7678
   30SAPC  C314 4073   5.319   4.873   8.051  0.0750  0.2543  0.2569
   30SAPC  H14X 4074   5.221   4.820   8.050  0.6854 -0.9118  0.5776
   30SAPC  H14Y 4075   5.292   4.980   8.061  0.1974  0.3212 -0.1406
   30SAPC  C315 4076   5.391   4.846   8.182 -0.0538 -0.0700 -0.1983
   30SAPC  H15X 4077   5.410   4.740   8.206  0.5114 -0.3796 -1.9237
   30SAPC  H15Y 4078   5.321   4.878   8.263 -0.9322 -0.3995 -0.8164
   30SAPC  C316 4079   5.522   4.939   8.193  0.4454  0.9498  0.1364
   30SAPC  H16X 4080   5.488   5.043   8.176  2.2305  1.7883  1.4178
   30SAPC  H16Y 4081   5.604   4.901   8.127  1.8681  1.0373  1.7993
   30SAPC  C317 4082   5.576   4.935   8.332 -0.7766 -0.7777 -1.3961
   30SAPC  H17X 4083   5.501   4.922   8.413  0.7578 -0.9741  0.0578
   30SAPC  H17Y 4084   5.624   5.034   8.342 -1.0054 -0.7336 -0.6880
   30SAPC  C318 4085   5.689   4.827   8.353  0.1677 -0.1766  0.1601
   30SAPC  H18X 4086   5.757   4.846   8.267 -0.7141 -0.7039 -0.6685
   30SAPC  H18Y 4087   5.650   4.724   8.364  0.4731 -0.3344 -0.1946
   30SAPC  H18Z 4088   5.748   4.859   8.441  0.4380  0.6488 -0.3033
   31SAPC     N 4089   0.491   1.833   6.075  0.5589 -0.7392 -0.2472
   31SAPC   C12 4090   0.471   1.821   6.229  0.0436 -0.2046  0.6596
   31SAPC  H12A 4091   0.386   1.879   6.262 -0.4289 -0.2804 -0.4027
   31SAPC  H12B 4092   0.557   1.868   6.275 -0.6290 -0.2255  1.9969
   31SAPC   C13 4093   0.627   1.792   6.048  0.5464 -0.4445  0.4849
   31SAPC  H13A 4094   0.709   1.849   6.089  0.6402 -0.9341  0.9894
   31SAPC  H13B 4095   0.634   1.695   6.095 -0.2204 -0.9787 -0.4852
   31SAPC  H13C 4096   0.633   1.774   5.942 -0.2108 -2.1766  0.7101
   31SAPC   C14 4097   0.405   1.735   6.002 -0.1663 -0.8154 -0.4949
   31SAPC  H14A 4098   0.431   1.635   6.032  0.0367 -1.2028 -1.9007
   31SAPC  H14B 4099   0.298   1.751   6.015 -0.2690 -0.8264 -1.2838
   31SAPC  H14C 4100   0.409   1.740   5.895  0.8766 -3.3613 -0.6311
   31SAPC   C15 4101   0.451   1.971   6.016  0.6989 -0.0932 -0.5736
   31SAPC  H15A 4102   0.346   1.975   5.991  0.8593 -1.5057 -1.6181
   31SAPC  H15B 4103   0.463   2.055   6.082  1.8051 -0.7285  0.0586
   31SAPC  H15C 4104   0.504   1.988   5.923 -0.3694 -1.2711 -1.4381
   31SAPC   C11 4105   0.468   1.675   6.285 -0.2479  0.6190 -0.9926
   31SAPC  H11A 4106   0.389   1.620   6.229 -0.0668  2.3477 -3.0931
   31SAPC  H11B 4107   0.432   1.692   6.389 -0.6143  2.0947 -1.3413
   31SAPC     P 4108   0.667   1.502   6.343  0.0359 -0.2318 -0.1545
   31SAPC   O13 4109   0.626   1.375   6.285 -0.4764 -0.8695  0.5851
   31SAPC   O14 4110   0.810   1.540   6.340  0.4924  0.6366 -0.6506
   31SAPC   O12 4111   0.591   1.617   6.265 -0.2165 -0.1892 -0.5609
   31SAPC   O11 4112   0.615   1.517   6.489  0.1561  0.1537 -0.0814
   31SAPC    C1 4113   0.485   1.457   6.522 -0.3824 -0.6936 -0.4019
   31SAPC    HA 4114   0.427   1.542   6.563  1.6730  0.9881 -0.7571
   31SAPC    HB 4115   0.423   1.435   6.433  0.2302  0.1424 -1.0603
   31SAPC    C2 4116   0.496   1.340   6.624  0.2040 -0.5219  0.2470
   31SAPC    HS 4117   0.390   1.320   6.652 -0.8307  1.9072 -1.4941
   31SAPC   O21 4118   0.582   1.375   6.738  0.5911 -0.3120 -0.1884
   31SAPC   C21 4119   0.531   1.475   6.825 -0.4723 -0.2728  0.1806
   31SAPC   O22 4120   0.432   1.539   6.809 -0.2820  0.4955  0.5724
   31SAPC   C22 4121   0.632   1.499   6.928  0.0629  0.2964 -0.2659
   31SAPC   H2R 4122   0.598   1.459   7.025  3.0998 -2.1036 -0.0472
   31SAPC   H2S 4123   0.721   1.435   6.907 -0.3682 -0.2464 -0.4707
   31SAPC    C3 4124   0.559   1.208   6.562 -0.1732  0.2785 -0.6279
   31SAPC    HX 4125   0.660   1.245   6.533  0.2090  0.2507  0.6257
   31SAPC    HY 4126   0.504   1.194   6.466  0.0098  0.0228 -0.6975
   31SAPC   O31 4127   0.551   1.092   6.646 -0.6349  0.3598 -0.2794
   31SAPC   C31 4128   0.673   1.046   6.680 -0.0413  0.1298 -0.7472
   31SAPC   O32 4129   0.782   1.089   6.641  0.3113  0.5069  0.2495
   31SAPC   C32 4130   0.669   0.940   6.792  0.4495 -0.1333  0.0362
   31SAPC   H2X 4131   0.749   0.865   6.774  1.6857  1.1463  0.0380
   31SAPC   H2Y 4132   0.566   0.897   6.794  0.0998  0.4896 -2.1148
   31SAPC   C23 4133   0.661   1.651   6.932 -0.4389  0.0501 -0.3838
   31SAPC   H3R 4134   0.571   1.713   6.955  0.7655  1.2038  1.4629
   31SAPC   H3S 4135   0.700   1.685   6.834  0.2051  1.4183  0.3303
   31SAPC   C24 4136   0.766   1.670   7.050  0.4097  0.0887  0.0587
   31SAPC   H4R 4137   0.856   1.617   7.013  1.0711  0.7738  0.6488
   31SAPC   H4S 4138   0.748   1.620   7.148  1.4364 -0.0435  0.1925
   31SAPC   C25 4139   0.807   1.814   7.077 -0.4503  0.1274 -0.1074
   31SAPC   H5R 4140   0.885   1.860   7.015 -2.7397  1.3978 -2.2578
   31SAPC   C26 4141   0.766   1.898   7.179 -0.0772  0.0253 -0.2972
   31SAPC   H6R 4142   0.798   2.002   7.169 -0.0505  0.2006  1.3253
   31SAPC   C27 4143   0.667   1.866   7.293  0.5449  0.5404  1.0456
   31SAPC   H7R 4144   0.651   1.756   7.284 -0.4309  0.8185 -0.9770
   31SAPC   H7S 4145   0.567   1.911   7.278  0.2470 -1.0407 -2.7250
   31SAPC   C28 4146   0.722   1.904   7.425  0.3631 -0.2962  0.0152
   31SAPC   H8R 4147   0.708   2.011   7.446 -0.9732 -0.5813  0.6891
   31SAPC   C29 4148   0.779   1.827   7.515 -0.6117 -0.6035 -0.4898
   31SAPC   H9R 4149   0.801   1.875   7.612 -2.1288 -1.8165  0.5067
   31SAPC  C210 4150   0.798   1.678   7.506  0.3553  0.5449 -0.4101
   31SAPC  H10R 4151   0.873   1.644   7.580 -1.4683 -2.2311  0.2851
   31SAPC  H10S 4152   0.827   1.654   7.402  1.5277  0.5352 -0.0963
   31SAPC  C211 4153   0.673   1.597   7.542 -0.2185  0.4029 -0.1310
   31SAPC  H11R 4154   0.621   1.637   7.630  0.6531  0.2213  0.4816
   31SAPC  C212 4155   0.630   1.481   7.495 -0.3826 -0.3021  0.6453
   31SAPC  H12R 4156   0.533   1.438   7.523 -0.6153 -0.3707 -0.2528
   31SAPC  C213 4157   0.701   1.400   7.395 -0.6684 -0.3308 -0.1157
   31SAPC  H13R 4158   0.810   1.418   7.408 -0.9171  1.0437  0.2059
   31SAPC  H13S 4159   0.684   1.427   7.288 -1.0296  0.3996  0.1191
   31SAPC  C214 4160   0.662   1.253   7.418  0.4673 -0.0890 -0.3149
   31SAPC  H14R 4161   0.727   1.196   7.487  0.2125 -0.7717 -0.6314
   31SAPC  C215 4162   0.557   1.182   7.365  0.4684  0.1434  0.0465
   31SAPC  H15R 4163   0.538   1.079   7.397 -3.3735  0.0476 -1.9778
   31SAPC  C216 4164   0.450   1.238   7.274  0.0626  0.6065 -0.1102
   31SAPC  H16R 4165   0.480   1.342   7.254 -0.7625  1.1551  1.3156
   31SAPC  H16S 4166   0.352   1.240   7.328  0.0179 -3.2929  0.2911
   31SAPC  C217 4167   0.422   1.172   7.143  0.3496 -1.2318 -0.3542
   31SAPC  H17R 4168   0.400   1.065   7.160  1.5636 -1.2768  1.1185
   31SAPC  H17S 4169   0.518   1.176   7.087  1.2684 -1.2704  1.1537
   31SAPC  C218 4170   0.317   1.247   7.062  0.7673 -0.1869  0.1658
   31SAPC  H18R 4171   0.332   1.357   7.064  0.2838  0.0213 -2.7746
   31SAPC  H18S 4172   0.223   1.240   7.120  0.8667  2.4347  0.7366
   31SAPC  C219 4173   0.309   1.202   6.915  0.2138 -0.7214  0.4268
   31SAPC  H19R 4174   0.411   1.188   6.874 -0.4070  1.9768 -2.4096
   31SAPC  H19S 4175   0.255   1.277   6.853 -0.0871  2.6284  4.3320
   31SAPC  C220 4176   0.230   1.075   6.912 -0.0351  0.8225  0.1387
   31SAPC  H20R 4177   0.162   1.077   6.824  0.9017  1.1412 -0.5945
   31SAPC  H20S 4178   0.169   1.050   7.002 -0.2330 -1.1440 -0.4796
   31SAPC  H20T 4179   0.294   0.983   6.909 -1.0581 -0.0059  1.9965
   31SAPC   C33 4180   0.694   1.008   6.929 -0.5162 -0.2111  0.2326
   31SAPC   H3X 4181   0.616   1.082   6.955  0.6756  1.2209 -0.1588
   31SAPC   H3Y 4182   0.799   1.046   6.932  0.5226 -2.8171 -0.1838
   31SAPC   C34 4183   0.706   0.910   7.044  0.2559 -0.9755 -0.2249
   31SAPC   H4X 4184   0.783   0.835   7.017  0.8761 -0.3147 -0.3352
   31SAPC   H4Y 4185   0.611   0.859   7.071  0.8898 -1.0200  2.2455
   31SAPC   C35 4186   0.762   0.978   7.167  0.1604 -0.9585  0.4288
   31SAPC   H5X 4187   0.720   1.079   7.189 -1.6300 -1.6451  0.3417
   31SAPC   H5Y 4188   0.872   0.994   7.157 -0.0129  0.9240  1.0497
   31SAPC   C36 4189   0.737   0.890   7.290  0.9529  0.4703 -0.0578
   31SAPC   H6X 4190   0.627   0.881   7.305  0.9414 -0.7906 -0.8213
   31SAPC   H6Y 4191   0.782   0.938   7.380  3.1865 -0.2875 -0.7205
   31SAPC   C37 4192   0.793   0.748   7.285 -0.2904 -0.0910  0.2961
   31SAPC   H7X 4193   0.891   0.751   7.232 -0.8070  1.1990 -0.6291
   31SAPC   H7Y 4194   0.721   0.691   7.222 -1.0097  0.7962  0.2969
   31SAPC   C38 4195   0.803   0.674   7.419  0.0494  0.2063  0.2627
   31SAPC   H8X 4196   0.844   0.740   7.498  0.3181 -0.7020  0.8904
   31SAPC   H8Y 4197   0.872   0.592   7.390  0.2488  0.7546 -0.9096
   31SAPC   C39 4198   0.667   0.607   7.467 -1.3123  0.0685  1.1529
   31SAPC   H9X 4199   0.634   0.552   7.376  1.1952 -3.5249  2.1897
   31SAPC   H9Y 4200   0.603   0.681   7.519 -0.2610  2.7141 -1.0658
   31SAPC  C310 4201   0.677   0.498   7.573 -0.2328 -0.4534 -0.3052
   31SAPC  H10X 4202   0.751   0.421   7.544  0.5470  0.6969 -1.4875
   31SAPC  H10Y 4203   0.576   0.453   7.590  0.1610 -0.4995  2.5121
   31SAPC  C311 4204   0.724   0.549   7.709  0.8751  0.2592  0.0750
   31SAPC  H11X 4205   0.828   0.586   7.699  1.1766 -0.3801  0.7065
   31SAPC  H11Y 4206   0.739   0.461   7.777  0.5320 -0.3063 -0.5764
   31SAPC  C312 4207   0.638   0.655   7.774  0.0064 -0.2322  0.2547
   31SAPC  H12X 4208   0.533   0.620   7.773  0.5379 -1.9015 -0.5377
   31SAPC  H12Y 4209   0.634   0.742   7.706  3.8675 -0.3300 -0.3420
   31SAPC  C313 4210   0.678   0.676   7.924 -0.1892 -0.7017 -0.0363
   31SAPC  H13X 4211   0.685   0.576   7.972  0.9014  0.6029  2.7564
   31SAPC  H13Y 4212   0.602   0.729   7.985 -0.4370 -1.0214 -0.0652
   31SAPC  C314 4213   0.813   0.740   7.944 -0.5368 -0.2118 -0.4080
   31SAPC  H14X 4214   0.819   0.836   7.888 -1.5245 -0.2712 -0.6394
   31SAPC  H14Y 4215   0.891   0.671   7.905 -0.0145  0.2636 -0.2138
   31SAPC  C315 4216   0.844   0.772   8.094  0.4086 -0.6238 -1.0181
   31SAPC  H15X 4217   0.756   0.821   8.140  0.6731 -0.1155 -1.0368
   31SAPC  H15Y 4218   0.927   0.846   8.089  0.1476  0.8019  5.9207
   31SAPC  C316 4219   0.881   0.654   8.179 -0.7725  0.7570 -0.0912
   31SAPC  H16X 4220   0.934   0.570   8.129 -0.3584  0.8882  0.1205
   31SAPC  H16Y 4221   0.792   0.606   8.224 -0.7889  1.1560  0.3072
   31SAPC  C317 4222   0.964   0.709   8.293  0.3019 -0.2845 -0.2133
   31SAPC  H17X 4223   0.920   0.804   8.331  0.7930 -0.6769  1.3746
   31SAPC  H17Y 4224   1.065   0.738   8.257  0.6712  1.4489  1.9942
   31SAPC  C318 4225   0.971   0.603   8.407 -0.4677 -0.8799  0.9449
   31SAPC  H18X 4226   1.025   0.642   8.497  0.8598 -1.0222  0.2379
   31SAPC  H18Y 4227   1.034   0.517   8.375 -0.0392 -0.7609  1.4527
   31SAPC  H18Z 4228   0.870   0.566   8.434 -0.9131 -1.0876 -0.8983
   32SAPC     N 4229   0.869   2.400   6.088  0.1515  0.7498 -0.8946
   32SAPC   C12 4230   1.004   2.456   6.119  0.1134  0.9437 -0.5662
   32SAPC  H12A 4231   1.074   2.374   6.128 -0.9196  0.2560  2.2876
   32SAPC  H12B 4232   0.999   2.497   6.219  1.2973 -1.9905  0.8312
   32SAPC   C13 4233   0.878   2.322   5.962 -0.4426  0.2966 -0.2126
   32SAPC  H13A 4234   0.818   2.234   5.949 -1.3339  1.0602 -1.5686
   32SAPC  H13B 4235   0.848   2.384   5.878 -0.3986 -1.2995 -1.4391
   32SAPC  H13C 4236   0.982   2.297   5.950 -0.9357 -1.7079 -0.5182
   32SAPC   C14 4237   0.810   2.308   6.199 -0.4213 -0.0609 -0.3702
   32SAPC  H14A 4238   0.861   2.216   6.219 -1.6043 -1.0501 -1.6722
   32SAPC  H14B 4239   0.798   2.361   6.293 -1.1026 -1.7925  0.5546
   32SAPC  H14C 4240   0.707   2.281   6.178  0.5036 -2.3449 -2.3227
   32SAPC   C15 4241   0.782   2.524   6.073  0.9049  0.0409  0.0827
   32SAPC  H15A 4242   0.688   2.493   6.029  0.8461 -0.0017  0.2375
   32SAPC  H15B 4243   0.757   2.569   6.168 -0.9385  1.4219 -0.9717
   32SAPC  H15C 4244   0.831   2.598   6.011 -1.4171  2.4994  0.9689
   32SAPC   C11 4245   1.082   2.556   6.035  0.3964  0.2897  0.1714
   32SAPC  H11A 4246   1.098   2.517   5.932 -0.5730  1.6748 -0.5480
   32SAPC  H11B 4247   1.184   2.562   6.077  1.1535  1.0833 -1.6441
   32SAPC     P 4248   1.073   2.812   6.109  0.3076 -0.2392 -0.0246
   32SAPC   O13 4249   1.210   2.834   6.065 -0.0595  0.3758  0.1044
   32SAPC   O14 4250   0.979   2.925   6.097  0.0983 -0.0908  0.3880
   32SAPC   O12 4251   1.010   2.686   6.029 -0.0694  0.1850 -0.1824
   32SAPC   O11 4252   1.075   2.759   6.262  0.5097  0.0399  0.5756
   32SAPC    C1 4253   0.951   2.742   6.335  0.7956 -0.2971 -0.0183
   32SAPC    HA 4254   0.863   2.756   6.269 -0.8817 -0.7728  2.0163
   32SAPC    HB 4255   0.953   2.640   6.379 -0.4986 -0.2541  0.1828
   32SAPC    C2 4256   0.926   2.844   6.443 -0.1145  0.1898 -0.8190
   32SAPC    HS 4257   0.926   2.945   6.397 -3.5211 -0.2965 -2.1898
   32SAPC   O21 4258   1.034   2.838   6.542 -0.0711 -0.6566  0.4139
   32SAPC   C21 4259   1.118   2.940   6.543  1.2770 -0.0075  0.0384
   32SAPC   O22 4260   1.123   3.039   6.468 -0.8938  0.3033 -0.7252
   32SAPC   C22 4261   1.218   2.913   6.650 -0.4915  0.1766  0.3040
   32SAPC   H2R 4262   1.257   2.811   6.630 -0.4753 -0.2424  2.2777
   32SAPC   H2S 4263   1.299   2.987   6.634 -1.6088  0.8523 -2.8343
   32SAPC    C3 4264   0.789   2.826   6.507  0.2035  0.3441 -0.4742
   32SAPC    HX 4265   0.779   2.733   6.567  1.9658  1.8162  2.3352
   32SAPC    HY 4266   0.707   2.824   6.432  0.9092  1.8296 -1.3350
   32SAPC   O31 4267   0.761   2.929   6.607  0.3526 -0.1689  0.1668
   32SAPC   C31 4268   0.643   2.927   6.660 -0.0204  1.0157 -0.4472
   32SAPC   O32 4269   0.558   2.848   6.640  0.2737  0.1337  0.0021
   32SAPC   C32 4270   0.637   3.045   6.763  0.6064  1.0742 -0.9774
   32SAPC   H2X 4271   0.632   3.144   6.714 -1.7191  1.5384  0.0570
   32SAPC   H2Y 4272   0.733   3.035   6.819 -0.1695  0.4858  0.2810
   32SAPC   C23 4273   1.167   2.915   6.799  0.4456 -1.0246 -0.1015
   32SAPC   H3R 4274   1.071   2.859   6.800 -0.6980  0.8202 -1.2468
   32SAPC   H3S 4275   1.134   3.019   6.819  0.6037 -0.7398 -1.2333
   32SAPC   C24 4276   1.274   2.860   6.887  0.2775  0.1104  0.1245
   32SAPC   H4R 4277   1.335   2.785   6.832  1.0526  1.4426 -0.9144
   32SAPC   H4S 4278   1.233   2.806   6.975 -2.4058 -0.0673 -1.1544
   32SAPC   C25 4279   1.367   2.975   6.931 -0.2273  0.4473 -0.2521
   32SAPC   H5R 4280   1.423   3.025   6.851  1.3509  0.1955  0.6683
   32SAPC   C26 4281   1.406   3.006   7.058  0.8423 -0.3021 -0.0309
   32SAPC   H6R 4282   1.464   3.097   7.078 -0.1923  0.3980 -0.1477
   32SAPC   C27 4283   1.350   2.937   7.180  0.0020 -1.4140 -0.0877
   32SAPC   H7R 4284   1.377   2.829   7.181 -1.4267 -1.8251 -1.4280
   32SAPC   H7S 4285   1.243   2.968   7.177  0.8365  1.7394 -0.8479
   32SAPC   C28 4286   1.392   2.985   7.319  0.2891 -0.1522  0.4734
   32SAPC   H8R 4287   1.324   3.055   7.371  0.0726  0.4881 -0.6494
   32SAPC   C29 4288   1.512   2.945   7.376 -0.6380 -0.0933  0.6688
   32SAPC   H9R 4289   1.524   2.973   7.481 -0.4455 -0.5090  0.7613
   32SAPC  C210 4290   1.619   2.854   7.320 -0.2898 -0.3553 -0.1831
   32SAPC  H10R 4291   1.625   2.861   7.209 -2.1160  0.8336 -0.2573
   32SAPC  H10S 4292   1.596   2.749   7.349 -0.7557 -0.8079 -2.0175
   32SAPC  C211 4293   1.756   2.895   7.359 -0.6655  0.5414 -0.2677
   32SAPC  H11R 4294   1.804   2.974   7.299 -1.0030  0.7900 -0.2173
   32SAPC  C212 4295   1.831   2.836   7.455 -0.1850 -0.4626 -0.6920
   32SAPC  H12R 4296   1.931   2.875   7.475 -0.5787 -0.3146  1.1178
   32SAPC  C213 4297   1.798   2.710   7.537 -0.5655 -0.5964  0.2357
   32SAPC  H13R 4298   1.896   2.665   7.564  0.4053  2.0948  1.5880
   32SAPC  H13S 4299   1.740   2.635   7.479 -3.1219  0.6435  1.0508
   32SAPC  C214 4300   1.731   2.736   7.672  0.8376  0.0382  0.3784
   32SAPC  H14R 4301   1.658   2.818   7.663 -0.4167 -1.1447 -0.5451
   32SAPC  C215 4302   1.718   2.660   7.779 -0.1229  0.0891 -0.1311
   32SAPC  H15R 4303   1.642   2.686   7.854  0.5291 -2.3201  1.5056
   32SAPC  C216 4304   1.787   2.519   7.795  0.0863 -0.3419  0.2167
   32SAPC  H16R 4305   1.846   2.506   7.889  2.1244  0.4187 -0.8952
   32SAPC  H16S 4306   1.863   2.511   7.715  0.4949  0.1471  0.5463
   32SAPC  C217 4307   1.696   2.395   7.792 -0.0178 -0.3588  0.5368
   32SAPC  H17R 4308   1.754   2.300   7.798 -2.3377 -1.8603  0.2476
   32SAPC  H17S 4309   1.640   2.394   7.696  2.6675  1.0814 -1.2015
   32SAPC  C218 4310   1.605   2.390   7.913  0.4261  0.6640 -0.2448
   32SAPC  H18R 4311   1.546   2.485   7.910 -1.5522 -0.4944  0.3310
   32SAPC  H18S 4312   1.671   2.391   8.002 -1.9829  2.5653  1.6617
   32SAPC  C219 4313   1.512   2.264   7.919  0.0746  0.9841  0.0533
   32SAPC  H19R 4314   1.572   2.173   7.937 -0.0107  1.1986  1.4769
   32SAPC  H19S 4315   1.471   2.254   7.816  1.5372  0.1634 -0.4690
   32SAPC  C220 4316   1.413   2.260   8.034  0.3202 -0.6555 -0.8166
   32SAPC  H20R 4317   1.328   2.190   8.020 -1.6516  0.8855  2.3977
   32SAPC  H20S 4318   1.364   2.359   8.040 -1.5305 -1.5627 -0.4101
   32SAPC  H20T 4319   1.453   2.234   8.134 -1.6178 -0.3257  0.0856
   32SAPC   C33 4320   0.531   3.029   6.872  1.1672  0.1672 -0.9319
   32SAPC   H3X 4321   0.512   2.924   6.903 -0.1088  0.7617  0.4188
   32SAPC   H3Y 4322   0.440   3.079   6.834  3.1344  4.0454 -1.0405
   32SAPC   C34 4323   0.582   3.090   7.001  0.2754 -1.1339  0.4998
   32SAPC   H4X 4324   0.680   3.047   7.032  1.3638  0.3158 -0.7071
   32SAPC   H4Y 4325   0.511   3.072   7.084  0.4540  0.0221  0.9306
   32SAPC   C35 4326   0.602   3.241   6.988  0.1659  0.1421 -0.4474
   32SAPC   H5X 4327   0.523   3.288   6.925 -0.3587 -1.0287 -0.6910
   32SAPC   H5Y 4328   0.690   3.265   6.924 -0.4250 -0.8400 -1.6823
   32SAPC   C36 4329   0.633   3.303   7.127 -0.3439 -0.7491  0.2926
   32SAPC   H6X 4330   0.688   3.398   7.110 -0.7402 -0.0854  2.3831
   32SAPC   H6Y 4331   0.705   3.239   7.182 -0.6227 -0.7033  0.7191
   32SAPC   C37 4332   0.502   3.317   7.205  0.1605 -0.3433  0.6211
   32SAPC   H7X 4333   0.447   3.221   7.193  0.4830 -0.9492  3.2346
   32SAPC   H7Y 4334   0.448   3.402   7.158  0.3832 -1.7561 -2.4380
   32SAPC   C38 4335   0.522   3.362   7.357  0.0407  0.1285  0.4434
   32SAPC   H8X 4336   0.418   3.369   7.394 -0.6692 -1.7643 -1.0680
   32SAPC   H8Y 4337   0.556   3.468   7.358 -0.1783  0.2164 -0.6323
   32SAPC   C39 4338   0.602   3.270   7.442  0.6179 -0.1216 -0.4104
   32SAPC   H9X 4339   0.704   3.273   7.399 -0.1845  0.5497 -2.3355
   32SAPC   H9Y 4340   0.553   3.170   7.434 -0.5614  0.1368  2.3658
   32SAPC  C310 4341   0.608   3.317   7.590  0.2157 -0.3301  0.4743
   32SAPC  H10X 4342   0.654   3.230   7.642  1.5765  0.2051  0.2127
   32SAPC  H10Y 4343   0.503   3.336   7.620 -0.3357 -2.0526 -0.2050
   32SAPC  C311 4344   0.696   3.443   7.618 -0.5620  0.3417  0.4149
   32SAPC  H11X 4345   0.654   3.534   7.569  0.6528 -0.3758 -2.0877
   32SAPC  H11Y 4346   0.795   3.423   7.572 -0.5009 -0.0522  0.7111
   32SAPC  C312 4347   0.714   3.484   7.766  0.3518  0.8097 -0.0160
   32SAPC  H12X 4348   0.617   3.499   7.819  0.8691  1.8315  0.6781
   32SAPC  H12Y 4349   0.768   3.581   7.770 -1.0181  1.5998  0.1225
   32SAPC  C313 4350   0.779   3.381   7.859  0.3481 -0.0766  0.9027
   32SAPC  H13X 4351   0.886   3.366   7.832 -0.3197 -0.9244 -1.5486
   32SAPC  H13Y 4352   0.735   3.282   7.834 -0.9329  0.4935  0.8206
   32SAPC  C314 4353   0.769   3.407   8.004 -0.1023  0.2444  0.9518
   32SAPC  H14X 4354   0.756   3.517   8.014  1.2725  0.4814  0.3279
   32SAPC  H14Y 4355   0.856   3.362   8.057 -0.4999 -0.4356  1.0376
   32SAPC  C315 4356   0.655   3.325   8.075 -0.7022 -0.0206  0.0548
   32SAPC  H15X 4357   0.673   3.326   8.184  0.9367 -0.2881 -0.1966
   32SAPC  H15Y 4358   0.668   3.216   8.057 -0.8930 -0.0822  0.2867
   32SAPC  C316 4359   0.511   3.353   8.019  0.2673 -0.6961 -0.3070
   32SAPC  H16X 4360   0.513   3.313   7.915  3.9978  0.7424 -0.9552
   32SAPC  H16Y 4361   0.484   3.461   8.014  0.5068 -0.5452  1.2115
   32SAPC  C317 4362   0.416   3.273   8.106 -0.2359 -0.1775  0.6909
   32SAPC  H17X 4363   0.463   3.179   8.140  0.1803 -0.8294 -1.5388
   32SAPC  H17Y 4364   0.334   3.253   8.034  0.6899 -0.4708 -0.2986
   32SAPC  C318 4365   0.369   3.356   8.218 -1.0887  0.2835 -0.2454
   32SAPC  H18X 4366   0.446   3.385   8.293 -1.8108  1.6140  0.0124
   32SAPC  H18Y 4367   0.305   3.284   8.273  0.3690 -0.7421  0.1832
   32SAPC  H18Z 4368   0.313   3.448   8.191  0.8120  1.1027 -1.6315
   33POPC     N 4369   6.116   1.605  10.845 -0.0626 -0.0968 -0.0662
   33POPC   C12 4370   6.177   1.722  10.767 -0.5355 -0.2746 -0.1920
   33POPC  H12A 4371   6.249   1.777  10.825  1.7018 -1.8005 -1.3530
   33POPC  H12B 4372   6.096   1.793  10.757 -1.3753 -1.3044 -1.0586
   33POPC   C13 4373   5.999   1.540  10.778  0.3274  0.6213 -0.4761
   33POPC  H13A 4374   6.038   1.486  10.693  0.7240 -1.4670  0.9670
   33POPC  H13B 4375   5.959   1.473  10.854  0.1975 -1.1337 -2.0201
   33POPC  H13C 4376   5.919   1.606  10.749 -0.6631  0.2143  1.1693
   33POPC   C14 4377   6.231   1.505  10.872 -0.7314  0.0668  0.0356
   33POPC  H14A 4378   6.189   1.410  10.898 -2.9902  1.6137  2.5426
   33POPC  H14B 4379   6.297   1.509  10.786  0.4200  0.7678  0.9185
   33POPC  H14C 4380   6.300   1.534  10.950  0.5604 -0.1501 -0.9874
   33POPC   C15 4381   6.064   1.652  10.980  0.1147 -0.4746  0.1346
   33POPC  H15A 4382   6.033   1.561  11.028 -0.0899  0.0331  0.9917
   33POPC  H15B 4383   5.988   1.728  10.968  0.4903 -0.5095 -4.3937
   33POPC  H15C 4384   6.146   1.691  11.039  0.3447  1.2171 -1.2093
   33POPC   C11 4385   6.237   1.703  10.625 -0.0296 -0.2783 -0.3442
   33POPC  H11A 4386   6.257   1.798  10.570  1.8987  0.5647  1.6454
   33POPC  H11B 4387   6.167   1.646  10.561 -0.1418  0.9987 -1.4005
   33POPC     P 4388   6.500   1.708  10.652  0.0338 -0.0505  0.4304
   33POPC   O13 4389   6.591   1.624  10.738 -0.4372  0.0065  1.0083
   33POPC   O14 4390   6.476   1.845  10.698  0.4743  0.2377 -0.3290
   33POPC   O12 4391   6.361   1.638  10.644  0.3832 -0.3269 -0.1710
   33POPC   O11 4392   6.551   1.712  10.507 -0.0968 -0.0699  0.1047
   33POPC    C1 4393   6.531   1.591  10.430 -0.0932  0.3753 -0.1153
   33POPC    HA 4394   6.590   1.507  10.473 -0.1358 -0.6254 -1.9420
   33POPC    HB 4395   6.427   1.563  10.403  0.0540  0.3135 -0.6196
   33POPC    C2 4396   6.582   1.611  10.281 -0.0260 -0.5317  0.3248
   33POPC    HS 4397   6.686   1.649  10.280  0.6507 -2.1711 -2.2388
   33POPC   O21 4398   6.488   1.696  10.224 -0.1716 -0.4350 -0.2185
   33POPC   C21 4399   6.536   1.828  10.213  0.7567  0.2152  0.2302
   33POPC   O22 4400   6.648   1.865  10.231 -0.0547 -0.1267 -0.1095
   33POPC   C22 4401   6.414   1.915  10.171 -0.1395  0.2158  0.2766
   33POPC   H2R 4402   6.447   2.020  10.159 -2.3495  0.7719 -1.5655
   33POPC   H2S 4403   6.338   1.899  10.250 -0.3250 -1.0198 -0.1337
   33POPC    C3 4404   6.588   1.477  10.198  0.0627 -0.5580  0.0474
   33POPC    HX 4405   6.482   1.446  10.189 -0.2442  0.5569 -0.4224
   33POPC    HY 4406   6.641   1.399  10.255 -2.5383 -1.2449  1.6875
   33POPC   O31 4407   6.656   1.493  10.067 -0.3276 -0.2564 -0.3104
   33POPC   C31 4408   6.786   1.515  10.070  0.2025  0.3507  0.4176
   33POPC   O32 4409   6.863   1.513  10.165 -0.2990  0.4157 -0.1158
   33POPC   C32 4410   6.823   1.550   9.925  0.3354 -0.7646 -1.5641
   33POPC   H2X 4411   6.747   1.620   9.883 -1.4993 -1.1814  0.8229
   33POPC   H2Y 4412   6.799   1.454   9.875 -3.9893 -1.9473  2.0764
   33POPC   C23 4413   6.353   1.879  10.037  0.2096  0.2716 -1.0083
   33POPC   H3R 4414   6.264   1.941  10.013 -1.7360 -2.4513 -1.3100
   33POPC   H3S 4415   6.302   1.780  10.039 -1.4037  1.0589  1.5396
   33POPC   C24 4416   6.454   1.896   9.921  0.0382 -0.1892  0.1203
   33POPC   H4R 4417   6.557   1.865   9.948  1.8275  3.0380 -2.2332
   33POPC   H4S 4418   6.468   2.003   9.896 -2.4151  0.3166  0.7195
   33POPC   C25 4419   6.421   1.824   9.790  0.4301  0.0951  0.3613
   33POPC   H5R 4420   6.472   1.872   9.704 -0.1106  0.5078  0.2703
   33POPC   H5S 4421   6.313   1.832   9.765  0.6254 -0.6327 -0.8135
   33POPC   C26 4422   6.465   1.677   9.792  1.0104  0.5471  1.1299
   33POPC   H6R 4423   6.425   1.628   9.883 -0.9428  1.0765  0.6091
   33POPC   H6S 4424   6.575   1.662   9.801  1.2603  1.0436 -0.6012
   33POPC   C27 4425   6.420   1.599   9.668  0.7816 -0.6167 -0.0275
   33POPC   H7R 4426   6.315   1.622   9.643 -0.5805 -1.6061  4.0264
   33POPC   H7S 4427   6.426   1.493   9.701  0.8436 -0.3629  0.8004
   33POPC   C28 4428   6.510   1.621   9.546  0.8488  0.6082  0.0650
   33POPC   H8R 4429   6.514   1.729   9.524  0.8816  0.4586 -0.6899
   33POPC   H8S 4430   6.454   1.572   9.464  1.5599  1.4287 -0.9199
   33POPC   C29 4431   6.652   1.573   9.562  0.5190  0.4904 -0.5772
   33POPC   H91 4432   6.673   1.513   9.652  0.6312 -0.0868 -0.9794
   33POPC  C210 4433   6.754   1.581   9.480 -0.4374 -0.2184  0.1511
   33POPC  H101 4434   6.856   1.543   9.499 -1.1754 -2.3969  0.0358
   33POPC  C211 4435   6.739   1.656   9.351 -0.3607 -0.5345  0.2869
   33POPC  H11R 4436   6.832   1.711   9.325 -0.8347  0.5341  0.7478
   33POPC  H11S 4437   6.651   1.724   9.356 -0.8600 -1.2171  1.0155
   33POPC  C212 4438   6.718   1.571   9.232 -1.0887 -0.1334  0.3693
   33POPC  H12R 4439   6.629   1.505   9.244 -0.0720 -1.9354 -1.4493
   33POPC  H12S 4440   6.811   1.519   9.201 -0.7075  1.2271 -0.8885
   33POPC  C213 4441   6.678   1.655   9.113  0.2268 -0.4697  0.3038
   33POPC  H13R 4442   6.771   1.709   9.084  1.1990 -1.2136  1.9112
   33POPC  H13S 4443   6.600   1.730   9.136  0.1045 -1.4115  3.4207
   33POPC  C214 4444   6.650   1.569   8.988  0.5669 -0.9378  0.3819
   33POPC  H14R 4445   6.586   1.483   9.017 -1.7868  0.0656 -1.5075
   33POPC  H14S 4446   6.750   1.527   8.963  2.3525  2.1215  1.7315
   33POPC  C215 4447   6.595   1.646   8.864 -0.2482  0.1708 -0.0967
   33POPC  H15R 4448   6.584   1.583   8.774  1.5451  0.3008 -0.4432
   33POPC  H15S 4449   6.665   1.727   8.834 -1.0854  0.5478 -1.1159
   33POPC  C216 4450   6.463   1.721   8.871  0.9703  0.4173 -0.2902
   33POPC  H16R 4451   6.454   1.745   8.979  1.9306  1.7254 -0.4794
   33POPC  H16S 4452   6.377   1.659   8.839 -0.9440  2.1830  1.1385
   33POPC  C217 4453   6.463   1.859   8.794  0.4246  0.0983 -0.6411
   33POPC  H17R 4454   6.498   1.856   8.688  0.0305  1.1153 -0.8166
   33POPC  H17S 4455   6.536   1.924   8.847 -1.1044  1.8888 -0.6217
   33POPC  C218 4456   6.329   1.932   8.796  0.7663 -0.2653 -0.0004
   33POPC  H18R 4457   6.271   1.890   8.881  1.3828  0.4184  0.7747
   33POPC  H18S 4458   6.282   1.887   8.706 -0.3194 -1.4772  1.1276
   33POPC  H18T 4459   6.319   2.042   8.801 -3.9676 -0.5249  1.3709
   33POPC   C33 4460   6.960   1.613   9.902  0.0893 -0.2035 -0.0754
   33POPC   H3X 4461   7.028   1.562   9.973 -0.1392 -1.3612 -0.6697
   33POPC   H3Y 4462   6.951   1.721   9.925 -1.5784 -0.5929  1.3443
   33POPC   C34 4463   7.025   1.588   9.760 -0.0510 -0.1592  0.2513
   33POPC   H4X 4464   7.127   1.631   9.754 -0.2126  0.1340 -0.6169
   33POPC   H4Y 4465   6.972   1.636   9.675  0.3140  0.4154  0.3410
   33POPC   C35 4466   7.056   1.440   9.730  1.0471  0.3534  0.2134
   33POPC   H5X 4467   6.966   1.387   9.692  1.7327 -0.9296  0.3346
   33POPC   H5Y 4468   7.083   1.391   9.826  1.6050  2.3831  1.1576
   33POPC   C36 4469   7.165   1.420   9.629 -0.2507 -0.4309 -0.3732
   33POPC   H6X 4470   7.194   1.314   9.618 -0.6866 -0.4315 -1.8029
   33POPC   H6Y 4471   7.259   1.472   9.658  0.5590 -0.5640 -2.5338
   33POPC   C37 4472   7.128   1.475   9.492  1.1278 -0.4869 -0.0932
   33POPC   H7X 4473   7.083   1.577   9.494 -0.5773 -1.1164 -2.0747
   33POPC   H7Y 4474   7.043   1.410   9.462 -0.2184  0.4617  1.4878
   33POPC   C38 4475   7.243   1.454   9.387  0.0928 -0.0953 -0.3236
   33POPC   H8X 4476   7.287   1.352   9.391 -0.4684 -0.2931  1.6910
   33POPC   H8Y 4477   7.319   1.528   9.421 -0.6528 -0.0102  1.2462
   33POPC   C39 4478   7.203   1.492   9.245 -0.8397 -1.1203 -0.3107
   33POPC   H9X 4479   7.295   1.488   9.184  0.6857 -0.6754  1.8391
   33POPC   H9Y 4480   7.157   1.593   9.251 -0.2449 -0.8804  0.2801
   33POPC  C310 4481   7.098   1.400   9.181 -0.0947  0.5781  1.3474
   33POPC  H10X 4482   7.010   1.375   9.244 -1.2818 -0.1485 -0.5184
   33POPC  H10Y 4483   7.143   1.302   9.156 -1.0320  0.3950  0.3078
   33POPC  C311 4484   7.026   1.476   9.063 -0.5728  0.1818  0.2038
   33POPC  H11X 4485   6.988   1.574   9.100  0.7790  0.8708 -0.2027
   33POPC  H11Y 4486   6.936   1.412   9.045 -0.2067 -1.1200  2.4725
   33POPC  C312 4487   7.112   1.507   8.948 -0.3140  0.2895  0.0071
   33POPC  H12X 4488   7.200   1.563   8.986 -2.8425  4.7766 -0.0700
   33POPC  H12Y 4489   7.064   1.586   8.886 -1.0337 -0.7828 -0.8346
   33POPC  C313 4490   7.141   1.402   8.843  0.1143  0.0966 -0.3072
   33POPC  H13X 4491   7.040   1.378   8.802 -0.3026  1.3395 -0.0414
   33POPC  H13Y 4492   7.187   1.315   8.893  0.5591  0.8218  0.5688
   33POPC  C314 4493   7.227   1.447   8.725 -0.2995 -0.0006 -0.0431
   33POPC  H14X 4494   7.327   1.481   8.758  1.0895 -3.4194 -0.2871
   33POPC  H14Y 4495   7.180   1.534   8.674 -0.7369 -1.4561 -2.2680
   33POPC  C315 4496   7.239   1.330   8.622 -0.5177  0.2261 -0.0076
   33POPC  H15X 4497   7.137   1.302   8.589 -0.1360 -0.3552 -0.7282
   33POPC  H15Y 4498   7.280   1.252   8.689  0.1046 -0.0531 -0.7022
   33POPC  C316 4499   7.319   1.352   8.500 -0.0571 -0.6046 -0.6456
   33POPC  H16X 4500   7.293   1.283   8.417 -1.2519 -0.0392 -0.7676
   33POPC  H16Y 4501   7.426   1.348   8.530 -0.7112 -0.5740  1.9195
   33POPC  H16Z 4502   7.298   1.455   8.463 -2.0420 -0.6122  0.3333
   34POPC     N 4503   5.221   3.218  11.074  0.6882  0.0375  0.4264
   34POPC   C12 4504   5.254   3.078  11.021 -0.2038  0.4573 -0.0775
   34POPC  H12A 4505   5.256   3.006  11.102  0.5506  0.0541 -0.4517
   34POPC  H12B 4506   5.351   3.060  10.979 -0.0964 -2.4592  1.1775
   34POPC   C13 4507   5.086   3.222  11.143  0.4617  1.1009 -0.1185
   34POPC  H13A 4508   5.051   3.321  11.166 -1.8261  0.4824 -0.6392
   34POPC  H13B 4509   5.013   3.172  11.080  2.6441 -1.5688 -0.7277
   34POPC  H13C 4510   5.088   3.157  11.230 -0.7158 -0.8088 -1.4362
   34POPC   C14 4511   5.326   3.268  11.165  0.2351 -0.2859 -0.2745
   34POPC  H14A 4512   5.332   3.210  11.256 -1.2060  1.6116  1.1059
   34POPC  H14B 4513   5.421   3.269  11.114  0.2113 -0.6596 -0.3367
   34POPC  H14C 4514   5.305   3.368  11.197  2.3648  0.1866 -0.2255
   34POPC   C15 4515   5.208   3.319  10.962  0.0453 -0.2607 -0.1635
   34POPC  H15A 4516   5.289   3.309  10.892 -1.0100 -3.1063 -1.1236
   34POPC  H15B 4517   5.188   3.420  10.994  0.5731  0.6607 -2.5517
   34POPC  H15C 4518   5.119   3.298  10.904  0.3488 -1.5550 -0.1977
   34POPC   C11 4519   5.159   3.028  10.903  0.1050  0.2563  0.0251
   34POPC  H11A 4520   5.212   2.938  10.865  0.6197 -0.0742  1.4578
   34POPC  H11B 4521   5.166   3.108  10.826  0.5989 -0.0858 -0.2918
   34POPC     P 4522   4.999   2.854  11.000  0.3132 -0.0452  0.0984
   34POPC   O13 4523   4.876   2.860  11.083 -0.5784  0.2142  0.8779
   34POPC   O14 4524   5.120   2.789  11.062  1.4013  0.3320  0.2793
   34POPC   O12 4525   5.028   2.999  10.953 -0.4973 -0.0177  0.5387
   34POPC   O11 4526   4.965   2.772  10.869 -0.4940  0.5726  0.2912
   34POPC    C1 4527   4.862   2.810  10.783 -0.4077 -0.0980 -0.1046
   34POPC    HA 4528   4.783   2.863  10.841 -0.7727  0.2071 -0.8606
   34POPC    HB 4529   4.817   2.719  10.737 -0.2699 -0.1486 -0.1376
   34POPC    C2 4530   4.912   2.904  10.671 -1.0371  0.2053 -0.1711
   34POPC    HS 4531   4.947   2.992  10.728 -0.9438 -0.9848  1.6904
   34POPC   O21 4532   4.801   2.937  10.585  0.1990  0.4457  0.0354
   34POPC   C21 4533   4.800   3.052  10.508 -0.6665  0.2591  0.2967
   34POPC   O22 4534   4.880   3.149  10.522 -0.2063  0.7995  0.2577
   34POPC   C22 4535   4.689   3.035  10.397  0.3697  0.0698  0.0436
   34POPC   H2R 4536   4.594   2.994  10.436  0.8337  0.1368  1.2771
   34POPC   H2S 4537   4.733   2.954  10.334 -0.4949 -0.4977  0.1586
   34POPC    C3 4538   5.019   2.830  10.594 -0.3573  0.6331 -0.6393
   34POPC    HX 4539   4.978   2.733  10.558 -0.7345  0.5372  0.0254
   34POPC    HY 4540   5.109   2.803  10.654 -0.9092 -1.3380 -0.6241
   34POPC   O31 4541   5.049   2.903  10.478  0.3211 -0.0770  0.8418
   34POPC   C31 4542   5.164   2.970  10.473 -0.3007  0.1410  0.2167
   34POPC   O32 4543   5.256   2.963  10.557  0.2820  0.0092 -0.2226
   34POPC   C32 4544   5.183   3.051  10.343 -0.1641 -0.2141 -0.5353
   34POPC   H2X 4545   5.291   3.033  10.326  0.2925  0.3856  1.4273
   34POPC   H2Y 4546   5.173   3.160  10.360  0.0802 -0.3144  0.2855
   34POPC   C23 4547   4.673   3.159  10.310 -0.0988  0.4402  0.9367
   34POPC   H3R 4548   4.767   3.203  10.273  0.6291  0.7014  2.9698
   34POPC   H3S 4549   4.625   3.236  10.375 -1.3514  0.9538 -0.5232
   34POPC   C24 4550   4.581   3.136  10.189  0.3275 -0.1768  0.4172
   34POPC   H4R 4551   4.574   3.234  10.136 -1.9917  0.9141  2.5525
   34POPC   H4S 4552   4.479   3.111  10.225 -0.7171  1.9469 -0.8200
   34POPC   C25 4553   4.638   3.030  10.093  0.1515  0.5754 -0.4215
   34POPC   H5R 4554   4.651   2.939  10.157 -0.7311  0.7986  0.1032
   34POPC   H5S 4555   4.744   3.048  10.067  0.9451 -1.8087  0.8069
   34POPC   C26 4556   4.554   2.997   9.970 -0.5644  0.7273 -0.8877
   34POPC   H6R 4557   4.451   2.970  10.003  0.4280 -1.5218  0.6125
   34POPC   H6S 4558   4.595   2.899   9.937 -0.7146 -0.1415  1.3479
   34POPC   C27 4559   4.562   3.102   9.863 -0.4483 -0.4767 -0.3888
   34POPC   H7R 4560   4.666   3.135   9.840 -0.4058  0.7015  1.3052
   34POPC   H7S 4561   4.504   3.189   9.901 -0.5429 -1.2027  1.2024
   34POPC   C28 4562   4.485   3.075   9.739  0.9592  0.5299  0.0118
   34POPC   H8R 4563   4.488   3.155   9.662  1.7553 -1.2892 -1.9132
   34POPC   H8S 4564   4.379   3.061   9.769  1.4651  0.2878  1.7964
   34POPC   C29 4565   4.528   2.954   9.661  0.3830  0.1596  0.6553
   34POPC   H91 4566   4.602   2.888   9.710  2.1859  1.5241 -0.0843
   34POPC  C210 4567   4.474   2.932   9.539  0.2498  0.3293 -0.5357
   34POPC  H101 4568   4.518   2.843   9.490  0.2188 -0.9316  1.5815
   34POPC  C211 4569   4.383   3.019   9.461 -0.4896 -0.3842 -0.1437
   34POPC  H11R 4570   4.323   3.093   9.518  0.8206  0.5438  0.0840
   34POPC  H11S 4571   4.309   2.955   9.408 -0.3445 -0.1620 -0.6245
   34POPC  C212 4572   4.463   3.114   9.372  0.0422  0.0453 -0.2228
   34POPC  H12R 4573   4.553   3.158   9.419  1.2039  1.4484 -3.5186
   34POPC  H12S 4574   4.400   3.201   9.344  0.0139  0.3108  0.6379
   34POPC  C213 4575   4.495   3.059   9.235 -0.1783 -0.0119  0.9958
   34POPC  H13R 4576   4.400   3.009   9.209  0.7560 -1.0236 -0.6152
   34POPC  H13S 4577   4.571   2.978   9.249 -0.6001 -0.4491  0.7731
   34POPC  C214 4578   4.520   3.167   9.127 -0.1745  0.7191  0.2277
   34POPC  H14R 4579   4.611   3.228   9.147  0.0200  0.5660 -0.1853
   34POPC  H14S 4580   4.439   3.244   9.127  0.7512  1.7154  0.4525
   34POPC  C215 4581   4.526   3.104   8.991 -0.5133  0.4938 -0.2878
   34POPC  H15R 4582   4.433   3.044   8.982  0.3753 -0.7931 -1.2722
   34POPC  H15S 4583   4.611   3.033   8.998 -0.8407  0.1313  0.0571
   34POPC  C216 4584   4.548   3.198   8.872  0.1121  0.5097 -0.3025
   34POPC  H16R 4585   4.628   3.271   8.897  0.2577  0.2735 -0.0650
   34POPC  H16S 4586   4.450   3.247   8.859  0.2340  0.3667 -1.8976
   34POPC  C217 4587   4.575   3.129   8.737 -1.1166  0.0754  0.7181
   34POPC  H17R 4588   4.672   3.074   8.733 -0.2056  1.6519 -2.5227
   34POPC  H17S 4589   4.565   3.207   8.658 -0.0225 -1.2507 -0.8029
   34POPC  C218 4590   4.462   3.027   8.698  0.1162 -0.0441 -0.4761
   34POPC  H18R 4591   4.482   3.006   8.590  1.0347 -0.9313 -0.1554
   34POPC  H18S 4592   4.366   3.080   8.710  0.3489  0.0252  1.3119
   34POPC  H18T 4593   4.468   2.936   8.761  0.9751 -0.3588 -0.9790
   34POPC   C33 4594   5.093   3.011  10.227  0.9073  0.4065 -0.2697
   34POPC   H3X 4595   5.001   3.074  10.229  0.0868 -0.7540  1.4230
   34POPC   H3Y 4596   5.066   2.903  10.228 -0.1115  0.6483 -0.1750
   34POPC   C34 4597   5.158   3.040  10.098 -0.5283  0.1616  0.5444
   34POPC   H4X 4598   5.257   2.989  10.090  0.4488  1.6236  2.3017
   34POPC   H4Y 4599   5.189   3.145  10.117  2.1842 -0.5984  0.8351
   34POPC   C35 4600   5.070   3.021   9.979 -0.4344 -0.2841  0.4786
   34POPC   H5X 4601   4.986   3.094   9.980 -0.1564  0.0310  1.3579
   34POPC   H5Y 4602   5.019   2.923   9.971 -1.6617  0.4250 -1.0580
   34POPC   C36 4603   5.150   3.053   9.851  0.1564 -0.2075 -0.3300
   34POPC   H6X 4604   5.231   2.980   9.827  0.6271  1.1101 -3.2362
   34POPC   H6Y 4605   5.207   3.147   9.865  0.4750 -0.7368  2.5043
   34POPC   C37 4606   5.067   3.082   9.731 -0.2879  0.4150 -0.9343
   34POPC   H7X 4607   5.121   3.141   9.654  0.1375  3.3143  1.3937
   34POPC   H7Y 4608   4.977   3.135   9.769  0.1847  1.3568 -1.1176
   34POPC   C38 4609   5.015   2.952   9.658 -0.4913 -1.3145  0.3326
   34POPC   H8X 4610   4.969   2.885   9.734  0.3989 -3.4553 -0.9574
   34POPC   H8Y 4611   5.096   2.893   9.610 -0.0051  1.4939 -2.6355
   34POPC   C39 4612   4.912   2.992   9.551 -1.1122 -0.2178  0.0316
   34POPC   H9X 4613   4.827   3.044   9.600  0.6918  2.1521  0.8271
   34POPC   H9Y 4614   4.865   2.898   9.513 -0.7422 -0.2343 -0.3789
   34POPC  C310 4615   4.971   3.060   9.427  0.2778  0.3980  0.7242
   34POPC  H10X 4616   5.067   3.006   9.413  0.2729  0.3460  0.8943
   34POPC  H10Y 4617   4.979   3.168   9.455 -3.4139  0.3176  2.6581
   34POPC  C311 4618   4.887   3.052   9.293  0.3557 -0.7373 -0.5434
   34POPC  H11X 4619   4.917   3.135   9.225 -0.4420 -0.5920 -0.7327
   34POPC  H11Y 4620   4.780   3.072   9.312  0.6406 -0.2633  0.6215
   34POPC  C312 4621   4.905   2.926   9.212 -1.1663 -0.3369  0.1908
   34POPC  H12X 4622   4.851   2.839   9.257  1.5992 -1.6790  1.1058
   34POPC  H12Y 4623   5.011   2.894   9.216 -1.6212 -2.3054 -1.5478
   34POPC  C313 4624   4.861   2.930   9.065 -0.6946  0.4281  0.2398
   34POPC  H13X 4625   4.846   3.034   9.029 -0.4950  0.0812 -0.8985
   34POPC  H13Y 4626   4.757   2.892   9.063 -0.2162 -0.8898 -0.4716
   34POPC  C314 4627   4.962   2.869   8.967 -0.1385  0.0823  0.1709
   34POPC  H14X 4628   5.057   2.923   8.989 -0.1882  0.7094 -1.0619
   34POPC  H14Y 4629   4.936   2.875   8.859  1.3281 -0.9622 -0.2755
   34POPC  C315 4630   4.987   2.719   8.993  0.3405 -0.0245  0.5103
   34POPC  H15X 4631   4.897   2.658   8.972  0.4298 -0.2389  0.7448
   34POPC  H15Y 4632   5.012   2.689   9.097  1.0205 -2.5889 -0.3242
   34POPC  C316 4633   5.105   2.660   8.912 -0.4592  0.1503  0.4419
   34POPC  H16X 4634   5.084   2.646   8.804 -1.5805  0.4913  0.5975
   34POPC  H16Y 4635   5.131   2.556   8.943 -1.0006 -0.4071 -0.8856
   34POPC  H16Z 4636   5.196   2.722   8.917 -0.1762 -0.0755 -1.3021
   35POPC     N 4637   5.300   5.845  11.033  0.2165  0.3591 -0.2982
   35POPC   C12 4638   5.151   5.886  11.042 -0.4488  1.1647  0.0985
   35POPC  H12A 4639   5.141   5.990  11.014 -1.0020  0.6870 -1.5786
   35POPC  H12B 4640   5.122   5.874  11.146 -1.3496 -1.1221 -0.3569
   35POPC   C13 4641   5.355   5.862  10.894 -0.1822  0.3571  0.0689
   35POPC  H13A 4642   5.452   5.816  10.901  0.5112  1.9887  2.2717
   35POPC  H13B 4643   5.287   5.809  10.830 -0.8678  1.3440 -0.0467
   35POPC  H13C 4644   5.350   5.964  10.857 -2.7610  0.1530 -0.3601
   35POPC   C14 4645   5.381   5.934  11.124 -0.0211  0.8735  0.1813
   35POPC  H14A 4646   5.361   6.038  11.103 -0.8056  0.4224 -1.5308
   35POPC  H14B 4647   5.361   5.916  11.228 -1.0794  2.8090  0.3520
   35POPC  H14C 4648   5.486   5.923  11.104  0.6355  2.5386  2.3632
   35POPC   C15 4649   5.321   5.704  11.082 -0.2824 -0.6188  0.4601
   35POPC  H15A 4650   5.301   5.695  11.187  1.6839  0.2598  0.9510
   35POPC  H15B 4651   5.420   5.665  11.066  0.5886  1.2222  1.1674
   35POPC  H15C 4652   5.245   5.639  11.040 -1.6524  2.5917 -2.5044
   35POPC   C11 4653   5.056   5.805  10.954 -0.0241 -0.3553 -0.9160
   35POPC  H11A 4654   5.105   5.813  10.855  1.2926 -0.8899 -0.3400
   35POPC  H11B 4655   4.964   5.866  10.948  0.9130  1.7457  2.7127
   35POPC     P 4656   4.942   5.660  11.130 -0.0219 -0.0021  0.0746
   35POPC   O13 4657   4.958   5.766  11.230  0.4135  0.3201 -0.0489
   35POPC   O14 4658   4.961   5.522  11.174 -0.4229  0.1099 -0.2370
   35POPC   O12 4659   5.037   5.677  11.005  0.3644  0.0249  0.0716
   35POPC   O11 4660   4.794   5.675  11.078  0.0144 -0.7093  0.7012
   35POPC    C1 4661   4.737   5.582  10.980 -0.5803 -0.2423  0.0562
   35POPC    HA 4662   4.628   5.605  10.987 -0.1245  1.6177  2.6827
   35POPC    HB 4663   4.749   5.478  11.018 -0.1602 -0.5083 -0.7858
   35POPC    C2 4664   4.788   5.598  10.833  0.2445 -0.0960 -0.3695
   35POPC    HS 4665   4.893   5.564  10.845  0.1666  0.4134  2.5263
   35POPC   O21 4666   4.785   5.737  10.804  0.2070 -0.3563 -0.1119
   35POPC   C21 4667   4.845   5.784  10.694  1.1199 -0.0353 -0.7641
   35POPC   O22 4668   4.929   5.729  10.623  0.4532  0.4271 -0.1443
   35POPC   C22 4669   4.796   5.922  10.662  0.0321  0.0279 -0.0094
   35POPC   H2R 4670   4.870   5.981  10.721  0.0177 -1.1803  1.2771
   35POPC   H2S 4671   4.692   5.939  10.696 -1.4847 -2.6643 -2.9300
   35POPC    C3 4672   4.708   5.510  10.731 -0.2652  0.9893  0.4290
   35POPC    HX 4673   4.605   5.550  10.730  0.3246  2.5689 -0.1865
   35POPC    HY 4674   4.688   5.406  10.765  0.0034  1.0267  0.7094
   35POPC   O31 4675   4.760   5.527  10.603  0.2542 -0.0700  0.5283
   35POPC   C31 4676   4.865   5.446  10.563 -0.4848 -0.3327 -0.2679
   35POPC   O32 4677   4.907   5.353  10.634 -0.8347  0.1456  0.4565
   35POPC   C32 4678   4.934   5.505  10.437 -0.5579 -0.4967  0.1035
   35POPC   H2X 4679   5.026   5.554  10.475  1.0602 -1.1420 -2.7279
   35POPC   H2Y 4680   4.866   5.579  10.390  1.2977 -0.0930 -2.1100
   35POPC   C23 4681   4.808   5.959  10.510  0.3305  0.3623  0.1141
   35POPC   H3R 4682   4.909   5.943  10.468 -0.0284 -1.1257 -0.2602
   35POPC   H3S 4683   4.767   6.062  10.512  1.3849  0.7905  1.3633
   35POPC   C24 4684   4.709   5.877  10.412  0.4940 -0.2190  0.1129
   35POPC   H4R 4685   4.603   5.874  10.446 -0.5349 -1.7017 -2.9447
   35POPC   H4S 4686   4.745   5.778  10.378  0.9414 -0.4043  1.0720
   35POPC   C25 4687   4.685   5.955  10.275  0.4021  0.0643  0.4004
   35POPC   H5R 4688   4.632   6.048  10.305 -0.5412  0.4196 -2.1538
   35POPC   H5S 4689   4.602   5.907  10.220 -1.0148  2.4257  0.3582
   35POPC   C26 4690   4.797   5.966  10.175 -0.3817  0.4840 -0.1700
   35POPC   H6R 4691   4.854   6.053  10.214 -0.2705  0.1304  0.4693
   35POPC   H6S 4692   4.758   5.987  10.073  1.6305  0.6014 -0.9547
   35POPC   C27 4693   4.896   5.856  10.174  0.4304  0.4674  0.0910
   35POPC   H7R 4694   4.850   5.757  10.152  1.3291 -0.3725  1.7998
   35POPC   H7S 4695   4.944   5.836  10.273  0.3604  0.5206  0.1358
   35POPC   C28 4696   5.018   5.880  10.081 -0.4949 -0.9754 -0.3019
   35POPC   H8R 4697   5.089   5.796  10.097  0.0769 -0.1955  1.5423
   35POPC   H8S 4698   5.066   5.977  10.106  1.8702 -2.1704  0.1138
   35POPC   C29 4699   4.995   5.860   9.936  0.9901 -0.2899  0.0563
   35POPC   H91 4700   4.963   5.762   9.898 -0.5275  0.6621 -1.2550
   35POPC  C210 4701   4.995   5.958   9.841 -0.4899  0.1749 -0.0162
   35POPC  H101 4702   4.964   5.933   9.739  0.4258  2.6329 -0.9896
   35POPC  C211 4703   5.036   6.102   9.870  0.7825 -0.2240  0.3315
   35POPC  H11R 4704   5.126   6.143   9.819 -0.2623  1.1444 -0.5010
   35POPC  H11S 4705   5.046   6.128   9.978  0.1823 -0.7947  0.5282
   35POPC  C212 4706   4.933   6.202   9.813  0.7290 -0.0504  0.1755
   35POPC  H12R 4707   4.836   6.186   9.864 -0.1793  3.5686 -0.1739
   35POPC  H12S 4708   4.915   6.193   9.703  1.1474  1.8333 -0.0690
   35POPC  C213 4709   4.962   6.347   9.847 -0.2816  0.0150  0.0033
   35POPC  H13R 4710   5.046   6.368   9.778  1.1961 -1.3963  1.2829
   35POPC  H13S 4711   4.996   6.367   9.951  1.1138  2.0695 -0.7745
   35POPC  C214 4712   4.851   6.441   9.820 -0.3656  0.0308  0.5810
   35POPC  H14R 4713   4.886   6.545   9.838  0.5431 -0.0425 -0.6272
   35POPC  H14S 4714   4.774   6.428   9.900 -0.4176  1.1542  0.7266
   35POPC  C215 4715   4.790   6.442   9.679 -0.5969  0.1127 -0.0125
   35POPC  H15R 4716   4.727   6.352   9.662 -2.0364  1.3098 -1.2622
   35POPC  H15S 4717   4.862   6.433   9.595 -0.0179 -0.3209  0.5200
   35POPC  C216 4718   4.707   6.569   9.664 -0.3791 -0.5350  0.0787
   35POPC  H16R 4719   4.775   6.657   9.662  0.9094 -1.5099 -1.0523
   35POPC  H16S 4720   4.644   6.582   9.754 -0.5052  1.1681 -0.2193
   35POPC  C217 4721   4.615   6.572   9.539 -0.0811  0.5873 -0.3460
   35POPC  H17R 4722   4.558   6.668   9.538 -0.4539  0.3822  0.3283
   35POPC  H17S 4723   4.538   6.494   9.560  0.0468  0.5898  0.1448
   35POPC  C218 4724   4.685   6.547   9.409  0.3516 -0.0375  0.6304
   35POPC  H18R 4725   4.766   6.471   9.406 -0.5120 -1.0024  0.9172
   35POPC  H18S 4726   4.726   6.646   9.379 -0.0512 -0.3425 -1.0833
   35POPC  H18T 4727   4.611   6.518   9.331 -0.4863  0.7503  1.1183
   35POPC   C33 4728   4.981   5.402  10.327 -0.0925 -0.6051 -0.0040
   35POPC   H3X 4729   4.899   5.380  10.257 -0.5624 -2.8714  1.1690
   35POPC   H3Y 4730   5.010   5.300  10.360  1.2736 -1.1111 -2.5131
   35POPC   C34 4731   5.099   5.459  10.247 -0.3836 -0.1192 -0.2076
   35POPC   H4X 4732   5.190   5.490  10.304  1.1053  1.6382 -3.2904
   35POPC   H4Y 4733   5.067   5.554  10.200 -1.0327 -0.9700 -1.5388
   35POPC   C35 4734   5.140   5.365  10.131  0.1087 -0.4144  0.2486
   35POPC   H5X 4735   5.056   5.342  10.062  2.3097 -1.7376 -2.1585
   35POPC   H5Y 4736   5.162   5.267  10.177  0.8347 -0.2030  0.3699
   35POPC   C36 4737   5.251   5.407  10.043  0.5748  0.0722  0.0316
   35POPC   H6X 4738   5.295   5.331   9.974  1.4866  1.4900 -1.0093
   35POPC   H6Y 4739   5.329   5.459  10.103 -1.3470  2.0609  0.9233
   35POPC   C37 4740   5.210   5.521   9.940  0.1540 -0.5123 -1.1682
   35POPC   H7X 4741   5.188   5.608  10.006  1.0091 -3.2436  3.1007
   35POPC   H7Y 4742   5.114   5.489   9.895  1.2703 -1.2114 -3.1663
   35POPC   C38 4743   5.320   5.571   9.843  0.1039  0.0767 -0.3422
   35POPC   H8X 4744   5.363   5.492   9.778  0.3541  0.4885 -0.6933
   35POPC   H8Y 4745   5.408   5.615   9.896 -0.4075 -0.1990  0.7560
   35POPC   C39 4746   5.265   5.676   9.752 -0.3115 -0.2575  0.5375
   35POPC   H9X 4747   5.250   5.771   9.807  1.2588  1.1895 -1.3821
   35POPC   H9Y 4748   5.169   5.640   9.708 -0.1188 -0.1132 -0.0092
   35POPC  C310 4749   5.359   5.712   9.641  0.3973  0.8746  0.1350
   35POPC  H10X 4750   5.371   5.623   9.575 -3.8537 -0.5622  0.9969
   35POPC  H10Y 4751   5.452   5.728   9.701 -0.6474 -2.0423  2.8663
   35POPC  C311 4752   5.325   5.842   9.564 -0.1045 -0.0531  0.2107
   35POPC  H11X 4753   5.403   5.867   9.489 -0.2079 -0.2657  0.0291
   35POPC  H11Y 4754   5.314   5.930   9.631 -3.5758  1.0033 -1.5032
   35POPC  C312 4755   5.192   5.832   9.493 -0.2282 -0.2556  0.4525
   35POPC  H12X 4756   5.110   5.827   9.568  1.2540  0.9125  2.2267
   35POPC  H12Y 4757   5.183   5.735   9.439 -0.2186 -2.0635  3.4519
   35POPC  C313 4758   5.168   5.946   9.388 -0.4925 -0.4532 -0.1047
   35POPC  H13X 4759   5.121   5.904   9.297 -0.5870  1.0267 -0.7601
   35POPC  H13Y 4760   5.271   5.965   9.351 -0.8520 -2.5686 -2.5116
   35POPC  C314 4761   5.087   6.069   9.442  0.4069  0.4476 -0.2149
   35POPC  H14X 4762   5.115   6.072   9.550  1.2214  0.1924 -0.4125
   35POPC  H14Y 4763   4.981   6.035   9.440  0.9451 -1.3351 -1.7522
   35POPC  C315 4764   5.104   6.200   9.357 -0.6759 -0.5032  0.1918
   35POPC  H15X 4765   5.208   6.185   9.321 -0.9733 -2.1279 -0.0851
   35POPC  H15Y 4766   5.104   6.288   9.425 -0.1758 -0.2284 -0.1537
   35POPC  C316 4767   5.008   6.220   9.246 -0.0729  0.2037 -0.5254
   35POPC  H16X 4768   4.971   6.121   9.214  0.6170  0.0977 -1.0142
   35POPC  H16Y 4769   5.046   6.287   9.166  3.1268 -2.1224 -1.1618
   35POPC  H16Z 4770   4.916   6.262   9.293  0.8479  1.7182  0.0155
   36POPC     N 4771   4.130   5.438  11.207  0.2344  0.1603  0.7946
   36POPC   C12 4772   4.131   5.548  11.095 -0.1899 -0.2422  0.6157
   36POPC  H12A 4773   4.227   5.597  11.089 -0.1859 -0.0173  2.1661
   36POPC  H12B 4774   4.066   5.629  11.126 -1.3556 -0.4446 -1.0975
   36POPC   C13 4775   4.175   5.494  11.335 -0.4004 -0.3580 -1.4563
   36POPC  H13A 4776   4.099   5.560  11.373  0.7130  0.7372 -1.0743
   36POPC  H13B 4777   4.203   5.418  11.407 -0.3524  1.2409  0.3063
   36POPC  H13C 4778   4.264   5.553  11.323  0.1318 -1.1353 -1.4317
   36POPC   C14 4779   3.986   5.400  11.217  0.5668 -0.2597  0.2418
   36POPC  H14A 4780   3.961   5.344  11.128  2.3381 -1.0660  0.1917
   36POPC  H14B 4781   3.965   5.347  11.308 -0.4822  2.2083  1.5324
   36POPC  H14C 4782   3.923   5.488  11.216 -0.6211 -1.0779 -1.2488
   36POPC   C15 4783   4.208   5.314  11.162 -0.3342 -0.1330  0.5807
   36POPC  H15A 4784   4.204   5.237  11.237  1.9688 -1.5901 -0.6841
   36POPC  H15B 4785   4.307   5.353  11.150 -1.0562  1.3231 -1.1680
   36POPC  H15C 4786   4.166   5.275  11.070  0.0509  0.1234  0.2919
   36POPC   C11 4787   4.090   5.522  10.948 -0.3359  0.1171 -0.2681
   36POPC  H11A 4788   4.154   5.437  10.915 -2.2368 -1.2414 -0.6377
   36POPC  H11B 4789   4.119   5.604  10.880 -2.7638  0.5221 -0.9007
   36POPC     P 4790   3.842   5.588  10.909  0.8587  0.2548  0.4280
   36POPC   O13 4791   3.847   5.647  10.769  0.0111 -0.8266 -0.6992
   36POPC   O14 4792   3.854   5.686  11.021 -0.5085 -0.3366 -0.4014
   36POPC   O12 4793   3.955   5.477  10.931 -0.2002 -0.0856  0.7722
   36POPC   O11 4794   3.702   5.515  10.927 -0.4375 -0.0933  0.0917
   36POPC    C1 4795   3.660   5.406  10.848 -0.0337 -0.2651 -0.3966
   36POPC    HA 4796   3.641   5.323  10.919  1.1144 -1.8128 -1.8305
   36POPC    HB 4797   3.747   5.369  10.790 -0.3865  0.8562 -1.7043
   36POPC    C2 4798   3.538   5.438  10.762 -0.6366  0.4586  0.5735
   36POPC    HS 4799   3.520   5.340  10.712 -0.2710  0.4988  0.3640
   36POPC   O21 4800   3.560   5.547  10.666 -0.1199 -0.7286  0.4071
   36POPC   C21 4801   3.633   5.515  10.559  0.2675  0.3316  1.1087
   36POPC   O22 4802   3.648   5.400  10.519 -0.1545  0.3615 -0.1002
   36POPC   C22 4803   3.682   5.636  10.492  0.4282  0.1939  0.2827
   36POPC   H2R 4804   3.717   5.610  10.389 -0.0744 -0.7401  0.3333
   36POPC   H2S 4805   3.768   5.683  10.545  0.9974 -1.7572  1.1971
   36POPC    C3 4806   3.407   5.479  10.844 -0.2532 -1.0521  0.4820
   36POPC    HX 4807   3.423   5.584  10.876 -0.6015 -1.3886  1.7954
   36POPC    HY 4808   3.392   5.417  10.935 -1.2629  0.8583  1.6957
   36POPC   O31 4809   3.295   5.466  10.755 -0.3460 -0.3046  0.4999
   36POPC   C31 4810   3.216   5.564  10.746 -0.7916 -1.1421  0.0631
   36POPC   O32 4811   3.212   5.658  10.828  0.0432 -0.4629 -0.0609
   36POPC   C32 4812   3.110   5.541  10.637 -0.2619  0.0541  0.4010
   36POPC   H2X 4813   3.024   5.514  10.702 -1.7510  0.8060 -1.1983
   36POPC   H2Y 4814   3.135   5.459  10.567 -2.8051 -0.2915 -0.1637
   36POPC   C23 4815   3.561   5.733  10.464 -0.5271  0.3979 -0.8897
   36POPC   H3R 4816   3.523   5.772  10.560 -1.2094 -1.1131 -0.5224
   36POPC   H3S 4817   3.485   5.680  10.403  0.0280 -1.8937  0.2890
   36POPC   C24 4818   3.612   5.861  10.390  0.0114  1.0703  0.2620
   36POPC   H4R 4819   3.697   5.904  10.447  0.8482 -0.9431  0.5962
   36POPC   H4S 4820   3.528   5.933  10.405  0.1088  1.0263  1.1196
   36POPC   C25 4821   3.628   5.836  10.237  0.2179 -0.4433 -0.5281
   36POPC   H5R 4822   3.529   5.812  10.193  0.5998  0.8889 -2.2455
   36POPC   H5S 4823   3.689   5.747  10.214 -1.5687 -2.1687  1.0833
   36POPC   C26 4824   3.663   5.964  10.159  0.0905 -0.3292  0.2679
   36POPC   H6R 4825   3.755   6.010  10.202 -0.6819 -0.1012  1.7779
   36POPC   H6S 4826   3.582   6.038  10.176 -0.0684 -0.7299  1.3982
   36POPC   C27 4827   3.669   5.959  10.010 -0.4895  0.4209  0.7503
   36POPC   H7R 4828   3.580   5.897   9.985  1.3909 -1.6539 -1.4776
   36POPC   H7S 4829   3.760   5.902   9.981 -0.4405  1.3522 -1.0673
   36POPC   C28 4830   3.680   6.096   9.947 -0.1396 -0.5291  0.0596
   36POPC   H8R 4831   3.763   6.150   9.996  2.2247 -1.5041 -2.5642
   36POPC   H8S 4832   3.581   6.142   9.967  1.4067  3.0018  0.3204
   36POPC   C29 4833   3.712   6.089   9.795  0.9777  0.4153 -0.6413
   36POPC   H91 4834   3.650   6.019   9.736 -0.4047  2.4681 -1.7446
   36POPC  C210 4835   3.824   6.139   9.739 -0.0749  0.6080  0.0129
   36POPC  H101 4836   3.848   6.111   9.635  0.6093  1.8681 -0.1901
   36POPC  C211 4837   3.921   6.229   9.803  0.0413 -0.4204  0.5673
   36POPC  H11R 4838   4.012   6.217   9.739  0.2465  1.7729  0.3714
   36POPC  H11S 4839   3.964   6.199   9.901  0.2634  1.6997  1.1805
   36POPC  C212 4840   3.894   6.380   9.789 -0.0482  0.2361  0.2534
   36POPC  H12R 4841   3.803   6.397   9.850  1.1720  1.1870  1.8739
   36POPC  H12S 4842   3.861   6.393   9.683 -0.2622 -0.9495  0.1645
   36POPC  C213 4843   4.001   6.479   9.821  0.7497 -0.1425 -0.0234
   36POPC  H13R 4844   4.069   6.484   9.733 -0.3842 -1.1839 -0.9915
   36POPC  H13S 4845   4.064   6.451   9.908  0.9784 -3.0497 -1.0253
   36POPC  C214 4846   3.938   6.623   9.840  0.5442 -0.1018  0.2369
   36POPC  H14R 4847   3.841   6.612   9.893 -0.1241  1.9927 -0.4497
   36POPC  H14S 4848   3.929   6.662   9.736  2.3650 -1.0293 -0.3017
   36POPC  C215 4849   4.026   6.731   9.912 -0.6156  0.2075 -0.4120
   36POPC  H15R 4850   4.032   6.707  10.020  4.9223 -2.5821 -0.9604
   36POPC  H15S 4851   3.979   6.829   9.889 -2.1634  0.0313  1.6944
   36POPC  C216 4852   4.165   6.739   9.852 -0.6423  0.2538  0.0372
   36POPC  H16R 4853   4.223   6.644   9.850  1.5959  1.4778  1.7512
   36POPC  H16S 4854   4.222   6.808   9.919 -0.1726 -0.6712  0.6149
   36POPC  C217 4855   4.170   6.777   9.698 -0.2565  0.0275  0.4596
   36POPC  H17R 4856   4.099   6.857   9.669 -0.7068  0.2194  2.0112
   36POPC  H17S 4857   4.135   6.693   9.635 -0.3499  0.2716  0.1847
   36POPC  C218 4858   4.311   6.818   9.653  0.8150 -0.0128 -0.2856
   36POPC  H18R 4859   4.362   6.870   9.737  4.1758 -3.5822  0.1426
   36POPC  H18S 4860   4.306   6.877   9.559  1.5836 -0.6903 -0.7591
   36POPC  H18T 4861   4.358   6.723   9.620 -1.5848 -0.5326 -2.5725
   36POPC   C33 4862   3.072   5.666  10.558  0.0596 -0.1203  0.5672
   36POPC   H3X 4863   3.083   5.754  10.625  2.8084  0.4199 -0.4652
   36POPC   H3Y 4864   2.963   5.661  10.539  0.0553  0.9941  0.2198
   36POPC   C34 4865   3.144   5.665  10.423 -0.7967 -0.0357  0.5920
   36POPC   H4X 4866   3.152   5.570  10.365  1.1571  1.3796 -1.6108
   36POPC   H4Y 4867   3.253   5.676  10.441 -0.1684 -0.6540 -2.2789
   36POPC   C35 4868   3.108   5.789  10.341 -0.8425  0.6793 -0.6096
   36POPC   H5X 4869   3.108   5.872  10.415 -0.2439  0.8263 -0.7683
   36POPC   H5Y 4870   3.000   5.780  10.313 -1.9901 -0.1036  3.4183
   36POPC   C36 4871   3.201   5.808  10.229 -0.1318 -0.4773  0.4750
   36POPC   H6X 4872   3.305   5.810  10.270 -0.1775 -0.0754  0.5750
   36POPC   H6Y 4873   3.190   5.915  10.202  0.9774 -0.3687  0.3857
   36POPC   C37 4874   3.193   5.715  10.106  0.2942 -0.1145  0.0081
   36POPC   H7X 4875   3.085   5.720  10.080  0.1878  2.5780  0.7055
   36POPC   H7Y 4876   3.229   5.618  10.146  0.5334  0.5583  1.4763
   36POPC   C38 4877   3.278   5.757   9.984 -0.7427  0.4420  0.7765
   36POPC   H8X 4878   3.258   5.674   9.912 -1.4334  0.9117  0.4181
   36POPC   H8Y 4879   3.385   5.767  10.013  0.1171 -0.0732 -1.9032
   36POPC   C39 4880   3.226   5.894   9.915 -0.4404  0.9448 -0.1943
   36POPC   H9X 4881   3.253   5.982   9.978 -1.1973  1.4573 -0.5715
   36POPC   H9Y 4882   3.117   5.878   9.927 -0.1438 -0.6142  0.5603
   36POPC  C310 4883   3.287   5.926   9.778  1.0243  0.3069  0.0190
   36POPC  H10X 4884   3.396   5.946   9.788  1.1592  1.0657 -2.3569
   36POPC  H10Y 4885   3.234   6.013   9.733 -1.3170 -1.9139 -1.8088
   36POPC  C311 4886   3.254   5.819   9.669 -0.7807  0.6792  0.4866
   36POPC  H11X 4887   3.143   5.820   9.667 -0.9321 -2.7926 -0.0736
   36POPC  H11Y 4888   3.287   5.716   9.695 -1.3803  0.1734 -0.6827
   36POPC  C312 4889   3.322   5.844   9.534  0.0049 -0.5251 -0.3873
   36POPC  H12X 4890   3.422   5.798   9.542 -0.3134 -1.5428 -1.8405
   36POPC  H12Y 4891   3.316   5.954   9.518 -1.9098 -0.1315  2.2465
   36POPC  C313 4892   3.254   5.763   9.426  0.4430 -0.3804  0.0835
   36POPC  H13X 4893   3.146   5.788   9.423  0.6258  1.6178  3.9150
   36POPC  H13Y 4894   3.253   5.654   9.447  0.7226 -0.3714  0.1544
   36POPC  C314 4895   3.328   5.788   9.297  0.9303  0.5181 -0.1147
   36POPC  H14X 4896   3.417   5.721   9.298  1.1697  0.7908 -1.3919
   36POPC  H14Y 4897   3.376   5.888   9.306  0.6243  0.5318  1.7517
   36POPC  C315 4898   3.243   5.765   9.171  0.4643 -0.7563 -0.3266
   36POPC  H15X 4899   3.169   5.848   9.170  0.6949 -0.5501 -0.6286
   36POPC  H15Y 4900   3.186   5.670   9.174 -2.2023  0.7102 -1.4476
   36POPC  C316 4901   3.319   5.775   9.035 -0.0650  0.5432 -0.3370
   36POPC  H16X 4902   3.364   5.876   9.022  1.4911 -0.1468 -0.5366
   36POPC  H16Y 4903   3.254   5.756   8.947  0.7082 -0.8676 -0.6318
   36POPC  H16Z 4904   3.402   5.701   9.037 -0.3262  0.1956 -1.6207
   37POPC     N 4905   3.002   3.603   6.591  0.0220 -0.3058 -0.4338
   37POPC   C12 4906   3.030   3.678   6.461 -0.1058 -0.3166 -0.0936
   37POPC  H12A 4907   2.957   3.655   6.385  1.1184  1.0349 -1.7589
   37POPC  H12B 4908   3.124   3.638   6.425 -0.7784 -0.5935 -1.6350
   37POPC   C13 4909   2.887   3.676   6.659 -0.7033  0.4047 -0.3727
   37POPC  H13A 4910   2.926   3.768   6.700  1.8689 -0.7175 -0.1209
   37POPC  H13B 4911   2.804   3.696   6.592 -0.5296 -0.4151 -0.8480
   37POPC  H13C 4912   2.855   3.617   6.744  1.0349 -1.4019 -0.8862
   37POPC   C14 4913   2.952   3.469   6.557  0.0408  0.0562  0.5231
   37POPC  H14A 4914   2.863   3.479   6.497 -0.1319  0.2963  0.8177
   37POPC  H14B 4915   3.023   3.413   6.498  0.9204 -0.2821  1.8549
   37POPC  H14C 4916   2.920   3.414   6.645 -1.0657 -0.8124 -0.3986
   37POPC   C15 4917   3.117   3.599   6.690  0.1106  1.1169 -0.4947
   37POPC  H15A 4918   3.171   3.692   6.677  2.0676 -0.2585 -3.1312
   37POPC  H15B 4919   3.191   3.522   6.673  1.5950  2.2472  0.5491
   37POPC  H15C 4920   3.089   3.590   6.793  0.4444 -1.7810 -0.5836
   37POPC   C11 4921   3.036   3.834   6.466 -0.0552  0.6529 -0.0495
   37POPC  H11A 4922   2.931   3.867   6.474 -0.4389  0.9577 -4.2878
   37POPC  H11B 4923   3.058   3.862   6.361  0.5344 -2.1596 -0.7641
   37POPC     P 4924   3.081   4.023   6.621 -0.2847  0.1934 -0.2095
   37POPC   O13 4925   2.939   4.036   6.653 -0.3408 -0.0765  0.2992
   37POPC   O14 4926   3.135   4.120   6.527 -0.2828  0.3490 -0.7655
   37POPC   O12 4927   3.121   3.875   6.572  0.3498  0.1204 -0.2130
   37POPC   O11 4928   3.159   4.019   6.764 -0.5402 -0.4776 -0.0703
   37POPC    C1 4929   3.263   4.118   6.778  0.2883 -0.0647  0.3704
   37POPC    HA 4930   3.218   4.220   6.774  1.3690  0.3809 -0.8652
   37POPC    HB 4931   3.333   4.123   6.692 -0.4968 -0.1938 -0.2963
   37POPC    C2 4932   3.334   4.101   6.911 -0.0427 -0.4377  0.8750
   37POPC    HS 4933   3.408   4.018   6.903  1.8591  1.2140  0.5529
   37POPC   O21 4934   3.231   4.088   7.011 -0.3199  0.0446  0.0564
   37POPC   C21 4935   3.257   4.013   7.107 -0.5143  0.3440  0.3350
   37POPC   O22 4936   3.360   3.949   7.129  0.0508 -0.7991 -0.0358
   37POPC   C22 4937   3.130   4.017   7.193 -0.7397 -0.4351 -0.3558
   37POPC   H2R 4938   3.053   3.962   7.135  0.0574 -0.6305 -1.2551
   37POPC   H2S 4939   3.118   4.126   7.207  3.2584  0.4802 -2.5878
   37POPC    C3 4940   3.418   4.231   6.943  0.5450  0.1191  0.1669
   37POPC    HX 4941   3.347   4.316   6.931 -3.3298 -2.3719  2.8178
   37POPC    HY 4942   3.501   4.254   6.872 -0.1864  2.9016  0.0714
   37POPC   O31 4943   3.468   4.234   7.081  0.0958 -0.0055  1.0309
   37POPC   C31 4944   3.579   4.160   7.092 -0.3348  0.9861 -0.0942
   37POPC   O32 4945   3.637   4.107   6.999  0.0458  0.2812 -0.2474
   37POPC   C32 4946   3.625   4.160   7.232  0.4048 -0.1986  0.3562
   37POPC   H2X 4947   3.529   4.176   7.285  0.2492  1.5027 -0.3901
   37POPC   H2Y 4948   3.703   4.237   7.249 -0.9604  1.6427 -1.3379
   37POPC   C23 4949   3.168   3.951   7.331 -0.1605  0.0411  0.0640
   37POPC   H3R 4950   3.229   3.861   7.308 -0.5890 -1.0344  2.7735
   37POPC   H3S 4951   3.074   3.904   7.367 -1.1734  0.3498 -2.0382
   37POPC   C24 4952   3.223   4.042   7.441 -0.7319  0.1245  0.1083
   37POPC   H4R 4953   3.130   4.095   7.469 -2.0584 -1.8745 -0.2480
   37POPC   H4S 4954   3.300   4.108   7.395 -1.9841  1.0825 -0.6517
   37POPC   C25 4955   3.275   3.963   7.557  0.1475  0.0617  0.6569
   37POPC   H5R 4956   3.366   3.903   7.539 -0.8956 -2.0333  2.0040
   37POPC   H5S 4957   3.201   3.883   7.576 -1.2371 -0.2880 -4.6516
   37POPC   C26 4958   3.276   4.056   7.681 -0.5181 -0.5939  0.0513
   37POPC   H6R 4959   3.178   4.108   7.695 -0.2346 -0.1382  0.3913
   37POPC   H6S 4960   3.355   4.134   7.671  0.7073 -1.6875  0.9176
   37POPC   C27 4961   3.297   3.981   7.814 -0.0376 -0.6840  0.0866
   37POPC   H7R 4962   3.387   3.916   7.806 -0.4885 -1.3346  0.2030
   37POPC   H7S 4963   3.208   3.915   7.823 -1.2226  0.9439  0.8388
   37POPC   C28 4964   3.331   4.078   7.931  0.3338  0.2337  0.3894
   37POPC   H8R 4965   3.333   4.019   8.025  1.0370  0.2256  0.3761
   37POPC   H8S 4966   3.235   4.132   7.935  0.8930  1.2627  0.1269
   37POPC   C29 4967   3.448   4.161   7.912  0.9065 -0.9264 -0.0950
   37POPC   H91 4968   3.433   4.270   7.904 -0.4540 -1.2238 -2.8550
   37POPC  C210 4969   3.581   4.129   7.926  0.2992 -0.2246  0.5109
   37POPC  H101 4970   3.655   4.207   7.901 -0.2016 -0.0738 -0.5700
   37POPC  C211 4971   3.640   3.993   7.960 -0.0881  0.3107 -0.4506
   37POPC  H11R 4972   3.705   3.954   7.879 -0.5113 -1.7297  0.1329
   37POPC  H11S 4973   3.560   3.917   7.959  1.4935 -1.4319 -1.9882
   37POPC  C212 4974   3.715   3.994   8.098  0.5986 -0.0684  0.3898
   37POPC  H12R 4975   3.650   4.049   8.170  0.2081  0.9627 -0.7292
   37POPC  H12S 4976   3.804   4.059   8.087  2.1899 -2.3047 -0.5517
   37POPC  C213 4977   3.749   3.851   8.139 -0.6561  0.4059 -0.0208
   37POPC  H13R 4978   3.845   3.819   8.092  0.9615 -0.7139  3.6834
   37POPC  H13S 4979   3.664   3.789   8.103 -1.3992  2.3739 -1.8551
   37POPC  C214 4980   3.760   3.826   8.291  0.7502 -0.6765  0.1966
   37POPC  H14R 4981   3.682   3.881   8.347  2.1814  1.8919 -0.1886
   37POPC  H14S 4982   3.852   3.878   8.327  0.5580 -1.4604  1.9323
   37POPC  C215 4983   3.760   3.682   8.334 -0.3890 -0.4193 -0.2878
   37POPC  H15R 4984   3.847   3.635   8.284  1.6705  1.1878  1.5508
   37POPC  H15S 4985   3.666   3.632   8.302 -1.4087  0.5622  1.0343
   37POPC  C216 4986   3.758   3.652   8.483 -0.2920 -0.7607 -0.1787
   37POPC  H16R 4987   3.844   3.708   8.523 -0.1878 -2.5414  2.3341
   37POPC  H16S 4988   3.782   3.544   8.499 -0.8585 -0.7090  1.1153
   37POPC  C217 4989   3.627   3.682   8.558  0.0392  0.6289  0.1975
   37POPC  H17R 4990   3.596   3.784   8.526  3.4955  1.6830 -0.2600
   37POPC  H17S 4991   3.653   3.685   8.666  0.4683  0.2213  0.1123
   37POPC  C218 4992   3.518   3.577   8.533 -0.3536 -0.5599 -0.2276
   37POPC  H18R 4993   3.496   3.573   8.425  0.0100 -1.6699 -0.2804
   37POPC  H18S 4994   3.432   3.599   8.600 -1.4422 -0.3404 -1.6589
   37POPC  H18T 4995   3.547   3.476   8.570  0.1563 -0.6065 -0.7389
   37POPC   C33 4996   3.691   4.031   7.275 -0.1579  0.6798  0.0154
   37POPC   H3X 4997   3.798   4.033   7.248 -0.0856  2.5043  0.3391
   37POPC   H3Y 4998   3.645   3.945   7.220  0.4442 -0.0014  0.5660
   37POPC   C34 4999   3.662   3.998   7.426 -0.0714 -0.0513  0.4236
   37POPC   H4X 5000   3.554   4.010   7.446 -0.1910  0.6512 -0.5678
   37POPC   H4Y 5001   3.713   4.073   7.492 -0.9140  1.4769 -0.6024
   37POPC   C35 5002   3.710   3.860   7.480 -0.0255  0.1296  0.3531
   37POPC   H5X 5003   3.821   3.859   7.478 -0.0331 -0.4209 -1.4808
   37POPC   H5Y 5004   3.663   3.787   7.411  1.2606  0.3459 -0.8054
   37POPC   C36 5005   3.663   3.833   7.621  0.1342  0.2965 -0.1374
   37POPC   H6X 5006   3.552   3.836   7.623 -0.0945 -0.1596  5.7028
   37POPC   H6Y 5007   3.693   3.921   7.682 -1.0396  1.6792 -1.4792
   37POPC   C37 5008   3.722   3.701   7.679 -0.3058  0.0891  0.7977
   37POPC   H7X 5009   3.833   3.699   7.674 -0.3472  0.4017 -0.7978
   37POPC   H7Y 5010   3.679   3.622   7.614  1.1813  0.2785 -0.4897
   37POPC   C38 5011   3.685   3.678   7.824 -0.0856 -0.1512  0.1180
   37POPC   H8X 5012   3.588   3.722   7.856 -0.5189 -0.6534 -0.4645
   37POPC   H8Y 5013   3.760   3.737   7.880  1.1354 -0.4783 -1.1016
   37POPC   C39 5014   3.687   3.528   7.857 -0.1186 -0.1162  0.8140
   37POPC   H9X 5015   3.784   3.500   7.809 -1.3828  0.2894 -2.1908
   37POPC   H9Y 5016   3.606   3.480   7.798  1.3293 -1.6122 -0.0315
   37POPC  C310 5017   3.674   3.500   8.005 -0.5460 -0.2609 -0.3498
   37POPC  H10X 5018   3.578   3.541   8.043 -1.5608 -2.8437  0.1027
   37POPC  H10Y 5019   3.764   3.537   8.060  0.8302 -1.2392 -1.8465
   37POPC  C311 5020   3.670   3.351   8.032  0.1619 -0.4018 -0.2917
   37POPC  H11X 5021   3.771   3.307   8.024  0.0240 -1.2057  1.7976
   37POPC  H11Y 5022   3.612   3.314   7.945  0.1844  0.9532 -0.9160
   37POPC  C312 5023   3.608   3.308   8.162  0.3476  0.1655 -0.0357
   37POPC  H12X 5024   3.499   3.303   8.143  0.0732 -0.3817  1.5054
   37POPC  H12Y 5025   3.623   3.377   8.247 -0.1370  0.9482 -0.5800
   37POPC  C313 5026   3.660   3.165   8.206  0.6894 -0.9447 -0.5257
   37POPC  H13X 5027   3.689   3.109   8.115  3.2451 -0.1368 -0.3109
   37POPC  H13Y 5028   3.575   3.114   8.255  1.2896 -0.5580  0.9778
   37POPC  C314 5029   3.792   3.176   8.285  0.2246 -0.5718  0.4110
   37POPC  H14X 5030   3.874   3.219   8.224  0.0896  0.9255  1.2271
   37POPC  H14Y 5031   3.826   3.072   8.306  0.7972  0.1669  3.6561
   37POPC  C315 5032   3.792   3.246   8.417  0.1937 -0.5325 -0.6819
   37POPC  H15X 5033   3.751   3.350   8.418  1.5872  0.0881 -2.8107
   37POPC  H15Y 5034   3.896   3.260   8.453  0.2397  0.7925 -1.2744
   37POPC  C316 5035   3.712   3.167   8.519 -0.1438 -0.0890  0.9472
   37POPC  H16X 5036   3.611   3.148   8.477  0.5244  1.5332 -1.6080
   37POPC  H16Y 5037   3.717   3.219   8.617  0.9165  1.4433  0.1146
   37POPC  H16Z 5038   3.755   3.066   8.535 -0.7555 -0.5324 -0.1233
   38POPC     N 5039   4.509   1.704   6.158  0.4637 -0.2502  0.2856
   38POPC   C12 5040   4.422   1.659   6.279  0.2982  0.0594  0.0138
   38POPC  H12A 5041   4.392   1.556   6.271 -1.8963  0.7762 -2.8486
   38POPC  H12B 5042   4.327   1.712   6.283  0.2823 -0.0412  1.2296
   38POPC   C13 5043   4.639   1.631   6.166  0.1448  0.1771 -0.4543
   38POPC  H13A 5044   4.687   1.653   6.260 -0.4377  2.3431 -0.5967
   38POPC  H13B 5045   4.620   1.526   6.150 -1.8640  0.7190 -2.2023
   38POPC  H13C 5046   4.699   1.669   6.084 -1.9465  1.4305 -1.4917
   38POPC   C14 5047   4.438   1.684   6.034  0.2973 -0.5037 -0.0732
   38POPC  H14A 5048   4.354   1.747   6.009  0.4697 -0.4037 -0.4015
   38POPC  H14B 5049   4.508   1.699   5.953 -0.2003 -1.2740 -0.6535
   38POPC  H14C 5050   4.411   1.579   6.035  0.3706 -0.5381  1.3663
   38POPC   C15 5051   4.559   1.849   6.162  0.1434 -0.6017  0.3531
   38POPC  H15A 5052   4.633   1.865   6.085  0.4316  0.0001  0.7458
   38POPC  H15B 5053   4.601   1.877   6.257 -1.1145  0.0356  0.7431
   38POPC  H15C 5054   4.480   1.921   6.147  0.8186  0.1575  0.3421
   38POPC   C11 5055   4.475   1.675   6.422 -0.0249  0.8608 -0.2076
   38POPC  H11A 5056   4.389   1.662   6.491  1.1408 -2.2591  0.8171
   38POPC  H11B 5057   4.512   1.780   6.432 -0.8200  0.9625  2.5181
   38POPC     P 5058   4.544   1.443   6.511 -0.3800 -0.2072 -0.3204
   38POPC   O13 5059   4.637   1.344   6.454 -0.6012 -0.0674  0.1400
   38POPC   O14 5060   4.397   1.420   6.499 -0.4117  0.5194 -0.2388
   38POPC   O12 5061   4.580   1.581   6.445 -0.0534  0.8935 -0.0340
   38POPC   O11 5062   4.582   1.480   6.659 -0.3190 -0.5749  0.0724
   38POPC    C1 5063   4.557   1.610   6.724 -0.9640  0.4087 -0.6385
   38POPC    HA 5064   4.451   1.617   6.754 -0.7093 -0.1822  0.4774
   38POPC    HB 5065   4.585   1.697   6.662  1.1984  0.3586  0.1714
   38POPC    C2 5066   4.643   1.612   6.855 -0.5914  0.1579 -0.2358
   38POPC    HS 5067   4.745   1.631   6.815 -0.4505  0.7500  0.3827
   38POPC   O21 5068   4.628   1.491   6.927  0.0949 -0.0227  0.8645
   38POPC   C21 5069   4.735   1.435   6.970 -0.5101  0.7345 -0.2991
   38POPC   O22 5070   4.850   1.463   6.935  0.4505 -0.4533 -0.0538
   38POPC   C22 5071   4.689   1.324   7.069 -0.1593 -0.4861  0.3722
   38POPC   H2R 5072   4.674   1.227   7.015  2.3504 -0.0606 -1.2589
   38POPC   H2S 5073   4.591   1.356   7.111 -0.0843  0.1790  0.0436
   38POPC    C3 5074   4.624   1.740   6.943 -0.1035  0.5985  0.7336
   38POPC    HX 5075   4.522   1.731   6.987  1.1631 -1.9305  3.4739
   38POPC    HY 5076   4.632   1.827   6.875 -0.7991 -0.5196 -0.8459
   38POPC   O31 5077   4.733   1.757   7.030  0.0321 -0.5055  0.1262
   38POPC   C31 5078   4.711   1.712   7.154 -0.2692 -0.3201 -0.1483
   38POPC   O32 5079   4.613   1.660   7.195  0.6954 -0.4847  0.2923
   38POPC   C32 5080   4.845   1.713   7.226 -0.0351 -0.3039 -0.4208
   38POPC   H2X 5081   4.910   1.780   7.164 -1.0639  0.2991 -0.8806
   38POPC   H2Y 5082   4.887   1.610   7.232  1.3489  0.2531 -0.0915
   38POPC   C23 5083   4.781   1.301   7.196 -0.0930  0.3552 -0.0104
   38POPC   H3R 5084   4.785   1.401   7.242  0.9516  0.4223 -0.2149
   38POPC   H3S 5085   4.884   1.268   7.169 -0.4684  1.1174 -2.6202
   38POPC   C24 5086   4.713   1.213   7.307 -0.4795  0.1059  0.3259
   38POPC   H4R 5087   4.718   1.106   7.279 -2.2366 -0.0470  0.4879
   38POPC   H4S 5088   4.602   1.221   7.303 -0.6985 -2.5001 -1.5933
   38POPC   C25 5089   4.764   1.229   7.454  0.1138 -0.9002 -0.3922
   38POPC   H5R 5090   4.742   1.337   7.471 -0.1623 -0.3883 -3.3814
   38POPC   H5S 5091   4.874   1.211   7.463  0.4419  1.4814  1.4470
   38POPC   C26 5092   4.695   1.150   7.565 -0.2764  0.2004 -0.5209
   38POPC   H6R 5093   4.710   1.040   7.555 -1.5899  0.0572 -1.1201
   38POPC   H6S 5094   4.586   1.166   7.555 -0.5146  0.0052  1.4537
   38POPC   C27 5095   4.753   1.185   7.712  0.2393  0.0218 -0.8142
   38POPC   H7R 5096   4.751   1.295   7.718 -0.2271 -0.0423  0.6192
   38POPC   H7S 5097   4.861   1.163   7.730 -0.1131  0.6215  2.8583
   38POPC   C28 5098   4.669   1.113   7.820 -0.7069  1.0435 -0.2228
   38POPC   H8R 5099   4.564   1.145   7.808 -1.3295  0.0174  1.8480
   38POPC   H8S 5100   4.699   1.147   7.922  2.5438 -0.9700 -0.3727
   38POPC   C29 5101   4.680   0.963   7.817  0.4090  0.0414 -0.4835
   38POPC   H91 5102   4.613   0.918   7.743  0.6250 -2.4630  0.7595
   38POPC  C210 5103   4.756   0.883   7.886  0.1504 -0.0356 -0.2593
   38POPC  H101 5104   4.745   0.775   7.867  1.5894 -0.4259  0.9177
   38POPC  C211 5105   4.868   0.932   7.984 -0.1982 -0.1088 -0.4889
   38POPC  H11R 5106   4.892   1.040   7.968 -0.7171 -0.1651 -1.7879
   38POPC  H11S 5107   4.958   0.869   7.995  1.1290  2.0246  2.2925
   38POPC  C212 5108   4.815   0.917   8.131 -0.5718  0.2750 -0.8805
   38POPC  H12R 5109   4.709   0.948   8.139 -1.4366 -2.8051  2.3232
   38POPC  H12S 5110   4.872   0.988   8.195  0.8066  0.9138 -2.7179
   38POPC  C213 5111   4.820   0.777   8.175  0.1841  0.2880 -0.3664
   38POPC  H13R 5112   4.925   0.739   8.179 -0.4797 -1.9987 -2.2940
   38POPC  H13S 5113   4.765   0.709   8.107  1.0949  0.3172 -1.1612
   38POPC  C214 5114   4.767   0.756   8.313  0.0714  0.2956 -0.2815
   38POPC  H14R 5115   4.732   0.651   8.313 -0.5053  0.4720  0.6002
   38POPC  H14S 5116   4.673   0.814   8.325  0.6020  1.0288  0.4625
   38POPC  C215 5117   4.864   0.796   8.424 -0.1931  0.2715  0.4668
   38POPC  H15R 5118   4.926   0.887   8.409  1.7677 -0.8268  1.5347
   38POPC  H15S 5119   4.929   0.706   8.425 -1.2958 -0.5635 -0.6793
   38POPC  C216 5120   4.810   0.800   8.565 -0.6500  0.4415 -0.1876
   38POPC  H16R 5121   4.738   0.716   8.573 -0.9388  0.6306 -0.7294
   38POPC  H16S 5122   4.753   0.892   8.586 -0.2624  0.5335  0.4967
   38POPC  C217 5123   4.915   0.789   8.680  0.5647 -0.3809 -0.4064
   38POPC  H17R 5124   4.866   0.830   8.771  0.0622 -0.0157 -0.8427
   38POPC  H17S 5125   4.987   0.867   8.648 -0.9746  0.9877 -0.6228
   38POPC  C218 5126   4.981   0.650   8.707  0.2954 -0.1481 -0.8533
   38POPC  H18R 5127   4.909   0.579   8.754 -1.2634  1.7376 -0.3014
   38POPC  H18S 5128   5.054   0.656   8.790 -1.1147 -2.0956  0.6442
   38POPC  H18T 5129   5.019   0.603   8.613 -0.1597 -1.0783 -0.5894
   38POPC   C33 5130   4.826   1.796   7.356 -0.1931 -0.1681  0.4465
   38POPC   H3X 5131   4.784   1.897   7.338  0.2943  0.4420  2.5232
   38POPC   H3Y 5132   4.930   1.821   7.382  0.2708  0.3589 -1.6828
   38POPC   C34 5133   4.759   1.732   7.477  0.7426 -0.7963 -0.0279
   38POPC   H4X 5134   4.815   1.639   7.502 -0.4335 -1.1442  1.5091
   38POPC   H4Y 5135   4.659   1.698   7.441  0.4427  0.0702 -0.0179
   38POPC   C35 5136   4.732   1.837   7.590  0.3056 -0.5451 -0.2460
   38POPC   H5X 5137   4.658   1.797   7.663 -1.0465  1.0082 -0.7161
   38POPC   H5Y 5138   4.682   1.921   7.537 -0.4407 -0.0333  1.2178
   38POPC   C36 5139   4.851   1.895   7.657 -0.1512 -0.6606  0.3343
   38POPC   H6X 5140   4.890   1.978   7.594 -0.1945 -0.1913  0.9159
   38POPC   H6Y 5141   4.934   1.823   7.670  0.0088 -0.4574  0.4600
   38POPC   C37 5142   4.819   1.963   7.790  0.5908 -0.4774  0.0637
   38POPC   H7X 5143   4.716   2.005   7.791 -0.1086 -2.0700 -0.3056
   38POPC   H7Y 5144   4.894   2.041   7.813  0.2351  0.0390 -0.5199
   38POPC   C38 5145   4.851   1.866   7.904  0.3789 -0.3315 -0.7860
   38POPC   H8X 5146   4.952   1.820   7.896  0.4381 -0.4660  0.4823
   38POPC   H8Y 5147   4.781   1.780   7.899  1.9446 -1.5984 -2.8043
   38POPC   C39 5148   4.846   1.923   8.052 -0.0989  0.4617  0.2758
   38POPC   H9X 5149   4.746   1.963   8.080 -0.2640  1.4598 -1.6151
   38POPC   H9Y 5150   4.935   1.990   8.051  1.7017 -1.7932  0.1753
   38POPC  C310 5151   4.872   1.814   8.156  0.3724 -0.5079  0.4230
   38POPC  H10X 5152   4.978   1.780   8.157  1.3227  1.9924  3.4113
   38POPC  H10Y 5153   4.816   1.723   8.128  1.9307 -1.7244  1.0626
   38POPC  C311 5154   4.843   1.868   8.291  0.2571  0.1803 -0.6539
   38POPC  H11X 5155   4.744   1.916   8.308 -0.3200 -1.0064 -0.5476
   38POPC  H11Y 5156   4.925   1.938   8.318  0.8500 -1.0895  1.0526
   38POPC  C312 5157   4.847   1.753   8.393 -0.1912 -0.0873  0.2000
   38POPC  H12X 5158   4.796   1.666   8.346 -1.2434  0.8246 -0.3893
   38POPC  H12Y 5159   4.787   1.790   8.479 -2.2464 -0.8412 -0.8469
   38POPC  C313 5160   4.982   1.705   8.457 -0.2762 -0.1908  0.0435
   38POPC  H13X 5161   5.043   1.793   8.485  0.2313 -0.6544  0.4146
   38POPC  H13Y 5162   5.052   1.659   8.383 -1.1679 -0.0068 -0.9408
   38POPC  C314 5163   4.949   1.622   8.585 -0.5352 -0.3290 -0.2405
   38POPC  H14X 5164   4.920   1.521   8.549 -2.4157  0.6545 -1.6712
   38POPC  H14Y 5165   4.861   1.670   8.634 -0.6400  0.2073 -0.9366
   38POPC  C315 5166   5.059   1.635   8.695 -0.4603  0.1098  0.5472
   38POPC  H15X 5167   5.149   1.629   8.631 -1.5913  3.1559 -1.5857
   38POPC  H15Y 5168   5.053   1.545   8.759 -0.3668 -0.1903  0.1356
   38POPC  C316 5169   5.048   1.761   8.783 -0.2972  0.3012 -0.3882
   38POPC  H16X 5170   5.137   1.762   8.849 -0.2328 -1.5929 -0.3953
   38POPC  H16Y 5171   4.955   1.766   8.843 -0.2507  2.5820 -0.4426
   38POPC  H16Z 5172   5.046   1.846   8.711 -2.1355  1.4580  0.9409
   39POPC     N 5173   3.850   0.453   6.342 -0.5410 -0.4134 -0.2218
   39POPC   C12 5174   3.783   0.526   6.454  0.5931  0.5464  0.1448
   39POPC  H12A 5175   3.851   0.608   6.472  2.8542 -0.5677 -2.4731
   39POPC  H12B 5176   3.791   0.475   6.549 -1.5654  0.4344  0.3178
   39POPC   C13 5177   3.792   0.317   6.307 -0.5485 -0.4473 -0.6985
   39POPC  H13A 5178   3.862   0.263   6.245  0.3306  1.4591 -1.4265
   39POPC  H13B 5179   3.779   0.247   6.388 -0.8583 -0.2325 -0.5599
   39POPC  H13C 5180   3.700   0.325   6.251  0.3999  0.3658 -2.2101
   39POPC   C14 5181   3.852   0.538   6.219 -0.1575  0.0776 -0.0578
   39POPC  H14A 5182   3.913   0.626   6.234  0.5209 -0.3543 -0.2464
   39POPC  H14B 5183   3.878   0.474   6.136 -1.1197 -3.0443  1.8840
   39POPC  H14C 5184   3.760   0.593   6.205  1.4458  3.0134  0.1549
   39POPC   C15 5185   3.988   0.419   6.376  0.0489  0.1719  0.4307
   39POPC  H15A 5186   4.000   0.351   6.459  0.6969  0.1438  0.3178
   39POPC  H15B 5187   4.034   0.513   6.403  0.8273  0.2872 -1.1486
   39POPC  H15C 5188   4.046   0.390   6.289  1.4960  2.2576  0.6274
   39POPC   C11 5189   3.632   0.566   6.438 -0.3875 -0.0575 -0.5600
   39POPC  H11A 5190   3.586   0.595   6.535  0.7686 -2.6384  0.8608
   39POPC  H11B 5191   3.567   0.480   6.412  0.3131 -0.5816 -0.5828
   39POPC     P 5192   3.679   0.813   6.358 -0.1191  0.1369 -0.1629
   39POPC   O13 5193   3.621   0.905   6.255  0.4513  0.1676  0.3606
   39POPC   O14 5194   3.828   0.793   6.351 -0.3343 -0.1189  0.2581
   39POPC   O12 5195   3.614   0.669   6.340 -0.8057 -0.0743 -0.1997
   39POPC   O11 5196   3.642   0.861   6.499  0.5427 -0.2166  0.1442
   39POPC    C1 5197   3.502   0.877   6.534 -0.4561 -0.0993  0.2394
   39POPC    HA 5198   3.499   0.835   6.637  2.9336  1.7630  1.2462
   39POPC    HB 5199   3.430   0.817   6.473  1.7024 -1.7479 -0.8318
   39POPC    C2 5200   3.458   1.024   6.538  0.1356 -0.3008  0.1185
   39POPC    HS 5201   3.445   1.059   6.433  0.3998 -2.0939 -0.5484
   39POPC   O21 5202   3.546   1.112   6.609  0.2847 -0.2065 -0.3433
   39POPC   C21 5203   3.538   1.239   6.586 -0.5516  0.2364  0.2758
   39POPC   O22 5204   3.456   1.296   6.520  0.1144  0.5916 -0.1719
   39POPC   C22 5205   3.670   1.309   6.628  0.2961  0.0945 -0.4323
   39POPC   H2R 5206   3.669   1.397   6.561 -2.8468  0.1323 -0.4929
   39POPC   H2S 5207   3.756   1.242   6.610 -0.3520 -0.8873  0.0429
   39POPC    C3 5208   3.316   1.015   6.599  0.0486 -0.1907 -0.1734
   39POPC    HX 5209   3.258   0.940   6.542  0.4020 -0.1863 -0.5445
   39POPC    HY 5210   3.266   1.113   6.580  2.5893  1.1181 -0.6242
   39POPC   O31 5211   3.321   0.968   6.731 -0.7081  0.0328  0.2902
   39POPC   C31 5212   3.345   1.060   6.819  0.2475  0.2131 -0.0945
   39POPC   O32 5213   3.358   1.178   6.800 -0.0102  0.6488 -0.1679
   39POPC   C32 5214   3.348   1.000   6.960 -0.2139  0.6522  0.6765
   39POPC   H2X 5215   3.279   0.914   6.951  2.8645 -1.8203 -1.5328
   39POPC   H2Y 5216   3.448   0.956   6.979 -0.7088 -0.8255 -0.0179
   39POPC   C23 5217   3.670   1.354   6.775 -0.6349  0.2168 -0.3657
   39POPC   H3R 5218   3.571   1.400   6.794 -0.0869  1.0729  0.5172
   39POPC   H3S 5219   3.748   1.433   6.785 -0.3411 -0.2006  0.8012
   39POPC   C24 5220   3.696   1.238   6.879  0.2911  0.4033 -0.0700
   39POPC   H4R 5221   3.801   1.209   6.856 -0.0708  0.4779 -1.9283
   39POPC   H4S 5222   3.640   1.148   6.849  0.4103 -0.1829  1.3893
   39POPC   C25 5223   3.672   1.284   7.028  0.0617  0.5947 -0.0406
   39POPC   H5R 5224   3.564   1.309   7.034 -0.2161 -0.5886  0.2674
   39POPC   H5S 5225   3.730   1.375   7.050 -0.2129  0.8879 -0.5081
   39POPC   C26 5226   3.709   1.168   7.123 -0.5168 -0.4320  0.2595
   39POPC   H6R 5227   3.816   1.142   7.125 -0.1066  1.1504  1.2881
   39POPC   H6S 5228   3.657   1.078   7.085  0.4749 -1.6543  1.6817
   39POPC   C27 5229   3.655   1.206   7.257  0.5596 -0.4063 -0.6363
   39POPC   H7R 5230   3.548   1.219   7.234  0.3945 -1.3511 -0.4472
   39POPC   H7S 5231   3.692   1.307   7.287 -2.2965 -0.1586  2.6458
   39POPC   C28 5232   3.685   1.098   7.364  0.5444 -0.0245  1.2864
   39POPC   H8R 5233   3.676   0.996   7.319  0.9341  0.3892  0.2258
   39POPC   H8S 5234   3.608   1.097   7.444  0.4842 -0.6083  1.2255
   39POPC   C29 5235   3.825   1.116   7.422  0.1919  0.5075  0.3168
   39POPC   H91 5236   3.908   1.113   7.351  1.0416  0.2970  1.2985
   39POPC  C210 5237   3.862   1.131   7.552  0.0502  0.4652  0.1406
   39POPC  H101 5238   3.966   1.137   7.589  1.9297 -1.3071 -4.2286
   39POPC  C211 5239   3.764   1.119   7.668  0.0276  0.2444  0.1014
   39POPC  H11R 5240   3.757   1.019   7.716 -1.4347 -0.0321 -0.6290
   39POPC  H11S 5241   3.665   1.152   7.630  1.7341  1.8020 -3.4354
   39POPC  C212 5242   3.799   1.219   7.782 -0.4905 -0.0988  0.1516
   39POPC  H12R 5243   3.774   1.322   7.750 -2.6291 -0.3020  0.9786
   39POPC  H12S 5244   3.905   1.210   7.814 -0.8146 -0.0776  1.3007
   39POPC  C213 5245   3.711   1.197   7.906 -0.1243 -0.5308  0.2986
   39POPC  H13R 5246   3.605   1.166   7.890 -0.3163  0.3032 -0.1183
   39POPC  H13S 5247   3.711   1.296   7.957 -0.7217 -1.2358  1.6976
   39POPC  C214 5248   3.781   1.103   7.998 -0.4113 -0.1821  0.1547
   39POPC  H14R 5249   3.886   1.137   8.009 -1.3464  2.2226  2.8969
   39POPC  H14S 5250   3.778   0.997   7.966  1.1947 -0.4919  0.9170
   39POPC  C215 5251   3.730   1.117   8.149 -0.0282  0.2292  0.2057
   39POPC  H15R 5252   3.734   1.226   8.171 -0.7814  0.1649  0.7112
   39POPC  H15S 5253   3.802   1.060   8.211 -0.0411 -1.1168 -0.9612
   39POPC  C216 5254   3.584   1.079   8.180  0.1345  0.3033  0.6894
   39POPC  H16R 5255   3.571   0.969   8.173 -1.9745  0.4402  1.4756
   39POPC  H16S 5256   3.520   1.120   8.098  1.5870  1.4478  0.0762
   39POPC  C217 5257   3.534   1.127   8.318 -0.3642 -0.3145 -0.2308
   39POPC  H17R 5258   3.541   1.238   8.324  0.0932 -0.2893 -1.0935
   39POPC  H17S 5259   3.610   1.092   8.391 -0.9561  1.0110  1.0834
   39POPC  C218 5260   3.396   1.065   8.345  0.0493  0.1216  0.2511
   39POPC  H18R 5261   3.414   0.956   8.334  0.6591  0.3048 -0.7125
   39POPC  H18S 5262   3.315   1.099   8.277  1.0585 -0.8113 -1.4680
   39POPC  H18T 5263   3.371   1.095   8.449 -1.5053 -2.9316  0.8688
   39POPC   C33 5264   3.304   1.098   7.067  0.8236  0.6678 -0.7409
   39POPC   H3X 5265   3.219   1.159   7.029  1.3343  1.4667 -0.6327
   39POPC   H3Y 5266   3.388   1.161   7.103  1.0856  0.3412 -0.7779
   39POPC   C34 5267   3.253   1.028   7.198 -0.1826  0.7049 -0.0720
   39POPC   H4X 5268   3.347   0.984   7.237  0.8895  2.5636 -0.3924
   39POPC   H4Y 5269   3.187   0.943   7.174 -1.3986  2.1034 -2.0200
   39POPC   C35 5270   3.171   1.106   7.295 -1.2969 -0.5112 -0.2761
   39POPC   H5X 5271   3.080   1.144   7.243 -2.0873 -0.5255  1.0387
   39POPC   H5Y 5272   3.218   1.206   7.312  1.7170 -1.6403 -1.3523
   39POPC   C36 5273   3.135   1.033   7.425  0.2655  0.8319  0.7418
   39POPC   H6X 5274   3.072   0.949   7.389  0.3162  1.0046  0.2440
   39POPC   H6Y 5275   3.060   1.086   7.488 -0.8996  2.6673 -1.9765
   39POPC   C37 5276   3.253   0.980   7.504 -0.5979  0.4967 -0.2450
   39POPC   H7X 5277   3.333   1.057   7.501  0.7096 -0.8104 -0.0459
   39POPC   H7Y 5278   3.291   0.896   7.441 -0.4747  0.7805 -0.5558
   39POPC   C38 5279   3.221   0.943   7.656  0.3430  0.1686  0.0474
   39POPC   H8X 5280   3.138   0.870   7.665  0.3916  0.3733  2.9089
   39POPC   H8Y 5281   3.184   1.038   7.700 -0.2536 -0.5878  1.2106
   39POPC   C39 5282   3.337   0.892   7.741 -0.3266  0.2170  0.0512
   39POPC   H9X 5283   3.432   0.950   7.737  0.6553 -1.3468 -0.4361
   39POPC   H9Y 5284   3.374   0.797   7.698  0.7308  1.1508 -1.1587
   39POPC  C310 5285   3.300   0.866   7.893 -0.1808 -0.1106 -0.1663
   39POPC  H10X 5286   3.262   0.951   7.953  1.5427  1.6035 -1.3883
   39POPC  H10Y 5287   3.390   0.845   7.954 -0.2584 -0.1891 -0.0771
   39POPC  C311 5288   3.206   0.741   7.901  0.6685  0.0843  1.1864
   39POPC  H11X 5289   3.238   0.687   7.810 -1.8037 -0.0111  0.2991
   39POPC  H11Y 5290   3.100   0.757   7.872  0.5391  0.6226  1.9182
   39POPC  C312 5291   3.216   0.651   8.026 -0.9279 -0.1213  0.0595
   39POPC  H12X 5292   3.306   0.591   8.003 -1.2073 -0.0414 -1.3787
   39POPC  H12Y 5293   3.132   0.579   8.015  0.9353 -2.4487  0.3583
   39POPC  C313 5294   3.222   0.727   8.158  1.4544  0.2836  0.0228
   39POPC  H13X 5295   3.136   0.797   8.151 -0.7478 -2.2527  0.3356
   39POPC  H13Y 5296   3.323   0.773   8.168  1.3309  0.1519  2.2450
   39POPC  C314 5297   3.190   0.641   8.284 -0.4333  0.3440  0.3472
   39POPC  H14X 5298   3.270   0.564   8.295 -1.0597 -0.1216  2.0855
   39POPC  H14Y 5299   3.102   0.574   8.272  0.2992 -0.5493 -0.1811
   39POPC  C315 5300   3.186   0.723   8.407 -0.3102  0.3654  0.1650
   39POPC  H15X 5301   3.102   0.796   8.400  0.4992  1.3794  0.7291
   39POPC  H15Y 5302   3.276   0.787   8.421  0.7454 -0.7534 -1.1860
   39POPC  C316 5303   3.171   0.635   8.529 -0.3774  0.0040 -0.3893
   39POPC  H16X 5304   3.103   0.550   8.508 -0.1115 -0.1296 -0.7158
   39POPC  H16Y 5305   3.132   0.695   8.614 -3.8985 -0.8184 -1.2805
   39POPC  H16Z 5306   3.265   0.584   8.560 -0.9734 -1.1368 -0.3969
   40POPC     N 5307   5.963   1.303   6.046  0.0884  0.4713  0.4996
   40POPC   C12 5308   6.003   1.258   6.182 -0.2157 -0.3806  0.2523
   40POPC  H12A 5309   5.917   1.249   6.247  0.1109  0.6413  0.8479
   40POPC  H12B 5310   6.063   1.333   6.231 -3.0364  2.0007  0.3970
   40POPC   C13 5311   5.906   1.440   6.058  0.5387  0.0642 -0.4611
   40POPC  H13A 5312   5.974   1.506   6.109  0.1328 -0.0411  0.2122
   40POPC  H13B 5313   5.895   1.484   5.960  0.4619 -0.4072 -0.6712
   40POPC  H13C 5314   5.815   1.451   6.114  0.3485  0.6923 -0.8833
   40POPC   C14 5315   6.084   1.308   5.954 -0.1440 -0.0418 -0.1901
   40POPC  H14A 5316   6.062   1.340   5.853  0.3309 -1.3900 -0.7440
   40POPC  H14B 5317   6.146   1.387   5.994 -0.1730 -0.5364  0.8736
   40POPC  H14C 5318   6.137   1.214   5.954 -1.2948 -0.7399 -1.7154
   40POPC   C15 5319   5.865   1.203   5.989 -0.4905  0.0904  0.1925
   40POPC  H15A 5320   5.848   1.220   5.883  1.6702 -0.7771 -0.3465
   40POPC  H15B 5321   5.778   1.207   6.052  0.3720  0.9638  1.3864
   40POPC  H15C 5322   5.901   1.104   6.011 -2.0990 -0.5536  0.0063
   40POPC   C11 5323   6.083   1.128   6.190 -0.6841 -0.0239  0.3915
   40POPC  H11A 5324   6.113   1.126   6.296 -0.5016  1.1146  0.3701
   40POPC  H11B 5325   6.169   1.119   6.120 -0.6835 -0.7966  0.4807
   40POPC     P 5326   6.067   0.867   6.152  0.0210  0.1667 -0.0124
   40POPC   O13 5327   6.209   0.877   6.112  0.2198 -0.4048 -0.1086
   40POPC   O14 5328   5.979   0.784   6.068 -0.8991  0.0250 -0.0782
   40POPC   O12 5329   6.003   1.012   6.168  0.1129  0.2677 -0.0753
   40POPC   O11 5330   6.046   0.809   6.295  0.3821  0.5432 -0.1610
   40POPC    C1 5331   6.059   0.893   6.417 -0.6721 -0.6917 -0.1203
   40POPC    HA 5332   6.011   0.993   6.415 -0.2334 -0.4797 -1.7279
   40POPC    HB 5333   6.167   0.913   6.435 -0.4629 -1.2536 -0.7139
   40POPC    C2 5334   5.998   0.830   6.554 -0.6092 -1.0031  0.6649
   40POPC    HS 5335   6.030   0.724   6.552  1.4529 -0.4108 -0.3010
   40POPC   O21 5336   5.861   0.831   6.539  0.6349 -0.6370 -0.1783
   40POPC   C21 5337   5.780   0.729   6.575 -0.3298 -0.4136  0.2277
   40POPC   O22 5338   5.819   0.619   6.613 -0.6008 -0.0821  0.3940
   40POPC   C22 5339   5.632   0.769   6.543 -0.0446  0.4825  0.1479
   40POPC   H2R 5340   5.600   0.709   6.455  0.4273  1.7984 -0.9649
   40POPC   H2S 5341   5.633   0.876   6.513 -1.7745  0.6891  0.7212
   40POPC    C3 5342   6.055   0.888   6.686 -0.3263 -0.4254  0.2639
   40POPC    HX 5343   6.017   0.992   6.679 -1.1036 -0.8185 -3.2153
   40POPC    HY 5344   6.166   0.889   6.685 -0.3053 -0.7415  1.1486
   40POPC   O31 5345   6.007   0.812   6.804 -0.2503  0.1034 -0.2474
   40POPC   C31 5346   6.098   0.718   6.836  0.1305 -0.2758  0.6345
   40POPC   O32 5347   6.194   0.687   6.768 -0.5306  0.5238  0.6023
   40POPC   C32 5348   6.047   0.635   6.955 -0.1778  0.3216 -0.5940
   40POPC   H2X 5349   5.957   0.585   6.913  0.1203  0.4730 -1.4305
   40POPC   H2Y 5350   6.022   0.713   7.029 -2.3702 -1.1453  0.2985
   40POPC   C23 5351   5.544   0.749   6.663 -0.5096  0.0555  0.2588
   40POPC   H3R 5352   5.575   0.655   6.714  0.7439  0.6351  0.5991
   40POPC   H3S 5353   5.438   0.743   6.631 -0.5813 -1.8165  0.7192
   40POPC   C24 5354   5.547   0.855   6.768 -0.5912 -0.3501  0.4276
   40POPC   H4R 5355   5.481   0.831   6.854  1.0190  0.6567  2.0230
   40POPC   H4S 5356   5.510   0.949   6.721 -0.5690  0.0105  1.1201
   40POPC   C25 5357   5.688   0.892   6.825 -0.3734 -0.0585  0.3715
   40POPC   H5R 5358   5.742   0.947   6.745 -2.0293  1.1420  0.0219
   40POPC   H5S 5359   5.750   0.803   6.845  0.9135  0.6071 -0.5143
   40POPC   C26 5360   5.683   0.995   6.939 -0.0044  0.0375  0.5213
   40POPC   H6R 5361   5.610   0.948   7.009 -2.2318  0.2498 -1.4878
   40POPC   H6S 5362   5.628   1.087   6.908 -1.3658 -1.4361 -1.7393
   40POPC   C27 5363   5.819   1.014   7.016 -0.0119 -0.3039  0.4435
   40POPC   H7R 5364   5.884   1.076   6.952 -1.1066  0.3260 -0.0724
   40POPC   H7S 5365   5.865   0.913   7.027 -0.8055 -0.7804 -0.4409
   40POPC   C28 5366   5.802   1.096   7.150 -0.5182 -0.8159 -1.1241
   40POPC   H8R 5367   5.894   1.087   7.211  0.3789  2.5243 -1.7929
   40POPC   H8S 5368   5.726   1.056   7.221  2.0106 -1.9777  1.0953
   40POPC   C29 5369   5.794   1.243   7.128 -0.1752  0.2453  0.7705
   40POPC   H91 5370   5.794   1.274   7.022 -0.2709  0.0718  0.7201
   40POPC  C210 5371   5.791   1.343   7.220 -0.1350  0.3731  1.0430
   40POPC  H101 5372   5.790   1.447   7.183 -3.0120  0.4278  1.1063
   40POPC  C211 5373   5.792   1.328   7.364 -0.9977 -0.3274 -0.4840
   40POPC  H11R 5374   5.873   1.386   7.414  0.4356 -4.0737  2.0173
   40POPC  H11S 5375   5.817   1.221   7.385 -0.4626  0.2732  2.3368
   40POPC  C212 5376   5.665   1.371   7.442 -0.1122 -0.2018  0.2837
   40POPC  H12R 5377   5.598   1.283   7.449  0.7663 -1.1251 -1.9353
   40POPC  H12S 5378   5.609   1.454   7.394  3.0221  1.8273 -0.1237
   40POPC  C213 5379   5.698   1.395   7.593 -0.3706 -0.0236 -0.0516
   40POPC  H13R 5380   5.739   1.498   7.597  0.6086 -0.3263 -1.5171
   40POPC  H13S 5381   5.774   1.320   7.623 -2.6253 -1.7440  1.6878
   40POPC  C214 5382   5.578   1.376   7.683  1.0234  0.4537  0.7707
   40POPC  H14R 5383   5.531   1.279   7.658 -0.6608  1.4784 -0.2142
   40POPC  H14S 5384   5.507   1.458   7.660  1.4811  0.4141 -0.9299
   40POPC  C215 5385   5.615   1.378   7.836 -0.2947 -0.1210  0.0949
   40POPC  H15R 5386   5.668   1.473   7.860  0.1985 -0.3385 -0.1262
   40POPC  H15S 5387   5.683   1.295   7.861  0.2769  0.1983 -0.3814
   40POPC  C216 5388   5.493   1.358   7.922  0.0790  0.3162  0.1002
   40POPC  H16R 5389   5.473   1.250   7.905  0.8716  0.1503  0.1697
   40POPC  H16S 5390   5.410   1.418   7.880 -1.3787 -2.1092 -0.6560
   40POPC  C217 5391   5.515   1.394   8.070  0.9482  0.7944  0.0222
   40POPC  H17R 5392   5.428   1.375   8.135  2.4494 -0.8273  1.6831
   40POPC  H17S 5393   5.539   1.503   8.064  3.6848  0.2603 -0.4556
   40POPC  C218 5394   5.632   1.324   8.134  0.3963 -1.0406 -0.0213
   40POPC  H18R 5395   5.609   1.216   8.144 -2.6648 -0.4701 -0.0759
   40POPC  H18S 5396   5.628   1.364   8.238  0.1822 -1.0900 -0.0099
   40POPC  H18T 5397   5.731   1.350   8.090  0.4294  1.3633  1.2961
   40POPC   C33 5398   6.143   0.520   7.002  0.6476 -0.5656 -1.1053
   40POPC   H3X 5399   6.248   0.554   7.016  1.1726 -1.7511 -1.9659
   40POPC   H3Y 5400   6.144   0.453   6.913 -2.6417 -1.6583 -0.4625
   40POPC   C34 5401   6.096   0.451   7.129 -0.3542 -0.5145 -0.4889
   40POPC   H4X 5402   6.134   0.346   7.127 -0.9243 -0.7207 -1.5251
   40POPC   H4Y 5403   5.987   0.429   7.128 -0.0910 -2.0877 -2.6060
   40POPC   C35 5404   6.134   0.515   7.264  0.8615  0.0375  0.1217
   40POPC   H5X 5405   6.108   0.623   7.260  1.3951  0.1568 -0.1744
   40POPC   H5Y 5406   6.245   0.510   7.271  0.9377  1.6399  0.3784
   40POPC   C36 5407   6.081   0.448   7.382 -0.0160 -0.0296 -0.0403
   40POPC   H6X 5408   6.132   0.350   7.390  0.9308  0.5452  1.5539
   40POPC   H6Y 5409   5.971   0.432   7.392 -0.7795  2.9785 -2.2870
   40POPC   C37 5410   6.117   0.526   7.514  0.0395  0.0296 -0.3422
   40POPC   H7X 5411   6.079   0.630   7.503 -1.2525 -0.6261 -3.2856
   40POPC   H7Y 5412   6.227   0.525   7.524 -0.0536 -1.5987  1.1217
   40POPC   C38 5413   6.051   0.463   7.644  0.2892 -0.7336  0.3865
   40POPC   H8X 5414   6.104   0.366   7.654 -0.4921 -1.2936 -0.6486
   40POPC   H8Y 5415   5.944   0.447   7.616  0.7333  0.6722 -2.4128
   40POPC   C39 5416   6.056   0.536   7.778  0.6119  0.0084 -0.2748
   40POPC   H9X 5417   6.011   0.637   7.771 -0.9300 -0.6737 -0.5104
   40POPC   H9Y 5418   6.165   0.549   7.794  0.4615  1.2239 -0.1741
   40POPC  C310 5419   5.988   0.465   7.890 -0.0323 -0.3777  0.8061
   40POPC  H10X 5420   6.022   0.359   7.896  0.0709 -0.2647  4.0642
   40POPC  H10Y 5421   5.878   0.463   7.875  0.2100  0.5726 -1.5648
   40POPC  C311 5422   6.021   0.522   8.027  0.2187  0.0331 -0.3690
   40POPC  H11X 5423   5.945   0.488   8.100 -1.0843  0.1630 -1.6271
   40POPC  H11Y 5424   6.011   0.632   8.028  1.0541  0.1672 -2.0417
   40POPC  C312 5425   6.166   0.488   8.076 -0.3590  0.7027  0.1500
   40POPC  H12X 5426   6.241   0.528   8.006 -2.1550  0.1363 -2.2278
   40POPC  H12Y 5427   6.186   0.379   8.068 -0.8240  0.7043 -1.1592
   40POPC  C313 5428   6.207   0.531   8.220  0.6511 -0.2965 -0.4317
   40POPC  H13X 5429   6.307   0.484   8.231  0.4469 -1.4472 -2.7254
   40POPC  H13Y 5430   6.144   0.488   8.301  0.6995  1.1248  0.3830
   40POPC  C314 5431   6.209   0.678   8.242 -0.4144 -0.6588 -0.3891
   40POPC  H14X 5432   6.100   0.699   8.253 -0.7172 -1.6794 -1.3132
   40POPC  H14Y 5433   6.253   0.737   8.159  1.6408  1.4835  2.0324
   40POPC  C315 5434   6.290   0.711   8.370 -0.6325 -0.3258 -0.1237
   40POPC  H15X 5435   6.395   0.681   8.349  0.1892  0.8058  2.0527
   40POPC  H15Y 5436   6.262   0.642   8.452 -0.0880 -0.6883 -0.2364
   40POPC  C316 5437   6.267   0.856   8.398  0.6744 -0.2567  0.4113
   40POPC  H16X 5438   6.327   0.891   8.485  3.2611  1.6412 -1.9293
   40POPC  H16Y 5439   6.163   0.889   8.416  0.6692  0.5777 -1.0280
   40POPC  H16Z 5440   6.309   0.910   8.310 -0.9600  0.2470 -0.0892
   41CHL1    C3 5441   5.737   4.964  10.318 -0.0869  0.0075  0.1051
   41CHL1    H3 5442   5.801   4.883  10.275  0.0862  0.2562 -0.1062
   41CHL1    O3 5443   5.729   4.937  10.457  0.5334 -0.5513 -0.0275
   41CHL1   H3' 5444   5.677   4.856  10.463 -0.5733  0.0654 -0.8530
   41CHL1    C4 5445   5.789   5.101  10.301  0.3371 -0.9151  0.1068
   41CHL1   H4A 5446   5.725   5.177  10.349 -1.0130 -0.7616 -1.8307
   41CHL1   H4B 5447   5.888   5.097  10.351  1.0295  1.1031 -1.0016
   41CHL1    C5 5448   5.793   5.130  10.155 -0.2426 -0.4677 -0.0753
   41CHL1    C6 5449   5.910   5.167  10.096 -0.1310  0.4511 -0.6614
   41CHL1    H6 5450   6.000   5.181  10.159 -1.5607 -1.5563  2.0188
   41CHL1    C7 5451   5.929   5.202   9.950  0.3439  0.0372  1.0579
   41CHL1   H7A 5452   5.986   5.297   9.943  1.2859 -0.5033  1.1446
   41CHL1   H7B 5453   5.978   5.111   9.908 -2.2750 -1.1572  0.3391
   41CHL1    C8 5454   5.794   5.217   9.881 -0.1631  0.0120  0.2898
   41CHL1    H8 5455   5.747   5.315   9.904  1.5164  0.7373  0.8080
   41CHL1   C14 5456   5.826   5.212   9.733 -0.5559 -0.1043  0.1521
   41CHL1   H14 5457   5.863   5.109   9.711  1.0728  0.8235 -1.8327
   41CHL1   C15 5458   5.930   5.304   9.665  0.1642  0.5651 -0.0569
   41CHL1  H15A 5459   5.912   5.412   9.686  0.1701  0.2624  1.6925
   41CHL1  H15B 5460   6.038   5.291   9.686  0.2163  2.6471  1.3158
   41CHL1   C16 5461   5.903   5.288   9.513 -1.1453  0.2416 -0.2382
   41CHL1  H16A 5462   5.923   5.388   9.471 -0.0908 -0.7337 -2.2101
   41CHL1  H16B 5463   5.972   5.213   9.468 -3.5531 -2.2698  0.0090
   41CHL1   C17 5464   5.765   5.217   9.506 -0.5554 -0.2468 -0.0711
   41CHL1   H17 5465   5.793   5.110   9.494  2.2132  0.3627  0.3169
   41CHL1   C13 5466   5.705   5.220   9.645  0.3494  0.2141 -0.1884
   41CHL1   C18 5467   5.630   5.349   9.675  0.3544 -0.4932  0.1308
   41CHL1  H18A 5468   5.534   5.353   9.619  2.0699  0.3641 -2.9808
   41CHL1  H18B 5469   5.600   5.358   9.782  0.8335  0.4385  0.1976
   41CHL1  H18C 5470   5.677   5.443   9.637 -2.6574  0.9592 -0.3106
   41CHL1   C12 5471   5.615   5.103   9.685 -0.4874 -0.2642  0.6977
   41CHL1  H12A 5472   5.535   5.093   9.609 -0.2218 -0.6357  0.4576
   41CHL1  H12B 5473   5.672   5.007   9.681  1.5084  0.8733  0.2784
   41CHL1   C11 5474   5.563   5.112   9.830 -0.0292 -1.4018 -0.4784
   41CHL1  H11A 5475   5.499   5.201   9.850 -1.0741 -1.6740 -2.3180
   41CHL1  H11B 5476   5.501   5.022   9.852 -2.1345  0.1742  0.4096
   41CHL1    C9 5477   5.689   5.108   9.922  0.1571 -0.8185 -0.2843
   41CHL1    H9 5478   5.745   5.015   9.898  2.5925  0.1927  1.0828
   41CHL1   C10 5479   5.667   5.110  10.071  0.6545 -0.5209 -0.2822
   41CHL1   C19 5480   5.559   5.216  10.110  0.1717  0.3534  0.4354
   41CHL1  H19A 5481   5.460   5.184  10.071  0.0005  2.3564 -0.9425
   41CHL1  H19B 5482   5.553   5.220  10.221  0.4615 -1.1363  0.5250
   41CHL1  H19C 5483   5.573   5.317  10.065  0.2942  0.3110  0.3802
   41CHL1    C1 5484   5.613   4.963  10.108  0.5977 -0.4978  0.4320
   41CHL1   H1A 5485   5.511   4.966  10.066  1.8454  0.4919 -2.8154
   41CHL1   H1B 5486   5.663   4.881  10.052  2.6988  0.3455  0.9761
   41CHL1    C2 5487   5.598   4.935  10.258  0.3615  0.3348  0.8430
   41CHL1   H2A 5488   5.578   4.828  10.278  1.9232  0.0096  0.7604
   41CHL1   H2B 5489   5.510   4.983  10.307 -0.3776  0.4271 -0.5272
   41CHL1   C20 5490   5.689   5.277   9.385 -0.0635 -0.7087 -0.2331
   41CHL1   H20 5491   5.668   5.384   9.409  0.4224 -0.5627 -0.4400
   41CHL1   C21 5492   5.556   5.198   9.369 -0.4439 -0.0871 -0.3190
   41CHL1  H21A 5493   5.480   5.228   9.445  0.2009  1.2951 -0.1910
   41CHL1  H21B 5494   5.571   5.089   9.385 -3.0723 -0.4083  0.5577
   41CHL1  H21C 5495   5.518   5.206   9.265  0.2386 -0.1497 -0.5788
   41CHL1   C22 5496   5.776   5.273   9.257 -0.3337  0.3379 -0.2502
   41CHL1  H22A 5497   5.858   5.349   9.254 -0.0524  0.0807  0.6313
   41CHL1  H22B 5498   5.816   5.170   9.248 -2.3715 -0.8155  2.3331
   41CHL1   C23 5499   5.697   5.303   9.127  0.0854  0.6820 -0.1478
   41CHL1  H23A 5500   5.650   5.214   9.080  0.0467 -0.0001  1.1529
   41CHL1  H23B 5501   5.620   5.383   9.135  0.9850  1.7745 -1.7790
   41CHL1   C24 5502   5.795   5.366   9.027  0.0742 -0.7304  0.6243
   41CHL1  H24A 5503   5.835   5.454   9.080  1.3986 -0.7347 -0.3206
   41CHL1  H24B 5504   5.879   5.296   9.008  1.0087  0.7841 -1.1314
   41CHL1   C25 5505   5.731   5.392   8.883 -0.1282  0.1668 -0.2294
   41CHL1   H25 5506   5.649   5.462   8.911  0.6174 -0.8384  5.7468
   41CHL1   C26 5507   5.829   5.462   8.788 -0.5765  0.0070 -0.2657
   41CHL1  H26A 5508   5.909   5.387   8.768 -2.1147 -0.9858 -3.5378
   41CHL1  H26B 5509   5.779   5.501   8.696 -1.2911 -1.2488 -0.4335
   41CHL1  H26C 5510   5.865   5.548   8.848  0.8707  1.1512 -2.6171
   41CHL1   C27 5511   5.671   5.267   8.830  0.1189  0.2790 -0.1770
   41CHL1  H27A 5512   5.733   5.177   8.849  2.1216  1.5623 -0.3585
   41CHL1  H27B 5513   5.572   5.250   8.877  0.1800 -0.0882 -0.1825
   41CHL1  H27C 5514   5.649   5.287   8.723 -0.5486  1.9767  0.2391
   42CHL1    C3 5515   5.902   3.058   9.919 -0.1251 -0.1129  0.1517
   42CHL1    H3 5516   5.880   3.165   9.939 -0.3632 -0.1617  0.1598
   42CHL1    O3 5517   5.973   3.012  10.033  0.3153 -0.2821 -0.0158
   42CHL1   H3' 5518   5.903   2.990  10.096 -0.4103 -1.0227 -1.0494
   42CHL1    C4 5519   5.777   2.973   9.905  0.8746 -0.4508 -0.7825
   42CHL1   H4A 5520   5.786   2.862   9.902 -2.2889 -0.7775 -1.1379
   42CHL1   H4B 5521   5.723   2.994   9.999  1.4413  1.1104 -0.7772
   42CHL1    C5 5522   5.699   3.026   9.785  0.0940  0.5246  0.1096
   42CHL1    C6 5523   5.578   3.081   9.791 -0.4920 -0.1863  0.0811
   42CHL1    H6 5524   5.527   3.116   9.881 -0.8526  1.3288 -0.6698
   42CHL1    C7 5525   5.480   3.116   9.677 -0.7299 -0.3012 -0.6510
   42CHL1   H7A 5526   5.379   3.070   9.685 -0.8727  0.2004  0.7136
   42CHL1   H7B 5527   5.463   3.226   9.672  0.8848 -0.0506 -1.3153
   42CHL1    C8 5528   5.540   3.076   9.532  0.9436  0.8646 -0.3693
   42CHL1    H8 5529   5.516   2.970   9.508  0.6029  1.3790 -2.4796
   42CHL1   C14 5530   5.482   3.156   9.420 -0.2938  0.1187  0.8658
   42CHL1   H14 5531   5.502   3.259   9.456 -1.2382  1.1451 -1.3087
   42CHL1   C15 5532   5.322   3.158   9.405  0.3905 -0.7311 -0.7723
   42CHL1  H15A 5533   5.302   3.051   9.385  2.1448 -1.1494 -0.5034
   42CHL1  H15B 5534   5.255   3.186   9.489 -0.0854 -0.6232 -1.1818
   42CHL1   C16 5535   5.302   3.242   9.280  0.2540 -0.4401 -0.1435
   42CHL1  H16A 5536   5.215   3.211   9.218 -1.5247  0.9880  1.5386
   42CHL1  H16B 5537   5.292   3.347   9.314  1.6829 -0.2184 -0.3364
   42CHL1   C17 5538   5.450   3.249   9.215  0.0119 -0.4649 -0.2171
   42CHL1   H17 5539   5.505   3.342   9.242  0.6455 -0.6253 -0.9329
   42CHL1   C13 5540   5.537   3.135   9.281 -0.1263 -0.6146  0.6489
   42CHL1   C18 5541   5.500   3.001   9.218  0.0988  0.2134  0.1502
   42CHL1  H18A 5542   5.550   2.999   9.119  0.0726 -1.9277  0.1302
   42CHL1  H18B 5543   5.544   2.922   9.282  0.8366  0.2699 -0.2898
   42CHL1  H18C 5544   5.389   2.997   9.210 -0.0114  0.3082  1.4020
   42CHL1   C12 5545   5.690   3.156   9.281 -0.5768  0.3731 -0.5343
   42CHL1  H12A 5546   5.736   3.110   9.192 -0.8824 -0.4197 -0.2909
   42CHL1  H12B 5547   5.716   3.264   9.276  0.1879  0.1363 -2.8097
   42CHL1   C11 5548   5.759   3.075   9.389  0.4080 -0.1594  0.1108
   42CHL1  H11A 5549   5.745   2.969   9.362  3.2697 -0.0221 -2.4518
   42CHL1  H11B 5550   5.869   3.095   9.387  0.1837  1.3371  0.6710
   42CHL1    C9 5551   5.697   3.095   9.535  0.0079  0.1512 -0.4805
   42CHL1    H9 5552   5.724   3.198   9.566  1.0645 -0.1143 -0.4626
   42CHL1   C10 5553   5.768   3.013   9.650  0.3465 -0.8789  0.6173
   42CHL1   C19 5554   5.777   2.862   9.616 -0.0441 -0.9271  0.1347
   42CHL1  H19A 5555   5.677   2.814   9.610 -0.6602  0.1517  1.3459
   42CHL1  H19B 5556   5.819   2.861   9.513  0.4519  1.0876  0.2788
   42CHL1  H19C 5557   5.840   2.808   9.690 -1.2368  0.1843  2.0150
   42CHL1    C1 5558   5.914   3.071   9.664 -0.7568  0.3979 -0.5966
   42CHL1   H1A 5559   5.977   3.047   9.576  0.0498  1.0360 -0.2009
   42CHL1   H1B 5560   5.931   3.180   9.652  0.6743  0.3011  0.3895
   42CHL1    C2 5561   5.990   3.032   9.789 -0.0528  0.0928  0.5516
   42CHL1   H2A 5562   6.084   3.091   9.784 -0.2414  0.2972 -1.1139
   42CHL1   H2B 5563   6.024   2.927   9.786  0.0704  0.1440 -2.3988
   42CHL1   C20 5564   5.453   3.261   9.058  0.4235 -0.7489  0.3961
   42CHL1   H20 5565   5.555   3.227   9.030  1.3250  0.8379  1.5660
   42CHL1   C21 5566   5.437   3.410   9.017  1.4837 -0.5400 -0.9790
   42CHL1  H21A 5567   5.331   3.440   9.027  1.4806 -1.1469  1.1967
   42CHL1  H21B 5568   5.477   3.433   8.915 -0.6267  0.0515 -1.7167
   42CHL1  H21C 5569   5.482   3.483   9.088  0.2119  0.8165 -1.5266
   42CHL1   C22 5570   5.354   3.169   8.977 -0.1978 -0.5105 -0.4699
   42CHL1  H22A 5571   5.371   3.064   9.007  0.1329 -0.6359 -1.0745
   42CHL1  H22B 5572   5.256   3.198   9.021  1.1823  0.8769  1.9290
   42CHL1   C23 5573   5.356   3.166   8.827  0.1847 -0.3455 -0.1599
   42CHL1  H23A 5574   5.372   3.273   8.802  0.3536 -0.0380  1.1539
   42CHL1  H23B 5575   5.448   3.115   8.791  1.2610 -0.3743  2.4008
   42CHL1   C24 5576   5.246   3.085   8.760 -0.1415 -0.1581 -0.1477
   42CHL1  H24A 5577   5.269   2.977   8.766  2.3568  0.3181 -0.2485
   42CHL1  H24B 5578   5.155   3.103   8.822  1.2634  3.0842  1.1800
   42CHL1   C25 5579   5.197   3.109   8.616  0.1147  0.5613 -0.3558
   42CHL1   H25 5580   5.167   3.216   8.609 -0.2671  0.4976  0.1969
   42CHL1   C26 5581   5.315   3.076   8.523  0.3573 -0.0266 -0.0483
   42CHL1  H26A 5582   5.403   3.143   8.519  0.5704 -0.2665  0.5458
   42CHL1  H26B 5583   5.358   2.977   8.550 -1.6512 -0.9959 -0.2165
   42CHL1  H26C 5584   5.284   3.068   8.416  0.0479  0.5685 -0.0093
   42CHL1   C27 5585   5.081   3.014   8.576 -0.1096  0.0838  0.2361
   42CHL1  H27A 5586   5.045   3.028   8.472  0.8974 -1.7384 -0.3886
   42CHL1  H27B 5587   5.125   2.913   8.586 -0.0523  0.2987  3.2922
   42CHL1  H27C 5588   4.988   3.020   8.636 -0.6829 -2.6651 -0.2618
   43CHL1    C3 5589   6.040   4.537  10.494  0.4498 -0.1161  1.3132
   43CHL1    H3 5590   6.147   4.523  10.465  0.4390  1.6653  0.2882
   43CHL1    O3 5591   6.029   4.533  10.625 -0.3950  0.2616 -0.7701
   43CHL1   H3' 5592   5.940   4.500  10.644 -0.6686  0.5763 -1.4841
   43CHL1    C4 5593   5.987   4.673  10.451  0.4299  0.7950  0.5652
   43CHL1   H4A 5594   5.881   4.690  10.481  0.1241  0.3347 -0.2128
   43CHL1   H4B 5595   6.036   4.753  10.510 -2.3327  3.4672 -0.5109
   43CHL1    C5 5596   5.997   4.686  10.300  0.2897  0.0238  0.3572
   43CHL1    C6 5597   6.067   4.789  10.248  0.3439 -0.1268  0.3981
   43CHL1    H6 5598   6.104   4.869  10.314  0.0678 -1.2075  1.9006
   43CHL1    C7 5599   6.070   4.824  10.099 -0.2039  0.1487  0.5370
   43CHL1   H7A 5600   6.043   4.928  10.070 -1.9021 -0.3207  0.3164
   43CHL1   H7B 5601   6.171   4.813  10.053 -0.3328  2.5560 -0.5064
   43CHL1    C8 5602   5.966   4.737  10.019  0.2825 -0.0012 -0.0254
   43CHL1    H8 5603   5.868   4.788  10.033  1.0311  1.1252  1.3730
   43CHL1   C14 5604   5.998   4.736   9.869 -0.2570 -0.2340 -0.7940
   43CHL1   H14 5605   6.094   4.681   9.861 -1.1698 -1.8775 -0.7253
   43CHL1   C15 5606   6.030   4.868   9.793  0.1400 -0.3416 -0.3923
   43CHL1  H15A 5607   5.946   4.939   9.811  1.2563  1.4685 -1.8943
   43CHL1  H15B 5608   6.125   4.922   9.815 -1.5411  2.2543  1.0169
   43CHL1   C16 5609   6.017   4.834   9.648  0.7406 -0.0344  0.3198
   43CHL1  H16A 5610   5.938   4.898   9.605  0.9508 -2.0074 -3.4232
   43CHL1  H16B 5611   6.106   4.864   9.589  0.6108 -1.5183 -0.6911
   43CHL1   C17 5612   5.971   4.686   9.638  0.6995  0.0124  0.4449
   43CHL1   H17 5613   6.064   4.625   9.631 -0.2074 -1.2752 -1.6637
   43CHL1   C13 5614   5.908   4.649   9.775 -0.7886  0.6432 -0.4777
   43CHL1   C18 5615   5.766   4.700   9.770 -0.5219 -0.2097  0.7765
   43CHL1  H18A 5616   5.723   4.686   9.871  0.7390  2.1905  1.7232
   43CHL1  H18B 5617   5.765   4.811   9.764  1.3895 -0.2065 -0.5371
   43CHL1  H18C 5618   5.705   4.660   9.686 -0.7442  1.5941  0.0244
   43CHL1   C12 5619   5.917   4.501   9.820  0.4874 -0.9549 -0.5229
   43CHL1  H12A 5620   5.833   4.452   9.767  2.1275 -1.5928 -2.6534
   43CHL1  H12B 5621   6.017   4.462   9.795  0.6373  0.6456 -2.7006
   43CHL1   C11 5622   5.889   4.495   9.973  0.0696  0.2814  0.1818
   43CHL1  H11A 5623   5.784   4.529   9.980  0.3846  1.0410  1.6180
   43CHL1  H11B 5624   5.895   4.386   9.996  2.2449  0.4406  0.5747
   43CHL1    C9 5625   5.966   4.593  10.070 -0.0640 -0.8810  0.3160
   43CHL1    H9 5626   6.073   4.563  10.058  0.5470  0.9283  0.8635
   43CHL1   C10 5627   5.931   4.573  10.219  0.0386 -0.4874  0.3067
   43CHL1   C19 5628   5.773   4.595  10.239 -0.1732 -0.6470  0.3162
   43CHL1  H19A 5629   5.739   4.591  10.345 -1.4615 -2.0045 -0.1099
   43CHL1  H19B 5630   5.745   4.685  10.180 -1.4519 -1.1288  0.1455
   43CHL1  H19C 5631   5.732   4.505  10.188  2.8083 -1.7103 -0.4551
   43CHL1    C1 5632   5.982   4.438  10.277  0.0744 -0.2297  0.1882
   43CHL1   H1A 5633   5.931   4.353  10.227 -1.2904  1.9080 -2.2901
   43CHL1   H1B 5634   6.090   4.434  10.255 -0.1647  1.9494 -1.7243
   43CHL1    C2 5635   5.961   4.425  10.430 -0.4606 -0.2515 -0.0166
   43CHL1   H2A 5636   5.992   4.323  10.462  0.0578 -0.7754 -2.0312
   43CHL1   H2B 5637   5.857   4.441  10.464 -0.4819 -0.4624  0.0169
   43CHL1   C20 5638   5.896   4.654   9.502 -0.1877  0.1973  0.1409
   43CHL1   H20 5639   5.802   4.713   9.509 -1.2131 -1.4209  0.4747
   43CHL1   C21 5640   5.859   4.507   9.490  0.0933 -0.2797  0.0006
   43CHL1  H21A 5641   5.780   4.496   9.412  0.0594  3.7383 -0.7403
   43CHL1  H21B 5642   5.814   4.461   9.581  1.6371 -0.1344  0.8628
   43CHL1  H21C 5643   5.939   4.435   9.464  0.5445  0.3295 -0.3018
   43CHL1   C22 5644   5.971   4.705   9.372 -0.0257  0.1211 -0.3759
   43CHL1  H22A 5645   5.979   4.815   9.367 -1.4427  0.4037  1.9748
   43CHL1  H22B 5646   6.071   4.657   9.373  0.0841  0.2115 -2.4585
   43CHL1   C23 5647   5.905   4.671   9.237 -0.1304 -0.3256  0.8770
   43CHL1  H23A 5648   5.876   4.564   9.229  0.6951 -0.4774 -0.2565
   43CHL1  H23B 5649   5.811   4.730   9.233  1.8499  3.0805  0.9651
   43CHL1   C24 5650   5.997   4.718   9.122 -0.4239  0.6703  0.1694
   43CHL1  H24A 5651   5.988   4.823   9.087 -1.6799  0.0390 -1.5158
   43CHL1  H24B 5652   6.103   4.708   9.153 -0.4648  2.8997  1.2821
   43CHL1   C25 5653   5.981   4.635   8.994 -0.5701  0.3582 -0.0043
   43CHL1   H25 5654   5.885   4.661   8.945 -1.0148  1.0544  1.2010
   43CHL1   C26 5655   6.098   4.659   8.887 -0.3307 -0.0264 -0.1010
   43CHL1  H26A 5656   6.194   4.624   8.929  0.0610 -0.3566 -1.2319
   43CHL1  H26B 5657   6.066   4.604   8.796 -2.8774  0.2715  0.5273
   43CHL1  H26C 5658   6.109   4.768   8.867 -2.0943  0.3929  1.0002
   43CHL1   C27 5659   5.985   4.485   9.017 -0.6521 -0.4536 -0.2279
   43CHL1  H27A 5660   6.073   4.458   9.080  0.4857  0.1138 -1.5070
   43CHL1  H27B 5661   5.902   4.433   9.068  0.2506 -0.3694  1.3835
   43CHL1  H27C 5662   6.004   4.442   8.916  1.5501  1.2727 -0.6372
   44CHL1    C3 5663   5.511   4.172  10.269 -0.0849  0.4652 -0.7962
   44CHL1    H3 5664   5.456   4.267  10.287 -1.7709 -0.6766  0.3916
   44CHL1    O3 5665   5.546   4.121  10.396 -0.8678 -0.0724  0.6038
   44CHL1   H3' 5666   5.585   4.038  10.366 -1.2736  0.0535 -0.3325
   44CHL1    C4 5667   5.437   4.062  10.200  0.3807  0.2755 -0.7150
   44CHL1   H4A 5668   5.480   3.960  10.213  1.7975  1.1041  1.7956
   44CHL1   H4B 5669   5.345   4.065  10.262  1.2841 -1.2909  0.7840
   44CHL1    C5 5670   5.412   4.092  10.053 -1.2659  0.2666 -0.1830
   44CHL1    C6 5671   5.289   4.095   9.998 -0.8502 -0.5851 -0.0748
   44CHL1    H6 5672   5.204   4.070  10.063  0.4551 -2.3255  1.0457
   44CHL1    C7 5673   5.263   4.113   9.855 -0.3459  0.0618 -0.3739
   44CHL1   H7A 5674   5.182   4.046   9.819 -0.5922  1.5294 -2.8371
   44CHL1   H7B 5675   5.214   4.213   9.846 -0.2394  0.1994  0.5207
   44CHL1    C8 5676   5.385   4.116   9.765 -1.0101  0.4097  0.0387
   44CHL1    H8 5677   5.403   4.007   9.752 -0.5448  0.6083 -1.1803
   44CHL1   C14 5678   5.349   4.182   9.633 -0.2779  0.8272 -0.2348
   44CHL1   H14 5679   5.319   4.289   9.643  0.8138  1.2485 -1.1539
   44CHL1   C15 5680   5.239   4.123   9.554 -0.6447  0.5037 -0.5352
   44CHL1  H15A 5681   5.243   4.013   9.544 -0.2631  0.2705  1.7206
   44CHL1  H15B 5682   5.145   4.155   9.604 -1.3335  3.6136 -3.4639
   44CHL1   C16 5683   5.256   4.184   9.412 -0.4577  0.3831  0.1756
   44CHL1  H16A 5684   5.244   4.110   9.330 -1.4309  0.9934 -0.2609
   44CHL1  H16B 5685   5.184   4.269   9.404  0.1999  0.9391  0.0906
   44CHL1   C17 5686   5.401   4.246   9.417 -0.0238  0.1649  1.0458
   44CHL1   H17 5687   5.396   4.353   9.447  0.5359 -0.2038  2.5489
   44CHL1   C13 5688   5.473   4.181   9.535 -0.3105  0.4105  0.1310
   44CHL1   C18 5689   5.522   4.038   9.494  0.2070  0.5254  0.1524
   44CHL1  H18A 5690   5.580   4.044   9.400  0.1952 -0.7210  0.0480
   44CHL1  H18B 5691   5.564   3.977   9.577 -0.2806  0.0994  0.0963
   44CHL1  H18C 5692   5.436   3.975   9.461 -0.1032  0.7701  0.4832
   44CHL1   C12 5693   5.594   4.261   9.600 -0.0324  0.3613 -0.7360
   44CHL1  H12A 5694   5.682   4.249   9.532  0.2466  0.8304 -0.4641
   44CHL1  H12B 5695   5.561   4.367   9.611 -0.0790  0.3717 -0.9517
   44CHL1   C11 5696   5.634   4.197   9.731  0.1731  0.7289 -0.2784
   44CHL1  H11A 5697   5.672   4.093   9.719  1.9863  1.2558  0.6253
   44CHL1  H11B 5698   5.713   4.253   9.785 -1.1635 -0.2666  3.0415
   44CHL1    C9 5699   5.508   4.186   9.829  0.3119  0.0306  0.3245
   44CHL1    H9 5700   5.480   4.292   9.846 -1.4459 -0.6166  1.9115
   44CHL1   C10 5701   5.537   4.122   9.970  0.3490  0.0716 -0.5188
   44CHL1   C19 5702   5.608   3.989   9.957  0.0602  0.4563  0.6545
   44CHL1  H19A 5703   5.544   3.924   9.893 -0.3383 -1.6233  3.0047
   44CHL1  H19B 5704   5.707   4.014   9.915  0.0974 -0.0021  0.4608
   44CHL1  H19C 5705   5.633   3.928  10.046  2.5315  0.0386 -0.2623
   44CHL1    C1 5706   5.631   4.219  10.047 -0.6116 -0.0368 -0.6592
   44CHL1   H1A 5707   5.733   4.210  10.005 -0.2774  1.8299 -0.3327
   44CHL1   H1B 5708   5.609   4.327  10.033  1.3258  0.6896  1.3206
   44CHL1    C2 5709   5.646   4.194  10.200  0.0857  0.1582 -0.5052
   44CHL1   H2A 5710   5.705   4.265  10.261  0.7674 -1.5051  0.8493
   44CHL1   H2B 5711   5.706   4.101  10.201 -0.4539 -0.1959 -0.4073
   44CHL1   C20 5712   5.478   4.261   9.281 -0.6604  0.0486  0.1312
   44CHL1   H20 5713   5.534   4.166   9.265 -1.5650 -0.1874 -1.9735
   44CHL1   C21 5714   5.582   4.374   9.288 -0.1346 -0.5452  0.0300
   44CHL1  H21A 5715   5.646   4.376   9.378  1.4174  1.9678 -1.0022
   44CHL1  H21B 5716   5.528   4.471   9.286 -1.2810 -1.1772 -1.1328
   44CHL1  H21C 5717   5.651   4.382   9.201 -0.7475  1.0365 -0.3566
   44CHL1   C22 5718   5.385   4.273   9.156 -0.7132 -0.0508  0.1311
   44CHL1  H22A 5719   5.329   4.178   9.142 -0.8789  0.2948 -1.8573
   44CHL1  H22B 5720   5.318   4.359   9.176 -1.6386 -0.5490 -0.7658
   44CHL1   C23 5721   5.445   4.306   9.024  0.1596 -0.6242  0.0144
   44CHL1  H23A 5722   5.359   4.303   8.954 -0.5671 -0.9596  0.9005
   44CHL1  H23B 5723   5.481   4.411   9.021  0.5252 -0.7563 -0.3707
   44CHL1   C24 5724   5.551   4.211   8.969 -0.2705 -0.3874 -0.4680
   44CHL1  H24A 5725   5.649   4.214   9.021 -0.9293  0.8232  0.7441
   44CHL1  H24B 5726   5.497   4.115   8.984 -2.2838  0.7261 -0.3665
   44CHL1   C25 5727   5.568   4.236   8.815  0.1877 -0.4220 -0.4104
   44CHL1   H25 5728   5.470   4.262   8.771 -1.1866 -2.4550  1.2867
   44CHL1   C26 5729   5.667   4.361   8.800 -0.4745  0.5157  0.8304
   44CHL1  H26A 5730   5.717   4.381   8.897  0.1904  1.0623  0.3834
   44CHL1  H26B 5731   5.746   4.328   8.730 -0.6372 -2.0042  1.7373
   44CHL1  H26C 5732   5.615   4.455   8.771 -0.6517  0.9978  2.5810
   44CHL1   C27 5733   5.630   4.123   8.742  0.3277  0.8902 -0.0978
   44CHL1  H27A 5734   5.735   4.100   8.769  0.0530  1.1719  1.3020
   44CHL1  H27B 5735   5.570   4.029   8.737  3.2265 -1.2114  1.5481
   44CHL1  H27C 5736   5.648   4.143   8.634  1.2983  0.3414 -0.0500
   45CHL1    C3 5737   3.501   1.205  10.263 -0.3990 -0.1369 -1.0712
   45CHL1    H3 5738   3.607   1.224  10.234  0.7105  0.8960  3.0155
   45CHL1    O3 5739   3.506   1.217  10.404  0.7255 -0.2084  0.8253
   45CHL1   H3' 5740   3.413   1.214  10.426  0.3393 -0.3330 -0.7442
   45CHL1    C4 5741   3.402   1.311  10.205 -0.6730 -0.6775 -0.1537
   45CHL1   H4A 5742   3.301   1.298  10.248 -0.3170 -3.0998  0.1184
   45CHL1   H4B 5743   3.445   1.412  10.223 -0.3307 -0.9073  0.3349
   45CHL1    C5 5744   3.392   1.294  10.053  0.2597  0.3494  0.1596
   45CHL1    C6 5745   3.431   1.384   9.960 -0.4121  0.0207 -0.0048
   45CHL1    H6 5746   3.461   1.483   9.996  0.4453 -0.4394  0.5779
   45CHL1    C7 5747   3.444   1.355   9.815  0.2216 -0.0781 -0.2783
   45CHL1   H7A 5748   3.351   1.389   9.765 -0.2973  0.6892  1.1631
   45CHL1   H7B 5749   3.524   1.413   9.763 -0.7930  2.2015  0.5680
   45CHL1    C8 5750   3.452   1.206   9.778 -0.2025  0.5470 -0.3222
   45CHL1    H8 5751   3.546   1.166   9.822  0.6331  2.7941  0.0626
   45CHL1   C14 5752   3.458   1.185   9.630 -0.3648  0.4713 -0.2480
   45CHL1   H14 5753   3.514   1.265   9.578  1.7853 -0.2710  0.8333
   45CHL1   C15 5754   3.546   1.065   9.592  0.4123  0.3584  0.5963
   45CHL1  H15A 5755   3.655   1.082   9.603  1.0903 -3.0147  0.2745
   45CHL1  H15B 5756   3.525   0.964   9.633  0.7926  0.0979  0.1614
   45CHL1   C16 5757   3.508   1.049   9.440  0.1269  0.2360  0.6364
   45CHL1  H16A 5758   3.575   1.115   9.380  1.2606 -0.8894  0.6369
   45CHL1  H16B 5759   3.526   0.944   9.408 -0.0189  1.0637 -2.5389
   45CHL1   C17 5760   3.361   1.075   9.428 -0.3583 -0.7240  0.1662
   45CHL1   H17 5761   3.307   0.981   9.448 -0.9074 -0.8110 -1.6053
   45CHL1   C13 5762   3.324   1.165   9.546 -1.1396 -0.8758 -0.1380
   45CHL1   C18 5763   3.287   1.312   9.504  0.0861 -0.3340 -0.0234
   45CHL1  H18A 5764   3.188   1.309   9.454  0.2566  0.1890 -0.3931
   45CHL1  H18B 5765   3.280   1.384   9.589  2.2892 -0.4415  0.2907
   45CHL1  H18C 5766   3.362   1.352   9.433 -1.8066 -1.2280 -2.6901
   45CHL1   C12 5767   3.216   1.095   9.631 -0.5891 -0.4931 -0.3824
   45CHL1  H12A 5768   3.117   1.110   9.582 -0.8333  1.6111  0.6571
   45CHL1  H12B 5769   3.226   0.985   9.641 -0.1861 -0.5978 -1.6811
   45CHL1   C11 5770   3.211   1.139   9.779 -0.4828 -0.2189  0.5458
   45CHL1  H11A 5771   3.187   1.247   9.783 -1.0505 -0.2734 -0.9910
   45CHL1  H11B 5772   3.128   1.084   9.828 -1.7080  0.5098 -0.6584
   45CHL1    C9 5773   3.350   1.121   9.857 -0.2104 -0.3049  0.0203
   45CHL1    H9 5774   3.383   1.017   9.837  0.5963  0.1229 -0.9436
   45CHL1   C10 5775   3.348   1.149  10.012 -0.0590 -0.1857  0.0255
   45CHL1   C19 5776   3.198   1.114  10.063 -0.0492 -0.2991  0.6542
   45CHL1  H19A 5777   3.178   1.014  10.019 -0.5482  0.4913 -0.9813
   45CHL1  H19B 5778   3.203   1.119  10.174  1.1943  0.7437  0.5765
   45CHL1  H19C 5779   3.122   1.192  10.040 -0.2445 -0.0165  2.1625
   45CHL1    C1 5780   3.448   1.046  10.079 -0.2412 -0.1107 -0.7323
   45CHL1   H1A 5781   3.423   0.944  10.045 -1.1683 -0.3871  0.6872
   45CHL1   H1B 5782   3.549   1.068  10.038  0.3867  3.8459  2.2280
   45CHL1    C2 5783   3.456   1.061  10.226  0.0615 -0.8689  0.2529
   45CHL1   H2A 5784   3.533   0.989  10.262 -0.3704 -2.3085 -1.5291
   45CHL1   H2B 5785   3.360   1.034  10.275 -0.0149 -1.8929 -0.4367
   45CHL1   C20 5786   3.314   1.110   9.288  0.4702  0.2658 -0.2732
   45CHL1   H20 5787   3.332   1.216   9.263 -1.2166  0.6009 -0.1755
   45CHL1   C21 5788   3.158   1.097   9.281  0.0666 -0.0418  0.1141
   45CHL1  H21A 5789   3.129   1.166   9.363  2.8898  1.3191  0.0979
   45CHL1  H21B 5790   3.113   0.996   9.286 -0.5613  0.1671 -1.0454
   45CHL1  H21C 5791   3.126   1.148   9.188 -0.1541  0.0518  0.2394
   45CHL1   C22 5792   3.385   1.031   9.173 -0.0656 -0.2064  0.8751
   45CHL1  H22A 5793   3.493   1.058   9.164 -0.2849  0.5899  0.4877
   45CHL1  H22B 5794   3.383   0.923   9.200  0.5524 -1.1601 -2.3491
   45CHL1   C23 5795   3.337   1.055   9.025 -0.4402 -0.1493  0.3746
   45CHL1  H23A 5796   3.226   1.061   9.013 -0.3099 -0.5728 -1.1793
   45CHL1  H23B 5797   3.385   1.146   8.983  0.1819 -1.2493 -1.4302
   45CHL1   C24 5798   3.393   0.946   8.932  0.2787  0.2965  0.0983
   45CHL1  H24A 5799   3.500   0.921   8.948  0.3102  0.2480 -0.1993
   45CHL1  H24B 5800   3.342   0.848   8.942  0.2004  0.1428 -1.5580
   45CHL1   C25 5801   3.376   0.992   8.789  0.1634 -0.1901 -0.4276
   45CHL1   H25 5802   3.434   1.086   8.784  2.7570 -1.6746  0.1532
   45CHL1   C26 5803   3.442   0.897   8.691 -0.6916 -0.5683  0.9699
   45CHL1  H26A 5804   3.423   0.923   8.584 -0.3920  1.4244  1.3543
   45CHL1  H26B 5805   3.549   0.888   8.717 -1.1779 -0.9933  2.9948
   45CHL1  H26C 5806   3.407   0.794   8.715 -0.9949 -0.6606  0.1618
   45CHL1   C27 5807   3.234   1.022   8.739  0.0821  0.0449  0.4550
   45CHL1  H27A 5808   3.180   0.929   8.712 -0.0855  0.7950 -2.1317
   45CHL1  H27B 5809   3.179   1.087   8.809  2.8243  1.5068  1.3816
   45CHL1  H27C 5810   3.240   1.083   8.646  1.1015  0.6849  0.9190
   46CHL1    C3 5811   6.588   4.291  10.138 -0.3449  0.7928 -0.0615
   46CHL1    H3 5812   6.687   4.273  10.089  1.3189 -2.8686  4.0291
   46CHL1    O3 5813   6.592   4.224  10.269 -0.2493 -0.1806  0.4106
   46CHL1   H3' 5814   6.510   4.243  10.317 -1.2973 -1.9025 -0.6120
   46CHL1    C4 5815   6.557   4.437  10.153 -0.1582 -0.1074  0.3123
   46CHL1   H4A 5816   6.470   4.450  10.221 -0.5360  2.6244 -0.5736
   46CHL1   H4B 5817   6.646   4.483  10.201 -0.5913  0.6703  0.3900
   46CHL1    C5 5818   6.541   4.508  10.017 -0.3410 -0.7904 -0.2395
   46CHL1    C6 5819   6.608   4.620   9.992 -0.3392  1.0818  0.7410
   46CHL1    H6 5820   6.676   4.651  10.074 -0.5028 -2.1632  2.2684
   46CHL1    C7 5821   6.614   4.690   9.861 -0.1004 -0.1720 -0.6486
   46CHL1   H7A 5822   6.594   4.799   9.867 -1.0195 -0.4167  2.6987
   46CHL1   H7B 5823   6.715   4.658   9.826 -0.0041 -1.9211  1.0620
   46CHL1    C8 5824   6.511   4.643   9.757 -0.2044  0.1155  0.5505
   46CHL1    H8 5825   6.415   4.692   9.783 -0.4063  1.1756 -1.9300
   46CHL1   C14 5826   6.561   4.665   9.620  0.2955 -0.0820  0.1524
   46CHL1   H14 5827   6.640   4.587   9.606 -0.2628 -0.2376 -2.8227
   46CHL1   C15 5828   6.635   4.787   9.581  0.0382 -0.3760  0.5188
   46CHL1  H15A 5829   6.569   4.871   9.612 -2.2057 -1.4249 -1.1323
   46CHL1  H15B 5830   6.738   4.797   9.622 -0.8162  2.8327  2.1921
   46CHL1   C16 5831   6.641   4.789   9.428 -0.0729 -0.1513  0.4366
   46CHL1  H16A 5832   6.610   4.890   9.394  1.3252  0.4400  0.8354
   46CHL1  H16B 5833   6.741   4.766   9.385 -1.0478 -2.6062 -0.7121
   46CHL1   C17 5834   6.544   4.671   9.381  0.1560 -0.1031 -0.2869
   46CHL1   H17 5835   6.606   4.581   9.362 -1.5308 -1.2433 -0.6076
   46CHL1   C13 5836   6.462   4.635   9.504 -0.3385  0.5605 -0.3437
   46CHL1   C18 5837   6.343   4.735   9.517 -0.4606 -0.2134 -0.1728
   46CHL1  H18A 5838   6.378   4.840   9.522 -3.1340  0.6875  1.5501
   46CHL1  H18B 5839   6.266   4.733   9.437 -0.2830  1.3007 -0.4113
   46CHL1  H18C 5840   6.292   4.715   9.613  0.3491 -0.5330  0.2017
   46CHL1   C12 5841   6.407   4.484   9.526  0.0206 -0.8452 -0.2454
   46CHL1  H12A 5842   6.326   4.460   9.454  0.0125 -0.5186 -0.3453
   46CHL1  H12B 5843   6.492   4.417   9.501  1.4108  0.1421  1.5405
   46CHL1   C11 5844   6.370   4.461   9.675  0.4969  0.3991 -0.0943
   46CHL1  H11A 5845   6.282   4.524   9.701 -0.4619  0.4461 -3.0340
   46CHL1  H11B 5846   6.344   4.353   9.687  3.9481 -0.4912  0.3067
   46CHL1    C9 5847   6.478   4.497   9.775 -0.0702  0.3716  0.3672
   46CHL1    H9 5848   6.569   4.442   9.742 -0.5954 -0.6975  0.6610
   46CHL1   C10 5849   6.452   4.440   9.915  0.3603  0.8787  0.1005
   46CHL1   C19 5850   6.298   4.472   9.953 -0.4227 -0.3219  0.8593
   46CHL1  H19A 5851   6.267   4.575   9.925  0.1624 -0.2143  0.5954
   46CHL1  H19B 5852   6.233   4.397   9.903  0.9244  0.2555 -1.9470
   46CHL1  H19C 5853   6.294   4.471  10.064  0.9982  1.5562  0.9803
   46CHL1    C1 5854   6.470   4.282   9.915 -0.3502  0.5255  0.3718
   46CHL1   H1A 5855   6.381   4.229   9.876 -0.7887  0.8086  0.9683
   46CHL1   H1B 5856   6.563   4.251   9.864  0.9083  0.5983  2.4966
   46CHL1    C2 5857   6.487   4.219  10.058 -0.5900 -0.7507  0.8548
   46CHL1   H2A 5858   6.512   4.111  10.050  0.5518 -0.3956 -0.7376
   46CHL1   H2B 5859   6.383   4.228  10.095 -1.5598  0.5971 -1.9526
   46CHL1   C20 5860   6.481   4.703   9.246  0.6660  0.7435  0.1744
   46CHL1   H20 5861   6.415   4.792   9.254  1.0743  1.0605  0.0188
   46CHL1   C21 5862   6.386   4.585   9.197  0.1338 -0.2538 -0.3405
   46CHL1  H21A 5863   6.313   4.550   9.273  0.0407  1.4691  0.3993
   46CHL1  H21B 5864   6.444   4.496   9.163 -0.8196 -1.6983  1.5869
   46CHL1  H21C 5865   6.319   4.619   9.115 -2.9207 -0.2608  1.9921
   46CHL1   C22 5866   6.575   4.731   9.133  1.0434  0.1132  0.7774
   46CHL1  H22A 5867   6.668   4.779   9.169  3.2456 -0.2589 -3.7655
   46CHL1  H22B 5868   6.601   4.630   9.094 -0.7789 -0.4856  1.0068
   46CHL1   C23 5869   6.522   4.822   9.019 -0.1780  0.4226  0.1955
   46CHL1  H23A 5870   6.438   4.768   8.970 -4.8850  4.5057  2.7844
   46CHL1  H23B 5871   6.488   4.922   9.054  3.6120  2.4340 -1.2729
   46CHL1   C24 5872   6.630   4.854   8.913  0.8336  0.0495 -0.4491
   46CHL1  H24A 5873   6.718   4.895   8.968  0.5519 -1.6219  1.3647
   46CHL1  H24B 5874   6.660   4.761   8.861 -1.3643 -0.8104 -0.2545
   46CHL1   C25 5875   6.586   4.957   8.810 -0.3512  0.1732  0.6933
   46CHL1   H25 5876   6.530   5.040   8.859  0.7821  0.7380  1.0618
   46CHL1   C26 5877   6.713   5.019   8.734 -0.0995  0.0884 -0.6448
   46CHL1  H26A 5878   6.775   4.940   8.686 -0.4921  0.1820 -1.3231
   46CHL1  H26B 5879   6.681   5.104   8.670 -2.2409  0.1527  0.4150
   46CHL1  H26C 5880   6.776   5.064   8.813  0.4425  0.3662 -1.2323
   46CHL1   C27 5881   6.507   4.900   8.693  0.2743  0.1932 -1.3510
   46CHL1  H27A 5882   6.422   4.844   8.737  1.4705 -1.2481 -0.7919
   46CHL1  H27B 5883   6.471   4.982   8.627 -0.1774 -0.5831 -2.0900
   46CHL1  H27C 5884   6.566   4.827   8.634  2.9113  1.7325 -0.8013
   47CHL1    C3 5885   0.205   2.811   9.969  0.0528  0.0607 -0.4409
   47CHL1    H3 5886   0.138   2.723   9.968  1.9444 -1.5165  1.3702
   47CHL1    O3 5887   0.252   2.820  10.101 -0.5525 -0.2627 -0.0166
   47CHL1   H3' 5888   0.173   2.823  10.156  0.3372  1.1352  1.2671
   47CHL1    C4 5889   0.319   2.777   9.877 -0.4642  0.3714  0.3862
   47CHL1   H4A 5890   0.406   2.845   9.891 -0.5448  0.3180  1.2010
   47CHL1   H4B 5891   0.364   2.678   9.902  1.0095  0.5913 -1.2408
   47CHL1    C5 5892   0.270   2.787   9.732  0.3525 -0.0852 -0.4688
   47CHL1    C6 5893   0.290   2.684   9.648 -0.8309  0.5595  0.0601
   47CHL1    H6 5894   0.345   2.591   9.673 -1.6207  0.3992  1.2726
   47CHL1    C7 5895   0.264   2.700   9.498 -0.6070  0.8868  0.1713
   47CHL1   H7A 5896   0.335   2.642   9.434 -2.0182 -0.5630 -0.1319
   47CHL1   H7B 5897   0.165   2.650   9.490  0.1748 -0.6558 -0.3017
   47CHL1    C8 5898   0.244   2.842   9.438 -0.2314  0.1818  0.3792
   47CHL1    H8 5899   0.345   2.890   9.435  0.3197 -0.9968 -0.9626
   47CHL1   C14 5900   0.183   2.841   9.297 -0.3236  0.0668 -0.4053
   47CHL1   H14 5901   0.087   2.787   9.309 -0.1658 -1.3837 -4.2980
   47CHL1   C15 5902   0.251   2.757   9.196 -0.3037  0.1061 -1.0411
   47CHL1  H15A 5903   0.358   2.785   9.188 -0.4548  0.8439 -0.5480
   47CHL1  H15B 5904   0.235   2.648   9.210 -1.4082  0.5519  1.6532
   47CHL1   C16 5905   0.187   2.808   9.063  0.4852  0.5633 -0.7026
   47CHL1  H16A 5906   0.276   2.843   9.007  2.0202 -1.3991  0.3773
   47CHL1  H16B 5907   0.138   2.728   9.005  1.2099 -0.0760 -0.4404
   47CHL1   C17 5908   0.088   2.926   9.104 -0.1388  0.0135 -0.5760
   47CHL1   H17 5909  -0.014   2.887   9.120  0.9318 -4.3602 -2.7752
   47CHL1   C13 5910   0.140   2.973   9.236  0.1797 -0.5098  0.3670
   47CHL1   C18 5911   0.267   3.059   9.216  0.3115 -0.5331 -0.0954
   47CHL1  H18A 5912   0.316   3.070   9.315 -1.6545  0.7368  0.7817
   47CHL1  H18B 5913   0.346   3.016   9.150  0.4965 -0.2700 -0.0458
   47CHL1  H18C 5914   0.244   3.156   9.167 -0.0828 -0.6896 -0.2239
   47CHL1   C12 5915   0.042   3.038   9.335 -0.5317  0.1023  0.5773
   47CHL1  H12A 5916   0.005   3.136   9.299 -2.6925 -1.0437 -0.5274
   47CHL1  H12B 5917  -0.053   2.980   9.341 -2.0307  2.4624  1.2607
   47CHL1   C11 5918   0.110   3.054   9.477 -0.6578 -0.0730  0.1370
   47CHL1  H11A 5919   0.194   3.126   9.473 -1.5086  0.9012 -1.1603
   47CHL1  H11B 5920   0.038   3.111   9.539 -0.2286  2.0481 -1.2197
   47CHL1    C9 5921   0.154   2.919   9.535 -0.6005 -0.3860 -0.3877
   47CHL1    H9 5922   0.061   2.860   9.542  0.7710 -2.5650  0.5674
   47CHL1   C10 5923   0.207   2.919   9.682  0.9995 -0.0938  0.1270
   47CHL1   C19 5924   0.320   3.024   9.679 -0.3039  0.3931  0.0976
   47CHL1  H19A 5925   0.277   3.126   9.666 -1.2561 -0.0240 -0.0418
   47CHL1  H19B 5926   0.372   3.024   9.778 -0.6474  1.4209  0.2955
   47CHL1  H19C 5927   0.395   3.013   9.597 -2.5093 -0.0406 -1.9637
   47CHL1    C1 5928   0.095   2.960   9.787 -0.1585  0.2840 -0.7108
   47CHL1   H1A 5929   0.059   3.063   9.766 -1.2905 -0.0799 -0.6562
   47CHL1   H1B 5930   0.009   2.889   9.779 -0.1235  0.1069  0.3486
   47CHL1    C2 5931   0.138   2.941   9.935  0.0099 -0.2593  0.0668
   47CHL1   H2A 5932   0.060   2.964  10.011  0.3933  1.2337  0.0298
   47CHL1   H2B 5933   0.205   3.027   9.956 -1.7107  1.1201  0.1325
   47CHL1   C20 5934   0.083   3.025   8.986 -0.2873  0.2504 -0.0800
   47CHL1   H20 5935   0.183   3.064   8.958 -0.2905 -0.6783 -1.5058
   47CHL1   C21 5936  -0.022   3.131   9.016  0.6137  0.7164 -0.4496
   47CHL1  H21A 5937  -0.027   3.200   8.930  0.9023  2.4076  0.8462
   47CHL1  H21B 5938   0.013   3.175   9.111  1.3172 -1.4960  0.3788
   47CHL1  H21C 5939  -0.125   3.091   9.033  0.1815  1.7427 -0.5970
   47CHL1   C22 5940   0.049   2.950   8.853  0.0331  0.5165 -0.3562
   47CHL1  H22A 5941   0.069   3.020   8.769  1.7010 -1.2039 -1.4932
   47CHL1  H22B 5942   0.118   2.866   8.829  0.3698  1.3365 -2.4877
   47CHL1   C23 5943  -0.093   2.894   8.841 -0.6816  0.2775 -0.6633
   47CHL1  H23A 5944  -0.098   2.816   8.920  2.9020 -0.9861 -1.5040
   47CHL1  H23B 5945  -0.169   2.969   8.872  0.0858  1.1460 -0.8069
   47CHL1   C24 5946  -0.132   2.837   8.707  0.2180 -0.2294  0.1791
   47CHL1  H24A 5947  -0.097   2.894   8.619  1.4377 -2.0003 -0.5331
   47CHL1  H24B 5948  -0.074   2.743   8.704  0.2702 -0.3059  2.2540
   47CHL1   C25 5949  -0.280   2.810   8.696 -0.2150  0.8636 -0.1682
   47CHL1   H25 5950  -0.292   2.756   8.600  3.1854  0.7399 -0.6622
   47CHL1   C26 5951  -0.328   2.718   8.805  0.7760 -0.3728 -0.0289
   47CHL1  H26A 5952  -0.438   2.704   8.801  0.5865  0.4517  1.5920
   47CHL1  H26B 5953  -0.297   2.752   8.906 -0.0967 -1.3556  0.5922
   47CHL1  H26C 5954  -0.275   2.621   8.793  0.8631 -0.4105  0.6185
   47CHL1   C27 5955  -0.371   2.932   8.670  0.7700  0.1340 -0.4736
   47CHL1  H27A 5956  -0.472   2.891   8.645 -0.2873 -0.1410  3.6263
   47CHL1  H27B 5957  -0.388   2.988   8.764 -1.3592  0.2140 -0.8547
   47CHL1  H27C 5958  -0.334   3.007   8.597 -0.8701  2.1345  0.6506
   48CHL1    C3 5959   1.006   6.006   9.997 -0.1462  0.6629 -0.7709
   48CHL1    H3 5960   0.898   6.027  10.014  0.1030  0.2845  1.6954
   48CHL1    O3 5961   1.050   5.969  10.126  0.0775 -0.0443  0.5706
   48CHL1   H3' 5962   1.135   6.013  10.133 -0.1968  0.6265 -0.2168
   48CHL1    C4 5963   1.022   5.890   9.901 -0.3287 -0.8738 -0.3502
   48CHL1   H4A 5964   1.130   5.866   9.898  0.9827  3.7956  1.0777
   48CHL1   H4B 5965   0.961   5.803   9.932 -1.5217  0.5679  1.5245
   48CHL1    C5 5966   0.977   5.927   9.758 -0.4531 -0.5052 -0.6729
   48CHL1    C6 5967   0.893   5.845   9.691 -0.2911  0.6784 -0.5680
   48CHL1    H6 5968   0.865   5.749   9.736  2.2734  0.7597  1.4521
   48CHL1    C7 5969   0.836   5.861   9.558 -0.2305  0.5321  0.1980
   48CHL1   H7A 5970   0.853   5.772   9.495  1.0227  0.3653  0.7438
   48CHL1   H7B 5971   0.725   5.867   9.547 -0.3086 -1.1558 -0.0710
   48CHL1    C8 5972   0.901   5.980   9.484 -0.2295 -0.2377  0.4532
   48CHL1    H8 5973   0.990   5.945   9.428  0.3570  0.7273  0.7642
   48CHL1   C14 5974   0.809   6.035   9.370  0.1411 -0.7773  0.1082
   48CHL1   H14 5975   0.715   6.070   9.418 -1.2123 -0.7147 -2.4176
   48CHL1   C15 5976   0.749   5.943   9.262  0.4487  0.3452 -0.9387
   48CHL1  H15A 5977   0.823   5.881   9.208  0.4646  0.7531 -1.3921
   48CHL1  H15B 5978   0.659   5.884   9.292  0.7827 -0.0539 -0.7140
   48CHL1   C16 5979   0.692   6.043   9.157 -0.4630 -0.6855  0.0867
   48CHL1  H16A 5980   0.733   6.013   9.058  2.3569 -0.9998  1.2333
   48CHL1  H16B 5981   0.581   6.044   9.153 -0.4709  2.3295 -1.6171
   48CHL1   C17 5982   0.750   6.184   9.190 -0.3523 -0.1237  0.6616
   48CHL1   H17 5983   0.678   6.239   9.254  1.4376  0.3139  2.4141
   48CHL1   C13 5984   0.865   6.153   9.288  0.4025 -0.6171  0.6602
   48CHL1   C18 5985   0.985   6.115   9.211  0.3575 -0.4110 -0.5099
   48CHL1  H18A 5986   1.029   6.213   9.183 -1.6638  0.2908 -1.4202
   48CHL1  H18B 5987   1.071   6.068   9.265  2.5432  1.3447 -2.2490
   48CHL1  H18C 5988   0.966   6.053   9.121  0.5927 -0.2516 -0.6708
   48CHL1   C12 5989   0.901   6.266   9.389 -1.0557  0.0678  0.3234
   48CHL1  H12A 5990   0.934   6.362   9.343  0.8604 -0.5773  0.2645
   48CHL1  H12B 5991   0.804   6.297   9.434 -0.4686  1.9277  0.4020
   48CHL1   C11 5992   0.999   6.219   9.504 -0.1042 -0.5270  0.0593
   48CHL1  H11A 5993   1.101   6.205   9.463  0.3155  2.8287 -0.3039
   48CHL1  H11B 5994   1.003   6.300   9.580  0.5167 -1.1312  0.6894
   48CHL1    C9 5995   0.941   6.095   9.578 -0.2138 -0.1826 -0.7865
   48CHL1    H9 5996   0.849   6.126   9.631  0.4952 -1.1297  1.0954
   48CHL1   C10 5997   1.028   6.057   9.700  0.3428  0.8894 -0.3019
   48CHL1   C19 5998   1.183   6.040   9.658  0.4116 -0.1521 -0.1375
   48CHL1  H19A 5999   1.249   5.996   9.735  0.1757  0.1951  0.2710
   48CHL1  H19B 6000   1.188   5.971   9.572 -0.9596  0.7973 -1.0179
   48CHL1  H19C 6001   1.229   6.134   9.620 -1.7616  0.2251 -2.1026
   48CHL1    C1 6002   1.022   6.167   9.813 -0.2306  0.0163  0.9549
   48CHL1   H1A 6003   1.094   6.244   9.777 -1.3956  1.2212  1.0997
   48CHL1   H1B 6004   0.923   6.218   9.819 -0.8873 -0.7269 -2.1160
   48CHL1    C2 6005   1.079   6.133   9.948  0.2544  1.1733 -0.7108
   48CHL1   H2A 6006   1.060   6.218  10.017  0.9930  3.9970 -3.7626
   48CHL1   H2B 6007   1.185   6.104   9.932 -0.5100 -1.0656 -2.2123
   48CHL1   C20 6008   0.780   6.268   9.061  0.4164 -0.6212  0.1787
   48CHL1   H20 6009   0.868   6.222   9.011  0.5232  0.8198 -1.0356
   48CHL1   C21 6010   0.838   6.410   9.093 -0.1062 -0.2663 -0.0120
   48CHL1  H21A 6011   0.941   6.406   9.133 -0.3357  1.7344  0.9162
   48CHL1  H21B 6012   0.764   6.439   9.171 -0.0271  0.9290 -0.3540
   48CHL1  H21C 6013   0.831   6.485   9.011  0.5397 -2.2527 -1.9830
   48CHL1   C22 6014   0.658   6.280   8.965 -0.1606 -0.3303 -0.6100
   48CHL1  H22A 6015   0.575   6.206   8.971 -0.6633  0.2959  0.7906
   48CHL1  H22B 6016   0.605   6.368   9.009 -0.4537 -0.8201  0.0376
   48CHL1   C23 6017   0.705   6.314   8.820 -0.0765  0.5641 -0.0596
   48CHL1  H23A 6018   0.762   6.409   8.818  0.8161  0.1021  1.3665
   48CHL1  H23B 6019   0.772   6.238   8.774  0.2736 -0.0856  1.4438
   48CHL1   C24 6020   0.587   6.330   8.723 -0.0645  0.7893  0.1948
   48CHL1  H24A 6021   0.537   6.232   8.730 -0.0668  0.7804  0.0567
   48CHL1  H24B 6022   0.518   6.403   8.770  1.2984  1.6722  0.9167
   48CHL1   C25 6023   0.620   6.383   8.584  0.4562  0.1043 -0.0510
   48CHL1   H25 6024   0.670   6.482   8.589 -1.1440  0.9018  1.0494
   48CHL1   C26 6025   0.729   6.300   8.508  0.3360  0.2440 -0.6148
   48CHL1  H26A 6026   0.753   6.353   8.413  0.8162  2.1694  0.5337
   48CHL1  H26B 6027   0.821   6.314   8.568  0.3464  0.0430 -0.5830
   48CHL1  H26C 6028   0.703   6.195   8.487  0.4905 -0.3465  1.8487
   48CHL1   C27 6029   0.497   6.410   8.491  0.2828  0.1531  0.2256
   48CHL1  H27A 6030   0.427   6.480   8.540 -0.2535  1.3328 -2.1062
   48CHL1  H27B 6031   0.513   6.457   8.391 -1.3624  0.8059  0.2415
   48CHL1  H27C 6032   0.449   6.312   8.467 -1.5573  0.8149  1.0967
   49CHL1    C3 6033   6.724   0.936  10.070  1.0406 -0.1441 -0.3321
   49CHL1    H3 6034   6.773   0.845  10.031 -0.1617 -1.1130  0.3397
   49CHL1    O3 6035   6.746   0.947  10.207 -0.0074  0.6412  0.3954
   49CHL1   H3' 6036   6.704   0.870  10.247 -1.6492  0.6964 -1.0767
   49CHL1    C4 6037   6.790   1.051  10.002  0.3176 -0.6146  0.1258
   49CHL1   H4A 6038   6.769   1.147  10.053 -0.8899  0.4874 -2.3234
   49CHL1   H4B 6039   6.899   1.040  10.020  0.6139  1.2860 -0.3016
   49CHL1    C5 6040   6.753   1.073   9.853 -0.1044  0.0146 -0.0736
   49CHL1    C6 6041   6.852   1.086   9.757  0.0006  0.5168  0.5690
   49CHL1    H6 6042   6.959   1.090   9.779 -0.1323  1.5308  1.0499
   49CHL1    C7 6043   6.810   1.119   9.616 -0.2433 -0.2327  0.3529
   49CHL1   H7A 6044   6.855   1.217   9.592 -1.5169  0.0548 -1.0053
   49CHL1   H7B 6045   6.845   1.051   9.536  1.7571  1.0014  0.1214
   49CHL1    C8 6046   6.656   1.145   9.582 -0.4881  0.4657 -0.3389
   49CHL1    H8 6047   6.616   1.244   9.610 -1.5866  0.4322 -1.6606
   49CHL1   C14 6048   6.635   1.128   9.430  0.1555 -0.8852 -0.1444
   49CHL1   H14 6049   6.678   1.026   9.418 -0.9628 -1.6055  1.5181
   49CHL1   C15 6050   6.722   1.214   9.331 -0.0192 -0.3869 -0.2280
   49CHL1  H15A 6051   6.701   1.318   9.363 -0.3374 -0.7118  0.6427
   49CHL1  H15B 6052   6.829   1.188   9.348 -0.5414 -1.2543  2.1453
   49CHL1   C16 6053   6.667   1.184   9.195 -0.0187  1.0055  0.2615
   49CHL1  H16A 6054   6.656   1.274   9.131 -0.7336  0.4117 -0.4572
   49CHL1  H16B 6055   6.721   1.103   9.143  0.4345  0.7790  1.0616
   49CHL1   C17 6056   6.524   1.121   9.223 -0.3163 -0.2105 -0.4920
   49CHL1   H17 6057   6.521   1.010   9.215 -1.2392 -0.0765 -3.0864
   49CHL1   C13 6058   6.492   1.138   9.378 -0.4012  0.0386 -0.1760
   49CHL1   C18 6059   6.439   1.286   9.399  0.2759  0.1616  0.3105
   49CHL1  H18A 6060   6.436   1.324   9.503 -0.6562  1.6620 -0.2353
   49CHL1  H18B 6061   6.484   1.355   9.325 -0.8798  1.0985  0.4620
   49CHL1  H18C 6062   6.335   1.282   9.361  1.1407  0.0803 -2.2152
   49CHL1   C12 6063   6.413   1.034   9.460 -0.2751  0.0811  0.0380
   49CHL1  H12A 6064   6.307   1.046   9.430  0.0226 -1.6586 -1.9307
   49CHL1  H12B 6065   6.439   0.932   9.424 -3.7005 -0.5251 -1.0433
   49CHL1   C11 6066   6.426   1.048   9.617  0.7931  0.1790  0.0298
   49CHL1  H11A 6067   6.375   1.144   9.642  1.8280  0.8031 -0.2239
   49CHL1  H11B 6068   6.372   0.971   9.676 -0.2675  0.9491  0.1063
   49CHL1    C9 6069   6.573   1.044   9.661  0.0042 -0.0194 -0.3489
   49CHL1    H9 6070   6.599   0.939   9.638 -3.6652 -1.1288 -0.0271
   49CHL1   C10 6071   6.602   1.063   9.824  0.7558 -0.0410  0.1678
   49CHL1   C19 6072   6.537   1.199   9.868  0.8480 -0.3227  0.0579
   49CHL1  H19A 6073   6.544   1.218   9.977 -0.0134 -1.5818  0.3559
   49CHL1  H19B 6074   6.589   1.284   9.820 -1.7038  1.1341 -0.3343
   49CHL1  H19C 6075   6.431   1.210   9.837  1.2427 -0.7848 -1.5592
   49CHL1    C1 6076   6.532   0.939   9.899 -0.0408 -0.6973 -0.8627
   49CHL1   H1A 6077   6.426   0.959   9.871 -0.1974  2.5837  1.4854
   49CHL1   H1B 6078   6.559   0.847   9.843 -1.3281 -1.2847 -0.5464
   49CHL1    C2 6079   6.571   0.936  10.046  0.2674  0.4218  0.0073
   49CHL1   H2A 6080   6.533   0.842  10.092 -1.0101  1.3485  0.9102
   49CHL1   H2B 6081   6.530   1.022  10.103 -0.2075  0.8015 -0.9068
   49CHL1   C20 6082   6.409   1.155   9.124  0.8047  0.5620  0.6260
   49CHL1   H20 6083   6.398   1.266   9.125  0.5377  0.5415  2.0352
   49CHL1   C21 6084   6.271   1.097   9.165 -0.6099 -0.0586 -0.3214
   49CHL1  H21A 6085   6.288   0.989   9.185  1.7586  0.2801 -0.1568
   49CHL1  H21B 6086   6.196   1.097   9.083  0.9949 -2.1719 -1.9457
   49CHL1  H21C 6087   6.233   1.145   9.257  3.0411 -0.1331  1.3940
   49CHL1   C22 6088   6.444   1.112   8.977  0.3296 -0.1583  0.1844
   49CHL1  H22A 6089   6.554   1.124   8.965  0.0804  0.4409 -2.0796
   49CHL1  H22B 6090   6.405   1.008   8.971  3.4088 -1.4997  1.3730
   49CHL1   C23 6091   6.362   1.194   8.870 -0.3189 -0.4812  0.0307
   49CHL1  H23A 6092   6.255   1.189   8.901  0.1435 -1.3700  1.5690
   49CHL1  H23B 6093   6.401   1.297   8.865  0.2078 -0.6334 -5.7643
   49CHL1   C24 6094   6.376   1.149   8.728 -0.4240  0.3602 -0.3031
   49CHL1  H24A 6095   6.479   1.143   8.687 -0.3039 -3.9634  0.1754
   49CHL1  H24B 6096   6.339   1.044   8.725  1.8190 -0.4901  0.1198
   49CHL1   C25 6097   6.285   1.231   8.641 -0.3182  0.7183  0.5241
   49CHL1   H25 6098   6.297   1.333   8.681 -2.5508  1.6066 -0.8890
   49CHL1   C26 6099   6.337   1.222   8.497  0.4532  0.2515  0.5458
   49CHL1  H26A 6100   6.270   1.274   8.425 -0.3977  1.8670  2.4078
   49CHL1  H26B 6101   6.436   1.274   8.495  0.8566 -0.5040 -1.7998
   49CHL1  H26C 6102   6.349   1.118   8.459  0.6558 -0.3708  2.2397
   49CHL1   C27 6103   6.140   1.209   8.660  0.5598  0.3396 -0.8144
   49CHL1  H27A 6104   6.125   1.100   8.677 -0.7941  0.5264 -0.7345
   49CHL1  H27B 6105   6.103   1.264   8.749  0.2134  1.1101 -1.4232
   49CHL1  H27C 6106   6.087   1.246   8.569 -0.0439  3.9365  0.7971
   50CHL1    C3 6107   0.853   4.220  10.202 -0.1946 -0.4582  0.6329
   50CHL1    H3 6108   0.853   4.111  10.181 -1.6093  0.1662 -3.8665
   50CHL1    O3 6109   0.886   4.253  10.332 -0.0424  0.3115 -0.3943
   50CHL1   H3' 6110   0.862   4.345  10.345  0.6806  0.3827  0.5024
   50CHL1    C4 6111   0.955   4.298  10.114  0.7024 -0.0465 -0.4388
   50CHL1   H4A 6112   0.952   4.408  10.124  1.2817 -0.1313  0.9069
   50CHL1   H4B 6113   1.055   4.277  10.157 -0.1594 -0.2624  1.6449
   50CHL1    C5 6114   0.920   4.274   9.974  0.8056  0.3492  0.4844
   50CHL1    C6 6115   1.014   4.241   9.887  0.3766  0.1478  0.1254
   50CHL1    H6 6116   1.119   4.239   9.920  0.4376 -1.2879 -0.0774
   50CHL1    C7 6117   0.995   4.229   9.736  0.0617  0.0443  0.4107
   50CHL1   H7A 6118   1.076   4.279   9.679 -0.0784 -0.3522 -0.1417
   50CHL1   H7B 6119   0.993   4.121   9.710  0.2100  0.1954 -0.2507
   50CHL1    C8 6120   0.854   4.283   9.687 -0.0668 -0.0934 -0.8837
   50CHL1    H8 6121   0.871   4.393   9.689  1.4363 -0.2956 -1.2980
   50CHL1   C14 6122   0.828   4.238   9.542  0.2735 -0.2346 -0.2546
   50CHL1   H14 6123   0.823   4.128   9.548 -0.6846 -0.5428 -4.1242
   50CHL1   C15 6124   0.945   4.259   9.430  0.7156  0.0076  0.1585
   50CHL1  H15A 6125   0.996   4.358   9.427  0.6068  0.0827  0.6964
   50CHL1  H15B 6126   1.019   4.181   9.456 -0.5602 -1.6855 -1.0332
   50CHL1   C16 6127   0.863   4.234   9.299 -0.9236  0.1105 -0.4556
   50CHL1  H16A 6128   0.899   4.318   9.234  0.0769 -0.4055 -0.5978
   50CHL1  H16B 6129   0.902   4.144   9.246  0.9398  1.2335 -1.1152
   50CHL1   C17 6130   0.711   4.225   9.330  0.4368 -1.0708  0.1371
   50CHL1   H17 6131   0.683   4.118   9.339 -0.9884 -0.7452 -0.2370
   50CHL1   C13 6132   0.698   4.288   9.478  0.1523 -0.4041 -0.3190
   50CHL1   C18 6133   0.692   4.446   9.468 -0.1376 -0.0313 -0.0701
   50CHL1  H18A 6134   0.585   4.471   9.453 -0.2511 -1.8538 -3.1802
   50CHL1  H18B 6135   0.719   4.490   9.567  0.0276  1.1703 -0.6253
   50CHL1  H18C 6136   0.754   4.494   9.389 -0.8627  0.1553 -0.5307
   50CHL1   C12 6137   0.585   4.235   9.573  0.4651  0.2625 -0.3441
   50CHL1  H12A 6138   0.484   4.269   9.542  0.0199  1.7550  2.4060
   50CHL1  H12B 6139   0.587   4.124   9.574  1.5938  0.2396 -2.0122
   50CHL1   C11 6140   0.607   4.291   9.719  0.4509  0.7701  0.1096
   50CHL1  H11A 6141   0.582   4.399   9.715 -0.0149  0.6249 -0.9952
   50CHL1  H11B 6142   0.536   4.252   9.794 -0.3498  2.6311  0.3884
   50CHL1    C9 6143   0.741   4.250   9.780 -0.2569  0.7316  0.0623
   50CHL1    H9 6144   0.736   4.140   9.795 -2.1662  1.1387  3.5003
   50CHL1   C10 6145   0.773   4.302   9.923  0.6347  0.5716 -0.1921
   50CHL1   C19 6146   0.722   4.452   9.935 -0.6601  0.4000  0.1963
   50CHL1  H19A 6147   0.740   4.502  10.032  0.2036  0.7484 -0.1263
   50CHL1  H19B 6148   0.775   4.512   9.857 -1.0076 -1.8569 -1.9119
   50CHL1  H19C 6149   0.614   4.467   9.913 -0.5996  2.8844  1.2162
   50CHL1    C1 6150   0.677   4.227  10.019 -0.6824  0.3313  0.1150
   50CHL1   H1A 6151   0.571   4.252  10.000 -0.4573  1.1956 -0.0756
   50CHL1   H1B 6152   0.696   4.120  10.000  0.7429  0.3141  1.3948
   50CHL1    C2 6153   0.703   4.248  10.169  0.2478 -0.2716  0.1694
   50CHL1   H2A 6154   0.628   4.196  10.233 -1.6808  1.7770 -0.2961
   50CHL1   H2B 6155   0.685   4.356  10.188 -1.5296 -0.2966 -1.0547
   50CHL1   C20 6156   0.610   4.284   9.222 -0.1775 -0.1049 -0.2229
   50CHL1   H20 6157   0.632   4.391   9.203  0.1550 -0.6859 -3.7528
   50CHL1   C21 6158   0.465   4.278   9.277 -0.3339 -0.2865  0.2239
   50CHL1  H21A 6159   0.389   4.307   9.201 -1.5519  2.2563  2.2193
   50CHL1  H21B 6160   0.453   4.355   9.357  0.9126 -1.4346  1.5773
   50CHL1  H21C 6161   0.445   4.178   9.322  0.5222 -0.4951  0.1590
   50CHL1   C22 6162   0.619   4.207   9.092 -0.4802  0.2654  0.2626
   50CHL1  H22A 6163   0.725   4.179   9.077 -0.5794 -1.0913  1.8233
   50CHL1  H22B 6164   0.568   4.109   9.106 -1.7364  0.8465 -0.1113
   50CHL1   C23 6165   0.572   4.285   8.964  0.3585 -0.3505 -0.8200
   50CHL1  H23A 6166   0.574   4.213   8.879 -1.7082  0.3148 -1.4839
   50CHL1  H23B 6167   0.471   4.330   8.979  0.0976 -0.9657 -0.6963
   50CHL1   C24 6168   0.664   4.400   8.927  0.6523  0.3046 -0.2416
   50CHL1  H24A 6169   0.659   4.473   9.011 -1.7188 -1.8982  1.6944
   50CHL1  H24B 6170   0.766   4.365   8.902  0.5183 -0.6203  0.4561
   50CHL1   C25 6171   0.612   4.470   8.798 -0.7801  0.0506  0.4043
   50CHL1   H25 6172   0.502   4.481   8.806 -0.6838  1.3297  0.2167
   50CHL1   C26 6173   0.682   4.609   8.792  0.3038  0.0538  0.0262
   50CHL1  H26A 6174   0.792   4.599   8.804  0.2152 -0.1585  0.7083
   50CHL1  H26B 6175   0.649   4.649   8.694 -2.4134  1.5799  1.4534
   50CHL1  H26C 6176   0.646   4.671   8.877  3.7644 -1.0517  2.5732
   50CHL1   C27 6177   0.643   4.388   8.669 -0.1863 -0.3073  0.1992
   50CHL1  H27A 6178   0.602   4.287   8.693 -2.6716  0.1218 -1.8178
   50CHL1  H27B 6179   0.590   4.431   8.582  1.8250  1.5379 -0.1847
   50CHL1  H27C 6180   0.752   4.392   8.646  0.1645  1.7640  1.9797
   51CHL1    C3 6181   4.183   3.137  10.318 -0.3846 -0.4036 -0.3217
   51CHL1    H3 6182   4.275   3.084  10.284  0.7219  0.1105  1.7074
   51CHL1    O3 6183   4.184   3.138  10.459 -0.1480  0.3969  0.4109
   51CHL1   H3' 6184   4.111   3.196  10.482  0.0011  0.8934 -0.3271
   51CHL1    C4 6185   4.189   3.287  10.275 -0.3456 -0.0624  0.9743
   51CHL1   H4A 6186   4.101   3.339  10.317  0.2898  2.0038 -0.0719
   51CHL1   H4B 6187   4.280   3.334  10.317  0.5209  1.8332 -2.5572
   51CHL1    C5 6188   4.189   3.307  10.126  0.0953 -0.7106 -0.0880
   51CHL1    C6 6189   4.292   3.364  10.062  0.2588 -0.3501 -0.4596
   51CHL1    H6 6190   4.385   3.393  10.114 -1.9783  1.2776  2.9996
   51CHL1    C7 6191   4.292   3.384   9.915  0.4246  0.0805  0.2768
   51CHL1   H7A 6192   4.332   3.483   9.884 -1.8377  0.9179 -0.1624
   51CHL1   H7B 6193   4.349   3.301   9.867 -1.0079 -0.9219  0.2572
   51CHL1    C8 6194   4.151   3.370   9.845 -0.0971  0.4426 -0.0767
   51CHL1    H8 6195   4.095   3.463   9.869  0.3837  0.5726  0.5676
   51CHL1   C14 6196   4.167   3.359   9.693 -0.4794 -0.4669  0.2059
   51CHL1   H14 6197   4.214   3.259   9.675 -0.8310 -0.6966  0.5574
   51CHL1   C15 6198   4.257   3.458   9.622 -0.3754 -0.0961 -0.0945
   51CHL1  H15A 6199   4.253   3.562   9.659  1.4861  0.5104 -1.4633
   51CHL1  H15B 6200   4.358   3.412   9.629  0.5080  1.3250 -2.2582
   51CHL1   C16 6201   4.204   3.466   9.478 -0.1296  0.2853 -0.0292
   51CHL1  H16A 6202   4.157   3.564   9.457 -1.5639 -0.3752  0.0155
   51CHL1  H16B 6203   4.286   3.450   9.404  0.0636 -0.2142  0.2853
   51CHL1   C17 6204   4.100   3.349   9.469  0.0924 -0.3637 -0.1922
   51CHL1   H17 6205   4.157   3.254   9.459  1.4687  0.4269 -0.1741
   51CHL1   C13 6206   4.040   3.353   9.613 -0.2134  0.6253  0.5433
   51CHL1   C18 6207   3.952   3.478   9.626 -0.0493 -0.6831 -0.4017
   51CHL1  H18A 6208   3.894   3.474   9.721  2.4221 -0.9698  1.1794
   51CHL1  H18B 6209   4.007   3.575   9.629 -2.2247  0.6163 -0.6608
   51CHL1  H18C 6210   3.884   3.489   9.539 -0.2849  1.2864 -0.0076
   51CHL1   C12 6211   3.974   3.222   9.661  0.5924  0.2659  0.2858
   51CHL1  H12A 6212   3.879   3.204   9.605  1.1872 -0.5508 -0.4800
   51CHL1  H12B 6213   4.039   3.134   9.646 -0.4452 -0.4446 -0.1942
   51CHL1   C11 6214   3.948   3.208   9.816 -0.0321  0.1147  0.2407
   51CHL1  H11A 6215   3.870   3.284   9.838  0.8705  1.5613 -1.3054
   51CHL1  H11B 6216   3.912   3.104   9.827  1.7000 -0.7544 -1.6571
   51CHL1    C9 6217   4.078   3.240   9.899  1.0236  0.0287  0.3940
   51CHL1    H9 6218   4.146   3.153   9.882  0.7549 -0.1176  0.0551
   51CHL1   C10 6219   4.057   3.244  10.055 -0.3993  0.4473 -0.2800
   51CHL1   C19 6220   3.924   3.322  10.084  0.4626 -0.3393  0.1199
   51CHL1  H19A 6221   3.931   3.420  10.032 -2.1866 -0.1365  0.0165
   51CHL1  H19B 6222   3.843   3.258  10.044  0.7378 -0.9978  0.5922
   51CHL1  H19C 6223   3.912   3.337  10.194  1.8095 -1.7038  0.4906
   51CHL1    C1 6224   4.041   3.094  10.109  0.1985  0.4961  0.4991
   51CHL1   H1A 6225   3.944   3.057  10.070  0.8671 -0.5861 -0.1882
   51CHL1   H1B 6226   4.117   3.024  10.069  3.4163  2.5628  2.5552
   51CHL1    C2 6227   4.053   3.079  10.267 -0.1381  0.0256  0.7039
   51CHL1   H2A 6228   4.055   2.972  10.296  0.0201 -0.1058  0.2009
   51CHL1   H2B 6229   3.963   3.123  10.316 -0.4133  1.0802 -0.7001
   51CHL1   C20 6230   4.010   3.369   9.343 -0.4634  0.8504 -0.0137
   51CHL1   H20 6231   3.963   3.468   9.355 -0.2397  0.7761  1.6491
   51CHL1   C21 6232   3.906   3.253   9.338  0.1419  0.5423 -0.5179
   51CHL1  H21A 6233   3.837   3.254   9.251 -0.0631 -2.3598 -0.5064
   51CHL1  H21B 6234   3.831   3.257   9.420  1.2847 -0.1988  0.6054
   51CHL1  H21C 6235   3.952   3.154   9.359 -1.4819 -0.7582 -2.6628
   51CHL1   C22 6236   4.084   3.368   9.206  0.0047 -0.0036 -0.0905
   51CHL1  H22A 6237   4.188   3.339   9.232 -0.2514 -0.1006  0.8485
   51CHL1  H22B 6238   4.049   3.279   9.150  0.3314 -0.9980  1.2544
   51CHL1   C23 6239   4.081   3.501   9.135  0.4093  0.9667  0.3915
   51CHL1  H23A 6240   4.100   3.591   9.197 -0.5455 -0.2575  2.5442
   51CHL1  H23B 6241   4.161   3.494   9.058  0.1019  0.7749  0.0888
   51CHL1   C24 6242   3.944   3.538   9.059  0.5806 -0.0656 -0.5463
   51CHL1  H24A 6243   3.857   3.544   9.128 -0.1092 -0.9247 -1.3165
   51CHL1  H24B 6244   3.971   3.631   9.005  0.5380 -0.7836 -1.8366
   51CHL1   C25 6245   3.889   3.441   8.949 -0.7399  0.0780 -0.4245
   51CHL1   H25 6246   3.879   3.339   8.991  0.4437 -0.0237 -0.3468
   51CHL1   C26 6247   3.761   3.497   8.880  0.2258 -0.4920 -0.0801
   51CHL1  H26A 6248   3.674   3.509   8.948 -0.1475  0.9873 -0.7816
   51CHL1  H26B 6249   3.779   3.593   8.827  1.3467 -0.3878  0.4439
   51CHL1  H26C 6250   3.734   3.419   8.806  3.1347 -2.2200  0.4932
   51CHL1   C27 6251   4.004   3.429   8.837 -0.2813  1.4676  0.0591
   51CHL1  H27A 6252   4.081   3.356   8.870 -1.5008  0.4524  0.7573
   51CHL1  H27B 6253   3.959   3.391   8.743  0.2183 -1.0032  0.7332
   51CHL1  H27C 6254   4.056   3.527   8.836 -0.1410  1.4442  1.7542
   52CHL1    C3 6255   1.874   1.686  10.214  0.4773  0.1304 -0.0185
   52CHL1    H3 6256   1.947   1.604  10.201  2.4768  1.7702  0.2968
   52CHL1    O3 6257   1.822   1.701  10.345 -0.3106 -0.3395  0.3566
   52CHL1   H3' 6258   1.813   1.613  10.383  1.2621  0.0808  1.8412
   52CHL1    C4 6259   1.918   1.820  10.152  0.0831 -0.0062  0.0573
   52CHL1   H4A 6260   1.838   1.896  10.162 -0.7776 -0.6196 -1.7643
   52CHL1   H4B 6261   2.000   1.861  10.215 -2.7098  1.0678  3.2769
   52CHL1    C5 6262   1.948   1.819   9.999 -0.1434  0.3266  0.3574
   52CHL1    C6 6263   2.073   1.839   9.952 -0.0519 -0.1106  0.0149
   52CHL1    H6 6264   2.153   1.866  10.023 -0.7908 -0.7833  1.1381
   52CHL1    C7 6265   2.098   1.856   9.801  0.1300  0.2427 -0.1037
   52CHL1   H7A 6266   2.146   1.955   9.786  1.2705 -0.5714 -2.1662
   52CHL1   H7B 6267   2.165   1.776   9.762 -2.5965 -1.7748 -0.9605
   52CHL1    C8 6268   1.971   1.855   9.708  0.2218  0.1892  0.2182
   52CHL1    H8 6269   1.925   1.956   9.722 -0.6251 -0.0912 -0.4605
   52CHL1   C14 6270   1.998   1.845   9.562  0.6706 -1.2331  0.2528
   52CHL1   H14 6271   2.055   1.752   9.542 -1.4237 -2.2645 -1.2989
   52CHL1   C15 6272   2.095   1.954   9.507  0.1464  0.3677 -0.0288
   52CHL1  H15A 6273   2.070   2.052   9.551 -2.7852 -0.2820 -0.0078
   52CHL1  H15B 6274   2.200   1.934   9.537 -0.0637 -0.8367 -0.0341
   52CHL1   C16 6275   2.076   1.938   9.357 -0.5262  0.1199 -0.1867
   52CHL1  H16A 6276   2.075   2.030   9.294  1.3129 -0.8967 -1.8084
   52CHL1  H16B 6277   2.164   1.883   9.316  0.6339  1.3431  0.5490
   52CHL1   C17 6278   1.948   1.835   9.338  0.7827 -0.4981 -0.5431
   52CHL1   H17 6279   1.983   1.730   9.327  2.2182 -0.0295 -0.7530
   52CHL1   C13 6280   1.881   1.840   9.474 -0.3308 -0.5887 -0.0339
   52CHL1   C18 6281   1.792   1.967   9.488  0.5546 -0.2070  0.0194
   52CHL1  H18A 6282   1.768   1.986   9.595 -1.4835  2.7593 -0.8486
   52CHL1  H18B 6283   1.842   2.050   9.434  2.8712 -0.4479  1.6494
   52CHL1  H18C 6284   1.696   1.951   9.434  1.4115  0.5549 -1.7955
   52CHL1   C12 6285   1.801   1.713   9.510  0.2368  0.5736 -0.5326
   52CHL1  H12A 6286   1.711   1.698   9.446  0.1212 -0.3817 -0.1548
   52CHL1  H12B 6287   1.874   1.630   9.506  0.6442  0.7305  2.0531
   52CHL1   C11 6288   1.749   1.724   9.658 -0.2131 -0.2479  0.1150
   52CHL1  H11A 6289   1.676   1.807   9.664 -0.0807 -0.0285 -1.0144
   52CHL1  H11B 6290   1.700   1.629   9.687 -1.6964  0.9341  1.6572
   52CHL1    C9 6291   1.867   1.755   9.756  0.3516  0.3124 -0.2763
   52CHL1    H9 6292   1.929   1.664   9.756  1.6228  1.1349  0.9581
   52CHL1   C10 6293   1.828   1.774   9.906  0.0827 -0.1126 -0.5901
   52CHL1   C19 6294   1.721   1.887   9.897  0.3850  0.6039  0.0954
   52CHL1  H19A 6295   1.622   1.847   9.868  0.6365  0.8656 -1.1606
   52CHL1  H19B 6296   1.709   1.932   9.998 -0.6170 -0.8138  0.6532
   52CHL1  H19C 6297   1.737   1.974   9.830 -1.6460  0.3722 -0.7552
   52CHL1    C1 6298   1.776   1.644   9.969  0.1416 -0.4430  0.1740
   52CHL1   H1A 6299   1.678   1.626   9.920 -0.4385 -0.0428  1.1391
   52CHL1   H1B 6300   1.846   1.562   9.945 -0.8676 -1.7325  1.4601
   52CHL1    C2 6301   1.754   1.639  10.118 -0.5989 -0.4800 -0.4864
   52CHL1   H2A 6302   1.731   1.538  10.158  1.0374 -0.8395 -0.3659
   52CHL1   H2B 6303   1.668   1.705  10.141 -1.0317 -1.2728  0.1961
   52CHL1   C20 6304   1.874   1.848   9.204  0.1841 -0.1990 -0.2792
   52CHL1   H20 6305   1.786   1.916   9.210  0.3989  0.0644 -0.0569
   52CHL1   C21 6306   1.805   1.712   9.168  0.4743  0.1760 -0.2980
   52CHL1  H21A 6307   1.748   1.667   9.252  2.0329  1.6332  1.6362
   52CHL1  H21B 6308   1.883   1.639   9.139 -0.3419 -0.7327 -0.2445
   52CHL1  H21C 6309   1.739   1.723   9.079 -2.0882 -1.4640  1.2501
   52CHL1   C22 6310   1.969   1.906   9.088  0.0224 -0.5286  0.9982
   52CHL1  H22A 6311   1.999   2.012   9.102  0.2220 -0.4220 -0.1516
   52CHL1  H22B 6312   2.062   1.845   9.090  0.2042 -0.2396  1.5103
   52CHL1   C23 6313   1.920   1.884   8.948 -0.3183  0.5641 -0.0299
   52CHL1  H23A 6314   2.002   1.916   8.879 -1.6870  1.4846 -1.2909
   52CHL1  H23B 6315   1.888   1.779   8.929 -1.7318  0.8041  0.9042
   52CHL1   C24 6316   1.800   1.968   8.900 -0.1473 -0.8473  0.6233
   52CHL1  H24A 6317   1.704   1.945   8.953 -1.7065  2.1971 -0.6813
   52CHL1  H24B 6318   1.831   2.072   8.923 -4.3342  0.8494 -0.4874
   52CHL1   C25 6319   1.760   1.953   8.745  0.2440 -0.2669 -0.2154
   52CHL1   H25 6320   1.739   1.845   8.732 -0.4393 -0.7590  3.6599
   52CHL1   C26 6321   1.647   2.047   8.715 -0.4533 -0.3948  0.2116
   52CHL1  H26A 6322   1.670   2.154   8.734 -0.3009 -0.6645  1.7075
   52CHL1  H26B 6323   1.621   2.043   8.607  3.4107  2.3632 -1.0378
   52CHL1  H26C 6324   1.562   2.015   8.779 -0.2578  1.7403  1.6393
   52CHL1   C27 6325   1.878   1.982   8.653 -0.3078  0.5833  0.3917
   52CHL1  H27A 6326   1.853   1.978   8.545  1.5617  1.9685 -0.1341
   52CHL1  H27B 6327   1.924   2.078   8.683  1.7438 -0.8532  2.2352
   52CHL1  H27C 6328   1.960   1.911   8.678 -1.9526 -1.1215  1.2480
   53CHL1    C3 6329   1.077   5.352  10.348 -0.0279  0.5071  0.6777
   53CHL1    H3 6330   1.080   5.241  10.347  0.9576  0.5286 -0.0785
   53CHL1    O3 6331   1.087   5.399  10.481  0.5130  0.1519 -0.5032
   53CHL1   H3' 6332   1.072   5.493  10.490 -0.4822 -0.1373  1.6840
   53CHL1    C4 6333   1.191   5.401  10.260 -0.3498 -0.6228 -0.3561
   53CHL1   H4A 6334   1.205   5.511  10.275 -2.0776  0.2415 -4.0704
   53CHL1   H4B 6335   1.288   5.354  10.289  0.7034 -0.7430 -3.6833
   53CHL1    C5 6336   1.166   5.370  10.115 -0.6170 -0.1256 -0.4258
   53CHL1    C6 6337   1.273   5.329  10.040 -0.1913 -0.3125  0.9726
   53CHL1    H6 6338   1.371   5.315  10.087 -0.1347  1.4789  1.4608
   53CHL1    C7 6339   1.268   5.303   9.893  0.0017  0.6287  0.5523
   53CHL1   H7A 6340   1.359   5.333   9.837  0.4100 -0.8933  0.3652
   53CHL1   H7B 6341   1.243   5.196   9.879  0.7212  0.4170  0.8752
   53CHL1    C8 6342   1.147   5.383   9.834  0.5210  0.2539 -0.6436
   53CHL1    H8 6343   1.174   5.491   9.824 -2.3167  1.2477  1.0788
   53CHL1   C14 6344   1.119   5.324   9.688  0.2720 -0.1464 -0.4786
   53CHL1   H14 6345   1.082   5.221   9.707  0.5711 -0.3942 -1.2157
   53CHL1   C15 6346   1.241   5.297   9.597 -0.1605  0.2165  0.0183
   53CHL1  H15A 6347   1.314   5.376   9.623  0.7373  0.4057 -2.7631
   53CHL1  H15B 6348   1.278   5.193   9.613 -4.1219 -1.0897  1.8591
   53CHL1   C16 6349   1.183   5.304   9.452  0.2896  0.1342  0.1264
   53CHL1  H16A 6350   1.227   5.390   9.398  0.1107  0.8067  1.0276
   53CHL1  H16B 6351   1.211   5.215   9.391  0.6027  0.0286  0.4217
   53CHL1   C17 6352   1.031   5.322   9.471 -0.5681  0.6100  0.2490
   53CHL1   H17 6353   0.979   5.224   9.478 -2.1295  1.2007 -1.9726
   53CHL1   C13 6354   1.001   5.392   9.607  0.0428 -0.3887  0.1352
   53CHL1   C18 6355   1.033   5.539   9.588  0.2035  0.3675 -0.0437
   53CHL1  H18A 6356   1.123   5.560   9.527  0.1065  2.2468  0.4200
   53CHL1  H18B 6357   0.942   5.593   9.555  1.2533  2.5949  0.5279
   53CHL1  H18C 6358   1.061   5.583   9.686  2.2895  0.4477 -0.6344
   53CHL1   C12 6359   0.876   5.370   9.697  0.4253  0.4098  0.0042
   53CHL1  H12A 6360   0.792   5.430   9.654 -0.7995 -0.2499  1.4015
   53CHL1  H12B 6361   0.848   5.263   9.691  1.9330  0.0490 -1.4644
   53CHL1   C11 6362   0.890   5.418   9.840 -0.3425 -0.0926  0.4413
   53CHL1  H11A 6363   0.901   5.528   9.835  1.6428 -0.3052 -0.7535
   53CHL1  H11B 6364   0.806   5.385   9.905 -0.3837 -0.4266  0.2221
   53CHL1    C9 6365   1.017   5.368   9.917  0.1133 -0.3567 -0.1419
   53CHL1    H9 6366   0.999   5.258   9.924  1.5404 -0.5151  1.6767
   53CHL1   C10 6367   1.030   5.420  10.059 -1.1963 -0.0216 -0.6302
   53CHL1   C19 6368   1.015   5.573  10.066 -0.4856 -0.7074  0.3112
   53CHL1  H19A 6369   1.089   5.618   9.997  0.5279 -1.1332  1.1043
   53CHL1  H19B 6370   0.911   5.601  10.037 -0.3253  1.0358  1.2799
   53CHL1  H19C 6371   1.027   5.612  10.169 -2.3469 -0.6645  0.5569
   53CHL1    C1 6372   0.923   5.352  10.138 -0.5861  0.9662 -0.3647
   53CHL1   H1A 6373   0.819   5.384  10.116 -0.9302  1.4805  1.7957
   53CHL1   H1B 6374   0.923   5.241  10.126 -1.7803  1.0984 -2.0624
   53CHL1    C2 6375   0.937   5.391  10.292 -0.0040 -0.2756  0.4890
   53CHL1   H2A 6376   0.855   5.350  10.356 -2.1133  0.0197 -1.8799
   53CHL1   H2B 6377   0.922   5.500  10.310 -2.2680 -0.7893  2.2025
   53CHL1   C20 6378   0.969   5.387   9.347  0.2605 -0.2099  0.1692
   53CHL1   H20 6379   1.006   5.492   9.343 -1.1357  0.4030  2.0998
   53CHL1   C21 6380   0.820   5.386   9.376  0.6055  0.1960  1.0950
   53CHL1  H21A 6381   0.776   5.459   9.448  0.1834  0.4201  0.6199
   53CHL1  H21B 6382   0.787   5.282   9.396 -0.1979  0.5235  1.5022
   53CHL1  H21C 6383   0.762   5.412   9.285  0.4361 -3.8359 -0.1274
   53CHL1   C22 6384   0.996   5.312   9.209 -0.4202  0.6431 -0.8142
   53CHL1  H22A 6385   1.093   5.343   9.163  0.1868  0.2336  0.1553
   53CHL1  H22B 6386   0.996   5.209   9.249 -0.2773  1.5083  1.5881
   53CHL1   C23 6387   0.893   5.334   9.092 -0.2826 -0.2646 -0.3039
   53CHL1  H23A 6388   0.792   5.303   9.128  0.5926 -1.2151  1.5267
   53CHL1  H23B 6389   0.892   5.442   9.070 -1.6209 -0.2661 -0.3370
   53CHL1   C24 6390   0.933   5.254   8.968  0.1219  0.4676 -0.1599
   53CHL1  H24A 6391   1.041   5.273   8.948 -0.0573 -0.0403 -1.8404
   53CHL1  H24B 6392   0.916   5.153   9.011  1.8150  0.2886  0.1580
   53CHL1   C25 6393   0.838   5.284   8.848  0.6863  0.1815  0.2346
   53CHL1   H25 6394   0.733   5.291   8.884  0.1130 -2.1935 -0.8091
   53CHL1   C26 6395   0.879   5.415   8.782  0.0397  0.4573 -0.3334
   53CHL1  H26A 6396   0.984   5.415   8.748  0.1022 -0.0185 -0.1365
   53CHL1  H26B 6397   0.810   5.448   8.700  1.7657  2.1934 -1.1754
   53CHL1  H26C 6398   0.868   5.496   8.857  0.1674  1.7180 -1.6206
   53CHL1   C27 6399   0.835   5.162   8.746 -0.3554  0.7753  0.7098
   53CHL1  H27A 6400   0.802   5.194   8.645  0.5124 -1.4056 -0.3248
   53CHL1  H27B 6401   0.941   5.133   8.728 -0.3930  1.1098 -0.0925
   53CHL1  H27C 6402   0.770   5.084   8.792 -0.5497  0.7296  0.3663
   54CHL1    C3 6403   2.647   5.392  10.461  0.4369 -0.7359 -0.7203
   54CHL1    H3 6404   2.569   5.466  10.436 -0.1275 -1.6316 -1.6788
   54CHL1    O3 6405   2.646   5.363  10.603  0.0328 -0.0655 -0.1866
   54CHL1   H3' 6406   2.738   5.341  10.621  0.1444  0.3380 -0.2639
   54CHL1    C4 6407   2.632   5.260  10.385 -0.1139 -0.4419  1.0498
   54CHL1   H4A 6408   2.706   5.186  10.424 -1.6672 -1.9380  1.2744
   54CHL1   H4B 6409   2.526   5.229  10.399 -0.4578  0.6792  1.0478
   54CHL1    C5 6410   2.654   5.276  10.235  0.5260 -0.1454 -0.6439
   54CHL1    C6 6411   2.560   5.242  10.151  0.0403  0.3144  0.2060
   54CHL1    H6 6412   2.471   5.196  10.197  0.6605 -2.1538 -0.8888
   54CHL1    C7 6413   2.583   5.242  10.003 -0.6533 -0.2286  0.3655
   54CHL1   H7A 6414   2.564   5.150   9.945 -0.4316  1.0906 -1.9088
   54CHL1   H7B 6415   2.528   5.326   9.955  0.3597  1.5741  2.2065
   54CHL1    C8 6416   2.732   5.270   9.956 -0.2401 -0.3686 -0.7134
   54CHL1    H8 6417   2.784   5.174   9.976  0.5028  0.7588  3.7674
   54CHL1   C14 6418   2.734   5.310   9.816 -0.0990 -0.5384  0.8301
   54CHL1   H14 6419   2.674   5.403   9.817  1.7099  0.6666  0.4874
   54CHL1   C15 6420   2.662   5.231   9.703 -0.1872  1.2814 -0.0475
   54CHL1  H15A 6421   2.693   5.124   9.702 -1.4578  0.8910 -0.2206
   54CHL1  H15B 6422   2.551   5.231   9.703 -0.2423 -1.0031 -0.7386
   54CHL1   C16 6423   2.713   5.301   9.575  0.1875  0.2955 -0.1915
   54CHL1  H16A 6424   2.733   5.217   9.505  1.8149 -0.0310  0.6237
   54CHL1  H16B 6425   2.629   5.368   9.545 -0.5282 -1.1173 -1.4396
   54CHL1   C17 6426   2.836   5.382   9.613 -0.2688  0.6217 -0.1906
   54CHL1   H17 6427   2.811   5.490   9.608 -0.9539  0.4269 -1.5553
   54CHL1   C13 6428   2.871   5.341   9.754  0.1663  0.1540  0.3723
   54CHL1   C18 6429   2.954   5.211   9.754  0.4354 -0.2473 -0.3487
   54CHL1  H18A 6430   2.945   5.169   9.857 -2.4562  0.3901 -0.2516
   54CHL1  H18B 6431   2.911   5.137   9.683  0.6240 -0.1207 -0.5981
   54CHL1  H18C 6432   3.057   5.240   9.725  0.3795 -1.1694 -1.5498
   54CHL1   C12 6433   2.931   5.449   9.846  0.8417  0.0229  0.5554
   54CHL1  H12A 6434   3.034   5.475   9.813  1.7865 -2.7530  1.0764
   54CHL1  H12B 6435   2.870   5.542   9.840  1.6069  0.4873 -0.2511
   54CHL1   C11 6436   2.941   5.399   9.992  0.3828 -0.6623  0.8945
   54CHL1  H11A 6437   3.003   5.308  10.006 -1.1814 -1.5774  2.0932
   54CHL1  H11B 6438   2.978   5.485  10.053 -1.9844  1.1944 -0.1328
   54CHL1    C9 6439   2.799   5.374  10.048 -0.0885  0.3269  0.4322
   54CHL1    H9 6440   2.738   5.467  10.039  0.6473  0.8736  0.9598
   54CHL1   C10 6441   2.792   5.340  10.200  0.2447 -0.0184  0.3351
   54CHL1   C19 6442   2.899   5.235  10.235  0.1975  0.3779 -0.0356
   54CHL1  H19A 6443   2.889   5.176  10.328  0.5127 -1.0955 -0.8891
   54CHL1  H19B 6444   2.906   5.156  10.156  0.5059 -1.0111  1.3304
   54CHL1  H19C 6445   2.996   5.289  10.246  0.4750 -0.3171  1.0984
   54CHL1    C1 6446   2.807   5.466  10.291  0.8404  0.5670  0.9168
   54CHL1   H1A 6447   2.911   5.503  10.275  1.1002  0.5377  2.3788
   54CHL1   H1B 6448   2.733   5.538  10.250  1.5277  2.6625  3.0784
   54CHL1    C2 6449   2.791   5.444  10.438 -0.1342 -0.3733 -0.0834
   54CHL1   H2A 6450   2.790   5.539  10.495 -1.0117 -2.2498  3.2640
   54CHL1   H2B 6451   2.862   5.366  10.474 -0.0244  0.3563  1.3209
   54CHL1   C20 6452   2.944   5.374   9.498 -0.2265  0.2263 -0.4232
   54CHL1   H20 6453   2.964   5.266   9.485 -0.0807  0.1855  0.1199
   54CHL1   C21 6454   3.076   5.440   9.530 -0.0346  0.8135 -0.4232
   54CHL1  H21A 6455   3.144   5.434   9.443 -1.1204 -1.4489 -1.1969
   54CHL1  H21B 6456   3.134   5.389   9.610 -2.3609 -2.1131 -0.4368
   54CHL1  H21C 6457   3.062   5.548   9.554 -1.2664  0.2798  1.4589
   54CHL1   C22 6458   2.890   5.446   9.365 -0.4148  0.4370  0.1711
   54CHL1  H22A 6459   2.784   5.415   9.369  0.3018 -2.2750  3.6220
   54CHL1  H22B 6460   2.901   5.555   9.386 -1.0281  0.5631 -0.1366
   54CHL1   C23 6461   2.952   5.411   9.228  0.1240 -0.0361 -0.2054
   54CHL1  H23A 6462   3.059   5.438   9.220 -0.1470  0.5764 -2.7552
   54CHL1  H23B 6463   2.939   5.302   9.207 -0.3061 -0.2633  1.1657
   54CHL1   C24 6464   2.868   5.470   9.120  0.3655  0.0241  0.4533
   54CHL1  H24A 6465   2.768   5.423   9.132  0.7758 -0.5057  1.9118
   54CHL1  H24B 6466   2.862   5.580   9.135  1.9702  0.0617  1.0285
   54CHL1   C25 6467   2.920   5.440   8.981 -0.1304  0.2285  0.0650
   54CHL1   H25 6468   2.931   5.331   8.966 -3.4777 -0.2200  0.1808
   54CHL1   C26 6469   2.819   5.486   8.880  0.3343 -0.0764  0.0254
   54CHL1  H26A 6470   2.856   5.477   8.775 -1.2180 -0.2487 -0.5414
   54CHL1  H26B 6471   2.722   5.432   8.883 -0.2450  0.7017 -2.2925
   54CHL1  H26C 6472   2.788   5.592   8.891 -1.1710  0.0133 -3.5536
   54CHL1   C27 6473   3.052   5.520   8.960  0.4781  0.0689 -0.0465
   54CHL1  H27A 6474   3.041   5.630   8.977  1.8720  0.2061  0.1591
   54CHL1  H27B 6475   3.135   5.488   9.027  1.0894 -0.4751 -1.0367
   54CHL1  H27C 6476   3.082   5.503   8.854 -0.3897 -1.5221 -0.0617
   55CHL1    C3 6477   1.919   0.781  10.239  0.4499  0.8896 -0.0977
   55CHL1    H3 6478   1.820   0.829  10.252 -0.5039 -0.1694 -2.8030
   55CHL1    O3 6479   1.955   0.756  10.377  0.5836  0.3573  0.2021
   55CHL1   H3' 6480   1.927   0.665  10.394 -1.0046  0.8282  0.3009
   55CHL1    C4 6481   1.894   0.652  10.161  0.1569 -0.7642 -0.3221
   55CHL1   H4A 6482   1.984   0.588  10.174 -0.4083 -1.3468  0.9765
   55CHL1   H4B 6483   1.816   0.594  10.214 -0.0050  1.2577  1.8251
   55CHL1    C5 6484   1.871   0.670  10.012 -0.1798 -1.2007 -0.0700
   55CHL1    C6 6485   1.753   0.631   9.957 -0.3787  0.5739  0.3372
   55CHL1    H6 6486   1.682   0.575  10.019 -0.7996 -0.1753 -0.7822
   55CHL1    C7 6487   1.726   0.643   9.811 -0.6085  0.1754  0.8781
   55CHL1   H7A 6488   1.693   0.545   9.770  1.2280 -0.4462  0.7908
   55CHL1   H7B 6489   1.654   0.727   9.801 -0.4146  0.3245  0.7293
   55CHL1    C8 6490   1.862   0.684   9.735 -0.0269 -0.1550 -0.6500
   55CHL1    H8 6491   1.933   0.600   9.748  1.6158  1.0782 -1.2326
   55CHL1   C14 6492   1.831   0.715   9.586  0.9120  0.7891  0.4376
   55CHL1   H14 6493   1.756   0.797   9.591 -0.1118 -0.1759  1.3696
   55CHL1   C15 6494   1.763   0.607   9.495  0.6840 -0.0011  0.2297
   55CHL1  H15A 6495   1.834   0.524   9.514  1.5865  0.3050 -1.5379
   55CHL1  H15B 6496   1.657   0.587   9.520 -0.4117  3.4931 -1.0267
   55CHL1   C16 6497   1.793   0.658   9.352 -0.2744 -0.4930  0.3016
   55CHL1  H16A 6498   1.827   0.568   9.295 -2.2000  0.5420 -2.7366
   55CHL1  H16B 6499   1.693   0.678   9.309  0.8492  0.7504 -1.9404
   55CHL1   C17 6500   1.882   0.787   9.362 -0.3560 -0.8995 -0.1142
   55CHL1   H17 6501   1.810   0.871   9.374  0.2712 -0.6721  2.9612
   55CHL1   C13 6502   1.950   0.771   9.499  0.0486  0.8134 -1.2749
   55CHL1   C18 6503   2.073   0.666   9.500 -0.8034 -0.2832  0.7375
   55CHL1  H18A 6504   2.166   0.712   9.460 -0.3364 -1.5595  0.2940
   55CHL1  H18B 6505   2.093   0.630   9.602 -0.5619 -0.4221  0.6415
   55CHL1  H18C 6506   2.037   0.573   9.450 -0.3071 -1.7629  3.0145
   55CHL1   C12 6507   1.992   0.901   9.571  1.0018  0.3959 -0.1817
   55CHL1  H12A 6508   2.069   0.952   9.509  2.1109  0.6073  1.3199
   55CHL1  H12B 6509   1.901   0.965   9.571  0.0917 -0.8572  0.4356
   55CHL1   C11 6510   2.041   0.870   9.711 -0.1376  0.0653 -0.5610
   55CHL1  H11A 6511   2.133   0.810   9.706  0.6406  1.3065 -1.6961
   55CHL1  H11B 6512   2.074   0.959   9.769 -2.6494 -0.3540  1.7450
   55CHL1    C9 6513   1.933   0.799   9.800 -0.1239 -0.2547 -0.1412
   55CHL1    H9 6514   1.848   0.870   9.810  1.3547  1.4853  0.6001
   55CHL1   C10 6515   1.977   0.764   9.943  0.7572  0.4189 -0.2236
   55CHL1   C19 6516   2.112   0.693   9.938 -0.3360 -0.1803 -0.2464
   55CHL1  H19A 6517   2.139   0.634  10.028 -2.3974 -0.9716 -0.1067
   55CHL1  H19B 6518   2.136   0.630   9.849  1.3794  0.7192 -0.4614
   55CHL1  H19C 6519   2.188   0.774   9.936  1.7637 -1.9964  1.2866
   55CHL1    C1 6520   1.998   0.895  10.028 -0.1034  0.0851  0.5531
   55CHL1   H1A 6521   2.076   0.955   9.977 -0.6212  1.3660  1.2242
   55CHL1   H1B 6522   1.908   0.960  10.030 -1.0186 -1.1252  0.1810
   55CHL1    C2 6523   2.027   0.869  10.174  0.6668  0.3690 -0.5904
   55CHL1   H2A 6524   2.024   0.964  10.233  0.9106 -0.2929  0.5113
   55CHL1   H2B 6525   2.127   0.825  10.192  1.4536  0.8074 -3.3614
   55CHL1   C20 6526   1.981   0.817   9.251 -0.2347  0.4878  0.0885
   55CHL1   H20 6527   2.072   0.855   9.302 -1.2246  0.6188  1.8490
   55CHL1   C21 6528   1.914   0.918   9.163 -0.6099  0.1487 -0.1105
   55CHL1  H21A 6529   1.888   1.005   9.228  4.3472  1.4577  0.5041
   55CHL1  H21B 6530   1.823   0.865   9.127  0.0530 -0.7607 -0.4796
   55CHL1  H21C 6531   1.971   0.954   9.075  0.0132 -0.9079 -0.1536
   55CHL1   C22 6532   2.037   0.690   9.174 -0.0910 -0.5612  0.2835
   55CHL1  H22A 6533   2.067   0.607   9.241  0.8927 -0.1379  0.3893
   55CHL1  H22B 6534   1.945   0.653   9.125 -0.9942  0.5831  1.0692
   55CHL1   C23 6535   2.153   0.715   9.070  0.2354  0.3244 -0.9518
   55CHL1  H23A 6536   2.106   0.783   8.995 -0.5767  0.8435  0.0064
   55CHL1  H23B 6537   2.227   0.766   9.134 -0.9205  0.5126  0.2759
   55CHL1   C24 6538   2.200   0.580   9.019 -0.0355 -0.4370  0.2250
   55CHL1  H24A 6539   2.232   0.522   9.109  0.8662 -0.4075 -0.0597
   55CHL1  H24B 6540   2.117   0.521   8.975  0.7026 -0.8448 -0.6548
   55CHL1   C25 6541   2.307   0.586   8.921 -0.5381  0.0999 -0.1907
   55CHL1   H25 6542   2.388   0.645   8.968 -0.8070 -0.1855  0.6539
   55CHL1   C26 6543   2.365   0.445   8.904 -0.8384  0.2184  1.1384
   55CHL1  H26A 6544   2.449   0.452   8.831 -1.1167  0.5687  0.8482
   55CHL1  H26B 6545   2.402   0.414   9.004 -2.7371 -0.2730  1.7210
   55CHL1  H26C 6546   2.284   0.380   8.865 -0.1467 -0.5746  0.9609
   55CHL1   C27 6547   2.265   0.647   8.791  0.9044  0.2960 -0.0967
   55CHL1  H27A 6548   2.235   0.754   8.797 -1.7849 -0.4075  0.2217
   55CHL1  H27B 6549   2.341   0.631   8.711  1.6924  2.0630  0.2566
   55CHL1  H27C 6550   2.170   0.599   8.760  0.1453  1.5623  0.1740
   56CHL1    C3 6551   1.335   4.809  10.238  0.3279  0.0165 -0.8196
   56CHL1    H3 6552   1.436   4.762  10.234  0.8862  1.1370 -0.3040
   56CHL1    O3 6553   1.301   4.858  10.371  0.3036  0.1787 -0.4866
   56CHL1   H3' 6554   1.344   4.944  10.376  0.2127  0.1638  1.9851
   56CHL1    C4 6555   1.310   4.912  10.128  0.3553 -0.5407  0.0851
   56CHL1   H4A 6556   1.207   4.951  10.146 -0.4183 -2.8277  0.9312
   56CHL1   H4B 6557   1.383   4.990  10.159 -0.8241  0.1464  1.3141
   56CHL1    C5 6558   1.309   4.864   9.988 -0.6138 -0.1584 -0.2098
   56CHL1    C6 6559   1.366   4.942   9.892 -0.1041  0.4124 -0.1619
   56CHL1    H6 6560   1.405   5.042   9.918  0.4041  0.2799 -0.3864
   56CHL1    C7 6561   1.384   4.912   9.750 -0.3195  0.6649 -0.4674
   56CHL1   H7A 6562   1.361   5.004   9.691  0.6965  0.9552 -0.4334
   56CHL1   H7B 6563   1.490   4.886   9.727 -0.1886 -0.0068  0.8331
   56CHL1    C8 6564   1.305   4.790   9.705  0.4909  0.0905 -0.3073
   56CHL1    H8 6565   1.203   4.824   9.679  0.7825 -1.2071 -3.6537
   56CHL1   C14 6566   1.352   4.740   9.564 -0.2738 -0.4543 -0.2404
   56CHL1   H14 6567   1.452   4.693   9.573 -1.0780 -2.6163 -1.6538
   56CHL1   C15 6568   1.351   4.832   9.452 -0.5166 -0.1053 -0.5287
   56CHL1  H15A 6569   1.252   4.881   9.462  0.0373  1.5932 -2.6305
   56CHL1  H15B 6570   1.445   4.891   9.460 -0.4816 -0.3935  1.8994
   56CHL1   C16 6571   1.356   4.735   9.325  0.1897 -0.1911 -0.7289
   56CHL1  H16A 6572   1.279   4.766   9.252 -0.9061 -1.3861 -0.1138
   56CHL1  H16B 6573   1.455   4.734   9.274  0.0991 -0.4679 -0.9028
   56CHL1   C17 6574   1.331   4.594   9.383  0.1133 -0.0095  0.5075
   56CHL1   H17 6575   1.430   4.551   9.409  0.6392  1.2286  0.6226
   56CHL1   C13 6576   1.274   4.623   9.524 -0.1293 -0.4486  0.4512
   56CHL1   C18 6577   1.116   4.658   9.513  0.0777  0.6260  0.7698
   56CHL1  H18A 6578   1.063   4.713   9.594 -0.5040  3.5428 -1.4185
   56CHL1  H18B 6579   1.105   4.713   9.417 -0.4320 -0.4059  0.2254
   56CHL1  H18C 6580   1.064   4.561   9.498  0.0682  0.3734  2.2441
   56CHL1   C12 6581   1.292   4.505   9.624  0.0900 -0.8259  0.3792
   56CHL1  H12A 6582   1.221   4.424   9.595 -0.1269 -0.4442 -0.1727
   56CHL1  H12B 6583   1.398   4.473   9.630  0.2476 -0.2294  0.7495
   56CHL1   C11 6584   1.257   4.552   9.770  0.4086 -0.5252 -0.4941
   56CHL1  H11A 6585   1.147   4.561   9.780  0.8231  3.2283  3.7422
   56CHL1  H11B 6586   1.283   4.478   9.848 -0.2280  0.0481  0.2861
   56CHL1    C9 6587   1.312   4.681   9.818  0.0509 -0.1884  0.3480
   56CHL1    H9 6588   1.420   4.662   9.840  0.7195  1.3311 -1.2955
   56CHL1   C10 6589   1.256   4.730   9.951 -0.0173 -0.3288 -0.2602
   56CHL1   C19 6590   1.102   4.742   9.945  0.2782 -0.3669  0.3608
   56CHL1  H19A 6591   1.057   4.641   9.947 -1.7481  0.4882  0.4410
   56CHL1  H19B 6592   1.056   4.795  10.031  0.4431  1.2696 -0.5136
   56CHL1  H19C 6593   1.068   4.802   9.857  2.8616 -0.5457 -0.8490
   56CHL1    C1 6594   1.287   4.634  10.066 -0.1013  0.3628 -0.5132
   56CHL1   H1A 6595   1.225   4.542  10.054  0.0464  0.3262 -1.0152
   56CHL1   H1B 6596   1.392   4.596  10.064 -0.6041 -1.3975  1.6713
   56CHL1    C2 6597   1.257   4.680  10.207 -0.0213 -0.1573 -0.4029
   56CHL1   H2A 6598   1.278   4.597  10.278  0.3032  0.4707  0.2467
   56CHL1   H2B 6599   1.149   4.699  10.223  0.0589 -0.1283  0.1245
   56CHL1   C20 6600   1.252   4.497   9.297 -0.3456 -0.0688  0.4388
   56CHL1   H20 6601   1.146   4.531   9.296  0.5189  2.8833 -1.7718
   56CHL1   C21 6602   1.276   4.353   9.344  0.2847 -0.4232  0.9086
   56CHL1  H21A 6603   1.380   4.336   9.380  1.7085  2.3742 -1.4073
   56CHL1  H21B 6604   1.269   4.283   9.258 -0.3290 -0.1372  0.7174
   56CHL1  H21C 6605   1.200   4.327   9.421  0.4110 -0.2444  1.0972
   56CHL1   C22 6606   1.279   4.496   9.140 -0.4273  0.0855 -0.9572
   56CHL1  H22A 6607   1.293   4.602   9.110  0.0632 -0.3043 -2.1510
   56CHL1  H22B 6608   1.375   4.443   9.122 -0.8602 -1.0071 -0.1580
   56CHL1   C23 6609   1.163   4.451   9.045 -0.4249 -0.4878  0.4629
   56CHL1  H23A 6610   1.160   4.340   9.049  1.4686 -0.6400 -0.7885
   56CHL1  H23B 6611   1.070   4.497   9.087 -0.0716 -0.2005  0.9410
   56CHL1   C24 6612   1.192   4.476   8.896  0.3088 -0.2449  0.5445
   56CHL1  H24A 6613   1.210   4.584   8.876 -0.6349 -0.2307 -0.2578
   56CHL1  H24B 6614   1.288   4.428   8.870 -0.8622 -1.8446 -1.0031
   56CHL1   C25 6615   1.081   4.429   8.796 -0.4421  0.6561 -0.3232
   56CHL1   H25 6616   0.991   4.491   8.810 -2.0109 -1.7408  0.8878
   56CHL1   C26 6617   1.124   4.450   8.648 -0.0788  0.0048 -0.0248
   56CHL1  H26A 6618   1.045   4.406   8.583 -0.0017 -1.2741  0.7140
   56CHL1  H26B 6619   1.146   4.559   8.636 -1.0269  0.0789 -1.3428
   56CHL1  H26C 6620   1.214   4.385   8.639  1.8465  2.2475  1.5880
   56CHL1   C27 6621   1.046   4.276   8.812  0.6705  0.4494 -0.6348
   56CHL1  H27A 6622   1.131   4.206   8.799 -0.0442 -0.9515  1.6511
   56CHL1  H27B 6623   1.017   4.270   8.919  2.5970 -1.0214 -0.1411
   56CHL1  H27C 6624   0.960   4.248   8.747  1.0328 -0.1016 -0.8851
   57CHL1    C3 6625   3.357   2.233  10.488 -1.1389  0.4580  0.2488
   57CHL1    H3 6626   3.462   2.199  10.485 -0.9806  0.9811 -0.1683
   57CHL1    O3 6627   3.323   2.234  10.626  0.3076 -0.1430  0.3068
   57CHL1   H3' 6628   3.232   2.267  10.632 -0.5412 -2.5412  1.8559
   57CHL1    C4 6629   3.349   2.377  10.440  1.1572 -0.3745  0.3073
   57CHL1   H4A 6630   3.244   2.413  10.450  0.0763 -3.2512  0.1529
   57CHL1   H4B 6631   3.417   2.438  10.504  0.0787 -1.8565  3.0557
   57CHL1    C5 6632   3.381   2.384  10.295  0.2004  0.8675  0.2479
   57CHL1    C6 6633   3.482   2.458  10.253  0.1031  0.5468 -0.3356
   57CHL1    H6 6634   3.548   2.509  10.325 -0.4372  0.9935 -0.1514
   57CHL1    C7 6635   3.522   2.477  10.114 -0.7072  0.1805 -0.2237
   57CHL1   H7A 6636   3.546   2.584  10.098  2.8908 -0.7603 -2.4331
   57CHL1   H7B 6637   3.618   2.426  10.092 -0.8269 -0.7864  1.3311
   57CHL1    C8 6638   3.410   2.433  10.016 -1.1056  0.2293 -0.2332
   57CHL1    H8 6639   3.330   2.509  10.030 -0.7131  0.4248  1.0639
   57CHL1   C14 6640   3.468   2.429   9.872  0.0058 -0.6068 -0.0524
   57CHL1   H14 6641   3.549   2.353   9.881 -0.9360 -1.5585  0.6060
   57CHL1   C15 6642   3.534   2.559   9.820 -0.4752  0.2598 -0.1131
   57CHL1  H15A 6643   3.481   2.648   9.859 -2.0735 -0.1865 -1.1903
   57CHL1  H15B 6644   3.637   2.568   9.861  0.4517  1.3404 -2.4753
   57CHL1   C16 6645   3.527   2.541   9.668 -0.3717 -0.0150 -0.8354
   57CHL1  H16A 6646   3.463   2.623   9.629 -0.8218 -0.7148 -1.5963
   57CHL1  H16B 6647   3.630   2.535   9.627  0.1776  1.1451  0.2860
   57CHL1   C17 6648   3.445   2.410   9.646 -0.2311 -0.2310  0.2404
   57CHL1   H17 6649   3.522   2.335   9.619  1.2930  1.2263  0.3558
   57CHL1   C13 6650   3.368   2.382   9.771 -0.0403 -1.0042 -0.0693
   57CHL1   C18 6651   3.251   2.487   9.780  0.0428  0.2894 -0.1477
   57CHL1  H18A 6652   3.157   2.467   9.725 -0.4629 -2.4193  1.5313
   57CHL1  H18B 6653   3.212   2.501   9.883 -1.8657  0.3028 -0.8368
   57CHL1  H18C 6654   3.279   2.591   9.751  1.1098  0.5053  1.5015
   57CHL1   C12 6655   3.324   2.238   9.810  0.1638  0.1926  0.1552
   57CHL1  H12A 6656   3.256   2.184   9.740  1.9504 -0.5229 -1.1052
   57CHL1  H12B 6657   3.421   2.184   9.800 -0.7287 -1.7009  1.1631
   57CHL1   C11 6658   3.266   2.235   9.954  0.3633 -0.0993  0.2875
   57CHL1  H11A 6659   3.166   2.281   9.941  0.1879 -0.3868  0.5864
   57CHL1  H11B 6660   3.238   2.132   9.985 -1.9156 -0.1441 -1.6127
   57CHL1    C9 6661   3.362   2.291  10.066  0.2623 -0.4398  0.5471
   57CHL1    H9 6662   3.454   2.229  10.062  0.9346  0.6150 -1.2935
   57CHL1   C10 6663   3.296   2.290  10.203  0.0066 -0.2115 -0.8946
   57CHL1   C19 6664   3.145   2.336  10.184 -0.2959 -0.8942 -0.4649
   57CHL1  H19A 6665   3.132   2.421  10.113 -1.2083 -1.1884 -0.6612
   57CHL1  H19B 6666   3.090   2.245  10.152  0.2854 -1.3963 -0.0529
   57CHL1  H19C 6667   3.098   2.366  10.280  2.3805  0.7649  0.4553
   57CHL1    C1 6668   3.301   2.142  10.263 -0.0200 -0.0218 -0.0374
   57CHL1   H1A 6669   3.233   2.081  10.200  0.3509 -3.7777  2.8983
   57CHL1   H1B 6670   3.406   2.111  10.245 -0.0721 -0.1873 -0.0556
   57CHL1    C2 6671   3.262   2.138  10.412 -0.9220  0.0658 -0.0346
   57CHL1   H2A 6672   3.280   2.041  10.465  0.0330  0.3067  0.1062
   57CHL1   H2B 6673   3.155   2.155  10.438 -0.8577 -2.0108  1.9841
   57CHL1   C20 6674   3.369   2.419   9.517 -0.0827 -0.7313 -0.0795
   57CHL1   H20 6675   3.296   2.502   9.527  1.0596  0.3562 -0.4728
   57CHL1   C21 6676   3.290   2.287   9.505  0.4211 -0.0525 -0.3658
   57CHL1  H21A 6677   3.237   2.301   9.408  1.1623 -3.6022 -1.4365
   57CHL1  H21B 6678   3.206   2.289   9.578 -1.0894  2.8027 -2.0048
   57CHL1  H21C 6679   3.359   2.200   9.498  1.1352  0.5494 -0.9968
   57CHL1   C22 6680   3.446   2.440   9.383  0.4100 -0.9944  0.5686
   57CHL1  H22A 6681   3.500   2.537   9.384 -1.9989  0.4037  1.0867
   57CHL1  H22B 6682   3.496   2.353   9.334 -0.6474  0.0987 -2.7439
   57CHL1   C23 6683   3.358   2.470   9.253  0.4623 -0.0887 -0.4119
   57CHL1  H23A 6684   3.316   2.373   9.217  2.9923 -2.1996  1.8811
   57CHL1  H23B 6685   3.269   2.534   9.274 -1.7490 -1.7501 -3.8119
   57CHL1   C24 6686   3.431   2.533   9.134 -0.1214 -0.1501  0.9781
   57CHL1  H24A 6687   3.470   2.635   9.153  0.7287 -0.2264 -0.2168
   57CHL1  H24B 6688   3.521   2.473   9.106 -0.9959 -1.2487  0.4284
   57CHL1   C25 6689   3.335   2.550   9.006 -0.7221  0.0996 -0.8215
   57CHL1   H25 6690   3.246   2.601   9.048  1.7259  1.4152  3.3190
   57CHL1   C26 6691   3.406   2.629   8.900  0.6325  0.9081  0.4310
   57CHL1  H26A 6692   3.344   2.624   8.809 -0.8727 -2.0649  1.4776
   57CHL1  H26B 6693   3.409   2.736   8.927 -0.6785  1.1689 -0.3800
   57CHL1  H26C 6694   3.509   2.588   8.891  0.1892  0.2957 -2.9516
   57CHL1   C27 6695   3.297   2.416   8.939 -0.2733 -0.0049  0.0566
   57CHL1  H27A 6696   3.385   2.373   8.887 -0.4899  1.1221 -1.2909
   57CHL1  H27B 6697   3.256   2.349   9.018 -0.0277  3.3982  3.3401
   57CHL1  H27C 6698   3.231   2.438   8.853 -0.3233  1.9932  0.5657
   58CHL1    C3 6699   0.885   1.240  10.035  0.3828  0.6828  0.0549
   58CHL1    H3 6700   0.862   1.138   9.997  1.5389  1.0242 -1.7092
   58CHL1    O3 6701   0.891   1.236  10.177 -0.2066 -0.3839  0.6344
   58CHL1   H3' 6702   0.809   1.191  10.196 -1.9611  2.0131 -0.7006
   58CHL1    C4 6703   1.026   1.273   9.977  0.5106  0.4534 -0.0526
   58CHL1   H4A 6704   1.062   1.365  10.029  0.4414 -0.5178  1.8024
   58CHL1   H4B 6705   1.092   1.192  10.014  0.5203  1.0370  1.2571
   58CHL1    C5 6706   1.015   1.283   9.830 -0.2226 -0.5690  0.3271
   58CHL1    C6 6707   1.095   1.207   9.754  0.4490 -0.4651  0.1861
   58CHL1    H6 6708   1.162   1.137   9.806  0.3703 -0.2049  0.6379
   58CHL1    C7 6709   1.084   1.192   9.600  0.7739  0.1580  0.3315
   58CHL1   H7A 6710   1.185   1.172   9.557 -0.0494 -2.3690 -0.5781
   58CHL1   H7B 6711   1.017   1.105   9.583 -0.8473  1.6765 -1.5537
   58CHL1    C8 6712   1.019   1.309   9.536  0.1609  0.5476 -0.7187
   58CHL1    H8 6713   1.086   1.397   9.548  0.6938 -0.0362  0.7004
   58CHL1   C14 6714   0.987   1.281   9.389  0.6304 -0.0082  0.3087
   58CHL1   H14 6715   0.910   1.201   9.384  1.3585 -0.8177  1.4480
   58CHL1   C15 6716   1.107   1.232   9.304  0.0774  0.2446  0.6796
   58CHL1  H15A 6717   1.205   1.280   9.323  1.6666 -2.6000  0.1935
   58CHL1  H15B 6718   1.126   1.124   9.323 -1.0511 -0.0041  0.4905
   58CHL1   C16 6719   1.062   1.263   9.155  0.3019  0.1908 -0.4082
   58CHL1  H16A 6720   1.142   1.328   9.112  0.5353  1.8533  2.3118
   58CHL1  H16B 6721   1.042   1.171   9.097 -1.7151  0.4093 -0.1234
   58CHL1   C17 6722   0.927   1.343   9.164  0.0802 -0.4822 -0.6433
   58CHL1   H17 6723   0.844   1.269   9.164  0.2889 -0.7480  0.8034
   58CHL1   C13 6724   0.929   1.400   9.312  0.1277  0.3095  0.2242
   58CHL1   C18 6725   1.024   1.520   9.316  0.5865  0.3656 -0.6189
   58CHL1  H18A 6726   1.123   1.508   9.268 -0.6051 -0.2728 -3.0798
   58CHL1  H18B 6727   0.967   1.605   9.274  1.3295  1.8554  1.2376
   58CHL1  H18C 6728   1.044   1.533   9.425  0.2114 -1.5758 -0.2750
   58CHL1   C12 6729   0.795   1.429   9.385  0.0594  0.0473  0.0623
   58CHL1  H12A 6730   0.744   1.506   9.322 -0.4080 -1.6769 -1.7582
   58CHL1  H12B 6731   0.733   1.340   9.364 -0.7256  1.0652 -2.3522
   58CHL1   C11 6732   0.804   1.449   9.536  0.2224  0.1515  0.3308
   58CHL1  H11A 6733   0.858   1.546   9.545 -1.7109  1.2211  0.9410
   58CHL1  H11B 6734   0.706   1.456   9.587  0.6892 -1.9569  1.6563
   58CHL1    C9 6735   0.888   1.344   9.612 -0.2546 -0.6484  0.0974
   58CHL1    H9 6736   0.839   1.246   9.596 -0.8617 -0.1836 -0.9671
   58CHL1   C10 6737   0.899   1.364   9.766 -0.3155  0.4671  0.7984
   58CHL1   C19 6738   0.930   1.513   9.793 -0.0982 -0.0487  0.1612
   58CHL1  H19A 6739   0.950   1.546   9.898  1.1459  1.1865 -0.4305
   58CHL1  H19B 6740   1.013   1.562   9.739 -1.4544  2.4274  0.1619
   58CHL1  H19C 6741   0.841   1.568   9.754 -2.0173 -0.0204  4.0504
   58CHL1    C1 6742   0.759   1.333   9.837  0.5413 -0.5116  0.0858
   58CHL1   H1A 6743   0.679   1.405   9.809  1.0370 -0.4135 -1.1375
   58CHL1   H1B 6744   0.732   1.232   9.798 -0.0949 -0.2626 -0.1350
   58CHL1    C2 6745   0.776   1.337   9.993 -0.0231 -0.8013  0.6468
   58CHL1   H2A 6746   0.677   1.319  10.040 -1.2000 -0.1513 -1.4211
   58CHL1   H2B 6747   0.815   1.436  10.027 -0.2273 -0.3629 -0.3483
   58CHL1   C20 6748   0.897   1.446   9.049 -0.3167  0.7025 -0.1835
   58CHL1   H20 6749   0.957   1.539   9.052 -0.5181  0.8216  0.2447
   58CHL1   C21 6750   0.745   1.484   9.050 -0.0230 -0.3118 -0.4373
   58CHL1  H21A 6751   0.724   1.557   8.970  0.8221 -1.8849 -2.1714
   58CHL1  H21B 6752   0.708   1.514   9.151 -2.1949  1.3205 -1.6363
   58CHL1  H21C 6753   0.693   1.390   9.023 -1.1693  0.6144 -1.5605
   58CHL1   C22 6754   0.940   1.385   8.910 -0.4555  0.6413 -0.0512
   58CHL1  H22A 6755   1.046   1.351   8.915 -0.1553  1.6295  3.8995
   58CHL1  H22B 6756   0.891   1.288   8.885  1.9183 -0.3459 -1.1812
   58CHL1   C23 6757   0.928   1.486   8.801  0.3492  0.1305 -0.4320
   58CHL1  H23A 6758   0.821   1.515   8.799  0.1847 -0.4036  0.4174
   58CHL1  H23B 6759   0.992   1.574   8.823  2.9123 -1.8982  0.7825
   58CHL1   C24 6760   0.969   1.422   8.664 -0.0729 -0.0769 -0.3881
   58CHL1  H24A 6761   1.050   1.346   8.676 -0.4934 -0.2322  1.9945
   58CHL1  H24B 6762   0.878   1.380   8.617 -1.6582  2.5730  0.1281
   58CHL1   C25 6763   0.998   1.537   8.567  0.2726  0.1776 -0.2161
   58CHL1   H25 6764   1.057   1.617   8.616 -0.5552  0.4204  0.4030
   58CHL1   C26 6765   1.082   1.479   8.453 -0.0967 -0.0049  0.3311
   58CHL1  H26A 6766   1.031   1.390   8.410 -1.8503  1.4023 -0.6475
   58CHL1  H26B 6767   1.104   1.561   8.381  0.5367  0.7838  1.3903
   58CHL1  H26C 6768   1.183   1.452   8.492  0.4832 -1.4117 -1.9504
   58CHL1   C27 6769   0.861   1.584   8.513 -0.6144 -0.3530  0.7803
   58CHL1  H27A 6770   0.806   1.647   8.586  0.6383  2.8575 -0.8479
   58CHL1  H27B 6771   0.878   1.653   8.428 -0.0441 -0.2488  0.9796
   58CHL1  H27C 6772   0.796   1.502   8.475  0.8341 -1.2265  0.1098
   59CHL1    C3 6773   2.783   0.557  10.169 -0.4230 -0.2688  0.5470
   59CHL1    H3 6774   2.730   0.465  10.135  0.3073 -0.6848  0.5035
   59CHL1    O3 6775   2.781   0.550  10.310  0.0535  0.6911 -0.0553
   59CHL1   H3' 6776   2.819   0.632  10.342 -1.3258  1.6636 -0.7919
   59CHL1    C4 6777   2.935   0.549  10.117  0.4381  0.2626 -0.1018
   59CHL1   H4A 6778   2.987   0.634  10.165 -0.4969  0.8619 -0.1218
   59CHL1   H4B 6779   2.975   0.458  10.166  1.0079  0.6149  0.0931
   59CHL1    C5 6780   2.923   0.554   9.965 -0.2683 -0.6443 -0.0390
   59CHL1    C6 6781   2.960   0.453   9.878 -0.0311 -0.4702 -0.4944
   59CHL1    H6 6782   3.004   0.364   9.926  0.9907  1.2051  1.8873
   59CHL1    C7 6783   2.945   0.451   9.728  0.0548 -0.0239 -0.2347
   59CHL1   H7A 6784   3.033   0.401   9.681  0.7824  1.1336 -0.1326
   59CHL1   H7B 6785   2.851   0.400   9.698  0.1972 -1.1242  1.0822
   59CHL1    C8 6786   2.933   0.600   9.681 -0.3161  0.3286 -0.2998
   59CHL1    H8 6787   3.034   0.646   9.688 -0.1858  0.0245 -0.2082
   59CHL1   C14 6788   2.899   0.593   9.534 -0.1760  0.2486  0.4630
   59CHL1   H14 6789   2.801   0.541   9.538  0.2265 -0.4952  0.9516
   59CHL1   C15 6790   2.994   0.517   9.438 -0.9118  0.1473 -0.3011
   59CHL1  H15A 6791   3.101   0.540   9.454 -0.9202 -0.3327  0.4953
   59CHL1  H15B 6792   2.989   0.408   9.457 -1.2762  0.3028  0.5392
   59CHL1   C16 6793   2.949   0.555   9.299 -0.7569  0.4766  0.2635
   59CHL1  H16A 6794   3.029   0.597   9.234 -1.0705 -1.2629 -1.3291
   59CHL1  H16B 6795   2.893   0.484   9.234 -1.6745  0.3170  1.2037
   59CHL1   C17 6796   2.841   0.674   9.321  0.5726  0.3507 -0.5858
   59CHL1   H17 6797   2.742   0.625   9.339  0.8033  1.1891  4.4626
   59CHL1   C13 6798   2.873   0.727   9.468 -0.2160 -0.4168  0.1005
   59CHL1   C18 6799   3.001   0.818   9.468 -0.4982  0.1878  0.1205
   59CHL1  H18A 6800   2.974   0.914   9.418 -3.3603 -1.2204 -1.3034
   59CHL1  H18B 6801   3.041   0.832   9.570  1.0833  2.4701 -0.7340
   59CHL1  H18C 6802   3.089   0.775   9.415 -0.7080 -0.8609  0.5858
   59CHL1   C12 6803   2.753   0.799   9.543 -0.0698  0.5428 -0.4558
   59CHL1  H12A 6804   2.743   0.907   9.516  0.0429  1.0322  1.3603
   59CHL1  H12B 6805   2.655   0.747   9.529  0.4146 -0.9700  1.4721
   59CHL1   C11 6806   2.789   0.803   9.692 -0.1518 -0.2039 -0.4212
   59CHL1  H11A 6807   2.861   0.887   9.709 -1.7519  1.4562 -1.5362
   59CHL1  H11B 6808   2.703   0.843   9.750  1.1560 -0.1167  1.5754
   59CHL1    C9 6809   2.826   0.670   9.754 -0.0153 -0.2194  0.3777
   59CHL1    H9 6810   2.731   0.614   9.749  0.5075 -1.4213  2.4250
   59CHL1   C10 6811   2.864   0.685   9.906  0.2874  0.4738  0.2684
   59CHL1   C19 6812   2.967   0.795   9.934 -0.0213  0.3267 -0.4925
   59CHL1  H19A 6813   3.008   0.786  10.036 -4.8669  2.5274  1.9905
   59CHL1  H19B 6814   3.043   0.803   9.853 -0.0114  0.1607 -0.4997
   59CHL1  H19C 6815   2.920   0.896   9.929 -1.3300 -0.1297  1.4170
   59CHL1    C1 6816   2.725   0.718   9.976 -0.1076  0.4380  1.1624
   59CHL1   H1A 6817   2.702   0.825   9.957  1.2546  0.5853  0.1895
   59CHL1   H1B 6818   2.642   0.658   9.932  0.0818  0.6894  0.4432
   59CHL1    C2 6819   2.723   0.690  10.123  1.0202  0.2421 -0.2991
   59CHL1   H2A 6820   2.616   0.701  10.150  0.4542 -0.5629 -2.0827
   59CHL1   H2B 6821   2.788   0.767  10.170 -0.1610  0.9552  0.2010
   59CHL1   C20 6822   2.826   0.768   9.210  0.1717 -0.6793  0.3958
   59CHL1   H20 6823   2.913   0.836   9.203 -1.2014  1.2865  1.5090
   59CHL1   C21 6824   2.713   0.856   9.238 -0.0603 -0.1681  0.1929
   59CHL1  H21A 6825   2.619   0.800   9.255 -0.9423  1.3742  0.6173
   59CHL1  H21B 6826   2.694   0.923   9.151  0.8691  0.5250  0.5106
   59CHL1  H21C 6827   2.719   0.928   9.322  4.5714  1.6890 -1.4101
   59CHL1   C22 6828   2.791   0.696   9.073 -0.3553  0.1564 -0.8313
   59CHL1  H22A 6829   2.874   0.626   9.045  0.1897  1.1126 -1.6515
   59CHL1  H22B 6830   2.710   0.622   9.092  0.8869 -0.7539  1.2947
   59CHL1   C23 6831   2.779   0.791   8.956 -0.3981  0.4514 -1.1719
   59CHL1  H23A 6832   2.681   0.838   8.979 -0.6192 -1.1646  1.6409
   59CHL1  H23B 6833   2.863   0.862   8.941  1.4269 -1.4355 -0.2782
   59CHL1   C24 6834   2.767   0.709   8.825  0.0461 -0.3037 -0.4520
   59CHL1  H24A 6835   2.862   0.662   8.792 -0.1249 -1.0985  0.1643
   59CHL1  H24B 6836   2.694   0.627   8.838 -0.9995  0.6041 -0.4088
   59CHL1   C25 6837   2.702   0.791   8.707  0.1867 -0.5584  0.0953
   59CHL1   H25 6838   2.610   0.841   8.745  1.3992  0.9685  1.1644
   59CHL1   C26 6839   2.793   0.898   8.654 -0.3962  0.0851 -0.7253
   59CHL1  H26A 6840   2.818   0.978   8.727 -2.0669  1.8728 -1.9997
   59CHL1  H26B 6841   2.879   0.848   8.604 -0.6392 -2.2785  1.0497
   59CHL1  H26C 6842   2.738   0.953   8.575  2.0045  1.1588 -1.7549
   59CHL1   C27 6843   2.665   0.703   8.593  0.4515  0.0761  0.4775
   59CHL1  H27A 6844   2.750   0.641   8.557  0.4558 -0.9410  2.1376
   59CHL1  H27B 6845   2.578   0.639   8.620 -1.3646  1.6295 -1.3382
   59CHL1  H27C 6846   2.629   0.764   8.507  2.1957 -1.3142 -1.3404
   60CHL1    C3 6847   4.287   4.294  10.188 -0.6973  0.7172 -0.3738
   60CHL1    H3 6848   4.200   4.363  10.199 -1.0646  0.0543  1.2022
   60CHL1    O3 6849   4.290   4.215  10.308 -0.3910  0.3504 -0.2556
   60CHL1   H3' 6850   4.371   4.244  10.349  0.6383 -0.5762 -1.5421
   60CHL1    C4 6851   4.267   4.198  10.084  0.1142 -0.0696  0.7282
   60CHL1   H4A 6852   4.352   4.126  10.088  0.2737 -0.0657 -1.4562
   60CHL1   H4B 6853   4.177   4.135  10.101  0.5055 -1.4274 -1.7281
   60CHL1    C5 6854   4.269   4.252   9.938 -0.9696  0.0750 -0.0578
   60CHL1    C6 6855   4.165   4.230   9.856  0.7757  0.4732 -0.5875
   60CHL1    H6 6856   4.079   4.174   9.896  0.0076  2.5291  0.8192
   60CHL1    C7 6857   4.157   4.299   9.725  0.6448  0.4308  0.0332
   60CHL1   H7A 6858   4.108   4.230   9.653 -0.9179 -2.3563  3.4600
   60CHL1   H7B 6859   4.077   4.376   9.727 -1.0532 -1.0778 -2.6513
   60CHL1    C8 6860   4.286   4.360   9.678 -0.0359  0.6346  0.3074
   60CHL1    H8 6861   4.353   4.279   9.645  0.4603  1.4868 -0.8585
   60CHL1   C14 6862   4.261   4.464   9.569  0.1698 -0.4669 -0.3042
   60CHL1   H14 6863   4.206   4.543   9.624 -2.4073 -2.0351 -0.4357
   60CHL1   C15 6864   4.164   4.437   9.441 -0.0077  0.3414 -0.3484
   60CHL1  H15A 6865   4.194   4.337   9.403 -0.7602  0.3873 -1.0746
   60CHL1  H15B 6866   4.056   4.440   9.464 -0.5547 -2.3944 -2.1828
   60CHL1   C16 6867   4.218   4.536   9.332  0.2221  0.0833 -0.4542
   60CHL1  H16A 6868   4.251   4.476   9.245 -0.5191 -1.4149  0.2568
   60CHL1  H16B 6869   4.134   4.597   9.291 -0.2883 -0.0074  0.4257
   60CHL1   C17 6870   4.345   4.609   9.390  0.0699  0.4021 -0.1262
   60CHL1   H17 6871   4.299   4.700   9.434 -0.0505 -0.3977  1.4797
   60CHL1   C13 6872   4.392   4.521   9.511  0.0100  0.1382 -1.1783
   60CHL1   C18 6873   4.483   4.407   9.450  0.0280  0.1156  0.2832
   60CHL1  H18A 6874   4.582   4.446   9.419 -0.0874  2.2627  2.3448
   60CHL1  H18B 6875   4.508   4.325   9.520 -1.3816 -1.1100 -0.5732
   60CHL1  H18C 6876   4.428   4.371   9.360 -0.4084  0.7552  0.2836
   60CHL1   C12 6877   4.474   4.591   9.622  0.5997 -0.1692  0.4895
   60CHL1  H12A 6878   4.568   4.615   9.569 -0.1619 -0.0179 -0.8287
   60CHL1  H12B 6879   4.421   4.682   9.661  0.2000 -0.8344  1.5447
   60CHL1   C11 6880   4.489   4.499   9.738  0.1778  0.2489 -0.4525
   60CHL1  H11A 6881   4.552   4.413   9.707  0.1075  0.0032  0.0778
   60CHL1  H11B 6882   4.532   4.554   9.824  0.0436 -0.0654 -0.1811
   60CHL1    C9 6883   4.356   4.430   9.789  0.9501 -0.6198 -0.3238
   60CHL1    H9 6884   4.294   4.517   9.818  0.2033 -0.3942 -2.4691
   60CHL1   C10 6885   4.385   4.344   9.908  0.3342 -0.8347 -0.6354
   60CHL1   C19 6886   4.500   4.251   9.894  0.4723  0.0732 -0.0858
   60CHL1  H19A 6887   4.487   4.173   9.815  2.1725 -0.6307  0.2917
   60CHL1  H19B 6888   4.595   4.304   9.869  0.3536  0.3209 -0.0153
   60CHL1  H19C 6889   4.536   4.217   9.993 -0.4726 -0.4144  0.1004
   60CHL1    C1 6890   4.420   4.436  10.029  0.2352  0.2934 -0.0617
   60CHL1   H1A 6891   4.523   4.474  10.012 -0.2888  3.1932  2.2667
   60CHL1   H1B 6892   4.346   4.519  10.028 -2.1800 -1.7317  0.3832
   60CHL1    C2 6893   4.416   4.375  10.166  0.1305  0.3264  0.2815
   60CHL1   H2A 6894   4.422   4.455  10.243  0.2708  0.5981 -0.0081
   60CHL1   H2B 6895   4.504   4.311  10.186  0.5974  1.3419  1.7402
   60CHL1   C20 6896   4.457   4.646   9.288  0.3148 -0.4551  0.6280
   60CHL1   H20 6897   4.554   4.627   9.338  2.5080  1.6788 -2.4587
   60CHL1   C21 6898   4.444   4.799   9.271  0.1588 -0.7593 -0.8462
   60CHL1  H21A 6899   4.534   4.838   9.218  0.6315 -0.7128 -0.0254
   60CHL1  H21B 6900   4.458   4.843   9.372  0.2699 -0.2297 -1.0863
   60CHL1  H21C 6901   4.348   4.830   9.223  0.4984 -0.3988 -1.3092
   60CHL1   C22 6902   4.460   4.586   9.154 -0.0535 -0.4128  0.7292
   60CHL1  H22A 6903   4.444   4.477   9.165  0.0804 -0.6359 -1.0656
   60CHL1  H22B 6904   4.375   4.632   9.100  0.8714  0.0730 -0.3478
   60CHL1   C23 6905   4.591   4.608   9.070  0.3480  0.3445 -0.7003
   60CHL1  H23A 6906   4.615   4.714   9.093  0.6793 -0.2511  2.0561
   60CHL1  H23B 6907   4.677   4.544   9.097 -0.4446 -0.5588 -0.2605
   60CHL1   C24 6908   4.556   4.582   8.927  0.1718 -0.1031 -0.5393
   60CHL1  H24A 6909   4.509   4.482   8.917  1.0092 -0.6594  0.8043
   60CHL1  H24B 6910   4.481   4.660   8.899  0.3273  0.5538  0.7737
   60CHL1   C25 6911   4.672   4.587   8.828 -0.3228  0.4410  0.1603
   60CHL1   H25 6912   4.761   4.546   8.879 -0.2230  0.3007 -0.1223
   60CHL1   C26 6913   4.647   4.498   8.706 -0.1657  0.0489  0.0326
   60CHL1  H26A 6914   4.733   4.506   8.636  0.2012 -1.5242  0.2492
   60CHL1  H26B 6915   4.649   4.390   8.732 -0.6985 -0.2492 -1.0982
   60CHL1  H26C 6916   4.547   4.515   8.660 -0.6034  1.6263  1.4851
   60CHL1   C27 6917   4.700   4.726   8.782  0.6541 -0.4904  0.1146
   60CHL1  H27A 6918   4.607   4.781   8.757  0.8744 -0.6112 -1.0293
   60CHL1  H27B 6919   4.767   4.784   8.849  0.9378  1.0650 -1.4508
   60CHL1  H27C 6920   4.751   4.718   8.683  0.2044 -0.9164 -0.0867
   61CHL1    C3 6921   1.037   0.361  10.443 -0.6729  0.7464 -0.0382
   61CHL1    H3 6922   0.961   0.280  10.434 -1.5570  1.2385  2.1914
   61CHL1    O3 6923   1.034   0.406  10.578 -0.3541  0.1743  0.2287
   61CHL1   H3' 6924   1.127   0.399  10.601  0.0859 -2.1405 -1.9421
   61CHL1    C4 6925   1.176   0.293  10.404 -0.5471 -0.5909  0.3155
   61CHL1   H4A 6926   1.244   0.377  10.430 -0.3298 -0.3743 -0.9144
   61CHL1   H4B 6927   1.190   0.209  10.476 -1.8513  0.9458  2.4908
   61CHL1    C5 6928   1.205   0.262  10.262  0.8577 -0.2177 -0.6060
   61CHL1    C6 6929   1.244   0.138  10.226 -0.0602 -0.3273 -0.3062
   61CHL1    H6 6930   1.269   0.067  10.306  0.7763 -0.1827 -0.4296
   61CHL1    C7 6931   1.268   0.096  10.087  0.1504  0.4222  0.6558
   61CHL1   H7A 6932   1.363   0.039  10.084  1.6888  2.8037  1.3893
   61CHL1   H7B 6933   1.174   0.041  10.062  0.3232 -0.0693  1.0816
   61CHL1    C8 6934   1.274   0.218   9.995  0.0250  0.0944  0.2175
   61CHL1    H8 6935   1.374   0.262  10.013 -1.4466  3.5099  0.8739
   61CHL1   C14 6936   1.275   0.178   9.846  0.7674 -0.2404  0.1777
   61CHL1   H14 6937   1.177   0.128   9.833  0.0944  0.9064  0.6797
   61CHL1   C15 6938   1.386   0.078   9.807 -0.1601  0.0485 -0.8583
   61CHL1  H15A 6939   1.476   0.100   9.868 -0.9995  1.5585 -0.0791
   61CHL1  H15B 6940   1.362  -0.029   9.823  0.6678  0.0546  0.6156
   61CHL1   C16 6941   1.427   0.113   9.662 -0.0301  0.2353 -0.0829
   61CHL1  H16A 6942   1.529   0.157   9.658 -0.5783  1.5316 -0.1351
   61CHL1  H16B 6943   1.413   0.023   9.599 -0.3145  0.5666 -0.4980
   61CHL1   C17 6944   1.317   0.218   9.623 -0.0925  0.3270 -0.2401
   61CHL1   H17 6945   1.226   0.160   9.596  0.5504 -1.7278  1.6971
   61CHL1   C13 6946   1.285   0.295   9.745 -0.0791 -0.3090 -0.0288
   61CHL1   C18 6947   1.402   0.386   9.774  0.1486 -0.1360 -0.0829
   61CHL1  H18A 6948   1.393   0.426   9.877 -0.6308 -0.1964 -0.1199
   61CHL1  H18B 6949   1.502   0.336   9.775  0.6355  0.7935 -1.1139
   61CHL1  H18C 6950   1.415   0.476   9.711  0.2744  1.1479  1.7063
   61CHL1   C12 6951   1.149   0.374   9.760 -0.0257 -0.5290 -0.2811
   61CHL1  H12A 6952   1.153   0.465   9.696  1.8067  0.7760  1.5521
   61CHL1  H12B 6953   1.071   0.305   9.721  1.3146 -2.5397  0.4621
   61CHL1   C11 6954   1.138   0.423   9.903  0.3756 -0.5472  1.4176
   61CHL1  H11A 6955   1.207   0.510   9.908  0.1998 -0.3727  0.8954
   61CHL1  H11B 6956   1.036   0.468   9.905 -1.1560 -3.7231  0.5844
   61CHL1    C9 6957   1.152   0.313  10.012 -0.5144  0.0672 -0.1623
   61CHL1    H9 6958   1.064   0.247  10.006  0.7005 -1.5105 -1.2156
   61CHL1   C10 6959   1.162   0.368  10.159  0.0959  0.2207  0.0310
   61CHL1   C19 6960   1.256   0.482  10.163  0.2962  0.4053 -0.4262
   61CHL1  H19A 6961   1.263   0.527  10.264  2.4905 -3.6040  1.4871
   61CHL1  H19B 6962   1.358   0.450  10.131 -0.0750  0.6818 -1.9364
   61CHL1  H19C 6963   1.223   0.563  10.095  0.8997  0.7285 -0.3396
   61CHL1    C1 6964   1.017   0.419  10.210 -0.2264  0.0062  0.0493
   61CHL1   H1A 6965   0.981   0.503  10.147 -1.4019  0.8066  1.7241
   61CHL1   H1B 6966   0.941   0.338  10.195  0.7301 -1.1493  1.1887
   61CHL1    C2 6967   1.008   0.476  10.351  0.0102 -0.7409 -0.0977
   61CHL1   H2A 6968   0.912   0.532  10.362  2.1072  2.9933  0.8707
   61CHL1   H2B 6969   1.083   0.556  10.370 -0.3023 -0.4419 -0.1148
   61CHL1   C20 6970   1.362   0.293   9.497  0.7283 -0.0695 -0.8685
   61CHL1   H20 6971   1.417   0.387   9.518 -0.5566  0.0570  2.4727
   61CHL1   C21 6972   1.224   0.335   9.435 -0.5622  0.4027  0.4918
   61CHL1  H21A 6973   1.257   0.398   9.349  0.3992 -0.9034 -0.1397
   61CHL1  H21B 6974   1.146   0.390   9.491  0.2838 -0.5817  2.7688
   61CHL1  H21C 6975   1.172   0.247   9.392  0.3105  0.7290 -1.3359
   61CHL1   C22 6976   1.438   0.203   9.399  0.0726  0.0226  0.3678
   61CHL1  H22A 6977   1.543   0.180   9.426  0.3734  0.6228 -0.2556
   61CHL1  H22B 6978   1.383   0.107   9.400  1.4366 -0.8031  1.9106
   61CHL1   C23 6979   1.454   0.260   9.254  0.5654 -0.1175 -0.3546
   61CHL1  H23A 6980   1.368   0.248   9.184  0.0617 -1.4354  0.4437
   61CHL1  H23B 6981   1.482   0.367   9.246  2.0030 -0.4805 -0.4197
   61CHL1   C24 6982   1.560   0.173   9.184 -0.2137 -0.1964  0.0772
   61CHL1  H24A 6983   1.653   0.161   9.243 -1.0969 -1.0882  1.3608
   61CHL1  H24B 6984   1.508   0.077   9.166 -3.6203  1.6033 -0.6176
   61CHL1   C25 6985   1.595   0.212   9.034 -0.1635 -0.4558 -0.3759
   61CHL1   H25 6986   1.664   0.134   8.993 -1.3045 -2.7562  1.8159
   61CHL1   C26 6987   1.473   0.226   8.946 -0.0093 -0.1231  0.5596
   61CHL1  H26A 6988   1.395   0.292   8.990 -1.3877  0.2922 -2.3152
   61CHL1  H26B 6989   1.493   0.284   8.854  1.4043 -1.3953  0.0145
   61CHL1  H26C 6990   1.421   0.130   8.928  2.0822 -1.2845  0.3352
   61CHL1   C27 6991   1.664   0.351   9.035  0.1080  0.5016  0.4259
   61CHL1  H27A 6992   1.591   0.431   9.061  0.2360  1.6050 -2.2817
   61CHL1  H27B 6993   1.743   0.365   9.111 -1.4440  2.1964  1.8109
   61CHL1  H27C 6994   1.701   0.381   8.934  1.8913 -1.7739  0.3219
   62CHL1    C3 6995   1.941   3.667  10.176  0.4005  0.3716 -0.2423
   62CHL1    H3 6996   1.889   3.590  10.116  0.1073 -0.0196  0.4973
   62CHL1    O3 6997   1.969   3.613  10.305  0.1412  0.8546 -0.5007
   62CHL1   H3' 6998   1.902   3.648  10.364 -0.8290 -2.5786  0.6552
   62CHL1    C4 6999   2.063   3.711  10.102  0.4966  0.1359  0.2280
   62CHL1   H4A 7000   2.127   3.780  10.160  3.3183 -1.4503 -0.7951
   62CHL1   H4B 7001   2.126   3.624  10.074 -0.3550 -0.1018 -1.0809
   62CHL1    C5 7002   2.026   3.780   9.965  0.5896  0.2470  0.1486
   62CHL1    C6 7003   2.062   3.732   9.848 -0.5227 -0.2880  0.0512
   62CHL1    H6 7004   2.132   3.648   9.843  0.7623  0.7668 -0.5214
   62CHL1    C7 7005   2.039   3.794   9.715  0.9755 -0.2839 -0.0863
   62CHL1   H7A 7006   2.142   3.788   9.673  0.6592  1.5669 -1.2062
   62CHL1   H7B 7007   1.969   3.725   9.663  1.0157 -0.0948 -0.3949
   62CHL1    C8 7008   1.979   3.937   9.725  0.1206 -0.6627  0.2942
   62CHL1    H8 7009   2.069   4.000   9.743 -1.2669  1.7623 -0.7599
   62CHL1   C14 7010   1.911   3.973   9.594 -0.9668  0.7729  0.5259
   62CHL1   H14 7011   1.825   3.906   9.575 -1.5774  0.6460  3.3896
   62CHL1   C15 7012   1.994   3.967   9.466 -0.5565 -0.1544 -0.9210
   62CHL1  H15A 7013   2.095   4.005   9.491 -0.7730  0.0899 -0.3778
   62CHL1  H15B 7014   2.015   3.864   9.432 -2.6423 -0.4097 -1.6205
   62CHL1   C16 7015   1.923   4.046   9.353 -0.2255  0.0289  0.0739
   62CHL1  H16A 7016   1.994   4.117   9.305  3.3392 -2.2824  1.5327
   62CHL1  H16B 7017   1.868   3.983   9.280 -2.7474  1.6470  0.4586
   62CHL1   C17 7018   1.807   4.120   9.433 -0.7166  0.8808 -1.0593
   62CHL1   H17 7019   1.720   4.053   9.420  1.2170 -2.0552  0.2545
   62CHL1   C13 7020   1.849   4.106   9.585  0.2774 -0.0000 -0.0960
   62CHL1   C18 7021   1.960   4.217   9.611 -0.4162  0.6278  0.3609
   62CHL1  H18A 7022   2.034   4.213   9.529  0.9154  0.2302  1.5357
   62CHL1  H18B 7023   1.913   4.318   9.608 -0.1024  0.7744  0.2943
   62CHL1  H18C 7024   2.009   4.198   9.709 -0.0845  1.0600  0.2812
   62CHL1   C12 7025   1.737   4.107   9.695 -0.1084 -0.3772  0.0543
   62CHL1  H12A 7026   1.702   4.212   9.699  0.0934 -0.2745 -0.8483
   62CHL1  H12B 7027   1.659   4.032   9.669 -1.2379  0.4520  0.8986
   62CHL1   C11 7028   1.798   4.068   9.837 -0.7104 -0.3938 -0.7586
   62CHL1  H11A 7029   1.856   4.156   9.873 -1.7074 -1.2485  3.4743
   62CHL1  H11B 7030   1.711   4.058   9.905  0.2519 -0.4526  0.5080
   62CHL1    C9 7031   1.876   3.941   9.834 -0.8088 -0.2053 -0.2534
   62CHL1    H9 7032   1.809   3.852   9.824 -0.1144 -0.6946 -0.5843
   62CHL1   C10 7033   1.932   3.901   9.982 -0.7253  0.0864  0.3499
   62CHL1   C19 7034   2.009   4.033  10.034  0.0641  0.0320 -0.2696
   62CHL1  H19A 7035   1.938   4.113  10.065  1.7502  0.7448  1.9756
   62CHL1  H19B 7036   2.068   3.992  10.118 -1.0339 -1.2848 -0.1131
   62CHL1  H19C 7037   2.082   4.072   9.960 -0.7552 -0.0245 -1.1317
   62CHL1    C1 7038   1.817   3.858  10.074  0.5400 -0.0696 -0.9754
   62CHL1   H1A 7039   1.754   3.945  10.101 -1.0484 -1.3321 -0.4298
   62CHL1   H1B 7040   1.756   3.784  10.019  2.8508 -1.5004 -1.7718
   62CHL1    C2 7041   1.847   3.781  10.210 -0.5477 -0.0388  0.1430
   62CHL1   H2A 7042   1.750   3.763  10.262 -0.5080  2.6423  1.3444
   62CHL1   H2B 7043   1.916   3.849  10.265  2.1163 -0.6815 -2.2121
   62CHL1   C20 7044   1.754   4.251   9.366  0.5806  0.0890 -0.4917
   62CHL1   H20 7045   1.834   4.327   9.376  2.6323 -1.9595 -0.3039
   62CHL1   C21 7046   1.636   4.305   9.444  0.9190 -0.5522 -1.0254
   62CHL1  H21A 7047   1.548   4.238   9.446  1.2991 -1.0784  1.6476
   62CHL1  H21B 7048   1.601   4.401   9.400  0.7497  0.3675  1.0059
   62CHL1  H21C 7049   1.673   4.337   9.544 -1.0439 -2.0396  0.2523
   62CHL1   C22 7050   1.730   4.226   9.216 -0.2140 -0.0677 -0.5063
   62CHL1  H22A 7051   1.711   4.330   9.181 -1.4771  0.5612  1.7784
   62CHL1  H22B 7052   1.826   4.203   9.166 -0.2912 -0.1616 -0.6135
   62CHL1   C23 7053   1.611   4.136   9.183  0.4587 -1.0350 -0.7387
   62CHL1  H23A 7054   1.615   4.035   9.228 -0.4206 -0.4593  0.7228
   62CHL1  H23B 7055   1.516   4.189   9.205  1.2497  0.3531 -0.5601
   62CHL1   C24 7056   1.595   4.114   9.030  0.2207 -0.1014 -0.7854
   62CHL1  H24A 7057   1.694   4.088   8.987  0.6225 -0.0607  0.1048
   62CHL1  H24B 7058   1.539   4.018   9.024  1.5530 -0.9931  0.5268
   62CHL1   C25 7059   1.509   4.208   8.946  0.5054  0.7573 -0.3704
   62CHL1   H25 7060   1.412   4.220   9.000  1.7848  2.1765  1.7600
   62CHL1   C26 7061   1.569   4.345   8.920  0.1340 -0.8467  0.2526
   62CHL1  H26A 7062   1.668   4.339   8.869  0.0760  0.3794 -0.0316
   62CHL1  H26B 7063   1.492   4.415   8.882 -0.3204 -0.6567  1.4681
   62CHL1  H26C 7064   1.605   4.387   9.017 -1.3167  2.1366 -0.3851
   62CHL1   C27 7065   1.470   4.140   8.814 -0.9904 -0.6523 -0.1763
   62CHL1  H27A 7066   1.563   4.134   8.754 -1.3419  0.4857 -0.8518
   62CHL1  H27B 7067   1.445   4.035   8.843 -0.9716 -0.2635  1.3051
   62CHL1  H27C 7068   1.384   4.186   8.761 -0.2980  0.3780 -0.4396
   63CHL1    C3 7069   2.644   4.352  10.481  0.5062 -0.2243  0.8104
   63CHL1    H3 7070   2.564   4.419  10.441  0.2347 -2.0357 -1.8978
   63CHL1    O3 7071   2.604   4.326  10.616  0.1486  0.1742 -0.2348
   63CHL1   H3' 7072   2.681   4.281  10.649 -0.4472 -3.4241 -3.1430
   63CHL1    C4 7073   2.655   4.221  10.393  0.1648  0.0138  0.8480
   63CHL1   H4A 7074   2.721   4.153  10.451  3.0053  0.0317 -2.0554
   63CHL1   H4B 7075   2.550   4.185  10.391 -0.2478  1.1964  0.1981
   63CHL1    C5 7076   2.698   4.250  10.249  0.3480 -0.0681  0.2569
   63CHL1    C6 7077   2.639   4.200  10.139  0.6050  0.5302 -0.1662
   63CHL1    H6 7078   2.543   4.148  10.147  0.5972  0.5775  0.0336
   63CHL1    C7 7079   2.693   4.214  10.002 -0.3109  0.4825 -0.0509
   63CHL1   H7A 7080   2.718   4.113   9.962  0.6057  0.6596  0.0408
   63CHL1   H7B 7081   2.613   4.259   9.940  1.0049 -0.2393 -2.4386
   63CHL1    C8 7082   2.835   4.283   9.996 -0.4806 -0.4024 -0.0696
   63CHL1    H8 7083   2.904   4.199  10.018 -0.5798 -0.6973 -0.8849
   63CHL1   C14 7084   2.863   4.340   9.861 -0.0227 -0.7561  0.0459
   63CHL1   H14 7085   2.803   4.433   9.848 -1.2127 -1.5197 -0.0932
   63CHL1   C15 7086   2.821   4.250   9.738 -0.2600  0.1560  0.4212
   63CHL1  H15A 7087   2.844   4.141   9.745  0.9590  0.4331  0.8665
   63CHL1  H15B 7088   2.711   4.261   9.730 -0.0642  1.7226 -0.3405
   63CHL1   C16 7089   2.894   4.315   9.619 -0.5255 -0.1865 -0.5735
   63CHL1  H16A 7090   2.964   4.239   9.580  2.2054 -0.8577  4.6877
   63CHL1  H16B 7091   2.824   4.351   9.541 -2.6854 -1.5603  0.6213
   63CHL1   C17 7092   2.985   4.428   9.683 -0.0095 -0.6098  0.1368
   63CHL1   H17 7093   2.936   4.527   9.686 -0.4682 -0.7810  4.3568
   63CHL1   C13 7094   3.000   4.393   9.834 -0.6084 -0.0313 -0.4273
   63CHL1   C18 7095   3.109   4.284   9.858  0.1713  0.3082  0.6248
   63CHL1  H18A 7096   3.116   4.257   9.965  0.1923 -1.1922  0.2628
   63CHL1  H18B 7097   3.069   4.194   9.805 -1.1269 -1.2322  3.9727
   63CHL1  H18C 7098   3.205   4.312   9.810  0.5019 -1.1201  0.4080
   63CHL1   C12 7099   3.021   4.509   9.942  0.2004  0.0967  0.1101
   63CHL1  H12A 7100   3.124   4.550   9.938  0.0353  0.5876  0.7978
   63CHL1  H12B 7101   2.945   4.581   9.908 -1.1666 -1.3448 -0.0110
   63CHL1   C11 7102   2.993   4.468  10.089  0.4845  0.8654  0.6731
   63CHL1  H11A 7103   3.077   4.412  10.135  0.2149 -0.0886  0.0288
   63CHL1  H11B 7104   2.985   4.565  10.143  1.9836  0.2311  2.1189
   63CHL1    C9 7105   2.847   4.390  10.102 -0.4084  0.3364  0.0478
   63CHL1    H9 7106   2.763   4.461  10.086 -0.3015  0.2552 -0.9470
   63CHL1   C10 7107   2.832   4.336  10.247  0.1670  0.1913 -0.9292
   63CHL1   C19 7108   2.952   4.233  10.288 -0.1510  0.4510  0.8692
   63CHL1  H19A 7109   2.956   4.221  10.398  2.0866 -1.3992  0.6734
   63CHL1  H19B 7110   2.935   4.135  10.238  0.0533 -0.7099  2.9724
   63CHL1  H19C 7111   3.055   4.271  10.269 -0.4819  0.8357 -0.2629
   63CHL1    C1 7112   2.827   4.458  10.344 -0.3783  1.0866  0.2699
   63CHL1   H1A 7113   2.936   4.481  10.348 -0.3046  0.6760  0.7058
   63CHL1   H1B 7114   2.765   4.535  10.294  0.3801  0.9446 -0.9126
   63CHL1    C2 7115   2.776   4.423  10.493 -0.9105 -0.0859  0.2275
   63CHL1   H2A 7116   2.773   4.516  10.554  1.0320  0.5748 -0.5965
   63CHL1   H2B 7117   2.851   4.351  10.532  2.6303  2.8258 -0.6408
   63CHL1   C20 7118   3.114   4.462   9.605 -0.2008  0.7826  0.4598
   63CHL1   H20 7119   3.183   4.375   9.604 -1.4914 -0.3246 -1.5587
   63CHL1   C21 7120   3.179   4.591   9.652  0.6043 -0.7279  0.5532
   63CHL1  H21A 7121   3.119   4.684   9.651  0.2091 -0.9793  0.7190
   63CHL1  H21B 7122   3.269   4.605   9.589 -0.3007  1.8165 -0.3097
   63CHL1  H21C 7123   3.223   4.576   9.752  1.8517  2.8640  0.6805
   63CHL1   C22 7124   3.085   4.473   9.455  0.2762 -0.0603  0.0129
   63CHL1  H22A 7125   3.064   4.375   9.407 -1.3898 -0.7997  2.1382
   63CHL1  H22B 7126   2.991   4.532   9.455  1.1756  1.5155 -1.7188
   63CHL1   C23 7127   3.194   4.539   9.364 -0.2695 -0.7827 -0.0998
   63CHL1  H23A 7128   3.197   4.648   9.386 -1.5487 -0.6279 -0.6311
   63CHL1  H23B 7129   3.290   4.491   9.392 -0.2707 -0.4541  0.4790
   63CHL1   C24 7130   3.166   4.533   9.209  0.9553  0.0898 -0.1811
   63CHL1  H24A 7131   3.191   4.431   9.174  0.3397 -0.6188  1.3940
   63CHL1  H24B 7132   3.058   4.556   9.195  1.1665  0.7372 -0.8289
   63CHL1   C25 7133   3.259   4.610   9.117  0.3738 -0.8979 -0.8048
   63CHL1   H25 7134   3.220   4.603   9.013 -1.1786  0.4772 -0.3660
   63CHL1   C26 7135   3.252   4.769   9.136  0.4868 -0.6448 -0.6323
   63CHL1  H26A 7136   3.315   4.815   9.058  0.2662 -1.4112 -1.2746
   63CHL1  H26B 7137   3.152   4.812   9.112  0.6045  0.9606  1.4244
   63CHL1  H26C 7138   3.282   4.805   9.237 -0.4841 -1.0476 -0.1875
   63CHL1   C27 7139   3.401   4.566   9.137 -0.1787  0.0013 -0.4858
   63CHL1  H27A 7140   3.403   4.455   9.130 -2.8549 -0.1003 -0.7604
   63CHL1  H27B 7141   3.473   4.622   9.073  0.3986 -1.6761 -1.3533
   63CHL1  H27C 7142   3.420   4.601   9.241  1.4677  1.8130 -1.3175
   64CHL1    C3 7143   0.005   5.435  10.114 -0.4624  0.1627  0.3764
   64CHL1    H3 7144  -0.067   5.351  10.129 -1.0154 -0.3870 -4.0836
   64CHL1    O3 7145   0.065   5.485  10.234 -0.2153 -0.0026  0.3216
   64CHL1   H3' 7146  -0.005   5.532  10.281 -1.0941 -0.0341 -0.9078
   64CHL1    C4 7147   0.113   5.374  10.017  0.7154 -0.2693 -0.9452
   64CHL1   H4A 7148   0.194   5.450  10.009 -0.0021  0.6759  0.4074
   64CHL1   H4B 7149   0.158   5.290  10.074 -0.8168 -0.4362  0.0710
   64CHL1    C5 7150   0.069   5.355   9.875 -0.3815  0.0621  0.5196
   64CHL1    C6 7151   0.094   5.241   9.813 -0.1234 -0.0422 -0.2821
   64CHL1    H6 7152   0.133   5.156   9.871  0.0249 -0.4982 -1.0242
   64CHL1    C7 7153   0.052   5.209   9.669 -0.3443  0.4465 -0.3125
   64CHL1   H7A 7154   0.141   5.156   9.628  0.5651  1.4673  0.2997
   64CHL1   H7B 7155  -0.029   5.132   9.672  0.7433 -0.8937 -2.4223
   64CHL1    C8 7156   0.025   5.336   9.593  0.4492  0.8487  0.1164
   64CHL1    H8 7157   0.122   5.388   9.578  1.4511 -0.8440  0.4695
   64CHL1   C14 7158  -0.031   5.304   9.455 -0.0638  0.2520  0.4100
   64CHL1   H14 7159  -0.128   5.254   9.475  0.0310  0.6606  2.0412
   64CHL1   C15 7160   0.053   5.217   9.364  0.3534 -0.2726  0.3295
   64CHL1  H15A 7161   0.163   5.233   9.371  0.3397  0.4886 -0.9024
   64CHL1  H15B 7162   0.028   5.114   9.397 -0.3171 -0.0415  0.5566
   64CHL1   C16 7163   0.009   5.262   9.221  0.6440  0.1613  0.0503
   64CHL1  H16A 7164   0.092   5.312   9.166  0.4013  2.0587  1.3137
   64CHL1  H16B 7165  -0.019   5.169   9.166  1.6288 -0.1581  0.0702
   64CHL1   C17 7166  -0.110   5.355   9.239  0.1001  0.3180  0.0624
   64CHL1   H17 7167  -0.197   5.292   9.268  0.8244  0.3274  2.4759
   64CHL1   C13 7168  -0.077   5.429   9.372 -0.3046  0.0248 -0.3043
   64CHL1   C18 7169   0.046   5.520   9.348 -0.1946  0.1560  0.0316
   64CHL1  H18A 7170   0.019   5.598   9.274  0.4591  0.4360  0.0770
   64CHL1  H18B 7171   0.079   5.557   9.447 -0.5629  2.3137 -0.6035
   64CHL1  H18C 7172   0.133   5.468   9.300 -0.2675  1.2314 -1.3249
   64CHL1   C12 7173  -0.180   5.510   9.450  0.1924  0.3936 -0.1204
   64CHL1  H12A 7174  -0.193   5.609   9.402 -0.2844  0.7474  0.7220
   64CHL1  H12B 7175  -0.276   5.456   9.462  0.6910 -0.3531  0.7069
   64CHL1   C11 7176  -0.134   5.544   9.595  0.2906  0.6601 -0.4984
   64CHL1  H11A 7177  -0.056   5.622   9.587  1.6796 -0.8509 -2.9929
   64CHL1  H11B 7178  -0.214   5.580   9.663  0.8973  0.1893  0.4819
   64CHL1    C9 7179  -0.074   5.426   9.672  0.2761 -0.0942 -0.7164
   64CHL1    H9 7180  -0.160   5.358   9.694 -0.7266  0.3991 -2.7880
   64CHL1   C10 7181  -0.006   5.470   9.808  0.2084  0.4655  0.2064
   64CHL1   C19 7182   0.099   5.579   9.773 -0.1545 -0.1605 -0.0192
   64CHL1  H19A 7183   0.053   5.674   9.739  1.2770  0.3187 -0.6571
   64CHL1  H19B 7184   0.164   5.604   9.860 -0.0498 -0.1115 -0.1117
   64CHL1  H19C 7185   0.170   5.547   9.694  1.2081 -1.1944  1.5387
   64CHL1    C1 7186  -0.120   5.522   9.909  0.5746  0.2679 -0.4128
   64CHL1   H1A 7187  -0.171   5.614   9.873  0.2305  0.0184 -0.5749
   64CHL1   H1B 7188  -0.199   5.445   9.926 -0.4707  1.4958  0.4801
   64CHL1    C2 7189  -0.072   5.553  10.053 -0.0729 -0.5270 -0.1572
   64CHL1   H2A 7190  -0.158   5.580  10.117 -0.0053  0.2290 -0.3727
   64CHL1   H2B 7191   0.002   5.636  10.046 -0.5895 -0.1291 -1.0201
   64CHL1   C20 7192  -0.130   5.433   9.109  0.2173  0.3563 -1.0735
   64CHL1   H20 7193  -0.048   5.508   9.109  3.1924 -2.4883  3.0767
   64CHL1   C21 7194  -0.273   5.501   9.104 -0.5361 -0.1721 -0.4026
   64CHL1  H21A 7195  -0.341   5.415   9.118  3.6185 -3.5479  1.5176
   64CHL1  H21B 7196  -0.296   5.535   9.001 -2.7556  2.5817  0.8749
   64CHL1  H21C 7197  -0.283   5.588   9.173 -1.8219 -0.4298 -0.2507
   64CHL1   C22 7198  -0.104   5.347   8.982  0.1141  0.1760  0.0231
   64CHL1  H22A 7199  -0.013   5.285   8.991 -1.3541 -2.1586 -0.5395
   64CHL1  H22B 7200  -0.185   5.271   8.986 -1.4206  1.7774  2.0053
   64CHL1   C23 7201  -0.102   5.417   8.841  0.1213  0.2644 -0.2844
   64CHL1  H23A 7202  -0.083   5.340   8.763  1.4601  0.3051 -0.0234
   64CHL1  H23B 7203  -0.200   5.460   8.813 -0.6894 -2.0408 -1.2027
   64CHL1   C24 7204  -0.001   5.531   8.813 -0.5831  0.7723  0.5861
   64CHL1  H24A 7205  -0.009   5.625   8.871  0.9777  1.0635  0.3782
   64CHL1  H24B 7206   0.103   5.494   8.822 -1.3083 -1.2251  1.3322
   64CHL1   C25 7207  -0.014   5.580   8.664 -0.7011  0.0848 -0.2189
   64CHL1   H25 7208  -0.001   5.496   8.592  2.9958  0.1004  0.2280
   64CHL1   C26 7209  -0.143   5.660   8.637 -0.2054 -0.1663 -0.2397
   64CHL1  H26A 7210  -0.235   5.597   8.633 -0.6419  0.4354  0.1770
   64CHL1  H26B 7211  -0.157   5.725   8.726 -0.7355 -0.4842 -0.0869
   64CHL1  H26C 7212  -0.135   5.725   8.548 -1.6312  1.0613  0.4717
   64CHL1   C27 7213   0.104   5.674   8.628  0.2636 -0.1598 -0.0980
   64CHL1  H27A 7214   0.090   5.722   8.529  0.5493  0.7649  0.2970
   64CHL1  H27B 7215   0.112   5.755   8.703  1.0189 -0.6491  0.3684
   64CHL1  H27C 7216   0.196   5.610   8.631  0.3513  0.0048  1.1011
   65CHL1    C3 7217   0.164   6.739  10.424 -0.0040  0.6239 -0.8580
   65CHL1    H3 7218   0.054   6.745  10.410 -0.5287 -2.5098  0.9263
   65CHL1    O3 7219   0.190   6.730  10.566 -0.4132 -0.1101  0.0568
   65CHL1   H3' 7220   0.286   6.735  10.567 -0.3181 -1.5608  1.2773
   65CHL1    C4 7221   0.218   6.614  10.348  0.6747 -0.0451  0.0575
   65CHL1   H4A 7222   0.321   6.606  10.389 -0.2801 -0.3508  2.5887
   65CHL1   H4B 7223   0.169   6.526  10.395  0.3351  0.1348  0.0454
   65CHL1    C5 7224   0.225   6.613  10.200  0.0397  0.4532  0.6428
   65CHL1    C6 7225   0.199   6.502  10.130 -0.1235 -0.1952 -0.0328
   65CHL1    H6 7226   0.162   6.414  10.184 -2.1160  0.2151 -0.6247
   65CHL1    C7 7227   0.201   6.496   9.979 -0.1655  0.1580 -0.5110
   65CHL1   H7A 7228   0.248   6.405   9.936 -3.5567 -1.3844 -1.2593
   65CHL1   H7B 7229   0.098   6.492   9.940 -0.0506  3.2457 -1.4224
   65CHL1    C8 7230   0.247   6.625   9.914  0.0641  0.1978  0.1804
   65CHL1    H8 7231   0.358   6.622   9.924  0.1173  1.6068  0.2122
   65CHL1   C14 7232   0.199   6.630   9.767 -0.1089 -0.4492 -0.7855
   65CHL1   H14 7233   0.088   6.638   9.774 -0.1105 -1.1449  0.1412
   65CHL1   C15 7234   0.220   6.507   9.675  0.2646  0.5245 -0.4390
   65CHL1  H15A 7235   0.321   6.464   9.686  0.1882  0.4511  0.0227
   65CHL1  H15B 7236   0.137   6.433   9.688 -0.7670  1.8274  0.7275
   65CHL1   C16 7237   0.219   6.565   9.528  0.1074  0.3285 -0.0818
   65CHL1  H16A 7238   0.319   6.557   9.481 -0.4141  2.1065 -1.6430
   65CHL1  H16B 7239   0.147   6.510   9.464  1.4086 -2.0330  0.4034
   65CHL1   C17 7240   0.189   6.720   9.545 -0.8314  1.0919 -0.0639
   65CHL1   H17 7241   0.079   6.730   9.546 -0.8945  0.4430  1.0254
   65CHL1   C13 7242   0.244   6.754   9.687  0.5472 -0.3286 -0.2464
   65CHL1   C18 7243   0.402   6.752   9.681  0.1826  0.0743 -0.2673
   65CHL1  H18A 7244   0.446   6.762   9.782 -0.8142  0.6430  0.1259
   65CHL1  H18B 7245   0.442   6.661   9.632 -3.3341 -1.0740 -1.2716
   65CHL1  H18C 7246   0.433   6.832   9.610 -0.9981 -0.3529 -1.3107
   65CHL1   C12 7247   0.192   6.879   9.762 -0.2723  0.6490  1.0190
   65CHL1  H12A 7248   0.227   6.974   9.716  1.7290  1.3435  3.7501
   65CHL1  H12B 7249   0.083   6.865   9.746 -0.5015  2.5951  0.5684
   65CHL1   C11 7250   0.237   6.883   9.910 -0.2112 -0.2381 -0.3328
   65CHL1  H11A 7251   0.346   6.904   9.918 -0.5401  1.2170  0.7911
   65CHL1  H11B 7252   0.181   6.970   9.950  0.2926 -0.4017  0.7653
   65CHL1    C9 7253   0.206   6.753   9.988 -0.0659 -0.7179  0.3997
   65CHL1    H9 7254   0.095   6.752   9.997 -0.3379  0.8550 -1.8196
   65CHL1   C10 7255   0.257   6.750  10.135 -0.3656  0.0836 -0.1342
   65CHL1   C19 7256   0.412   6.767  10.143  0.1228 -0.4506 -0.5304
   65CHL1  H19A 7257   0.442   6.758  10.250 -0.8859 -0.3866 -0.2343
   65CHL1  H19B 7258   0.468   6.684  10.095  0.0550  0.0238 -1.4625
   65CHL1  H19C 7259   0.435   6.869  10.107 -0.9188  1.0497  2.6821
   65CHL1    C1 7260   0.191   6.869  10.212 -0.8058  0.2079  0.7063
   65CHL1   H1A 7261   0.237   6.959  10.167  1.8617 -1.7667 -0.7717
   65CHL1   H1B 7262   0.086   6.861  10.177 -0.3362  0.9863 -0.9866
   65CHL1    C2 7263   0.215   6.869  10.367  0.0653 -0.4070  0.7674
   65CHL1   H2A 7264   0.162   6.955  10.413 -1.2431 -0.9434  0.3303
   65CHL1   H2B 7265   0.322   6.893  10.384 -0.3779  1.2663  1.3774
   65CHL1   C20 7266   0.247   6.792   9.429 -0.0111 -0.8755 -0.8645
   65CHL1   H20 7267   0.357   6.773   9.423  0.1924 -0.5840  1.1340
   65CHL1   C21 7268   0.206   6.942   9.448 -0.1043  0.4497  0.2693
   65CHL1  H21A 7269   0.281   7.004   9.501  1.1165  2.4549 -3.4281
   65CHL1  H21B 7270   0.101   6.953   9.483 -0.1279  0.3019  0.2472
   65CHL1  H21C 7271   0.217   6.988   9.347  1.6130  0.6092  0.5037
   65CHL1   C22 7272   0.202   6.732   9.294 -0.3201 -0.6343 -0.8318
   65CHL1  H22A 7273   0.237   6.627   9.288  1.4367 -0.2001  0.6882
   65CHL1  H22B 7274   0.092   6.732   9.284 -0.3056  0.0545 -1.0610
   65CHL1   C23 7275   0.259   6.793   9.168  0.8574  0.3745  0.1891
   65CHL1  H23A 7276   0.209   6.882   9.125  0.5456 -0.4953 -1.3015
   65CHL1  H23B 7277   0.363   6.828   9.186  1.4925 -0.6203 -1.3543
   65CHL1   C24 7278   0.245   6.683   9.058 -0.2296  0.0746  0.7008
   65CHL1  H24A 7279   0.310   6.599   9.090 -0.0561 -0.5266 -1.1090
   65CHL1  H24B 7280   0.145   6.643   9.031 -0.4269  1.1489 -0.2496
   65CHL1   C25 7281   0.319   6.722   8.926  0.2547 -0.2020  0.9031
   65CHL1   H25 7282   0.269   6.811   8.883 -1.0627 -0.4340  1.8919
   65CHL1   C26 7283   0.471   6.755   8.937 -0.1216 -0.6104  0.2214
   65CHL1  H26A 7284   0.502   6.823   9.019  0.6746  1.2262 -1.5040
   65CHL1  H26B 7285   0.535   6.665   8.927 -0.7161 -1.1442  1.1326
   65CHL1  H26C 7286   0.502   6.806   8.843  2.1164 -0.7677  0.8086
   65CHL1   C27 7287   0.291   6.610   8.815 -0.4681 -0.2930  0.1226
   65CHL1  H27A 7288   0.367   6.633   8.737  0.1095 -1.5218  0.3022
   65CHL1  H27B 7289   0.321   6.512   8.855 -2.8037 -1.7534 -1.4513
   65CHL1  H27C 7290   0.189   6.613   8.770  0.3243  3.4569 -1.8705
   66CHL1    C3 7291   4.716   1.321  10.618 -0.2106  0.6293 -0.4720
   66CHL1    H3 7292   4.822   1.353  10.607  0.2969 -1.0440 -0.7548
   66CHL1    O3 7293   4.710   1.247  10.740 -0.0648 -0.6101 -0.1899
   66CHL1   H3' 7294   4.617   1.223  10.744 -0.4419  0.8040  0.0946
   66CHL1    C4 7295   4.616   1.429  10.616  0.0317  0.5519  0.0487
   66CHL1   H4A 7296   4.518   1.383  10.641 -0.1146  1.1753  0.6291
   66CHL1   H4B 7297   4.654   1.495  10.696 -2.0027  0.2299  1.3361
   66CHL1    C5 7298   4.614   1.495  10.471  0.3373 -0.5649  0.7134
   66CHL1    C6 7299   4.627   1.627  10.456 -0.0221  0.0329  0.1042
   66CHL1    H6 7300   4.611   1.685  10.548 -1.0292  1.0410 -0.6828
   66CHL1    C7 7301   4.625   1.696  10.324  0.1828 -0.4554  0.3605
   66CHL1   H7A 7302   4.563   1.788  10.334  1.8495  0.7530  0.0634
   66CHL1   H7B 7303   4.729   1.730  10.307  0.3537 -0.3760  1.4941
   66CHL1    C8 7304   4.572   1.614  10.201 -0.2012 -1.0489 -0.1354
   66CHL1    H8 7305   4.461   1.611  10.207 -0.2493 -0.9947 -0.8338
   66CHL1   C14 7306   4.623   1.670  10.069  0.1965 -0.1420  0.3054
   66CHL1   H14 7307   4.732   1.678  10.091  0.0305 -1.1177  1.6068
   66CHL1   C15 7308   4.593   1.816  10.029 -0.5209 -0.0408  0.1319
   66CHL1  H15A 7309   4.483   1.822  10.045 -0.6795 -2.7207  0.5100
   66CHL1  H15B 7310   4.641   1.890  10.097  0.3271  1.8446 -2.3953
   66CHL1   C16 7311   4.635   1.829   9.885  0.4872 -0.1747 -0.0325
   66CHL1  H16A 7312   4.557   1.872   9.818 -1.9426 -1.0528  2.0857
   66CHL1  H16B 7313   4.736   1.877   9.880  0.4359  0.2738  2.0712
   66CHL1   C17 7314   4.653   1.685   9.840 -0.2317 -0.5457  0.6551
   66CHL1   H17 7315   4.763   1.674   9.836 -0.3610 -1.8131  0.1228
   66CHL1   C13 7316   4.600   1.593   9.944  0.2472  0.5151  0.2370
   66CHL1   C18 7317   4.446   1.584   9.924 -0.0968  0.1813  0.8301
   66CHL1  H18A 7318   4.393   1.547  10.015 -0.3620  0.6163  0.8548
   66CHL1  H18B 7319   4.393   1.678   9.898 -0.6236 -0.0192  1.1386
   66CHL1  H18C 7320   4.407   1.523   9.840 -2.3535  2.6655 -0.0410
   66CHL1   C12 7321   4.667   1.453   9.960 -0.6016  0.0406 -0.0315
   66CHL1  H12A 7322   4.632   1.382   9.882  0.3429 -0.8264  0.2925
   66CHL1  H12B 7323   4.778   1.463   9.971 -0.7064 -0.2013  1.4169
   66CHL1   C11 7324   4.614   1.389  10.086  0.4098  0.2780 -0.1987
   66CHL1  H11A 7325   4.505   1.371  10.071  0.5156  1.4445 -3.0521
   66CHL1  H11B 7326   4.643   1.283  10.097 -0.1183 -0.0822 -1.9516
   66CHL1    C9 7327   4.631   1.473  10.217  0.1971 -0.1926  0.2125
   66CHL1    H9 7328   4.739   1.498  10.226  0.4782 -1.0049 -0.6901
   66CHL1   C10 7329   4.606   1.401  10.354 -0.5690 -0.3164  0.4920
   66CHL1   C19 7330   4.458   1.355  10.347 -0.4297  0.1832 -0.4100
   66CHL1  H19A 7331   4.392   1.442  10.328  0.7520  1.4579  1.0597
   66CHL1  H19B 7332   4.432   1.274  10.276 -2.6503  1.6340 -1.3719
   66CHL1  H19C 7333   4.425   1.303  10.439 -1.1547 -1.5178 -1.5753
   66CHL1    C1 7334   4.706   1.289  10.369  0.1460  0.1624 -0.6481
   66CHL1   H1A 7335   4.674   1.216  10.292 -1.2952  1.5124 -1.3855
   66CHL1   H1B 7336   4.808   1.331  10.359 -0.3870  1.7429  0.1616
   66CHL1    C2 7337   4.696   1.221  10.509 -0.1746 -0.2774  0.3130
   66CHL1   H2A 7338   4.775   1.143  10.516  1.0081  1.0061  2.1933
   66CHL1   H2B 7339   4.595   1.180  10.530  0.7985 -2.5161  0.8728
   66CHL1   C20 7340   4.607   1.664   9.691 -0.1892 -0.3233 -0.4820
   66CHL1   H20 7341   4.498   1.683   9.684 -0.2392  0.1827  1.2456
   66CHL1   C21 7342   4.631   1.523   9.639  0.0085  0.0734  0.1281
   66CHL1  H21A 7343   4.586   1.507   9.539  0.5543 -3.0629  0.2661
   66CHL1  H21B 7344   4.581   1.446   9.702 -1.9312  0.0784 -1.3064
   66CHL1  H21C 7345   4.740   1.501   9.644  0.3485  1.7024  0.5901
   66CHL1   C22 7346   4.680   1.763   9.596  0.1335 -0.0820 -0.2415
   66CHL1  H22A 7347   4.633   1.864   9.606 -0.6005 -0.3731 -0.6659
   66CHL1  H22B 7348   4.787   1.757   9.623 -0.3862 -2.3907  1.6566
   66CHL1   C23 7349   4.671   1.729   9.444 -0.2203 -0.0259 -0.4556
   66CHL1  H23A 7350   4.717   1.635   9.409 -0.0920  0.6148 -2.1353
   66CHL1  H23B 7351   4.569   1.710   9.406  0.8064  0.1467 -3.5917
   66CHL1   C24 7352   4.717   1.852   9.361  0.2662  0.4697 -0.1055
   66CHL1  H24A 7353   4.654   1.940   9.383 -0.2791 -0.0682  0.5410
   66CHL1  H24B 7354   4.824   1.867   9.387  0.9518 -3.6126  0.1844
   66CHL1   C25 7355   4.713   1.835   9.213 -0.6966 -0.0062 -0.2807
   66CHL1   H25 7356   4.611   1.826   9.170 -0.2565 -2.0802 -1.0357
   66CHL1   C26 7357   4.780   1.960   9.149 -0.0109 -0.8475 -0.0527
   66CHL1  H26A 7358   4.728   2.052   9.183 -1.5413 -1.3450 -0.9546
   66CHL1  H26B 7359   4.888   1.974   9.172 -0.1995  0.0444  0.3187
   66CHL1  H26C 7360   4.764   1.962   9.039 -0.4355  0.1794  0.0125
   66CHL1   C27 7361   4.791   1.709   9.171 -0.1405  0.5890 -0.1045
   66CHL1  H27A 7362   4.753   1.613   9.211  0.9666 -0.1800 -0.8383
   66CHL1  H27B 7363   4.790   1.705   9.060  1.0627 -4.6146 -0.1879
   66CHL1  H27C 7364   4.895   1.709   9.210 -0.7479  0.7302  1.5834
   67CHL1    C3 7365   5.216   6.024  10.521 -0.3046 -0.5698 -0.4148
   67CHL1    H3 7366   5.124   5.981  10.475  1.6509 -1.8884 -3.4006
   67CHL1    O3 7367   5.206   5.990  10.659  0.0188 -0.0920 -0.4926
   67CHL1   H3' 7368   5.226   6.069  10.709  3.4317 -2.2933  2.0857
   67CHL1    C4 7369   5.338   5.960  10.466 -0.2456  0.4211  0.3413
   67CHL1   H4A 7370   5.422   5.987  10.533  0.1538 -1.8704  0.8482
   67CHL1   H4B 7371   5.327   5.850  10.469 -1.6115  0.5532  1.1900
   67CHL1    C5 7372   5.369   6.008  10.326 -0.0957 -0.1827 -0.6496
   67CHL1    C6 7373   5.379   5.919  10.227  0.3971  0.1909  0.6180
   67CHL1    H6 7374   5.356   5.813  10.247  0.4963 -0.0543 -0.5012
   67CHL1    C7 7375   5.418   5.956  10.088  0.5565 -0.1903  0.7943
   67CHL1   H7A 7376   5.501   5.887  10.061  0.1645  0.0060 -1.0311
   67CHL1   H7B 7377   5.334   5.932  10.020  0.5136 -1.0217  1.1345
   67CHL1    C8 7378   5.465   6.094  10.074 -0.1233 -0.6424 -0.2104
   67CHL1    H8 7379   5.574   6.101  10.097 -0.0587 -0.7773 -0.4726
   67CHL1   C14 7380   5.450   6.133   9.922  1.0438  0.0267 -0.3291
   67CHL1   H14 7381   5.341   6.120   9.910  0.9485 -0.3658  0.7736
   67CHL1   C15 7382   5.513   6.040   9.817 -0.2148  0.7707  0.2793
   67CHL1  H15A 7383   5.619   6.012   9.830 -0.3647 -1.5845 -2.4260
   67CHL1  H15B 7384   5.468   5.939   9.804  2.5764 -0.4822 -0.4537
   67CHL1   C16 7385   5.508   6.125   9.691  0.3189  0.0944 -0.2912
   67CHL1  H16A 7386   5.613   6.135   9.655  0.9483 -3.1546  0.3710
   67CHL1  H16B 7387   5.453   6.083   9.604  0.0651  1.6479 -0.9220
   67CHL1   C17 7388   5.455   6.265   9.732 -0.0816  0.4686  0.0997
   67CHL1   H17 7389   5.345   6.258   9.717 -0.3291  0.1195  1.8885
   67CHL1   C13 7390   5.484   6.276   9.885 -0.9818  0.5497  0.2114
   67CHL1   C18 7391   5.632   6.304   9.909 -0.2976  0.2470 -0.1960
   67CHL1  H18A 7392   5.668   6.403   9.873 -0.3211  1.5058  2.9230
   67CHL1  H18B 7393   5.662   6.303  10.016 -2.0679 -1.0203  0.3349
   67CHL1  H18C 7394   5.702   6.236   9.856 -0.5107  1.0355 -1.5298
   67CHL1   C12 7395   5.394   6.373   9.963 -0.3194 -0.4831 -0.1054
   67CHL1  H12A 7396   5.414   6.478   9.932 -0.4254 -0.8197 -1.3695
   67CHL1  H12B 7397   5.288   6.351   9.941 -0.5378 -2.1020  2.2194
   67CHL1   C11 7398   5.415   6.341  10.117  0.6179  0.7636 -0.0753
   67CHL1  H11A 7399   5.517   6.361  10.156  0.5951  0.3576  0.1958
   67CHL1  H11B 7400   5.351   6.417  10.166 -4.0037 -1.4904 -2.0859
   67CHL1    C9 7401   5.378   6.197  10.148 -0.5145  0.3530 -0.7765
   67CHL1    H9 7402   5.277   6.163  10.117 -1.7416 -0.8385  3.7288
   67CHL1   C10 7403   5.371   6.161  10.305 -0.4391 -0.2589  0.8995
   67CHL1   C19 7404   5.496   6.226  10.370 -0.3380  0.0401 -0.0982
   67CHL1  H19A 7405   5.503   6.337  10.364  0.1989  0.0644  0.8362
   67CHL1  H19B 7406   5.500   6.204  10.479 -2.6842  0.2551  0.0851
   67CHL1  H19C 7407   5.585   6.188  10.314 -1.6859  1.1472 -3.2295
   67CHL1    C1 7408   5.243   6.216  10.369 -0.6426 -0.8263  0.0058
   67CHL1   H1A 7409   5.254   6.326  10.382  0.6283 -0.9209 -0.1506
   67CHL1   H1B 7410   5.153   6.209  10.304 -1.5523  0.0063  1.1360
   67CHL1    C2 7411   5.213   6.174  10.516 -0.0380 -0.6310 -0.7874
   67CHL1   H2A 7412   5.120   6.215  10.561 -0.2758 -0.8314 -1.0946
   67CHL1   H2B 7413   5.298   6.203  10.582  0.3375 -2.0301 -0.6231
   67CHL1   C20 7414   5.500   6.376   9.636 -1.3448  0.1373 -0.1125
   67CHL1   H20 7415   5.610   6.375   9.652 -1.5321  0.1991  1.3008
   67CHL1   C21 7416   5.438   6.510   9.671 -0.0690  0.2047  0.0672
   67CHL1  H21A 7417   5.486   6.559   9.757 -0.1893 -0.9784  0.8282
   67CHL1  H21B 7418   5.328   6.503   9.687  0.0959 -1.6968  0.6148
   67CHL1  H21C 7419   5.452   6.576   9.582  1.5843 -1.0116 -0.6376
   67CHL1   C22 7420   5.483   6.352   9.483 -0.2379 -0.5957 -0.0582
   67CHL1  H22A 7421   5.493   6.244   9.460  3.2990 -0.0293 -1.9399
   67CHL1  H22B 7422   5.387   6.404   9.461  0.7152  2.3003  2.0542
   67CHL1   C23 7423   5.601   6.420   9.411 -0.0792  0.7035  0.1898
   67CHL1  H23A 7424   5.637   6.519   9.445  0.2291 -0.0514  2.2301
   67CHL1  H23B 7425   5.690   6.354   9.427 -0.9112 -1.1234 -2.0792
   67CHL1   C24 7426   5.584   6.428   9.262 -0.2802 -0.0623 -0.5282
   67CHL1  H24A 7427   5.530   6.523   9.241 -0.9448 -0.1703  0.6546
   67CHL1  H24B 7428   5.678   6.445   9.204  0.3898 -0.9126  0.2906
   67CHL1   C25 7429   5.512   6.313   9.187 -0.3846 -0.0920 -0.2455
   67CHL1   H25 7430   5.427   6.283   9.253  1.8389 -4.4321  0.9952
   67CHL1   C26 7431   5.440   6.353   9.057 -0.2783  0.2927 -0.0402
   67CHL1  H26A 7432   5.513   6.379   8.977 -0.0614  2.5050  0.8062
   67CHL1  H26B 7433   5.365   6.274   9.035 -0.7218  0.3621  1.1730
   67CHL1  H26C 7434   5.376   6.441   9.075  1.0412  1.1580  0.5624
   67CHL1   C27 7435   5.613   6.198   9.165  0.0358  0.2219  0.2403
   67CHL1  H27A 7436   5.685   6.239   9.092 -0.4345  0.7759  0.0784
   67CHL1  H27B 7437   5.658   6.168   9.262  0.0371  3.1541  1.2438
   67CHL1  H27C 7438   5.555   6.113   9.123  1.1435 -0.6096  0.3454
   68CHL1    C3 7439   3.431   5.255  10.256  0.0237 -0.4030  1.0238
   68CHL1    H3 7440   3.370   5.170  10.219 -1.0646  0.2892  1.1633
   68CHL1    O3 7441   3.410   5.267  10.396 -0.3408 -0.0554  0.3368
   68CHL1   H3' 7442   3.484   5.313  10.435  0.8563 -1.3250 -0.3485
   68CHL1    C4 7443   3.583   5.239  10.212 -0.0513 -0.3989 -0.0408
   68CHL1   H4A 7444   3.646   5.315  10.263  0.2252 -1.0882  0.6773
   68CHL1   H4B 7445   3.618   5.143  10.256  0.2377  0.0583  0.7487
   68CHL1    C5 7446   3.609   5.248  10.065 -0.0684  0.1382  0.0123
   68CHL1    C6 7447   3.671   5.148   9.996 -0.1349  0.0240 -0.1250
   68CHL1    H6 7448   3.711   5.061  10.049 -0.3297 -0.0828 -0.1541
   68CHL1    C7 7449   3.699   5.174   9.851  0.5680 -0.2432 -0.4683
   68CHL1   H7A 7450   3.806   5.145   9.837  0.6085 -1.4049  1.6802
   68CHL1   H7B 7451   3.636   5.107   9.789 -0.7990  0.5804 -0.0031
   68CHL1    C8 7452   3.679   5.317   9.793 -0.5342 -0.2329 -0.5299
   68CHL1    H8 7453   3.765   5.383   9.817  0.0212  0.1663 -3.2890
   68CHL1   C14 7454   3.666   5.303   9.644  0.1229  0.0454 -0.1504
   68CHL1   H14 7455   3.571   5.248   9.629 -2.0121  2.6306  2.8553
   68CHL1   C15 7456   3.772   5.228   9.568 -0.0482 -0.1968  1.0724
   68CHL1  H15A 7457   3.867   5.234   9.626 -0.7674 -2.3325  2.6103
   68CHL1  H15B 7458   3.751   5.119   9.562  1.8023 -0.4923 -2.0215
   68CHL1   C16 7459   3.765   5.287   9.425 -0.0905 -0.0470 -0.1566
   68CHL1  H16A 7460   3.861   5.319   9.379 -0.3536  1.1267  0.0748
   68CHL1  H16B 7461   3.725   5.202   9.366 -0.5884  0.2605 -0.2706
   68CHL1   C17 7462   3.666   5.402   9.429 -0.3388 -0.6358  0.1777
   68CHL1   H17 7463   3.558   5.376   9.419 -0.0630 -1.6249 -0.3544
   68CHL1   C13 7464   3.669   5.440   9.580 -0.0081  0.0882  0.6079
   68CHL1   C18 7465   3.798   5.525   9.617 -0.3683  0.5589 -0.0878
   68CHL1  H18A 7466   3.800   5.615   9.552  0.6724  0.6649  0.0816
   68CHL1  H18B 7467   3.791   5.574   9.717  0.2317 -2.0866  1.3625
   68CHL1  H18C 7468   3.888   5.462   9.631 -1.3394 -0.8894 -0.0617
   68CHL1   C12 7469   3.538   5.507   9.632 -0.1185 -0.7128  0.0170
   68CHL1  H12A 7470   3.547   5.613   9.600  1.7022 -0.1418  2.2005
   68CHL1  H12B 7471   3.452   5.449   9.591 -0.0970 -0.3523 -0.5466
   68CHL1   C11 7472   3.531   5.522   9.782  0.5154 -0.1001 -0.7567
   68CHL1  H11A 7473   3.611   5.592   9.814 -0.9046 -1.0453  6.6905
   68CHL1  H11B 7474   3.428   5.556   9.808  1.2941  0.6358  1.5374
   68CHL1    C9 7475   3.552   5.376   9.854  0.2764  0.0583 -0.1871
   68CHL1    H9 7476   3.465   5.313   9.828 -0.3940 -0.2827  2.5029
   68CHL1   C10 7477   3.552   5.375  10.008  0.1780  0.1965 -0.4964
   68CHL1   C19 7478   3.632   5.498  10.052  0.3767 -0.4525 -0.2815
   68CHL1  H19A 7479   3.584   5.588  10.008 -1.6855  0.0615  2.7477
   68CHL1  H19B 7480   3.636   5.501  10.163 -1.0365  0.7995 -0.2385
   68CHL1  H19C 7481   3.734   5.495  10.008  0.6552  2.5888 -0.0483
   68CHL1    C1 7482   3.406   5.388  10.051  0.8276 -0.7963 -0.3420
   68CHL1   H1A 7483   3.366   5.481  10.005  2.2230 -0.3575 -0.7216
   68CHL1   H1B 7484   3.355   5.299  10.009 -2.2331  0.5286  0.3440
   68CHL1    C2 7485   3.371   5.386  10.203  0.0620 -0.4916 -0.1620
   68CHL1   H2A 7486   3.260   5.390  10.204  0.0535 -0.3339 -1.0347
   68CHL1   H2B 7487   3.414   5.477  10.249 -0.0215  0.3074 -1.6071
   68CHL1   C20 7488   3.687   5.515   9.319 -0.5362 -0.6716 -0.3309
   68CHL1   H20 7489   3.646   5.606   9.367  0.5679  0.3809 -1.3178
   68CHL1   C21 7490   3.591   5.475   9.203  0.3005 -0.5396  0.2524
   68CHL1  H21A 7491   3.486   5.472   9.240  0.4157 -1.5499  0.5233
   68CHL1  H21B 7492   3.624   5.372   9.178  0.4375 -1.0301  2.2594
   68CHL1  H21C 7493   3.598   5.547   9.119  1.7447  0.5208  1.2251
   68CHL1   C22 7494   3.829   5.556   9.278 -0.6195 -0.3217  0.6541
   68CHL1  H22A 7495   3.910   5.559   9.353  0.7544  0.4638 -0.7923
   68CHL1  H22B 7496   3.865   5.485   9.200 -1.2468 -0.5907  0.6000
   68CHL1   C23 7497   3.820   5.698   9.223  0.6412  0.8802  0.3731
   68CHL1  H23A 7498   3.741   5.705   9.145  1.2554  0.0172 -0.3486
   68CHL1  H23B 7499   3.790   5.775   9.297  0.4560  0.0607  1.1866
   68CHL1   C24 7500   3.953   5.725   9.165  0.4939  0.1986 -0.1111
   68CHL1  H24A 7501   4.005   5.764   9.255 -1.2027 -2.2628  2.0933
   68CHL1  H24B 7502   3.990   5.625   9.131 -0.3221  0.5329 -2.1248
   68CHL1   C25 7503   3.953   5.826   9.056 -0.6385  0.3486 -0.0366
   68CHL1   H25 7504   3.919   5.925   9.095  0.7538  1.5064 -1.6178
   68CHL1   C26 7505   4.099   5.852   9.011 -0.5253 -0.1526  0.1396
   68CHL1  H26A 7506   4.160   5.872   9.102 -1.5191  1.5627  0.4764
   68CHL1  H26B 7507   4.148   5.772   8.952  2.5538  0.1565  2.0636
   68CHL1  H26C 7508   4.099   5.950   8.960  0.4755  0.5850  1.5116
   68CHL1   C27 7509   3.874   5.786   8.920 -0.5818  0.0088  0.4734
   68CHL1  H27A 7510   3.933   5.705   8.872 -0.7883  0.2225 -0.1543
   68CHL1  H27B 7511   3.775   5.739   8.936 -0.0556 -1.9880 -1.5775
   68CHL1  H27C 7512   3.856   5.872   8.852  1.1206 -0.3835 -0.5377
   69CHL1    C3 7513   4.493   4.836   6.785  0.0067 -0.4601  0.2985
   69CHL1    H3 7514   4.528   4.730   6.783  1.3381 -0.0276 -1.4602
   69CHL1    O3 7515   4.502   4.879   6.652  0.2706  0.3788 -0.2311
   69CHL1   H3' 7516   4.445   4.956   6.651  0.7653  0.7485 -1.0852
   69CHL1    C4 7517   4.338   4.838   6.832  0.1093 -0.3401 -0.0698
   69CHL1   H4A 7518   4.280   4.932   6.824 -0.8712 -0.7252  1.8670
   69CHL1   H4B 7519   4.279   4.768   6.768 -0.5028  0.4633 -0.4058
   69CHL1    C5 7520   4.319   4.801   6.979 -0.1171  0.0860  0.4578
   69CHL1    C6 7521   4.232   4.710   7.009 -0.5674  0.8352 -0.5074
   69CHL1    H6 7522   4.165   4.679   6.927 -0.9286  2.6645 -0.9429
   69CHL1    C7 7523   4.207   4.677   7.151 -0.2249  0.6425 -0.3747
   69CHL1   H7A 7524   4.101   4.656   7.176  0.0874  0.7116  1.0662
   69CHL1   H7B 7525   4.265   4.588   7.180  1.2920  2.1177  1.3849
   69CHL1    C8 7526   4.258   4.788   7.252  0.3754 -0.0171  0.0535
   69CHL1    H8 7527   4.180   4.866   7.239 -0.7367 -1.0658  0.2088
   69CHL1   C14 7528   4.220   4.743   7.392  0.0537 -0.2937 -0.2266
   69CHL1   H14 7529   4.269   4.646   7.415  0.0893 -0.1942  0.1206
   69CHL1   C15 7530   4.072   4.713   7.436 -0.4981  0.4751 -0.3898
   69CHL1  H15A 7531   4.010   4.800   7.404  0.1928  0.8713 -0.6788
   69CHL1  H15B 7532   4.032   4.618   7.394  0.4453 -0.4296  0.6808
   69CHL1   C16 7533   4.079   4.711   7.590 -0.2610  0.3436  0.1497
   69CHL1  H16A 7534   4.006   4.778   7.640  0.9164  1.2124  0.7554
   69CHL1  H16B 7535   4.079   4.609   7.633 -1.2195  0.3570  0.2006
   69CHL1   C17 7536   4.219   4.776   7.627 -0.1035  0.1151 -0.1577
   69CHL1   H17 7537   4.286   4.689   7.643  0.4169  0.1954 -1.7272
   69CHL1   C13 7538   4.265   4.847   7.495 -0.3294  0.9678  0.5072
   69CHL1   C18 7539   4.195   4.981   7.494 -0.3896  0.1401  0.1582
   69CHL1  H18A 7540   4.248   5.051   7.562  1.1107  1.1903 -1.9625
   69CHL1  H18B 7541   4.201   5.021   7.390  0.0929 -2.5994 -0.9536
   69CHL1  H18C 7542   4.090   4.984   7.529  0.0964  0.5176  1.6635
   69CHL1   C12 7543   4.417   4.863   7.476 -0.2469  0.1337  0.2858
   69CHL1  H12A 7544   4.453   4.937   7.551  1.8267  1.9956 -2.3480
   69CHL1  H12B 7545   4.473   4.769   7.493 -2.5204 -1.1933  0.7625
   69CHL1   C11 7546   4.447   4.921   7.335 -0.2276  0.0960 -0.4049
   69CHL1  H11A 7547   4.405   5.023   7.330 -0.7574 -0.0279  0.9397
   69CHL1  H11B 7548   4.556   4.936   7.326 -0.4763  2.2853 -0.1090
   69CHL1    C9 7549   4.396   4.834   7.223  0.7817 -0.0616 -0.1267
   69CHL1    H9 7550   4.456   4.740   7.229 -2.9030 -2.7382 -1.6808
   69CHL1   C10 7551   4.401   4.889   7.078  0.0223  0.0634  0.3140
   69CHL1   C19 7552   4.345   5.034   7.070 -0.0051 -0.2064  0.0370
   69CHL1  H19A 7553   4.240   5.030   7.107 -0.1543 -0.9766 -0.4560
   69CHL1  H19B 7554   4.412   5.112   7.112  2.4277 -1.7374 -0.8152
   69CHL1  H19C 7555   4.343   5.072   6.966 -1.2829  3.3290  1.1921
   69CHL1    C1 7556   4.550   4.897   7.027 -0.7138  0.2734  0.4047
   69CHL1   H1A 7557   4.596   4.979   7.085  0.1090  1.9168 -2.3745
   69CHL1   H1B 7558   4.600   4.798   7.039 -0.3273  0.2849 -0.9051
   69CHL1    C2 7559   4.574   4.933   6.878  0.6143 -0.1681 -0.3858
   69CHL1   H2A 7560   4.681   4.939   6.847  1.0198 -0.3321  0.9535
   69CHL1   H2B 7561   4.534   5.036   6.867  3.4559  1.1530  0.6055
   69CHL1   C20 7562   4.221   4.849   7.763 -0.3215 -0.3080  0.6357
   69CHL1   H20 7563   4.171   4.948   7.768 -5.0772 -2.3752 -0.1382
   69CHL1   C21 7564   4.369   4.867   7.801 -0.1438 -0.5456 -0.3337
   69CHL1  H21A 7565   4.390   4.864   7.910 -0.0418 -3.0735 -0.3589
   69CHL1  H21B 7566   4.415   4.955   7.753 -1.5162 -0.3694 -1.3786
   69CHL1  H21C 7567   4.426   4.778   7.767 -0.6251 -1.3353  0.8552
   69CHL1   C22 7568   4.149   4.766   7.877  0.2236  0.3646  0.0546
   69CHL1  H22A 7569   4.050   4.724   7.848 -1.3588  1.3996  3.4357
   69CHL1  H22B 7570   4.222   4.686   7.900 -0.8555 -1.5662 -2.7322
   69CHL1   C23 7571   4.132   4.855   8.002  0.5366  0.3938  0.5359
   69CHL1  H23A 7572   4.228   4.902   8.032 -0.6779  1.8671  2.3155
   69CHL1  H23B 7573   4.058   4.933   7.975 -0.5181 -0.1506  1.7495
   69CHL1   C24 7574   4.059   4.782   8.114 -0.1904 -0.0526  0.4074
   69CHL1  H24A 7575   3.961   4.772   8.063  0.5186  1.8052 -1.4558
   69CHL1  H24B 7576   4.106   4.684   8.138 -2.3326 -0.8477  1.5922
   69CHL1   C25 7577   4.038   4.859   8.246  0.4252  0.0596  0.6021
   69CHL1   H25 7578   3.994   4.960   8.231 -0.0695 -0.3320 -0.7090
   69CHL1   C26 7579   3.930   4.777   8.329 -0.8281  0.0010  0.3915
   69CHL1  H26A 7580   3.889   4.841   8.409  0.1992  0.7839  0.2998
   69CHL1  H26B 7581   3.848   4.741   8.262  0.2927 -0.6520 -0.6846
   69CHL1  H26C 7582   3.972   4.681   8.366 -2.2602 -0.9985 -0.4328
   69CHL1   C27 7583   4.167   4.872   8.318  0.0973 -0.6289 -0.4196
   69CHL1  H27A 7584   4.205   4.770   8.343  0.4054 -0.2806  0.6113
   69CHL1  H27B 7585   4.240   4.935   8.264 -0.5307  2.4318  2.0118
   69CHL1  H27C 7586   4.153   4.924   8.415  0.4224 -2.4383  0.6605
   70CHL1    C3 7587   5.952   6.141   6.914  0.3207  0.3785 -0.7369
   70CHL1    H3 7588   6.027   6.212   6.955  1.1807 -0.9599  0.0759
   70CHL1    O3 7589   5.950   6.158   6.769 -0.0960  0.2553  0.0934
   70CHL1   H3' 7590   5.898   6.082   6.740 -0.1125 -0.1015  1.0215
   70CHL1    C4 7591   5.985   6.000   6.952 -1.1357 -0.1741  0.7132
   70CHL1   H4A 7592   5.920   5.929   6.898  0.5695 -2.4677  1.5164
   70CHL1   H4B 7593   6.090   5.979   6.922 -0.6582 -2.4020  3.5326
   70CHL1    C5 7594   5.969   5.965   7.097  0.1715 -0.9937  0.1548
   70CHL1    C6 7595   6.078   5.916   7.164 -0.5619 -0.3187  0.3567
   70CHL1    H6 7596   6.172   5.897   7.109 -0.2848 -0.3861  0.8457
   70CHL1    C7 7597   6.078   5.877   7.311 -0.1605 -0.0108 -1.1132
   70CHL1   H7A 7598   6.106   5.770   7.301 -1.1077 -0.4970  0.9528
   70CHL1   H7B 7599   6.154   5.933   7.369 -0.7226 -0.1285 -0.2380
   70CHL1    C8 7600   5.936   5.887   7.380 -0.2438 -0.0614  0.5404
   70CHL1    H8 7601   5.880   5.800   7.339  2.4625 -1.8391  0.3384
   70CHL1   C14 7602   5.945   5.874   7.534  0.1804  0.9340  0.2454
   70CHL1   H14 7603   5.995   5.971   7.555 -1.7604  2.4336 -1.6228
   70CHL1   C15 7604   6.026   5.752   7.581  0.4195 -0.0032  0.1494
   70CHL1  H15A 7605   5.993   5.657   7.534  0.5821 -0.9384  1.8326
   70CHL1  H15B 7606   6.133   5.763   7.554  0.8791 -0.8455  1.5403
   70CHL1   C16 7607   5.981   5.751   7.724 -0.0498  0.0394 -0.3780
   70CHL1  H16A 7608   5.959   5.647   7.759  3.3904 -0.9745 -0.8336
   70CHL1  H16B 7609   6.068   5.772   7.790 -0.4925 -0.4294  0.3769
   70CHL1   C17 7610   5.872   5.864   7.739 -0.0397  0.0325  0.1395
   70CHL1   H17 7611   5.935   5.949   7.771  1.5213 -0.9286 -0.2538
   70CHL1   C13 7612   5.812   5.886   7.601 -0.2319 -1.0145 -0.1131
   70CHL1   C18 7613   5.736   5.762   7.553  0.2442 -0.1805  0.1338
   70CHL1  H18A 7614   5.791   5.666   7.569 -1.0810 -0.9043  0.4851
   70CHL1  H18B 7615   5.646   5.758   7.617  0.7047  0.0446  0.8098
   70CHL1  H18C 7616   5.702   5.772   7.448 -1.4725  0.8266  0.7536
   70CHL1   C12 7617   5.739   6.021   7.562 -0.2787 -0.7505 -0.4019
   70CHL1  H12A 7618   5.635   6.035   7.598 -0.4123 -0.5103 -0.8719
   70CHL1  H12B 7619   5.808   6.089   7.615  1.8263 -3.5975  0.7895
   70CHL1   C11 7620   5.732   6.049   7.412 -0.3708  0.5763 -0.5825
   70CHL1  H11A 7621   5.657   5.977   7.373  1.6978 -2.6537  0.9764
   70CHL1  H11B 7622   5.708   6.156   7.394  1.2090  0.9891 -0.3474
   70CHL1    C9 7623   5.868   6.011   7.329 -0.3189 -0.1736  0.2092
   70CHL1    H9 7624   5.927   6.096   7.370 -2.5109  0.8883  1.3250
   70CHL1   C10 7625   5.849   6.020   7.176 -0.7930 -0.2040 -0.0562
   70CHL1   C19 7626   5.732   5.929   7.133 -0.6715 -0.2144  0.2645
   70CHL1  H19A 7627   5.725   5.917   7.023 -0.4522 -2.2716  0.4340
   70CHL1  H19B 7628   5.739   5.827   7.176 -1.7784  0.4893  2.2295
   70CHL1  H19C 7629   5.637   5.976   7.164  0.0633  0.1779  2.0310
   70CHL1    C1 7630   5.818   6.163   7.130 -0.1095  0.5567  0.1029
   70CHL1   H1A 7631   5.718   6.196   7.166 -0.0137  0.6382  0.2949
   70CHL1   H1B 7632   5.897   6.231   7.169 -0.3561  0.1873  1.2632
   70CHL1    C2 7633   5.814   6.186   6.974 -0.7331  0.9953  0.6896
   70CHL1   H2A 7634   5.795   6.293   6.950 -0.4008  0.6048 -1.4112
   70CHL1   H2B 7635   5.728   6.124   6.940  1.3102 -2.9351  2.0147
   70CHL1   C20 7636   5.768   5.839   7.853 -0.3408 -0.3471 -0.4342
   70CHL1   H20 7637   5.672   5.798   7.815 -1.3789 -0.1839  1.8973
   70CHL1   C21 7638   5.719   5.978   7.901 -0.3848  0.5937 -0.0976
   70CHL1  H21A 7639   5.800   6.025   7.960  0.7964 -1.2587 -0.1400
   70CHL1  H21B 7640   5.631   5.980   7.968  0.5382 -0.3379  1.1926
   70CHL1  H21C 7641   5.693   6.047   7.818 -3.3412 -0.0602  0.2021
   70CHL1   C22 7642   5.818   5.741   7.965 -0.6810 -0.0537  0.3183
   70CHL1  H22A 7643   5.832   5.642   7.916  0.2366 -0.0635  0.5947
   70CHL1  H22B 7644   5.923   5.768   7.988  0.4593 -0.5287 -3.6017
   70CHL1   C23 7645   5.731   5.724   8.084  0.4065  0.1372  0.2445
   70CHL1  H23A 7646   5.699   5.823   8.122 -0.1514 -0.0213  0.2029
   70CHL1  H23B 7647   5.639   5.666   8.058  0.9738  0.0145 -1.5972
   70CHL1   C24 7648   5.803   5.642   8.192  0.6031  0.4437 -0.8164
   70CHL1  H24A 7649   5.820   5.536   8.162 -2.8064 -0.1854 -0.9996
   70CHL1  H24B 7650   5.889   5.708   8.216 -0.5779  1.7009  0.0900
   70CHL1   C25 7651   5.709   5.630   8.310 -1.0049 -0.7225 -0.0167
   70CHL1   H25 7652   5.608   5.607   8.271 -1.3708  1.6997 -0.6457
   70CHL1   C26 7653   5.768   5.518   8.398  0.1235  0.1564  0.1427
   70CHL1  H26A 7654   5.803   5.433   8.337 -1.5198  0.4214 -1.2206
   70CHL1  H26B 7655   5.849   5.563   8.460 -1.0034 -0.3101  2.0505
   70CHL1  H26C 7656   5.683   5.482   8.460 -0.4841  0.7286 -0.3395
   70CHL1   C27 7657   5.703   5.764   8.390  0.5026  0.3330 -0.1156
   70CHL1  H27A 7658   5.655   5.845   8.331  1.3664  0.5835 -0.4924
   70CHL1  H27B 7659   5.640   5.744   8.478 -0.4448 -0.4295 -0.9406
   70CHL1  H27C 7660   5.802   5.810   8.411  0.6833  0.7090 -1.6181
   71CHL1    C3 7661   3.789   5.152   7.010  0.1445 -0.2216 -0.1718
   71CHL1    H3 7662   3.897   5.165   7.032  0.1895  0.1889 -0.5966
   71CHL1    O3 7663   3.769   5.139   6.871  0.6548  0.6120  0.3267
   71CHL1   H3' 7664   3.706   5.070   6.850  1.8105 -0.7971  1.2748
   71CHL1    C4 7665   3.702   5.050   7.088 -0.2225  0.7474 -0.3405
   71CHL1   H4A 7666   3.593   5.063   7.074 -0.2911  0.8838  0.2579
   71CHL1   H4B 7667   3.729   4.945   7.062 -1.7150  0.1122  0.5135
   71CHL1    C5 7668   3.732   5.067   7.237  0.3695  0.2989 -0.4069
   71CHL1    C6 7669   3.783   4.972   7.324 -0.7639 -0.2014  0.8058
   71CHL1    H6 7670   3.818   4.873   7.293  1.5461  1.1194 -1.1972
   71CHL1    C7 7671   3.800   5.000   7.472  0.7769 -0.5123  0.1029
   71CHL1   H7A 7672   3.766   4.906   7.521 -0.1633  0.7531  1.9942
   71CHL1   H7B 7673   3.901   5.031   7.505  0.9961 -0.8692 -0.2371
   71CHL1    C8 7674   3.710   5.120   7.524  0.2600  0.0847  0.0514
   71CHL1    H8 7675   3.606   5.080   7.523  0.5551 -0.7554  1.2069
   71CHL1   C14 7676   3.760   5.154   7.660  0.4082 -0.3469 -0.6545
   71CHL1   H14 7677   3.865   5.188   7.642  0.1339  1.1490  0.4511
   71CHL1   C15 7678   3.773   5.036   7.767 -0.0221  0.2082  0.3541
   71CHL1  H15A 7679   3.683   4.971   7.763 -0.6576  1.0689  0.4087
   71CHL1  H15B 7680   3.872   4.989   7.745 -0.1079 -0.0107  0.4367
   71CHL1   C16 7681   3.776   5.115   7.902  0.0863  0.4097  0.2553
   71CHL1  H16A 7682   3.694   5.064   7.957  0.0330  0.5811  0.3330
   71CHL1  H16B 7683   3.866   5.089   7.962 -0.0250 -1.5898 -0.3548
   71CHL1   C17 7684   3.746   5.263   7.879 -0.2478  0.2131  0.4167
   71CHL1   H17 7685   3.834   5.330   7.888 -0.8080  0.8697  1.2933
   71CHL1   C13 7686   3.683   5.264   7.731  0.3562 -0.0013 -0.0292
   71CHL1   C18 7687   3.531   5.221   7.737 -0.8005  0.4437 -0.2601
   71CHL1  H18A 7688   3.471   5.306   7.778 -0.1516  1.1624 -0.7768
   71CHL1  H18B 7689   3.490   5.200   7.636  0.2496  1.0580 -0.8310
   71CHL1  H18C 7690   3.523   5.126   7.794  3.2823  0.8167  1.3065
   71CHL1   C12 7691   3.706   5.402   7.647 -0.0688 -0.4149 -0.7021
   71CHL1  H12A 7692   3.651   5.497   7.664  0.2417 -0.3722  0.0899
   71CHL1  H12B 7693   3.816   5.402   7.655  0.0247  1.3714 -1.6357
   71CHL1   C11 7694   3.677   5.369   7.498  0.1261  0.7556 -0.5236
   71CHL1  H11A 7695   3.567   5.374   7.486 -0.3487 -0.4385  2.4872
   71CHL1  H11B 7696   3.717   5.448   7.431  0.7343  0.7891 -0.1298
   71CHL1    C9 7697   3.734   5.240   7.433 -0.6382  0.1158  0.3881
   71CHL1    H9 7698   3.845   5.252   7.430 -0.7487  1.1663  0.1133
   71CHL1   C10 7699   3.690   5.211   7.284 -0.7799  0.0646 -0.0070
   71CHL1   C19 7700   3.536   5.227   7.271  0.2610 -0.0074  0.0901
   71CHL1  H19A 7701   3.487   5.170   7.353 -1.1532 -0.5940 -1.1222
   71CHL1  H19B 7702   3.505   5.333   7.282 -2.1324 -0.6055 -0.3210
   71CHL1  H19C 7703   3.490   5.196   7.174  0.5594 -0.1730 -0.0007
   71CHL1    C1 7704   3.755   5.318   7.196 -0.0788 -0.2152 -0.2614
   71CHL1   H1A 7705   3.718   5.419   7.225  1.3694  0.0652  0.6806
   71CHL1   H1B 7706   3.862   5.311   7.223 -0.0679  4.0261  1.6873
   71CHL1    C2 7707   3.733   5.293   7.047 -0.4987 -0.8474 -1.1892
   71CHL1   H2A 7708   3.787   5.368   6.985 -1.6832 -0.7080 -2.0899
   71CHL1   H2B 7709   3.628   5.300   7.010 -0.2187  0.3500 -1.8139
   71CHL1   C20 7710   3.666   5.312   8.002  0.3323 -0.6182 -0.0868
   71CHL1   H20 7711   3.566   5.263   8.004  0.6255 -1.2071  0.5896
   71CHL1   C21 7712   3.630   5.455   7.989 -0.1344 -0.4512  0.3679
   71CHL1  H21A 7713   3.711   5.532   7.993 -1.1189  0.7025 -0.7803
   71CHL1  H21B 7714   3.568   5.487   8.075  0.7993  1.0445  0.5243
   71CHL1  H21C 7715   3.567   5.454   7.897 -2.5364 -2.8246  1.9114
   71CHL1   C22 7716   3.736   5.285   8.137  0.2231  0.1377 -0.2248
   71CHL1  H22A 7717   3.776   5.181   8.134 -0.4720 -0.1166 -0.9999
   71CHL1  H22B 7718   3.831   5.343   8.132 -0.0878  0.6267 -0.4516
   71CHL1   C23 7719   3.652   5.322   8.258 -0.1958 -0.3242 -0.6991
   71CHL1  H23A 7720   3.627   5.430   8.267  0.2018 -0.1623 -1.4483
   71CHL1  H23B 7721   3.555   5.267   8.254  0.4476 -1.6338  0.6130
   71CHL1   C24 7722   3.724   5.285   8.393  0.3494 -0.9022 -0.0688
   71CHL1  H24A 7723   3.750   5.178   8.381  0.3662 -0.9110  0.0507
   71CHL1  H24B 7724   3.811   5.351   8.413  0.1407 -0.3947 -0.8067
   71CHL1   C25 7725   3.632   5.283   8.514  0.6392  0.2066  0.1363
   71CHL1   H25 7726   3.537   5.231   8.489 -0.0799  1.5972 -0.1370
   71CHL1   C26 7727   3.702   5.205   8.624  0.0063 -1.0515  0.4718
   71CHL1  H26A 7728   3.807   5.241   8.630 -1.1834  2.7086  2.0749
   71CHL1  H26B 7729   3.651   5.227   8.720 -2.6402  0.6101 -1.1724
   71CHL1  H26C 7730   3.707   5.094   8.617  0.6419 -1.0073  0.1843
   71CHL1   C27 7731   3.590   5.422   8.563 -0.0321 -0.0160  0.1720
   71CHL1  H27A 7732   3.532   5.475   8.484  0.4080 -1.2211 -1.0101
   71CHL1  H27B 7733   3.534   5.409   8.658 -1.1156 -0.7445 -0.5446
   71CHL1  H27C 7734   3.679   5.486   8.582  1.4384 -1.5112 -1.2491
   72CHL1    C3 7735   2.849   2.557   7.190 -0.5401 -0.3669  0.7179
   72CHL1    H3 7736   2.767   2.485   7.170  0.6331 -1.2095 -1.2884
   72CHL1    O3 7737   2.867   2.631   7.068  0.3050 -0.5461 -0.5278
   72CHL1   H3' 7738   2.882   2.563   7.003 -0.3446  0.1656 -1.4520
   72CHL1    C4 7739   2.809   2.657   7.304 -0.7101 -0.8942 -0.2141
   72CHL1   H4A 7740   2.886   2.737   7.297 -0.0254 -1.4193  1.0144
   72CHL1   H4B 7741   2.711   2.703   7.277  1.0201  2.4545 -1.3261
   72CHL1    C5 7742   2.815   2.589   7.443 -0.8369  0.1751  1.1477
   72CHL1    C6 7743   2.711   2.595   7.520 -0.1427 -0.4653  0.1898
   72CHL1    H6 7744   2.625   2.653   7.484 -1.5510 -0.9087  2.5815
   72CHL1    C7 7745   2.700   2.532   7.658  0.4497 -0.0613 -0.3383
   72CHL1   H7A 7746   2.637   2.585   7.732 -1.5676 -1.8787 -0.6602
   72CHL1   H7B 7747   2.639   2.440   7.646  0.0027 -0.1457  2.1913
   72CHL1    C8 7748   2.841   2.506   7.709 -0.2440 -0.1791  0.9304
   72CHL1    H8 7749   2.886   2.606   7.726 -0.9863  0.2542  0.3912
   72CHL1   C14 7750   2.834   2.420   7.830 -0.0597  0.0009 -0.1030
   72CHL1   H14 7751   2.783   2.327   7.796  1.2049 -1.4033  1.6579
   72CHL1   C15 7752   2.746   2.460   7.953  0.6159 -0.3854 -0.2614
   72CHL1  H15A 7753   2.769   2.564   7.985 -0.3369 -0.0950 -0.4760
   72CHL1  H15B 7754   2.637   2.450   7.937  0.3761 -1.4700  1.7272
   72CHL1   C16 7755   2.786   2.357   8.066 -0.0209 -0.0760 -0.5897
   72CHL1  H16A 7756   2.797   2.422   8.156 -1.2984  0.8801 -1.0903
   72CHL1  H16B 7757   2.710   2.282   8.093  0.0915  0.4974  1.4574
   72CHL1   C17 7758   2.920   2.293   8.022 -0.5288 -1.0871  0.2194
   72CHL1   H17 7759   2.900   2.194   7.977 -1.4480 -1.6693  1.8402
   72CHL1   C13 7760   2.962   2.381   7.898  0.5082  0.0644  0.6722
   72CHL1   C18 7761   3.030   2.508   7.943  0.2429  0.4214  0.5775
   72CHL1  H18A 7762   3.050   2.573   7.855 -0.6840 -1.4781 -1.1215
   72CHL1  H18B 7763   2.986   2.577   8.018  1.4893  0.5438  1.2190
   72CHL1  H18C 7764   3.134   2.486   7.975  0.7003 -0.5318 -1.4152
   72CHL1   C12 7765   3.043   2.301   7.788  0.2311  0.8844 -0.7909
   72CHL1  H12A 7766   3.128   2.256   7.843 -1.8028 -0.7697  1.1656
   72CHL1  H12B 7767   2.989   2.212   7.750 -0.2813  1.5838 -1.7504
   72CHL1   C11 7768   3.064   2.385   7.662 -0.2432 -0.0606 -1.3089
   72CHL1  H11A 7769   3.132   2.468   7.690 -0.7649  0.3555 -1.2425
   72CHL1  H11B 7770   3.111   2.313   7.593 -0.0984  1.6589 -3.1050
   72CHL1    C9 7771   2.931   2.432   7.606  0.0633 -1.0700  0.4770
   72CHL1    H9 7772   2.872   2.342   7.575 -0.1380 -0.4802 -0.9477
   72CHL1   C10 7773   2.946   2.507   7.469 -0.3494 -0.6640 -0.1915
   72CHL1   C19 7774   3.055   2.615   7.484 -0.1993 -0.0436 -0.2612
   72CHL1  H19A 7775   3.153   2.565   7.502  0.4134  0.3802 -2.1709
   72CHL1  H19B 7776   3.066   2.676   7.392 -0.0603  0.8796  0.3555
   72CHL1  H19C 7777   3.046   2.693   7.563  1.3706  1.2046 -1.2468
   72CHL1    C1 7778   2.983   2.417   7.354  0.5344  0.2522 -0.3966
   72CHL1   H1A 7779   3.086   2.378   7.370  0.6109  0.8381  0.6077
   72CHL1   H1B 7780   2.910   2.334   7.351  0.2895  0.4869 -1.3116
   72CHL1    C2 7781   2.981   2.487   7.217 -0.0136 -0.1145 -0.0941
   72CHL1   H2A 7782   2.997   2.412   7.137 -0.8270 -1.3747  0.8881
   72CHL1   H2B 7783   3.076   2.545   7.207 -0.0104 -0.1766 -0.4116
   72CHL1   C20 7784   3.015   2.282   8.141 -0.5469  0.3764 -0.4830
   72CHL1   H20 7785   3.027   2.383   8.185 -1.9872 -0.0309  0.9166
   72CHL1   C21 7786   3.146   2.210   8.096 -0.1626 -0.6612 -0.1912
   72CHL1  H21A 7787   3.210   2.268   8.026  1.7525  0.2013  2.1216
   72CHL1  H21B 7788   3.119   2.116   8.044 -2.1845 -0.8219  1.0374
   72CHL1  H21C 7789   3.215   2.198   8.182 -1.5253 -0.7560  0.9167
   72CHL1   C22 7790   2.958   2.185   8.258  0.1072  0.1311 -0.1001
   72CHL1  H22A 7791   2.848   2.197   8.266  0.0831 -0.8416  1.5054
   72CHL1  H22B 7792   2.970   2.078   8.232  0.5503  0.1598 -0.0214
   72CHL1   C23 7793   3.024   2.200   8.393 -0.1999 -0.1494  0.4480
   72CHL1  H23A 7794   3.135   2.191   8.390  0.2752  3.7678  0.6964
   72CHL1  H23B 7795   3.007   2.303   8.432  0.5932  0.0400  0.3157
   72CHL1   C24 7796   2.953   2.115   8.508 -0.4970  0.0706 -0.0974
   72CHL1  H24A 7797   2.846   2.143   8.517 -0.7942 -0.1536 -2.3043
   72CHL1  H24B 7798   2.959   2.008   8.477  0.9725 -0.2960  1.3391
   72CHL1   C25 7799   3.011   2.114   8.653 -0.1573 -0.2529 -0.6468
   72CHL1   H25 7800   2.934   2.059   8.711 -1.3973  0.9149 -1.1422
   72CHL1   C26 7801   3.145   2.039   8.670  0.6448  0.7314  0.6499
   72CHL1  H26A 7802   3.193   2.058   8.769  0.6367  2.2362  0.3898
   72CHL1  H26B 7803   3.128   1.931   8.655 -0.4447  0.7774  1.4612
   72CHL1  H26C 7804   3.217   2.082   8.597  0.7679 -0.1020  0.2794
   72CHL1   C27 7805   3.021   2.258   8.719 -0.2198 -0.1267  0.2036
   72CHL1  H27A 7806   2.924   2.310   8.731  0.9724  2.3333 -0.0937
   72CHL1  H27B 7807   3.069   2.243   8.819 -1.0869 -2.8013  0.2929
   72CHL1  H27C 7808   3.082   2.326   8.655 -0.5514 -0.4546 -0.4706
   73CHL1    C3 7809   5.290   4.386   6.951  0.0704 -0.5493  0.6294
   73CHL1    H3 7810   5.323   4.282   6.969  3.8008  0.5085  0.7912
   73CHL1    O3 7811   5.288   4.411   6.814 -0.1829 -0.4091  1.1038
   73CHL1   H3' 7812   5.257   4.502   6.805 -0.5924 -0.7267 -1.3291
   73CHL1    C4 7813   5.144   4.415   7.003 -0.2180 -0.3153 -0.5402
   73CHL1   H4A 7814   5.120   4.521   6.975 -2.9558 -0.7601 -0.2235
   73CHL1   H4B 7815   5.081   4.347   6.942 -0.3745 -0.7424  0.0893
   73CHL1    C5 7816   5.142   4.384   7.146 -0.4479 -0.3703 -0.9132
   73CHL1    C6 7817   5.052   4.295   7.195 -0.8857  0.3659  0.0919
   73CHL1    H6 7818   4.977   4.256   7.124  0.1549  0.2553 -0.9829
   73CHL1    C7 7819   5.030   4.285   7.339  0.2221 -0.4327  0.0858
   73CHL1   H7A 7820   4.926   4.309   7.366  0.2264 -0.0723 -0.2127
   73CHL1   H7B 7821   5.059   4.189   7.387  2.8846 -0.6602 -1.6918
   73CHL1    C8 7822   5.113   4.384   7.435  0.1212  0.5439 -0.1930
   73CHL1    H8 7823   5.060   4.482   7.439  1.1244  1.1644 -1.2097
   73CHL1   C14 7824   5.121   4.323   7.580  0.1769 -0.0689  0.2065
   73CHL1   H14 7825   5.170   4.224   7.567 -4.5444 -2.3609 -3.1557
   73CHL1   C15 7826   4.981   4.295   7.650 -0.1079  0.5122  0.9644
   73CHL1  H15A 7827   4.900   4.371   7.646 -1.3758 -0.8227 -0.0395
   73CHL1  H15B 7828   4.942   4.213   7.586  0.5498  1.7669 -1.1346
   73CHL1   C16 7829   5.017   4.264   7.794  0.2682 -0.1485  0.7616
   73CHL1  H16A 7830   4.956   4.307   7.876  0.7843  0.0489  1.0496
   73CHL1  H16B 7831   5.010   4.154   7.807 -0.4090 -0.4341 -1.5417
   73CHL1   C17 7832   5.169   4.309   7.806 -0.0780 -0.7937  0.4166
   73CHL1   H17 7833   5.238   4.224   7.786 -2.5378 -2.5958 -1.0393
   73CHL1   C13 7834   5.196   4.405   7.680 -0.2878 -0.5394 -0.2903
   73CHL1   C18 7835   5.125   4.538   7.718  0.6944 -0.8026 -0.8563
   73CHL1  H18A 7836   5.022   4.539   7.761  1.5151 -0.8881  1.1983
   73CHL1  H18B 7837   5.186   4.587   7.796  0.4646 -1.1270 -0.4668
   73CHL1  H18C 7838   5.122   4.611   7.635  2.1369  2.1748  1.5187
   73CHL1   C12 7839   5.347   4.424   7.638 -0.2637  0.1523  0.3335
   73CHL1  H12A 7840   5.409   4.489   7.703  1.5880  1.6462 -2.6800
   73CHL1  H12B 7841   5.399   4.326   7.639 -0.1947  0.1803 -0.1482
   73CHL1   C11 7842   5.348   4.471   7.495  0.4548  0.6586  0.7971
   73CHL1  H11A 7843   5.311   4.576   7.507  1.3216  0.9896  0.6373
   73CHL1  H11B 7844   5.454   4.465   7.465  0.7729  0.2302  1.9562
   73CHL1    C9 7845   5.254   4.401   7.387  0.4570  0.5018 -0.7311
   73CHL1    H9 7846   5.289   4.296   7.379  0.1700  0.2683  0.8560
   73CHL1   C10 7847   5.253   4.460   7.243  0.8624  0.7955  0.6040
   73CHL1   C19 7848   5.215   4.610   7.248 -0.8132  0.6128 -0.4195
   73CHL1  H19A 7849   5.107   4.612   7.275 -0.2065 -0.1374  2.3986
   73CHL1  H19B 7850   5.284   4.654   7.323 -0.2776 -2.1916  0.8760
   73CHL1  H19C 7851   5.236   4.664   7.153 -0.5254 -1.9178 -1.8825
   73CHL1    C1 7852   5.390   4.442   7.174 -0.2225  0.6341 -0.1218
   73CHL1   H1A 7853   5.461   4.510   7.225  0.3845  1.3899 -1.8822
   73CHL1   H1B 7854   5.415   4.336   7.199  1.6324  0.7155 -1.3692
   73CHL1    C2 7855   5.393   4.471   7.024 -0.3128  0.1648 -0.2116
   73CHL1   H2A 7856   5.495   4.453   6.983  0.2118  0.1492  1.0800
   73CHL1   H2B 7857   5.363   4.577   7.010 -0.8015 -0.1440 -1.7224
   73CHL1   C20 7858   5.204   4.367   7.948 -0.2009 -0.1602  0.3254
   73CHL1   H20 7859   5.127   4.445   7.969  3.0783  2.6209  3.1584
   73CHL1   C21 7860   5.344   4.421   7.952 -0.2675  0.3951 -0.5194
   73CHL1  H21A 7861   5.418   4.352   7.905  0.1775 -0.3194  1.1590
   73CHL1  H21B 7862   5.388   4.433   8.053 -1.1561 -0.3799 -0.0208
   73CHL1  H21C 7863   5.356   4.511   7.888  0.5288  1.1132  0.6200
   73CHL1   C22 7864   5.190   4.256   8.061 -0.2919  0.1810  0.8136
   73CHL1  H22A 7865   5.126   4.170   8.033  0.9237 -0.3199 -0.5219
   73CHL1  H22B 7866   5.291   4.213   8.078 -1.5067 -2.1445  2.7370
   73CHL1   C23 7867   5.132   4.327   8.184  0.0142  1.0129 -0.2188
   73CHL1  H23A 7868   5.190   4.415   8.218  0.8309 -0.3704  2.2057
   73CHL1  H23B 7869   5.031   4.369   8.165 -0.9412  0.2863  2.7789
   73CHL1   C24 7870   5.137   4.235   8.308  0.0626 -0.2733  0.6796
   73CHL1  H24A 7871   5.079   4.148   8.272 -2.7566  1.2404  1.3160
   73CHL1  H24B 7872   5.241   4.205   8.333  0.2049  1.4170  2.3804
   73CHL1   C25 7873   5.082   4.302   8.436 -0.2362  0.5060  0.7571
   73CHL1   H25 7874   5.140   4.392   8.464  1.0156  0.6879 -2.0373
   73CHL1   C26 7875   4.936   4.338   8.425  0.0187 -0.7806  0.3376
   73CHL1  H26A 7876   4.900   4.395   8.513  1.2885 -2.1767  1.8196
   73CHL1  H26B 7877   4.927   4.405   8.337  0.1541  3.0601  2.9923
   73CHL1  H26C 7878   4.873   4.250   8.398 -1.2945 -0.0160  0.7960
   73CHL1   C27 7879   5.095   4.201   8.550 -0.1784  0.7569 -0.2695
   73CHL1  H27A 7880   5.049   4.234   8.646  0.0603 -1.1675  0.5520
   73CHL1  H27B 7881   5.053   4.100   8.531  0.5111 -0.2290  2.8106
   73CHL1  H27C 7882   5.201   4.184   8.580 -0.1841 -0.6816 -0.9709
   74CHL1    C3 7883   1.768   3.341   6.974  0.8729  0.4749  0.4696
   74CHL1    H3 7884   1.701   3.255   6.953 -0.8182  2.0785 -0.9909
   74CHL1    O3 7885   1.806   3.411   6.852  0.1979  0.5678  0.0664
   74CHL1   H3' 7886   1.879   3.468   6.875  0.7778  0.6535 -1.8400
   74CHL1    C4 7887   1.702   3.458   7.051  0.2099  0.8147 -0.0166
   74CHL1   H4A 7888   1.766   3.549   7.052  1.0083  0.2826  1.9323
   74CHL1   H4B 7889   1.614   3.487   6.989  1.8206  0.4556 -2.6580
   74CHL1    C5 7890   1.672   3.422   7.195  0.2805  0.7470  0.1034
   74CHL1    C6 7891   1.549   3.421   7.247 -0.3571 -0.0615 -0.1689
   74CHL1    H6 7892   1.469   3.448   7.175  0.8232 -0.5767 -1.7279
   74CHL1    C7 7893   1.510   3.389   7.394 -0.0543  0.3868 -0.0782
   74CHL1   H7A 7894   1.446   3.467   7.439  1.2118  1.1433  0.4659
   74CHL1   H7B 7895   1.450   3.295   7.392  0.6189 -0.0497 -0.1852
   74CHL1    C8 7896   1.635   3.383   7.482  0.7094  0.6930  0.0660
   74CHL1    H8 7897   1.674   3.482   7.515 -2.1999  1.6409  1.0002
   74CHL1   C14 7898   1.606   3.309   7.610 -0.3511  0.0826  0.0469
   74CHL1   H14 7899   1.577   3.206   7.582  0.2055  0.1270 -0.7088
   74CHL1   C15 7900   1.485   3.363   7.678 -0.4929  0.2571  0.8576
   74CHL1  H15A 7901   1.484   3.474   7.670  0.0032  0.2020 -0.1523
   74CHL1  H15B 7902   1.390   3.328   7.633  0.1561 -1.8582  1.0516
   74CHL1   C16 7903   1.492   3.298   7.820 -0.0584 -0.2122  0.2190
   74CHL1  H16A 7904   1.478   3.377   7.897  0.5059 -0.9306  1.0630
   74CHL1  H16B 7905   1.410   3.222   7.821 -0.6405  0.4021  0.9464
   74CHL1   C17 7906   1.631   3.227   7.825  0.0200  0.3853 -0.1531
   74CHL1   H17 7907   1.624   3.124   7.785  1.4257 -0.8188  2.4228
   74CHL1   C13 7908   1.710   3.311   7.714  0.4763  0.8136 -0.2248
   74CHL1   C18 7909   1.768   3.448   7.756 -0.0076 -0.7013  0.2201
   74CHL1  H18A 7910   1.808   3.503   7.668  1.6168 -0.6636  0.9364
   74CHL1  H18B 7911   1.697   3.517   7.806  0.9126  0.8471 -0.5336
   74CHL1  H18C 7912   1.845   3.436   7.835 -0.8405  0.7992  1.3009
   74CHL1   C12 7913   1.826   3.232   7.650  0.4096  0.2048  0.2034
   74CHL1  H12A 7914   1.915   3.252   7.715  0.3091  0.1365  0.3624
   74CHL1  H12B 7915   1.809   3.123   7.637  0.4354  0.0695  1.2003
   74CHL1   C11 7916   1.864   3.288   7.514  0.0299  1.1904  0.1118
   74CHL1  H11A 7917   1.922   3.381   7.531 -0.0186  1.2936 -0.2793
   74CHL1  H11B 7918   1.935   3.215   7.470 -3.2520 -1.6258 -0.9850
   74CHL1    C9 7919   1.750   3.304   7.411  0.4826 -0.0048 -0.2330
   74CHL1    H9 7920   1.704   3.206   7.386 -2.2455  1.4068 -1.2161
   74CHL1   C10 7921   1.796   3.372   7.278  0.7150 -1.0825  0.0886
   74CHL1   C19 7922   1.886   3.490   7.302 -0.2256 -0.6376  0.0900
   74CHL1  H19A 7923   1.833   3.569   7.361 -0.2701 -0.9551  0.4823
   74CHL1  H19B 7924   1.986   3.466   7.344 -0.2224 -0.5356  0.1424
   74CHL1  H19C 7925   1.922   3.544   7.212  0.4611 -0.7862  0.2680
   74CHL1    C1 7926   1.862   3.259   7.196 -0.0248  0.3044  0.9211
   74CHL1   H1A 7927   1.965   3.234   7.231  0.1357 -0.6410 -0.1544
   74CHL1   H1B 7928   1.798   3.169   7.198 -0.8080  0.6038 -3.0066
   74CHL1    C2 7929   1.895   3.299   7.043  0.2698 -0.3452 -0.1692
   74CHL1   H2A 7930   1.941   3.214   6.988 -1.3627 -0.3377 -1.6081
   74CHL1   H2B 7931   1.957   3.391   7.031 -2.5884  1.4044 -3.4845
   74CHL1   C20 7932   1.692   3.224   7.967 -0.1440  0.0151  0.0688
   74CHL1   H20 7933   1.712   3.329   7.996 -2.1665  0.6749 -0.7325
   74CHL1   C21 7934   1.830   3.145   7.973  0.4229  0.2553 -1.2362
   74CHL1  H21A 7935   1.842   3.146   8.084 -0.2188  0.6055 -1.1574
   74CHL1  H21B 7936   1.916   3.209   7.945  0.8708  0.2791  0.1017
   74CHL1  H21C 7937   1.827   3.043   7.931  3.0899 -0.7594  0.7942
   74CHL1   C22 7938   1.597   3.166   8.072  0.1108  0.0300 -0.2323
   74CHL1  H22A 7939   1.637   3.167   8.175  1.0211  2.8702 -0.5182
   74CHL1  H22B 7940   1.500   3.219   8.074  0.8681  1.4596  0.2566
   74CHL1   C23 7941   1.554   3.023   8.043  0.2922 -0.0304  0.7911
   74CHL1  H23A 7942   1.508   3.009   7.943  1.6236  0.0718  0.1367
   74CHL1  H23B 7943   1.647   2.962   8.046  0.3157  0.0037  0.7494
   74CHL1   C24 7944   1.457   2.969   8.143  0.1810 -0.4066  0.4422
   74CHL1  H24A 7945   1.471   2.990   8.252 -1.8749 -2.9312  1.2863
   74CHL1  H24B 7946   1.366   3.027   8.115 -0.1633 -1.5220 -0.8583
   74CHL1   C25 7947   1.423   2.819   8.130  0.3735 -0.1462  0.0134
   74CHL1   H25 7948   1.382   2.799   8.028 -1.6380  1.8226  0.3527
   74CHL1   C26 7949   1.545   2.729   8.154  0.1965 -0.4755  0.2904
   74CHL1  H26A 7950   1.604   2.744   8.247  1.4032 -2.7132 -0.0363
   74CHL1  H26B 7951   1.512   2.623   8.148  0.2831 -0.5126  0.4714
   74CHL1  H26C 7952   1.630   2.742   8.084  0.8812 -2.4381  0.6967
   74CHL1   C27 7953   1.313   2.777   8.243 -0.1050 -0.3526  0.5389
   74CHL1  H27A 7954   1.318   2.668   8.268  3.3677 -0.5497 -0.4746
   74CHL1  H27B 7955   1.349   2.829   8.334 -0.5572 -1.8004  1.5866
   74CHL1  H27C 7956   1.213   2.819   8.219  0.6251  2.1722  1.6379
   75CHL1    C3 7957   2.160   0.048   6.948 -0.2455 -0.6079 -0.2621
   75CHL1    H3 7958   2.053   0.075   6.963 -0.3662 -1.2297  0.0600
   75CHL1    O3 7959   2.197   0.070   6.814 -0.0096  0.5225 -0.0471
   75CHL1   H3' 7960   2.197  -0.018   6.777 -0.9859  0.8538 -0.8965
   75CHL1    C4 7961   2.250   0.128   7.038 -0.7323 -0.2702 -0.9474
   75CHL1   H4A 7962   2.357   0.103   7.021 -0.7107 -2.0156  1.3698
   75CHL1   H4B 7963   2.228   0.231   7.002 -0.7645 -0.6363 -2.0086
   75CHL1    C5 7964   2.233   0.103   7.187  0.0864  0.4439  0.5356
   75CHL1    C6 7965   2.204   0.197   7.281 -0.0624  0.7745 -0.0046
   75CHL1    H6 7966   2.199   0.300   7.241  0.5953 -0.6403 -4.2961
   75CHL1    C7 7967   2.181   0.163   7.427 -0.3929 -0.1970 -0.0029
   75CHL1   H7A 7968   2.241   0.223   7.499  1.2356 -2.8573  1.0265
   75CHL1   H7B 7969   2.073   0.168   7.454 -0.2484 -1.6164  0.9725
   75CHL1    C8 7970   2.222   0.020   7.467  0.3234  0.0104  0.2025
   75CHL1    H8 7971   2.333   0.021   7.466  0.3151  0.7516  0.0016
   75CHL1   C14 7972   2.170  -0.019   7.604 -0.2414  0.1093  0.7198
   75CHL1   H14 7973   2.060  -0.014   7.589 -0.1645 -0.0716  0.0469
   75CHL1   C15 7974   2.197   0.083   7.713  0.2320 -0.3017 -0.2140
   75CHL1  H15A 7975   2.306   0.107   7.710  0.6216 -1.9844 -0.6444
   75CHL1  H15B 7976   2.144   0.179   7.698 -3.0121 -0.9933  4.6482
   75CHL1   C16 7977   2.165   0.006   7.839 -0.1304  0.2725  0.1109
   75CHL1  H16A 7978   2.244   0.031   7.912 -0.0849 -2.5471  1.1542
   75CHL1  H16B 7979   2.068   0.041   7.881  0.1865  0.4345  0.7175
   75CHL1   C17 7980   2.153  -0.143   7.798 -0.2790 -0.7222  0.2535
   75CHL1   H17 7981   2.045  -0.165   7.788 -0.4685 -0.8201  2.1760
   75CHL1   C13 7982   2.221  -0.157   7.651  0.1268 -0.1069 -0.2786
   75CHL1   C18 7983   2.372  -0.159   7.665 -0.4013 -0.9150  0.1676
   75CHL1  H18A 7984   2.413  -0.073   7.722  0.4790  0.4223 -2.3241
   75CHL1  H18B 7985   2.402  -0.254   7.715  0.2704 -0.8149 -0.0466
   75CHL1  H18C 7986   2.423  -0.171   7.567  2.0109  1.4930  1.0368
   75CHL1   C12 7987   2.173  -0.263   7.556 -0.5177 -0.1677  0.2824
   75CHL1  H12A 7988   2.202  -0.366   7.585 -2.4722 -0.6833  0.5071
   75CHL1  H12B 7989   2.063  -0.258   7.571 -0.2829  1.4279  1.8464
   75CHL1   C11 7990   2.199  -0.233   7.406 -0.3196 -0.5307 -0.1464
   75CHL1  H11A 7991   2.306  -0.264   7.397 -0.3157 -1.1699  1.6667
   75CHL1  H11B 7992   2.142  -0.301   7.339 -0.6697 -0.0485 -0.3376
   75CHL1    C9 7993   2.181  -0.081   7.364  0.5859  0.4695 -0.2905
   75CHL1    H9 7994   2.070  -0.069   7.359  0.4108 -1.1438 -1.1382
   75CHL1   C10 7995   2.235  -0.052   7.219 -0.3074  0.8620  0.2200
   75CHL1   C19 7996   2.382  -0.085   7.217 -0.4065  0.3366  0.7918
   75CHL1  H19A 7997   2.429  -0.058   7.120 -0.7926  1.3153  0.8642
   75CHL1  H19B 7998   2.443  -0.044   7.300 -0.4834 -1.4909  1.7999
   75CHL1  H19C 7999   2.386  -0.196   7.228  0.0818  0.4019  1.3314
   75CHL1    C1 8000   2.155  -0.139   7.117 -0.0879  0.1641 -0.6762
   75CHL1   H1A 8001   2.170  -0.247   7.137 -0.4775  0.0191 -1.1318
   75CHL1   H1B 8002   2.046  -0.120   7.126  0.1461  1.4657 -0.4415
   75CHL1    C2 8003   2.189  -0.095   6.969 -0.8228 -0.4265 -0.5530
   75CHL1   H2A 8004   2.132  -0.165   6.904 -1.1135 -0.2823 -0.4522
   75CHL1   H2B 8005   2.298  -0.107   6.949 -0.4513  2.7003 -0.8404
   75CHL1   C20 8006   2.203  -0.236   7.908  0.2714  0.1252  0.0999
   75CHL1   H20 8007   2.310  -0.217   7.930  0.0910  0.4323  0.7177
   75CHL1   C21 8008   2.196  -0.385   7.863  0.2314  0.4066  0.4285
   75CHL1  H21A 8009   2.224  -0.456   7.944  0.6523  0.9579  0.7686
   75CHL1  H21B 8010   2.273  -0.404   7.786  0.8218  0.4314  1.0060
   75CHL1  H21C 8011   2.096  -0.412   7.821  0.4529 -2.5447  1.5623
   75CHL1   C22 8012   2.130  -0.208   8.041  0.1606 -0.3342 -0.3471
   75CHL1  H22A 8013   2.080  -0.109   8.048 -3.4708 -2.1370  1.7970
   75CHL1  H22B 8014   2.062  -0.292   8.067  2.5924 -2.7257 -1.2126
   75CHL1   C23 8015   2.231  -0.211   8.156  0.2701 -0.5525 -0.5223
   75CHL1  H23A 8016   2.302  -0.295   8.141 -1.6829 -2.0292 -2.0265
   75CHL1  H23B 8017   2.280  -0.111   8.158  0.4008 -0.6050  1.8450
   75CHL1   C24 8018   2.161  -0.217   8.293  0.1914  0.4879  0.4281
   75CHL1  H24A 8019   2.081  -0.141   8.285 -1.9892 -1.7498 -0.0046
   75CHL1  H24B 8020   2.108  -0.314   8.293 -0.2475  0.7037 -1.0852
   75CHL1   C25 8021   2.254  -0.210   8.412 -0.0713 -0.1158  0.5291
   75CHL1   H25 8022   2.338  -0.275   8.380 -0.2457  0.5019 -1.3486
   75CHL1   C26 8023   2.301  -0.066   8.437  0.1439  0.0564 -0.4767
   75CHL1  H26A 8024   2.328  -0.017   8.341  0.3330 -1.8926 -1.4710
   75CHL1  H26B 8025   2.222  -0.011   8.493  0.8083 -1.1837  1.8230
   75CHL1  H26C 8026   2.396  -0.071   8.495  1.2215  0.9698 -2.0801
   75CHL1   C27 8027   2.183  -0.275   8.531  0.1081  0.1195 -0.0444
   75CHL1  H27A 8028   2.084  -0.224   8.535  1.1169  2.1919  0.1295
   75CHL1  H27B 8029   2.174  -0.384   8.515  1.0934  0.2543 -1.7115
   75CHL1  H27C 8030   2.232  -0.265   8.631 -0.1269 -0.6578  0.1587
   76CHL1    C3 8031   2.718   3.668   7.331  0.4994 -0.7905 -0.7554
   76CHL1    H3 8032   2.684   3.774   7.327 -1.0189 -1.2355 -0.3002
   76CHL1    O3 8033   2.731   3.620   7.201  0.3661  0.3808  0.4878
   76CHL1   H3' 8034   2.655   3.561   7.203  0.2031  0.5019 -0.9879
   76CHL1    C4 8035   2.854   3.652   7.408 -1.1206  0.1286  0.6018
   76CHL1   H4A 8036   2.896   3.550   7.399  0.6765  0.8391  0.5738
   76CHL1   H4B 8037   2.930   3.715   7.357 -1.1275 -1.3605 -1.3972
   76CHL1    C5 8038   2.841   3.691   7.560  0.0918  0.2046 -0.2573
   76CHL1    C6 8039   2.924   3.775   7.618  0.1203  0.0795 -0.0578
   76CHL1    H6 8040   3.011   3.812   7.560  0.8027 -1.4756 -0.0677
   76CHL1    C7 8041   2.911   3.813   7.766 -0.1335  0.7930 -0.5808
   76CHL1   H7A 8042   3.011   3.829   7.812 -0.2125 -2.5668  1.0203
   76CHL1   H7B 8043   2.855   3.907   7.786 -0.1635  0.2876  1.9920
   76CHL1    C8 8044   2.832   3.706   7.848  0.1289  0.0883 -0.5592
   76CHL1    H8 8045   2.896   3.618   7.868  2.0164  1.2363 -1.2393
   76CHL1   C14 8046   2.798   3.772   7.977  0.3364 -0.1529  0.4499
   76CHL1   H14 8047   2.743   3.863   7.943 -0.0084 -0.7460 -0.6350
   76CHL1   C15 8048   2.910   3.834   8.066 -1.2895 -0.2391  0.1404
   76CHL1  H15A 8049   3.000   3.769   8.065 -1.8900 -1.3278  3.7017
   76CHL1  H15B 8050   2.945   3.938   8.045 -0.6514 -0.1494  1.5322
   76CHL1   C16 8051   2.846   3.825   8.207  0.2212  0.1463  0.4166
   76CHL1  H16A 8052   2.910   3.763   8.273  0.7799  0.7679  0.4809
   76CHL1  H16B 8053   2.837   3.927   8.252  0.5429  0.2146  0.3324
   76CHL1   C17 8054   2.699   3.777   8.183 -0.2101  0.1496 -0.0134
   76CHL1   H17 8055   2.641   3.863   8.144 -1.5606 -1.5537 -2.0164
   76CHL1   C13 8056   2.712   3.681   8.060 -0.3380 -0.0417 -0.7731
   76CHL1   C18 8057   2.794   3.552   8.102  0.1113  0.1000 -0.0574
   76CHL1  H18A 8058   2.897   3.564   8.142  1.4108  0.0112 -3.0930
   76CHL1  H18B 8059   2.730   3.494   8.171 -1.2371  0.5224 -0.9056
   76CHL1  H18C 8060   2.805   3.497   8.005  2.7327  2.7155 -1.4148
   76CHL1   C12 8061   2.579   3.655   8.003  0.2962 -0.0306  0.0828
   76CHL1  H12A 8062   2.508   3.596   8.065 -0.5337  1.9239  1.0957
   76CHL1  H12B 8063   2.539   3.759   7.997  0.0872  0.1390  3.0375
   76CHL1   C11 8064   2.591   3.595   7.859  0.0487 -0.3678 -0.1550
   76CHL1  H11A 8065   2.621   3.489   7.869 -0.1306 -0.3149  1.1380
   76CHL1  H11B 8066   2.492   3.588   7.809 -0.4743 -3.3006  1.0722
   76CHL1    C9 8067   2.700   3.671   7.775  0.5217  0.1310  0.2746
   76CHL1    H9 8068   2.648   3.766   7.751 -0.1950 -0.1462  0.6999
   76CHL1   C10 8069   2.727   3.612   7.634 -0.5917 -0.2451 -0.1367
   76CHL1   C19 8070   2.781   3.461   7.647 -0.2932  0.6893 -0.0216
   76CHL1  H19A 8071   2.891   3.453   7.656  0.1011  2.4560 -2.2669
   76CHL1  H19B 8072   2.729   3.407   7.729  0.1547  3.3931  2.1970
   76CHL1  H19C 8073   2.779   3.404   7.552 -0.5609 -1.8885  1.4352
   76CHL1    C1 8074   2.593   3.613   7.556 -0.5522  1.1091 -0.5471
   76CHL1   H1A 8075   2.516   3.551   7.607  1.3928  1.1961  2.7283
   76CHL1   H1B 8076   2.558   3.718   7.556 -1.9184  0.7095  1.1011
   76CHL1    C2 8077   2.614   3.573   7.403 -0.2342  0.0807 -0.2827
   76CHL1   H2A 8078   2.517   3.591   7.353  0.7722 -0.0168 -2.3629
   76CHL1   H2B 8079   2.650   3.469   7.390 -0.0683 -0.3174  2.6439
   76CHL1   C20 8080   2.627   3.713   8.300 -1.0681  0.0749 -0.5194
   76CHL1   H20 8081   2.575   3.619   8.270 -2.0793  0.7328 -0.8782
   76CHL1   C21 8082   2.530   3.817   8.361  0.2479  0.1307  0.2386
   76CHL1  H21A 8083   2.580   3.913   8.384  0.6353  0.0633 -0.2940
   76CHL1  H21B 8084   2.491   3.783   8.459 -0.9281  2.4856  0.6608
   76CHL1  H21C 8085   2.441   3.841   8.299 -0.1604  1.0160  1.1533
   76CHL1   C22 8086   2.719   3.661   8.418  0.1035  1.2171  0.3142
   76CHL1  H22A 8087   2.798   3.598   8.372 -0.6581  0.1866  0.3741
   76CHL1  H22B 8088   2.771   3.749   8.461  0.1035  2.2072 -1.6002
   76CHL1   C23 8089   2.651   3.579   8.525 -0.5317  0.8963 -0.4980
   76CHL1  H23A 8090   2.569   3.634   8.576 -1.2547  0.9990 -1.7232
   76CHL1  H23B 8091   2.582   3.501   8.488 -1.3055 -0.6872  3.7740
   76CHL1   C24 8092   2.744   3.516   8.637  0.6941  0.0073 -0.0809
   76CHL1  H24A 8093   2.838   3.472   8.599  2.3533  2.9622  0.2578
   76CHL1  H24B 8094   2.771   3.602   8.703  2.2267  1.3271 -2.3029
   76CHL1   C25 8095   2.687   3.418   8.737 -0.5373 -0.5789  0.0755
   76CHL1   H25 8096   2.655   3.327   8.682  0.3738 -1.5126  1.0467
   76CHL1   C26 8097   2.796   3.387   8.842  0.6236  0.1543 -0.5231
   76CHL1  H26A 8098   2.816   3.480   8.899 -3.4055 -0.4169  2.2078
   76CHL1  H26B 8099   2.767   3.325   8.929 -1.0728 -0.4539 -1.4830
   76CHL1  H26C 8100   2.888   3.340   8.799 -0.7193 -2.2806 -0.9153
   76CHL1   C27 8101   2.566   3.474   8.807 -0.2759  0.1535  0.0374
   76CHL1  H27A 8102   2.567   3.582   8.832 -1.7230  0.0620  0.5603
   76CHL1  H27B 8103   2.480   3.483   8.737 -0.4761 -1.4538  0.0519
   76CHL1  H27C 8104   2.533   3.405   8.887 -1.0921 -1.0276 -1.2807
   77CHL1    C3 8105   4.818   4.433   6.786  0.3060  0.6835 -0.6070
   77CHL1    H3 8106   4.912   4.380   6.814 -1.0353 -0.4250  2.1297
   77CHL1    O3 8107   4.807   4.468   6.652  0.3668 -0.0799  0.4130
   77CHL1   H3' 8108   4.765   4.554   6.664 -0.4131 -0.4119  0.1362
   77CHL1    C4 8109   4.701   4.336   6.813 -0.1800  0.5383 -0.3140
   77CHL1   H4A 8110   4.611   4.376   6.762  0.7267  1.0917 -1.5076
   77CHL1   H4B 8111   4.728   4.248   6.751  3.1852  0.4224  1.1173
   77CHL1    C5 8112   4.688   4.304   6.966 -0.0087 -1.4299  0.0455
   77CHL1    C6 8113   4.703   4.183   7.011  0.0032 -0.1818 -0.4353
   77CHL1    H6 8114   4.720   4.092   6.951 -0.7134 -0.2910 -0.4920
   77CHL1    C7 8115   4.689   4.147   7.159  0.2161 -0.5478  0.4795
   77CHL1   H7A 8116   4.652   4.043   7.168  0.9441 -0.9660 -1.0880
   77CHL1   H7B 8117   4.794   4.150   7.194 -0.2959  2.4336  2.1506
   77CHL1    C8 8118   4.609   4.254   7.233 -0.6727 -0.0228  0.1425
   77CHL1    H8 8119   4.505   4.272   7.197 -0.2943  1.4444 -0.2652
   77CHL1   C14 8120   4.615   4.232   7.389 -1.1261  0.7935  0.3702
   77CHL1   H14 8121   4.723   4.219   7.411 -1.2189 -0.3808  0.1638
   77CHL1   C15 8122   4.555   4.107   7.445  0.6682  0.1444  0.2644
   77CHL1  H15A 8123   4.468   4.094   7.377  2.1269  2.5773 -2.3006
   77CHL1  H15B 8124   4.614   4.013   7.446 -1.8261 -1.5171 -0.4426
   77CHL1   C16 8125   4.511   4.150   7.598 -0.2096 -0.9045 -0.3702
   77CHL1  H16A 8126   4.406   4.132   7.627  0.4957 -2.3321  1.5026
   77CHL1  H16B 8127   4.562   4.080   7.667  0.4128 -2.2163 -2.0921
   77CHL1   C17 8128   4.565   4.295   7.618  0.4774 -0.4252 -0.0334
   77CHL1   H17 8129   4.674   4.302   7.639  0.6819 -0.0550 -1.1476
   77CHL1   C13 8130   4.558   4.351   7.473 -0.1652 -0.2923  0.1729
   77CHL1   C18 8131   4.406   4.376   7.433  0.2799 -0.3435  0.0192
   77CHL1  H18A 8132   4.410   4.398   7.324  2.7379  0.9079  0.2668
   77CHL1  H18B 8133   4.354   4.279   7.446  1.6067 -1.2956 -1.4085
   77CHL1  H18C 8134   4.366   4.463   7.489  1.2080 -0.2245  0.5260
   77CHL1   C12 8135   4.647   4.473   7.442 -0.5036  0.2195 -0.2587
   77CHL1  H12A 8136   4.608   4.569   7.483  0.9618  0.4257  0.7556
   77CHL1  H12B 8137   4.751   4.450   7.476 -0.5171 -0.9227 -0.9514
   77CHL1   C11 8138   4.647   4.512   7.294  0.1591 -0.4382 -0.0399
   77CHL1  H11A 8139   4.552   4.565   7.274 -0.2113 -0.2669  1.9185
   77CHL1  H11B 8140   4.725   4.591   7.283 -1.0315  0.7906  0.0970
   77CHL1    C9 8141   4.677   4.392   7.204 -0.1814 -0.2875 -0.1193
   77CHL1    H9 8142   4.785   4.381   7.228 -0.0021  0.0567 -0.7330
   77CHL1   C10 8143   4.665   4.433   7.056 -0.2978  0.2478  0.5603
   77CHL1   C19 8144   4.519   4.489   7.016  1.1548  0.0301  0.5074
   77CHL1  H19A 8145   4.506   4.595   7.046 -0.9651 -0.6100  2.1363
   77CHL1  H19B 8146   4.498   4.481   6.908  1.7960  3.1501  0.0756
   77CHL1  H19C 8147   4.437   4.438   7.071 -0.0354  1.1510 -0.1737
   77CHL1    C1 8148   4.778   4.541   7.019 -0.2935  0.4630  0.1854
   77CHL1   H1A 8149   4.764   4.632   7.082  1.1153 -0.9441  2.7118
   77CHL1   H1B 8150   4.878   4.505   7.052 -1.0063 -1.3749  0.4500
   77CHL1    C2 8151   4.797   4.564   6.866  0.2547 -0.0807 -0.0551
   77CHL1   H2A 8152   4.883   4.631   6.846  1.1450 -1.1697  0.0510
   77CHL1   H2B 8153   4.702   4.611   6.832 -1.2535  0.3898  4.2806
   77CHL1   C20 8154   4.494   4.364   7.732 -0.2455 -0.2119  0.5494
   77CHL1   H20 8155   4.384   4.357   7.719 -0.1661 -1.4060  0.4069
   77CHL1   C21 8156   4.518   4.519   7.742 -0.3017  0.3174 -0.0382
   77CHL1  H21A 8157   4.482   4.578   7.655  3.7182 -0.2597 -2.3559
   77CHL1  H21B 8158   4.628   4.532   7.732 -0.5475  1.5638 -1.4555
   77CHL1  H21C 8159   4.495   4.568   7.839  0.1970  1.1819 -0.3474
   77CHL1   C22 8160   4.532   4.306   7.873 -0.1301  0.4291 -0.0718
   77CHL1  H22A 8161   4.490   4.373   7.951 -0.4055  1.2313 -0.8810
   77CHL1  H22B 8162   4.477   4.211   7.891 -1.0496  0.8507 -0.5682
   77CHL1   C23 8163   4.689   4.280   7.896 -0.0559 -0.3241  0.7526
   77CHL1  H23A 8164   4.725   4.197   7.831 -0.6296  0.0282 -0.0207
   77CHL1  H23B 8165   4.751   4.369   7.871  1.1394 -1.3059  0.0934
   77CHL1   C24 8166   4.721   4.239   8.045  0.0905 -0.4871  0.5102
   77CHL1  H24A 8167   4.832   4.229   8.043  0.1689  0.3651 -0.5109
   77CHL1  H24B 8168   4.695   4.315   8.122 -0.3400 -0.4563  0.3363
   77CHL1   C25 8169   4.671   4.097   8.080  0.5996 -0.8332  0.1395
   77CHL1   H25 8170   4.560   4.104   8.083  0.6802  0.6460  0.0120
   77CHL1   C26 8171   4.701   3.984   7.988  1.0648  0.3758  1.3720
   77CHL1  H26A 8172   4.811   3.969   7.990  0.9186 -0.8873  0.5137
   77CHL1  H26B 8173   4.668   3.886   8.028  0.2554  0.2729  0.4773
   77CHL1  H26C 8174   4.665   3.998   7.884  3.2062  1.3779  0.7111
   77CHL1   C27 8175   4.735   4.045   8.216 -0.2226 -0.4595  1.0277
   77CHL1  H27A 8176   4.707   4.124   8.289  1.6039  1.6824 -0.4544
   77CHL1  H27B 8177   4.678   3.952   8.240 -1.0148 -0.3619 -0.3821
   77CHL1  H27C 8178   4.843   4.022   8.203 -0.4262 -0.4276 -1.1406
   78CHL1    C3 8179   4.182   1.137   6.654 -0.9926  0.6853 -0.7122
   78CHL1    H3 8180   4.182   1.240   6.694  0.8375  0.1138  0.9318
   78CHL1    O3 8181   4.168   1.134   6.514  0.1887  0.2497  1.0830
   78CHL1   H3' 8182   4.074   1.116   6.506  0.5413 -0.9611 -0.8849
   78CHL1    C4 8183   4.303   1.056   6.705 -0.2227  0.2288  0.0974
   78CHL1   H4A 8184   4.287   0.956   6.660  0.5824 -1.0207  2.4209
   78CHL1   H4B 8185   4.393   1.109   6.668 -1.1008  2.1988  0.6409
   78CHL1    C5 8186   4.318   1.017   6.853 -0.0716  0.3979  0.5103
   78CHL1    C6 8187   4.422   1.058   6.923 -0.0024  0.2462  0.5290
   78CHL1    H6 8188   4.508   1.103   6.872  1.2824 -1.6084  0.9497
   78CHL1    C7 8189   4.447   1.032   7.073  0.4645  0.3871  0.3066
   78CHL1   H7A 8190   4.546   0.998   7.112 -0.3626 -1.3852  0.9570
   78CHL1   H7B 8191   4.416   1.122   7.130  0.3659  1.0403 -0.7432
   78CHL1    C8 8192   4.349   0.923   7.119 -0.7495  0.5538  0.0369
   78CHL1    H8 8193   4.384   0.826   7.078  0.5939  0.5658  1.1250
   78CHL1   C14 8194   4.345   0.911   7.266 -0.4763 -0.4359 -0.8720
   78CHL1   H14 8195   4.314   1.007   7.313 -1.1953 -1.7259  1.4564
   78CHL1   C15 8196   4.478   0.884   7.343 -0.1511 -0.0518  0.4554
   78CHL1  H15A 8197   4.530   0.803   7.288  0.6749  0.6378  0.2047
   78CHL1  H15B 8198   4.542   0.974   7.349 -1.5200  1.1596 -1.8079
   78CHL1   C16 8199   4.428   0.851   7.480 -0.5468  0.1823  0.0945
   78CHL1  H16A 8200   4.494   0.780   7.534  2.8209  1.6035 -1.7754
   78CHL1  H16B 8201   4.434   0.937   7.550  0.9032 -0.2099  0.4771
   78CHL1   C17 8202   4.277   0.811   7.475 -0.0251 -0.8918 -0.6823
   78CHL1   H17 8203   4.222   0.898   7.518  0.2036 -1.7724  1.5391
   78CHL1   C13 8204   4.245   0.809   7.320  0.6520  0.0201 -0.3507
   78CHL1   C18 8205   4.274   0.665   7.271  0.1934  0.0385  0.0797
   78CHL1  H18A 8206   4.183   0.601   7.269 -0.7139  1.3075 -0.7376
   78CHL1  H18B 8207   4.312   0.657   7.166  0.6291 -2.1165  0.3499
   78CHL1  H18C 8208   4.350   0.616   7.335 -2.0475 -1.8179  1.4673
   78CHL1   C12 8209   4.111   0.861   7.286 -0.0239  0.6788  0.5400
   78CHL1  H12A 8210   4.024   0.804   7.325 -0.5615  0.2677 -1.1986
   78CHL1  H12B 8211   4.103   0.961   7.333  2.1545  0.2380  1.9856
   78CHL1   C11 8212   4.092   0.870   7.130 -0.2574  0.3861 -0.4585
   78CHL1  H11A 8213   4.083   0.766   7.092 -1.5599 -0.0367  0.9140
   78CHL1  H11B 8214   3.996   0.923   7.111 -0.9610 -0.7425 -0.2150
   78CHL1    C9 8215   4.208   0.953   7.061 -0.2355  0.2211 -0.7003
   78CHL1    H9 8216   4.170   1.048   7.104 -1.2660 -0.4371 -0.1267
   78CHL1   C10 8217   4.197   0.949   6.911 -0.2279  0.0518 -0.0419
   78CHL1   C19 8218   4.188   0.805   6.861 -0.3980  0.1264 -0.7002
   78CHL1  H19A 8219   4.188   0.798   6.750 -1.4809 -2.3506 -0.6007
   78CHL1  H19B 8220   4.277   0.746   6.891 -0.7110 -0.1370 -0.2788
   78CHL1  H19C 8221   4.091   0.762   6.894  1.3065 -0.8966  3.6130
   78CHL1    C1 8222   4.070   1.036   6.874 -1.0588 -0.4703  0.9448
   78CHL1   H1A 8223   3.980   0.983   6.912 -1.1504 -1.3175 -0.4079
   78CHL1   H1B 8224   4.068   1.132   6.930  1.5946  0.2325 -0.0162
   78CHL1    C2 8225   4.061   1.074   6.718  0.8008 -0.1059  0.1105
   78CHL1   H2A 8226   3.971   1.133   6.692 -1.1759 -3.2747 -0.7484
   78CHL1   H2B 8227   4.037   0.980   6.664  0.2634  0.1004 -0.0185
   78CHL1   C20 8228   4.239   0.702   7.576 -0.4851  0.4452 -0.1038
   78CHL1   H20 8229   4.274   0.601   7.544  1.3978 -0.4720  4.0347
   78CHL1   C21 8230   4.092   0.687   7.598 -0.6899  0.5117 -0.2639
   78CHL1  H21A 8231   4.061   0.621   7.682 -0.4478 -0.2210 -0.7332
   78CHL1  H21B 8232   4.050   0.642   7.505  2.2483 -0.3260 -1.3316
   78CHL1  H21C 8233   4.048   0.788   7.608 -0.3815  0.7601 -1.2742
   78CHL1   C22 8234   4.309   0.721   7.716 -0.2201  0.2854  0.0928
   78CHL1  H22A 8235   4.262   0.639   7.774  2.0550  1.4913  3.9853
   78CHL1  H22B 8236   4.418   0.702   7.718  0.2685  2.3079  4.1562
   78CHL1   C23 8237   4.279   0.851   7.792 -0.3304  0.6339  0.5010
   78CHL1  H23A 8238   4.340   0.934   7.751  1.8385 -1.6926 -1.2844
   78CHL1  H23B 8239   4.169   0.871   7.795 -0.6949 -1.0528 -0.5189
   78CHL1   C24 8240   4.338   0.830   7.937  0.4214  0.0175 -0.3642
   78CHL1  H24A 8241   4.315   0.731   7.982 -1.7640 -0.2234 -1.8572
   78CHL1  H24B 8242   4.447   0.820   7.919  0.2523 -0.1835 -1.3705
   78CHL1   C25 8243   4.288   0.940   8.033 -1.3071 -0.4618 -0.1356
   78CHL1   H25 8244   4.292   1.043   7.991 -0.7290 -0.4267  0.0022
   78CHL1   C26 8245   4.139   0.927   8.067 -0.0857  0.2076  0.9146
   78CHL1  H26A 8246   4.138   0.822   8.104  2.1610 -0.2731 -0.2039
   78CHL1  H26B 8247   4.096   0.994   8.144 -0.6377  1.2822 -0.2956
   78CHL1  H26C 8248   4.074   0.933   7.977  0.4052  1.5485  0.6296
   78CHL1   C27 8249   4.373   0.948   8.166  0.6461 -0.4682  0.2247
   78CHL1  H27A 8250   4.328   1.035   8.219  1.4800  1.2163 -1.6749
   78CHL1  H27B 8251   4.350   0.852   8.216 -1.3339 -1.4517 -2.3166
   78CHL1  H27C 8252   4.479   0.962   8.137  0.1258 -0.5639 -1.9429
   79CHL1    C3 8253   4.227   1.381   7.279 -0.5078  0.2719  0.0998
   79CHL1    H3 8254   4.225   1.492   7.276  0.0754  0.2645 -1.0837
   79CHL1    O3 8255   4.204   1.332   7.148 -0.1260 -0.0881 -0.0723
   79CHL1   H3' 8256   4.276   1.337   7.086 -0.8558 -2.1812 -1.1882
   79CHL1    C4 8257   4.360   1.332   7.322 -0.6856 -0.4650 -0.9980
   79CHL1   H4A 8258   4.363   1.221   7.318  2.2833 -0.5178  0.1524
   79CHL1   H4B 8259   4.434   1.379   7.254  0.0527  1.3748  0.9519
   79CHL1    C5 8260   4.390   1.386   7.462 -0.2342  0.0071  0.0180
   79CHL1    C6 8261   4.500   1.459   7.492 -0.1834 -0.2030 -0.9471
   79CHL1    H6 8262   4.580   1.475   7.418  1.4471  0.2919  0.8251
   79CHL1    C7 8263   4.533   1.508   7.631  0.5643 -0.9525  0.6978
   79CHL1   H7A 8264   4.636   1.488   7.667  0.6203  1.5069  2.1033
   79CHL1   H7B 8265   4.507   1.615   7.640  3.2751 -0.1342 -0.2230
   79CHL1    C8 8266   4.440   1.442   7.737  0.3845  0.3299 -0.1196
   79CHL1    H8 8267   4.474   1.337   7.751 -1.2169 -0.4624 -1.6973
   79CHL1   C14 8268   4.447   1.517   7.872  0.1208  0.5469  0.0374
   79CHL1   H14 8269   4.398   1.609   7.835 -0.2024 -1.3485 -5.0911
   79CHL1   C15 8270   4.584   1.545   7.929  0.2905 -0.2081  0.7313
   79CHL1  H15A 8271   4.649   1.455   7.931 -0.4419 -0.7968 -0.6387
   79CHL1  H15B 8272   4.635   1.624   7.870 -3.0482  1.3395 -0.3147
   79CHL1   C16 8273   4.552   1.595   8.071 -0.4604  0.0629  0.9179
   79CHL1  H16A 8274   4.613   1.530   8.138 -1.6146 -1.3773  0.6291
   79CHL1  H16B 8275   4.583   1.698   8.096 -1.1858  0.4122  0.4139
   79CHL1   C17 8276   4.402   1.569   8.098  0.3025 -0.4678 -0.4187
   79CHL1   H17 8277   4.351   1.665   8.080  0.4980 -0.1649  0.6187
   79CHL1   C13 8278   4.363   1.471   7.991 -0.6812 -0.1352  0.6803
   79CHL1   C18 8279   4.408   1.328   8.023  0.3091 -0.2349 -0.1802
   79CHL1  H18A 8280   4.344   1.280   8.100 -2.5360 -0.0697 -2.2597
   79CHL1  H18B 8281   4.402   1.255   7.940 -0.0564  0.1860 -0.5330
   79CHL1  H18C 8282   4.512   1.324   8.061  1.6324 -1.1701 -3.5430
   79CHL1   C12 8283   4.210   1.476   7.944  0.4730  0.2680 -0.1891
   79CHL1  H12A 8284   4.135   1.451   8.022 -1.9417  0.4450 -2.3322
   79CHL1  H12B 8285   4.203   1.584   7.921 -0.3731  0.0920 -0.7873
   79CHL1   C11 8286   4.199   1.394   7.808 -0.2089 -0.0260  0.0250
   79CHL1  H11A 8287   4.220   1.292   7.846 -2.9002  0.3866  3.1322
   79CHL1  H11B 8288   4.094   1.393   7.771 -0.2413 -0.9547  0.1308
   79CHL1    C9 8289   4.293   1.443   7.696  0.0431 -0.2309  0.4571
   79CHL1    H9 8290   4.268   1.550   7.679  3.2358  0.8539  1.8188
   79CHL1   C10 8291   4.276   1.359   7.566  0.5252 -0.2844 -0.7585
   79CHL1   C19 8292   4.278   1.199   7.594 -1.2575  0.1423 -0.1591
   79CHL1  H19A 8293   4.370   1.182   7.654 -0.0316  1.8354 -1.4568
   79CHL1  H19B 8294   4.188   1.169   7.653 -0.1357 -0.0983  1.5021
   79CHL1  H19C 8295   4.286   1.134   7.504  0.4910 -1.5047  1.1279
   79CHL1    C1 8296   4.135   1.402   7.510  0.8043  0.3388 -0.4288
   79CHL1   H1A 8297   4.051   1.368   7.574  0.5365  0.1881 -0.8552
   79CHL1   H1B 8298   4.149   1.512   7.498  0.0804  0.2891 -1.9974
   79CHL1    C2 8299   4.115   1.343   7.371 -0.3951 -0.0579  0.2856
   79CHL1   H2A 8300   4.022   1.391   7.333  0.6449  2.1937  0.4106
   79CHL1   H2B 8301   4.111   1.232   7.376  0.5256 -0.0919  0.4759
   79CHL1   C20 8302   4.381   1.530   8.240  0.1296 -0.4125 -0.3047
   79CHL1   H20 8303   4.441   1.438   8.256 -0.5344 -0.6686  0.8458
   79CHL1   C21 8304   4.233   1.487   8.270 -0.0918  0.1069 -0.2089
   79CHL1  H21A 8305   4.206   1.404   8.202  1.1759  0.4610 -1.1705
   79CHL1  H21B 8306   4.152   1.564   8.265  0.1390  0.2906 -1.2350
   79CHL1  H21C 8307   4.230   1.446   8.373 -0.1642  0.9822  0.1504
   79CHL1   C22 8308   4.418   1.644   8.339 -0.0847  0.3236  0.2498
   79CHL1  H22A 8309   4.515   1.688   8.309 -0.7011  0.9790 -0.8451
   79CHL1  H22B 8310   4.341   1.723   8.330 -0.5672 -0.0528  0.9629
   79CHL1   C23 8311   4.438   1.608   8.486  0.2149  0.5262 -0.0988
   79CHL1  H23A 8312   4.346   1.564   8.531 -0.0736  1.8382  0.6569
   79CHL1  H23B 8313   4.522   1.536   8.497  0.2581  0.8758  2.4649
   79CHL1   C24 8314   4.473   1.723   8.580  0.1910 -0.1359  0.1037
   79CHL1  H24A 8315   4.580   1.751   8.574  0.2662 -0.6496 -1.2992
   79CHL1  H24B 8316   4.406   1.808   8.554 -3.2555 -2.8589 -0.6618
   79CHL1   C25 8317   4.449   1.697   8.732 -0.1425 -0.3336  0.6858
   79CHL1   H25 8318   4.339   1.691   8.741 -0.4289  2.3801 -0.1440
   79CHL1   C26 8319   4.515   1.573   8.784  0.6901  1.1488  0.1082
   79CHL1  H26A 8320   4.477   1.483   8.730  0.2521  1.3464  0.0830
   79CHL1  H26B 8321   4.624   1.560   8.767  0.4551 -0.9048 -0.1089
   79CHL1  H26C 8322   4.487   1.555   8.890 -0.2741  1.4577 -0.0795
   79CHL1   C27 8323   4.485   1.813   8.827 -0.3878 -0.8570  0.3931
   79CHL1  H27A 8324   4.595   1.802   8.840 -0.6075 -2.1314  1.4344
   79CHL1  H27B 8325   4.473   1.913   8.781  1.0262 -0.9354 -0.2193
   79CHL1  H27C 8326   4.436   1.810   8.927  1.7249  0.4128  1.5419
   80CHL1    C3 8327   0.210   6.684   7.092 -0.0958 -0.6027  0.3010
   80CHL1    H3 8328   0.256   6.755   7.164 -0.0456 -0.6119  0.2776
   80CHL1    O3 8329   0.252   6.724   6.963 -0.1008 -0.4456  0.0717
   80CHL1   H3' 8330   0.204   6.660   6.909 -0.3852 -0.5661  0.4606
   80CHL1    C4 8331   0.245   6.543   7.121  1.6690 -0.4131 -0.5792
   80CHL1   H4A 8332   0.191   6.477   7.049 -0.3512 -0.8562  1.2291
   80CHL1   H4B 8333   0.354   6.544   7.100  1.4845  2.0549 -1.7406
   80CHL1    C5 8334   0.205   6.499   7.259 -0.0540 -0.0988 -0.3856
   80CHL1    C6 8335   0.295   6.447   7.344  0.3067  0.0744  0.0657
   80CHL1    H6 8336   0.400   6.459   7.314  0.1447 -1.0104 -0.9935
   80CHL1    C7 8337   0.261   6.398   7.487 -1.0888  0.3187  0.8160
   80CHL1   H7A 8338   0.306   6.296   7.494 -1.4144  0.0667 -0.5720
   80CHL1   H7B 8339   0.300   6.462   7.569 -1.4328 -0.6204  1.7465
   80CHL1    C8 8340   0.104   6.382   7.524 -0.1298 -0.8343  0.3443
   80CHL1    H8 8341   0.069   6.288   7.477 -2.5923  0.0458  0.2970
   80CHL1   C14 8342   0.083   6.393   7.675 -0.3999  0.2362  0.0574
   80CHL1   H14 8343   0.127   6.492   7.700  0.0530  0.0198  0.1383
   80CHL1   C15 8344   0.166   6.294   7.757  0.6500  1.0652 -0.3273
   80CHL1  H15A 8345   0.165   6.187   7.727  0.5367  1.1359 -0.5848
   80CHL1  H15B 8346   0.269   6.332   7.771  0.8703 -0.0086  1.2592
   80CHL1   C16 8347   0.083   6.290   7.888 -0.6504  0.0103  0.0284
   80CHL1  H16A 8348   0.057   6.183   7.902 -0.2494 -0.5578 -2.9748
   80CHL1  H16B 8349   0.139   6.315   7.981 -0.7440  1.0247 -0.1747
   80CHL1   C17 8350  -0.035   6.383   7.869  0.2749  0.1068 -0.0845
   80CHL1   H17 8351  -0.003   6.486   7.896 -2.4539  0.6431  1.5729
   80CHL1   C13 8352  -0.059   6.389   7.719 -0.2318  0.1179  0.2362
   80CHL1   C18 8353  -0.123   6.250   7.681  0.6789  0.3602  0.1597
   80CHL1  H18A 8354  -0.233   6.259   7.697  0.9332  2.0052  1.2488
   80CHL1  H18B 8355  -0.105   6.238   7.572 -1.0488 -2.9466  0.0962
   80CHL1  H18C 8356  -0.083   6.161   7.733  0.1528 -0.6127 -1.0392
   80CHL1   C12 8357  -0.127   6.509   7.651 -0.1100  0.7654 -0.4361
   80CHL1  H12A 8358  -0.237   6.509   7.667 -0.1938  0.4290 -0.9831
   80CHL1  H12B 8359  -0.077   6.594   7.703  1.6603 -0.3715 -0.1943
   80CHL1   C11 8360  -0.115   6.510   7.496 -0.1219 -0.7026 -0.3284
   80CHL1  H11A 8361  -0.170   6.421   7.459 -0.7735 -0.8345  0.8945
   80CHL1  H11B 8362  -0.167   6.601   7.458  0.2573 -0.2939  0.1227
   80CHL1    C9 8363   0.029   6.501   7.454 -0.4682 -0.2427 -0.5189
   80CHL1    H9 8364   0.081   6.587   7.500  1.4191 -1.0948 -0.9688
   80CHL1   C10 8365   0.053   6.515   7.298  0.3198  0.1837  0.2749
   80CHL1   C19 8366  -0.036   6.411   7.229 -0.4176 -0.1900 -0.6747
   80CHL1  H19A 8367  -0.025   6.413   7.118 -1.0282 -1.9748 -0.7998
   80CHL1  H19B 8368  -0.010   6.313   7.275  0.6674  0.0629 -0.7242
   80CHL1  H19C 8369  -0.143   6.425   7.255 -0.5564 -1.3014 -0.6140
   80CHL1    C1 8370   0.009   6.656   7.257 -0.0381 -0.1156  0.4832
   80CHL1   H1A 8371  -0.101   6.663   7.268 -0.0777  3.4377 -0.8940
   80CHL1   H1B 8372   0.061   6.725   7.327 -0.0053  2.5810 -1.9763
   80CHL1    C2 8373   0.054   6.702   7.107 -0.3054  0.6668 -0.1431
   80CHL1   H2A 8374   0.022   6.808   7.115  1.4787  1.1012  3.2671
   80CHL1   H2B 8375   0.001   6.641   7.030 -2.2312  0.2525  1.4318
   80CHL1   C20 8376  -0.155   6.355   7.960  0.6543 -0.3097 -0.0908
   80CHL1   H20 8377  -0.194   6.255   7.929  2.0617 -0.4428 -1.5557
   80CHL1   C21 8378  -0.283   6.445   7.947 -0.3105  0.2726 -0.9463
   80CHL1  H21A 8379  -0.327   6.439   7.845  1.7870 -0.1610 -1.8610
   80CHL1  H21B 8380  -0.245   6.546   7.973 -1.4771  0.7308 -0.9527
   80CHL1  H21C 8381  -0.367   6.414   8.014  0.3899 -0.3217 -0.3308
   80CHL1   C22 8382  -0.125   6.356   8.117  0.2948  0.0266 -0.0723
   80CHL1  H22A 8383  -0.225   6.335   8.162 -0.6204  3.3129 -0.3104
   80CHL1  H22B 8384  -0.070   6.262   8.139  0.9808  0.3933 -0.1770
   80CHL1   C23 8385  -0.049   6.474   8.172  0.0391 -0.5758 -0.2242
   80CHL1  H23A 8386   0.051   6.495   8.129  0.4617 -2.0323  0.0042
   80CHL1  H23B 8387  -0.107   6.561   8.135  0.4839 -1.0820 -2.1909
   80CHL1   C24 8388  -0.028   6.480   8.326  0.6761  0.4237  0.4982
   80CHL1  H24A 8389   0.041   6.564   8.348  0.6079  0.3826  0.8726
   80CHL1  H24B 8390  -0.121   6.507   8.380  0.8104 -0.9053  1.4409
   80CHL1   C25 8391   0.025   6.362   8.410  0.0861  0.3915  0.5875
   80CHL1   H25 8392  -0.031   6.268   8.392  1.5791 -1.1643  3.3830
   80CHL1   C26 8393   0.166   6.320   8.372  0.5921 -0.2145  0.4904
   80CHL1  H26A 8394   0.206   6.240   8.438 -1.1625 -0.4793  1.3023
   80CHL1  H26B 8395   0.164   6.286   8.267 -2.3832 -1.4607  0.8358
   80CHL1  H26C 8396   0.234   6.407   8.381 -0.1527  0.3670  0.6455
   80CHL1   C27 8397   0.006   6.386   8.558 -0.3838 -0.3711 -0.3001
   80CHL1  H27A 8398   0.020   6.490   8.594  2.0196 -0.3466 -1.0769
   80CHL1  H27B 8399  -0.099   6.357   8.576 -0.4928 -0.3325 -0.8491
   80CHL1  H27C 8400   0.061   6.306   8.611  1.6495  1.6246  0.7882
   81CHL1    C3 8401   1.391   0.469   7.132 -0.0694  1.1109  0.9975
   81CHL1    H3 8402   1.411   0.364   7.161 -0.4587  0.3357 -1.3353
   81CHL1    O3 8403   1.422   0.479   6.993 -0.1223 -0.0295 -0.1867
   81CHL1   H3' 8404   1.422   0.391   6.955  1.3514  0.9428 -2.7100
   81CHL1    C4 8405   1.248   0.507   7.157  0.7953 -0.1648 -0.3059
   81CHL1   H4A 8406   1.234   0.613   7.128 -2.1004  0.0989  1.5937
   81CHL1   H4B 8407   1.182   0.439   7.099 -1.1705  0.2300  1.3629
   81CHL1    C5 8408   1.205   0.494   7.303  0.1812  0.4037  0.4853
   81CHL1    C6 8409   1.099   0.417   7.339  0.0707 -0.1535 -0.3664
   81CHL1    H6 8410   1.031   0.390   7.258 -0.9524 -1.2999  0.8333
   81CHL1    C7 8411   1.069   0.390   7.481  0.2685  1.0218  0.1653
   81CHL1   H7A 8412   0.963   0.420   7.499 -1.1461 -2.3540 -1.4885
   81CHL1   H7B 8413   1.066   0.280   7.496 -0.2497  1.1931  1.4397
   81CHL1    C8 8414   1.146   0.450   7.592 -0.7649  0.1377 -0.3486
   81CHL1    H8 8415   1.094   0.540   7.630  0.1103 -0.1811  1.7157
   81CHL1   C14 8416   1.154   0.361   7.713  0.3258 -0.0710 -0.4644
   81CHL1   H14 8417   1.203   0.263   7.694 -2.5028 -2.1098  1.7541
   81CHL1   C15 8418   1.019   0.313   7.771 -0.2904  0.3172 -0.2671
   81CHL1  H15A 8419   0.942   0.393   7.770 -0.5248  0.1106  0.5562
   81CHL1  H15B 8420   0.994   0.225   7.707 -0.6333  0.3122 -0.1282
   81CHL1   C16 8421   1.055   0.267   7.913 -0.6816 -0.0773  0.3134
   81CHL1  H16A 8422   0.980   0.319   7.976 -0.2145  0.0059  0.8080
   81CHL1  H16B 8423   1.054   0.157   7.933  1.5383  0.1085  1.8408
   81CHL1   C17 8424   1.197   0.317   7.942 -0.9582  0.0973 -0.0606
   81CHL1   H17 8425   1.267   0.233   7.918 -2.0451 -0.4050 -1.6805
   81CHL1   C13 8426   1.221   0.424   7.834 -0.0637 -0.2164 -0.4829
   81CHL1   C18 8427   1.158   0.560   7.876  0.1124 -0.6095 -0.9567
   81CHL1  H18A 8428   1.202   0.608   7.966 -0.8410  1.0028 -1.3171
   81CHL1  H18B 8429   1.154   0.632   7.791  1.2534 -0.4788 -0.9074
   81CHL1  H18C 8430   1.053   0.546   7.910  0.4029 -2.7315 -0.8202
   81CHL1   C12 8431   1.368   0.447   7.796  0.2307  0.0259  0.0539
   81CHL1  H12A 8432   1.422   0.507   7.872  3.8844  0.4872 -2.6041
   81CHL1  H12B 8433   1.428   0.354   7.784  2.0117  1.3758 -2.7883
   81CHL1   C11 8434   1.378   0.538   7.666  0.1498 -0.3139 -1.1043
   81CHL1  H11A 8435   1.334   0.637   7.690  2.9507  0.6121  0.6990
   81CHL1  H11B 8436   1.486   0.547   7.638  0.1681  0.2420 -0.8530
   81CHL1    C9 8437   1.297   0.474   7.549  1.0944 -0.0045  0.2812
   81CHL1    H9 8438   1.338   0.372   7.533  2.0846  0.6334 -1.5257
   81CHL1   C10 8439   1.313   0.542   7.408 -1.3204 -0.4181  0.1995
   81CHL1   C19 8440   1.277   0.695   7.426 -0.5311 -0.3178  0.3118
   81CHL1  H19A 8441   1.270   0.749   7.329  2.6849  0.3511  0.3433
   81CHL1  H19B 8442   1.178   0.700   7.476 -0.2141  0.4684  0.8986
   81CHL1  H19C 8443   1.348   0.758   7.485  3.3816 -1.6112 -2.5535
   81CHL1    C1 8444   1.466   0.539   7.362  0.4039  0.0446  0.0946
   81CHL1   H1A 8445   1.528   0.606   7.425  1.5279 -1.4355  0.6169
   81CHL1   H1B 8446   1.513   0.440   7.374 -0.8277 -0.7944 -1.5505
   81CHL1    C2 8447   1.484   0.563   7.211 -0.0127 -0.1059 -0.3004
   81CHL1   H2A 8448   1.591   0.553   7.183  0.1845  0.7810  0.0909
   81CHL1   H2B 8449   1.459   0.666   7.177 -0.2288  0.7411  2.2352
   81CHL1   C20 8450   1.217   0.353   8.087 -0.0453 -0.8411  0.4249
   81CHL1   H20 8451   1.147   0.435   8.113  0.2718 -1.1345  2.3439
   81CHL1   C21 8452   1.356   0.393   8.127  0.1235 -0.1072  0.1935
   81CHL1  H21A 8453   1.364   0.422   8.234 -2.8555 -0.1810  0.5081
   81CHL1  H21B 8454   1.395   0.474   8.061  3.0284 -1.5597 -0.0629
   81CHL1  H21C 8455   1.424   0.307   8.109 -0.0174 -0.1972  0.0932
   81CHL1   C22 8456   1.170   0.250   8.195  0.1225  0.1833  0.3279
   81CHL1  H22A 8457   1.162   0.299   8.294 -0.3649 -0.7520  0.7601
   81CHL1  H22B 8458   1.070   0.213   8.165  0.1912  1.0375 -1.0271
   81CHL1   C23 8459   1.263   0.131   8.212 -0.4147  0.6706  0.0776
   81CHL1  H23A 8460   1.270   0.084   8.112 -1.0954 -1.0797  0.8141
   81CHL1  H23B 8461   1.362   0.161   8.251 -1.0662  1.2343  1.3848
   81CHL1   C24 8462   1.233   0.028   8.318 -0.4186 -0.2427 -0.1814
   81CHL1  H24A 8463   1.308  -0.052   8.333  1.1679  0.9869 -1.2820
   81CHL1  H24B 8464   1.215   0.077   8.416 -0.2890 -0.1324 -0.2122
   81CHL1   C25 8465   1.110  -0.051   8.295 -0.3717  0.5636  0.4478
   81CHL1   H25 8466   1.024   0.019   8.305 -0.4424  0.5744 -0.1808
   81CHL1   C26 8467   1.101  -0.121   8.155 -0.4455  0.4590  0.2100
   81CHL1  H26A 8468   1.142  -0.059   8.073  1.3613 -0.3610  0.4409
   81CHL1  H26B 8469   1.160  -0.215   8.152  1.6826  1.7529  0.2226
   81CHL1  H26C 8470   0.994  -0.147   8.139 -0.8128  1.2789  1.2542
   81CHL1   C27 8471   1.100  -0.162   8.405 -0.4412 -0.1557 -0.5408
   81CHL1  H27A 8472   1.003  -0.212   8.388 -1.3049  1.6441 -1.1700
   81CHL1  H27B 8473   1.184  -0.235   8.408  0.1948  0.5927  0.8614
   81CHL1  H27C 8474   1.108  -0.113   8.504  0.5327 -1.4019  0.0225
   82CHL1    C3 8475   1.621   0.014   7.087  0.0632  0.2933  0.7462
   82CHL1    H3 8476   1.550  -0.070   7.073  0.8080 -0.4993  1.5444
   82CHL1    O3 8477   1.644   0.078   6.962  0.3107 -0.1495  0.0605
   82CHL1   H3' 8478   1.680   0.165   6.979  4.4451 -1.4598 -0.7782
   82CHL1    C4 8479   1.576   0.116   7.198  0.0701 -0.0106  0.1391
   82CHL1   H4A 8480   1.666   0.181   7.193 -1.1969  1.7280 -1.3818
   82CHL1   H4B 8481   1.484   0.165   7.159 -1.5675 -1.8141  1.5321
   82CHL1    C5 8482   1.558   0.059   7.342  0.4337  0.1265  0.3937
   82CHL1    C6 8483   1.454   0.096   7.415  0.1645  0.2314  0.4018
   82CHL1    H6 8484   1.377   0.164   7.376 -0.6113 -0.9398 -0.1603
   82CHL1    C7 8485   1.444   0.042   7.553 -0.2912  0.3155  0.3600
   82CHL1   H7A 8486   1.397   0.115   7.622 -0.6251 -0.0822  0.5519
   82CHL1   H7B 8487   1.371  -0.041   7.547 -0.7908  0.8386 -2.2727
   82CHL1    C8 8488   1.576  -0.008   7.616 -0.0930  0.1094 -0.2630
   82CHL1    H8 8489   1.634   0.081   7.648 -0.5130  0.1096  0.5232
   82CHL1   C14 8490   1.538  -0.089   7.739  0.1269  0.7730 -0.0591
   82CHL1   H14 8491   1.488  -0.180   7.698 -0.0366  1.5309 -1.6001
   82CHL1   C15 8492   1.439  -0.025   7.836  0.2593  0.4254  0.6804
   82CHL1  H15A 8493   1.450   0.085   7.850  1.1644  0.4223  0.0296
   82CHL1  H15B 8494   1.338  -0.057   7.803  0.8769 -1.3714  0.4520
   82CHL1   C16 8495   1.471  -0.098   7.973 -0.4295  0.0073 -0.5117
   82CHL1  H16A 8496   1.492  -0.028   8.057 -2.4250 -1.3907  1.2483
   82CHL1  H16B 8497   1.373  -0.143   8.000 -1.2507  1.1646 -1.3917
   82CHL1   C17 8498   1.589  -0.200   7.946  0.0249  0.2440 -0.1639
   82CHL1   H17 8499   1.543  -0.293   7.907  0.1172  0.7744 -1.5814
   82CHL1   C13 8500   1.664  -0.138   7.820 -0.3588 -0.0306  0.0681
   82CHL1   C18 8501   1.756  -0.019   7.862  0.2261  0.1482  0.1995
   82CHL1  H18A 8502   1.801   0.024   7.770  0.6676 -0.0991  0.2971
   82CHL1  H18B 8503   1.693   0.038   7.934 -0.3338 -0.0377 -0.1356
   82CHL1  H18C 8504   1.836  -0.072   7.918 -0.0500 -1.7887 -1.1041
   82CHL1   C12 8505   1.742  -0.228   7.726  0.4040  0.1864  0.2374
   82CHL1  H12A 8506   1.828  -0.276   7.778  1.6754  0.9101 -1.0964
   82CHL1  H12B 8507   1.678  -0.317   7.709  0.2698 -0.1014  2.0941
   82CHL1   C11 8508   1.774  -0.156   7.595 -0.4295  0.2904  0.6296
   82CHL1  H11A 8509   1.855  -0.082   7.612 -0.0814 -0.0353  0.4200
   82CHL1  H11B 8510   1.813  -0.228   7.520 -1.4482  1.9036 -1.5752
   82CHL1    C9 8511   1.655  -0.090   7.523 -0.3733 -0.4493  0.0070
   82CHL1    H9 8512   1.597  -0.180   7.495 -0.7821  0.2043 -1.3163
   82CHL1   C10 8513   1.676  -0.019   7.383 -0.1082 -0.1751 -0.4792
   82CHL1   C19 8514   1.798   0.069   7.406  0.1566  0.1378 -0.1750
   82CHL1  H19A 8515   1.827   0.129   7.317 -0.1121  1.0659  0.3408
   82CHL1  H19B 8516   1.776   0.137   7.492  0.2170 -1.0085  0.7688
   82CHL1  H19C 8517   1.887   0.008   7.432  1.1038 -0.0192 -3.4469
   82CHL1    C1 8518   1.717  -0.120   7.274  0.2023 -0.4781  0.0925
   82CHL1   H1A 8519   1.808  -0.179   7.300  0.6303 -0.9604 -2.2718
   82CHL1   H1B 8520   1.634  -0.191   7.255  0.1392 -0.6693  1.0064
   82CHL1    C2 8521   1.751  -0.062   7.132  0.2594 -0.9169 -0.2764
   82CHL1   H2A 8522   1.763  -0.141   7.055  1.7986  0.0606 -1.1003
   82CHL1   H2B 8523   1.842   0.002   7.127 -1.2384  1.2536 -1.2416
   82CHL1   C20 8524   1.669  -0.235   8.073 -0.0264  0.7745 -0.5027
   82CHL1   H20 8525   1.736  -0.150   8.100 -0.5510  0.6816  1.2187
   82CHL1   C21 8526   1.755  -0.368   8.052 -0.3973 -0.6929  0.5821
   82CHL1  H21A 8527   1.695  -0.445   7.999 -1.0812  0.3921 -0.2652
   82CHL1  H21B 8528   1.786  -0.400   8.154  2.3068 -1.0430 -0.2644
   82CHL1  H21C 8529   1.849  -0.347   7.997  0.2061  2.0150  2.4413
   82CHL1   C22 8530   1.571  -0.265   8.191  0.0616 -0.0800 -0.0440
   82CHL1  H22A 8531   1.490  -0.190   8.202 -0.1933 -0.4003  0.2567
   82CHL1  H22B 8532   1.523  -0.363   8.170  0.4324 -0.4588  0.8414
   82CHL1   C23 8533   1.632  -0.270   8.333  0.3359  0.4417 -0.1668
   82CHL1  H23A 8534   1.712  -0.344   8.356  0.2570  0.3608 -0.1454
   82CHL1  H23B 8535   1.683  -0.173   8.350 -1.0708  1.0062  1.0078
   82CHL1   C24 8536   1.525  -0.249   8.446 -0.9696 -0.0865 -0.3333
   82CHL1  H24A 8537   1.450  -0.181   8.400  0.2983 -0.0794 -2.5216
   82CHL1  H24B 8538   1.476  -0.347   8.466 -1.0071 -0.2389 -1.1630
   82CHL1   C25 8539   1.588  -0.200   8.576  0.3154 -0.2093 -0.0387
   82CHL1   H25 8540   1.672  -0.268   8.602 -1.0496 -1.7185  0.6418
   82CHL1   C26 8541   1.636  -0.056   8.567 -0.5706 -0.5926  0.0818
   82CHL1  H26A 8542   1.687  -0.021   8.660  0.3911 -1.4462 -0.1129
   82CHL1  H26B 8543   1.713  -0.035   8.490 -1.0479  0.2680 -0.1751
   82CHL1  H26C 8544   1.550   0.010   8.541 -0.6108 -0.7252 -0.1226
   82CHL1   C27 8545   1.491  -0.221   8.693 -0.1536  0.8723  0.0946
   82CHL1  H27A 8546   1.433  -0.315   8.681  1.4488 -0.1504  0.0167
   82CHL1  H27B 8547   1.550  -0.206   8.786  1.8146  0.9917 -1.1047
   82CHL1  H27C 8548   1.423  -0.133   8.685  1.1950  1.7938 -2.4898
   83CHL1    C3 8549   3.584   1.799   7.022 -0.1568  0.1098 -0.4169
   83CHL1    H3 8550   3.498   1.851   7.070 -3.3310 -4.6255 -0.3517
   83CHL1    O3 8551   3.563   1.796   6.885 -0.5189 -0.0182  0.3696
   83CHL1   H3' 8552   3.644   1.754   6.856 -1.3463 -1.3128 -0.1683
   83CHL1    C4 8553   3.706   1.879   7.049 -0.6723 -0.3676 -0.7966
   83CHL1   H4A 8554   3.791   1.834   6.993  1.2540  2.3884 -0.3102
   83CHL1   H4B 8555   3.692   1.984   7.015  1.5503  0.5175  0.7907
   83CHL1    C5 8556   3.743   1.889   7.200 -0.0376 -0.8591 -0.6667
   83CHL1    C6 8557   3.766   2.006   7.257  0.9196  0.0983  0.9287
   83CHL1    H6 8558   3.755   2.094   7.192 -1.6115  0.3789  1.6262
   83CHL1    C7 8559   3.791   2.017   7.406  0.0970  0.0297  0.0588
   83CHL1   H7A 8560   3.872   2.092   7.419 -0.9146  1.0427  0.7292
   83CHL1   H7B 8561   3.698   2.059   7.450 -0.5874 -1.2001 -0.1721
   83CHL1    C8 8562   3.842   1.887   7.472  0.9022  0.3672 -0.0123
   83CHL1    H8 8563   3.951   1.874   7.454  1.0070  0.0826  0.7844
   83CHL1   C14 8564   3.833   1.911   7.622  0.2046  0.0132 -0.0380
   83CHL1   H14 8565   3.727   1.930   7.650 -0.3243 -3.1749  0.4739
   83CHL1   C15 8566   3.909   2.023   7.689 -0.7536  1.0520 -0.1268
   83CHL1  H15A 8567   4.010   2.038   7.644 -0.7930 -2.4687 -1.6831
   83CHL1  H15B 8568   3.857   2.117   7.661 -1.3254  0.6774 -0.3381
   83CHL1   C16 8569   3.914   1.978   7.839 -0.4185  0.2786 -0.1730
   83CHL1  H16A 8570   4.015   1.976   7.886 -0.3740  0.9487 -0.2268
   83CHL1  H16B 8571   3.853   2.042   7.905  1.1912  0.8197  0.8555
   83CHL1   C17 8572   3.858   1.831   7.845  0.2111 -0.7302  0.1143
   83CHL1   H17 8573   3.748   1.823   7.856  0.2817  0.2888  2.0884
   83CHL1   C13 8574   3.883   1.782   7.700  0.4025 -0.7410 -0.3743
   83CHL1   C18 8575   4.026   1.747   7.678 -0.1709  0.4071  0.5666
   83CHL1  H18A 8576   4.098   1.824   7.712  0.9050 -0.8897  1.3497
   83CHL1  H18B 8577   4.058   1.648   7.718  0.1093  0.6914  1.0523
   83CHL1  H18C 8578   4.043   1.746   7.568 -0.6959 -1.0346  0.4688
   83CHL1   C12 8579   3.793   1.667   7.651 -0.2362  0.2152  0.1680
   83CHL1  H12A 8580   3.817   1.578   7.713 -0.6057  1.0384  1.5200
   83CHL1  H12B 8581   3.688   1.701   7.664 -0.2923  0.5130 -0.9779
   83CHL1   C11 8582   3.793   1.636   7.498 -0.5965 -0.1230  0.0016
   83CHL1  H11A 8583   3.888   1.587   7.468 -0.8794 -2.5041  2.5660
   83CHL1  H11B 8584   3.716   1.561   7.470 -1.3478  0.7493 -0.3004
   83CHL1    C9 8585   3.763   1.766   7.425  0.1420 -0.3842  0.6332
   83CHL1    H9 8586   3.660   1.796   7.454 -0.3272 -1.3780  0.0420
   83CHL1   C10 8587   3.748   1.751   7.267 -0.0846 -0.0808 -0.2223
   83CHL1   C19 8588   3.876   1.693   7.221 -0.1247  0.7171  0.3274
   83CHL1  H19A 8589   3.897   1.703   7.113  0.6203 -0.7241  0.3146
   83CHL1  H19B 8590   3.966   1.727   7.277 -0.2634 -0.7598  1.5334
   83CHL1  H19C 8591   3.862   1.583   7.234 -1.4062  0.6596 -1.2635
   83CHL1    C1 8592   3.618   1.679   7.234 -0.1463 -0.2447  0.7622
   83CHL1   H1A 8593   3.633   1.571   7.259 -0.3775 -0.7715 -1.1925
   83CHL1   H1B 8594   3.536   1.730   7.289  0.2942  1.7117 -0.3344
   83CHL1    C2 8595   3.593   1.665   7.087  0.4520  0.3647  0.5320
   83CHL1   H2A 8596   3.496   1.616   7.063 -0.1215  1.9927 -0.5650
   83CHL1   H2B 8597   3.679   1.608   7.044  0.3400 -0.4781  1.3805
   83CHL1   C20 8598   3.916   1.750   7.960 -0.0106  0.1101  0.0151
   83CHL1   H20 8599   4.023   1.720   7.953 -0.3553 -0.9793 -0.9908
   83CHL1   C21 8600   3.839   1.613   7.976 -0.8668 -0.6687  0.6101
   83CHL1  H21A 8601   3.736   1.631   7.939 -0.6799  3.7219  1.6796
   83CHL1  H21B 8602   3.835   1.571   8.078 -0.6850  0.0768  0.9276
   83CHL1  H21C 8603   3.900   1.540   7.918  0.9672  1.4917 -0.3198
   83CHL1   C22 8604   3.899   1.829   8.098  0.1833 -0.3054 -0.1532
   83CHL1  H22A 8605   3.942   1.930   8.077  1.0187 -0.9559 -1.7351
   83CHL1  H22B 8606   3.790   1.825   8.122  0.7722 -1.8517  2.5722
   83CHL1   C23 8607   3.976   1.768   8.209 -0.0547 -0.1290 -0.2180
   83CHL1  H23A 8608   3.935   1.668   8.234 -1.2611 -0.0435 -1.6794
   83CHL1  H23B 8609   4.083   1.769   8.177 -0.0165  1.7043 -0.1086
   83CHL1   C24 8610   3.961   1.864   8.326  0.0913 -0.6020 -0.0289
   83CHL1  H24A 8611   3.980   1.966   8.286  0.6820  0.6353  3.1714
   83CHL1  H24B 8612   3.855   1.855   8.358  0.4511 -2.9207  0.6929
   83CHL1   C25 8613   4.065   1.834   8.434  0.3995  0.2528  0.2251
   83CHL1   H25 8614   4.162   1.828   8.380 -0.0727  2.8878 -1.0485
   83CHL1   C26 8615   4.074   1.948   8.526  0.0993 -0.3188  0.8789
   83CHL1  H26A 8616   4.155   1.933   8.600  0.9414  0.5278  0.1480
   83CHL1  H26B 8617   4.095   2.041   8.470 -1.8525 -0.5031 -0.2414
   83CHL1  H26C 8618   3.974   1.966   8.570  0.0878 -0.4175  0.8943
   83CHL1   C27 8619   4.038   1.704   8.512  0.0672  0.3686 -0.1062
   83CHL1  H27A 8620   4.125   1.677   8.574  0.2525 -0.2887 -0.6391
   83CHL1  H27B 8621   3.943   1.701   8.570  0.2182 -0.2378  0.1147
   83CHL1  H27C 8622   4.034   1.615   8.445  0.5267 -1.5890  2.3311
   84CHL1    C3 8623   6.014   3.808   6.832 -0.4453  0.4408  0.3974
   84CHL1    H3 8624   5.912   3.851   6.840 -0.6994  0.4076 -2.0564
   84CHL1    O3 8625   6.051   3.785   6.693  0.1629  0.5390 -0.0576
   84CHL1   H3' 8626   6.136   3.827   6.678  1.5621 -2.4699 -1.4303
   84CHL1    C4 8627   6.121   3.908   6.880 -0.3978  0.1761  0.1458
   84CHL1   H4A 8628   6.222   3.864   6.862  0.4017  1.8657  0.2872
   84CHL1   H4B 8629   6.118   4.000   6.819  1.8234  0.1745 -0.0564
   84CHL1    C5 8630   6.120   3.946   7.022 -0.3008  0.7987 -0.0409
   84CHL1    C6 8631   6.123   4.077   7.060 -0.9715  0.0091  0.1079
   84CHL1    H6 8632   6.119   4.157   6.984 -0.9631  0.1130  0.2180
   84CHL1    C7 8633   6.123   4.113   7.209 -0.0398  0.1468  0.6554
   84CHL1   H7A 8634   6.201   4.187   7.238 -1.8029  1.7627  1.4592
   84CHL1   H7B 8635   6.030   4.171   7.221  0.6782  1.6177 -0.5617
   84CHL1    C8 8636   6.154   3.990   7.306  1.3384 -0.3774 -0.5065
   84CHL1    H8 8637   6.262   3.968   7.310  1.0000 -2.2325 -0.4016
   84CHL1   C14 8638   6.105   4.040   7.445  0.5530  0.4244 -0.2259
   84CHL1   H14 8639   5.995   4.056   7.444  0.7076  2.0159  1.7607
   84CHL1   C15 8640   6.162   4.173   7.507  1.2139  0.4346 -0.5624
   84CHL1  H15A 8641   6.273   4.184   7.497  1.8610 -1.5239  2.8531
   84CHL1  H15B 8642   6.117   4.268   7.474 -0.4728  0.1186  0.7191
   84CHL1   C16 8643   6.142   4.151   7.655 -0.0321 -0.8609 -0.2367
   84CHL1  H16A 8644   6.230   4.165   7.721  0.1103 -0.8481 -0.4279
   84CHL1  H16B 8645   6.067   4.216   7.705  1.2217 -0.0983  0.7293
   84CHL1   C17 8646   6.081   4.003   7.683  0.4022 -0.6964  0.1038
   84CHL1   H17 8647   5.971   4.018   7.679  0.3767 -0.3921  1.5156
   84CHL1   C13 8648   6.122   3.931   7.552 -0.0899 -0.9811 -0.4883
   84CHL1   C18 8649   6.272   3.899   7.563  0.2133 -0.5338  0.1429
   84CHL1  H18A 8650   6.289   3.816   7.634  0.8577 -0.7641 -0.2748
   84CHL1  H18B 8651   6.315   3.850   7.473  0.8050  2.6759 -1.4659
   84CHL1  H18C 8652   6.343   3.979   7.594  0.0921  0.1013 -1.1662
   84CHL1   C12 8653   6.046   3.812   7.506 -0.1543 -0.7014  0.1908
   84CHL1  H12A 8654   6.056   3.735   7.585  3.0300 -0.1526  0.4596
   84CHL1  H12B 8655   5.938   3.836   7.498 -0.4369 -1.6650  0.9356
   84CHL1   C11 8656   6.086   3.758   7.366  0.7108  0.8096 -0.0136
   84CHL1  H11A 8657   6.193   3.730   7.368 -0.0130 -2.3303  0.8434
   84CHL1  H11B 8658   6.017   3.673   7.344  2.3705 -2.0180  4.3246
   84CHL1    C9 8659   6.082   3.862   7.255 -0.2693 -0.7781 -0.3967
   84CHL1    H9 8660   5.976   3.893   7.245 -0.8507 -1.5390  2.4425
   84CHL1   C10 8661   6.126   3.821   7.113 -0.3711 -0.7417 -0.3919
   84CHL1   C19 8662   6.262   3.756   7.112 -0.0896  0.2951 -0.0697
   84CHL1  H19A 8663   6.298   3.718   7.014 -1.0454 -0.1835 -0.2408
   84CHL1  H19B 8664   6.336   3.827   7.156 -1.4351  0.5704  1.9063
   84CHL1  H19C 8665   6.260   3.669   7.181 -2.1246  1.2606  1.1777
   84CHL1    C1 8666   6.028   3.711   7.069  0.0023  0.8654  0.7975
   84CHL1   H1A 8667   6.049   3.612   7.115 -0.9343  0.5605  0.5996
   84CHL1   H1B 8668   5.923   3.733   7.098  0.3573 -0.3098  3.1725
   84CHL1    C2 8669   6.031   3.685   6.911  0.3545  0.5562  0.1676
   84CHL1   H2A 8670   5.970   3.599   6.877 -2.3284  0.4319  4.5482
   84CHL1   H2B 8671   6.133   3.646   6.889  0.4077  0.2874  0.8632
   84CHL1   C20 8672   6.116   3.953   7.825  0.0010  0.4226  0.1534
   84CHL1   H20 8673   6.225   3.929   7.828 -0.1351 -0.9233 -2.5754
   84CHL1   C21 8674   6.048   3.816   7.839  0.1453 -0.6234 -0.2648
   84CHL1  H21A 8675   5.940   3.810   7.812  0.6344 -0.7212 -2.3721
   84CHL1  H21B 8676   6.063   3.783   7.944  0.7117 -1.3637 -0.5727
   84CHL1  H21C 8677   6.100   3.741   7.776  1.1694  0.8732 -1.2449
   84CHL1   C22 8678   6.080   4.035   7.943  0.0440 -0.3571 -0.0261
   84CHL1  H22A 8679   6.101   4.144   7.935 -0.8193 -0.1505  0.3292
   84CHL1  H22B 8680   5.970   4.032   7.961 -0.0213  2.0308  0.3441
   84CHL1   C23 8681   6.149   4.009   8.084  0.1763 -0.2046  0.1308
   84CHL1  H23A 8682   6.150   3.900   8.108 -1.9805  0.2365  2.7306
   84CHL1  H23B 8683   6.258   4.028   8.075  0.3180 -1.6567 -1.8861
   84CHL1   C24 8684   6.099   4.090   8.209  0.3460  0.5324  0.0504
   84CHL1  H24A 8685   6.135   4.194   8.198  1.0162  0.3074  0.0710
   84CHL1  H24B 8686   5.988   4.093   8.203  0.3365 -0.4321 -0.5093
   84CHL1   C25 8687   6.155   4.042   8.343 -0.1867  0.9745 -0.0043
   84CHL1   H25 8688   6.137   3.932   8.340 -0.8623  1.0775  0.0448
   84CHL1   C26 8689   6.309   4.063   8.339 -0.7748 -0.8875  0.3713
   84CHL1  H26A 8690   6.358   4.042   8.437 -0.5288 -0.0677  0.4336
   84CHL1  H26B 8691   6.361   4.015   8.254 -2.2442  2.2000 -2.4910
   84CHL1  H26C 8692   6.323   4.170   8.314 -1.6162 -0.9516 -0.4323
   84CHL1   C27 8693   6.078   4.091   8.464  0.2384  0.3016  0.7444
   84CHL1  H27A 8694   6.097   4.198   8.486  1.2219  0.7412 -1.8940
   84CHL1  H27B 8695   5.972   4.077   8.435  0.1057 -3.1087  2.3832
   84CHL1  H27C 8696   6.105   4.030   8.552  1.5177  1.6426  1.3344
   85CHL1    C3 8697   4.483   6.726   6.962  0.3189  0.0669  0.1365
   85CHL1    H3 8698   4.589   6.751   6.984 -0.5887  2.5630  2.3001
   85CHL1    O3 8699   4.443   6.770   6.832 -0.1057 -0.6601 -0.0608
   85CHL1   H3' 8700   4.349   6.756   6.824 -0.5025  0.4659  1.9186
   85CHL1    C4 8701   4.457   6.576   6.993 -0.4007 -0.1464  0.2665
   85CHL1   H4A 8702   4.357   6.550   6.954  0.3723 -0.0085 -1.9244
   85CHL1   H4B 8703   4.526   6.515   6.931  0.0284 -0.0428  0.6358
   85CHL1    C5 8704   4.477   6.530   7.138  0.7311  0.6665  1.0278
   85CHL1    C6 8705   4.539   6.424   7.179 -0.3662  0.2611  0.3138
   85CHL1    H6 8706   4.588   6.351   7.112 -1.6759  0.3499 -0.7796
   85CHL1    C7 8707   4.555   6.379   7.322 -0.7951  0.2177 -0.8070
   85CHL1   H7A 8708   4.527   6.274   7.344  0.6354 -0.3906 -1.7370
   85CHL1   H7B 8709   4.662   6.397   7.347 -1.1445 -0.6083  1.5682
   85CHL1    C8 8710   4.465   6.447   7.423  0.4328 -0.4900  0.0752
   85CHL1    H8 8711   4.365   6.399   7.417  0.2056 -0.2871  1.7763
   85CHL1   C14 8712   4.525   6.429   7.564 -0.0265 -0.5876 -0.8630
   85CHL1   H14 8713   4.626   6.471   7.550  0.1629 -0.9332 -0.5405
   85CHL1   C15 8714   4.552   6.290   7.617 -1.1834  0.7375 -0.3118
   85CHL1  H15A 8715   4.465   6.226   7.592 -0.7571 -0.9695  2.2253
   85CHL1  H15B 8716   4.647   6.255   7.571  0.2898  0.8647  2.4698
   85CHL1   C16 8717   4.558   6.313   7.769  0.1525  0.4949  0.3613
   85CHL1  H16A 8718   4.476   6.254   7.815 -1.3187  1.4154 -0.9973
   85CHL1  H16B 8719   4.655   6.274   7.808  0.4527  0.3930 -0.4441
   85CHL1   C17 8720   4.536   6.458   7.788 -0.5606 -0.7267 -0.0287
   85CHL1   H17 8721   4.634   6.511   7.789  0.2188 -2.0626  2.0654
   85CHL1   C13 8722   4.453   6.501   7.675  0.5659 -0.4199 -0.5432
   85CHL1   C18 8723   4.311   6.452   7.688 -0.4076  0.9231 -0.3001
   85CHL1  H18A 8724   4.250   6.453   7.596  0.0980 -3.0009 -0.8414
   85CHL1  H18B 8725   4.302   6.343   7.707  1.9559  1.0873  2.4007
   85CHL1  H18C 8726   4.253   6.502   7.768 -2.2892 -1.5302  0.0013
   85CHL1   C12 8727   4.447   6.655   7.644 -0.4465  0.1198  0.6159
   85CHL1  H12A 8728   4.385   6.710   7.719 -0.7143  2.2842 -1.0808
   85CHL1  H12B 8729   4.553   6.688   7.653 -0.5967  0.5488  0.8833
   85CHL1   C11 8730   4.394   6.677   7.501  0.4378  0.0847 -0.2279
   85CHL1  H11A 8731   4.288   6.643   7.505  1.1878 -2.6742 -1.3972
   85CHL1  H11B 8732   4.405   6.786   7.484 -0.6333  0.4401  1.1312
   85CHL1    C9 8733   4.457   6.596   7.391  0.0939  0.1051  0.5895
   85CHL1    H9 8734   4.564   6.625   7.403  0.4425 -0.2940 -1.3276
   85CHL1   C10 8735   4.414   6.633   7.244 -0.6931  0.4974  0.2990
   85CHL1   C19 8736   4.265   6.603   7.241 -0.0542  0.1021 -0.9159
   85CHL1  H19A 8737   4.207   6.690   7.280 -1.2034 -0.8501 -0.4087
   85CHL1  H19B 8738   4.227   6.603   7.137 -4.0193  0.5191  0.3333
   85CHL1  H19C 8739   4.235   6.507   7.288  0.2229  0.2086 -0.5108
   85CHL1    C1 8740   4.453   6.771   7.208 -1.3048 -0.5212 -0.2197
   85CHL1   H1A 8741   4.408   6.840   7.281 -2.3595 -0.7793 -0.6029
   85CHL1   H1B 8742   4.564   6.770   7.215 -1.3515 -2.4975  1.2832
   85CHL1    C2 8743   4.415   6.810   7.066 -0.5907  0.8331 -0.0613
   85CHL1   H2A 8744   4.465   6.908   7.053  1.5260 -0.2475 -0.4572
   85CHL1   H2B 8745   4.304   6.812   7.051 -0.6336 -0.9617 -0.2027
   85CHL1   C20 8746   4.486   6.489   7.931 -0.5048 -0.4397 -0.1833
   85CHL1   H20 8747   4.376   6.477   7.934 -0.3035 -3.2354 -0.9631
   85CHL1   C21 8748   4.523   6.637   7.971 -0.1288  0.1131 -0.0136
   85CHL1  H21A 8749   4.586   6.684   7.892 -1.4556 -1.7939 -2.3374
   85CHL1  H21B 8750   4.570   6.651   8.071 -1.2675  2.2649  0.2792
   85CHL1  H21C 8751   4.431   6.698   7.962  0.1455  0.8408  1.6644
   85CHL1   C22 8752   4.533   6.391   8.033 -0.1107 -0.1933 -0.8352
   85CHL1  H22A 8753   4.465   6.304   8.042 -1.4257  0.9413  0.9635
   85CHL1  H22B 8754   4.636   6.353   8.015  1.1716  1.7989  1.6560
   85CHL1   C23 8755   4.522   6.429   8.185 -0.8218 -0.2768  0.5229
   85CHL1  H23A 8756   4.611   6.494   8.199 -1.3581  0.5575  0.1771
   85CHL1  H23B 8757   4.424   6.476   8.207 -0.2691  2.2299 -1.7260
   85CHL1   C24 8758   4.545   6.313   8.280  0.1756  0.0044 -0.2716
   85CHL1  H24A 8759   4.452   6.253   8.274 -0.4734  0.7246  1.6982
   85CHL1  H24B 8760   4.629   6.253   8.238  1.6990  1.0062  1.2266
   85CHL1   C25 8761   4.581   6.328   8.425  0.0705 -0.0710 -0.4228
   85CHL1   H25 8762   4.691   6.343   8.428  0.3174 -1.7683  1.6919
   85CHL1   C26 8763   4.512   6.440   8.503 -0.2282 -0.1053  0.9123
   85CHL1  H26A 8764   4.411   6.408   8.535 -0.3447 -1.7048 -0.8822
   85CHL1  H26B 8765   4.549   6.450   8.607  1.7670  0.3004  0.2015
   85CHL1  H26C 8766   4.505   6.537   8.448  2.5088  0.7495  1.9163
   85CHL1   C27 8767   4.556   6.194   8.494  0.2363  0.0915 -0.1736
   85CHL1  H27A 8768   4.600   6.110   8.437 -0.3199  1.0685 -2.1177
   85CHL1  H27B 8769   4.600   6.199   8.596 -0.3931  0.1620  0.1053
   85CHL1  H27C 8770   4.447   6.171   8.490 -0.0916  1.4357  0.2825
   86CHL1    C3 8771   2.639   4.167   7.119 -0.0168  0.0714 -0.0514
   86CHL1    H3 8772   2.686   4.268   7.113 -1.1891  0.5966 -0.7560
   86CHL1    O3 8773   2.644   4.115   6.985  0.4557 -0.0810 -0.7211
   86CHL1   H3' 8774   2.572   4.147   6.931 -0.1194 -0.8574 -0.4382
   86CHL1    C4 8775   2.715   4.080   7.218 -0.1892  0.3647 -0.2766
   86CHL1   H4A 8776   2.661   3.983   7.208 -0.9095  0.8874 -1.6917
   86CHL1   H4B 8777   2.822   4.072   7.190 -0.0690 -1.5020  0.5224
   86CHL1    C5 8778   2.707   4.123   7.364 -0.0822  0.5862 -0.2837
   86CHL1    C6 8779   2.819   4.146   7.438 -0.1522  0.0830  1.1835
   86CHL1    H6 8780   2.917   4.129   7.390 -2.6290 -2.9490 -3.6659
   86CHL1    C7 8781   2.818   4.195   7.580 -0.3470  0.6827 -0.3183
   86CHL1   H7A 8782   2.893   4.134   7.634 -0.2747  0.1199 -1.0389
   86CHL1   H7B 8783   2.829   4.305   7.589  0.8084  0.5295  0.2953
   86CHL1    C8 8784   2.680   4.160   7.647  0.2162  0.5850 -0.2764
   86CHL1    H8 8785   2.664   4.050   7.644  1.3551  0.3677  0.8036
   86CHL1   C14 8786   2.675   4.231   7.784  0.5849  0.7538  0.3136
   86CHL1   H14 8787   2.693   4.340   7.767  0.6145  0.9455  1.4723
   86CHL1   C15 8788   2.789   4.204   7.887 -0.9728  0.1383  0.3412
   86CHL1  H15A 8789   2.796   4.093   7.892  1.4354 -0.1717 -4.3353
   86CHL1  H15B 8790   2.892   4.237   7.859 -0.3706 -1.0252  1.0637
   86CHL1   C16 8791   2.730   4.269   8.010  0.2645  0.5919 -0.3507
   86CHL1  H16A 8792   2.732   4.192   8.090  1.4415  1.4039  0.4285
   86CHL1  H16B 8793   2.784   4.353   8.059  2.1064 -0.8559  0.2235
   86CHL1   C17 8794   2.580   4.300   7.986  0.2204 -0.0598  1.1026
   86CHL1   H17 8795   2.562   4.406   7.958  0.1048 -0.7543 -1.7327
   86CHL1   C13 8796   2.539   4.228   7.858 -0.5907  0.9168 -0.3822
   86CHL1   C18 8797   2.499   4.078   7.880 -0.6611 -0.5417 -0.1459
   86CHL1  H18A 8798   2.584   4.033   7.935  0.3804 -0.4641 -1.6305
   86CHL1  H18B 8799   2.404   4.069   7.936 -0.8647 -1.0409 -0.5596
   86CHL1  H18C 8800   2.496   4.034   7.778  0.9977  5.0652 -3.0650
   86CHL1   C12 8801   2.442   4.301   7.761  0.2190  0.2061 -0.5178
   86CHL1  H12A 8802   2.340   4.314   7.804  0.0696 -4.2266  0.9279
   86CHL1  H12B 8803   2.477   4.403   7.733 -0.9866  0.2078 -2.2372
   86CHL1   C11 8804   2.438   4.229   7.626  1.2382  0.8991  0.4650
   86CHL1  H11A 8805   2.399   4.129   7.652 -0.5734  1.5051  0.1966
   86CHL1  H11B 8806   2.359   4.278   7.566 -0.2027  1.3454  2.6420
   86CHL1    C9 8807   2.572   4.218   7.557  0.3105  0.3398  0.3693
   86CHL1    H9 8808   2.604   4.320   7.529  0.0802  0.3801  0.2489
   86CHL1   C10 8809   2.559   4.149   7.414  0.2565 -0.1537 -0.7771
   86CHL1   C19 8810   2.482   4.017   7.430 -0.7514  0.1588  0.0103
   86CHL1  H19A 8811   2.542   3.952   7.498  0.4047  0.4282 -0.7172
   86CHL1  H19B 8812   2.381   4.034   7.471 -0.3412 -0.8824  1.5355
   86CHL1  H19C 8813   2.472   3.973   7.329  3.6306 -1.9698  0.2782
   86CHL1    C1 8814   2.495   4.240   7.310  0.2333 -0.1162  0.5888
   86CHL1   H1A 8815   2.389   4.249   7.340 -0.5534 -2.0665 -1.3645
   86CHL1   H1B 8816   2.548   4.338   7.304  2.4739 -1.3422 -0.9977
   86CHL1    C2 8817   2.494   4.190   7.161  0.2210  0.0968  0.4931
   86CHL1   H2A 8818   2.444   4.269   7.099 -1.9333 -0.7477  1.0618
   86CHL1   H2B 8819   2.440   4.094   7.150  1.4060 -0.4062 -1.5884
   86CHL1   C20 8820   2.490   4.287   8.112  0.4620 -0.8408 -1.0202
   86CHL1   H20 8821   2.476   4.181   8.142 -1.2973 -0.0996  1.0355
   86CHL1   C21 8822   2.344   4.326   8.077  0.0893  0.5318  1.3909
   86CHL1  H21A 8823   2.318   4.260   7.992 -0.9994  2.2171  0.3547
   86CHL1  H21B 8824   2.323   4.430   8.044 -2.4484 -0.5987 -0.9075
   86CHL1  H21C 8825   2.269   4.303   8.156 -0.0915 -0.6720  0.8861
   86CHL1   C22 8826   2.545   4.370   8.233 -0.5241 -0.4149 -0.6406
   86CHL1  H22A 8827   2.649   4.342   8.261 -0.1362  1.2605 -0.2754
   86CHL1  H22B 8828   2.550   4.477   8.201 -3.1340  0.4647  1.5673
   86CHL1   C23 8829   2.465   4.371   8.370 -0.1007  0.3677  0.1696
   86CHL1  H23A 8830   2.510   4.429   8.454 -1.2010  0.6426  0.5834
   86CHL1  H23B 8831   2.360   4.403   8.353 -0.4587 -0.8780 -0.0995
   86CHL1   C24 8832   2.452   4.218   8.418  0.2404 -0.3663 -0.5236
   86CHL1  H24A 8833   2.394   4.163   8.340 -1.6364 -1.5750  1.6057
   86CHL1  H24B 8834   2.553   4.174   8.429  0.3539  0.0159 -0.0432
   86CHL1   C25 8835   2.397   4.189   8.554  0.2222 -0.2485  1.0439
   86CHL1   H25 8836   2.312   4.258   8.571  0.9541  1.6110 -2.0299
   86CHL1   C26 8837   2.339   4.051   8.558 -0.7516  0.4640 -0.1166
   86CHL1  H26A 8838   2.424   3.980   8.543 -2.1300 -1.2173 -0.2756
   86CHL1  H26B 8839   2.281   4.023   8.649  0.0737 -1.4940 -0.1438
   86CHL1  H26C 8840   2.274   4.023   8.472 -0.3379 -1.0093  0.0192
   86CHL1   C27 8841   2.502   4.211   8.671  0.0075  1.0314  0.1416
   86CHL1  H27A 8842   2.590   4.145   8.656  0.1009  0.5023  2.5163
   86CHL1  H27B 8843   2.537   4.316   8.667  1.5925  0.5915  1.4310
   86CHL1  H27C 8844   2.453   4.191   8.769  0.0993 -0.6290 -0.1314
   87CHL1    C3 8845   3.221   1.630   7.154 -0.3074 -0.0598  0.4747
   87CHL1    H3 8846   3.297   1.708   7.177 -0.5491  0.2873  0.1035
   87CHL1    O3 8847   3.204   1.625   7.016  0.2300 -0.2286  0.2751
   87CHL1   H3' 8848   3.286   1.581   6.991 -1.4577 -3.1815 -0.5764
   87CHL1    C4 8849   3.254   1.491   7.192  0.6432 -0.1192 -0.2134
   87CHL1   H4A 8850   3.170   1.430   7.152 -2.2890  3.1877  0.3670
   87CHL1   H4B 8851   3.348   1.459   7.142  1.6958  2.7251 -0.2360
   87CHL1    C5 8852   3.263   1.485   7.341  0.6322  0.1263  0.0767
   87CHL1    C6 8853   3.372   1.439   7.410  1.0666  0.4166  0.0478
   87CHL1    H6 8854   3.445   1.390   7.344  0.8282 -0.1870  0.2289
   87CHL1    C7 8855   3.384   1.432   7.554 -0.7678 -0.1844  0.3164
   87CHL1   H7A 8856   3.446   1.347   7.589  1.1043  0.5872 -0.9867
   87CHL1   H7B 8857   3.448   1.520   7.576  0.6314 -0.1563 -3.1670
   87CHL1    C8 8858   3.255   1.444   7.633 -0.8746  0.2522  0.4111
   87CHL1    H8 8859   3.194   1.352   7.634  0.9240 -0.9698  0.9950
   87CHL1   C14 8860   3.283   1.475   7.776  0.4913  0.7258 -0.5403
   87CHL1   H14 8861   3.333   1.574   7.776 -1.2962  1.6924 -1.5098
   87CHL1   C15 8862   3.385   1.386   7.844  0.8291 -0.2504  0.5118
   87CHL1  H15A 8863   3.366   1.279   7.822  0.1363 -0.2415  1.0419
   87CHL1  H15B 8864   3.491   1.411   7.822  1.4967 -0.3044  3.2647
   87CHL1   C16 8865   3.351   1.407   7.998 -0.2472  0.0651  0.1119
   87CHL1  H16A 8866   3.317   1.310   8.039  0.4476 -0.6957 -1.0314
   87CHL1  H16B 8867   3.441   1.441   8.055 -1.0614  0.3141  1.2808
   87CHL1   C17 8868   3.237   1.509   8.007  0.1981  0.8910 -0.2599
   87CHL1   H17 8869   3.281   1.610   8.006 -0.3641  1.1438 -1.6335
   87CHL1   C13 8870   3.158   1.488   7.871  0.2969  0.0404 -0.4934
   87CHL1   C18 8871   3.078   1.357   7.875  0.0329  0.2519  0.3118
   87CHL1  H18A 8872   2.996   1.342   7.949 -0.1324 -1.0509 -0.1051
   87CHL1  H18B 8873   3.046   1.336   7.771 -1.9586  1.1814  0.7105
   87CHL1  H18C 8874   3.158   1.282   7.895 -1.7627 -1.3488  1.9227
   87CHL1   C12 8875   3.075   1.605   7.816  0.3986  0.1306  0.2648
   87CHL1  H12A 8876   2.975   1.598   7.865  0.6432 -1.2230  0.6242
   87CHL1  H12B 8877   3.120   1.703   7.843  0.2063 -0.2064  1.9380
   87CHL1   C11 8878   3.045   1.583   7.662  0.5512 -0.1561 -0.0289
   87CHL1  H11A 8879   2.966   1.508   7.642  1.8961 -1.4567 -0.6558
   87CHL1  H11B 8880   3.003   1.676   7.620  0.6126 -0.1187 -0.0075
   87CHL1    C9 8881   3.173   1.556   7.568 -0.2394  0.0472  0.0614
   87CHL1    H9 8882   3.233   1.648   7.583 -0.4291 -0.0613  1.7203
   87CHL1   C10 8883   3.147   1.535   7.418  0.0590 -0.3173 -0.0981
   87CHL1   C19 8884   3.035   1.424   7.394 -0.8680 -0.6713  1.0664
   87CHL1  H19A 8885   3.008   1.415   7.287  1.7219  0.7397  0.2114
   87CHL1  H19B 8886   3.082   1.329   7.426  0.2237 -0.1017  1.2059
   87CHL1  H19C 8887   2.949   1.460   7.455 -0.4601  2.9401 -0.2237
   87CHL1    C1 8888   3.090   1.670   7.366 -0.0221  0.9234  0.0733
   87CHL1   H1A 8889   2.987   1.689   7.403 -0.2430 -0.0723 -0.0057
   87CHL1   H1B 8890   3.155   1.755   7.394  2.0593 -0.4954 -0.1950
   87CHL1    C2 8891   3.085   1.674   7.216  0.7277  0.6007  0.5607
   87CHL1   H2A 8892   3.079   1.782   7.190  0.3007  0.1969 -1.1584
   87CHL1   H2B 8893   2.998   1.614   7.181  0.8953  0.4807  0.3500
   87CHL1   C20 8894   3.142   1.508   8.125 -0.8376 -0.5142 -0.2969
   87CHL1   H20 8895   3.055   1.441   8.108 -1.0224 -0.2483 -0.4040
   87CHL1   C21 8896   3.092   1.654   8.150 -0.3184  0.2901 -0.1245
   87CHL1  H21A 8897   3.175   1.726   8.171  1.1571 -0.4913 -2.7625
   87CHL1  H21B 8898   3.019   1.653   8.233 -0.9327 -1.6906 -0.6412
   87CHL1  H21C 8899   3.042   1.697   8.060 -2.1419 -1.8648 -0.2252
   87CHL1   C22 8900   3.195   1.453   8.263 -0.1086 -0.4037  0.4854
   87CHL1  H22A 8901   3.108   1.438   8.331 -0.9135  4.1970  0.7283
   87CHL1  H22B 8902   3.235   1.350   8.248  0.7484  0.0139 -0.1648
   87CHL1   C23 8903   3.318   1.532   8.324  0.3198 -0.3139 -0.3516
   87CHL1  H23A 8904   3.403   1.542   8.253  1.3413 -1.0907  0.7234
   87CHL1  H23B 8905   3.294   1.639   8.344 -0.7866 -0.1877 -2.0895
   87CHL1   C24 8906   3.370   1.463   8.453  0.5967  0.2062 -0.2109
   87CHL1  H24A 8907   3.276   1.418   8.491  2.0939 -1.3819  1.8780
   87CHL1  H24B 8908   3.435   1.375   8.431  0.0914 -0.1651 -0.2520
   87CHL1   C25 8909   3.441   1.559   8.558  0.8125 -0.2981 -0.0848
   87CHL1   H25 8910   3.459   1.500   8.650 -1.6537  0.6535  1.0966
   87CHL1   C26 8911   3.574   1.605   8.498  0.3905 -0.3416 -0.5849
   87CHL1  H26A 8912   3.635   1.514   8.479  0.9362 -0.6371  2.0955
   87CHL1  H26B 8913   3.556   1.657   8.402 -0.4924 -0.2272 -0.3656
   87CHL1  H26C 8914   3.624   1.670   8.573 -0.3781 -0.6610  0.2309
   87CHL1   C27 8915   3.349   1.684   8.601 -0.0821 -0.2373 -0.5677
   87CHL1  H27A 8916   3.253   1.634   8.623  0.1246  0.6505  2.8856
   87CHL1  H27B 8917   3.390   1.736   8.690 -2.5684  1.1299 -0.1492
   87CHL1  H27C 8918   3.338   1.764   8.525 -1.3457  2.9710  2.7155
   88CHL1    C3 8919   0.301   0.455   7.056 -0.0376  0.2108 -0.1870
   88CHL1    H3 8920   0.390   0.395   7.087  3.2283  3.2638 -2.8446
   88CHL1    O3 8921   0.280   0.417   6.925  0.1057  0.1643 -0.0310
   88CHL1   H3' 8922   0.280   0.321   6.918 -0.6686  0.2982 -3.5654
   88CHL1    C4 8923   0.179   0.419   7.145  0.2027  0.0809 -0.2478
   88CHL1   H4A 8924   0.090   0.462   7.094 -2.0757 -2.2084  1.5111
   88CHL1   H4B 8925   0.165   0.309   7.138  0.5283  0.0977 -1.2711
   88CHL1    C5 8926   0.190   0.471   7.285  0.0336  0.4561  0.7017
   88CHL1    C6 8927   0.170   0.388   7.386  0.2585 -0.0576  0.5415
   88CHL1    H6 8928   0.149   0.282   7.363  1.8636 -0.4394  0.7255
   88CHL1    C7 8929   0.176   0.433   7.529 -0.2276  0.3265 -0.3247
   88CHL1   H7A 8930   0.103   0.385   7.598  0.0015  2.7244  1.7593
   88CHL1   H7B 8931   0.272   0.393   7.568 -1.0454 -2.4177 -0.8870
   88CHL1    C8 8932   0.180   0.590   7.547 -0.0755  0.0116  0.2160
   88CHL1    H8 8933   0.074   0.623   7.536 -0.2207 -0.3485  0.5074
   88CHL1   C14 8934   0.226   0.634   7.685 -0.5427 -1.2149 -0.0349
   88CHL1   H14 8935   0.333   0.613   7.705  0.5153  2.7091 -0.7554
   88CHL1   C15 8936   0.156   0.556   7.799  0.4900 -1.3027 -0.4806
   88CHL1  H15A 8937   0.050   0.537   7.773  0.4013 -0.6024 -0.6512
   88CHL1  H15B 8938   0.190   0.452   7.816  0.5726 -1.4519 -1.5055
   88CHL1   C16 8939   0.161   0.655   7.915 -0.1528  0.7023  0.7200
   88CHL1  H16A 8940   0.059   0.685   7.948 -0.7148 -2.3173  2.0925
   88CHL1  H16B 8941   0.202   0.603   8.004 -0.5504  0.8454  0.9938
   88CHL1   C17 8942   0.241   0.779   7.867  0.1284  0.2286 -1.5317
   88CHL1   H17 8943   0.350   0.762   7.873  0.1338  0.7157  0.4822
   88CHL1   C13 8944   0.210   0.782   7.714 -0.1604 -0.4038  0.2148
   88CHL1   C18 8945   0.069   0.834   7.683  0.1877  0.4200  0.5766
   88CHL1  H18A 8946   0.034   0.831   7.577  0.6363 -0.1273  0.4374
   88CHL1  H18B 8947  -0.011   0.776   7.733 -0.7514  1.3285  0.1570
   88CHL1  H18C 8948   0.054   0.937   7.721  1.0896  0.5652  0.5689
   88CHL1   C12 8949   0.314   0.846   7.615 -0.7619 -0.2557 -0.1987
   88CHL1  H12A 8950   0.320   0.955   7.634  0.6711 -0.6547  1.9828
   88CHL1  H12B 8951   0.415   0.803   7.635 -0.5236  0.5146  0.2687
   88CHL1   C11 8952   0.290   0.811   7.465  0.1980 -0.2587 -0.1866
   88CHL1  H11A 8953   0.199   0.865   7.431 -0.1042  0.5111  1.6645
   88CHL1  H11B 8954   0.372   0.849   7.400  2.2054 -1.9636  1.1967
   88CHL1    C9 8955   0.267   0.657   7.441  0.2888  0.0309 -0.0584
   88CHL1    H9 8956   0.371   0.620   7.454  0.4338  0.2729 -0.4873
   88CHL1   C10 8957   0.225   0.617   7.293 -1.0738 -0.5378 -0.3959
   88CHL1   C19 8958   0.111   0.708   7.243 -0.5828 -0.0383  0.0691
   88CHL1  H19A 8959   0.080   0.676   7.141  2.0288 -4.0883  0.2925
   88CHL1  H19B 8960   0.030   0.698   7.318  0.0005 -0.0498  0.7157
   88CHL1  H19C 8961   0.146   0.813   7.248 -1.0843  0.3940 -3.4084
   88CHL1    C1 8962   0.348   0.652   7.205  0.5565 -0.1040  0.9268
   88CHL1   H1A 8963   0.363   0.761   7.217 -0.8500  0.4446 -1.5793
   88CHL1   H1B 8964   0.439   0.605   7.248 -1.1056 -3.2527  1.2945
   88CHL1    C2 8965   0.344   0.601   7.062  0.5645 -0.1020  0.2118
   88CHL1   H2A 8966   0.444   0.637   7.030  0.3574  0.5138  0.2557
   88CHL1   H2B 8967   0.274   0.662   7.001  0.1974  0.6147  1.3240
   88CHL1   C20 8968   0.208   0.902   7.958  0.5600 -0.8742 -0.8318
   88CHL1   H20 8969   0.099   0.925   7.959  0.9147  0.9593  0.7677
   88CHL1   C21 8970   0.276   1.028   7.904 -0.0615 -0.0661  0.3276
   88CHL1  H21A 8971   0.255   1.120   7.963  0.7536  0.1559  0.2860
   88CHL1  H21B 8972   0.242   1.058   7.802  0.9045  0.1728  0.0635
   88CHL1  H21C 8973   0.387   1.023   7.908 -0.0833 -0.1957  0.8578
   88CHL1   C22 8974   0.250   0.881   8.101  0.5397  0.5413 -0.1342
   88CHL1  H22A 8975   0.173   0.811   8.139 -1.2751  2.4846 -0.0041
   88CHL1  H22B 8976   0.350   0.833   8.096  0.8205  1.1029 -0.0912
   88CHL1   C23 8977   0.258   1.000   8.195  0.0110 -0.0593  0.4677
   88CHL1  H23A 8978   0.352   1.051   8.163  0.1521 -1.1082 -0.8819
   88CHL1  H23B 8979   0.170   1.065   8.175  0.4995  0.4183 -0.2074
   88CHL1   C24 8980   0.253   0.973   8.346  0.3954 -1.0445  0.0175
   88CHL1  H24A 8981   0.263   1.059   8.415  0.3535 -0.3554 -0.8069
   88CHL1  H24B 8982   0.157   0.926   8.374  0.1317 -0.3886  0.2270
   88CHL1   C25 8983   0.372   0.884   8.401  0.2804  0.2846 -0.0665
   88CHL1   H25 8984   0.369   0.782   8.357  3.6750  0.1880 -0.3311
   88CHL1   C26 8985   0.513   0.943   8.373 -0.1288 -0.1710 -0.5308
   88CHL1  H26A 8986   0.538   0.943   8.265  1.2744 -3.6554 -0.3134
   88CHL1  H26B 8987   0.520   1.047   8.411 -0.8848  0.5091 -2.1516
   88CHL1  H26C 8988   0.590   0.882   8.424 -2.7121 -2.3330  1.0781
   88CHL1   C27 8989   0.350   0.861   8.554  0.5409  0.6084 -0.0133
   88CHL1  H27A 8990   0.363   0.954   8.614  1.9348  0.6440 -0.3327
   88CHL1  H27B 8991   0.248   0.819   8.566  0.7897  0.4822  2.0796
   88CHL1  H27C 8992   0.423   0.790   8.598 -0.8845 -1.5220 -0.9266
   89CHL1    C3 8993   5.332   1.907   7.166 -0.0478  0.6509 -0.3687
   89CHL1    H3 8994   5.288   2.009   7.167 -0.8365  0.3685 -2.5660
   89CHL1    O3 8995   5.356   1.876   7.032 -0.1807  0.5209 -0.6429
   89CHL1   H3' 8996   5.268   1.853   7.001  0.2717  0.2899 -1.8145
   89CHL1    C4 8997   5.465   1.896   7.231 -0.1733  0.2960 -0.9142
   89CHL1   H4A 8998   5.502   1.795   7.203 -2.4641 -1.5069  1.9417
   89CHL1   H4B 8999   5.541   1.966   7.191  2.7359 -2.2691 -0.2522
   89CHL1    C5 9000   5.459   1.911   7.383 -0.1737 -0.0277  0.6973
   89CHL1    C6 9001   5.523   2.007   7.452  0.5963 -0.4130 -0.4583
   89CHL1    H6 9002   5.583   2.080   7.396 -0.0030 -0.1940 -0.8244
   89CHL1    C7 9003   5.510   2.030   7.598 -0.5877 -0.2978 -0.0094
   89CHL1   H7A 9004   5.606   2.051   7.651  0.6624 -1.5575 -1.6934
   89CHL1   H7B 9005   5.439   2.113   7.618 -0.2282  0.1555 -0.6021
   89CHL1    C8 9006   5.465   1.903   7.672 -0.2530  0.0962 -0.3297
   89CHL1    H8 9007   5.539   1.820   7.672 -0.6872 -0.4270  3.1513
   89CHL1   C14 9008   5.429   1.946   7.814  1.0135  0.5622  0.0580
   89CHL1   H14 9009   5.341   2.013   7.803 -0.2714 -1.1367 -0.6686
   89CHL1   C15 9010   5.522   2.027   7.899  0.6632  0.0391  0.3744
   89CHL1  H15A 9011   5.629   1.999   7.884  0.5053  0.0473 -0.8721
   89CHL1  H15B 9012   5.524   2.135   7.873 -0.3783 -0.7083 -3.4278
   89CHL1   C16 9013   5.482   1.996   8.045  0.3417  0.2563 -0.6399
   89CHL1  H16A 9014   5.562   1.935   8.094  0.8715  0.8273 -0.7793
   89CHL1  H16B 9015   5.474   2.088   8.107  2.6579  1.1867 -1.5921
   89CHL1   C17 9016   5.347   1.923   8.036  0.0002  0.6911 -0.1611
   89CHL1   H17 9017   5.268   1.993   8.001 -1.3896 -1.3010 -1.2197
   89CHL1   C13 9018   5.376   1.840   7.901  0.0920  0.0628  0.4946
   89CHL1   C18 9019   5.480   1.726   7.931 -0.0771 -0.6432 -0.2483
   89CHL1  H18A 9020   5.493   1.671   7.836 -1.6761 -0.7723 -0.4205
   89CHL1  H18B 9021   5.574   1.762   7.977 -0.6416 -2.9971  3.1487
   89CHL1  H18C 9022   5.430   1.661   8.006  1.0283  0.5443  1.6115
   89CHL1   C12 9023   5.251   1.777   7.840 -0.3993  0.5651 -0.4545
   89CHL1  H12A 9024   5.228   1.691   7.907 -0.2556  0.2331 -0.8294
   89CHL1  H12B 9025   5.162   1.843   7.843 -0.1493  0.8876  0.0982
   89CHL1   C11 9026   5.275   1.734   7.698  0.2732 -0.1334 -0.1318
   89CHL1  H11A 9027   5.334   1.641   7.708 -0.4349 -0.5353  0.3399
   89CHL1  H11B 9028   5.182   1.697   7.651  0.8736 -3.5138  1.0789
   89CHL1    C9 9029   5.342   1.843   7.603 -0.0274 -0.0522  1.1985
   89CHL1    H9 9030   5.266   1.924   7.604 -1.6186 -1.4627  2.6164
   89CHL1   C10 9031   5.365   1.814   7.452  0.1452  0.6500  0.4278
   89CHL1   C19 9032   5.421   1.673   7.442 -0.6329 -0.0163 -1.1258
   89CHL1  H19A 9033   5.519   1.687   7.493 -1.1971 -1.0547  0.3465
   89CHL1  H19B 9034   5.366   1.595   7.500 -0.7948 -0.4505 -1.8505
   89CHL1  H19C 9035   5.425   1.631   7.339 -1.0643 -2.6666 -0.1514
   89CHL1    C1 9036   5.228   1.813   7.375  0.6025 -0.2786 -0.6290
   89CHL1   H1A 9037   5.165   1.730   7.414 -1.6724  0.6457 -2.1038
   89CHL1   H1B 9038   5.162   1.903   7.381 -0.3770 -0.7839 -2.7915
   89CHL1    C2 9039   5.241   1.798   7.225  0.0132  0.3022  0.4839
   89CHL1   H2A 9040   5.138   1.812   7.187  0.0607 -0.7304 -0.0872
   89CHL1   H2B 9041   5.279   1.694   7.213  0.2034  0.2554  1.4129
   89CHL1   C20 9042   5.289   1.842   8.155 -0.6384 -0.0689 -0.1535
   89CHL1   H20 9043   5.220   1.764   8.117 -0.5725 -0.3731  0.3506
   89CHL1   C21 9044   5.203   1.939   8.240  0.5455 -0.1727  0.2406
   89CHL1  H21A 9045   5.114   1.973   8.184 -0.9088 -3.1144  0.6196
   89CHL1  H21B 9046   5.262   2.031   8.263 -1.1307  0.9397  0.2660
   89CHL1  H21C 9047   5.162   1.886   8.328 -1.1578 -0.0155 -0.4307
   89CHL1   C22 9048   5.402   1.780   8.246 -0.4708 -0.3014 -0.2666
   89CHL1  H22A 9049   5.483   1.737   8.183 -1.7526 -0.7623 -1.6768
   89CHL1  H22B 9050   5.448   1.858   8.309  0.4633 -0.2179 -1.0355
   89CHL1   C23 9051   5.344   1.661   8.321  0.1275 -0.9666 -0.5988
   89CHL1  H23A 9052   5.263   1.698   8.387 -1.0879 -1.7299 -1.6372
   89CHL1  H23B 9053   5.303   1.585   8.252  0.2981 -0.8448 -0.8348
   89CHL1   C24 9054   5.455   1.591   8.400 -0.1717 -0.3521  0.1703
   89CHL1  H24A 9055   5.529   1.546   8.331 -0.0830  0.3064 -0.1728
   89CHL1  H24B 9056   5.510   1.667   8.459 -1.5139  0.8674 -0.0992
   89CHL1   C25 9057   5.410   1.479   8.498 -0.1529 -0.4468 -0.5686
   89CHL1   H25 9058   5.331   1.519   8.566 -1.4125 -0.5829 -1.9073
   89CHL1   C26 9059   5.341   1.353   8.445 -0.3040 -0.2096  0.1645
   89CHL1  H26A 9060   5.239   1.371   8.404 -0.6008 -0.5705  0.7377
   89CHL1  H26B 9061   5.398   1.318   8.357 -0.9386 -0.1098 -0.2999
   89CHL1  H26C 9062   5.328   1.276   8.523 -4.9449 -0.7573 -0.8378
   89CHL1   C27 9063   5.534   1.441   8.574  1.0325 -0.2646  0.6579
   89CHL1  H27A 9064   5.584   1.528   8.620  2.7739 -0.8160 -0.0994
   89CHL1  H27B 9065   5.514   1.376   8.662  4.4162 -1.0686  0.9890
   89CHL1  H27C 9066   5.603   1.394   8.500 -0.5952 -0.9976 -0.4583
   90CHL1    C3 9067   2.726   5.051   6.960  0.4807 -0.4226 -0.4978
   90CHL1    H3 9068   2.827   5.007   6.948  0.5489  0.1389 -2.0952
   90CHL1    O3 9069   2.677   5.108   6.836 -0.2138 -0.0166 -0.5271
   90CHL1   H3' 9070   2.589   5.139   6.857  0.2996  0.9620  0.2786
   90CHL1    C4 9071   2.617   4.946   7.010 -0.2613 -0.3227 -0.3803
   90CHL1   H4A 9072   2.514   4.988   7.006  0.2324  1.1758  1.3761
   90CHL1   H4B 9073   2.603   4.864   6.937 -1.0658 -1.8887  1.4245
   90CHL1    C5 9074   2.661   4.888   7.146  0.1380 -0.0171  0.4937
   90CHL1    C6 9075   2.689   4.760   7.172  0.2797  0.2065 -0.1972
   90CHL1    H6 9076   2.669   4.689   7.090  1.7880 -0.1623 -0.2781
   90CHL1    C7 9077   2.714   4.701   7.308  0.0906 -0.6760 -0.3074
   90CHL1   H7A 9078   2.641   4.621   7.328  0.7253 -0.9525  1.0099
   90CHL1   H7B 9079   2.819   4.668   7.326 -1.0070 -5.1496 -1.0995
   90CHL1    C8 9080   2.682   4.800   7.423 -0.5234 -0.6027  0.0772
   90CHL1    H8 9081   2.572   4.801   7.437 -0.5849 -1.3259 -0.2856
   90CHL1   C14 9082   2.750   4.752   7.551 -0.2220 -0.4134  0.9002
   90CHL1   H14 9083   2.859   4.754   7.527 -0.4169  0.5965  0.0352
   90CHL1   C15 9084   2.717   4.610   7.602 -0.3980  0.8537  0.0699
   90CHL1  H15A 9085   2.607   4.595   7.614 -0.3277 -1.4727 -1.5853
   90CHL1  H15B 9086   2.762   4.526   7.547 -1.6204  0.2000  0.0274
   90CHL1   C16 9087   2.768   4.609   7.749  0.6443  0.9573 -0.0899
   90CHL1  H16A 9088   2.691   4.573   7.821  1.2294  2.0832  1.1598
   90CHL1  H16B 9089   2.865   4.558   7.767  0.6452  1.0923  0.3154
   90CHL1   C17 9090   2.799   4.762   7.779  0.0309 -0.2691 -0.5876
   90CHL1   H17 9091   2.908   4.774   7.762 -0.5112  1.4920 -3.5615
   90CHL1   C13 9092   2.733   4.846   7.661  0.0115 -0.0252 -0.1254
   90CHL1   C18 9093   2.584   4.852   7.707 -0.0057 -0.9806  0.5427
   90CHL1  H18A 9094   2.516   4.885   7.625  2.4955 -1.1124 -1.7481
   90CHL1  H18B 9095   2.543   4.760   7.753 -1.3341 -1.9789 -2.3632
   90CHL1  H18C 9096   2.573   4.936   7.779 -1.4777  1.3606 -2.1771
   90CHL1   C12 9097   2.795   4.980   7.625  0.7044 -0.5717 -0.4627
   90CHL1  H12A 9098   2.764   5.057   7.699 -1.3176  1.1876 -2.9793
   90CHL1  H12B 9099   2.905   4.972   7.613  0.7106  0.4156 -1.1554
   90CHL1   C11 9100   2.718   5.037   7.499 -0.5254  0.0476 -0.1660
   90CHL1  H11A 9101   2.612   5.054   7.527 -0.2281  0.6305  0.6563
   90CHL1  H11B 9102   2.773   5.132   7.483 -1.7239  0.5706 -1.3224
   90CHL1    C9 9103   2.731   4.943   7.383  0.0129  0.3475  0.0459
   90CHL1    H9 9104   2.842   4.948   7.372 -0.0043 -0.2111 -0.3987
   90CHL1   C10 9105   2.675   4.993   7.250 -1.2188 -0.2857  0.1660
   90CHL1   C19 9106   2.532   5.040   7.273 -0.1046  0.1475  0.1517
   90CHL1  H19A 9107   2.469   5.085   7.193 -0.9512 -0.4514  0.4627
   90CHL1  H19B 9108   2.466   4.966   7.324 -0.1446  0.0857  0.0135
   90CHL1  H19C 9109   2.532   5.121   7.348 -0.2597  0.6819 -0.4168
   90CHL1    C1 9110   2.778   5.106   7.200  0.1544 -0.0780  0.3780
   90CHL1   H1A 9111   2.783   5.191   7.271  1.4194  0.3511 -0.1849
   90CHL1   H1B 9112   2.874   5.052   7.181  0.4242  0.8093 -0.9017
   90CHL1    C2 9113   2.740   5.165   7.059 -0.1940  0.0903  0.2125
   90CHL1   H2A 9114   2.808   5.243   7.017 -1.1990  1.0196  0.2819
   90CHL1   H2B 9115   2.639   5.208   7.075 -0.3272 -0.5091  1.0119
   90CHL1   C20 9116   2.777   4.801   7.930  0.5327  0.8851 -0.4383
   90CHL1   H20 9117   2.671   4.777   7.950 -0.1571  1.0509 -3.4619
   90CHL1   C21 9118   2.807   4.944   7.971 -0.4462 -0.1399  0.4442
   90CHL1  H21A 9119   2.916   4.966   7.964 -0.6469  0.5248 -1.0613
   90CHL1  H21B 9120   2.764   4.963   8.072 -1.0878  2.2456 -0.2076
   90CHL1  H21C 9121   2.748   5.014   7.908 -0.3831 -0.9618 -0.5496
   90CHL1   C22 9122   2.863   4.715   8.018 -0.1520  0.1239 -0.3303
   90CHL1  H22A 9123   2.856   4.608   7.987 -2.2316 -0.0394  0.6044
   90CHL1  H22B 9124   2.971   4.741   8.011 -0.7225  2.6905 -0.2922
   90CHL1   C23 9125   2.825   4.729   8.169  0.5441  0.5632 -0.1485
   90CHL1  H23A 9126   2.848   4.830   8.209 -1.6256  0.8561  0.4508
   90CHL1  H23B 9127   2.715   4.717   8.163  0.2414  2.9125 -0.1414
   90CHL1   C24 9128   2.884   4.621   8.260  0.5263  0.3489 -0.2690
   90CHL1  H24A 9129   2.818   4.533   8.244  1.4218 -0.2932 -0.4646
   90CHL1  H24B 9130   2.990   4.595   8.239  0.5259 -2.2589  2.2908
   90CHL1   C25 9131   2.883   4.655   8.415  0.2550 -0.5695 -0.2244
   90CHL1   H25 9132   2.953   4.740   8.432  0.0734  0.4248 -3.7350
   90CHL1   C26 9133   2.746   4.696   8.465  0.2427  0.3571 -0.2725
   90CHL1  H26A 9134   2.745   4.701   8.576 -0.4819  1.5279 -0.3211
   90CHL1  H26B 9135   2.707   4.793   8.429  0.9440  0.2652 -1.3175
   90CHL1  H26C 9136   2.665   4.624   8.441 -0.2884  1.1044 -0.7438
   90CHL1   C27 9137   2.940   4.542   8.493  0.7079 -0.2415 -1.0169
   90CHL1  H27A 9138   2.863   4.463   8.502  0.0115  0.6275  1.9324
   90CHL1  H27B 9139   3.027   4.492   8.445  0.5446 -1.3594 -0.2132
   90CHL1  H27C 9140   2.981   4.586   8.587  0.9152  2.1646 -2.1804
   91CHL1    C3 9141   2.712   2.188   7.154  0.6645 -0.2189  0.1260
   91CHL1    H3 9142   2.791   2.264   7.167  0.4084 -0.1775  1.6066
   91CHL1    O3 9143   2.695   2.180   7.012 -0.5469 -0.1803  0.4692
   91CHL1   H3' 9144   2.783   2.164   6.979 -1.0149 -2.3129  0.1245
   91CHL1    C4 9145   2.752   2.054   7.203 -0.1740 -0.3012 -0.1084
   91CHL1   H4A 9146   2.693   1.973   7.154  2.8024 -0.8468 -3.1204
   91CHL1   H4B 9147   2.853   2.032   7.163 -0.8462 -1.8964 -1.0213
   91CHL1    C5 9148   2.744   2.044   7.351 -0.0929 -0.1025 -0.5123
   91CHL1    C6 9149   2.852   1.991   7.413 -0.7085 -0.2994 -0.7910
   91CHL1    H6 9150   2.940   1.955   7.357  0.7979 -0.3954  1.5168
   91CHL1    C7 9151   2.855   1.954   7.562 -0.1701  0.4612 -0.7602
   91CHL1   H7A 9152   2.913   1.860   7.563  0.0476  0.5410 -2.3489
   91CHL1   H7B 9153   2.918   2.028   7.617  0.5326  1.3485 -2.6240
   91CHL1    C8 9154   2.711   1.967   7.631 -0.9090 -0.3296  0.1336
   91CHL1    H8 9155   2.654   1.878   7.596 -2.6307  1.2811 -1.4184
   91CHL1   C14 9156   2.724   1.974   7.782  0.4876 -0.0984  0.3870
   91CHL1   H14 9157   2.773   2.072   7.799  2.8885 -0.9055 -1.3756
   91CHL1   C15 9158   2.816   1.873   7.855  0.3373  0.1575  0.0570
   91CHL1  H15A 9159   2.793   1.770   7.820  0.9803 -0.1894  0.6472
   91CHL1  H15B 9160   2.922   1.900   7.839  0.1633  0.0260 -1.5555
   91CHL1   C16 9161   2.777   1.895   8.004 -0.2501 -0.1734 -0.1709
   91CHL1  H16A 9162   2.759   1.795   8.050  2.1578 -0.6503 -0.1137
   91CHL1  H16B 9163   2.852   1.947   8.068 -0.0624  1.2379 -1.4719
   91CHL1   C17 9164   2.643   1.975   8.004  0.5116  0.6331  0.4565
   91CHL1   H17 9165   2.678   2.079   8.023 -1.3561  1.2559  0.6134
   91CHL1   C13 9166   2.591   1.980   7.861 -0.4307 -0.9254 -0.5654
   91CHL1   C18 9167   2.510   1.852   7.831 -0.4127 -0.4861  0.0458
   91CHL1  H18A 9168   2.572   1.767   7.866 -2.0917  0.0051  4.9731
   91CHL1  H18B 9169   2.422   1.836   7.897  1.4259 -3.0648  2.0786
   91CHL1  H18C 9170   2.491   1.849   7.722  0.2221  2.8614 -0.2714
   91CHL1   C12 9171   2.523   2.115   7.812  0.2620 -0.3911 -0.3053
   91CHL1  H12A 9172   2.423   2.124   7.860  0.5301 -2.0777  0.6516
   91CHL1  H12B 9173   2.593   2.199   7.831 -1.9974  2.1013 -2.2588
   91CHL1   C11 9174   2.496   2.117   7.653 -0.4616 -0.1137 -0.4541
   91CHL1  H11A 9175   2.418   2.041   7.632  1.3985 -2.4269  0.4719
   91CHL1  H11B 9176   2.465   2.221   7.634  0.1918  0.0402 -0.6998
   91CHL1    C9 9177   2.629   2.091   7.580 -0.0795  0.3209  0.1242
   91CHL1    H9 9178   2.702   2.168   7.612  2.9271 -1.8754 -1.0215
   91CHL1   C10 9179   2.616   2.094   7.428 -0.0154 -0.2023  0.1096
   91CHL1   C19 9180   2.490   2.013   7.391 -0.2221 -0.2093 -0.0056
   91CHL1  H19A 9181   2.398   2.060   7.432 -1.1244  1.1950 -3.3317
   91CHL1  H19B 9182   2.474   2.021   7.281  2.2579  1.8056 -0.3141
   91CHL1  H19C 9183   2.495   1.912   7.436  1.3299  0.6659  1.9326
   91CHL1    C1 9184   2.593   2.240   7.376  0.2662 -0.9414  0.1693
   91CHL1   H1A 9185   2.495   2.281   7.409  0.6311  1.5556 -1.5382
   91CHL1   H1B 9186   2.676   2.306   7.409 -1.3094  1.0268  0.3681
   91CHL1    C2 9187   2.583   2.241   7.223 -0.6234  0.4875 -0.3273
   91CHL1   H2A 9188   2.580   2.346   7.186  1.4121  0.5020 -0.5734
   91CHL1   H2B 9189   2.494   2.185   7.187 -0.6841  1.6303 -2.0932
   91CHL1   C20 9190   2.555   1.939   8.124  0.3163  0.1888  0.1677
   91CHL1   H20 9191   2.539   1.830   8.114  1.9475  0.0102 -0.9052
   91CHL1   C21 9192   2.421   2.021   8.113  0.2691  0.7234  0.5031
   91CHL1  H21A 9193   2.355   2.009   8.202 -0.9198 -1.9986 -0.6290
   91CHL1  H21B 9194   2.361   1.990   8.025  1.5461  2.0354 -0.8928
   91CHL1  H21C 9195   2.453   2.127   8.101  2.0737  0.3667  1.6988
   91CHL1   C22 9196   2.625   1.972   8.257 -0.0184 -0.0252 -0.5530
   91CHL1  H22A 9197   2.727   1.927   8.259 -0.0025 -0.0678 -1.6051
   91CHL1  H22B 9198   2.636   2.082   8.273 -1.6345  0.3243 -1.5868
   91CHL1   C23 9199   2.545   1.931   8.383 -0.3399  0.1188  0.4153
   91CHL1  H23A 9200   2.476   2.012   8.416 -1.8872 -0.6410 -0.8094
   91CHL1  H23B 9201   2.472   1.853   8.353  0.2248 -0.1022 -0.4354
   91CHL1   C24 9202   2.628   1.875   8.498 -0.4263 -0.2388  0.0361
   91CHL1  H24A 9203   2.706   1.953   8.512  0.6315 -1.4645  1.1697
   91CHL1  H24B 9204   2.582   1.858   8.598  1.1681 -0.7734  0.7066
   91CHL1   C25 9205   2.714   1.752   8.466  0.3822 -0.7211  0.7442
   91CHL1   H25 9206   2.794   1.787   8.398  1.4146  1.1536  2.8080
   91CHL1   C26 9207   2.778   1.701   8.597  0.3665  0.2595  0.0205
   91CHL1  H26A 9208   2.700   1.657   8.663 -0.3956 -0.2196 -1.1854
   91CHL1  H26B 9209   2.865   1.637   8.572  1.2272  0.7559  1.5856
   91CHL1  H26C 9210   2.814   1.799   8.635 -1.0255  0.9434 -0.3685
   91CHL1   C27 9211   2.632   1.639   8.395 -0.6297  0.3199  0.0211
   91CHL1  H27A 9212   2.690   1.549   8.366 -1.0757  0.2869 -0.7974
   91CHL1  H27B 9213   2.554   1.603   8.466 -1.1382  0.5006 -0.4405
   91CHL1  H27C 9214   2.592   1.673   8.297  1.9410  1.2408 -0.8020
   92CHL1    C3 9215   6.432   4.593   6.882 -0.3261  0.0664  0.2329
   92CHL1    H3 9216   6.540   4.616   6.896  0.4225 -3.0320  0.1264
   92CHL1    O3 9217   6.409   4.561   6.748 -0.2542 -0.2440  0.8321
   92CHL1   H3' 9218   6.377   4.646   6.717  0.0838 -0.9408 -1.5976
   92CHL1    C4 9219   6.391   4.474   6.968 -0.1558  0.0705 -0.5181
   92CHL1   H4A 9220   6.287   4.443   6.943 -1.3623  0.5539  3.2465
   92CHL1   H4B 9221   6.451   4.382   6.950  2.2169  1.0290  1.9234
   92CHL1    C5 9222   6.391   4.480   7.123 -0.4174 -0.1263  0.1491
   92CHL1    C6 9223   6.453   4.387   7.202  0.4852 -0.0039 -0.1234
   92CHL1    H6 9224   6.502   4.300   7.157  0.1681 -0.5966  0.6473
   92CHL1    C7 9225   6.454   4.396   7.355  0.1411 -0.7994  0.6650
   92CHL1   H7A 9226   6.415   4.301   7.397 -1.2600 -0.8893 -0.7411
   92CHL1   H7B 9227   6.554   4.415   7.399 -0.2841  3.2983  0.2427
   92CHL1    C8 9228   6.362   4.503   7.415 -1.4276  0.6024 -0.2650
   92CHL1    H8 9229   6.263   4.453   7.420 -1.7574  1.3512  2.7954
   92CHL1   C14 9230   6.406   4.535   7.562 -0.1616  0.8099 -0.3980
   92CHL1   H14 9231   6.503   4.587   7.553 -0.8684  1.9602 -1.8047
   92CHL1   C15 9232   6.418   4.416   7.660 -0.5071 -0.5643  0.1291
   92CHL1  H15A 9233   6.328   4.352   7.671  0.1245 -1.2746  1.4248
   92CHL1  H15B 9234   6.508   4.356   7.632 -0.8051 -0.9920  0.0851
   92CHL1   C16 9235   6.414   4.485   7.798 -0.5483 -0.3339 -0.3482
   92CHL1  H16A 9236   6.350   4.422   7.863 -1.5210  0.7594 -0.2116
   92CHL1  H16B 9237   6.518   4.508   7.832 -1.2464  3.9300 -0.4919
   92CHL1   C17 9238   6.368   4.631   7.772 -0.2234 -0.4055  0.4198
   92CHL1   H17 9239   6.464   4.682   7.749  0.2147 -2.2588 -2.2865
   92CHL1   C13 9240   6.317   4.636   7.626  0.2414  0.1720 -0.0380
   92CHL1   C18 9241   6.167   4.598   7.633 -0.3987 -0.3152  0.1097
   92CHL1  H18A 9242   6.105   4.685   7.666  0.6363  1.2613 -1.8414
   92CHL1  H18B 9243   6.132   4.580   7.530 -1.1472 -1.1550  0.4990
   92CHL1  H18C 9244   6.144   4.511   7.698  0.9713 -0.2235  0.7614
   92CHL1   C12 9245   6.337   4.763   7.537  0.4545 -0.2280  0.1862
   92CHL1  H12A 9246   6.279   4.847   7.581 -0.0014  0.1800 -1.1239
   92CHL1  H12B 9247   6.443   4.796   7.536 -0.3243  2.5909  1.0231
   92CHL1   C11 9248   6.288   4.752   7.393 -0.3953 -0.1841  0.2214
   92CHL1  H11A 9249   6.177   4.749   7.392 -0.3782 -1.8815  0.1351
   92CHL1  H11B 9250   6.308   4.837   7.325  1.5524 -0.9855 -0.3032
   92CHL1    C9 9251   6.366   4.633   7.329  0.1211 -0.1215 -0.4670
   92CHL1    H9 9252   6.473   4.664   7.326  0.3955 -0.6933  1.7950
   92CHL1   C10 9253   6.329   4.606   7.183  0.0605  0.2219  0.4247
   92CHL1   C19 9254   6.176   4.574   7.175  0.2626 -0.2552 -0.3922
   92CHL1  H19A 9255   6.148   4.554   7.070  2.4971  0.0127 -1.0833
   92CHL1  H19B 9256   6.150   4.491   7.245  0.6122  0.4120  0.5586
   92CHL1  H19C 9257   6.123   4.665   7.212 -0.2993 -0.5611 -0.4293
   92CHL1    C1 9258   6.390   4.722   7.094  0.2591 -0.3230 -0.5076
   92CHL1   H1A 9259   6.354   4.823   7.124 -0.0358 -0.5847  0.0425
   92CHL1   H1B 9260   6.501   4.722   7.098  0.3451 -1.8948 -1.8813
   92CHL1    C2 9261   6.358   4.717   6.945 -0.1774  0.1770  0.7668
   92CHL1   H2A 9262   6.398   4.814   6.907 -0.0582  0.3130  1.2286
   92CHL1   H2B 9263   6.250   4.699   6.931  0.1550 -2.2181  0.9136
   92CHL1   C20 9264   6.282   4.684   7.887 -0.6291  0.7229 -0.1121
   92CHL1   H20 9265   6.191   4.620   7.900  0.2782 -0.5104  0.3437
   92CHL1   C21 9266   6.259   4.831   7.865  0.4011  0.5857  0.9569
   92CHL1  H21A 9267   6.204   4.854   7.958  0.6738  0.7937  1.0654
   92CHL1  H21B 9268   6.191   4.842   7.777 -0.3669 -3.6069  0.7723
   92CHL1  H21C 9269   6.340   4.905   7.851 -1.2229  2.0347 -1.7120
   92CHL1   C22 9270   6.355   4.674   8.031  0.3566  0.2665 -0.3121
   92CHL1  H22A 9271   6.410   4.577   8.035  0.6793  0.4513 -0.2433
   92CHL1  H22B 9272   6.431   4.755   8.030  0.6156  0.0478  0.7862
   92CHL1   C23 9273   6.253   4.680   8.152  0.5360  0.6785  0.2317
   92CHL1  H23A 9274   6.196   4.774   8.170  0.9121  0.5608  2.3412
   92CHL1  H23B 9275   6.182   4.597   8.133  0.9030  0.1839  0.9510
   92CHL1   C24 9276   6.323   4.650   8.283 -0.1834 -0.2808 -0.3359
   92CHL1  H24A 9277   6.378   4.554   8.272  1.8326  0.7642  0.1085
   92CHL1  H24B 9278   6.410   4.719   8.294  1.0395 -1.3827 -2.3660
   92CHL1   C25 9279   6.244   4.633   8.415  0.0530 -0.3618 -0.0350
   92CHL1   H25 9280   6.173   4.548   8.418  0.5957 -0.9243 -1.6140
   92CHL1   C26 9281   6.345   4.601   8.525 -0.7959 -0.4415 -0.3783
   92CHL1  H26A 9282   6.416   4.686   8.539 -0.2147 -1.1257  0.9106
   92CHL1  H26B 9283   6.290   4.572   8.616  0.5120 -2.6077 -0.2107
   92CHL1  H26C 9284   6.390   4.501   8.506  0.6221 -0.2929  1.8485
   92CHL1   C27 9285   6.176   4.757   8.443 -0.2263  0.2442  0.1125
   92CHL1  H27A 9286   6.093   4.774   8.371 -1.9943 -0.0120  1.9763
   92CHL1  H27B 9287   6.139   4.747   8.548 -0.6128  0.2833 -0.0175
   92CHL1  H27C 9288   6.231   4.854   8.447  2.2497 -1.0097 -1.1255
   93CHL1    C3 9289   3.444   2.562   7.015  0.6596  0.4986  0.2959
   93CHL1    H3 9290   3.382   2.652   7.034 -4.7599 -2.7643  0.1818
   93CHL1    O3 9291   3.453   2.539   6.874 -0.4991  0.1815 -0.2000
   93CHL1   H3' 9292   3.504   2.458   6.864 -0.6841 -0.3188  2.2595
   93CHL1    C4 9293   3.588   2.575   7.076 -0.1076  0.6667 -0.3837
   93CHL1   H4A 9294   3.636   2.480   7.046 -0.5202  0.8609 -1.6977
   93CHL1   H4B 9295   3.644   2.659   7.030  0.5177  1.2206  1.2880
   93CHL1    C5 9296   3.585   2.588   7.224 -0.0092  0.8835 -0.6141
   93CHL1    C6 9297   3.641   2.695   7.287 -0.1584 -0.2656 -0.1161
   93CHL1    H6 9298   3.682   2.769   7.217 -2.6778  0.3010 -1.1148
   93CHL1    C7 9299   3.657   2.721   7.434  0.3034  0.0126  0.3915
   93CHL1   H7A 9300   3.758   2.757   7.465  0.1443 -0.2648  1.2397
   93CHL1   H7B 9301   3.586   2.803   7.453 -0.2081  0.1735 -1.9046
   93CHL1    C8 9302   3.609   2.596   7.512 -0.4122 -0.3508 -0.3092
   93CHL1    H8 9303   3.697   2.530   7.496  0.2805  0.4376  0.1168
   93CHL1   C14 9304   3.592   2.617   7.661 -1.2002 -0.2284  0.4037
   93CHL1   H14 9305   3.519   2.701   7.672  0.1898  1.6222 -2.9823
   93CHL1   C15 9306   3.723   2.661   7.728  0.1643  0.4159  0.5464
   93CHL1  H15A 9307   3.803   2.587   7.706 -1.2172 -1.0770  0.2868
   93CHL1  H15B 9308   3.761   2.762   7.704 -0.0105  0.5217  0.7062
   93CHL1   C16 9309   3.690   2.646   7.874 -0.1769 -0.0164 -0.1292
   93CHL1  H16A 9310   3.773   2.603   7.935  0.0925 -0.2521 -0.6566
   93CHL1  H16B 9311   3.674   2.748   7.913 -1.1524  0.1165 -0.8384
   93CHL1   C17 9312   3.551   2.572   7.882 -0.5104  0.3947  1.0146
   93CHL1   H17 9313   3.470   2.646   7.899 -0.2350  1.2105 -0.9441
   93CHL1   C13 9314   3.541   2.507   7.740  0.7356 -0.0234  0.4441
   93CHL1   C18 9315   3.633   2.375   7.734  0.4303 -0.7424  0.0540
   93CHL1  H18A 9316   3.734   2.393   7.778  0.4417 -0.4864 -0.0762
   93CHL1  H18B 9317   3.584   2.302   7.802  0.7238 -0.9879  0.0046
   93CHL1  H18C 9318   3.637   2.332   7.632 -0.8010  0.5531 -0.5582
   93CHL1   C12 9319   3.397   2.479   7.688  0.1084  0.6657 -0.2265
   93CHL1  H12A 9320   3.347   2.402   7.750  0.5413  2.5152  2.6163
   93CHL1  H12B 9321   3.336   2.571   7.701  0.6248  1.7774 -4.3282
   93CHL1   C11 9322   3.403   2.437   7.541  0.9450 -0.2749 -0.0474
   93CHL1  H11A 9323   3.448   2.336   7.528  1.0110 -0.0740 -1.5544
   93CHL1  H11B 9324   3.298   2.430   7.503  0.9581  0.6218 -0.2758
   93CHL1    C9 9325   3.477   2.534   7.450 -0.6973 -0.5050  0.9607
   93CHL1    H9 9326   3.409   2.621   7.437  1.2687  0.9993  0.2551
   93CHL1   C10 9327   3.501   2.486   7.306 -0.1267 -0.6131  0.5695
   93CHL1   C19 9328   3.571   2.349   7.309  0.0259 -0.3258  0.5830
   93CHL1  H19A 9329   3.504   2.267   7.344  0.1480 -0.6415  0.0950
   93CHL1  H19B 9330   3.607   2.328   7.206  0.0304 -1.8784  0.8735
   93CHL1  H19C 9331   3.671   2.364   7.354  1.0318 -0.6319 -1.4392
   93CHL1    C1 9332   3.361   2.476   7.236 -0.5062 -0.3512 -0.6394
   93CHL1   H1A 9333   3.312   2.387   7.279  0.0405 -1.2454 -1.8076
   93CHL1   H1B 9334   3.300   2.569   7.243 -2.9476 -1.8483 -0.8299
   93CHL1    C2 9335   3.365   2.449   7.082  0.5498 -0.2626 -0.5478
   93CHL1   H2A 9336   3.258   2.447   7.053  0.7055  2.4788 -1.5754
   93CHL1   H2B 9337   3.411   2.350   7.061 -0.0324 -0.6112 -0.2052
   93CHL1   C20 9338   3.551   2.488   8.017  0.5582  0.3561 -0.2483
   93CHL1   H20 9339   3.631   2.415   7.992 -1.0136 -1.4803 -0.1357
   93CHL1   C21 9340   3.418   2.424   8.030 -0.1896 -0.3092 -0.5613
   93CHL1  H21A 9341   3.417   2.370   8.127 -1.0243 -2.1809 -1.5683
   93CHL1  H21B 9342   3.394   2.357   7.945  0.2686  0.3321 -1.1995
   93CHL1  H21C 9343   3.343   2.505   8.038  1.3419  1.1800 -0.7655
   93CHL1   C22 9344   3.574   2.565   8.142 -0.6443  0.0198  0.5293
   93CHL1  H22A 9345   3.654   2.639   8.122  1.0455 -1.2746  2.1299
   93CHL1  H22B 9346   3.486   2.630   8.159  0.5288  1.6130  0.7612
   93CHL1   C23 9347   3.603   2.492   8.276  0.3876 -0.8458 -0.6020
   93CHL1  H23A 9348   3.515   2.437   8.315 -0.6189 -0.3015 -2.0013
   93CHL1  H23B 9349   3.668   2.405   8.251  1.4016 -0.5017  0.7178
   93CHL1   C24 9350   3.677   2.578   8.376  0.6483 -0.5105  0.3718
   93CHL1  H24A 9351   3.682   2.511   8.465 -0.5763 -1.9781 -0.6152
   93CHL1  H24B 9352   3.777   2.602   8.334  0.4404  1.5066  0.9256
   93CHL1   C25 9353   3.616   2.707   8.424  0.7016 -0.5249  0.5985
   93CHL1   H25 9354   3.613   2.786   8.345 -1.7843 -1.6313 -0.5120
   93CHL1   C26 9355   3.475   2.692   8.483  1.1791  0.0102  0.2955
   93CHL1  H26A 9356   3.410   2.655   8.401  1.0651  1.4176 -0.2726
   93CHL1  H26B 9357   3.475   2.625   8.572  1.0080  0.0537  0.3290
   93CHL1  H26C 9358   3.441   2.795   8.506  2.0971  1.3327 -3.6046
   93CHL1   C27 9359   3.705   2.769   8.533  0.5365  0.9981  0.4885
   93CHL1  H27A 9360   3.786   2.824   8.481  0.4169  0.1485 -0.6324
   93CHL1  H27B 9361   3.641   2.826   8.604  0.4363 -0.0152  1.2307
   93CHL1  H27C 9362   3.740   2.682   8.593  0.6145  1.0342  0.4958
   94CHL1    C3 9363   0.554   4.639   6.792 -0.1018  0.5799 -0.0293
   94CHL1    H3 9364   0.594   4.742   6.780  0.2947  0.1317 -3.3177
   94CHL1    O3 9365   0.533   4.587   6.659  0.1129 -0.0037 -1.0944
   94CHL1   H3' 9366   0.511   4.495   6.673  1.3876 -0.0453  1.0123
   94CHL1    C4 9367   0.662   4.557   6.871  0.4632 -0.6708  0.4940
   94CHL1   H4A 9368   0.609   4.460   6.875 -2.6401  0.9282  0.8821
   94CHL1   H4B 9369   0.757   4.553   6.814  1.6653  2.0318  2.0899
   94CHL1    C5 9370   0.677   4.623   7.011 -0.5390 -0.0346 -0.1167
   94CHL1    C6 9371   0.798   4.654   7.057  0.2115 -0.2896 -0.4249
   94CHL1    H6 9372   0.886   4.652   6.991 -0.1722  0.3118 -0.9723
   94CHL1    C7 9373   0.819   4.716   7.193 -0.0680 -0.3549  0.9597
   94CHL1   H7A 9374   0.901   4.673   7.253  1.9565  0.9661 -0.7065
   94CHL1   H7B 9375   0.848   4.823   7.181  1.9558 -0.8151  1.4654
   94CHL1    C8 9376   0.695   4.715   7.287 -0.3739  0.2953 -0.2138
   94CHL1    H8 9377   0.689   4.611   7.326 -2.6575 -0.0408 -1.3119
   94CHL1   C14 9378   0.699   4.808   7.407 -0.6361 -0.3030 -0.2468
   94CHL1   H14 9379   0.688   4.916   7.381 -0.8798  0.7483  3.5385
   94CHL1   C15 9380   0.830   4.801   7.492 -0.0123  0.0153  0.5864
   94CHL1  H15A 9381   0.843   4.691   7.502  0.8821  0.1392  0.8451
   94CHL1  H15B 9382   0.913   4.846   7.435 -2.0175  0.0311 -2.5139
   94CHL1   C16 9383   0.794   4.861   7.625 -0.0480 -0.5564  0.1827
   94CHL1  H16A 9384   0.820   4.779   7.695  0.6718  0.4535  1.1532
   94CHL1  H16B 9385   0.847   4.956   7.648 -0.8424 -0.2149  0.6823
   94CHL1   C17 9386   0.633   4.889   7.621 -0.4725  0.0010 -0.4294
   94CHL1   H17 9387   0.612   4.993   7.588  0.6166  1.1785  2.2933
   94CHL1   C13 9388   0.584   4.792   7.507 -0.4902  0.0636  0.5669
   94CHL1   C18 9389   0.576   4.642   7.556  0.4113  0.3179 -0.4163
   94CHL1  H18A 9390   0.493   4.635   7.630  1.4558 -0.5224  0.7194
   94CHL1  H18B 9391   0.557   4.569   7.474 -0.6172 -0.8097  0.7774
   94CHL1  H18C 9392   0.665   4.613   7.616  0.0424 -1.8437 -0.8276
   94CHL1   C12 9393   0.455   4.835   7.429 -0.0224 -0.6683  0.1053
   94CHL1  H12A 9394   0.372   4.824   7.502  0.6192 -0.0083  0.9638
   94CHL1  H12B 9395   0.462   4.943   7.402 -1.0587 -0.5475  0.2835
   94CHL1   C11 9396   0.437   4.750   7.308  0.1365  0.2634 -0.0711
   94CHL1  H11A 9397   0.398   4.649   7.336 -2.1984  1.1543  0.1193
   94CHL1  H11B 9398   0.347   4.796   7.261 -0.0069  0.2848  0.2202
   94CHL1    C9 9399   0.568   4.739   7.209  0.1054  0.1829  0.3036
   94CHL1    H9 9400   0.576   4.838   7.160 -2.3271 -0.2224 -1.0799
   94CHL1   C10 9401   0.548   4.647   7.091 -0.0093  0.4424  0.5764
   94CHL1   C19 9402   0.505   4.506   7.140  0.2546  0.6959  0.4259
   94CHL1  H19A 9403   0.561   4.476   7.231 -1.5453  1.2469  1.7751
   94CHL1  H19B 9404   0.395   4.504   7.157  0.3033 -3.8311  1.5329
   94CHL1  H19C 9405   0.506   4.427   7.062 -0.7129  1.7619 -0.7202
   94CHL1    C1 9406   0.439   4.707   7.001 -0.1655  0.3020  0.2876
   94CHL1   H1A 9407   0.338   4.707   7.047  0.6355 -0.3397  2.1658
   94CHL1   H1B 9408   0.455   4.816   6.987  0.0115  0.2102 -0.2466
   94CHL1    C2 9409   0.419   4.632   6.871  0.5202 -0.5477  0.1450
   94CHL1   H2A 9410   0.336   4.668   6.807  1.2647  1.0399  0.0331
   94CHL1   H2B 9411   0.398   4.523   6.874 -1.4258 -0.1987  1.1413
   94CHL1   C20 9412   0.572   4.884   7.760 -0.2813 -0.3587 -0.0791
   94CHL1   H20 9413   0.581   4.781   7.799 -3.5016 -0.3248  1.0402
   94CHL1   C21 9414   0.417   4.919   7.761  0.4458 -0.0931 -0.2783
   94CHL1  H21A 9415   0.362   4.868   7.843  1.8477 -1.2263  0.0150
   94CHL1  H21B 9416   0.364   4.876   7.674 -1.8929  0.0762  0.9878
   94CHL1  H21C 9417   0.410   5.029   7.770 -1.1059 -0.3547  4.2322
   94CHL1   C22 9418   0.640   4.975   7.867  0.1034  0.4028 -0.3583
   94CHL1  H22A 9419   0.749   4.957   7.873  0.1268  0.6303 -0.0589
   94CHL1  H22B 9420   0.627   5.081   7.833  1.4166  0.0739 -2.0231
   94CHL1   C23 9421   0.586   4.955   8.010  0.1563  0.5667 -0.2716
   94CHL1  H23A 9422   0.479   4.986   8.011 -0.1918 -0.3893 -2.2401
   94CHL1  H23B 9423   0.603   4.854   8.053  1.9596  0.9288 -0.0732
   94CHL1   C24 9424   0.649   5.052   8.111  0.0031  0.9592 -0.5463
   94CHL1  H24A 9425   0.751   5.085   8.082  0.1976  0.0861 -0.9037
   94CHL1  H24B 9426   0.582   5.141   8.113  0.6513  1.4417  1.4950
   94CHL1   C25 9427   0.645   5.005   8.260  0.2441 -0.0398  0.2517
   94CHL1   H25 9428   0.727   4.934   8.282  0.1213 -0.6497 -1.1656
   94CHL1   C26 9429   0.656   5.127   8.365  0.6357 -0.1035 -0.5366
   94CHL1  H26A 9430   0.645   5.094   8.471  1.7420  0.4300 -0.2437
   94CHL1  H26B 9431   0.749   5.183   8.340  0.6124  0.3307  0.3333
   94CHL1  H26C 9432   0.563   5.186   8.350 -0.0948 -1.1658 -0.3679
   94CHL1   C27 9433   0.520   4.920   8.296 -0.7631  0.0921  0.3054
   94CHL1  H27A 9434   0.541   4.896   8.402  1.4817  0.6542  0.0458
   94CHL1  H27B 9435   0.425   4.978   8.291 -0.0152  1.2474 -1.3393
   94CHL1  H27C 9436   0.510   4.829   8.234 -1.5351  1.5368 -1.7954
   95CHL1    C3 9437   0.079   2.648   6.883 -0.4681  0.2279 -0.2069
   95CHL1    H3 9438   0.097   2.753   6.854  1.3535 -0.1317 -0.4636
   95CHL1    O3 9439   0.016   2.571   6.785  0.3497  0.3583 -0.2511
   95CHL1   H3' 9440   0.013   2.480   6.813 -0.6049 -0.0774 -1.6566
   95CHL1    C4 9441   0.217   2.583   6.921  0.3723  0.0793 -0.8561
   95CHL1   H4A 9442   0.206   2.474   6.938  1.4880  0.2214  1.0075
   95CHL1   H4B 9443   0.277   2.591   6.828 -2.1663 -0.1326 -2.6115
   95CHL1    C5 9444   0.281   2.642   7.044 -0.9989 -1.1486 -0.1656
   95CHL1    C6 9445   0.405   2.687   7.031 -0.9317  0.1709 -0.4059
   95CHL1    H6 9446   0.460   2.680   6.935  1.3974  1.9034  0.7028
   95CHL1    C7 9447   0.488   2.732   7.149 -0.1334  0.1322 -0.4827
   95CHL1   H7A 9448   0.582   2.673   7.153 -1.6627 -2.4554 -0.9279
   95CHL1   H7B 9449   0.513   2.837   7.120 -0.6711 -0.2660 -2.5567
   95CHL1    C8 9450   0.425   2.714   7.290  0.2448  0.1799 -0.2020
   95CHL1    H8 9451   0.437   2.606   7.317 -1.4909 -0.1634 -0.6967
   95CHL1   C14 9452   0.484   2.800   7.397 -0.3211 -0.0428  0.5855
   95CHL1   H14 9453   0.471   2.907   7.370  1.9465  0.1244 -0.0108
   95CHL1   C15 9454   0.631   2.780   7.416 -0.4759  0.4184  0.4814
   95CHL1  H15A 9455   0.676   2.688   7.373 -3.0477  0.0119 -1.5762
   95CHL1  H15B 9456   0.678   2.857   7.351  1.6910 -0.7941  0.4988
   95CHL1   C16 9457   0.659   2.829   7.561 -0.1851 -0.4584  0.9510
   95CHL1  H16A 9458   0.704   2.747   7.622  0.5049 -0.1926  0.8034
   95CHL1  H16B 9459   0.717   2.922   7.580 -0.4522 -0.4386  1.7343
   95CHL1   C17 9460   0.519   2.857   7.619 -0.3118 -0.4042 -0.6599
   95CHL1   H17 9461   0.493   2.960   7.586  0.7979 -0.4881 -1.8686
   95CHL1   C13 9462   0.431   2.771   7.531 -0.3892  0.4092 -0.0652
   95CHL1   C18 9463   0.445   2.623   7.571  0.4657 -0.1943 -0.1869
   95CHL1  H18A 9464   0.408   2.548   7.499 -0.2461  0.2210 -0.2610
   95CHL1  H18B 9465   0.551   2.593   7.588  0.1154 -1.1493  0.3862
   95CHL1  H18C 9466   0.386   2.602   7.663 -0.2977  0.5910 -0.4890
   95CHL1   C12 9467   0.288   2.805   7.529  0.1606 -0.2177 -0.3314
   95CHL1  H12A 9468   0.242   2.795   7.629 -0.3698  2.1256 -0.2829
   95CHL1  H12B 9469   0.275   2.912   7.501 -1.1288 -0.5202 -0.9209
   95CHL1   C11 9470   0.211   2.720   7.431  0.1558 -0.1693 -0.1681
   95CHL1  H11A 9471   0.207   2.616   7.471 -0.2848 -0.2216 -0.3438
   95CHL1  H11B 9472   0.110   2.765   7.424  0.9975  2.1533  1.2099
   95CHL1    C9 9473   0.269   2.727   7.285 -0.3228 -0.0398 -0.0929
   95CHL1    H9 9474   0.244   2.830   7.251 -0.0784 -0.4558 -1.6308
   95CHL1   C10 9475   0.194   2.644   7.171  0.1297  0.5602 -0.3150
   95CHL1   C19 9476   0.167   2.503   7.222  0.3512  0.5218 -0.2871
   95CHL1  H19A 9477   0.136   2.449   7.130 -0.7247 -1.8581  1.3559
   95CHL1  H19B 9478   0.261   2.448   7.247 -1.1641 -1.6778  0.9659
   95CHL1  H19C 9479   0.090   2.502   7.303  0.4406  0.4753 -0.2011
   95CHL1    C1 9480   0.063   2.717   7.124 -0.4974 -0.4957 -0.1675
   95CHL1   H1A 9481  -0.005   2.734   7.210  1.5058  0.0022  1.4131
   95CHL1   H1B 9482   0.096   2.819   7.096 -1.7243 -0.0835 -0.1560
   95CHL1    C2 9483  -0.009   2.653   7.007 -0.0145 -0.8191 -0.3559
   95CHL1   H2A 9484  -0.095   2.722   6.996 -1.1524 -2.1389 -0.1527
   95CHL1   H2B 9485  -0.058   2.555   7.025 -1.8996  0.1870  0.2476
   95CHL1   C20 9486   0.489   2.852   7.770 -0.3359  0.5327  0.4791
   95CHL1   H20 9487   0.382   2.826   7.786 -0.1979 -0.6427 -0.3912
   95CHL1   C21 9488   0.508   3.002   7.812 -0.5942 -0.2457 -0.3732
   95CHL1  H21A 9489   0.472   3.086   7.750 -0.4735  0.9786  1.1594
   95CHL1  H21B 9490   0.615   3.023   7.832 -0.3381 -1.4895 -0.3510
   95CHL1  H21C 9491   0.461   3.011   7.912 -3.0645 -0.4044 -1.4505
   95CHL1   C22 9492   0.569   2.747   7.854  0.7702 -0.1710 -0.7818
   95CHL1  H22A 9493   0.539   2.646   7.818  0.0546  0.9347 -3.6027
   95CHL1  H22B 9494   0.675   2.763   7.825  0.8838  2.0469  0.6374
   95CHL1   C23 9495   0.549   2.763   8.009 -0.5775  0.1422 -0.1017
   95CHL1  H23A 9496   0.573   2.868   8.033  2.5839  0.2244 -2.8607
   95CHL1  H23B 9497   0.440   2.751   8.029 -0.4602 -1.3149 -0.2522
   95CHL1   C24 9498   0.632   2.661   8.083 -0.2578  0.8925  0.7083
   95CHL1  H24A 9499   0.597   2.559   8.055 -1.6022  1.5204 -0.0019
   95CHL1  H24B 9500   0.739   2.666   8.051 -0.4733  1.6351  0.0793
   95CHL1   C25 9501   0.633   2.659   8.240 -0.0656  0.4718  0.3385
   95CHL1   H25 9502   0.528   2.670   8.275 -0.8077  0.2379 -1.7106
   95CHL1   C26 9503   0.682   2.524   8.294  0.6097 -0.6460 -0.5712
   95CHL1  H26A 9504   0.780   2.500   8.248 -0.1855 -1.4778 -1.8861
   95CHL1  H26B 9505   0.686   2.529   8.405  0.9228 -0.3841 -0.5943
   95CHL1  H26C 9506   0.603   2.452   8.261  0.3684 -0.8136  0.3429
   95CHL1   C27 9507   0.716   2.776   8.298  0.4793  0.0026  0.2754
   95CHL1  H27A 9508   0.697   2.870   8.242  0.9567  0.6238  1.1214
   95CHL1  H27B 9509   0.681   2.800   8.401  0.1839 -2.7530  0.8927
   95CHL1  H27C 9510   0.826   2.760   8.300  0.5818  0.5554 -0.4852
   96CHL1    C3 9511   5.317   6.570   6.792  0.8630  0.2746 -0.4806
   96CHL1    H3 9512   5.210   6.591   6.809  1.1448  0.0914  1.8876
   96CHL1    O3 9513   5.348   6.564   6.650  0.1283 -0.1384  0.1482
   96CHL1   H3' 9514   5.427   6.511   6.635 -0.1773 -1.1307  1.7736
   96CHL1    C4 9515   5.403   6.674   6.876  0.6016  0.4920 -0.4493
   96CHL1   H4A 9516   5.502   6.687   6.828 -0.7957  2.5314 -3.0195
   96CHL1   H4B 9517   5.353   6.769   6.846  1.6665  0.8305 -1.1892
   96CHL1    C5 9518   5.414   6.646   7.029 -1.1106 -0.9104  0.3444
   96CHL1    C6 9519   5.381   6.752   7.112 -0.1617  0.7809  0.1858
   96CHL1    H6 9520   5.341   6.849   7.081 -1.6721  0.1393  0.0289
   96CHL1    C7 9521   5.375   6.729   7.259 -0.2209 -0.5046 -0.7447
   96CHL1   H7A 9522   5.412   6.814   7.320 -1.5580 -2.5438  3.2785
   96CHL1   H7B 9523   5.275   6.711   7.305  0.0934  0.3093  0.2989
   96CHL1    C8 9524   5.446   6.602   7.312 -0.4686  0.1599  0.1131
   96CHL1    H8 9525   5.557   6.606   7.310 -0.1771 -2.7509  2.6161
   96CHL1   C14 9526   5.415   6.578   7.459  0.1666 -0.1998 -0.2641
   96CHL1   H14 9527   5.304   6.570   7.464  0.2111 -1.4104 -0.8750
   96CHL1   C15 9528   5.445   6.692   7.556 -0.1559 -0.1357 -0.1639
   96CHL1  H15A 9529   5.548   6.733   7.549  0.4526 -1.2266  1.6833
   96CHL1  H15B 9530   5.374   6.775   7.538  1.3930  1.0485 -1.0170
   96CHL1   C16 9531   5.421   6.626   7.697  0.0622 -0.0304  0.1151
   96CHL1  H16A 9532   5.513   6.646   7.755  0.4109 -3.3884  0.9508
   96CHL1  H16B 9533   5.329   6.675   7.735  0.6980  0.6567  0.7763
   96CHL1   C17 9534   5.403   6.474   7.671  0.0678 -0.2526 -0.2255
   96CHL1   H17 9535   5.293   6.470   7.661 -0.3455  0.3066  2.9570
   96CHL1   C13 9536   5.466   6.450   7.526  0.2230  0.8423  0.0251
   96CHL1   C18 9537   5.616   6.458   7.544 -0.2027  0.5015 -0.0058
   96CHL1  H18A 9538   5.639   6.352   7.568 -2.1737 -0.1907 -1.0221
   96CHL1  H18B 9539   5.656   6.478   7.443  0.5925 -3.3409 -0.5984
   96CHL1  H18C 9540   5.650   6.531   7.621 -3.6313  1.0392  1.1482
   96CHL1   C12 9541   5.421   6.332   7.438  0.4464  0.1247 -0.7110
   96CHL1  H12A 9542   5.471   6.242   7.482  0.4378  0.4995  0.0832
   96CHL1  H12B 9543   5.312   6.328   7.456  0.8468 -1.1960  1.9637
   96CHL1   C11 9544   5.456   6.349   7.289  0.1140 -0.0597  0.2075
   96CHL1  H11A 9545   5.567   6.344   7.281  0.1374  1.8328 -1.3076
   96CHL1  H11B 9546   5.404   6.267   7.234 -0.5358 -0.0753  0.8332
   96CHL1    C9 9547   5.416   6.484   7.228  0.1034 -0.0035 -0.2469
   96CHL1    H9 9548   5.305   6.481   7.229  0.1008 -0.0511 -0.8203
   96CHL1   C10 9549   5.452   6.505   7.080  0.1406  0.7780  0.1044
   96CHL1   C19 9550   5.605   6.479   7.067 -0.4716  0.2066  0.1059
   96CHL1  H19A 9551   5.640   6.509   6.966  0.5293  1.6591  0.8458
   96CHL1  H19B 9552   5.655   6.548   7.138  0.2343  0.9036 -1.0273
   96CHL1  H19C 9553   5.635   6.373   7.085  1.6650  0.5679 -0.9554
   96CHL1    C1 9554   5.371   6.402   6.994  0.4305  0.2432 -0.3678
   96CHL1   H1A 9555   5.423   6.304   7.006 -0.8660 -0.3344  0.8087
   96CHL1   H1B 9556   5.267   6.393   7.033  0.4588 -0.0633 -0.3612
   96CHL1    C2 9557   5.365   6.430   6.841  0.5577  0.1608 -0.8005
   96CHL1   H2A 9558   5.302   6.362   6.779  0.8822  0.4811 -1.4975
   96CHL1   H2B 9559   5.469   6.409   6.809  1.2262 -0.8511  1.7690
   96CHL1   C20 9560   5.450   6.376   7.783 -0.4394  0.1214 -0.2019
   96CHL1   H20 9561   5.561   6.371   7.782 -0.4646 -1.1475 -1.8464
   96CHL1   C21 9562   5.400   6.230   7.759 -0.1151 -0.4040  0.0489
   96CHL1  H21A 9563   5.379   6.209   7.652 -0.3935  0.7935 -0.1431
   96CHL1  H21B 9564   5.300   6.212   7.804  0.6034 -1.0718  1.4367
   96CHL1  H21C 9565   5.470   6.156   7.803 -2.7556 -2.4389  1.0869
   96CHL1   C22 9566   5.406   6.422   7.922  0.1185  0.4790 -0.2724
   96CHL1  H22A 9567   5.444   6.526   7.934 -1.0355  1.1079 -1.6941
   96CHL1  H22B 9568   5.295   6.427   7.930  0.1716 -0.5241  1.7694
   96CHL1   C23 9569   5.465   6.343   8.038 -0.2620  0.1996  0.2674
   96CHL1  H23A 9570   5.426   6.396   8.128 -2.3998 -0.6966 -0.0865
   96CHL1  H23B 9571   5.434   6.237   8.029  0.1424 -0.0194  1.2292
   96CHL1   C24 9572   5.620   6.332   8.056  0.3502 -0.4848  0.9370
   96CHL1  H24A 9573   5.635   6.263   8.141 -2.6655  0.4518  2.3578
   96CHL1  H24B 9574   5.660   6.295   7.959 -0.8645 -1.9943  0.9658
   96CHL1   C25 9575   5.693   6.461   8.091  1.0299 -0.3847 -0.4064
   96CHL1   H25 9576   5.649   6.541   8.028  2.0218 -0.4026 -1.1401
   96CHL1   C26 9577   5.662   6.489   8.242 -0.4142  0.0990  0.0319
   96CHL1  H26A 9578   5.665   6.396   8.302 -3.6073  0.8620  1.5837
   96CHL1  H26B 9579   5.731   6.568   8.278  1.3911 -1.1087 -0.6130
   96CHL1  H26C 9580   5.554   6.512   8.249 -0.7105 -1.4203  1.0159
   96CHL1   C27 9581   5.848   6.464   8.067 -0.8665 -0.2168  0.1049
   96CHL1  H27A 9582   5.884   6.378   8.126  0.2342 -0.1733 -0.4759
   96CHL1  H27B 9583   5.860   6.445   7.958  1.9152 -0.9827  0.4538
   96CHL1  H27C 9584   5.888   6.564   8.094 -0.4133 -0.0680 -1.0428
   97OSM      N 9585   5.278   0.156  11.239 -0.3786 -0.1210 -0.4570
   97OSM    C15 9586   5.344   0.017  11.244  0.0949 -0.2130  0.4720
   97OSM   H15A 9587   5.410   0.016  11.330 -2.8861  1.6423  3.0486
   97OSM   H15B 9588   5.391   0.003  11.148 -0.8140 -0.2915  0.0281
   97OSM   H15C 9589   5.264  -0.055  11.256  2.1570 -2.6184  0.4619
   97OSM    C14 9590   5.182   0.172  11.358 -0.3532  0.3072  0.3391
   97OSM   H14A 9591   5.224   0.145  11.454  0.2601 -0.8363 -0.2241
   97OSM   H14B 9592   5.110   0.093  11.344 -0.7087  0.2964  2.0228
   97OSM   H14C 9593   5.127   0.265  11.359 -0.6119  0.2837 -2.4491
   97OSM    C13 9594   5.391   0.252  11.240  0.0069 -0.6390 -0.0293
   97OSM   H13A 9595   5.344   0.349  11.248  1.4319 -0.0089  1.2442
   97OSM   H13B 9596   5.452   0.250  11.151 -1.8349 -0.1389 -1.3590
   97OSM   H13C 9597   5.465   0.234  11.317 -1.8024 -2.0824  1.4585
   97OSM    C12 9598   5.206   0.164  11.106 -0.0570 -0.6514  0.6128
   97OSM   H12A 9599   5.283   0.165  11.030 -0.1963  1.8998  0.4304
   97OSM   H12B 9600   5.161   0.262  11.101  3.9870  1.4734  1.1002
   97OSM    C11 9601   5.082   0.074  11.075 -0.2237  0.5136  0.1044
   97OSM   H11A 9602   5.123  -0.025  11.044 -0.0258  0.5209  0.3321
   97OSM   H11B 9603   5.022   0.110  10.989 -2.2315 -1.4928  0.5724
   97OSM      P 9604   4.927  -0.063  11.231  0.5307  0.1115 -0.4477
   97OSM    O13 9605   5.032  -0.144  11.289 -0.4768  0.7945  0.1376
   97OSM    O14 9606   4.812  -0.027  11.318  0.1489 -0.0941  0.3837
   97OSM    O11 9607   4.877  -0.134  11.100  0.4731 -0.5104 -0.5039
   97OSM    O12 9608   4.988   0.065  11.184 -0.1474 -0.0016 -0.0906
   97OSM    C1S 9609   4.786  -0.072  11.005  0.2567 -0.2699 -0.3047
   97OSM    H1S 9610   4.825   0.030  10.986  1.2196 -0.5331  0.1506
   97OSM    H1T 9611   4.684  -0.077  11.047  1.4800 -0.6414  2.8915
   97OSM     NF 9612   4.686  -0.060  10.785 -0.2151 -0.9018 -0.1695
   97OSM    HNF 9613   4.606  -0.105  10.748 -0.6465 -0.3328  0.0606
   97OSM    C2S 9614   4.784  -0.136  10.863  0.3759  0.0615  0.7630
   97OSM    H2S 9615   4.888  -0.129  10.825 -0.3556 -1.7556 -1.7900
   97OSM    C3S 9616   4.755  -0.289  10.869 -0.2177 -0.2397 -0.5068
   97OSM    H3S 9617   4.661  -0.295  10.927  0.6292  0.0178  0.9509
   97OSM     O3 9618   4.849  -0.352  10.944 -0.2840 -0.5885  0.0398
   97OSM    HO3 9619   4.874  -0.280  11.003 -0.3864 -0.4853 -0.0432
   97OSM    C4S 9620   4.748  -0.355  10.733  0.2572 -0.2701 -0.0575
   97OSM    H4S 9621   4.644  -0.364  10.697  0.7286 -0.1767 -1.4976
   97OSM    C5S 9622   4.842  -0.380  10.643  0.2481  0.5636  0.1556
   97OSM    H5S 9623   4.949  -0.367  10.664  0.9615  0.4362 -2.8724
   97OSM    C6S 9624   4.810  -0.447  10.507 -0.4778  0.0325 -0.0170
   97OSM    H6S 9625   4.711  -0.498  10.507 -0.3081 -0.2976 -0.0993
   97OSM    H6T 9626   4.893  -0.519  10.489 -0.6012 -0.7166  2.0652
   97OSM    C7S 9627   4.812  -0.358  10.388 -0.4219 -0.1524  0.2538
   97OSM    H7S 9628   4.737  -0.276  10.388 -0.3707 -0.0765  1.6642
   97OSM    H7T 9629   4.792  -0.427  10.303  2.1978  0.2940 -0.8200
   97OSM    C8S 9630   4.953  -0.296  10.360  0.4407  0.1636 -0.2501
   97OSM    H8S 9631   5.016  -0.385  10.339 -2.6170 -1.6236 -2.8848
   97OSM    H8T 9632   4.984  -0.243  10.453 -1.8474  0.1686  0.5777
   97OSM    C9S 9633   4.955  -0.190  10.252 -0.3432 -0.4822 -0.2830
   97OSM    H9S 9634   4.875  -0.118  10.278  0.4862  0.8299 -1.2124
   97OSM    H9T 9635   4.942  -0.238  10.153 -1.3987  0.1612 -0.4706
   97OSM   C10S 9636   5.090  -0.116  10.243 -0.4860  1.0417 -0.1307
   97OSM   H10S 9637   5.168  -0.194  10.234 -0.5198  0.7318  1.7285
   97OSM   H10T 9638   5.102  -0.053  10.334  0.3043  1.0609 -0.2416
   97OSM   C11S 9639   5.100  -0.017  10.126 -0.1131  0.6256 -0.2460
   97OSM   H11S 9640   5.206   0.016  10.122 -0.1864  0.8220 -0.6316
   97OSM   H11T 9641   5.021   0.058  10.147 -1.3657 -0.5061 -0.8124
   97OSM   C12S 9642   5.079  -0.078   9.984 -0.3062  0.0019  1.3359
   97OSM   H12S 9643   4.977  -0.116   9.967 -0.4450  0.9211 -0.1596
   97OSM   H12T 9644   5.140  -0.171   9.981  0.6007  0.5873 -0.9833
   97OSM   C13S 9645   5.106   0.015   9.865 -0.8613 -0.1730  0.3464
   97OSM   H13S 9646   5.202   0.068   9.880 -0.5162  0.0751 -2.2850
   97OSM   H13T 9647   5.032   0.097   9.855  0.6502  1.2456  0.3854
   97OSM   C14S 9648   5.107  -0.056   9.725  1.0697 -0.1567 -0.2451
   97OSM   H14S 9649   5.004  -0.096   9.715  1.5690 -1.0081 -2.5084
   97OSM   H14T 9650   5.172  -0.146   9.716  0.9381 -0.4229  1.1063
   97OSM   C15S 9651   5.134   0.032   9.600  0.0177  0.2782  0.3838
   97OSM   H15S 9652   5.221   0.099   9.619  0.4915  0.1911 -1.2736
   97OSM   H15T 9653   5.043   0.091   9.577 -0.4394 -1.2446 -2.1046
   97OSM   C16S 9654   5.163  -0.054   9.470  0.6968  0.1610 -0.2997
   97OSM   H16S 9655   5.245  -0.127   9.489 -1.3196 -2.4445 -1.0387
   97OSM   H16T 9656   5.218   0.012   9.399 -0.0748  1.6236  0.4333
   97OSM   C17S 9657   5.047  -0.110   9.391  0.5534  0.3769 -0.5107
   97OSM   H17S 9658   4.974  -0.028   9.376  0.6066  0.7568  1.1819
   97OSM   H17T 9659   4.995  -0.175   9.464 -0.9721  0.9882 -1.0174
   97OSM   C18S 9660   5.093  -0.187   9.264 -0.0007  0.8756 -0.1250
   97OSM   H18S 9661   5.176  -0.257   9.284  0.2439  0.5719 -2.0117
   97OSM   H18T 9662   5.140  -0.124   9.186  0.3785 -0.7506 -1.2577
   97OSM   H18U 9663   5.004  -0.241   9.226  0.1793 -0.6632  1.5099
   97OSM    C1F 9664   4.717   0.060  10.737  0.3367  0.1603 -0.2149
   97OSM     OF 9665   4.828   0.111  10.758  0.3078  0.1926 -0.1997
   97OSM    C2F 9666   4.625   0.120  10.634  0.3138  0.3702  0.6097
   97OSM    H2F 9667   4.521   0.085  10.651 -1.0500  3.6649 -0.1646
   97OSM    H2G 9668   4.663   0.088  10.535 -1.5840 -0.1973  0.0311
   97OSM    C3F 9669   4.612   0.271  10.652  0.2258 -1.1651 -0.7421
   97OSM    H3F 9670   4.709   0.323  10.664  0.1780 -1.1060 -0.6090
   97OSM    H3G 9671   4.555   0.293  10.745 -1.3723  0.3634 -1.9964
   97OSM    C4F 9672   4.530   0.341  10.545  0.5552 -0.1443  0.2363
   97OSM    H4F 9673   4.521   0.448  10.572  2.7211 -0.1738  1.2234
   97OSM    H4G 9674   4.422   0.312  10.548  1.4327 -3.8397  1.0776
   97OSM    C5F 9675   4.576   0.335  10.398 -0.2176  0.2720  0.3729
   97OSM    H5F 9676   4.594   0.231  10.364  2.2217  0.4878  0.8494
   97OSM    H5G 9677   4.664   0.401  10.389 -0.4942  0.7728  1.2388
   97OSM    C6F 9678   4.472   0.393  10.300 -0.4218  0.3597 -0.8490
   97OSM    H6F 9679   4.372   0.343  10.294 -0.9726  1.3965 -0.5723
   97OSM    H6G 9680   4.516   0.389  10.198 -0.0914 -0.7688 -0.6728
   97OSM    C7F 9681   4.442   0.545  10.331 -0.6325  1.2289 -0.4967
   97OSM    H7F 9682   4.536   0.603  10.351  2.3018 -3.6030  1.6002
   97OSM    H7G 9683   4.386   0.557  10.427  0.3109 -0.8870  0.3841
   97OSM    C8F 9684   4.365   0.608  10.213 -0.1733 -0.4015  0.4695
   97OSM    H8F 9685   4.340   0.712  10.244 -2.9903  0.0513 -2.7510
   97OSM    H8G 9686   4.267   0.558  10.205  0.1814 -1.1016  0.3859
   97OSM    C9F 9687   4.434   0.621  10.081 -0.4368  0.3979 -0.9469
   97OSM    H9F 9688   4.519   0.691  10.081 -0.4494  0.4137 -0.2612
   97OSM   C10F 9689   4.415   0.550   9.967  0.5059  0.1182 -0.3671
   97OSM   H10F 9690   4.485   0.571   9.884  1.8503 -0.2904  0.6360
   97OSM   C11F 9691   4.310   0.443   9.951 -0.3849  0.4218  0.6243
   97OSM   H11F 9692   4.207   0.481   9.973 -1.4549 -1.5794 -0.6422
   97OSM   H11G 9693   4.329   0.368  10.031 -0.0287  0.0156  0.1576
   97OSM   C12F 9694   4.316   0.379   9.812  0.1721  0.0751 -0.0330
   97OSM   H12F 9695   4.249   0.290   9.802 -1.0387  1.1179 -1.8387
   97OSM   H12G 9696   4.418   0.338   9.799 -0.0136 -0.1504 -0.8448
   97OSM   C13F 9697   4.289   0.480   9.697 -0.5121  0.1364 -0.4765
   97OSM   H13F 9698   4.364   0.562   9.700 -0.8634  0.4842 -1.1766
   97OSM   H13G 9699   4.190   0.525   9.719  0.3258  2.1901 -0.7265
   97OSM   C14F 9700   4.288   0.418   9.556 -0.2355  0.1005  0.3722
   97OSM   H14F 9701   4.222   0.329   9.567 -0.7477  0.5376  0.9161
   97OSM   H14G 9702   4.393   0.389   9.537 -0.3893 -0.0305 -0.3247
   97OSM   C15F 9703   4.223   0.511   9.451 -0.9379  0.6341  0.5541
   97OSM   H15F 9704   4.275   0.610   9.449 -2.1147  1.2763  0.5492
   97OSM   H15G 9705   4.117   0.532   9.476 -1.1010 -0.8700  1.2146
   97OSM   C16F 9706   4.245   0.452   9.312 -0.3983 -0.0346  0.1567
   97OSM   H16F 9707   4.230   0.342   9.317  0.3190 -0.2242 -1.4459
   97OSM   H16G 9708   4.351   0.467   9.282 -1.3116  1.0137 -2.9360
   97OSM   C17F 9709   4.144   0.505   9.197  0.2189  0.1929 -0.2415
   97OSM   H17F 9710   4.106   0.599   9.242  1.7601 -0.3592  2.4273
   97OSM   H17G 9711   4.062   0.431   9.205  1.1533 -1.0568 -1.5164
   97OSM   C18F 9712   4.205   0.518   9.055 -0.7190  0.3490 -0.1394
   97OSM   H18F 9713   4.303   0.570   9.065 -0.4284 -0.1708 -0.2305
   97OSM   H18G 9714   4.144   0.582   8.988  1.8793  2.1591 -0.9294
   97OSM   H18H 9715   4.218   0.421   9.001 -2.8043  0.3814 -0.7717
   98OSM      N 9716   1.899   2.058  11.277  0.1881 -0.4873 -0.2402
   98OSM    C15 9717   1.925   2.072  11.133 -0.0015  0.2505 -0.1445
   98OSM   H15A 9718   2.011   2.011  11.108 -1.1581 -1.8716  0.8193
   98OSM   H15B 9719   1.937   2.178  11.117 -0.5699  0.5341  1.2112
   98OSM   H15C 9720   1.835   2.049  11.077 -1.2988  3.1427  0.5466
   98OSM    C14 9721   2.020   2.109  11.358  0.2459 -0.3410  0.4650
   98OSM   H14A 9722   2.026   2.214  11.333 -1.2685 -0.9812 -3.1707
   98OSM   H14B 9723   2.103   2.051  11.321 -1.2691 -2.4933  0.2896
   98OSM   H14C 9724   2.022   2.090  11.465  1.1102  1.5741  0.8358
   98OSM    C13 9725   1.779   2.145  11.308 -0.1322  0.5605 -0.6035
   98OSM   H13A 9726   1.687   2.117  11.260 -0.5080  0.3763  0.2085
   98OSM   H13B 9727   1.796   2.251  11.298  0.0365  0.4720 -1.2790
   98OSM   H13C 9728   1.754   2.127  11.411  0.8316  1.1171 -0.2544
   98OSM    C12 9729   1.862   1.914  11.313  0.1627  0.4422 -0.2316
   98OSM   H12A 9730   1.831   1.921  11.416 -0.3394  2.5744 -0.4796
   98OSM   H12B 9731   1.944   1.843  11.314 -0.7960 -0.8201 -2.6847
   98OSM    C11 9732   1.757   1.834  11.224 -0.0318 -0.4017 -0.3770
   98OSM   H11A 9733   1.752   1.737  11.277  0.7913 -1.8189 -2.7051
   98OSM   H11B 9734   1.793   1.816  11.120  1.0521  0.6858 -0.2099
   98OSM      P 9735   1.505   1.858  11.141  0.0374  0.0208  0.1115
   98OSM    O13 9736   1.490   1.718  11.187 -0.0990  0.3623  0.0645
   98OSM    O14 9737   1.389   1.950  11.152  0.1614  0.0115 -0.5683
   98OSM    O11 9738   1.554   1.856  10.987 -0.1539 -0.4095 -0.0749
   98OSM    O12 9739   1.635   1.907  11.218  0.6633 -0.8965 -0.7263
   98OSM    C1S 9740   1.563   1.971  10.910 -0.3576 -0.5669  0.2815
   98OSM    H1S 9741   1.655   2.029  10.932 -0.3896  0.3982 -1.8637
   98OSM    H1T 9742   1.477   2.036  10.935 -2.0968 -2.8527  0.6111
   98OSM     NF 9743   1.588   2.061  10.681 -0.5072  0.1135  0.2881
   98OSM    HNF 9744   1.517   2.115  10.635  0.8972  1.4186 -0.4140
   98OSM    C2S 9745   1.548   1.943  10.757 -0.4594 -1.1342  0.6923
   98OSM    H2S 9746   1.620   1.862  10.733 -0.3131 -1.6095  2.5407
   98OSM    C3S 9747   1.410   1.881  10.715  0.3681  0.4934  0.3115
   98OSM    H3S 9748   1.324   1.950  10.730 -1.3962 -1.0741 -1.8470
   98OSM     O3 9749   1.368   1.768  10.790 -0.6591 -0.4952  0.1199
   98OSM    HO3 9750   1.414   1.771  10.874  0.5864 -0.5274 -0.5374
   98OSM    C4S 9751   1.429   1.843  10.572 -0.2257 -0.0084  0.0413
   98OSM    H4S 9752   1.514   1.774  10.558  0.5151  0.1530  3.1104
   98OSM    C5S 9753   1.352   1.892  10.473 -0.3694 -0.4683  0.6216
   98OSM    H5S 9754   1.274   1.962  10.507  0.3231  0.1595  0.9785
   98OSM    C6S 9755   1.373   1.864  10.323 -0.7079  0.0887  0.0619
   98OSM    H6S 9756   1.268   1.857  10.288 -0.7436 -1.3317  0.4196
   98OSM    H6T 9757   1.426   1.769  10.298 -2.7893 -1.2302  0.4649
   98OSM    C7S 9758   1.449   1.980  10.253  0.6253 -0.8208 -0.8797
   98OSM    H7S 9759   1.555   1.979  10.287 -0.1227  0.1982  1.6917
   98OSM    H7T 9760   1.399   2.071  10.292 -3.4105 -1.7266 -3.3281
   98OSM    C8S 9761   1.443   1.970  10.099 -0.1801  0.3827  0.0701
   98OSM    H8S 9762   1.511   1.887  10.070  0.1367  0.9646 -0.9217
   98OSM    H8T 9763   1.476   2.068  10.058  0.7089 -0.3199 -0.9702
   98OSM    C9S 9764   1.303   1.959  10.043  0.4264 -0.0317  0.3660
   98OSM    H9S 9765   1.234   2.029  10.093  3.1574  2.7969  0.5004
   98OSM    H9T 9766   1.281   1.852  10.063 -0.3033 -0.2236 -1.3134
   98OSM   C10S 9767   1.289   1.975   9.892 -0.2246  0.6320  0.2399
   98OSM   H10S 9768   1.186   1.942   9.866  0.1879  0.3466 -1.1257
   98OSM   H10T 9769   1.359   1.904   9.843 -1.1609  0.2280 -0.5409
   98OSM   C11S 9770   1.306   2.115   9.835  0.1274 -0.1482 -0.0216
   98OSM   H11S 9771   1.412   2.144   9.849  0.4428 -0.7302 -1.1006
   98OSM   H11T 9772   1.242   2.192   9.883  3.0626  1.7240  1.1284
   98OSM   C12S 9773   1.286   2.122   9.686 -0.2814 -0.0061 -0.3536
   98OSM   H12S 9774   1.279   2.230   9.658  0.7335  0.0359 -0.4860
   98OSM   H12T 9775   1.186   2.080   9.664  0.2593 -1.1412 -0.6844
   98OSM   C13S 9776   1.395   2.045   9.600  0.6188  0.4409 -0.4311
   98OSM   H13S 9777   1.394   1.935   9.617  0.3362  0.2240 -1.7534
   98OSM   H13T 9778   1.491   2.089   9.633  0.5370  1.1287 -1.0772
   98OSM   C14S 9779   1.370   2.054   9.449  0.9096  1.5853 -0.4117
   98OSM   H14S 9780   1.270   2.015   9.421  0.0284  3.4449 -0.0101
   98OSM   H14T 9781   1.446   1.979   9.418 -1.1912 -0.8315 -0.0941
   98OSM   C15S 9782   1.397   2.196   9.396 -0.1004  0.8845 -0.6852
   98OSM   H15S 9783   1.471   2.250   9.459  0.4172 -0.7401  0.1469
   98OSM   H15T 9784   1.298   2.247   9.399 -1.0050 -0.8441  1.0188
   98OSM   C16S 9785   1.444   2.192   9.245  0.2787 -0.8682  0.1337
   98OSM   H16S 9786   1.553   2.171   9.238  0.3500 -0.8304  1.0217
   98OSM   H16T 9787   1.436   2.299   9.218 -1.5060 -0.8797  0.4967
   98OSM   C17S 9788   1.355   2.112   9.155  0.2991  0.3506 -0.1371
   98OSM   H17S 9789   1.247   2.113   9.181  0.4547  0.9284  0.5045
   98OSM   H17T 9790   1.394   2.008   9.163 -0.2070 -0.0777 -2.5128
   98OSM   C18S 9791   1.380   2.141   9.013  0.5823 -0.0937  0.2128
   98OSM   H18S 9792   1.309   2.083   8.950  1.7975 -0.1297 -1.1675
   98OSM   H18T 9793   1.476   2.104   8.972 -0.1539 -1.3075 -0.5005
   98OSM   H18U 9794   1.360   2.246   8.983 -1.3750 -1.1879 -2.8719
   98OSM    C1F 9795   1.713   2.092  10.657 -0.3927 -0.0436  0.2915
   98OSM     OF 9796   1.803   2.025  10.714 -0.3878  0.0597 -0.2708
   98OSM    C2F 9797   1.750   2.207  10.565 -0.0490  0.1448 -0.1693
   98OSM    H2F 9798   1.737   2.304  10.617  0.6299 -1.0610  2.4017
   98OSM    H2G 9799   1.668   2.217  10.490 -1.3810  1.2368  1.3465
   98OSM    C3F 9800   1.891   2.179  10.505  0.5349 -0.3171  0.1722
   98OSM    H3F 9801   1.893   2.078  10.460  0.9118 -0.3881  0.3480
   98OSM    H3G 9802   1.967   2.193  10.585 -0.1225  3.8535  0.2916
   98OSM    C4F 9803   1.911   2.271  10.389  0.3696 -0.4049  0.1604
   98OSM    H4F 9804   2.017   2.250  10.363 -0.2200 -0.4333 -2.5556
   98OSM    H4G 9805   1.908   2.377  10.422  0.1356 -0.2340 -0.3917
   98OSM    C5F 9806   1.819   2.247  10.266  0.1333 -0.0712 -0.5497
   98OSM    H5F 9807   1.711   2.252  10.292  0.3371  0.6349  0.2057
   98OSM    H5G 9808   1.854   2.146  10.236 -0.0494 -0.1882 -0.3732
   98OSM    C6F 9809   1.855   2.333  10.139 -0.4056 -0.7468  0.0270
   98OSM    H6F 9810   1.818   2.437  10.150  0.8630 -0.2839  0.0623
   98OSM    H6G 9811   1.813   2.284  10.048  0.5609 -1.7715  0.1111
   98OSM    C7F 9812   2.004   2.353  10.109  0.3424  0.3665  0.1494
   98OSM    H7F 9813   2.062   2.260  10.131  0.0799  0.1588 -0.0363
   98OSM    H7G 9814   2.053   2.427  10.176 -0.1562  2.0103 -1.2372
   98OSM    C8F 9815   2.019   2.400   9.966  0.0078 -0.2580 -0.0435
   98OSM    H8F 9816   2.117   2.452   9.955  0.1281 -0.3670  0.5005
   98OSM    H8G 9817   1.944   2.480   9.950 -1.3649 -0.9135  2.5843
   98OSM    C9F 9818   2.028   2.286   9.860  0.1166 -0.3563 -0.6980
   98OSM    H9F 9819   2.035   2.187   9.906 -0.7412 -0.0023  0.2492
   98OSM   C10F 9820   2.039   2.301   9.725  0.2518  0.2862 -0.0358
   98OSM   H10F 9821   2.012   2.213   9.665 -0.1878  0.3813  0.0224
   98OSM   C11F 9822   2.045   2.428   9.644 -0.1734 -0.7080  0.1144
   98OSM   H11F 9823   2.116   2.501   9.689  0.7723 -0.3197 -1.9208
   98OSM   H11G 9824   1.944   2.475   9.646  0.1855  0.0900 -0.0933
   98OSM   C12F 9825   2.083   2.393   9.499  0.0164  0.3761 -0.0637
   98OSM   H12F 9826   2.170   2.325   9.497  0.3850  0.6921  2.1669
   98OSM   H12G 9827   2.097   2.481   9.434  0.8227 -0.0596 -0.4882
   98OSM   C13F 9828   1.959   2.326   9.431 -0.0461 -0.3002 -0.0780
   98OSM   H13F 9829   1.871   2.391   9.442  0.2219 -0.0060  0.3505
   98OSM   H13G 9830   1.938   2.233   9.489  0.1174  0.1899  0.7823
   98OSM   C14F 9831   1.962   2.281   9.280 -0.9504 -0.1876 -0.2682
   98OSM   H14F 9832   1.891   2.198   9.258 -0.2319 -0.8501 -0.1288
   98OSM   H14G 9833   2.066   2.253   9.254 -0.8696  0.0499 -0.2045
   98OSM   C15F 9834   1.917   2.399   9.186  0.0002 -0.3098 -0.5139
   98OSM   H15F 9835   1.962   2.377   9.087  1.7258  0.5999  0.0132
   98OSM   H15G 9836   1.955   2.496   9.226 -0.5364 -0.9221  1.6008
   98OSM   C16F 9837   1.770   2.413   9.179  0.4144  0.7828 -0.5770
   98OSM   H16F 9838   1.729   2.467   9.267 -1.0838  0.5248 -1.0903
   98OSM   H16G 9839   1.730   2.311   9.194  0.8866  0.6453 -0.2346
   98OSM   C17F 9840   1.722   2.457   9.046 -0.3914  0.2003  0.5660
   98OSM   H17F 9841   1.770   2.397   8.966  1.8607  2.0080  0.4746
   98OSM   H17G 9842   1.773   2.549   9.011 -0.3852 -0.2043 -0.5407
   98OSM   C18F 9843   1.571   2.478   9.029  0.6040 -0.1409  0.5901
   98OSM   H18F 9844   1.537   2.548   9.109 -0.4525 -1.3964  1.2784
   98OSM   H18G 9845   1.526   2.380   9.056  0.7871 -0.0259  1.3550
   98OSM   H18H 9846   1.544   2.510   8.926 -3.3419  3.3457  2.4034
   99OSM      N 9847   5.911   2.614  11.203  0.3878 -0.3823  0.1634
   99OSM    C15 9848   5.928   2.472  11.165  0.2942  0.8184  0.2522
   99OSM   H15A 9849   5.837   2.449  11.111 -0.6674  1.4102  1.5528
   99OSM   H15B 9850   5.944   2.409  11.251  1.7341  2.1259  0.9908
   99OSM   H15C 9851   6.016   2.464  11.103  1.0930 -2.0008  1.6147
   99OSM    C14 9852   5.776   2.634  11.272  0.0671 -0.8946  1.0397
   99OSM   H14A 9853   5.776   2.732  11.317  0.2025 -0.4414  0.0681
   99OSM   H14B 9854   5.745   2.553  11.337 -2.4382 -1.7703 -1.0413
   99OSM   H14C 9855   5.696   2.617  11.201 -0.4244  1.0008  1.1011
   99OSM    C13 9856   6.014   2.653  11.303  0.1778  0.3253 -0.0356
   99OSM   H13A 9857   5.987   2.597  11.391 -0.8124  0.1430 -0.4403
   99OSM   H13B 9858   6.015   2.757  11.332 -0.2975  1.1752 -2.8430
   99OSM   H13C 9859   6.112   2.622  11.271 -0.7229 -0.6688 -1.9647
   99OSM    C12 9860   5.924   2.713  11.083 -0.3354  1.0595  0.7394
   99OSM   H12A 9861   6.020   2.691  11.040 -0.3164 -0.3231  1.4304
   99OSM   H12B 9862   5.942   2.816  11.111  2.3714  0.3237  2.0976
   99OSM    C11 9863   5.821   2.703  10.969  0.0087 -0.5226  0.4470
   99OSM   H11A 9864   5.785   2.599  10.957  0.8669 -0.8598  0.6976
   99OSM   H11B 9865   5.875   2.724  10.874  0.3996 -2.1740  0.2828
   99OSM      P 9866   5.560   2.737  10.986 -0.3805  0.0861  0.3218
   99OSM    O13 9867   5.556   2.598  11.037 -0.9205 -0.0431  0.2203
   99OSM    O14 9868   5.491   2.842  11.063 -0.1293  0.1161 -0.4267
   99OSM    O11 9869   5.522   2.747  10.833  0.4409  0.0023  0.0846
   99OSM    O12 9870   5.709   2.787  10.984 -0.6278  0.0915  0.3315
   99OSM    C1S 9871   5.520   2.634  10.742 -0.0152 -0.0170  0.3420
   99OSM    H1S 9872   5.457   2.552  10.783 -0.5870  0.8531  1.2429
   99OSM    H1T 9873   5.621   2.589  10.729  0.1433  0.6793 -1.0387
   99OSM     NF 9874   5.409   2.561  10.528 -0.3896 -0.3571  0.3728
   99OSM    HNF 9875   5.475   2.506  10.478  0.5898  1.2380 -0.1648
   99OSM    C2S 9876   5.461   2.671  10.600 -0.5693 -0.8236  0.2634
   99OSM    H2S 9877   5.366   2.728  10.600 -1.2494 -1.8194 -2.4372
   99OSM    C3S 9878   5.569   2.756  10.520 -0.1194 -0.1745  0.2254
   99OSM    H3S 9879   5.654   2.687  10.502 -0.1004 -0.6394  1.9291
   99OSM     O3 9880   5.619   2.869  10.594  0.3528 -0.1638 -0.1117
   99OSM    HO3 9881   5.588   2.846  10.682 -0.4611 -1.0646 -0.6174
   99OSM    C4S 9882   5.518   2.801  10.384 -0.7492  0.1899  0.2780
   99OSM    H4S 9883   5.423   2.855  10.399 -1.7561 -2.1657  3.7032
   99OSM    C5S 9884   5.574   2.777  10.262  0.6877  0.6374 -0.1603
   99OSM    H5S 9885   5.673   2.730  10.251 -0.2794 -1.2937 -1.2930
   99OSM    C6S 9886   5.505   2.807  10.131 -0.2818  0.2507  0.7027
   99OSM    H6S 9887   5.544   2.908  10.107 -1.4324  0.2837 -1.2685
   99OSM    H6T 9888   5.394   2.816  10.133 -0.3188  1.4692 -2.1538
   99OSM    C7S 9889   5.533   2.694  10.034  0.2748 -0.5408  0.5324
   99OSM    H7S 9890   5.642   2.686  10.014  0.2744  1.4797 -0.5567
   99OSM    H7T 9891   5.480   2.708   9.937 -0.2308  0.2438  0.9125
   99OSM    C8S 9892   5.496   2.547  10.092  0.1252  0.5296 -0.2398
   99OSM    H8S 9893   5.385   2.533  10.092  0.2770 -0.8296  0.3909
   99OSM    H8T 9894   5.532   2.539  10.197 -0.3215 -1.3525 -0.2003
   99OSM    C9S 9895   5.552   2.434  10.002  0.6969  0.5276  0.2883
   99OSM    H9S 9896   5.662   2.453  10.004  0.4204  2.3215  1.7898
   99OSM    H9T 9897   5.517   2.452   9.899 -0.4520  0.2284  0.6102
   99OSM   C10S 9898   5.512   2.292  10.036  0.4635 -0.1584 -0.6031
   99OSM   H10S 9899   5.558   2.256  10.130  1.4557 -2.8691 -2.0277
   99OSM   H10T 9900   5.548   2.211   9.969  1.9822 -1.7486  1.9910
   99OSM   C11S 9901   5.354   2.267  10.047 -0.3422 -0.0298  0.2459
   99OSM   H11S 9902   5.294   2.304   9.961 -1.4111 -0.3504  0.8331
   99OSM   H11T 9903   5.307   2.312  10.137  1.0775 -0.9278  1.4787
   99OSM   C12S 9904   5.312   2.119  10.056  0.2525  0.2830 -0.4378
   99OSM   H12S 9905   5.345   2.066   9.964  0.0942  0.8889 -0.8593
   99OSM   H12T 9906   5.360   2.062  10.138  1.0284  1.1194 -0.2991
   99OSM   C13S 9907   5.163   2.108  10.075  0.4718  0.7723  0.1642
   99OSM   H13S 9908   5.104   2.146   9.989  0.1706 -0.1930 -0.0639
   99OSM   H13T 9909   5.123   2.150  10.170 -2.9374 -2.0209  0.1822
   99OSM   C14S 9910   5.110   1.962  10.086  0.1329  0.2352 -0.1323
   99OSM   H14S 9911   5.160   1.905  10.004  0.7852  2.0269 -1.0465
   99OSM   H14T 9912   5.011   1.950  10.038 -0.3899  1.8150  0.5076
   99OSM   C15S 9913   5.107   1.901  10.229  0.0214 -0.1689 -0.1670
   99OSM   H15S 9914   5.051   1.974  10.291  0.4561 -0.3703  0.4766
   99OSM   H15T 9915   5.212   1.913  10.265 -0.3357  2.6768  0.1570
   99OSM   C16S 9916   5.050   1.766  10.237 -0.5314 -0.6045  0.4122
   99OSM   H16S 9917   5.117   1.694  10.185  0.4126  0.5669 -0.0566
   99OSM   H16T 9918   4.956   1.771  10.178  0.2883  1.1535 -0.8340
   99OSM   C17S 9919   5.026   1.709  10.373 -0.1823  0.0274 -0.5684
   99OSM   H17S 9920   4.947   1.772  10.419  0.1226  1.7230 -2.2720
   99OSM   H17T 9921   5.121   1.718  10.431  0.0713 -2.4394 -0.5043
   99OSM   C18S 9922   4.981   1.562  10.378 -0.8187  0.3703  0.2311
   99OSM   H18S 9923   4.871   1.553  10.365 -0.5952 -1.8661 -0.5609
   99OSM   H18T 9924   5.013   1.511  10.471 -1.0878 -0.8071 -0.3044
   99OSM   H18U 9925   5.021   1.502  10.294 -3.1823 -1.1818  0.1100
   99OSM    C1F 9926   5.298   2.499  10.562 -0.3465 -0.2883 -0.4148
   99OSM     OF 9927   5.237   2.534  10.665  0.0561  0.3728  0.3735
   99OSM    C2F 9928   5.250   2.386  10.481 -0.1726  0.3489 -0.1098
   99OSM    H2F 9929   5.168   2.335  10.536 -0.4896  0.3172 -0.6087
   99OSM    H2G 9930   5.341   2.325  10.463  1.0317  1.9649  0.2327
   99OSM    C3F 9931   5.189   2.434  10.352 -0.8740 -0.2527 -0.1088
   99OSM    H3F 9932   5.260   2.475  10.277 -1.9824  0.3570 -0.8526
   99OSM    H3G 9933   5.141   2.352  10.294 -1.9158  1.1014 -1.2175
   99OSM    C4F 9934   5.082   2.548  10.361 -0.8684 -0.0218  0.2318
   99OSM    H4F 9935   5.128   2.644  10.393 -0.8743 -0.0969  0.4645
   99OSM    H4G 9936   5.003   2.511  10.429 -1.0298 -3.3394 -1.5621
   99OSM    C5F 9937   5.001   2.571  10.234  0.5672  0.2132  0.8598
   99OSM    H5F 9938   4.925   2.651  10.249 -1.0686 -1.2963  0.8984
   99OSM    H5G 9939   4.949   2.474  10.220  2.6722 -0.6387 -2.1577
   99OSM    C6F 9940   5.078   2.605  10.110 -0.4414  0.5365  0.6329
   99OSM    H6F 9941   5.138   2.518  10.077  0.4133  1.8041 -1.2973
   99OSM    H6G 9942   5.150   2.687  10.125 -1.2474  1.2527  0.6901
   99OSM    C7F 9943   4.991   2.631   9.991  0.5925 -0.0846 -0.1768
   99OSM    H7F 9944   4.922   2.714  10.020  0.0960 -1.2003  2.1337
   99OSM    H7G 9945   4.923   2.545   9.973  0.0159  0.3309 -0.0371
   99OSM    C8F 9946   5.078   2.655   9.868 -0.4399  0.4263  0.1377
   99OSM    H8F 9947   5.154   2.734   9.888  0.4391 -0.6674  1.3088
   99OSM    H8G 9948   5.005   2.698   9.796  0.2766  1.6954  0.1561
   99OSM    C9F 9949   5.144   2.536   9.808 -0.3923  0.2022  0.6659
   99OSM    H9F 9950   5.112   2.435   9.839 -0.4410  0.1447  0.4334
   99OSM   C10F 9951   5.246   2.547   9.716  0.2630  0.7045 -0.5810
   99OSM   H10F 9952   5.304   2.461   9.680  0.0492  0.4639 -0.3506
   99OSM   C11F 9953   5.310   2.669   9.660 -0.4987 -0.0262 -0.3221
   99OSM   H11F 9954   5.396   2.687   9.728 -0.9061  0.1440  0.1615
   99OSM   H11G 9955   5.246   2.760   9.661 -1.3853 -0.6362  0.1035
   99OSM   C12F 9956   5.367   2.637   9.512  0.1332  0.2101 -0.6427
   99OSM   H12F 9957   5.417   2.538   9.519  0.7456  0.5232 -0.5237
   99OSM   H12G 9958   5.446   2.715   9.498 -0.5511  1.2722  1.0125
   99OSM   C13F 9959   5.254   2.636   9.404 -0.2360 -0.7230  0.3426
   99OSM   H13F 9960   5.207   2.736   9.411 -1.0303 -1.1529  1.5477
   99OSM   H13G 9961   5.172   2.567   9.434 -2.2732  1.5903  0.3738
   99OSM   C14F 9962   5.323   2.618   9.261  0.0381 -0.0393 -0.4663
   99OSM   H14F 9963   5.386   2.706   9.236  0.5115  0.1402  1.1980
   99OSM   H14G 9964   5.228   2.620   9.204 -0.4054 -1.9154  0.1305
   99OSM   C15F 9965   5.406   2.491   9.245 -0.1152  0.0345  0.5736
   99OSM   H15F 9966   5.362   2.398   9.288  0.0650  0.5630  1.9854
   99OSM   H15G 9967   5.494   2.509   9.310  1.8240 -0.9960 -1.6432
   99OSM   C16F 9968   5.451   2.460   9.103 -0.3106 -0.1353  0.0527
   99OSM   H16F 9969   5.446   2.565   9.065 -0.4004  0.2291  1.0371
   99OSM   H16G 9970   5.371   2.399   9.056 -0.1491 -0.8805  0.7227
   99OSM   C17F 9971   5.591   2.413   9.097  0.5401 -0.5325  0.2288
   99OSM   H17F 9972   5.672   2.482   9.129  1.4713 -0.7886 -1.4163
   99OSM   H17G 9973   5.605   2.395   8.988  0.4932  1.6081 -0.1588
   99OSM   C18F 9974   5.615   2.289   9.176  0.1237  0.8290 -0.6257
   99OSM   H18F 9975   5.715   2.245   9.153  0.9486  2.3553 -0.0905
   99OSM   H18G 9976   5.542   2.210   9.151  0.4588  0.8366 -1.6564
   99OSM   H18H 9977   5.611   2.326   9.281 -3.1878  0.8870 -0.6657
  100OSM      N 9978   6.630   2.716  10.742  0.1040  0.1115  0.9954
  100OSM    C15 9979   6.594   2.766  10.600 -0.0131  0.1416 -0.3407
  100OSM   H15A 9980   6.579   2.682  10.535  1.2861 -0.5685  0.2367
  100OSM   H15B 9981   6.676   2.818  10.552 -1.2052  1.2511 -1.2432
  100OSM   H15C 9982   6.508   2.832  10.597 -0.6898 -0.6869  0.4101
  100OSM    C14 9983   6.662   2.832  10.832  0.0170  0.0370 -0.1854
  100OSM   H14A 9984   6.767   2.852  10.817  0.1675 -1.2666 -1.1144
  100OSM   H14B 9985   6.646   2.815  10.937  0.7699  0.1059 -0.0549
  100OSM   H14C 9986   6.599   2.913  10.799 -0.1694 -0.2546 -0.5521
  100OSM    C13 9987   6.505   2.657  10.799  0.7708  0.0217 -0.1565
  100OSM   H13A 9988   6.467   2.575  10.740 -0.7535  0.0454  0.7348
  100OSM   H13B 9989   6.428   2.733  10.801  0.2874 -0.4476  2.2985
  100OSM   H13C 9990   6.520   2.615  10.898  0.3160 -0.2081 -0.1774
  100OSM    C12 9991   6.736   2.617  10.736 -0.2288 -0.1750  0.4968
  100OSM   H12A 9992   6.698   2.526  10.693  0.4314 -0.5486  0.6954
  100OSM   H12B 9993   6.772   2.589  10.834 -0.2432 -0.6527  0.3649
  100OSM    C11 9994   6.861   2.663  10.658  0.4873  0.1626 -0.0220
  100OSM   H11A 9995   6.828   2.662  10.552 -3.0557 -3.5735  0.8252
  100OSM   H11B 9996   6.931   2.577  10.652 -0.1872 -0.3205 -1.8288
  100OSM      P 9997   7.069   2.774  10.768 -0.0808 -0.1445  0.2767
  100OSM    O13 9998   7.102   2.915  10.809  0.4142 -0.5465  0.0937
  100OSM    O14 9999   7.061   2.683  10.879 -0.0549  0.7268 -0.4259
  100OSM    O1110000   7.158   2.716  10.653 -0.2017 -0.3178 -0.5462
  100OSM    O1210001   6.919   2.787  10.708  0.3032  0.7229  0.2254
  100OSM    C1S10002   7.171   2.794  10.533  0.7131 -0.3375  0.1252
  100OSM    H1S10003   7.235   2.883  10.552  1.4928 -0.8820  0.0715
  100OSM    H1T10004   7.073   2.817  10.486  0.2106 -2.0123  0.3065
  100OSM     NF10005   7.259   2.804  10.311 -0.5089  0.2084 -0.0331
  100OSM    HNF10006   7.189   2.819  10.242 -0.1752  1.2919 -0.1506
  100OSM    C2S10007   7.238   2.715  10.423 -0.2810  0.4070  1.4332
  100OSM    H2S10008   7.341   2.693  10.458 -0.5269 -1.0625  1.3122
  100OSM    C3S10009   7.146   2.594  10.396 -0.1202 -0.0066  0.1724
  100OSM    H3S10010   7.041   2.632  10.392  0.4592  2.0153  2.0649
  100OSM     O310011   7.137   2.495  10.499 -0.1488  0.4411 -0.2170
  100OSM    HO310012   7.158   2.546  10.577  3.9346 -0.2960 -0.5766
  100OSM    C4S10013   7.187   2.531  10.267  0.1004  0.3050 -0.9551
  100OSM    H4S10014   7.122   2.569  10.188  0.3984 -0.2426 -1.4724
  100OSM    C5S10015   7.287   2.443  10.243  0.0530 -0.2178 -0.2805
  100OSM    H5S10016   7.347   2.415  10.331 -0.6860 -0.1735  0.2575
  100OSM    C6S10017   7.317   2.395  10.106 -0.3500  0.1398 -0.9193
  100OSM    H6S10018   7.418   2.348  10.111  0.1093  1.1724 -0.2013
  100OSM    H6T10019   7.325   2.480  10.035 -0.8955  0.4506 -0.6164
  100OSM    C7S10020   7.231   2.279  10.060  0.4620  0.4799 -0.3119
  100OSM    H7S10021   7.134   2.332  10.042  0.4167  0.6939  0.4916
  100OSM    H7T10022   7.223   2.198  10.135  1.0650 -0.1607 -0.9383
  100OSM    C8S10023   7.275   2.222   9.927  0.0756 -0.3437 -1.1131
  100OSM    H8S10024   7.185   2.176   9.881 -0.4961  0.4045 -0.7547
  100OSM    H8T10025   7.367   2.162   9.944  0.8105  1.4205  1.7182
  100OSM    C9S10026   7.310   2.323   9.819  0.0826  0.3386 -0.4417
  100OSM    H9S10027   7.398   2.374   9.865 -0.5082 -0.0957  1.2389
  100OSM    H9T10028   7.223   2.391   9.803 -0.3385 -0.4786 -1.7761
  100OSM   C10S10029   7.338   2.249   9.685 -0.1435 -0.2080  0.4791
  100OSM   H10S10030   7.256   2.194   9.634 -0.1825 -0.3963  0.7423
  100OSM   H10T10031   7.420   2.176   9.703 -0.1298  0.1357  1.8888
  100OSM   C11S10032   7.403   2.337   9.570 -0.9433  0.5647  0.0994
  100OSM   H11S10033   7.472   2.271   9.513  1.0709  0.3577  2.5841
  100OSM   H11T10034   7.472   2.419   9.598 -0.1595  1.0234 -2.8610
  100OSM   C12S10035   7.293   2.388   9.481  0.3837 -0.2119  0.8788
  100OSM   H12S10036   7.238   2.474   9.524  1.6105  1.7051 -1.2124
  100OSM   H12T10037   7.217   2.307   9.470  0.0124  0.4565 -2.2513
  100OSM   C13S10038   7.337   2.437   9.343  0.1538  0.2264  0.0930
  100OSM   H13S10039   7.433   2.492   9.351  0.6164 -0.7301  1.8900
  100OSM   H13T10040   7.254   2.499   9.303  0.1887  0.2677  0.0853
  100OSM   C14S10041   7.349   2.321   9.241  0.1316 -0.5604  0.3580
  100OSM   H14S10042   7.251   2.269   9.232 -0.5690  0.4320  1.8725
  100OSM   H14T10043   7.418   2.244   9.282  1.2412  0.1265 -0.1558
  100OSM   C15S10044   7.397   2.363   9.101 -0.0095 -0.2932 -1.0485
  100OSM   H15S10045   7.436   2.274   9.046 -1.6721 -1.7630  0.0344
  100OSM   H15T10046   7.487   2.426   9.117 -0.2126  1.3794 -5.3567
  100OSM   C16S10047   7.294   2.428   9.010 -0.4045 -0.1534  0.8568
  100OSM   H16S10048   7.226   2.481   9.080 -0.7283  0.3138  0.1959
  100OSM   H16T10049   7.240   2.341   8.967  0.4285 -0.5897  0.6723
  100OSM   C17S10050   7.358   2.498   8.893  0.6070 -0.4350 -0.1793
  100OSM   H17S10051   7.425   2.582   8.921 -0.5612  1.2047 -2.0536
  100OSM   H17T10052   7.277   2.553   8.841  1.2407  0.5761 -0.1272
  100OSM   C18S10053   7.421   2.414   8.779  0.9656 -0.4571 -0.8651
  100OSM   H18S10054   7.463   2.477   8.697 -1.0397  0.3433 -1.3297
  100OSM   H18T10055   7.346   2.348   8.730 -0.8719 -0.7544  2.0713
  100OSM   H18U10056   7.508   2.357   8.818  0.6622  0.8811  2.0417
  100OSM    C1F10057   7.363   2.889  10.307  0.0895 -0.0598  0.6321
  100OSM     OF10058   7.440   2.907  10.403 -0.8474  0.1186 -0.1040
  100OSM    C2F10059   7.383   2.977  10.184  1.2190  0.2316  0.0132
  100OSM    H2F10060   7.291   3.039  10.174 -0.0947 -1.8026 -1.3434
  100OSM    H2G10061   7.382   2.914  10.092 -0.3760  2.8904 -1.9414
  100OSM    C3F10062   7.497   3.073  10.197 -0.0868  0.1884 -0.3569
  100OSM    H3F10063   7.582   3.012  10.234 -0.9403 -0.8301 -0.0241
  100OSM    H3G10064   7.477   3.152  10.272  3.2700 -1.5763  2.6787
  100OSM    C4F10065   7.541   3.140  10.065 -0.5611 -0.3892 -0.0062
  100OSM    H4F10066   7.564   3.065   9.987 -4.3128 -0.8934 -0.8202
  100OSM    H4G10067   7.630   3.202  10.091  1.2324 -1.5614 -2.8994
  100OSM    C5F10068   7.432   3.222   9.996  0.2477 -0.2177 -0.3801
  100OSM    H5F10069   7.385   3.295  10.065  0.0712  0.1870 -0.9186
  100OSM    H5G10070   7.340   3.165   9.968 -0.8168  1.1694  0.1643
  100OSM    C6F10071   7.477   3.296   9.871 -0.0027  0.1902  0.3712
  100OSM    H6F10072   7.523   3.227   9.797  1.3486  0.2309  1.1384
  100OSM    H6G10073   7.555   3.374   9.883  1.0516 -1.1169  2.5383
  100OSM    C7F10074   7.355   3.366   9.820  0.1057 -0.0766  0.0508
  100OSM    H7F10075   7.302   3.413   9.906  1.1931  2.2122 -0.4579
  100OSM    H7G10076   7.299   3.279   9.779  0.0970  0.3067 -0.7750
  100OSM    C8F10077   7.366   3.470   9.701  0.0644  0.3506  0.2114
  100OSM    H8F10078   7.402   3.567   9.743  1.8911 -0.8244  1.5249
  100OSM    H8G10079   7.259   3.478   9.673 -0.7551 -2.5270  2.0780
  100OSM    C9F10080   7.461   3.427   9.589  0.2995  0.3281  0.2864
  100OSM    H9F10081   7.567   3.453   9.606  1.0351 -1.9298 -0.4278
  100OSM   C10F10082   7.432   3.359   9.478 -0.1420 -0.5555  0.7967
  100OSM   H10F10083   7.517   3.335   9.412 -0.4033 -2.8571  1.2194
  100OSM   C11F10084   7.296   3.316   9.441 -0.3413 -0.0576 -0.4392
  100OSM   H11F10085   7.218   3.369   9.500  1.3553 -0.8450  2.7668
  100OSM   H11G10086   7.283   3.207   9.461 -1.2021 -0.2091 -1.7081
  100OSM   C12F10087   7.250   3.342   9.291  0.2858 -0.2301  0.1812
  100OSM   H12F10088   7.265   3.452   9.292 -0.7376 -0.0801  1.4143
  100OSM   H12G10089   7.142   3.325   9.276 -0.2196  2.8352 -0.2120
  100OSM   C13F10090   7.335   3.257   9.188  0.0369  0.2344  0.2024
  100OSM   H13F10091   7.327   3.147   9.206 -1.2362  0.0869 -1.0529
  100OSM   H13G10092   7.444   3.279   9.196  0.1972 -0.8750  1.4403
  100OSM   C14F10093   7.295   3.273   9.042  0.6593  0.7955 -0.1037
  100OSM   H14F10094   7.184   3.274   9.037  0.5920  1.6788  1.2528
  100OSM   H14G10095   7.341   3.187   8.989  0.2233  0.8372 -0.5645
  100OSM   C15F10096   7.335   3.406   8.969 -0.3329 -0.3909 -0.0166
  100OSM   H15F10097   7.446   3.409   8.970 -0.2458 -2.3004  0.8297
  100OSM   H15G10098   7.302   3.487   9.038  1.9730  0.8222 -0.2550
  100OSM   C16F10099   7.274   3.427   8.824 -0.0927 -0.5487 -0.1737
  100OSM   H16F10100   7.167   3.400   8.827  0.0855 -1.4945 -1.5886
  100OSM   H16G10101   7.328   3.358   8.757 -1.7788 -2.7096  0.6081
  100OSM   C17F10102   7.296   3.560   8.764 -0.8145 -0.1492 -0.9020
  100OSM   H17F10103   7.406   3.575   8.768 -0.6547 -1.4037  1.8839
  100OSM   H17G10104   7.257   3.644   8.825  1.5634  0.0622  0.4710
  100OSM   C18F10105   7.240   3.561   8.622 -0.0994 -0.1844 -0.2344
  100OSM   H18F10106   7.293   3.646   8.574 -0.0566  0.8054  1.4716
  100OSM   H18G10107   7.130   3.573   8.634 -0.2180  0.8272 -1.9585
  100OSM   H18H10108   7.277   3.467   8.575 -0.1160 -1.6246  2.4394
  101OSM      N10109   4.298   2.862  11.351 -0.5867 -0.2559  0.0780
  101OSM    C1510110   4.204   2.972  11.383  0.0617 -0.2419 -0.2947
  101OSM   H15A10111   4.144   2.983  11.294  1.1503 -0.2923 -1.0639
  101OSM   H15B10112   4.259   3.064  11.391  0.1781 -0.3329 -0.0275
  101OSM   H15C10113   4.135   2.951  11.463 -0.7101  0.2469 -0.8261
  101OSM    C1410114   4.417   2.882  11.443 -0.2245  0.5648 -0.2440
  101OSM   H14A10115   4.486   2.800  11.433 -1.4444 -0.6644  0.9823
  101OSM   H14B10116   4.381   2.893  11.544  1.7893  0.0809  0.5604
  101OSM   H14C10117   4.462   2.975  11.412  0.9689  1.0253  2.5817
  101OSM    C1310118   4.234   2.733  11.375  0.7790 -0.2656  0.4935
  101OSM   H13A10119   4.145   2.730  11.315  1.3719  2.1109 -0.6128
  101OSM   H13B10120   4.204   2.717  11.478 -0.9027 -2.2721 -0.2475
  101OSM   H13C10121   4.303   2.654  11.348  1.1223  0.6548 -1.5186
  101OSM    C1210122   4.331   2.864  11.204  0.2069 -0.5350  0.1461
  101OSM   H12A10123   4.399   2.784  11.179  2.1464  1.0727 -0.0388
  101OSM   H12B10124   4.380   2.959  11.188 -0.7711 -0.1523 -0.6506
  101OSM    C1110125   4.214   2.851  11.093  0.4690  0.1532 -0.1378
  101OSM   H11A10126   4.191   2.742  11.097  1.8520 -0.1779 -0.7756
  101OSM   H11B10127   4.268   2.863  10.996  1.5504  2.9242  0.7242
  101OSM      P10128   4.066   3.054  11.034  0.2080 -0.4637  0.2322
  101OSM    O1310129   3.925   3.079  11.085 -0.5163  1.4273 -0.0511
  101OSM    O1410130   4.168   3.160  11.058 -0.1609  0.1543  0.2325
  101OSM    O1110131   4.072   3.015  10.876  0.0433 -0.1804 -0.1406
  101OSM    O1210132   4.104   2.930  11.118  0.7994 -0.3344 -0.6238
  101OSM    C1S10133   3.965   2.928  10.832 -0.1607  0.2492 -0.2275
  101OSM    H1S10134   3.869   2.985  10.838 -0.7367 -0.8153  2.4722
  101OSM    H1T10135   3.953   2.833  10.889  0.2424 -0.1058 -0.7323
  101OSM     NF10136   3.856   2.821  10.639 -0.1593 -0.2039  0.4338
  101OSM    HNF10137   3.849   2.723  10.625  0.0781 -0.2325  0.5115
  101OSM    C2S10138   3.978   2.883  10.685  0.5103 -0.1043  0.8319
  101OSM    H2S10139   3.987   2.975  10.624  1.3945 -1.3644 -1.0430
  101OSM    C3S10140   4.104   2.792  10.664  0.0887 -1.2266 -0.1050
  101OSM    H3S10141   4.093   2.706  10.733 -2.0773 -1.1592 -0.2883
  101OSM     O310142   4.222   2.855  10.694  0.0062 -0.0519 -0.1727
  101OSM    HO310143   4.207   2.906  10.775  1.5349 -0.1340  0.1896
  101OSM    C4S10144   4.113   2.749  10.525 -0.1420  0.6999 -0.1390
  101OSM    H4S10145   4.108   2.839  10.462 -1.1213  1.0264  0.3814
  101OSM    C5S10146   4.127   2.620  10.473 -0.4971 -0.0407 -0.6490
  101OSM    H5S10147   4.117   2.534  10.541 -1.4060 -0.3674 -1.1766
  101OSM    C6S10148   4.135   2.578  10.327 -0.7656  0.0295 -0.1546
  101OSM    H6S10149   4.053   2.508  10.301 -0.6206 -0.0547 -0.3922
  101OSM    H6T10150   4.229   2.519  10.321 -0.3679  0.4367  1.5863
  101OSM    C7S10151   4.145   2.687  10.217  0.4072  0.2381  0.8020
  101OSM    H7S10152   4.249   2.724  10.211  0.2187  0.6069 -1.2362
  101OSM    H7T10153   4.085   2.779  10.234 -1.0977 -0.6001  0.3048
  101OSM    C8S10154   4.113   2.646  10.072  0.0550  0.5408 -0.3616
  101OSM    H8S10155   4.004   2.621  10.075  0.3101 -0.8242 -1.3472
  101OSM    H8T10156   4.159   2.547  10.052 -1.8140 -0.2764 -0.8779
  101OSM    C9S10157   4.143   2.750   9.959 -0.5360  0.2215 -0.1619
  101OSM    H9S10158   4.249   2.781   9.973 -0.8090  0.6664  1.1030
  101OSM    H9T10159   4.079   2.838   9.984  0.9101  1.3510 -0.2517
  101OSM   C10S10160   4.118   2.703   9.817  0.5107  0.8370 -0.0949
  101OSM   H10S10161   4.014   2.667   9.802  0.6441 -0.5728  1.8730
  101OSM   H10T10162   4.196   2.631   9.786  1.1203  0.6986  1.6463
  101OSM   C11S10163   4.156   2.815   9.723 -0.4279 -1.0394  0.0644
  101OSM   H11S10164   4.261   2.846   9.744 -0.6898  0.0039 -0.0930
  101OSM   H11T10165   4.085   2.899   9.738 -0.2105 -0.9669  0.7111
  101OSM   C12S10166   4.153   2.771   9.580 -0.6165 -0.7175  0.7242
  101OSM   H12S10167   4.225   2.690   9.555 -0.4586 -0.5952  0.7776
  101OSM   H12T10168   4.165   2.863   9.519 -1.9180  0.3653  2.0151
  101OSM   C13S10169   4.011   2.738   9.537 -0.4960 -0.4243 -0.1816
  101OSM   H13S10170   3.961   2.660   9.598 -0.1036 -0.7913 -0.3285
  101OSM   H13T10171   4.024   2.727   9.427 -1.3071  0.8178 -0.4214
  101OSM   C14S10172   3.904   2.847   9.561  0.3993 -0.1941 -0.3884
  101OSM   H14S10173   3.956   2.941   9.533  0.2380 -0.3742 -1.3117
  101OSM   H14T10174   3.876   2.844   9.669  0.7253 -0.2438 -0.3023
  101OSM   C15S10175   3.786   2.820   9.469  0.1003  0.6012  0.4775
  101OSM   H15S10176   3.748   2.716   9.481  0.4994  0.5494  1.4001
  101OSM   H15T10177   3.823   2.844   9.368  0.4942  1.7750  0.8859
  101OSM   C16S10178   3.667   2.909   9.514 -0.6152  0.3118  0.7123
  101OSM   H16S10179   3.699   3.015   9.524 -1.5483  0.8184 -1.1357
  101OSM   H16T10180   3.644   2.878   9.618  4.0853 -0.1136  1.8812
  101OSM   C17S10181   3.548   2.882   9.417 -0.4091  0.4228 -0.2144
  101OSM   H17S10182   3.459   2.927   9.465 -0.8430 -0.0799 -0.5330
  101OSM   H17T10183   3.537   2.771   9.415  2.1279  0.1076 -1.1579
  101OSM   C18S10184   3.564   2.935   9.274  0.2018  0.2858  0.2046
  101OSM   H18S10185   3.471   2.924   9.214 -0.6361 -1.6877  1.7398
  101OSM   H18T10186   3.649   2.882   9.226 -0.0756 -1.9316  1.9716
  101OSM   H18U10187   3.595   3.041   9.281 -1.3213  0.7296  0.5244
  101OSM    C1F10188   3.746   2.901  10.613  0.0698  0.4323 -0.5949
  101OSM     OF10189   3.746   3.022  10.618  0.7636 -0.0093  0.2810
  101OSM    C2F10190   3.621   2.827  10.580  0.1075  0.1544  0.5661
  101OSM    H2F10191   3.549   2.854  10.661 -0.5410 -1.4745  0.5656
  101OSM    H2G10192   3.643   2.718  10.585 -1.9693 -0.2913  1.3274
  101OSM    C3F10193   3.565   2.870  10.439 -0.3256  0.3535 -0.5537
  101OSM    H3F10194   3.551   2.980  10.439 -0.2928  0.3648 -1.2061
  101OSM    H3G10195   3.465   2.824  10.422  0.1067 -0.1064 -2.0296
  101OSM    C4F10196   3.665   2.835  10.325 -0.8951 -0.2051 -0.4252
  101OSM    H4F10197   3.691   2.727  10.335 -0.5812 -0.0369  0.6689
  101OSM    H4G10198   3.752   2.897  10.356 -0.6665 -0.6851 -0.0998
  101OSM    C5F10199   3.627   2.876  10.181 -0.7895  0.6563 -0.3491
  101OSM    H5F10200   3.526   2.839  10.152 -0.5751 -1.0487  0.9700
  101OSM    H5G10201   3.698   2.821  10.117 -1.3745  0.7283 -1.0766
  101OSM    C6F10202   3.623   3.030  10.169 -0.1205  0.0452  0.0062
  101OSM    H6F10203   3.570   3.070  10.258 -1.5927 -3.4680  0.8851
  101OSM    H6G10204   3.729   3.065  10.169  0.0862 -0.5502 -0.5193
  101OSM    C7F10205   3.551   3.063  10.035  0.5680 -0.1922  0.1971
  101OSM    H7F10206   3.464   2.995  10.021  0.6012  0.1137 -1.8395
  101OSM    H7G10207   3.624   3.036   9.955 -1.3601 -0.4154 -1.5618
  101OSM    C8F10208   3.519   3.208  10.000  0.1767  0.1414  0.4855
  101OSM    H8F10209   3.520   3.216   9.890  0.2540  1.3182  0.5652
  101OSM    H8G10210   3.611   3.261  10.032  0.6190 -0.5946  0.4723
  101OSM    C9F10211   3.392   3.283  10.050  0.4010 -0.2825  0.7522
  101OSM    H9F10212   3.307   3.215  10.069 -1.0367  0.8377 -1.3340
  101OSM   C10F10213   3.376   3.411  10.072 -0.2375  0.7901  0.2365
  101OSM   H10F10214   3.278   3.445  10.106 -0.0841  2.3865 -0.8192
  101OSM   C11F10215   3.483   3.511  10.055 -0.4180 -0.1679  0.4167
  101OSM   H11F10216   3.584   3.464  10.050 -0.1813  0.3187  0.5897
  101OSM   H11G10217   3.484   3.588  10.134 -0.0129  0.3283 -0.0625
  101OSM   C12F10218   3.474   3.588   9.916 -0.6918 -0.9476 -0.0178
  101OSM   H12F10219   3.545   3.673   9.924 -3.2719  1.3162  0.3423
  101OSM   H12G10220   3.376   3.639   9.905 -0.2356 -0.3602 -1.6547
  101OSM   C13F10221   3.490   3.496   9.794 -0.1214  0.5391  0.1533
  101OSM   H13F10222   3.392   3.456   9.761 -0.0216 -0.6673  1.2255
  101OSM   H13G10223   3.564   3.413   9.808  0.2421  0.8030 -0.1787
  101OSM   C14F10224   3.541   3.566   9.672  0.2125 -0.4139 -0.3211
  101OSM   H14F10225   3.628   3.626   9.708  0.8659 -2.3339  1.4720
  101OSM   H14G10226   3.467   3.627   9.616  1.6999  0.9965 -0.8426
  101OSM   C15F10227   3.592   3.462   9.569 -0.5045  0.5388  0.4475
  101OSM   H15F10228   3.665   3.394   9.619 -1.4543 -0.2051  0.8564
  101OSM   H15G10229   3.643   3.516   9.487 -2.3286  0.8730 -0.5043
  101OSM   C16F10230   3.484   3.366   9.503  0.1632 -0.5269 -0.5171
  101OSM   H16F10231   3.399   3.429   9.468  0.4589  0.2893  0.1813
  101OSM   H16G10232   3.452   3.302   9.588  2.0850 -0.0747  0.5977
  101OSM   C17F10233   3.543   3.283   9.389  0.1926 -0.0031 -0.3787
  101OSM   H17F10234   3.463   3.209   9.366 -0.9002 -0.1107  3.1332
  101OSM   H17G10235   3.625   3.227   9.439  1.3656  0.8172 -1.3315
  101OSM   C18F10236   3.596   3.356   9.265  0.1717 -0.1987 -0.2728
  101OSM   H18F10237   3.527   3.429   9.217  1.3900  0.8512 -0.4953
  101OSM   H18G10238   3.614   3.281   9.185  0.3112 -0.3192 -0.1303
  101OSM   H18H10239   3.691   3.406   9.295  0.4308  0.2850 -1.7717
  102OSM      N10240   5.186   4.898  11.023  0.0156 -0.6024 -0.0746
  102OSM    C1510241   5.084   4.992  10.985 -0.2165 -0.8216 -0.4654
  102OSM   H15A10242   4.996   4.947  10.941 -0.4960  0.5829 -1.3966
  102OSM   H15B10243   5.123   5.074  10.927  1.1169 -0.5841  0.7029
  102OSM   H15C10244   5.041   5.038  11.073  0.4251 -1.2781  0.0969
  102OSM    C1410245   5.297   4.976  11.097 -0.2871 -0.0878 -1.1376
  102OSM   H14A10246   5.338   5.047  11.028  1.2937  1.3945  1.1623
  102OSM   H14B10247   5.382   4.919  11.133  0.1113  1.0905 -0.1151
  102OSM   H14C10248   5.268   5.033  11.184  0.8956  0.0356 -0.8059
  102OSM    C1310249   5.134   4.798  11.121  0.4454 -0.3501  0.5314
  102OSM   H13A10250   5.216   4.731  11.142  0.0483 -1.5995 -1.5549
  102OSM   H13B10251   5.051   4.742  11.078 -1.2294  1.8614  0.6975
  102OSM   H13C10252   5.087   4.847  11.205 -0.7878 -2.4697  1.1684
  102OSM    C1210253   5.248   4.831  10.903 -0.0784  0.8387  0.2512
  102OSM   H12A10254   5.316   4.752  10.932 -1.4706  0.2668  2.1214
  102OSM   H12B10255   5.298   4.905  10.842 -1.5435  0.4632 -1.4712
  102OSM    C1110256   5.156   4.759  10.803 -0.3567  0.7950 -0.3096
  102OSM   H11A10257   5.216   4.733  10.713  0.9608  0.4625  0.6396
  102OSM   H11B10258   5.079   4.829  10.764 -0.6620  0.9783  0.6046
  102OSM      P10259   5.170   4.508  10.861 -0.3748  0.0449  0.6038
  102OSM    O1310260   5.283   4.504  10.960 -0.1146  0.1765  0.2184
  102OSM    O1410261   5.080   4.392  10.880 -0.8179 -0.6168  0.2028
  102OSM    O1110262   5.219   4.496  10.709 -0.2214 -0.3874 -0.4778
  102OSM    O1210263   5.096   4.644  10.861  0.2980 -0.2392  0.1548
  102OSM    C1S10264   5.115   4.468  10.615 -0.1171  0.8961  0.2441
  102OSM    H1S10265   5.019   4.511  10.647 -1.0632 -0.1223 -1.0866
  102OSM    H1T10266   5.107   4.360  10.590 -1.8044  1.4261 -1.7770
  102OSM     NF10267   5.039   4.525  10.394 -0.2913 -0.4345  0.0531
  102OSM    HNF10268   5.047   4.471  10.311  0.2824  1.5038 -1.1919
  102OSM    C2S10269   5.150   4.536  10.482  0.6357  0.0451 -0.1379
  102OSM    H2S10270   5.178   4.641  10.505  0.3285  0.0384  0.2862
  102OSM    C3S10271   5.280   4.473  10.423  0.4602 -0.2335  0.0392
  102OSM    H3S10272   5.268   4.362  10.418  3.2347 -0.5876 -0.1526
  102OSM     O310273   5.401   4.487  10.504 -0.1101 -0.0080  0.3606
  102OSM    HO310274   5.353   4.519  10.580 -3.5530  2.6822 -2.5685
  102OSM    C4S10275   5.289   4.528  10.281  0.8827  0.3849  0.4829
  102OSM    H4S10276   5.206   4.504  10.213  1.0110 -1.1499  0.8257
  102OSM    C5S10277   5.393   4.593  10.230  0.2761  0.3793  0.3670
  102OSM    H5S10278   5.482   4.603  10.294  0.9159 -1.9890 -0.0441
  102OSM    C6S10279   5.417   4.638  10.090  0.0770  0.0196 -1.1888
  102OSM    H6S10280   5.524   4.613  10.077 -0.0922 -1.9094  0.5473
  102OSM    H6T10281   5.401   4.747  10.083  1.5552  0.4698  1.4278
  102OSM    C7S10282   5.340   4.570   9.977 -0.5434 -1.0829 -0.4181
  102OSM    H7S10283   5.230   4.577   9.994 -0.6971  0.4958 -1.7295
  102OSM    H7T10284   5.359   4.461   9.981  0.5838 -0.8650  1.6439
  102OSM    C8S10285   5.359   4.635   9.841  0.2318 -0.1358 -0.0620
  102OSM    H8S10286   5.468   4.647   9.824 -0.1888  2.9982 -1.4059
  102OSM    H8T10287   5.320   4.738   9.821 -0.3356 -0.3178  0.0766
  102OSM    C9S10288   5.305   4.539   9.733  0.0950 -0.1392  0.6023
  102OSM    H9S10289   5.212   4.491   9.772  0.0071  0.6657  1.4145
  102OSM    H9T10290   5.381   4.458   9.723 -1.6098 -1.8099  0.4952
  102OSM   C10S10291   5.278   4.601   9.594 -0.1918  0.3848 -0.6940
  102OSM   H10S10292   5.212   4.690   9.606  0.2487  0.4090  2.1251
  102OSM   H10T10293   5.234   4.520   9.531  1.4282  0.1152 -1.5364
  102OSM   C11S10294   5.405   4.646   9.528 -0.2900  0.1198  0.6065
  102OSM   H11S10295   5.467   4.559   9.499 -2.2048 -1.2925  0.5617
  102OSM   H11T10296   5.472   4.707   9.593  0.6761 -1.2708  0.9620
  102OSM   C12S10297   5.381   4.725   9.398 -0.4851  0.5654 -0.3177
  102OSM   H12S10298   5.323   4.817   9.421  0.3016  0.8969  0.4161
  102OSM   H12T10299   5.322   4.660   9.330  0.4661  1.4216 -2.0069
  102OSM   C13S10300   5.505   4.764   9.322 -0.8524  0.4007 -0.0003
  102OSM   H13S10301   5.580   4.682   9.314 -0.5763  0.5376  1.0343
  102OSM   H13T10302   5.555   4.844   9.380 -1.3176 -0.1591  1.2221
  102OSM   C14S10303   5.470   4.820   9.183 -0.1439 -0.0064  0.4618
  102OSM   H14S10304   5.402   4.906   9.197 -1.9069 -0.9939 -1.4716
  102OSM   H14T10305   5.410   4.740   9.133  1.8184 -1.9742  1.0914
  102OSM   C15S10306   5.594   4.865   9.107 -0.3549  0.1472  0.0539
  102OSM   H15S10307   5.666   4.783   9.087  0.8948  0.9349  1.1059
  102OSM   H15T10308   5.647   4.932   9.178 -0.8899 -1.0792  1.6866
  102OSM   C16S10309   5.571   4.933   8.977  0.0669  0.3241  0.1176
  102OSM   H16S10310   5.661   4.989   8.944  0.0373  1.0272  1.1695
  102OSM   H16T10311   5.491   5.011   8.973 -1.5761 -1.2718  0.3125
  102OSM   C17S10312   5.542   4.827   8.862  0.2092 -0.1637 -0.1098
  102OSM   H17S10313   5.435   4.799   8.867  0.4362 -1.2672 -1.0717
  102OSM   H17T10314   5.599   4.733   8.875 -2.2370 -1.5538  1.2472
  102OSM   C18S10315   5.552   4.883   8.727 -0.4189 -0.3940 -0.1697
  102OSM   H18S10316   5.660   4.902   8.705  0.1849 -1.7111  1.4808
  102OSM   H18T10317   5.503   4.980   8.703 -1.0499 -1.1243 -2.0320
  102OSM   H18U10318   5.516   4.813   8.648  1.0493 -0.5297 -0.7524
  102OSM    C1F10319   4.922   4.590  10.403  0.7612  0.8079  0.3230
  102OSM     OF10320   4.886   4.659  10.501 -0.0115 -0.2245  0.1620
  102OSM    C2F10321   4.829   4.570  10.287  0.8468 -0.5291  0.0359
  102OSM    H2F10322   4.783   4.470  10.301  0.2357 -0.3813 -0.7672
  102OSM    H2G10323   4.873   4.570  10.185  0.4854  0.9452 -0.1563
  102OSM    C3F10324   4.723   4.679  10.296 -0.0531 -0.8382 -0.3563
  102OSM    H3F10325   4.776   4.775  10.285  0.8570 -1.2430  0.3364
  102OSM    H3G10326   4.686   4.679  10.401  0.3212 -0.7111 -0.2224
  102OSM    C4F10327   4.621   4.684  10.179 -0.1409  0.4260 -0.6549
  102OSM    H4F10328   4.576   4.582  10.182  0.7604  0.0301 -0.4014
  102OSM    H4G10329   4.673   4.700  10.082  0.8924  2.0402  0.1242
  102OSM    C5F10330   4.508   4.785  10.201 -0.0423  0.0209  0.3496
  102OSM    H5F10331   4.450   4.757  10.291  1.0673 -0.3608  0.9627
  102OSM    H5G10332   4.439   4.796  10.115  0.5174  1.6371  0.0719
  102OSM    C6F10333   4.553   4.929  10.236 -0.1444 -0.0079  0.1562
  102OSM    H6F10334   4.624   4.929  10.320  1.8335 -0.7108 -1.4389
  102OSM    H6G10335   4.468   4.994  10.267 -1.0902 -0.6626 -0.9447
  102OSM    C7F10336   4.636   4.991  10.124 -0.4658 -0.2015  0.3855
  102OSM    H7F10337   4.592   4.975  10.023 -0.8712 -3.0373  0.9351
  102OSM    H7G10338   4.734   4.940  10.116 -0.7277 -1.1060  2.3816
  102OSM    C8F10339   4.658   5.141  10.150 -0.8591 -0.3908  0.1426
  102OSM    H8F10340   4.681   5.144  10.259 -0.9374  0.9973  0.1436
  102OSM    H8G10341   4.569   5.207  10.135 -1.4509 -0.3286  3.1766
  102OSM    C9F10342   4.766   5.201  10.065  0.1586 -0.2254  0.5994
  102OSM    H9F10343   4.864   5.197  10.116 -0.4007 -1.6741  1.6434
  102OSM   C10F10344   4.749   5.237   9.935  0.0362 -0.6621  0.2728
  102OSM   H10F10345   4.842   5.277   9.892 -0.3723  0.9165  0.7847
  102OSM   C11F10346   4.632   5.229   9.844  0.9069  0.1587  0.0664
  102OSM   H11F10347   4.594   5.332   9.826  0.1699 -0.2601 -0.8916
  102OSM   H11G10348   4.545   5.176   9.889  3.0841 -3.4093  0.4315
  102OSM   C12F10349   4.652   5.172   9.706  0.3615 -0.3024  0.4378
  102OSM   H12F10350   4.686   5.067   9.699 -1.2859 -1.0700  2.8005
  102OSM   H12G10351   4.723   5.235   9.648  0.2005 -0.7335 -0.2337
  102OSM   C13F10352   4.514   5.165   9.625 -0.0124 -0.1931 -0.3181
  102OSM   H13F10353   4.481   5.270   9.640  2.4587  0.1975  3.5981
  102OSM   H13G10354   4.450   5.091   9.678  0.7161 -1.3912 -1.0576
  102OSM   C14F10355   4.527   5.116   9.483 -0.2040 -0.2753 -0.0750
  102OSM   H14F10356   4.432   5.136   9.429  0.9800  2.1777 -1.4567
  102OSM   H14G10357   4.566   5.012   9.477 -1.2397 -0.7773  1.4938
  102OSM   C15F10358   4.637   5.191   9.402  0.0716  0.3659  0.1570
  102OSM   H15F10359   4.730   5.194   9.462  0.9042  4.0892 -1.0478
  102OSM   H15G10360   4.592   5.292   9.403  0.6634  0.6566  2.6790
  102OSM   C16F10361   4.656   5.129   9.263  0.7942 -0.1874  0.3219
  102OSM   H16F10362   4.556   5.123   9.215  1.4983  0.7076 -1.3456
  102OSM   H16G10363   4.705   5.030   9.266 -0.1889 -0.6738  0.7412
  102OSM   C17F10364   4.743   5.221   9.168 -0.1765  0.1924  0.6797
  102OSM   H17F10365   4.832   5.250   9.228 -0.0781  0.9428  0.1930
  102OSM   H17G10366   4.704   5.325   9.155  0.2571  0.2186 -0.6281
  102OSM   C18F10367   4.779   5.160   9.037 -0.1521  0.7606  1.1444
  102OSM   H18F10368   4.855   5.219   8.982  0.1046  0.4269  1.1334
  102OSM   H18G10369   4.697   5.154   8.963  2.1139  0.6378 -1.5452
  102OSM   H18H10370   4.821   5.057   9.049 -1.4398 -0.3606 -2.6524
  103OSM      N10371   0.274   4.696  11.225  0.4086  0.6027  0.0157
  103OSM    C1510372   0.385   4.804  11.233 -0.5159  0.0912 -0.1933
  103OSM   H15A10373   0.358   4.890  11.174 -1.0153  0.7381  0.9545
  103OSM   H15B10374   0.477   4.759  11.199 -0.0941 -0.2246  1.2956
  103OSM   H15C10375   0.420   4.832  11.331  1.9490  0.0359 -0.9872
  103OSM    C1410376   0.246   4.665  11.083 -0.3066  0.6560  0.1094
  103OSM   H14A10377   0.166   4.593  11.074  0.3666  0.0312 -1.2736
  103OSM   H14B10378   0.327   4.621  11.026 -0.8124 -0.5642  0.2934
  103OSM   H14C10379   0.224   4.753  11.025 -1.7637  0.5752  0.5113
  103OSM    C1310380   0.318   4.577  11.301 -0.5023  0.0380 -0.0876
  103OSM   H13A10381   0.403   4.532  11.250 -1.3153 -0.6861 -0.8316
  103OSM   H13B10382   0.243   4.501  11.317 -0.1870 -1.2277 -3.6872
  103OSM   H13C10383   0.347   4.608  11.400  0.8214  0.9049 -0.7099
  103OSM    C1210384   0.148   4.749  11.279  0.2026  0.4436  0.0595
  103OSM   H12A10385   0.159   4.758  11.386  1.0724  0.6966 -0.0492
  103OSM   H12B10386   0.081   4.667  11.255  1.4094 -0.0742 -1.7800
  103OSM    C1110387   0.089   4.884  11.232  0.3680 -0.0305 -0.0427
  103OSM   H11A10388   0.160   4.962  11.267 -0.9743  0.6137  1.3339
  103OSM   H11B10389  -0.004   4.906  11.288 -1.9048 -3.9150 -1.9088
  103OSM      P10390  -0.076   4.813  11.035  0.3337  0.1168  0.7735
  103OSM    O1310391  -0.039   4.684  10.973  0.1092 -0.2775  0.2839
  103OSM    O1410392  -0.176   4.791  11.142  0.2992  0.2828 -0.2733
  103OSM    O1110393  -0.132   4.919  10.930  0.1141  0.5644  0.4006
  103OSM    O1210394   0.056   4.887  11.092  0.4833  0.1013  0.0571
  103OSM    C1S10395  -0.058   4.964  10.809  0.1223  0.1073  0.6685
  103OSM    H1S10396   0.013   4.888  10.773  1.0669  1.1767  0.2163
  103OSM    H1T10397  -0.002   5.055  10.840  0.7858 -0.0965  0.0883
  103OSM     NF10398  -0.053   5.040  10.570  0.4826  0.1233 -0.0854
  103OSM    HNF10399  -0.049   5.131  10.528  0.2347 -0.3085 -1.0744
  103OSM    C2S10400  -0.142   5.019  10.685 -0.3916 -0.7144 -0.1149
  103OSM    H2S10401  -0.208   4.932  10.663  0.7694 -2.0646  1.4304
  103OSM    C3S10402  -0.218   5.137  10.728  0.2395 -0.0782 -0.6399
  103OSM    H3S10403  -0.147   5.222  10.737  0.4098 -0.1655 -1.1420
  103OSM     O310404  -0.277   5.119  10.858 -0.2366 -0.6377  0.2937
  103OSM    HO310405  -0.235   5.042  10.898 -2.6864 -2.4069 -0.3159
  103OSM    C4S10406  -0.325   5.174  10.621 -0.8383  0.0053  0.6059
  103OSM    H4S10407  -0.291   5.258  10.558 -0.3646  0.3045  1.2442
  103OSM    C5S10408  -0.451   5.138  10.612 -0.4310 -0.0896  0.1676
  103OSM    H5S10409  -0.490   5.068  10.687  2.0340  0.8209  2.4332
  103OSM    C6S10410  -0.556   5.180  10.514  0.0849  0.0724  0.5190
  103OSM    H6S10411  -0.636   5.217  10.582  0.1487  0.6768  0.2652
  103OSM    H6T10412  -0.599   5.101  10.449 -1.6133  1.0325  0.4128
  103OSM    C7S10413  -0.503   5.291  10.419 -0.0242  0.1939  0.3670
  103OSM    H7S10414  -0.412   5.259  10.364 -0.7510 -1.0389 -0.1605
  103OSM    H7T10415  -0.479   5.377  10.484  0.5410 -0.6747  1.3413
  103OSM    C8S10416  -0.610   5.343  10.320 -0.2316  0.4886 -0.9858
  103OSM    H8S10417  -0.712   5.335  10.363  0.1419  2.4653  0.4215
  103OSM    H8T10418  -0.614   5.278  10.230 -0.3361  0.4469 -0.9505
  103OSM    C9S10419  -0.596   5.492  10.273 -0.3062  0.1890  0.3543
  103OSM    H9S10420  -0.614   5.550  10.366  0.4326 -3.6822  3.1802
  103OSM    H9T10421  -0.677   5.502  10.198 -0.5429 -0.1963  0.5541
  103OSM   C10S10422  -0.452   5.532  10.219  0.1626  0.0268  0.3406
  103OSM   H10S10423  -0.414   5.452  10.153 -1.9611 -1.1078  0.3958
  103OSM   H10T10424  -0.390   5.530  10.311  1.8209 -0.8311 -0.7486
  103OSM   C11S10425  -0.451   5.667  10.152 -0.2069  0.7051  0.0736
  103OSM   H11S10426  -0.345   5.691  10.130  0.4534 -1.0415  1.1657
  103OSM   H11T10427  -0.485   5.737  10.232  0.7867  2.4658 -0.9736
  103OSM   C12S10428  -0.532   5.679  10.015  0.2346 -0.2380  0.0082
  103OSM   H12S10429  -0.527   5.785   9.980 -1.0257 -0.5255 -1.1136
  103OSM   H12T10430  -0.640   5.660  10.034 -0.2260 -1.1027 -3.0191
  103OSM   C13S10431  -0.488   5.591   9.896  0.1188  0.1509 -0.2932
  103OSM   H13S10432  -0.502   5.484   9.922 -0.1303 -0.2357 -1.9304
  103OSM   H13T10433  -0.379   5.614   9.895 -0.0234  0.8324 -0.8298
  103OSM   C14S10434  -0.540   5.616   9.757 -0.2963 -0.0135 -0.2384
  103OSM   H14S10435  -0.650   5.601   9.756 -0.3107  0.0693 -0.0200
  103OSM   H14T10436  -0.496   5.529   9.704  2.3008  0.2079  1.3931
  103OSM   C15S10437  -0.515   5.754   9.702  0.1656 -0.1669 -0.9902
  103OSM   H15S10438  -0.407   5.768   9.681 -0.3919  2.2466 -2.7613
  103OSM   H15T10439  -0.554   5.825   9.778 -0.2840 -3.4945  2.1317
  103OSM   C16S10440  -0.590   5.775   9.573  0.6739  0.0955  0.6128
  103OSM   H16S10441  -0.581   5.879   9.536  0.6791  0.2424  1.0304
  103OSM   H16T10442  -0.695   5.741   9.581  0.5693 -0.9823 -3.2697
  103OSM   C17S10443  -0.527   5.697   9.456 -0.1084  0.2554  0.2666
  103OSM   H17S10444  -0.509   5.589   9.479 -0.4554 -0.1208 -1.1638
  103OSM   H17T10445  -0.431   5.734   9.416 -0.1171  0.2273  0.2195
  103OSM   C18S10446  -0.623   5.701   9.337  0.3041  0.5403 -0.0503
  103OSM   H18S10447  -0.717   5.645   9.353 -0.3091  1.4061 -0.4918
  103OSM   H18T10448  -0.567   5.662   9.249  0.1265  0.8018 -0.2812
  103OSM   H18U10449  -0.652   5.807   9.320 -0.2566  0.4314  0.2262
  103OSM    C1F10450   0.010   4.941  10.506 -0.1886  0.4564 -0.1928
  103OSM     OF10451   0.004   4.819  10.538  0.5151 -0.5262  0.0384
  103OSM    C2F10452   0.086   4.980  10.379  0.6631 -0.3354 -0.5005
  103OSM    H2F10453   0.163   5.058  10.399 -0.2385  0.5991 -0.5990
  103OSM    H2G10454   0.006   5.012  10.309 -1.1248 -4.5003 -0.6974
  103OSM    C3F10455   0.170   4.866  10.319 -0.2694  0.0923  0.2498
  103OSM    H3F10456   0.100   4.784  10.295  0.2045  0.0472 -1.0097
  103OSM    H3G10457   0.245   4.831  10.393 -1.4047  0.7230  1.7819
  103OSM    C4F10458   0.241   4.904  10.186  0.0506  0.7025  0.1253
  103OSM    H4F10459   0.350   4.890  10.198 -0.1565 -0.2403  1.0543
  103OSM    H4G10460   0.230   5.014  10.175  1.0641  0.5784 -3.7566
  103OSM    C5F10461   0.179   4.833  10.070 -0.2325 -0.1091  0.6282
  103OSM    H5F10462   0.071   4.854  10.055  0.1437  1.5608  0.0446
  103OSM    H5G10463   0.188   4.723  10.082  0.4133 -0.1064  0.1980
  103OSM    C6F10464   0.248   4.871   9.937 -1.2706 -0.1558  0.0770
  103OSM    H6F10465   0.252   4.982   9.928 -0.7528 -0.1432  0.4267
  103OSM    H6G10466   0.185   4.821   9.860 -0.4226  0.3195 -0.9430
  103OSM    C7F10467   0.389   4.810   9.911 -0.4397 -0.1251 -0.0199
  103OSM    H7F10468   0.375   4.708   9.954 -2.0766 -0.1297 -0.5136
  103OSM    H7G10469   0.455   4.863   9.983 -1.0477  2.6884 -1.3858
  103OSM    C8F10470   0.447   4.816   9.771  0.1271  0.8933 -0.0064
  103OSM    H8F10471   0.557   4.807   9.761  0.0219 -0.3801 -0.2691
  103OSM    H8G10472   0.420   4.916   9.732 -0.0890  1.2231  0.9707
  103OSM    C9F10473   0.387   4.714   9.684 -0.2065  0.0814 -0.1954
  103OSM    H9F10474   0.425   4.614   9.708  0.9027  0.5375 -0.0077
  103OSM   C10F10475   0.299   4.732   9.586  0.2227 -0.1773 -0.1695
  103OSM   H10F10476   0.283   4.644   9.522 -1.8505 -0.7438  1.0479
  103OSM   C11F10477   0.231   4.855   9.533  0.1983 -0.7095  0.7461
  103OSM   H11F10478   0.235   4.949   9.593 -0.5369 -0.1396 -0.0617
  103OSM   H11G10479   0.122   4.839   9.550 -0.1644  0.6530 -0.1679
  103OSM   C12F10480   0.266   4.894   9.389 -1.1144  0.0843  0.1797
  103OSM   H12F10481   0.351   4.965   9.377 -0.3027 -0.7668  0.6916
  103OSM   H12G10482   0.182   4.957   9.353 -0.9187  0.4071  0.2843
  103OSM   C13F10483   0.271   4.766   9.297 -1.0966  0.0630 -0.0349
  103OSM   H13F10484   0.179   4.707   9.319 -2.2712  2.1507  1.0156
  103OSM   H13G10485   0.349   4.691   9.318 -1.4764 -0.4147 -0.2902
  103OSM   C14F10486   0.265   4.807   9.150  0.1001 -0.3471 -0.6081
  103OSM   H14F10487   0.353   4.867   9.117 -0.1840  1.6174  1.8799
  103OSM   H14G10488   0.174   4.868   9.132  0.9784  1.9371  1.8772
  103OSM   C15F10489   0.245   4.679   9.068  0.3221  0.0336 -0.2898
  103OSM   H15F10490   0.139   4.653   9.046  0.7607 -1.3209 -0.9347
  103OSM   H15G10491   0.292   4.590   9.116 -0.3950  0.1277  0.5992
  103OSM   C16F10492   0.317   4.696   8.930  0.0688  0.0409  0.3769
  103OSM   H16F10493   0.331   4.593   8.890  2.3882  0.3989  0.1541
  103OSM   H16G10494   0.418   4.742   8.938 -0.0339  0.5122 -0.9126
  103OSM   C17F10495   0.230   4.780   8.833 -0.3602  0.1756  0.6241
  103OSM   H17F10496   0.214   4.880   8.879  0.9603  1.0195 -0.6500
  103OSM   H17G10497   0.131   4.735   8.810 -0.2482  0.5241 -0.6475
  103OSM   C18F10498   0.282   4.809   8.692  0.4879 -0.0337 -0.0906
  103OSM   H18F10499   0.357   4.734   8.658 -0.6607 -0.2791 -2.2780
  103OSM   H18G10500   0.342   4.903   8.684 -0.0252  0.3163  0.0850
  103OSM   H18H10501   0.196   4.811   8.621 -1.0378  2.8609  1.6596
  104OSM      N10502   0.648   0.706  11.002  0.3120 -0.0470 -0.7536
  104OSM    C1510503   0.506   0.696  11.055 -0.1868 -0.4610 -0.0774
  104OSM   H15A10504   0.436   0.739  10.985 -1.5739 -0.4600  1.2444
  104OSM   H15B10505   0.502   0.759  11.143  3.2531  0.6003 -0.5229
  104OSM   H15C10506   0.484   0.592  11.075  1.3278 -0.6515  0.8088
  104OSM    C1410507   0.648   0.710  10.854  0.0227  0.1731  0.3444
  104OSM   H14A10508   0.748   0.720  10.814 -1.4191 -1.1702 -4.1296
  104OSM   H14B10509   0.585   0.789  10.818 -0.8298 -1.4333 -1.9026
  104OSM   H14C10510   0.616   0.615  10.815  1.0977 -0.5535  1.1493
  104OSM    C1310511   0.696   0.834  11.050 -0.3584 -0.0920 -0.0978
  104OSM   H13A10512   0.693   0.833  11.158  0.7360  0.6780 -0.0466
  104OSM   H13B10513   0.633   0.916  11.016 -0.0008 -0.5257 -1.8867
  104OSM   H13C10514   0.798   0.851  11.018 -0.0724 -1.1904  0.2164
  104OSM    C1210515   0.735   0.597  11.059  0.1916  1.1224  0.1757
  104OSM   H12A10516   0.729   0.598  11.167 -1.7758 -0.8028  0.1580
  104OSM   H12B10517   0.839   0.618  11.041  0.1271  0.8552 -0.5456
  104OSM    C1110518   0.695   0.449  11.019 -0.1724  0.2302 -0.2953
  104OSM   H11A10519   0.775   0.385  11.064 -0.3010  1.2566  1.4916
  104OSM   H11B10520   0.694   0.444  10.908 -2.1855 -1.3697 -0.2709
  104OSM      P10521   0.495   0.274  11.021 -0.1388 -0.6478 -0.4880
  104OSM    O1310522   0.563   0.166  11.085  0.0233 -0.0965 -0.0072
  104OSM    O1410523   0.348   0.288  11.058 -0.4735 -0.1081  0.1304
  104OSM    O1110524   0.516   0.278  10.860 -0.3424 -0.3777 -0.5920
  104OSM    O1210525   0.564   0.416  11.068  0.0393 -0.1159 -0.2230
  104OSM    C1S10526   0.583   0.161  10.808 -0.1593 -0.3572 -0.4530
  104OSM    H1S10527   0.537   0.065  10.840  1.7543 -1.9564 -2.2370
  104OSM    H1T10528   0.689   0.159  10.843 -0.1369  2.0826 -0.2327
  104OSM     NF10529   0.625   0.026  10.583 -0.8850  0.1849 -1.0162
  104OSM    HNF10530   0.711   0.026  10.532  1.9130  2.3526  3.1218
  104OSM    C2S10531   0.584   0.156  10.650  0.0033 -0.6271 -0.2916
  104OSM    H2S10532   0.476   0.180  10.637  0.0606  0.7754  1.4249
  104OSM    C3S10533   0.666   0.277  10.593 -0.4516 -0.3612 -0.2012
  104OSM    H3S10534   0.774   0.258  10.616  0.5895  0.9432 -3.5051
  104OSM     O310535   0.624   0.398  10.655  0.2607 -0.1786 -0.0421
  104OSM    HO310536   0.552   0.376  10.715  0.4624 -1.7330 -0.3300
  104OSM    C4S10537   0.650   0.281  10.440  0.3047  0.0285 -0.2137
  104OSM    H4S10538   0.717   0.225  10.373 -0.3897 -1.1611  0.0360
  104OSM    C5S10539   0.542   0.348  10.382 -0.5013  0.0453  0.2759
  104OSM    H5S10540   0.469   0.393  10.451 -0.1921  0.7582  0.1473
  104OSM    C6S10541   0.517   0.359  10.232 -0.5198 -0.5629 -0.2925
  104OSM    H6S10542   0.523   0.464  10.195  1.2351 -0.2978  0.6393
  104OSM    H6T10543   0.419   0.322  10.194  0.7257 -1.2083 -3.1098
  104OSM    C7S10544   0.627   0.305  10.143 -0.1762  0.4947 -0.1375
  104OSM    H7S10545   0.658   0.202  10.170  0.4225  1.2952  2.6057
  104OSM    H7T10546   0.715   0.369  10.165 -0.6456  0.7336  1.1841
  104OSM    C8S10547   0.588   0.312   9.995  0.3483 -0.6820 -0.0489
  104OSM    H8S10548   0.560   0.417   9.970  0.6697 -1.0316 -2.0686
  104OSM    H8T10549   0.501   0.245   9.977  0.3396 -0.4060 -1.1626
  104OSM    C9S10550   0.718   0.294   9.913  0.2061  0.1671 -0.4375
  104OSM    H9S10551   0.780   0.208   9.949  1.1486 -0.5148 -3.4184
  104OSM    H9T10552   0.784   0.383   9.920 -1.2608  1.1677  1.8442
  104OSM   C10S10553   0.684   0.276   9.759  0.4238 -0.6729 -0.1028
  104OSM   H10S10554   0.625   0.188   9.728  3.5805 -2.2363 -2.1832
  104OSM   H10T10555   0.787   0.273   9.717  1.1495  2.9720  1.0305
  104OSM   C11S10556   0.612   0.402   9.691  0.1725 -0.0635  0.1032
  104OSM   H11S10557   0.666   0.497   9.712 -2.5550  1.7987 -0.7441
  104OSM   H11T10558   0.513   0.410   9.740  0.4409  1.8155  0.4222
  104OSM   C12S10559   0.578   0.371   9.539  0.2385 -0.1535 -0.4282
  104OSM   H12S10560   0.500   0.292   9.541 -0.5028  0.5752  1.5425
  104OSM   H12T10561   0.670   0.337   9.488  2.4541  0.6036  2.7777
  104OSM   C13S10562   0.506   0.491   9.466  0.3347 -0.7016 -0.0953
  104OSM   H13S10563   0.576   0.576   9.452  0.4060 -0.3980  1.7966
  104OSM   H13T10564   0.419   0.533   9.521 -0.6170 -2.3171 -0.3129
  104OSM   C14S10565   0.456   0.443   9.325 -0.1732 -0.1328  0.2436
  104OSM   H14S10566   0.376   0.370   9.348 -0.9694 -0.2569 -2.4836
  104OSM   H14T10567   0.530   0.400   9.255 -0.5658 -0.2771 -0.0877
  104OSM   C15S10568   0.385   0.559   9.250  0.7142 -0.3247 -0.9294
  104OSM   H15S10569   0.459   0.640   9.232  0.1882  0.3317 -0.2108
  104OSM   H15T10570   0.307   0.597   9.319  1.8961  3.0505 -1.2885
  104OSM   C16S10571   0.309   0.513   9.127  0.7552  0.0392 -0.5840
  104OSM   H16S10572   0.237   0.442   9.174  1.4209  0.8696  1.7920
  104OSM   H16T10573   0.373   0.455   9.057  1.0785 -0.3709  0.0386
  104OSM   C17S10574   0.248   0.627   9.051  1.1096  0.1966 -0.2665
  104OSM   H17S10575   0.336   0.691   9.029  0.0053  1.9400  0.1616
  104OSM   H17T10576   0.179   0.682   9.118 -0.6124 -1.3828 -0.6616
  104OSM   C18S10577   0.165   0.603   8.930  0.1700  0.4437  0.6724
  104OSM   H18S10578   0.226   0.539   8.862 -1.3101 -1.1473  0.7585
  104OSM   H18T10579   0.138   0.697   8.878 -0.7978 -0.2997 -0.2176
  104OSM   H18U10580   0.069   0.548   8.938  1.2715 -1.7493 -0.1482
  104OSM    C1F10581   0.556  -0.088  10.593  0.2738 -0.5220 -0.5682
  104OSM     OF10582   0.457  -0.107  10.665 -0.1277 -0.1632  0.3566
  104OSM    C2F10583   0.602  -0.195  10.493 -0.0780  0.2258  0.3721
  104OSM    H2F10584   0.711  -0.184  10.479 -0.0295 -0.7703 -0.1064
  104OSM    H2G10585   0.554  -0.158  10.400 -1.5754  0.2957  1.1378
  104OSM    C3F10586   0.554  -0.337  10.519 -0.0135 -0.9779  0.0291
  104OSM    H3F10587   0.443  -0.329  10.517 -0.0804 -1.6946  0.4877
  104OSM    H3G10588   0.594  -0.362  10.619  0.8787  2.7666  0.7502
  104OSM    C4F10589   0.595  -0.444  10.407  0.1291 -0.3474 -0.2032
  104OSM    H4F10590   0.553  -0.544  10.430 -2.2971  0.4137 -1.0818
  104OSM    H4G10591   0.706  -0.442  10.410  0.1696  0.5269 -1.3812
  104OSM    C5F10592   0.548  -0.412  10.264 -0.3899 -0.5235 -0.2559
  104OSM    H5F10593   0.597  -0.314  10.245  3.1881 -1.7048  2.0489
  104OSM    H5G10594   0.438  -0.395  10.274 -0.2228  1.1850 -1.0454
  104OSM    C6F10595   0.580  -0.519  10.161  0.4375 -0.2693 -0.3312
  104OSM    H6F10596   0.519  -0.606  10.192  2.1812 -0.1543  4.0563
  104OSM    H6G10597   0.687  -0.546  10.172  0.9192  1.8527  0.6696
  104OSM    C7F10598   0.558  -0.463  10.025  0.1138 -0.4151 -0.0767
  104OSM    H7F10599   0.591  -0.357  10.031  0.0987 -0.4288  0.2773
  104OSM    H7G10600   0.449  -0.459  10.003  0.2169  0.2850 -0.4846
  104OSM    C8F10601   0.632  -0.520   9.904 -0.1067 -0.6886 -0.0750
  104OSM    H8F10602   0.739  -0.505   9.928  0.8255 -1.9599 -3.0586
  104OSM    H8G10603   0.616  -0.463   9.810  2.1055  0.0059 -0.0677
  104OSM    C9F10604   0.604  -0.661   9.866 -0.1438  0.1789  1.0956
  104OSM    H9F10605   0.659  -0.740   9.919  0.7525  0.7684  1.0627
  104OSM   C10F10606   0.510  -0.703   9.777 -0.1211  0.4213  0.6872
  104OSM   H10F10607   0.503  -0.811   9.753 -0.5193  1.1684 -3.2324
  104OSM   C11F10608   0.407  -0.625   9.705 -0.4389  0.3731 -0.1909
  104OSM   H11F10609   0.391  -0.527   9.754  3.2266  0.8287  0.3600
  104OSM   H11G10610   0.303  -0.666   9.710 -1.4978  2.7628 -1.0577
  104OSM   C12F10611   0.464  -0.611   9.564 -0.1461  0.4053 -0.6346
  104OSM   H12F10612   0.495  -0.711   9.527 -1.3792 -0.5012  0.6975
  104OSM   H12G10613   0.560  -0.554   9.567  0.9253 -1.3403 -0.0447
  104OSM   C13F10614   0.362  -0.568   9.464 -0.1467 -0.4480 -0.5382
  104OSM   H13F10615   0.357  -0.457   9.464 -0.6609 -0.4452 -2.0514
  104OSM   H13G10616   0.262  -0.611   9.487 -0.7343  1.6883  1.2399
  104OSM   C14F10617   0.397  -0.600   9.320 -0.2692 -0.0088 -0.5916
  104OSM   H14F10618   0.417  -0.709   9.322 -1.4961 -0.2519  0.4779
  104OSM   H14G10619   0.481  -0.536   9.285  0.8503  1.3491  3.9072
  104OSM   C15F10620   0.275  -0.576   9.236  0.3191 -0.5161  0.7437
  104OSM   H15F10621   0.221  -0.481   9.257 -0.1373 -0.7149  0.4585
  104OSM   H15G10622   0.189  -0.644   9.255  0.3291 -0.4308  1.1212
  104OSM   C16F10623   0.300  -0.581   9.087  0.1919  0.0740 -0.1928
  104OSM   H16F10624   0.352  -0.670   9.046 -0.7672  0.2639 -1.9362
  104OSM   H16G10625   0.359  -0.489   9.067 -2.3411  1.6868 -0.7700
  104OSM   C17F10626   0.166  -0.564   9.013 -0.0101  0.0852  0.2791
  104OSM   H17F10627   0.127  -0.470   9.056  2.3102  0.7990  0.9572
  104OSM   H17G10628   0.097  -0.648   9.037 -0.5835 -0.3794 -2.6720
  104OSM   C18F10629   0.177  -0.570   8.861 -0.0447 -0.1339 -0.8221
  104OSM   H18F10630   0.252  -0.490   8.839 -1.7133  1.7124 -0.1273
  104OSM   H18G10631   0.085  -0.528   8.814 -0.2589  1.3457  0.7971
  104OSM   H18H10632   0.194  -0.672   8.821 -2.9501 -0.3847 -1.6144
  105OSM      N10633   1.495   5.409  11.098 -0.0562 -0.5752  0.2951
  105OSM    C1510634   1.368   5.357  11.167  0.3867 -0.2449 -0.7571
  105OSM   H15A10635   1.348   5.410  11.259  1.6122  2.0190 -1.7112
  105OSM   H15B10636   1.384   5.253  11.192 -0.2261 -0.3755 -0.8831
  105OSM   H15C10637   1.279   5.372  11.106  1.9544 -0.9584 -3.3886
  105OSM    C1410638   1.470   5.553  11.075 -0.2173 -0.0719  0.2548
  105OSM   H14A10639   1.385   5.573  11.011 -0.4043 -0.3510  0.4161
  105OSM   H14B10640   1.556   5.598  11.026 -0.1972  2.0574  2.1168
  105OSM   H14C10641   1.462   5.608  11.167  1.0158 -1.0062  0.9510
  105OSM    C1310642   1.605   5.398  11.198  0.2301  1.0887 -0.0961
  105OSM   H13A10643   1.591   5.467  11.281 -0.3176 -0.4391  1.1339
  105OSM   H13B10644   1.700   5.417  11.150 -0.5040  0.4803 -1.8780
  105OSM   H13C10645   1.607   5.298  11.239  0.7155  0.7352 -0.9678
  105OSM    C1210646   1.531   5.331  10.968 -0.0575 -0.2746 -0.1134
  105OSM   H12A10647   1.437   5.296  10.927 -0.7636  1.5587 -0.1339
  105OSM   H12B10648   1.586   5.241  10.993 -0.4008 -0.4525  0.0067
  105OSM    C1110649   1.618   5.399  10.857 -0.1956  0.1543  0.3493
  105OSM   H11A10650   1.590   5.506  10.843 -1.0059 -0.1013 -0.0580
  105OSM   H11B10651   1.594   5.340  10.766  1.1919 -1.8243  1.2021
  105OSM      P10652   1.830   5.244  10.875  0.0312 -0.5375  0.1422
  105OSM    O1310653   1.973   5.258  10.917 -0.1114  0.2986  0.3745
  105OSM    O1410654   1.748   5.133  10.930 -0.1910 -0.0124 -0.4417
  105OSM    O1110655   1.833   5.241  10.717 -0.4463 -0.0684 -0.0355
  105OSM    O1210656   1.751   5.383  10.897 -0.9008 -0.7174 -0.5362
  105OSM    C1S10657   1.922   5.329  10.643  0.1909  1.2319  0.5506
  105OSM    H1S10658   2.027   5.327  10.680  1.0992 -0.6257 -1.8620
  105OSM    H1T10659   1.892   5.433  10.667  2.0453  2.0270 -0.3353
  105OSM     NF10660   1.998   5.406  10.418  1.2814 -0.6530  0.4447
  105OSM    HNF10661   1.952   5.486  10.379 -0.0056 -1.3506  0.4784
  105OSM    C2S10662   1.918   5.303  10.487 -0.5444  0.6103  0.0723
  105OSM    H2S10663   1.967   5.205  10.469  0.6476  0.4805  3.3484
  105OSM    C3S10664   1.770   5.299  10.433 -0.8052  0.0845 -0.4354
  105OSM    H3S10665   1.718   5.388  10.475 -0.6681  0.4849 -1.1066
  105OSM     O310666   1.693   5.184  10.476 -0.5474  0.5886  0.0654
  105OSM    HO310667   1.737   5.145  10.552 -0.4725  0.0902 -0.2285
  105OSM    C4S10668   1.772   5.300  10.287  0.7410  0.3759  0.2834
  105OSM    H4S10669   1.785   5.198  10.247 -0.6835  0.1412  0.3767
  105OSM    C5S10670   1.732   5.394  10.207  0.5382 -0.6316  0.2041
  105OSM    H5S10671   1.694   5.488  10.248  2.8578  0.8430 -0.8583
  105OSM    C6S10672   1.724   5.394  10.053  0.3421 -0.0234 -0.0368
  105OSM    H6S10673   1.808   5.451  10.009 -0.2517  1.4800  0.7097
  105OSM    H6T10674   1.625   5.432  10.018  0.2914  1.6142  1.7543
  105OSM    C7S10675   1.734   5.256   9.986  0.5472 -0.3828 -0.0594
  105OSM    H7S10676   1.660   5.187  10.032  0.3976  0.2571  0.6756
  105OSM    H7T10677   1.840   5.224  10.000  0.5589 -0.1505  0.4063
  105OSM    C8S10678   1.724   5.251   9.833  0.0929  0.1771  0.4416
  105OSM    H8S10679   1.802   5.319   9.795 -0.4438 -0.3434 -1.7169
  105OSM    H8T10680   1.624   5.288   9.800 -0.5403 -1.7023  0.0986
  105OSM    C9S10681   1.744   5.107   9.778 -0.4469 -0.3294 -0.8344
  105OSM    H9S10682   1.658   5.043   9.805 -0.5873 -0.9759 -2.6569
  105OSM    H9T10683   1.837   5.063   9.821 -0.6276 -1.1370 -1.2610
  105OSM   C10S10684   1.763   5.111   9.629 -0.0381 -0.2730  0.1262
  105OSM   H10S10685   1.771   5.007   9.591 -0.3711 -0.2643  0.0222
  105OSM   H10T10686   1.849   5.168   9.590 -1.1663  0.8066 -0.8654
  105OSM   C11S10687   1.643   5.168   9.554 -0.3794  0.2482  0.2275
  105OSM   H11S10688   1.632   5.273   9.587 -2.1166  0.4950 -1.0031
  105OSM   H11T10689   1.555   5.107   9.584 -0.0222 -2.0466 -2.8456
  105OSM   C12S10690   1.648   5.155   9.401  0.1452 -0.2877 -0.4633
  105OSM   H12S10691   1.677   5.052   9.369  0.1209 -0.4481  0.0247
  105OSM   H12T10692   1.737   5.216   9.377  1.2069 -2.8443 -3.8785
  105OSM   C13S10693   1.524   5.209   9.338  0.4022 -0.2139 -0.5014
  105OSM   H13S10694   1.472   5.282   9.404  0.0576 -0.1628 -0.8188
  105OSM   H13T10695   1.446   5.129   9.346 -1.4671  1.5658 -0.0151
  105OSM   C14S10696   1.544   5.247   9.198  0.0390  0.1064 -0.4475
  105OSM   H14S10697   1.573   5.162   9.133 -0.2250 -1.4977  1.4419
  105OSM   H14T10698   1.629   5.319   9.192 -0.2055  0.6570  1.8893
  105OSM   C15S10699   1.418   5.313   9.151  0.6497  0.6157 -0.4897
  105OSM   H15S10700   1.374   5.373   9.233  0.4417  0.3799 -0.4280
  105OSM   H15T10701   1.349   5.227   9.139  2.3482 -0.6900 -1.4669
  105OSM   C16S10702   1.448   5.372   9.015  0.1909 -0.4588  0.5485
  105OSM   H16S10703   1.530   5.445   9.030  2.6883 -2.3777 -2.4200
  105OSM   H16T10704   1.353   5.421   8.985 -0.3800 -0.7371  1.8491
  105OSM   C17S10705   1.475   5.283   8.895 -0.1200  0.8905  0.7920
  105OSM   H17S10706   1.551   5.215   8.939  0.3584  2.1128  1.9169
  105OSM   H17T10707   1.532   5.344   8.822  0.1688 -0.3930 -0.0888
  105OSM   C18S10708   1.352   5.220   8.828  0.5542  0.2012  0.3317
  105OSM   H18S10709   1.269   5.294   8.821 -0.2303 -0.5976  1.0063
  105OSM   H18T10710   1.301   5.138   8.883 -0.3356  0.4880 -0.0390
  105OSM   H18U10711   1.373   5.200   8.721  0.7114 -0.6828  0.5212
  105OSM    C1F10712   2.127   5.408  10.422  0.5862 -0.8479 -0.0245
  105OSM     OF10713   2.190   5.325  10.487  0.0837  0.2715  0.1552
  105OSM    C2F10714   2.192   5.527  10.362  0.3341 -0.3179  0.0938
  105OSM    H2F10715   2.288   5.536  10.417 -0.2048 -0.6894  1.1206
  105OSM    H2G10716   2.125   5.615  10.375  0.1922  0.0281 -2.4095
  105OSM    C3F10717   2.228   5.516  10.212  0.1092 -1.3123  0.5281
  105OSM    H3F10718   2.133   5.531  10.156 -0.1896 -2.2485  0.7569
  105OSM    H3G10719   2.278   5.423  10.178 -1.6923 -1.4285 -2.0905
  105OSM    C4F10720   2.310   5.643  10.168  0.5163  1.0181 -0.6389
  105OSM    H4F10721   2.414   5.637  10.205  1.6723 -0.5435 -3.7487
  105OSM    H4G10722   2.253   5.731  10.205 -0.5899  0.5444 -1.1555
  105OSM    C5F10723   2.323   5.630  10.016 -0.6438  0.2476  0.2717
  105OSM    H5F10724   2.392   5.543  10.011 -1.2889 -0.3347  1.0990
  105OSM    H5G10725   2.388   5.718   9.998  2.4331 -1.4419  2.2688
  105OSM    C6F10726   2.207   5.621   9.918 -0.0344  0.4111  0.4167
  105OSM    H6F10727   2.148   5.527   9.927 -0.4320  0.5288 -0.7491
  105OSM    H6G10728   2.255   5.623   9.818 -1.3320 -0.8713 -0.2835
  105OSM    C7F10729   2.118   5.750   9.931 -0.7795  0.5065  1.1857
  105OSM    H7F10730   2.185   5.838   9.923 -0.7197  0.4277  0.7671
  105OSM    H7G10731   2.059   5.737  10.024  1.3485 -1.3590  2.3870
  105OSM    C8F10732   2.026   5.757   9.811 -0.0823  0.1610  0.4101
  105OSM    H8F10733   2.104   5.793   9.740  1.1461  0.0313  1.6441
  105OSM    H8G10734   1.957   5.844   9.810  0.0242  0.2629 -1.8253
  105OSM    C9F10735   1.950   5.629   9.782  0.4771  0.0600  0.5379
  105OSM    H9F10736   1.872   5.607   9.856 -0.7832 -2.1552 -1.3313
  105OSM   C10F10737   1.985   5.555   9.677  0.1555  0.0075  0.8545
  105OSM   H10F10738   1.912   5.476   9.654 -1.9118  2.1443 -0.3219
  105OSM   C11F10739   2.090   5.579   9.573  0.2853 -0.0747 -0.1112
  105OSM   H11F10740   2.156   5.490   9.583  0.1258  0.0197  2.2605
  105OSM   H11G10741   2.141   5.676   9.588 -1.2817  0.5471  1.3960
  105OSM   C12F10742   2.036   5.581   9.425  0.1120  0.3423  0.0597
  105OSM   H12F10743   2.123   5.613   9.364  1.2789 -3.1121 -0.3487
  105OSM   H12G10744   1.960   5.658   9.399  1.3527  1.6712  0.2868
  105OSM   C13F10745   2.007   5.442   9.361  0.0926  0.0938 -0.3123
  105OSM   H13F10746   1.936   5.381   9.421  1.5971 -1.0294  0.3976
  105OSM   H13G10747   2.105   5.390   9.369 -0.2400 -0.3385  1.3751
  105OSM   C14F10748   1.988   5.448   9.212 -0.4449  0.0915  0.3176
  105OSM   H14F10749   2.070   5.509   9.169  0.3739 -0.9090  0.4124
  105OSM   H14G10750   1.893   5.504   9.197 -0.7051 -0.3451  0.3072
  105OSM   C15F10751   1.981   5.313   9.151 -0.4974  0.1342  0.1488
  105OSM   H15F10752   1.914   5.244   9.207 -3.2866  2.4024 -0.1631
  105OSM   H15G10753   2.085   5.277   9.137 -0.2693  0.8453 -0.0259
  105OSM   C16F10754   1.925   5.321   9.004  0.2883 -0.1636 -0.1379
  105OSM   H16F10755   1.998   5.382   8.946  1.8082 -0.5728  1.2370
  105OSM   H16G10756   1.821   5.359   8.997  0.6542  0.6422 -1.9027
  105OSM   C17F10757   1.930   5.180   8.941 -0.6234  0.3528 -0.0035
  105OSM   H17F10758   1.867   5.105   8.994  0.5253 -2.7233 -2.6526
  105OSM   H17G10759   2.031   5.139   8.961 -1.9411 -2.9367  0.6789
  105OSM   C18F10760   1.906   5.172   8.789 -0.2199 -0.4689 -0.3823
  105OSM   H18F10761   1.895   5.065   8.759  1.6997 -0.3932 -1.5387
  105OSM   H18G10762   1.988   5.215   8.728  1.3869  1.0640  2.6310
  105OSM   H18H10763   1.814   5.227   8.758  1.1901  2.2989  0.0494
  106OSM      N10764   4.013   3.729  10.963 -0.2666  0.5451  0.5445
  106OSM    C1510765   4.139   3.784  10.920 -0.0311 -0.6254 -0.1515
  106OSM   H15A10766   4.134   3.890  10.900  4.8881 -0.0381  0.4969
  106OSM   H15B10767   4.194   3.742  10.837  1.1537  0.8034 -0.1477
  106OSM   H15C10768   4.211   3.777  11.001  0.5447 -1.7871 -0.7361
  106OSM    C1410769   4.041   3.592  11.018 -0.4096 -0.0252 -0.6129
  106OSM   H14A10770   4.090   3.585  11.114 -0.8580 -0.7445 -0.4305
  106OSM   H14B10771   4.112   3.544  10.952  0.7388  1.4355 -0.4850
  106OSM   H14C10772   3.946   3.541  11.021 -0.7581  0.5563 -1.3688
  106OSM    C1310773   3.968   3.811  11.081 -0.4747  0.1293  0.6003
  106OSM   H13A10774   3.880   3.766  11.125  0.5344 -0.9576  1.5858
  106OSM   H13B10775   3.937   3.908  11.044 -4.3714 -1.3883 -0.6557
  106OSM   H13C10776   4.052   3.811  11.149 -0.2375 -0.5817  0.3200
  106OSM    C1210777   3.921   3.727  10.846 -0.2589 -0.4578  0.7662
  106OSM   H12A10778   3.830   3.684  10.885 -1.7535 -0.0349 -1.9599
  106OSM   H12B10779   3.959   3.649  10.781 -0.6548 -1.6746  1.9491
  106OSM    C1110780   3.890   3.856  10.764 -0.1147  0.1548  0.0521
  106OSM   H11A10781   3.860   3.813  10.666  0.5747 -1.1980  0.4131
  106OSM   H11B10782   3.984   3.905  10.731  0.1297 -1.1294 -1.2561
  106OSM      P10783   3.650   3.925  10.807 -0.4168 -0.3165 -0.3880
  106OSM    O1310784   3.611   3.781  10.833 -0.2121 -0.1609 -0.0033
  106OSM    O1410785   3.570   4.032  10.879 -0.1075  0.6723 -0.5782
  106OSM    O1110786   3.647   3.938  10.647 -0.0978 -0.2048 -0.5647
  106OSM    O1210787   3.804   3.947  10.839  0.5101  0.0052 -0.0072
  106OSM    C1S10788   3.646   4.068  10.598  0.0015 -0.6305  0.0859
  106OSM    H1S10789   3.740   4.117  10.629 -0.6417  0.9408 -0.3694
  106OSM    H1T10790   3.563   4.133  10.633  1.2242  1.2186 -0.2982
  106OSM     NF10791   3.633   4.185  10.377 -0.3416 -0.5096 -0.8870
  106OSM    HNF10792   3.542   4.213  10.347  0.1366  0.8602 -1.1422
  106OSM    C2S10793   3.638   4.058  10.448 -0.4614 -0.1262  0.6235
  106OSM    H2S10794   3.736   4.016  10.415 -0.3880  0.0575  0.6094
  106OSM    C3S10795   3.527   3.951  10.408  0.3588  0.3619 -0.1081
  106OSM    H3S10796   3.430   3.976  10.456  1.4101  0.8365  1.8843
  106OSM     O310797   3.558   3.815  10.448  0.2196  0.2176 -0.5085
  106OSM    HO310798   3.629   3.834  10.509 -1.1400 -0.4876  1.4062
  106OSM    C4S10799   3.515   3.938  10.262 -0.1670  0.2375 -0.3042
  106OSM    H4S10800   3.601   3.889  10.215  1.9750  2.6545  0.8203
  106OSM    C5S10801   3.414   3.984  10.192 -0.1954 -1.0544  0.0991
  106OSM    H5S10802   3.331   4.041  10.236  0.4978  1.2094 -1.3231
  106OSM    C6S10803   3.401   3.961  10.042 -0.4279 -0.1794  0.6266
  106OSM    H6S10804   3.299   3.986  10.003  0.5228  3.4268  0.0971
  106OSM    H6T10805   3.422   3.857  10.008 -0.5450 -0.3154  0.9665
  106OSM    C7S10806   3.492   4.049   9.947 -1.2165 -0.4695  0.8405
  106OSM    H7S10807   3.598   4.028   9.973 -0.2524 -0.2434 -2.4918
  106OSM    H7T10808   3.487   4.157   9.971 -2.5957 -0.6891  1.6871
  106OSM    C8S10809   3.458   4.011   9.804 -0.3066  0.0572 -0.1349
  106OSM    H8S10810   3.447   3.901   9.795 -2.6709  0.2409 -0.1610
  106OSM    H8T10811   3.542   4.039   9.738 -2.8769  1.1587 -3.2180
  106OSM    C9S10812   3.334   4.083   9.749  0.1175  0.1598 -0.3499
  106OSM    H9S10813   3.356   4.191   9.765  0.0872 -0.4205  6.0233
  106OSM    H9T10814   3.262   4.052   9.827  1.9872  1.0017  1.8358
  106OSM   C10S10815   3.291   4.031   9.618 -0.1036  0.4847  0.3435
  106OSM   H10S10816   3.184   4.060   9.615  0.5887  3.5617  1.0746
  106OSM   H10T10817   3.309   3.922   9.619  0.2542  0.5187 -0.8036
  106OSM   C11S10818   3.360   4.104   9.503 -0.2427  0.8564  0.9597
  106OSM   H11S10819   3.466   4.075   9.512 -0.4038 -0.7677 -1.3477
  106OSM   H11T10820   3.358   4.215   9.505  2.7410  1.1361 -2.3498
  106OSM   C12S10821   3.310   4.047   9.370 -0.9336 -0.0598  0.6769
  106OSM   H12S10822   3.201   4.067   9.359 -1.0927  2.3245  4.5878
  106OSM   H12T10823   3.340   3.940   9.368 -1.5928 -0.2372 -0.3698
  106OSM   C13S10824   3.370   4.113   9.243  0.3168 -0.5334 -0.1656
  106OSM   H13S10825   3.479   4.091   9.250  0.2388 -0.8956 -0.0764
  106OSM   H13T10826   3.356   4.222   9.256  0.1713 -0.6673  0.9112
  106OSM   C14S10827   3.331   4.051   9.109 -0.0610 -0.7725 -0.4200
  106OSM   H14S10828   3.221   4.034   9.108 -0.2597  0.4560 -0.6660
  106OSM   H14T10829   3.370   3.947   9.104  0.3655 -0.7727  1.9098
  106OSM   C15S10830   3.391   4.118   8.992 -0.0594  0.1001  0.2662
  106OSM   H15S10831   3.392   4.037   8.915 -0.3129  1.2063 -0.9277
  106OSM   H15T10832   3.497   4.148   9.010  0.7448 -2.2044 -0.2537
  106OSM   C16S10833   3.309   4.240   8.946 -0.6036  0.7159  0.6334
  106OSM   H16S10834   3.291   4.305   9.034  1.4049  1.9661  0.1751
  106OSM   H16T10835   3.216   4.187   8.914  0.9641 -1.5362 -0.4873
  106OSM   C17S10836   3.387   4.322   8.847  0.3301  0.1380 -0.1622
  106OSM   H17S10837   3.493   4.296   8.869 -0.1187 -0.6190  1.2965
  106OSM   H17T10838   3.380   4.432   8.852  2.3284  0.2854  0.2026
  106OSM   C18S10839   3.344   4.287   8.712  0.3686  0.0443 -0.0558
  106OSM   H18S10840   3.400   4.352   8.641 -0.6850 -0.4984 -1.4562
  106OSM   H18T10841   3.234   4.299   8.703  0.3165  0.2151  0.7551
  106OSM   H18U10842   3.376   4.187   8.675 -2.3751 -1.2184  0.7151
  106OSM    C1F10843   3.735   4.269  10.370  0.1196 -0.0236 -0.2179
  106OSM     OF10844   3.848   4.226  10.404 -0.3558 -0.0631 -0.5265
  106OSM    C2F10845   3.701   4.402  10.327  0.0869 -0.4545 -0.8951
  106OSM    H2F10846   3.701   4.472  10.413 -0.2940  0.6282 -1.7518
  106OSM    H2G10847   3.611   4.413  10.263  0.6792  0.4677 -1.6024
  106OSM    C3F10848   3.813   4.458  10.239  0.0701  0.2537 -0.3889
  106OSM    H3F10849   3.899   4.471  10.308 -1.0407  1.1024  0.9126
  106OSM    H3G10850   3.799   4.561  10.199  0.6478  0.6123  0.3051
  106OSM    C4F10851   3.852   4.371  10.108  0.3676  0.2758 -0.0676
  106OSM    H4F10852   3.878   4.270  10.146 -2.2213 -0.2380  0.5419
  106OSM    H4G10853   3.943   4.422  10.072  1.2911 -0.6520  0.8599
  106OSM    C5F10854   3.735   4.376  10.008  0.8928  0.3669  0.1045
  106OSM    H5F10855   3.700   4.481  10.015  1.5680  0.6437 -0.4740
  106OSM    H5G10856   3.654   4.306  10.036  0.6645 -0.0848 -1.5511
  106OSM    C6F10857   3.779   4.342   9.859 -0.4429 -0.3757  0.2828
  106OSM    H6F10858   3.787   4.231   9.858  0.0237 -0.3628  1.3728
  106OSM    H6G10859   3.878   4.391   9.842  0.3013 -0.6810  3.2438
  106OSM    C7F10860   3.685   4.381   9.748  0.8164  0.2131  0.2990
  106OSM    H7F10861   3.681   4.488   9.721 -3.7191  0.3057  0.4513
  106OSM    H7G10862   3.585   4.358   9.791  0.5964  0.7934  0.0970
  106OSM    C8F10863   3.715   4.291   9.622  0.8479 -0.8094 -0.4730
  106OSM    H8F10864   3.699   4.185   9.651  0.3311 -1.3797 -2.6990
  106OSM    H8G10865   3.820   4.311   9.591  1.0241 -0.1202  0.5075
  106OSM    C9F10866   3.610   4.319   9.518  0.8804  0.2837  0.5790
  106OSM    H9F10867   3.514   4.352   9.559  1.6804  0.5616  2.3019
  106OSM   C10F10868   3.635   4.318   9.384 -0.1965  0.4574 -0.2489
  106OSM   H10F10869   3.549   4.336   9.319 -0.9135 -0.8416  0.3017
  106OSM   C11F10870   3.765   4.284   9.312  0.7407 -0.5288 -0.3763
  106OSM   H11F10871   3.770   4.180   9.273  1.6312 -0.7003  0.1600
  106OSM   H11G10872   3.846   4.291   9.388 -1.8948 -0.5241  2.6535
  106OSM   C12F10873   3.804   4.381   9.203 -0.1904 -0.2798  0.3964
  106OSM   H12F10874   3.810   4.488   9.234 -1.4299 -0.2414  0.5431
  106OSM   H12G10875   3.731   4.378   9.120 -0.5110 -0.1161  0.6710
  106OSM   C13F10876   3.946   4.352   9.133  0.1587 -0.1255 -0.9396
  106OSM   H13F10877   3.953   4.248   9.095  0.6157  0.0634 -1.3726
  106OSM   H13G10878   4.021   4.361   9.214  0.5747  2.6367 -1.5303
  106OSM   C14F10879   3.973   4.446   9.008  0.7548  0.8607  0.1647
  106OSM   H14F10880   3.999   4.545   9.049  0.6699  0.6342  0.7756
  106OSM   H14G10881   3.885   4.450   8.939  2.3982  0.8787 -2.0615
  106OSM   C15F10882   4.090   4.395   8.921  0.2484 -0.4287 -0.0781
  106OSM   H15F10883   4.081   4.287   8.895  2.3964 -0.2850 -1.6192
  106OSM   H15G10884   4.183   4.392   8.982 -0.3800 -2.6503  0.8882
  106OSM   C16F10885   4.117   4.473   8.790  0.0258  0.8762 -0.0875
  106OSM   H16F10886   4.043   4.439   8.715 -1.1934  2.2317  0.4582
  106OSM   H16G10887   4.210   4.432   8.745  0.2535  1.1460  0.1301
  106OSM   C17F10888   4.136   4.621   8.798 -0.2264 -0.5037  0.1440
  106OSM   H17F10889   4.210   4.658   8.871  1.0694  0.7163 -1.6983
  106OSM   H17G10890   4.039   4.667   8.827  0.3553  1.5261 -0.9362
  106OSM   C18F10891   4.169   4.686   8.663  0.2068  0.1573  0.7559
  106OSM   H18F10892   4.098   4.643   8.589  0.4910 -0.4707  0.8463
  106OSM   H18G10893   4.273   4.662   8.631 -0.3034 -1.3823  0.1860
  106OSM   H18H10894   4.154   4.796   8.658 -0.1448  0.0661 -2.7544
  107OSM      N10895   3.083   4.836  11.195  0.0819 -0.0181 -0.0182
  107OSM    C1510896   3.117   4.686  11.196 -0.2790 -0.2241  0.4182
  107OSM   H15A10897   3.024   4.633  11.191 -0.7538  0.1144  3.7731
  107OSM   H15B10898   3.183   4.655  11.276  1.8747  1.0955 -0.7151
  107OSM   H15C10899   3.160   4.659  11.101  0.5606 -1.1932  1.0526
  107OSM    C1410900   3.003   4.873  11.314 -0.3454  0.0755  0.5045
  107OSM   H14A10901   3.055   4.840  11.403 -0.2634  0.7239  0.7016
  107OSM   H14B10902   2.902   4.836  11.313 -0.4101  0.1861  1.6066
  107OSM   H14C10903   2.991   4.979  11.329  1.6176  0.2673  1.0471
  107OSM    C1310904   3.210   4.921  11.201  0.0134 -0.1922 -0.8782
  107OSM   H13A10905   3.246   4.923  11.302  4.2488  1.1007 -2.2296
  107OSM   H13B10906   3.198   5.024  11.172 -0.0330  0.1908  0.4844
  107OSM   H13C10907   3.278   4.859  11.144  0.2206 -2.7804  1.9071
  107OSM    C1210908   3.017   4.864  11.062  0.5998 -0.7007 -0.2407
  107OSM   H12A10909   2.953   4.783  11.033  0.8932 -1.2037  0.5038
  107OSM   H12B10910   3.095   4.875  10.988 -0.3366 -2.0092 -1.4539
  107OSM    C1110911   2.939   5.004  11.053 -0.7324 -0.6217  0.0163
  107OSM   H11A10912   2.857   4.993  11.127  0.6151  0.7014  1.8089
  107OSM   H11B10913   2.889   5.021  10.955 -1.2253  1.3136  0.5673
  107OSM      P10914   3.103   5.196  10.984  0.3589  0.3204 -0.0841
  107OSM    O1310915   3.015   5.299  10.923 -0.0061 -0.4850 -0.1730
  107OSM    O1410916   3.219   5.241  11.059  0.0674  0.8239  0.0564
  107OSM    O1110917   3.134   5.082  10.874 -1.0456  0.2140 -0.0406
  107OSM    O1210918   3.026   5.112  11.084  1.2377 -0.2684 -0.1407
  107OSM    C1S10919   3.269   5.067  10.816 -0.1374  0.2696 -0.0329
  107OSM    H1S10920   3.330   5.001  10.880 -3.1919 -1.2106  1.5861
  107OSM    H1T10921   3.322   5.165  10.817 -0.9078  0.7172  1.6540
  107OSM     NF10922   3.390   5.042  10.596  0.2452 -0.5894  0.0963
  107OSM    HNF10923   3.412   5.118  10.536  0.6327 -0.4304  0.4372
  107OSM    C2S10924   3.260   5.022  10.661 -0.0270 -0.4951  0.7125
  107OSM    H2S10925   3.236   4.914  10.653 -1.9864 -0.2704  2.4831
  107OSM    C3S10926   3.140   5.089  10.581 -0.8340  0.4733  0.3982
  107OSM    H3S10927   3.148   5.199  10.581  1.1260  0.3880  1.6410
  107OSM     O310928   3.012   5.052  10.630 -0.0021 -0.1996 -0.5412
  107OSM    HO310929   3.045   5.020  10.714  1.3474  0.7909 -0.6701
  107OSM    C4S10930   3.147   5.045  10.436  0.2331 -0.2194  0.2915
  107OSM    H4S10931   3.207   5.118  10.380 -0.2742 -0.0280 -0.0114
  107OSM    C5S10932   3.081   4.945  10.376  0.0149 -0.5577  0.1259
  107OSM    H5S10933   3.003   4.897  10.437 -0.4549  0.0766  0.0275
  107OSM    C6S10934   3.076   4.905  10.231  0.7051  0.3325  0.0232
  107OSM    H6S10935   2.971   4.907  10.194 -0.7145 -0.3289  3.6181
  107OSM    H6T10936   3.092   4.795  10.230 -1.2693 -0.1727  3.9007
  107OSM    C7S10937   3.166   4.978  10.128 -0.5743  0.2216 -0.3876
  107OSM    H7S10938   3.266   4.942  10.159 -1.1874 -1.1109  0.1311
  107OSM    H7T10939   3.161   5.087  10.146 -0.6599 -0.1310  2.0155
  107OSM    C8S10940   3.137   4.937   9.984  0.2749  0.3615  0.2431
  107OSM    H8S10941   3.029   4.930   9.963  0.5705 -1.8736 -0.8487
  107OSM    H8T10942   3.171   4.832   9.977 -0.6637  0.1503 -1.6360
  107OSM    C9S10943   3.219   5.014   9.883 -0.0671  0.5116  0.7089
  107OSM    H9S10944   3.326   4.998   9.911 -0.0665 -1.0375 -0.0489
  107OSM    H9T10945   3.195   5.122   9.885 -3.2838 -0.0499 -0.6094
  107OSM   C10S10946   3.189   4.962   9.741  0.0544  0.5915  0.4229
  107OSM   H10S10947   3.083   4.974   9.710  0.1972  0.6895 -0.0331
  107OSM   H10T10948   3.212   4.853   9.735  1.7708  0.8596  1.3743
  107OSM   C11S10949   3.274   5.031   9.628  0.6645 -0.5252 -0.3027
  107OSM   H11S10950   3.378   5.032   9.668 -0.0385  0.7900  1.6371
  107OSM   H11T10951   3.249   5.139   9.620 -1.0714 -0.9801 -1.5423
  107OSM   C12S10952   3.275   4.961   9.490 -0.4602  0.3930  0.2941
  107OSM   H12S10953   3.176   4.913   9.474  0.4238 -2.6385  2.7879
  107OSM   H12T10954   3.344   4.874   9.494 -2.4854 -1.9610 -5.4505
  107OSM   C13S10955   3.331   5.042   9.374 -0.0338 -0.6113 -0.6250
  107OSM   H13S10956   3.352   4.975   9.288  0.4018  0.3390 -1.2705
  107OSM   H13T10957   3.428   5.079   9.413 -0.8619  3.1793 -1.7752
  107OSM   C14S10958   3.244   5.156   9.335  0.0730 -0.2272  0.2464
  107OSM   H14S10959   3.220   5.228   9.416  2.3506  0.5126  0.3339
  107OSM   H14T10960   3.148   5.110   9.303 -0.0492 -0.4395  0.8912
  107OSM   C15S10961   3.306   5.239   9.224 -0.3141 -0.2426 -0.2203
  107OSM   H15S10962   3.414   5.260   9.237  0.1616 -1.1842 -2.1320
  107OSM   H15T10963   3.265   5.342   9.235 -0.2754 -0.3494  1.0483
  107OSM   C16S10964   3.281   5.181   9.090 -0.7415  0.3046  0.3449
  107OSM   H16S10965   3.175   5.163   9.064 -0.4086 -2.0374  0.4089
  107OSM   H16T10966   3.322   5.078   9.095 -1.3669  0.0933  1.4235
  107OSM   C17S10967   3.361   5.262   8.980 -0.2018 -0.4999  0.3450
  107OSM   H17S10968   3.470   5.258   9.001 -0.4119  0.3508  1.6319
  107OSM   H17T10969   3.325   5.366   8.982 -1.0046 -0.7383 -0.8139
  107OSM   C18S10970   3.327   5.210   8.839 -0.0319 -0.2255  0.6517
  107OSM   H18S10971   3.221   5.225   8.809  0.9218  0.5093 -2.7923
  107OSM   H18T10972   3.321   5.100   8.828  0.5032 -0.2878  0.9769
  107OSM   H18U10973   3.399   5.241   8.761 -0.9760 -0.9968 -0.5765
  107OSM    C1F10974   3.494   4.971  10.626  0.1577  0.2100  1.1942
  107OSM     OF10975   3.487   4.875  10.700  0.1235  0.1625  0.0180
  107OSM    C2F10976   3.624   5.010  10.567 -0.1033 -0.4983 -0.1974
  107OSM    H2F10977   3.712   4.992  10.633 -0.0493 -1.6954 -0.5733
  107OSM    H2G10978   3.624   5.112  10.523  0.9124 -0.3306  0.1639
  107OSM    C3F10979   3.657   4.904  10.458 -0.0391 -0.0497  0.1816
  107OSM    H3F10980   3.579   4.905  10.379 -2.3309 -2.2478  2.2441
  107OSM    H3G10981   3.660   4.806  10.509 -1.6017  0.9925  2.4774
  107OSM    C4F10982   3.793   4.939  10.401  0.3602  0.3398 -0.6145
  107OSM    H4F10983   3.863   4.964  10.484 -0.7521  0.9670  0.1528
  107OSM    H4G10984   3.777   5.018  10.325 -1.2963  0.2317 -0.4080
  107OSM    C5F10985   3.863   4.821  10.326  0.4412 -0.2501  0.1078
  107OSM    H5F10986   3.802   4.782  10.241  1.9199 -1.0504 -0.6290
  107OSM    H5G10987   3.876   4.736  10.395  1.5140 -0.5324 -0.4200
  107OSM    C6F10988   4.005   4.857  10.290  0.1466 -0.4109  0.2046
  107OSM    H6F10989   4.081   4.835  10.368  2.8224 -2.3062 -2.6560
  107OSM    H6G10990   4.013   4.961  10.251 -2.3730 -0.1468  0.2214
  107OSM    C7F10991   4.041   4.764  10.171 -0.3731 -0.4249 -0.7282
  107OSM    H7F10992   4.035   4.655  10.193  2.3920 -0.4370  0.4045
  107OSM    H7G10993   4.148   4.783  10.145 -0.3564 -0.2803 -0.5600
  107OSM    C8F10994   3.969   4.793  10.037 -0.1344  0.0606  1.0559
  107OSM    H8F10995   3.960   4.904  10.043  3.2021  0.4123  2.3451
  107OSM    H8G10996   3.869   4.746  10.046 -0.3914  0.8496  2.6455
  107OSM    C9F10997   4.050   4.741   9.919  0.0759 -0.3781 -1.0507
  107OSM    H9F10998   4.053   4.632   9.903  0.2091 -0.6285  0.5240
  107OSM   C10F10999   4.118   4.814   9.830 -0.4294 -0.6402  0.7286
  107OSM   H10F11000   4.161   4.764   9.742  1.3554  0.6342  0.8223
  107OSM   C11F11001   4.117   4.964   9.814 -0.1282  0.0581 -0.2344
  107OSM   H11F11002   4.221   5.002   9.815 -0.3810  0.7703  0.0028
  107OSM   H11G11003   4.055   5.005   9.898  3.5039  0.9643  2.2497
  107OSM   C12F11004   4.050   5.015   9.680 -0.1765  0.0781  0.1857
  107OSM   H12F11005   4.058   5.125   9.676  1.6358 -0.0324  0.0170
  107OSM   H12G11006   3.942   4.998   9.660  0.2711 -1.0027 -1.6213
  107OSM   C13F11007   4.116   4.964   9.555  0.1970  0.5444 -0.9573
  107OSM   H13F11008   4.096   4.857   9.537 -2.3564  1.0965 -1.8258
  107OSM   H13G11009   4.223   4.976   9.584 -0.1284 -1.0391  1.1767
  107OSM   C14F11010   4.086   5.058   9.435  0.2312 -0.1365 -0.3213
  107OSM   H14F11011   4.129   5.151   9.476 -0.5727  0.5889 -1.0962
  107OSM   H14G11012   3.975   5.060   9.440  0.0790 -3.9234  3.2341
  107OSM   C15F11013   4.145   5.000   9.309 -0.8705  0.1470 -0.3734
  107OSM   H15F11014   4.100   4.903   9.277  2.1203 -0.8166 -2.0761
  107OSM   H15G11015   4.254   4.984   9.327 -1.1314  1.0796  2.6246
  107OSM   C16F11016   4.136   5.091   9.196 -0.2991  0.1794  0.5492
  107OSM   H16F11017   4.134   5.197   9.228  0.0633  0.7975 -1.3085
  107OSM   H16G11018   4.043   5.077   9.135  0.6809  2.0863 -1.5230
  107OSM   C17F11019   4.255   5.085   9.112 -0.3313 -0.2211  0.2601
  107OSM   H17F11020   4.298   4.983   9.106 -0.6585 -0.4278  1.3326
  107OSM   H17G11021   4.335   5.150   9.155 -1.6113 -0.3120  2.9540
  107OSM   C18F11022   4.227   5.124   8.967  0.1623  0.1720 -1.0540
  107OSM   H18F11023   4.310   5.088   8.902 -0.9872 -0.4516 -2.2132
  107OSM   H18G11024   4.213   5.233   8.958  0.1748  0.2082 -0.6678
  107OSM   H18H11025   4.142   5.065   8.926 -0.2790 -1.1799  1.6100
  108OSM      N11026   0.100   3.972  11.138 -0.1994 -0.2703 -0.5562
  108OSM    C1511027  -0.039   4.002  11.091 -0.1787 -0.1813  0.4191
  108OSM   H15A11028  -0.099   3.914  11.073 -2.2970  0.6032  3.0582
  108OSM   H15B11029  -0.046   4.047  10.993 -1.6890 -1.0223  0.1154
  108OSM   H15C11030  -0.088   4.062  11.165 -0.7216  0.1964 -0.2413
  108OSM    C1411031   0.165   4.100  11.179 -0.2969 -0.3025 -0.2553
  108OSM   H14A11032   0.111   4.144  11.262 -1.6486 -3.1366  0.5055
  108OSM   H14B11033   0.186   4.166  11.097 -1.3662 -1.0005 -1.1187
  108OSM   H14C11034   0.263   4.075  11.218 -0.2376  2.0353  1.2919
  108OSM    C1311035   0.105   3.896  11.269 -0.8249  0.4116  0.0945
  108OSM   H13A11036   0.070   3.794  11.260  0.6330 -0.0570 -0.6874
  108OSM   H13B11037   0.045   3.944  11.344  0.0063  1.1631  0.2934
  108OSM   H13C11038   0.210   3.882  11.290 -0.4094 -0.2832 -2.1327
  108OSM    C1211039   0.184   3.902  11.030 -0.3746 -0.0067  0.0211
  108OSM   H12A11040   0.120   3.829  10.982  0.0420  0.2930 -1.0174
  108OSM   H12B11041   0.269   3.853  11.075 -1.1985 -1.2847  0.2640
  108OSM    C1111042   0.229   3.992  10.911 -0.4135 -0.7770 -0.9785
  108OSM   H11A11043   0.139   4.051  10.885 -1.2723 -1.3812  0.4487
  108OSM   H11B11044   0.248   3.921  10.828  0.4643 -1.4863 -0.1952
  108OSM      P11045   0.478   4.063  10.876  0.1018  0.3699  0.2258
  108OSM    O1311046   0.551   4.187  10.886  0.6615 -0.3743  0.3786
  108OSM    O1411047   0.543   3.935  10.921 -0.4427 -0.1581  0.8769
  108OSM    O1111048   0.431   4.040  10.725  0.4374 -0.1332  0.0127
  108OSM    O1211049   0.340   4.072  10.948 -0.1226  0.0129  0.1788
  108OSM    C1S11050   0.374   4.148  10.651 -1.0245 -0.5015  0.3635
  108OSM    H1S11051   0.412   4.248  10.683 -2.2119  1.5934 -4.0129
  108OSM    H1T11052   0.264   4.150  10.662 -1.3195 -0.2409 -2.0681
  108OSM     NF11053   0.322   4.241  10.422 -0.6022 -0.4597  0.1178
  108OSM    HNF11054   0.246   4.231  10.358  0.5543  1.3596 -1.6920
  108OSM    C2S11055   0.392   4.133  10.497 -0.3378  0.2937  0.2336
  108OSM    H2S11056   0.501   4.146  10.481 -0.2817  0.0740  0.4261
  108OSM    C3S11057   0.344   3.993  10.442  0.1831 -0.5366  0.6087
  108OSM    H3S11058   0.233   3.994  10.433  0.2491  0.9808 -0.5188
  108OSM     O311059   0.372   3.881  10.521  0.2647  0.0348 -0.2859
  108OSM    HO311060   0.396   3.925  10.603 -2.3483 -1.8247  1.6142
  108OSM    C4S11061   0.374   3.972  10.296  0.0435 -0.6466  0.1413
  108OSM    H4S11062   0.310   4.028  10.226 -0.4277 -1.7418 -0.3260
  108OSM    C5S11063   0.483   3.905  10.250  0.5376  0.5450  0.3330
  108OSM    H5S11064   0.553   3.859  10.321  0.7110  3.5522  2.2975
  108OSM    C6S11065   0.516   3.883  10.106 -0.4540 -0.1232 -0.1460
  108OSM    H6S11066   0.556   3.782  10.082  2.1077  1.1475 -1.5892
  108OSM    H6T11067   0.587   3.964  10.078 -2.4232  2.1214  1.0135
  108OSM    C7S11068   0.404   3.891  10.000 -0.1114 -0.3648 -0.1790
  108OSM    H7S11069   0.353   3.989   9.995  0.2302 -0.2660 -3.4493
  108OSM    H7T11070   0.326   3.815  10.026  0.6221 -0.6066  1.4963
  108OSM    C8S11071   0.467   3.881   9.863 -0.5054  0.2911  0.7496
  108OSM    H8S11072   0.509   3.780   9.843 -0.3054  0.4332  0.4565
  108OSM    H8T11073   0.551   3.953   9.851 -0.3633  0.2608  1.4996
  108OSM    C9S11074   0.359   3.920   9.760  0.1533  0.5722 -0.0336
  108OSM    H9S11075   0.330   4.027   9.763  0.1300  0.5590  0.1728
  108OSM    H9T11076   0.267   3.866   9.790 -0.0812  2.2530  2.5553
  108OSM   C10S11077   0.398   3.876   9.620  0.5322 -0.2205 -0.0712
  108OSM   H10S11078   0.437   3.772   9.620 -0.8283 -0.9898  4.7262
  108OSM   H10T11079   0.473   3.954   9.594 -0.0637  0.2841 -0.3102
  108OSM   C11S11080   0.275   3.871   9.523 -0.5816  0.0182  0.0298
  108OSM   H11S11081   0.206   3.957   9.539 -1.9718 -1.4499  2.7570
  108OSM   H11T11082   0.230   3.773   9.550  0.3974 -0.1078  1.3260
  108OSM   C12S11083   0.324   3.865   9.378  0.8929 -0.1658  0.1154
  108OSM   H12S11084   0.381   3.772   9.357  3.4392  1.3198 -0.0478
  108OSM   H12T11085   0.386   3.955   9.355  0.6973  0.0146  0.2831
  108OSM   C13S11086   0.210   3.867   9.282  0.1769 -0.1228  0.2507
  108OSM   H13S11087   0.133   3.938   9.319 -1.0477 -0.1201 -2.1168
  108OSM   H13T11088   0.162   3.767   9.271 -0.2752  0.0494  0.6151
  108OSM   C14S11089   0.266   3.904   9.146 -0.2095  0.2624 -0.2147
  108OSM   H14S11090   0.337   3.826   9.110  0.7568  0.9799  0.1059
  108OSM   H14T11091   0.321   4.000   9.144 -1.1697  0.8101 -1.7714
  108OSM   C15S11092   0.155   3.910   9.033 -0.5149 -0.0833 -1.1975
  108OSM   H15S11093   0.098   4.006   9.035  1.9151  1.4676 -2.1962
  108OSM   H15T11094   0.092   3.822   9.057  0.4275 -0.3172  0.6413
  108OSM   C16S11095   0.226   3.908   8.899 -0.2370 -0.5641 -0.0974
  108OSM   H16S11096   0.148   3.906   8.820  0.5001 -1.1215 -0.8237
  108OSM   H16T11097   0.288   3.817   8.888 -0.3050 -0.3817 -2.8556
  108OSM   C17S11098   0.319   4.033   8.885 -0.2641  0.5248 -0.0402
  108OSM   H17S11099   0.403   4.007   8.954  1.0686  2.1059 -1.0090
  108OSM   H17T11100   0.274   4.129   8.919  0.5388  1.7475 -2.2649
  108OSM   C18S11101   0.375   4.048   8.741  0.2286  0.0978 -0.0024
  108OSM   H18S11102   0.414   3.950   8.707 -1.3828 -0.7789  0.5612
  108OSM   H18T11103   0.449   4.131   8.732 -0.7410  0.7760 -2.3122
  108OSM   H18U11104   0.292   4.070   8.670  1.7346 -1.1252 -2.2473
  108OSM    C1F11105   0.357   4.372  10.436 -0.4074  0.2182  0.3395
  108OSM     OF11106   0.449   4.409  10.510 -0.3801 -0.7413  0.1305
  108OSM    C2F11107   0.279   4.472  10.352  0.0738  0.1470 -0.3229
  108OSM    H2F11108   0.300   4.573  10.393  3.4008 -0.5449  0.0308
  108OSM    H2G11109   0.169   4.460  10.347 -0.5032  1.3389  4.3480
  108OSM    C3F11110   0.329   4.479  10.200  0.0254 -0.3714 -0.1305
  108OSM    H3F11111   0.440   4.484  10.200  0.0528 -0.5851  0.8584
  108OSM    H3G11112   0.282   4.567  10.153  0.6506 -1.2557 -2.5401
  108OSM    C4F11113   0.285   4.348  10.119  0.1598  0.3588  0.0481
  108OSM    H4F11114   0.180   4.321  10.144 -0.3254  1.4296 -0.7743
  108OSM    H4G11115   0.346   4.261  10.150  0.2176  1.8783  5.2981
  108OSM    C5F11116   0.291   4.366   9.965  0.6313 -0.0059 -0.6514
  108OSM    H5F11117   0.306   4.273   9.906  0.4421 -0.2700 -0.2859
  108OSM    H5G11118   0.388   4.418   9.951 -0.1701  1.8796  0.4682
  108OSM    C6F11119   0.164   4.437   9.915  0.3817  0.6470  0.1360
  108OSM    H6F11120   0.198   4.527   9.859  3.0127 -1.1461 -1.3685
  108OSM    H6G11121   0.101   4.480   9.996 -1.3876  1.5924 -1.6650
  108OSM    C7F11122   0.069   4.348   9.833 -0.3665 -0.1333  0.2747
  108OSM    H7F11123  -0.034   4.383   9.855 -0.0202  2.9955 -2.3231
  108OSM    H7G11124   0.081   4.239   9.853 -2.1430 -0.8512 -2.0721
  108OSM    C8F11125   0.100   4.373   9.679  0.2289 -0.6305 -0.1813
  108OSM    H8F11126   0.138   4.478   9.675  1.1405 -0.8861  1.2001
  108OSM    H8G11127   0.007   4.374   9.618 -0.4819  0.9889  0.8430
  108OSM    C9F11128   0.208   4.291   9.616 -0.2639 -0.4221 -0.2595
  108OSM    H9F11129   0.293   4.272   9.683 -2.7665 -2.5135  2.6079
  108OSM   C10F11130   0.209   4.244   9.489 -0.2242 -0.1468 -0.8367
  108OSM   H10F11131   0.287   4.173   9.457  0.0316  0.4236 -1.5092
  108OSM   C11F11132   0.097   4.255   9.387 -0.8887 -0.4060 -0.0900
  108OSM   H11F11133  -0.003   4.260   9.436 -0.2840 -1.6991  1.3554
  108OSM   H11G11134   0.088   4.170   9.316 -1.3311 -0.1366 -0.3624
  108OSM   C12F11135   0.111   4.382   9.304 -0.4230 -0.5047  0.2340
  108OSM   H12F11136   0.208   4.394   9.251 -1.2011 -0.8181 -1.2971
  108OSM   H12G11137   0.113   4.458   9.386  0.4052 -1.4353  1.1039
  108OSM   C13F11138  -0.011   4.400   9.207 -0.6355 -0.7352 -0.3597
  108OSM   H13F11139  -0.019   4.504   9.169  0.9176 -0.0123  1.1466
  108OSM   H13G11140  -0.102   4.373   9.264 -0.8163 -1.7811 -1.1082
  108OSM   C14F11141  -0.000   4.308   9.078 -0.0048  0.1541  0.6379
  108OSM   H14F11142   0.025   4.205   9.110 -1.8418 -0.1874  1.0964
  108OSM   H14G11143   0.085   4.349   9.019  0.2848  0.1545  1.0539
  108OSM   C15F11144  -0.120   4.299   8.989  0.4047  0.6353 -0.2970
  108OSM   H15F11145  -0.163   4.397   8.959  1.7458  0.6717 -2.3402
  108OSM   H15G11146  -0.204   4.243   9.036  1.2478  0.3404  0.8974
  108OSM   C16F11147  -0.095   4.219   8.855  0.0205  0.2459 -0.4858
  108OSM   H16F11148  -0.181   4.213   8.786  1.4302 -0.6138 -2.2596
  108OSM   H16G11149  -0.099   4.108   8.867  2.3007 -0.0253 -1.6028
  108OSM   C17F11150   0.013   4.279   8.759  0.6474 -0.6949  0.9688
  108OSM   H17F11151   0.043   4.218   8.671  1.3614  0.1512  0.6047
  108OSM   H17G11152   0.107   4.285   8.818  1.8761 -0.0630 -0.9222
  108OSM   C18F11153  -0.029   4.423   8.720 -0.1639 -0.2231 -0.4322
  108OSM   H18F11154   0.051   4.479   8.667  0.2103 -0.4536 -0.1167
  108OSM   H18G11155  -0.041   4.482   8.813  3.4359 -1.0327  0.7039
  108OSM   H18H11156  -0.117   4.418   8.653  0.8340  0.9669 -1.8972
  109OSM      N11157   1.466   0.886  10.970 -0.1537  0.4999  0.1370
  109OSM    C1511158   1.521   0.851  10.838 -0.1637  0.5882 -0.0540
  109OSM   H15A11159   1.625   0.879  10.828  0.1727  0.0080  1.4663
  109OSM   H15B11160   1.460   0.892  10.760 -1.5499 -2.1431 -0.5048
  109OSM   H15C11161   1.520   0.743  10.826 -0.1510  0.7623 -1.8338
  109OSM    C1411162   1.337   0.811  10.969 -0.0844 -0.4313 -0.3107
  109OSM   H14A11163   1.352   0.704  10.971 -0.7948 -0.5354 -0.3734
  109OSM   H14B11164   1.279   0.840  10.883  0.0402  0.5481 -0.0822
  109OSM   H14C11165   1.286   0.822  11.064 -0.6401 -0.1428 -0.6374
  109OSM    C1311166   1.550   0.835  11.085 -0.0506  0.2442  0.4478
  109OSM   H13A11167   1.644   0.890  11.089 -0.7039  1.6554 -1.7618
  109OSM   H13B11168   1.564   0.731  11.060 -1.9824 -0.0756  0.5462
  109OSM   H13C11169   1.496   0.837  11.179 -1.8193  1.2838 -0.5339
  109OSM    C1211170   1.440   1.031  10.981 -0.5037  0.1493  0.3470
  109OSM   H12A11171   1.366   1.050  11.057 -0.7838  0.0160  0.1096
  109OSM   H12B11172   1.398   1.062  10.887 -1.4646  0.4433  0.8671
  109OSM    C1111173   1.557   1.126  11.011  0.0585  0.0273 -0.0059
  109OSM   H11A11174   1.602   1.094  11.107 -0.5556 -3.9112 -0.8454
  109OSM   H11B11175   1.499   1.221  11.019 -0.0553 -0.0661  0.2754
  109OSM      P11176   1.797   1.079  10.922 -0.1790 -0.2510  0.2643
  109OSM    O1311177   1.890   1.192  10.882 -0.2994  0.5289 -0.9735
  109OSM    O1411178   1.816   1.020  11.054 -0.2763 -0.0180  0.2651
  109OSM    O1111179   1.807   0.965  10.811 -0.1782  0.3196 -0.0949
  109OSM    O1211180   1.653   1.128  10.905 -0.2400 -0.5563  0.2685
  109OSM    C1S11181   1.797   1.007  10.673  0.8656  0.2153 -0.4330
  109OSM    H1S11182   1.713   1.079  10.663  1.0231  0.6459  1.0445
  109OSM    H1T11183   1.772   0.918  10.613 -0.8326 -0.1516  0.7269
  109OSM     NF11184   1.914   1.067  10.464  0.1968 -0.1055 -0.3176
  109OSM    HNF11185   1.934   0.989  10.404  3.1060  1.0725 -1.0670
  109OSM    C2S11186   1.932   1.049  10.610 -0.0086 -0.1881 -0.7030
  109OSM    H2S11187   1.964   1.146  10.654 -0.2943 -0.8905  1.1100
  109OSM    C3S11188   2.040   0.951  10.662 -0.5242 -0.2089 -0.2664
  109OSM    H3S11189   1.991   0.851  10.666 -1.9161  0.4905  1.1908
  109OSM     O311190   2.092   0.973  10.798 -0.4806 -0.4562  0.6490
  109OSM    HO311191   2.008   0.986  10.842 -2.2464 -1.1919 -2.2321
  109OSM    C4S11192   2.155   0.951  10.568 -0.2842 -0.4394 -0.0785
  109OSM    H4S11193   2.128   0.887  10.484 -0.3933  1.2244 -1.3627
  109OSM    C5S11194   2.269   1.017  10.564 -0.3863  1.1445 -0.9038
  109OSM    H5S11195   2.274   1.100  10.636 -1.6262  1.3788 -1.0619
  109OSM    C6S11196   2.386   0.994  10.472 -0.0107  0.2506  0.2849
  109OSM    H6S11197   2.460   0.922  10.513 -0.8667  0.0748  1.5665
  109OSM    H6T11198   2.427   1.095  10.452  0.3744 -0.1612 -1.1852
  109OSM    C7S11199   2.337   0.954  10.338  0.2363  0.8277 -0.3635
  109OSM    H7S11200   2.248   1.014  10.311  0.9167  1.9884 -0.1085
  109OSM    H7T11201   2.302   0.849  10.342 -3.4308  1.8642  4.9671
  109OSM    C8S11202   2.437   0.960  10.222  0.1483 -1.1214 -0.3292
  109OSM    H8S11203   2.522   0.898  10.259 -1.0337 -1.4794  1.9579
  109OSM    H8T11204   2.485   1.060  10.216  1.7421 -1.6824  1.6832
  109OSM    C9S11205   2.375   0.924  10.088  0.2876 -0.0848  0.7870
  109OSM    H9S11206   2.274   0.971  10.081 -0.2402 -1.3857 -3.0435
  109OSM    H9T11207   2.358   0.815  10.086 -0.0245 -0.0387  0.7620
  109OSM   C10S11208   2.455   0.967   9.963  0.3519  0.3550 -1.1372
  109OSM   H10S11209   2.563   0.955   9.985 -0.2458  0.3515  2.2969
  109OSM   H10T11210   2.444   1.077   9.952 -1.2510  0.3499  0.0464
  109OSM   C11S11211   2.402   0.915   9.827 -0.2016  0.1137 -0.0151
  109OSM   H11S11212   2.293   0.930   9.814 -0.2562 -0.3327 -0.0950
  109OSM   H11T11213   2.434   0.808   9.817 -0.8744 -0.2343  1.3691
  109OSM   C12S11214   2.463   1.001   9.719  0.7255 -0.3949  0.1003
  109OSM   H12S11215   2.571   1.004   9.745  0.7283  1.2419  0.0348
  109OSM   H12T11216   2.419   1.103   9.725 -0.4373 -0.8933  0.2238
  109OSM   C13S11217   2.412   0.953   9.581 -0.2907 -0.2211  0.8041
  109OSM   H13S11218   2.304   0.978   9.574  0.1907  1.6838 -4.0509
  109OSM   H13T11219   2.429   0.844   9.568  2.8145  0.1012  1.2983
  109OSM   C14S11220   2.463   1.039   9.457  0.4650  0.3768 -0.5814
  109OSM   H14S11221   2.571   1.021   9.439  0.6143 -0.0391  0.6297
  109OSM   H14T11222   2.444   1.145   9.482 -0.1346 -0.4583  3.1594
  109OSM   C15S11223   2.392   0.994   9.325 -0.4532  0.0103 -0.1199
  109OSM   H15S11224   2.284   1.007   9.344  0.1915  1.6255  3.2934
  109OSM   H15T11225   2.402   0.884   9.322 -0.1014 -0.0108  1.1997
  109OSM   C16S11226   2.417   1.073   9.197 -0.7771  0.1626  0.0224
  109OSM   H16S11227   2.526   1.066   9.174 -0.5784  0.4648  0.8669
  109OSM   H16T11228   2.410   1.182   9.217  1.5061  0.2410  0.7187
  109OSM   C17S11229   2.357   1.030   9.067  0.0705 -0.4224 -0.7354
  109OSM   H17S11230   2.246   1.019   9.072 -0.0910 -0.0168 -2.6559
  109OSM   H17T11231   2.393   0.927   9.047  1.3250 -0.2071  0.2817
  109OSM   C18S11232   2.393   1.118   8.948 -0.0012  0.3815  0.0775
  109OSM   H18S11233   2.320   1.090   8.869  0.1769  0.3321 -0.0665
  109OSM   H18T11234   2.494   1.109   8.903 -0.9127  1.3535 -2.3157
  109OSM   H18U11235   2.381   1.227   8.967  0.1054  0.5822 -0.9517
  109OSM    C1F11236   1.840   1.168  10.418  0.8005 -0.1111 -0.0627
  109OSM     OF11237   1.801   1.267  10.482 -0.1364 -0.1730 -0.3436
  109OSM    C2F11238   1.799   1.147  10.275  0.4171  0.1101  0.6079
  109OSM    H2F11239   1.833   1.046  10.245  2.5164  0.5828  1.2180
  109OSM    H2G11240   1.851   1.225  10.215 -1.1503  1.3294  0.7774
  109OSM    C3F11241   1.649   1.175  10.247  0.5617  0.1146 -0.3647
  109OSM    H3F11242   1.629   1.280  10.279  3.1415  0.8948 -1.0158
  109OSM    H3G11243   1.584   1.101  10.297  1.5349 -1.3146 -1.1243
  109OSM    C4F11244   1.618   1.161  10.100  0.5683  0.2032 -1.2087
  109OSM    H4F11245   1.509   1.150  10.080  0.8377 -2.8379 -1.4701
  109OSM    H4G11246   1.662   1.069  10.055  0.7811  0.6894 -2.0129
  109OSM    C5F11247   1.660   1.283  10.023  0.2013  0.6416 -0.2135
  109OSM    H5F11248   1.766   1.313  10.036  0.7800 -0.9027 -1.1058
  109OSM    H5G11249   1.604   1.372  10.059 -0.4808  0.1661 -0.0684
  109OSM    C6F11250   1.654   1.269   9.873  0.4532  0.4480 -0.2251
  109OSM    H6F11251   1.656   1.370   9.826 -0.0224  0.1165 -0.9878
  109OSM    H6G11252   1.555   1.226   9.847  0.9715 -0.5426 -0.6160
  109OSM    C7F11253   1.761   1.179   9.806 -0.2655 -0.0977 -0.3264
  109OSM    H7F11254   1.752   1.072   9.834  2.7511 -0.3112  0.2178
  109OSM    H7G11255   1.860   1.203   9.850 -0.3788  0.0513 -0.1511
  109OSM    C8F11256   1.782   1.198   9.656 -1.3998  0.1491 -0.7087
  109OSM    H8F11257   1.719   1.116   9.616  2.6358 -3.4697 -0.3056
  109OSM    H8G11258   1.884   1.167   9.627 -2.1125  0.2411 -3.6085
  109OSM    C9F11259   1.742   1.332   9.598 -0.0802  0.0913  0.4505
  109OSM    H9F11260   1.790   1.417   9.649  0.9995 -0.8342  1.0165
  109OSM   C10F11261   1.643   1.349   9.501 -0.4367 -0.7459  0.9454
  109OSM   H10F11262   1.629   1.450   9.460  1.0561 -1.2294 -0.9012
  109OSM   C11F11263   1.560   1.244   9.425 -0.4817 -0.0985  0.8215
  109OSM   H11F11264   1.452   1.238   9.449 -1.0257  0.0065 -1.4260
  109OSM   H11G11265   1.601   1.143   9.449  1.4499  0.6879  1.0037
  109OSM   C12F11266   1.571   1.274   9.276 -0.4722  0.6913  0.5238
  109OSM   H12F11267   1.680   1.273   9.255 -0.2650  1.8495  1.4390
  109OSM   H12G11268   1.539   1.376   9.246  1.3199  1.4898  1.2343
  109OSM   C13F11269   1.530   1.168   9.172 -0.3432 -0.3343  0.4042
  109OSM   H13F11270   1.419   1.155   9.170 -0.5579  0.8131 -3.5383
  109OSM   H13G11271   1.556   1.066   9.206 -3.3887 -0.2879  3.4101
  109OSM   C14F11272   1.574   1.196   9.023  0.5552 -0.0103  0.5383
  109OSM   H14F11273   1.613   1.101   8.981  1.7392  1.1125 -0.9960
  109OSM   H14G11274   1.653   1.274   9.022 -0.7140  1.3059 -0.2631
  109OSM   C15F11275   1.442   1.239   8.942 -0.1677 -0.3958 -0.4004
  109OSM   H15F11276   1.486   1.287   8.852  1.9942  1.4411  1.4633
  109OSM   H15G11277   1.395   1.315   9.008 -0.0523 -0.5745 -0.1103
  109OSM   C16F11278   1.343   1.126   8.916 -0.0411  0.1244  0.1128
  109OSM   H16F11279   1.254   1.143   8.979  0.0714 -0.0961  0.3309
  109OSM   H16G11280   1.398   1.033   8.941 -0.3665 -1.4627 -4.2353
  109OSM   C17F11281   1.305   1.112   8.767  0.9013 -0.5976 -0.3753
  109OSM   H17F11282   1.248   1.201   8.734  0.9819 -0.1746  0.5836
  109OSM   H17G11283   1.232   1.029   8.756 -2.5853  2.4020 -1.8348
  109OSM   C18F11284   1.424   1.078   8.673  0.0604 -0.0493 -0.0745
  109OSM   H18F11285   1.395   1.056   8.568  0.3176  0.5715 -0.2797
  109OSM   H18G11286   1.469   0.988   8.722 -1.2386 -0.3351  0.6533
  109OSM   H18H11287   1.494   1.163   8.663  2.7665 -2.2830 -1.8318
  110OSM      N11288   6.619   3.130  11.202  0.2071 -0.3821 -0.5196
  110OSM    C1511289   6.728   3.185  11.285  0.4170  0.7514 -0.4370
  110OSM   H15A11290   6.827   3.152  11.257  0.0515 -0.3841 -0.4318
  110OSM   H15B11291   6.714   3.148  11.386  1.3172  2.7132  0.4578
  110OSM   H15C11292   6.719   3.291  11.303 -0.8749  0.8732 -1.6204
  110OSM    C1411293   6.625   2.981  11.185  0.1201 -0.1158  0.0807
  110OSM   H14A11294   6.712   2.950  11.130 -1.3741 -3.5611 -0.6213
  110OSM   H14B11295   6.535   2.949  11.134  0.3563  1.7880 -1.6981
  110OSM   H14C11296   6.632   2.935  11.282  0.5310  1.3014  0.7597
  110OSM    C1311297   6.489   3.172  11.260  0.1027 -0.5966  0.0020
  110OSM   H13A11298   6.406   3.136  11.202 -0.2115  0.3381 -0.1510
  110OSM   H13B11299   6.489   3.278  11.281 -0.6067 -0.9089  1.6852
  110OSM   H13C11300   6.480   3.138  11.362  3.7144  3.1389  1.8835
  110OSM    C1211301   6.633   3.197  11.065  0.0063 -0.0098 -0.5647
  110OSM   H12A11302   6.567   3.151  10.993  0.1096 -1.5393  0.2696
  110OSM   H12B11303   6.734   3.175  11.034  0.9193  0.8620  1.5810
  110OSM    C1111304   6.626   3.346  11.052  0.9921  0.6341 -0.7604
  110OSM   H11A11305   6.528   3.387  11.084  0.2328  0.4645 -2.6928
  110OSM   H11B11306   6.644   3.380  10.947  2.3011  0.7370 -0.5234
  110OSM      P11307   6.788   3.555  11.112  0.2125  0.0836 -0.0354
  110OSM    O1311308   6.690   3.652  11.165  0.8610  0.0491 -0.4112
  110OSM    O1411309   6.930   3.558  11.163 -0.1490  0.0784 -0.7289
  110OSM    O1111310   6.794   3.581  10.952 -0.7242  0.2063 -0.1898
  110OSM    O1211311   6.726   3.409  11.128  0.2129  0.4733 -0.2129
  110OSM    C1S11312   6.903   3.520  10.872  0.5840  0.5116  0.3530
  110OSM    H1S11313   6.916   3.411  10.893  1.0481  0.2394 -1.2547
  110OSM    H1T11314   7.000   3.570  10.893  1.2187 -1.0154  1.2318
  110OSM     NF11315   7.010   3.490  10.647  0.0556 -0.1354 -0.4081
  110OSM    HNF11316   7.086   3.553  10.651 -1.3348  1.5460  0.7050
  110OSM    C2S11317   6.890   3.543  10.712  0.4705 -0.3402 -0.5518
  110OSM    H2S11318   6.801   3.496  10.666  0.8931 -0.3375 -1.3973
  110OSM    C3S11319   6.864   3.696  10.687 -0.2808 -0.3292  0.1477
  110OSM    H3S11320   6.944   3.749  10.742 -1.2137  0.8910  0.3699
  110OSM     O311321   6.746   3.753  10.747  0.0440 -0.5347 -0.0453
  110OSM    HO311322   6.738   3.697  10.825 -0.4836 -1.9929 -1.1124
  110OSM    C4S11323   6.855   3.721  10.542 -0.1762 -0.4962  0.1801
  110OSM    H4S11324   6.945   3.766  10.498 -0.8157  0.0752 -0.5679
  110OSM    C5S11325   6.744   3.710  10.466 -0.3633  0.5644  0.5373
  110OSM    H5S11326   6.653   3.660  10.503 -0.0277 -0.3388  0.1592
  110OSM    C6S11327   6.740   3.742  10.316  0.7665 -0.2140  0.3637
  110OSM    H6S11328   6.637   3.783  10.308  0.8633 -0.2907 -1.6881
  110OSM    H6T11329   6.737   3.648  10.257 -0.3414  0.1194 -0.1453
  110OSM    C7S11330   6.838   3.839  10.256 -0.5576  0.1470  0.0522
  110OSM    H7S11331   6.934   3.783  10.265 -1.1974 -1.3953 -1.8796
  110OSM    H7T11332   6.847   3.929  10.320  0.2484 -0.4182  0.7643
  110OSM    C8S11333   6.795   3.895  10.114 -0.2486  0.1685  0.6778
  110OSM    H8S11334   6.890   3.927  10.066 -0.4114  1.9289  1.4752
  110OSM    H8T11335   6.734   3.986  10.130 -1.0118  0.0306 -1.1527
  110OSM    C9S11336   6.738   3.792  10.017 -0.6718  0.2850  0.4665
  110OSM    H9S11337   6.653   3.752  10.076 -0.3697 -0.2052  0.5726
  110OSM    H9T11338   6.811   3.708  10.011  0.2300  0.8073  3.1399
  110OSM   C10S11339   6.687   3.855   9.891 -0.5433  0.4526 -0.4979
  110OSM   H10S11340   6.623   3.934   9.934 -0.8501 -1.4575  2.8870
  110OSM   H10T11341   6.629   3.790   9.823  0.7492 -1.2877 -0.0155
  110OSM   C11S11342   6.789   3.936   9.811 -0.0763 -0.0846  0.6495
  110OSM   H11S11343   6.855   3.864   9.759 -1.2213 -0.7774  0.1012
  110OSM   H11T11344   6.849   4.004   9.875  0.2292  1.4907 -1.2167
  110OSM   C12S11345   6.719   4.029   9.700 -0.7085  0.0131 -0.4088
  110OSM   H12S11346   6.791   4.086   9.638  1.1062 -2.4660 -0.7315
  110OSM   H12T11347   6.643   4.099   9.742  0.6824 -0.2437  2.8403
  110OSM   C13S11348   6.637   3.941   9.605  0.7603 -0.8583  0.2738
  110OSM   H13S11349   6.556   3.876   9.645  0.2250  0.0602  0.7282
  110OSM   H13T11350   6.716   3.883   9.553  1.7433 -0.6150  1.4268
  110OSM   C14S11351   6.573   4.040   9.509  0.3272 -0.2633  0.9943
  110OSM   H14S11352   6.622   4.140   9.511  0.5046 -0.3307  0.1544
  110OSM   H14T11353   6.465   4.056   9.530 -0.4927 -2.0276 -1.4632
  110OSM   C15S11354   6.580   3.992   9.360  0.4122  0.5283 -0.0500
  110OSM   H15S11355   6.680   3.961   9.323  0.1666 -0.0473 -0.2518
  110OSM   H15T11356   6.564   4.080   9.295  0.0007 -1.1091 -2.2860
  110OSM   C16S11357   6.476   3.887   9.313  0.4547  0.0981 -0.7386
  110OSM   H16S11358   6.372   3.912   9.343  0.5625 -0.0353 -0.2484
  110OSM   H16T11359   6.500   3.790   9.362  1.8332 -0.7850 -2.9747
  110OSM   C17S11360   6.482   3.844   9.161 -0.1179 -0.0708 -0.1515
  110OSM   H17S11361   6.584   3.849   9.117 -0.0417 -0.1690  0.0132
  110OSM   H17T11362   6.433   3.927   9.106  1.8973  1.8347  0.7791
  110OSM   C18S11363   6.409   3.719   9.117 -0.4646 -0.3056  0.4501
  110OSM   H18S11364   6.456   3.633   9.170 -0.6086  1.1318  3.0667
  110OSM   H18T11365   6.410   3.701   9.007 -3.0337 -0.7716  0.4359
  110OSM   H18U11366   6.308   3.721   9.163 -1.7303  0.7832 -2.1502
  110OSM    C1F11367   7.033   3.361  10.644  0.1136 -0.2153 -1.3531
  110OSM     OF11368   6.952   3.279  10.687 -0.0874 -0.7195  0.3453
  110OSM    C2F11369   7.165   3.324  10.603 -0.7660  0.3858  0.1070
  110OSM    H2F11370   7.218   3.280  10.690  0.4845 -0.3616 -0.9805
  110OSM    H2G11371   7.210   3.423  10.581 -0.0430  0.0270 -0.0697
  110OSM    C3F11372   7.185   3.227  10.476  0.2492  0.1403  0.1342
  110OSM    H3F11373   7.130   3.134  10.500  0.3605 -0.2513 -1.0850
  110OSM    H3G11374   7.291   3.201  10.457 -0.3875 -1.6114 -1.2604
  110OSM    C4F11375   7.134   3.290  10.350  0.2847  0.1979  0.1542
  110OSM    H4F11376   7.203   3.252  10.272  1.8638  1.2286  0.9831
  110OSM    H4G11377   7.143   3.401  10.353 -2.8753  0.5172  0.8517
  110OSM    C5F11378   6.988   3.253  10.317 -0.3436  0.4567 -0.0631
  110OSM    H5F11379   6.930   3.336  10.363  2.0956  0.9411  2.3979
  110OSM    H5G11380   6.970   3.160  10.375 -0.3293 -0.7654 -1.9547
  110OSM    C6F11381   6.958   3.232  10.164 -0.8494 -0.1402 -0.7575
  110OSM    H6F11382   6.849   3.209  10.169 -1.0154  0.8901  1.2896
  110OSM    H6G11383   7.012   3.143  10.124  3.4085  2.4426 -1.3346
  110OSM    C7F11384   6.986   3.341  10.064  0.5741 -0.9469 -0.3441
  110OSM    H7F11385   7.090   3.375  10.083 -0.3119  0.8437  1.6414
  110OSM    H7G11386   6.915   3.420  10.098  0.2823 -0.8711 -1.1078
  110OSM    C8F11387   6.981   3.315   9.910 -0.8205  0.4383  0.4298
  110OSM    H8F11388   6.885   3.267   9.884 -0.3772 -0.0836 -0.2465
  110OSM    H8G11389   7.057   3.238   9.886 -0.3456  0.9043  0.4255
  110OSM    C9F11390   7.006   3.449   9.843 -0.5178 -0.1232  0.4307
  110OSM    H9F11391   7.084   3.509   9.893 -0.6990  1.8774 -1.5258
  110OSM   C10F11392   6.931   3.497   9.740 -0.9056 -0.2449 -0.5684
  110OSM   H10F11393   6.931   3.602   9.709 -0.5236  0.3397  1.2861
  110OSM   C11F11394   6.816   3.430   9.667  0.6231 -0.6028  0.0540
  110OSM   H11F11395   6.714   3.473   9.678  1.2408  1.0664 -0.4802
  110OSM   H11G11396   6.810   3.323   9.697  0.1565 -1.4627 -2.8050
  110OSM   C12F11397   6.828   3.428   9.511 -0.2022  0.2738  0.0598
  110OSM   H12F11398   6.753   3.360   9.465 -0.2456  0.2508  0.1662
  110OSM   H12G11399   6.923   3.373   9.492 -1.3145 -1.1893 -1.6495
  110OSM   C13F11400   6.802   3.562   9.439 -0.3219  0.4973  0.1186
  110OSM   H13F11401   6.897   3.620   9.446  0.2276 -0.1558 -1.3641
  110OSM   H13G11402   6.738   3.611   9.515 -1.6073 -1.3789  0.3094
  110OSM   C14F11403   6.733   3.563   9.298  0.2657  0.8190 -0.0023
  110OSM   H14F11404   6.689   3.660   9.266  1.4265  1.0729 -0.9227
  110OSM   H14G11405   6.648   3.492   9.310  0.1464  1.0916  0.8398
  110OSM   C15F11406   6.833   3.509   9.187 -0.0920 -0.1091 -0.5636
  110OSM   H15F11407   6.842   3.399   9.200 -0.9701 -0.2051 -0.6898
  110OSM   H15G11408   6.932   3.558   9.198  1.2002 -2.5854 -0.5422
  110OSM   C16F11409   6.781   3.528   9.050 -0.5257 -0.1438 -0.3199
  110OSM   H16F11410   6.746   3.634   9.050 -1.4264 -0.4418 -0.4069
  110OSM   H16G11411   6.704   3.452   9.029  0.8664 -1.3190 -1.3748
  110OSM   C17F11412   6.897   3.505   8.947  0.9540  0.0148 -0.6081
  110OSM   H17F11413   6.922   3.397   8.946 -0.0768 -0.2458  0.3714
  110OSM   H17G11414   6.988   3.556   8.987  1.0103 -1.0204  0.6711
  110OSM   C18F11415   6.854   3.551   8.803  0.1967  0.0239 -0.6808
  110OSM   H18F11416   6.918   3.503   8.726 -1.4138 -0.8636 -1.5147
  110OSM   H18G11417   6.859   3.662   8.800 -1.3331  0.1111 -0.8102
  110OSM   H18H11418   6.752   3.513   8.782 -0.0903 -0.0659  0.7543
  111OSM      N11419   4.397   3.333  10.703  0.2887 -0.1053 -0.2581
  111OSM    C1511420   4.360   3.386  10.569  0.2137 -0.1106  0.1887
  111OSM   H15A11421   4.289   3.467  10.576  1.1084  0.6274  0.8618
  111OSM   H15B11422   4.317   3.311  10.504 -1.6320  1.4698 -0.4881
  111OSM   H15C11423   4.449   3.427  10.524 -0.3730  1.8520  0.7437
  111OSM    C1411424   4.513   3.244  10.692 -0.4820  0.4627 -0.2158
  111OSM   H14A11425   4.474   3.157  10.642 -0.8295  1.3601 -1.5465
  111OSM   H14B11426   4.553   3.213  10.788  0.0124 -1.7619 -1.0857
  111OSM   H14C11427   4.594   3.290  10.638 -1.1215  0.8098 -0.8891
  111OSM    C1311428   4.444   3.456  10.774 -0.4104 -0.6761 -0.5257
  111OSM   H13A11429   4.530   3.503  10.728 -1.3036  1.6357  0.0364
  111OSM   H13B11430   4.464   3.437  10.879 -0.9326  0.0609 -0.2821
  111OSM   H13C11431   4.372   3.536  10.770 -0.7771 -1.0392 -1.4319
  111OSM    C1211432   4.274   3.273  10.767 -0.3171  0.0405  0.0571
  111OSM   H12A11433   4.296   3.198  10.842 -0.9850  0.6875  0.9359
  111OSM   H12B11434   4.223   3.230  10.682  2.1377  1.5953 -2.3824
  111OSM    C1111435   4.182   3.380  10.837  1.0977 -0.7051  0.3551
  111OSM   H11A11436   4.236   3.435  10.916 -0.8490  0.7765  0.7143
  111OSM   H11B11437   4.103   3.330  10.896  2.2054 -0.0411  2.4910
  111OSM      P11438   3.989   3.430  10.664  0.0895  0.4429 -0.0936
  111OSM    O1311439   4.015   3.318  10.570 -0.1903  0.4309 -0.2050
  111OSM    O1411440   3.876   3.415  10.760  0.3490  0.0163 -0.2984
  111OSM    O1111441   3.973   3.559  10.578 -0.1502  0.2505 -0.0095
  111OSM    O1211442   4.122   3.463  10.738 -0.6221 -0.4584  0.1412
  111OSM    C1S11443   4.066   3.644  10.527 -0.8210  0.4869 -0.6870
  111OSM    H1S11444   4.169   3.606  10.540 -0.7632  1.5572  2.6997
  111OSM    H1T11445   4.066   3.743  10.577 -0.1274  0.6104 -0.9178
  111OSM     NF11446   4.148   3.769  10.332  0.1514 -0.2865 -0.0933
  111OSM    HNF11447   4.113   3.862  10.321  0.8390  0.0634  0.5669
  111OSM    C2S11448   4.047   3.676  10.376  0.2341  0.4559 -0.4493
  111OSM    H2S11449   4.058   3.581  10.319 -0.0401  0.6760 -0.8783
  111OSM    C3S11450   3.897   3.710  10.337 -0.0372 -0.8717 -0.6672
  111OSM    H3S11451   3.869   3.792  10.407  2.2202 -1.7557  1.4194
  111OSM     O311452   3.798   3.610  10.366 -0.5388  0.1312  0.0294
  111OSM    HO311453   3.838   3.546  10.425 -0.1769  0.0450 -0.2993
  111OSM    C4S11454   3.886   3.758  10.196 -0.1534  0.0627  0.1794
  111OSM    H4S11455   3.918   3.863  10.182 -0.6986  0.1943 -0.1035
  111OSM    C5S11456   3.850   3.686  10.083 -0.3161 -0.4049 -0.0384
  111OSM    H5S11457   3.833   3.578  10.099 -0.1317 -0.5684 -0.9241
  111OSM    C6S11458   3.843   3.728   9.937  0.4648 -0.3123 -0.1080
  111OSM    H6S11459   3.742   3.758   9.902  0.1814  2.0298  2.3904
  111OSM    H6T11460   3.876   3.644   9.872  0.8284  0.0430 -0.3811
  111OSM    C7S11461   3.936   3.853   9.909  0.0712  0.5890  0.3221
  111OSM    H7S11462   4.034   3.827   9.954  0.2949 -0.7329 -0.8707
  111OSM    H7T11463   3.889   3.936   9.966 -3.3907 -1.8116  1.3245
  111OSM    C8S11464   3.964   3.876   9.755  0.0150  0.8652  0.3213
  111OSM    H8S11465   4.024   3.793   9.712 -1.5676 -0.7474  1.0858
  111OSM    H8T11466   4.034   3.962   9.759 -0.5892  1.3293  0.9771
  111OSM    C9S11467   3.845   3.923   9.675  0.5156  0.9860  0.2709
  111OSM    H9S11468   3.800   4.008   9.731 -1.8698 -0.8031  1.2646
  111OSM    H9T11469   3.768   3.843   9.674  1.0051  0.5125 -0.1014
  111OSM   C10S11470   3.886   3.967   9.542 -1.2948  0.1571  0.3120
  111OSM   H10S11471   3.955   3.887   9.506 -1.8811 -0.1411 -0.1718
  111OSM   H10T11472   3.947   4.059   9.533  0.9198 -1.2667 -0.0980
  111OSM   C11S11473   3.773   3.962   9.430  0.5717 -0.7695 -0.2295
  111OSM   H11S11474   3.818   4.019   9.346  1.2822 -0.3806  0.4057
  111OSM   H11T11475   3.683   4.012   9.470 -0.2178 -1.4871 -1.0648
  111OSM   C12S11476   3.725   3.818   9.390 -0.0237 -0.2833  0.3067
  111OSM   H12S11477   3.681   3.763   9.475  1.6312 -1.2255  0.5941
  111OSM   H12T11478   3.813   3.761   9.354 -0.1428 -1.4486  1.7725
  111OSM   C13S11479   3.615   3.822   9.278 -0.4522 -0.6250  0.8745
  111OSM   H13S11480   3.528   3.874   9.323 -2.1191 -0.5089 -2.2152
  111OSM   H13T11481   3.585   3.723   9.237  0.4779  0.1535 -1.9412
  111OSM   C14S11482   3.655   3.896   9.150 -0.4834 -0.5464 -0.3137
  111OSM   H14S11483   3.682   4.001   9.177  2.2182 -1.4381  0.7688
  111OSM   H14T11484   3.583   3.897   9.066 -0.2421  0.2454 -0.5198
  111OSM   C15S11485   3.781   3.841   9.073  0.7425 -0.5468 -0.3519
  111OSM   H15S11486   3.759   3.739   9.034  0.6350 -1.6903  2.4733
  111OSM   H15T11487   3.862   3.834   9.148  0.0280  1.8536  0.7690
  111OSM   C16S11488   3.821   3.921   8.944 -0.3972 -0.0376 -0.5181
  111OSM   H16S11489   3.841   4.027   8.970 -0.0620 -0.7051  2.2848
  111OSM   H16T11490   3.732   3.926   8.878 -0.5315  0.1159 -0.3259
  111OSM   C17S11491   3.949   3.869   8.887  0.2795  0.5530  0.8024
  111OSM   H17S11492   3.932   3.767   8.847  0.5858  1.3028 -1.3433
  111OSM   H17T11493   4.023   3.847   8.968  0.7262 -2.7498 -0.3164
  111OSM   C18S11494   4.007   3.959   8.782 -0.6053  0.3962 -0.6908
  111OSM   H18S11495   4.026   4.060   8.826  2.2539  0.0356 -0.9203
  111OSM   H18T11496   3.939   3.974   8.695  0.3779  0.0675 -1.5275
  111OSM   H18U11497   4.103   3.910   8.758 -0.7560 -0.9818  1.3128
  111OSM    C1F11498   4.278   3.736  10.333 -0.1944 -0.5638  0.3036
  111OSM     OF11499   4.320   3.625  10.350 -0.3535  0.0480 -0.0561
  111OSM    C2F11500   4.367   3.851  10.305 -0.7798 -0.4030 -0.0001
  111OSM    H2F11501   4.436   3.865  10.391 -0.3166 -0.6199 -0.3310
  111OSM    H2G11502   4.313   3.945  10.279  0.0633  0.4860  1.3163
  111OSM    C3F11503   4.454   3.829  10.175 -0.2312 -0.1270 -0.3586
  111OSM    H3F11504   4.516   3.738  10.191  0.2434  0.3149  0.3596
  111OSM    H3G11505   4.516   3.917  10.147 -1.4816  0.3017 -1.9643
  111OSM    C4F11506   4.374   3.804  10.042  0.0540 -0.1621 -0.1575
  111OSM    H4F11507   4.292   3.878  10.032 -0.4974 -0.8300 -0.7565
  111OSM    H4G11508   4.331   3.702  10.052 -0.8338  0.2865  0.6276
  111OSM    C5F11509   4.481   3.805   9.932 -0.1479 -0.0521  0.0868
  111OSM    H5F11510   4.562   3.733   9.956  0.2569 -0.3381 -1.9866
  111OSM    H5G11511   4.519   3.909   9.924 -0.1987 -0.0323  0.0993
  111OSM    C6F11512   4.432   3.771   9.793 -0.0503 -0.1172 -0.1668
  111OSM    H6F11513   4.380   3.673   9.794  2.4179 -1.5265 -0.4158
  111OSM    H6G11514   4.527   3.754   9.736  1.0889 -0.2826  1.7024
  111OSM    C7F11515   4.346   3.880   9.736  0.6119 -0.7288  0.8886
  111OSM    H7F11516   4.340   3.941   9.829  0.4201 -3.7013  2.9951
  111OSM    H7G11517   4.247   3.848   9.698  0.6949 -1.8718  1.5817
  111OSM    C8F11518   4.416   3.952   9.616 -0.5980  0.4036  0.4985
  111OSM    H8F11519   4.524   3.965   9.642 -0.1708  1.3328 -1.5742
  111OSM    H8G11520   4.364   4.048   9.598 -0.7999  0.1518 -0.3048
  111OSM    C9F11521   4.415   3.857   9.490  0.2636  0.0548  0.6344
  111OSM    H9F11522   4.486   3.773   9.489 -0.0049 -0.1878 -1.0159
  111OSM   C10F11523   4.332   3.863   9.384  0.1967  0.1494  0.0764
  111OSM   H10F11524   4.340   3.800   9.294  1.1314  3.2050 -2.1352
  111OSM   C11F11525   4.221   3.966   9.356 -0.1596 -0.3595  0.0585
  111OSM   H11F11526   4.216   4.040   9.439  1.6452 -0.4744  0.3254
  111OSM   H11G11527   4.127   3.908   9.354  0.7156 -1.8239 -0.3928
  111OSM   C12F11528   4.243   4.056   9.233 -0.1478  0.7227 -0.0734
  111OSM   H12F11529   4.167   4.136   9.236  0.0872  0.9549 -0.2557
  111OSM   H12G11530   4.207   3.993   9.149  1.0761 -2.1008  1.3535
  111OSM   C13F11531   4.384   4.108   9.198  0.6982 -0.4323 -0.0943
  111OSM   H13F11532   4.451   4.023   9.172 -1.3378 -1.8394 -1.0653
  111OSM   H13G11533   4.428   4.159   9.286 -0.3165 -0.4996  0.4701
  111OSM   C14F11534   4.397   4.205   9.078 -0.8484 -0.1588 -0.4144
  111OSM   H14F11535   4.502   4.240   9.090  0.3971 -3.5741 -0.4575
  111OSM   H14G11536   4.325   4.288   9.098 -0.4263 -0.1773  1.3567
  111OSM   C15F11537   4.379   4.135   8.946 -0.5149  0.1736 -0.1387
  111OSM   H15F11538   4.280   4.089   8.928 -2.0036  3.0943 -0.0314
  111OSM   H15G11539   4.439   4.041   8.951 -1.2569 -0.2547  1.1808
  111OSM   C16F11540   4.408   4.219   8.815  0.6172  0.4657 -0.0246
  111OSM   H16F11541   4.516   4.245   8.822  0.6874  0.7161 -1.7864
  111OSM   H16G11542   4.342   4.308   8.825  0.1914  0.2900 -1.1447
  111OSM   C17F11543   4.387   4.146   8.688 -0.0266  0.7366  0.1984
  111OSM   H17F11544   4.282   4.112   8.676 -0.2623  1.2752  0.7128
  111OSM   H17G11545   4.450   4.054   8.692 -0.1820  0.6010 -0.3032
  111OSM   C18F11546   4.430   4.228   8.556 -0.0286 -0.4535 -0.3443
  111OSM   H18F11547   4.374   4.324   8.563  2.1064  0.8860 -0.8233
  111OSM   H18G11548   4.408   4.160   8.471 -0.8819 -2.6760  1.5514
  111OSM   H18H11549   4.541   4.238   8.560 -0.0378 -0.5064  2.6486
  112OSM      N11550   2.142   3.830  10.714  0.5547 -0.5539 -0.1956
  112OSM    C1511551   2.116   3.747  10.594 -0.1863  0.0315  0.5977
  112OSM   H15A11552   2.011   3.724  10.582 -0.8083  2.4841  0.7697
  112OSM   H15B11553   2.170   3.655  10.614  0.2949  0.7742  3.0694
  112OSM   H15C11554   2.156   3.785  10.501 -0.0844 -3.8249 -1.1505
  112OSM    C1411555   2.279   3.886  10.726 -0.1286  0.6365  0.0463
  112OSM   H14A11556   2.295   3.935  10.820  1.7929  0.0163  0.1019
  112OSM   H14B11557   2.279   3.965  10.652 -1.7738  0.4313 -0.2030
  112OSM   H14C11558   2.352   3.806  10.720  0.4211  1.0190  1.2844
  112OSM    C1311559   2.044   3.953  10.707 -0.0859  0.4384 -0.0334
  112OSM   H13A11560   2.060   4.012  10.617 -1.0646  2.1918  0.8793
  112OSM   H13B11561   2.058   4.013  10.796 -0.7653  0.7864 -0.1565
  112OSM   H13C11562   1.943   3.922  10.724  0.2334  0.0309  1.2049
  112OSM    C1211563   2.110   3.745  10.836  0.2148  0.1376 -0.3203
  112OSM   H12A11564   2.029   3.678  10.809 -0.9663  0.5730  1.9182
  112OSM   H12B11565   2.076   3.797  10.924 -2.4872 -0.9782 -0.6026
  112OSM    C1111566   2.220   3.654  10.894 -0.4111 -0.1797  1.3731
  112OSM   H11A11567   2.308   3.705  10.939  0.8602  0.6061 -1.7253
  112OSM   H11B11568   2.259   3.614  10.798 -0.5772  1.1341  0.7206
  112OSM      P11569   2.035   3.479  10.970 -0.8863 -0.0368 -0.1264
  112OSM    O1311570   2.048   3.345  11.030 -0.6220 -0.5882 -0.2762
  112OSM    O1411571   1.935   3.574  11.020 -0.2054  0.4882 -0.2415
  112OSM    O1111572   2.020   3.452  10.815 -0.2164 -0.0065  0.4751
  112OSM    O1211573   2.175   3.551  10.969 -0.4014  0.4178 -0.4016
  112OSM    C1S11574   1.925   3.347  10.779 -0.7714  0.3084  0.4919
  112OSM    H1S11575   1.828   3.361  10.831 -0.0513  0.0405  1.9590
  112OSM    H1T11576   1.958   3.246  10.811 -0.9769  0.0593 -0.0718
  112OSM     NF11577   1.778   3.286  10.589  0.0245  0.0242 -0.4365
  112OSM    HNF11578   1.779   3.190  10.562  0.5094 -0.8888  2.4797
  112OSM    C2S11579   1.902   3.348  10.625 -0.1513  0.4129 -0.2161
  112OSM    H2S11580   1.893   3.458  10.609 -0.6419  0.4526  0.3076
  112OSM    C3S11581   2.031   3.287  10.558 -0.6146  0.8301 -0.2005
  112OSM    H3S11582   2.043   3.184  10.600 -0.7535  1.6555  1.9947
  112OSM     O311583   2.146   3.362  10.597  0.5721 -0.2678  0.2669
  112OSM    HO311584   2.108   3.418  10.665  0.1687  0.2718 -0.3928
  112OSM    C4S11585   2.043   3.277  10.412 -0.5541  0.6799 -0.3972
  112OSM    H4S11586   2.073   3.369  10.360  1.6714  0.5991  0.6263
  112OSM    C5S11587   2.014   3.163  10.344 -0.9298 -0.7811 -0.4209
  112OSM    H5S11588   1.984   3.080  10.409 -0.1957 -0.0174  0.9307
  112OSM    C6S11589   2.027   3.146  10.195 -0.0189  0.2604  0.4188
  112OSM    H6S11590   1.941   3.088  10.153  1.1005 -0.9927 -0.2181
  112OSM    H6T11591   2.111   3.082  10.161 -1.1862  0.3782 -2.9934
  112OSM    C7S11592   2.055   3.276  10.113 -0.4304  0.5388  0.5345
  112OSM    H7S11593   2.144   3.326  10.156  0.9637  0.1708 -1.8049
  112OSM    H7T11594   1.965   3.342  10.115 -2.0753 -1.5571 -0.0271
  112OSM    C8S11595   2.062   3.241   9.958 -0.2707  1.3396  0.3817
  112OSM    H8S11596   1.972   3.187   9.921  2.0384 -1.4543 -1.7405
  112OSM    H8T11597   2.150   3.173   9.951 -1.3960 -0.3398  1.6473
  112OSM    C9S11598   2.092   3.366   9.882  0.2490  0.0006 -0.4324
  112OSM    H9S11599   2.168   3.422   9.941  0.5433 -1.5821  0.7616
  112OSM    H9T11600   2.002   3.432   9.881 -0.9683 -1.5841 -0.8568
  112OSM   C10S11601   2.140   3.346   9.737 -0.9825 -0.5503  0.0014
  112OSM   H10S11602   2.208   3.258   9.734  0.4796  0.5190  0.5755
  112OSM   H10T11603   2.205   3.429   9.703  0.3605 -2.1443 -1.5073
  112OSM   C11S11604   2.032   3.318   9.633  0.0235  0.2906 -0.7797
  112OSM   H11S11605   1.962   3.403   9.620  0.0798  0.5371  0.4496
  112OSM   H11T11606   1.972   3.229   9.660 -0.0459  0.5934  0.0931
  112OSM   C12S11607   2.094   3.285   9.500 -0.3734  0.0076 -0.4907
  112OSM   H12S11608   2.179   3.215   9.516 -1.4577 -0.6815  3.1418
  112OSM   H12T11609   2.136   3.385   9.475 -1.8129  0.5701 -0.7483
  112OSM   C13S11610   1.987   3.251   9.396 -0.6059 -0.4468  0.2791
  112OSM   H13S11611   1.916   3.335   9.379 -1.7877 -1.4319  0.1443
  112OSM   H13T11612   1.932   3.158   9.421 -1.6534 -0.4884 -1.9130
  112OSM   C14S11613   2.055   3.219   9.259  0.3028 -0.1218 -0.2327
  112OSM   H14S11614   2.128   3.137   9.269  0.0183 -0.3016  0.3816
  112OSM   H14T11615   2.122   3.297   9.216  2.3207 -1.2637  0.7078
  112OSM   C15S11616   1.961   3.163   9.144 -0.1950 -0.1646 -0.1356
  112OSM   H15S11617   1.888   3.240   9.114 -1.3065 -0.2725  2.0523
  112OSM   H15T11618   1.899   3.088   9.197 -1.7362  0.3364 -1.1656
  112OSM   C16S11619   2.047   3.093   9.032 -0.3297 -0.1309 -0.0575
  112OSM   H16S11620   1.983   3.054   8.950 -1.3600  1.4207 -0.0166
  112OSM   H16T11621   2.097   3.007   9.082 -1.9092  0.1401  2.0916
  112OSM   C17S11622   2.154   3.183   8.966  0.6771  0.6542  0.2696
  112OSM   H17S11623   2.207   3.136   8.881 -2.2583  0.7125 -1.7481
  112OSM   H17T11624   2.234   3.205   9.040  0.6960 -1.5732  0.9916
  112OSM   C18S11625   2.087   3.313   8.910 -0.0524 -0.0272 -0.2690
  112OSM   H18S11626   1.992   3.296   8.855  1.3089  0.1956 -2.8490
  112OSM   H18T11627   2.161   3.356   8.838  0.9339  1.1571  1.3765
  112OSM   H18U11628   2.078   3.396   8.982 -1.6393  2.1226 -2.7478
  112OSM    C1F11629   1.663   3.341  10.609 -0.3598 -0.0652  0.3213
  112OSM     OF11630   1.659   3.446  10.666 -0.5420  0.0406 -0.4561
  112OSM    C2F11631   1.542   3.266  10.561 -0.3630 -0.3738 -0.4214
  112OSM    H2F11632   1.476   3.228  10.643  1.0483  2.8352  2.4612
  112OSM    H2G11633   1.596   3.187  10.505 -0.6029  0.3299 -1.6862
  112OSM    C3F11634   1.460   3.347  10.461 -0.2882  0.3010 -0.4072
  112OSM    H3F11635   1.416   3.433  10.517 -0.2770 -1.4171  2.4812
  112OSM    H3G11636   1.367   3.288  10.444 -0.2116  0.0079  0.1295
  112OSM    C4F11637   1.526   3.380  10.338  0.1394 -0.1895 -0.3717
  112OSM    H4F11638   1.596   3.298  10.310  0.3552  0.0355 -0.4995
  112OSM    H4G11639   1.590   3.467  10.366  0.3406 -0.7079  0.8462
  112OSM    C5F11640   1.424   3.417  10.228 -0.6358 -0.3308  0.4708
  112OSM    H5F11641   1.403   3.525  10.238  0.9451 -0.0540  1.1874
  112OSM    H5G11642   1.333   3.355  10.240  0.4566 -1.7699  1.6794
  112OSM    C6F11643   1.472   3.388  10.087 -0.2460  0.3049  0.0319
  112OSM    H6F11644   1.394   3.420  10.015  0.6247  1.3557 -0.4814
  112OSM    H6G11645   1.483   3.278  10.077  0.5884  0.2994  0.8561
  112OSM    C7F11646   1.608   3.444  10.046 -0.0023  0.0067  0.2869
  112OSM    H7F11647   1.672   3.435  10.136  0.8949 -2.4113 -0.5207
  112OSM    H7G11648   1.595   3.553  10.033  1.1178  0.3279  1.6544
  112OSM    C8F11649   1.681   3.380   9.925 -0.4406 -0.0267  0.4150
  112OSM    H8F11650   1.725   3.284   9.960  2.0375  0.7417 -0.3632
  112OSM    H8G11651   1.765   3.450   9.902  0.0669 -0.6401  0.3733
  112OSM    C9F11652   1.600   3.361   9.798  0.0569  0.7201 -0.2734
  112OSM    H9F11653   1.577   3.256   9.775  0.3124  0.6980 -0.4427
  112OSM   C10F11654   1.542   3.454   9.724 -0.3408  0.4257  0.0515
  112OSM   H10F11655   1.489   3.422   9.632  2.2005 -0.0062 -1.3661
  112OSM   C11F11656   1.568   3.602   9.751 -0.5741  1.1619  0.7824
  112OSM   H11F11657   1.667   3.626   9.795 -0.1922  0.2900  0.4092
  112OSM   H11G11658   1.487   3.642   9.817 -1.1468 -0.0393  0.8290
  112OSM   C12F11659   1.566   3.674   9.613  0.2547  0.2331 -0.3817
  112OSM   H12F11660   1.574   3.783   9.629  1.9457  0.0414  0.3192
  112OSM   H12G11661   1.462   3.672   9.573 -0.4759  1.5111  1.3448
  112OSM   C13F11662   1.682   3.637   9.519  0.5347 -0.3843  0.2507
  112OSM   H13F11663   1.714   3.532   9.502  2.8182  0.4209 -0.8538
  112OSM   H13G11664   1.769   3.680   9.572 -0.4484  3.3534 -0.8432
  112OSM   C14F11665   1.663   3.705   9.382 -0.7264 -0.0723  0.3026
  112OSM   H14F11666   1.745   3.664   9.319 -1.8749 -1.1415 -0.5353
  112OSM   H14G11667   1.670   3.815   9.399  0.6710 -0.2366  0.9662
  112OSM   C15F11668   1.536   3.674   9.310  0.5671 -0.0253 -0.0457
  112OSM   H15F11669   1.526   3.713   9.206 -0.3272 -0.7546 -0.2451
  112OSM   H15G11670   1.453   3.720   9.367  0.9774 -0.2988  0.7783
  112OSM   C16F11671   1.521   3.524   9.284  0.1690  0.7392  0.4317
  112OSM   H16F11672   1.415   3.505   9.257  0.1152  1.3543  0.1852
  112OSM   H16G11673   1.540   3.465   9.376 -0.2003  0.3252  0.2442
  112OSM   C17F11674   1.603   3.476   9.163 -0.1297 -0.1509 -0.3940
  112OSM   H17F11675   1.712   3.493   9.172  0.1251 -1.7914 -0.1161
  112OSM   H17G11676   1.566   3.529   9.072  1.0411 -2.7322 -2.5079
  112OSM   C18F11677   1.578   3.318   9.155 -0.0161 -0.1116 -0.0458
  112OSM   H18F11678   1.631   3.291   9.249  1.0313  1.7400 -0.0449
  112OSM   H18G11679   1.627   3.285   9.061  1.1703 -0.6969  0.7541
  112OSM   H18H11680   1.470   3.295   9.155 -0.1348  0.1870 -2.3189
  113OSM      N11681   3.066   2.139  11.277 -0.0147  0.1882  0.0181
  113OSM    C1511682   2.918   2.130  11.261  0.0457 -0.1853  0.6793
  113OSM   H15A11683   2.902   2.104  11.157  1.3150  0.5762  0.2708
  113OSM   H15B11684   2.854   2.214  11.284 -0.0655 -0.3987  1.1456
  113OSM   H15C11685   2.882   2.050  11.323  1.0786 -0.6480  0.7036
  113OSM    C1411686   3.108   2.271  11.224 -0.0993 -0.1457 -1.2098
  113OSM   H14A11687   3.071   2.285  11.123  0.2897 -0.5455 -1.4111
  113OSM   H14B11688   3.216   2.278  11.221  0.2896 -3.3358  0.9531
  113OSM   H14C11689   3.072   2.346  11.292  3.1116  0.3276  0.1504
  113OSM    C1311690   3.087   2.138  11.423  0.3520  0.3056 -0.4416
  113OSM   H13A11691   3.071   2.044  11.474  0.1262 -0.3964 -1.7716
  113OSM   H13B11692   3.026   2.214  11.469 -1.7663 -1.3411 -0.3912
  113OSM   H13C11693   3.190   2.165  11.440 -0.0832  0.7845  1.7430
  113OSM    C1211694   3.137   2.035  11.198  0.6913  0.3354 -0.4854
  113OSM   H12A11695   3.242   2.060  11.193  1.0605 -1.0252 -0.0665
  113OSM   H12B11696   3.099   2.050  11.098 -0.9605 -0.8328 -0.0680
  113OSM    C1111697   3.135   1.888  11.233  0.2430 -0.0373 -0.1434
  113OSM   H11A11698   3.171   1.869  11.336 -0.6084  1.6911  0.5250
  113OSM   H11B11699   3.205   1.840  11.162  0.9135  2.3681 -1.2265
  113OSM      P11700   2.969   1.735  11.112  0.5003  0.1787  0.2878
  113OSM    O1311701   3.018   1.602  11.162 -0.2288 -0.5038 -0.2671
  113OSM    O1411702   2.827   1.738  11.067  0.5180 -0.1887  0.2852
  113OSM    O1111703   3.062   1.771  10.992  0.6191  0.4973 -0.5375
  113OSM    O1211704   2.998   1.845  11.224  0.5331  0.4562  0.6820
  113OSM    C1S11705   3.010   1.813  10.865  0.0733 -0.5323 -0.3235
  113OSM    H1S11706   2.967   1.915  10.878  0.2367 -0.5733  0.5727
  113OSM    H1T11707   2.939   1.735  10.830  0.1197 -1.2957  1.2171
  113OSM     NF11708   3.062   1.839  10.629  0.1490  0.2285 -0.2105
  113OSM    HNF11709   3.079   1.770  10.558  3.1896  2.5308 -2.0055
  113OSM    C2S11710   3.117   1.820  10.758 -0.6097  0.2036 -0.2747
  113OSM    H2S11711   3.176   1.911  10.778  1.0619 -0.5643 -1.4010
  113OSM    C3S11712   3.215   1.693  10.758  0.0048  0.0656 -0.0059
  113OSM    H3S11713   3.161   1.596  10.754 -4.0441  2.0747  0.5122
  113OSM     O311714   3.303   1.694  10.878  0.3825 -0.1113  0.2922
  113OSM    HO311715   3.271   1.768  10.930 -2.1376 -0.1577 -1.0650
  113OSM    C4S11716   3.302   1.696  10.633 -0.2912  0.1271  0.0143
  113OSM    H4S11717   3.283   1.624  10.553 -1.4444  0.5570 -0.1300
  113OSM    C5S11718   3.396   1.793  10.608  0.8198 -0.4273  0.8612
  113OSM    H5S11719   3.409   1.869  10.686  0.4380 -0.1217  0.6285
  113OSM    C6S11720   3.479   1.810  10.478 -0.1659  0.4609 -0.5246
  113OSM    H6S11721   3.585   1.801  10.512 -0.8465 -2.0188  1.2645
  113OSM    H6T11722   3.459   1.906  10.426 -0.3681  1.2248  0.9107
  113OSM    C7S11723   3.466   1.686  10.387 -0.5533 -0.4268 -0.2618
  113OSM    H7S11724   3.364   1.692  10.342  0.2439  0.1354 -2.0862
  113OSM    H7T11725   3.481   1.587  10.434 -0.6098  0.3290  1.4258
  113OSM    C8S11726   3.565   1.679  10.271 -0.0577  0.0367 -0.5407
  113OSM    H8S11727   3.612   1.579  10.265  2.1953  0.8910  1.1891
  113OSM    H8T11728   3.650   1.743  10.304 -2.2641  2.2187  1.2965
  113OSM    C9S11729   3.508   1.732  10.140  0.4148 -0.2587  1.0536
  113OSM    H9S11730   3.459   1.831  10.155  0.5272 -0.3239  1.8945
  113OSM    H9T11731   3.424   1.665  10.114  0.0848  0.4140  0.3427
  113OSM   C10S11732   3.611   1.737  10.037  0.4216  0.1505  0.1422
  113OSM   H10S11733   3.666   1.641  10.041 -0.1216 -0.1470  0.5157
  113OSM   H10T11734   3.693   1.809  10.057  0.2696 -0.0654  1.6249
  113OSM   C11S11735   3.547   1.758   9.899 -0.4802  0.5002 -0.7421
  113OSM   H11S11736   3.507   1.861   9.898  2.1207  1.5990 -1.6241
  113OSM   H11T11737   3.463   1.686   9.893 -0.2675  0.2312 -0.5210
  113OSM   C12S11738   3.649   1.737   9.785  0.9095 -0.1730  0.1396
  113OSM   H12S11739   3.699   1.638   9.796 -0.2388 -0.8971 -0.9376
  113OSM   H12T11740   3.714   1.826   9.799 -0.3412  0.6882  0.6164
  113OSM   C13S11741   3.557   1.741   9.659 -0.1169  0.4600  0.3911
  113OSM   H13S11742   3.522   1.845   9.643 -1.6936  0.0602  1.0586
  113OSM   H13T11743   3.471   1.673   9.674 -1.1392  1.0504 -2.1497
  113OSM   C14S11744   3.627   1.701   9.527  0.0412 -0.2545  0.2342
  113OSM   H14S11745   3.561   1.642   9.461  1.4095  0.4528 -1.8557
  113OSM   H14T11746   3.711   1.637   9.562  0.9416  0.4229 -0.6281
  113OSM   C15S11747   3.674   1.819   9.434  0.1945  0.8892  0.0143
  113OSM   H15S11748   3.747   1.767   9.368 -0.1777  1.2882 -0.7273
  113OSM   H15T11749   3.728   1.892   9.499 -0.1980  0.0296  1.3254
  113OSM   C16S11750   3.556   1.867   9.345  0.5896 -0.4374 -0.0743
  113OSM   H16S11751   3.467   1.909   9.396  0.8644 -0.8316  0.7448
  113OSM   H16T11752   3.518   1.786   9.279  0.4918  0.8375 -1.6423
  113OSM   C17S11753   3.618   1.966   9.238  0.1692  0.1728 -0.0945
  113OSM   H17S11754   3.711   1.927   9.191  1.1627  1.4542  0.7284
  113OSM   H17T11755   3.631   2.063   9.291 -1.0527  0.4039 -0.1797
  113OSM   C18S11756   3.520   2.004   9.126 -0.5800 -0.0248 -0.1843
  113OSM   H18S11757   3.436   2.067   9.163 -0.2587  1.0572 -1.2516
  113OSM   H18T11758   3.481   1.916   9.071  1.0260 -0.4186 -0.7402
  113OSM   H18U11759   3.584   2.062   9.056  2.8090 -0.0267  2.6540
  113OSM    C1F11760   2.998   1.953  10.600  0.5397  0.0705 -0.4669
  113OSM     OF11761   2.987   2.042  10.682 -0.6483  0.2698 -0.2756
  113OSM    C2F11762   2.923   1.963  10.474  0.6621  1.2341  0.2510
  113OSM    H2F11763   2.877   1.862  10.465 -1.4322  2.2872 -1.8044
  113OSM    H2G11764   2.984   1.966  10.382 -3.0123  0.0036 -2.4775
  113OSM    C3F11765   2.813   2.066  10.479 -0.0876  0.4293  0.1910
  113OSM    H3F11766   2.850   2.165  10.512 -3.9014  2.3565 -0.6576
  113OSM    H3G11767   2.727   2.036  10.543  0.8584  1.2384  1.9000
  113OSM    C4F11768   2.754   2.073  10.338  0.6415  0.6769 -0.1595
  113OSM    H4F11769   2.645   2.092  10.337  1.0698  3.6480 -1.8125
  113OSM    H4G11770   2.780   1.976  10.290  1.1524  0.5413  0.3818
  113OSM    C5F11771   2.812   2.186  10.265 -0.5258 -0.8024  0.0882
  113OSM    H5F11772   2.920   2.159  10.275  0.4033  1.6953 -2.1507
  113OSM    H5G11773   2.793   2.283  10.315  0.9682 -0.8624  0.8406
  113OSM    C6F11774   2.774   2.196  10.117 -0.3453  0.8242 -0.2902
  113OSM    H6F11775   2.836   2.277  10.073  0.2888  0.8642  0.6460
  113OSM    H6G11776   2.669   2.231  10.105  0.1491  3.0082  1.2103
  113OSM    C7F11777   2.795   2.067  10.042 -0.2524 -0.8333 -0.1498
  113OSM    H7F11778   2.727   1.993  10.089  0.0191  0.1338  1.8970
  113OSM    H7G11779   2.895   2.024  10.062  0.4588  0.6625 -0.3407
  113OSM    C8F11780   2.789   2.081   9.894  0.3163 -0.2429 -1.1473
  113OSM    H8F11781   2.688   2.117   9.866 -0.4941 -1.1360  0.4483
  113OSM    H8G11782   2.798   1.978   9.853 -0.3915  0.2205 -2.5192
  113OSM    C9F11783   2.910   2.168   9.854  0.1258  0.6074  0.1967
  113OSM    H9F11784   2.963   2.232   9.926 -0.8375  0.2665  1.2308
  113OSM   C10F11785   2.954   2.160   9.723  0.3191 -0.5250 -0.4384
  113OSM   H10F11786   3.029   2.235   9.696  0.7742  0.2276  2.5218
  113OSM   C11F11787   2.892   2.066   9.622  0.5942  0.2780  0.0423
  113OSM   H11F11788   2.784   2.043   9.637  0.5985  0.7908  0.9383
  113OSM   H11G11789   2.963   1.986   9.592 -0.5653 -0.0206 -2.1217
  113OSM   C12F11790   2.901   2.138   9.479  0.0291 -0.2582 -0.7566
  113OSM   H12F11791   2.997   2.188   9.456 -0.5131  2.0670  1.5880
  113OSM   H12G11792   2.823   2.217   9.478 -0.1900 -0.4123  1.0217
  113OSM   C13F11793   2.862   2.048   9.359  0.6090 -0.5472 -0.0323
  113OSM   H13F11794   2.767   2.002   9.393 -0.7563  2.8593  1.2332
  113OSM   H13G11795   2.942   1.971   9.351  2.8871  1.3276  2.7253
  113OSM   C14F11796   2.861   2.126   9.222  0.1143 -0.7223  0.5937
  113OSM   H14F11797   2.964   2.128   9.182 -0.8633 -0.7657 -2.1045
  113OSM   H14G11798   2.829   2.232   9.232 -0.6178 -1.1206  3.2461
  113OSM   C15F11799   2.776   2.059   9.109  0.2031  0.5210 -0.3188
  113OSM   H15F11800   2.670   2.053   9.143  0.1211 -0.8858 -0.7599
  113OSM   H15G11801   2.805   1.955   9.082 -1.6492 -0.2460  0.4276
  113OSM   C16F11802   2.772   2.134   8.976 -0.4404  0.0956 -0.0959
  113OSM   H16F11803   2.879   2.146   8.948  0.6006 -1.9411  2.5445
  113OSM   H16G11804   2.731   2.236   8.988 -0.0883  0.4710 -1.7991
  113OSM   C17F11805   2.698   2.049   8.870  0.0648  0.2313 -0.7114
  113OSM   H17F11806   2.637   1.971   8.920 -1.5579  1.6046 -0.4533
  113OSM   H17G11807   2.766   2.001   8.796  1.1538 -1.1745  1.1034
  113OSM   C18F11808   2.595   2.126   8.786 -0.2409 -0.0112  0.4341
  113OSM   H18F11809   2.514   2.170   8.848 -0.9843  0.3245 -0.7365
  113OSM   H18G11810   2.557   2.065   8.700  3.4789 -0.3125 -1.1736
  113OSM   H18H11811   2.659   2.205   8.742  0.5675 -0.5611  0.5996
  114OSM      N11812   4.115   0.894  11.319 -0.3993 -0.5473 -0.3903
  114OSM    C1511813   4.155   0.943  11.457 -0.1108 -0.1924  0.1383
  114OSM   H15A11814   4.167   0.857  11.521  1.0909  0.7932  1.2815
  114OSM   H15B11815   4.083   1.009  11.502 -1.3763 -1.5388  0.1671
  114OSM   H15C11816   4.247   0.998  11.462 -0.6711  0.8419 -0.6407
  114OSM    C1411817   3.975   0.858  11.322 -0.1199  0.2218  0.7426
  114OSM   H14A11818   3.941   0.791  11.399  0.5867  0.1669  1.0204
  114OSM   H14B11819   3.947   0.815  11.227  1.0478  1.6869 -0.3029
  114OSM   H14C11820   3.915   0.945  11.343  1.3855  1.5402 -0.1520
  114OSM    C1311821   4.136   1.003  11.221 -0.3650  0.1979 -0.7396
  114OSM   H13A11822   4.067   1.081  11.251  1.2960  0.7884  1.8633
  114OSM   H13B11823   4.118   0.965  11.121 -1.7495  0.5313 -0.6360
  114OSM   H13C11824   4.233   1.047  11.232 -0.7602  0.5279  2.0949
  114OSM    C1211825   4.209   0.775  11.294  0.4420 -0.2171  0.0680
  114OSM   H12A11826   4.186   0.736  11.195 -1.5083  0.8283  0.0540
  114OSM   H12B11827   4.177   0.696  11.361 -0.4589  0.7010  0.7471
  114OSM    C1111828   4.366   0.787  11.316 -0.3427  0.0533  0.6207
  114OSM   H11A11829   4.426   0.706  11.270 -0.6417  0.2155 -0.0806
  114OSM   H11B11830   4.398   0.777  11.422  1.0391 -1.9500  0.0680
  114OSM      P11831   4.554   0.950  11.227  0.0440  0.3757  0.1605
  114OSM    O1311832   4.554   1.095  11.199 -0.2057  0.0748 -0.3114
  114OSM    O1411833   4.655   0.889  11.322  0.4704  0.4068 -0.1354
  114OSM    O1111834   4.559   0.878  11.085 -1.0465  0.3022 -0.1593
  114OSM    O1211835   4.404   0.918  11.270  0.0234 -0.1641  0.2513
  114OSM    C1S11836   4.466   0.901  10.987  0.2077  0.1887  0.2361
  114OSM    H1S11837   4.417   1.000  11.002 -1.2329 -0.5754  0.6957
  114OSM    H1T11838   4.384   0.829  11.008  1.0048 -0.8111 -0.0417
  114OSM     NF11839   4.418   0.921  10.738 -0.0761 -0.0347  0.1651
  114OSM    HNF11840   4.376   0.854  10.677 -0.4711 -0.0969  0.5030
  114OSM    C2S11841   4.515   0.881  10.837 -0.0046  0.8323 -0.8292
  114OSM    H2S11842   4.603   0.948  10.832  0.9397 -0.1267  1.6181
  114OSM    C3S11843   4.577   0.741  10.814 -0.6225 -0.0074  0.9057
  114OSM    H3S11844   4.501   0.660  10.823 -1.0677  0.3299  0.2758
  114OSM     O311845   4.674   0.707  10.914  0.1506  0.3667 -0.1461
  114OSM    HO311846   4.662   0.777  10.978 -2.4842 -0.6015  0.5694
  114OSM    C4S11847   4.636   0.718  10.668 -0.3929  0.2825 -0.1282
  114OSM    H4S11848   4.560   0.688  10.594  0.4984  0.2667 -1.0458
  114OSM    C5S11849   4.758   0.758  10.620  0.2004 -0.3651  0.7018
  114OSM    H5S11850   4.836   0.819  10.669  0.9151 -0.5846 -0.1349
  114OSM    C6S11851   4.801   0.737  10.475  0.4675  0.3325  0.6400
  114OSM    H6S11852   4.759   0.640  10.441 -0.0353  0.0314  2.0722
  114OSM    H6T11853   4.908   0.716  10.452 -0.0737 -2.3564  0.2581
  114OSM    C7S11854   4.742   0.860  10.386  0.2318  0.2530 -0.2938
  114OSM    H7S11855   4.801   0.950  10.414 -0.7688  1.2956 -1.3706
  114OSM    H7T11856   4.640   0.888  10.421  0.8203  0.9519  0.9143
  114OSM    C8S11857   4.749   0.829  10.237 -0.2181  0.5132 -0.9441
  114OSM    H8S11858   4.683   0.742  10.218  1.2915 -1.5704  2.4770
  114OSM    H8T11859   4.847   0.787  10.205  0.3616  0.4988  0.7590
  114OSM    C9S11860   4.720   0.954  10.142 -0.7793  0.3585  0.4665
  114OSM    H9S11861   4.795   1.033  10.164 -0.4297 -0.4722  2.4894
  114OSM    H9T11862   4.626   1.000  10.179 -1.3208 -0.8970  0.7067
  114OSM   C10S11863   4.712   0.916   9.988 -0.0642 -0.4435 -0.9998
  114OSM   H10S11864   4.622   0.854   9.968  0.3210 -1.6405  0.7803
  114OSM   H10T11865   4.803   0.857   9.961  0.2461 -0.0149 -0.8841
  114OSM   C11S11866   4.714   1.035   9.899  0.0393 -0.1249 -0.2260
  114OSM   H11S11867   4.807   1.085   9.935  0.7791 -1.0508 -0.8201
  114OSM   H11T11868   4.627   1.098   9.928  0.5553 -0.0990  1.3873
  114OSM   C12S11869   4.732   1.003   9.751 -0.1972  0.4011  0.1259
  114OSM   H12S11870   4.662   0.927   9.709  1.8003 -1.2207 -0.3994
  114OSM   H12T11871   4.829   0.949   9.747 -0.6719 -0.5802  1.1636
  114OSM   C13S11872   4.745   1.131   9.659 -0.1819 -0.0733 -0.5337
  114OSM   H13S11873   4.828   1.197   9.690 -0.8602  0.2750  0.6349
  114OSM   H13T11874   4.655   1.194   9.679 -0.1122  0.0831 -0.7114
  114OSM   C14S11875   4.742   1.084   9.513 -0.3572 -0.4624 -0.0033
  114OSM   H14S11876   4.677   0.993   9.514  0.0171 -0.7322  0.7616
  114OSM   H14T11877   4.841   1.037   9.497 -0.4969 -0.4419 -0.9963
  114OSM   C15S11878   4.723   1.200   9.414 -0.0414 -0.6932  0.2013
  114OSM   H15S11879   4.801   1.275   9.441 -0.1777 -0.3849 -0.2457
  114OSM   H15T11880   4.625   1.252   9.415  1.0579  1.5535 -0.2440
  114OSM   C16S11881   4.745   1.158   9.269 -0.8234 -0.4279  0.4838
  114OSM   H16S11882   4.666   1.095   9.223  0.2835 -1.1970 -0.4189
  114OSM   H16T11883   4.836   1.094   9.263 -0.4813  0.1159 -0.3551
  114OSM   C17S11884   4.759   1.278   9.176 -0.2224 -0.3082 -0.0694
  114OSM   H17S11885   4.849   1.341   9.195 -0.7976  0.6996 -0.5957
  114OSM   H17T11886   4.671   1.344   9.188 -0.8960 -0.8636 -1.6553
  114OSM   C18S11887   4.771   1.237   9.028  0.4813  0.1097 -0.0171
  114OSM   H18S11888   4.794   1.325   8.963  0.5412  0.8366  0.9634
  114OSM   H18T11889   4.678   1.186   8.994  0.6160 -0.1989  0.0760
  114OSM   H18U11890   4.856   1.168   9.013  1.8314  1.0667  2.6107
  114OSM    C1F11891   4.392   1.048  10.728  1.3372 -0.4531 -0.2000
  114OSM     OF11892   4.472   1.126  10.774  0.0128 -0.2416  0.1390
  114OSM    C2F11893   4.265   1.096  10.657  0.2005  0.4594  0.2002
  114OSM    H2F11894   4.280   1.203  10.629 -1.0286  0.6545  0.2450
  114OSM    H2G11895   4.190   1.116  10.736  0.1711  0.9663  0.0471
  114OSM    C3F11896   4.208   1.013  10.540 -0.0333  0.1596  0.4204
  114OSM    H3F11897   4.109   1.055  10.509 -0.4547 -0.2436  1.1811
  114OSM    H3G11898   4.195   0.906  10.567 -0.1216 -0.4253 -1.7650
  114OSM    C4F11899   4.304   1.003  10.422  0.1926 -0.2970 -0.3123
  114OSM    H4F11900   4.372   0.918  10.444 -3.0366 -3.2863 -1.1684
  114OSM    H4G11901   4.354   1.101  10.405  0.6532 -0.3647  0.5832
  114OSM    C5F11902   4.235   0.970  10.289 -0.3490  0.8673 -0.2277
  114OSM    H5F11903   4.138   1.019  10.267 -0.6728  0.5579  0.4665
  114OSM    H5G11904   4.214   0.861  10.283 -0.6909  0.7535  2.0252
  114OSM    C6F11905   4.319   0.999  10.165 -0.3666 -0.1563 -0.4433
  114OSM    H6F11906   4.416   0.946  10.167 -1.7122 -2.8065  1.9420
  114OSM    H6G11907   4.319   1.110  10.160  0.5038 -0.1890 -1.5938
  114OSM    C7F11908   4.241   0.960  10.033  0.2547 -0.4117  0.0801
  114OSM    H7F11909   4.140   1.003  10.051 -0.3678 -1.1282 -1.4965
  114OSM    H7G11910   4.237   0.849  10.023 -1.4082 -0.2414 -2.0142
  114OSM    C8F11911   4.305   1.007   9.902  0.2479  0.4803 -0.4659
  114OSM    H8F11912   4.249   0.963   9.817  1.0494 -0.0186 -0.7393
  114OSM    H8G11913   4.400   0.950   9.894 -0.0047  0.3067 -2.8022
  114OSM    C9F11914   4.333   1.155   9.882 -0.1145 -0.1820 -0.1049
  114OSM    H9F11915   4.362   1.219   9.966 -2.2161 -0.1164  0.6093
  114OSM   C10F11916   4.321   1.229   9.770 -0.0662  0.7802 -0.2417
  114OSM   H10F11917   4.354   1.333   9.757  0.2976  0.4267 -2.6424
  114OSM   C11F11918   4.273   1.170   9.642  0.6005  0.0284  0.2608
  114OSM   H11F11919   4.193   1.236   9.602  2.1910 -0.6508 -4.8464
  114OSM   H11G11920   4.213   1.077   9.646  1.6298 -0.7354 -1.1034
  114OSM   C12F11921   4.363   1.160   9.522 -0.8982 -0.1473  0.1559
  114OSM   H12F11922   4.460   1.116   9.552 -0.2877  0.4165 -0.9110
  114OSM   H12G11923   4.389   1.258   9.476  1.0568 -0.2658  0.9183
  114OSM   C13F11924   4.302   1.075   9.419  0.2324 -0.3247  0.6666
  114OSM   H13F11925   4.218   1.133   9.375  1.5418  0.3562 -1.0324
  114OSM   H13G11926   4.255   0.993   9.478 -1.2124  0.8113  1.1372
  114OSM   C14F11927   4.390   1.011   9.307 -0.6604 -0.9761 -0.0012
  114OSM   H14F11928   4.436   0.925   9.361 -0.4780 -0.7985  0.1321
  114OSM   H14G11929   4.476   1.080   9.294 -2.0061  0.6490 -0.5738
  114OSM   C15F11930   4.316   0.977   9.181  0.7769  1.0806  0.5276
  114OSM   H15F11931   4.254   1.060   9.143  0.6650  0.2286 -1.2846
  114OSM   H15G11932   4.246   0.894   9.202  0.7666  1.0478  0.3651
  114OSM   C16F11933   4.407   0.944   9.063 -0.1734  0.1715 -0.1047
  114OSM   H16F11934   4.478   0.858   9.071  1.2167  1.2841 -0.1665
  114OSM   H16G11935   4.462   1.034   9.030 -1.7130  0.5499 -1.7603
  114OSM   C17F11936   4.330   0.927   8.932 -0.4068  0.3875  0.5596
  114OSM   H17F11937   4.251   1.005   8.923 -1.9737 -1.1294  0.7156
  114OSM   H17G11938   4.286   0.825   8.935  1.6271 -0.5492  0.3420
  114OSM   C18F11939   4.419   0.915   8.811 -0.2242 -0.2598  0.0806
  114OSM   H18F11940   4.473   0.818   8.816  0.3107  0.0409  0.1394
  114OSM   H18G11941   4.477   1.007   8.792 -0.7688  0.7101  2.7734
  114OSM   H18H11942   4.363   0.902   8.715 -0.8103 -1.1217  0.5219
  115OSM      N11943   5.902   4.311   6.225 -0.2842 -0.3538  0.2722
  115OSM    C1511944   5.895   4.173   6.173  0.8929  0.0348 -0.0267
  115OSM   H15A11945   5.993   4.131   6.159 -0.3035 -2.4865 -1.5439
  115OSM   H15B11946   5.848   4.171   6.076  0.3646 -0.3402  0.2296
  115OSM   H15C11947   5.837   4.109   6.238  0.5197  0.5932  0.1956
  115OSM    C1411948   6.005   4.315   6.336  0.0803  0.4924  0.4001
  115OSM   H14A11949   6.097   4.293   6.285  0.6526 -0.0874  1.6442
  115OSM   H14B11950   5.980   4.247   6.416 -0.1802 -0.9745 -0.8688
  115OSM   H14C11951   5.998   4.415   6.376 -2.3174  0.6358 -0.2435
  115OSM    C1311952   5.962   4.389   6.107  0.3755  0.2839 -0.1751
  115OSM   H13A11953   5.891   4.377   6.027 -2.1711 -1.3389  2.1427
  115OSM   H13B11954   6.051   4.340   6.071 -0.7852 -3.3640  1.4571
  115OSM   H13C11955   5.989   4.487   6.144  4.2720 -1.3637  1.9980
  115OSM    C1211956   5.769   4.371   6.268 -0.0452  0.7265 -0.0970
  115OSM   H12A11957   5.771   4.476   6.294 -1.1029  0.8456 -0.4694
  115OSM   H12B11958   5.740   4.318   6.358  1.7108 -2.1859 -1.0957
  115OSM    C1111959   5.652   4.365   6.170 -0.0211 -0.2526  0.1830
  115OSM   H11A11960   5.679   4.440   6.092 -1.5950  1.6860  1.4059
  115OSM   H11B11961   5.569   4.408   6.230 -1.6870 -2.7553 -0.2043
  115OSM      P11962   5.543   4.127   6.207  0.1721 -0.1060  0.1429
  115OSM    O1311963   5.399   4.103   6.165 -0.0019 -0.7008  0.4748
  115OSM    O1411964   5.631   4.005   6.192  0.5818  0.3369 -0.4677
  115OSM    O1111965   5.547   4.188   6.355  0.2355  0.2063  0.3991
  115OSM    O1211966   5.612   4.239   6.121  0.2200  0.1933 -0.3042
  115OSM    C1S11967   5.429   4.190   6.435 -0.0200  0.2940 -0.6579
  115OSM    H1S11968   5.349   4.124   6.395  0.5501 -0.5810 -0.3807
  115OSM    H1T11969   5.391   4.294   6.448 -0.3394  0.1285 -0.2475
  115OSM     NF11970   5.327   4.172   6.659  0.6956  0.3115  0.0470
  115OSM    HNF11971   5.315   4.251   6.719  1.7928  1.9759 -1.7827
  115OSM    C2S11972   5.450   4.149   6.589  0.5118  0.2419 -0.2554
  115OSM    H2S11973   5.474   4.041   6.594 -1.2504 -0.1273  2.6034
  115OSM    C3S11974   5.571   4.218   6.658  0.4074 -0.1550  0.1158
  115OSM    H3S11975   5.552   4.323   6.688  2.5272  0.7975 -1.6252
  115OSM     O311976   5.686   4.222   6.572 -0.5295  0.2484  0.3346
  115OSM    HO311977   5.646   4.199   6.489 -0.0185  0.1232  0.1205
  115OSM    C4S11978   5.597   4.157   6.787  0.5876  0.3716 -0.1121
  115OSM    H4S11979   5.554   4.215   6.870  0.8140 -0.8169  0.8753
  115OSM    C5S11980   5.637   4.031   6.815 -0.1577 -0.0636  0.0510
  115OSM    H5S11981   5.660   3.971   6.726 -0.8978 -0.4894  0.1450
  115OSM    C6S11982   5.656   3.972   6.953 -0.5223  0.1547 -0.0830
  115OSM    H6S11983   5.764   3.953   6.969 -0.4797  0.9558  0.5981
  115OSM    H6T11984   5.602   3.875   6.966 -0.2180  0.1767  1.5060
  115OSM    C7S11985   5.629   4.060   7.076  0.2843 -0.8602  0.3880
  115OSM    H7S11986   5.529   4.107   7.074  0.9878  0.6886 -1.2253
  115OSM    H7T11987   5.713   4.133   7.076  0.7018 -1.1329 -3.3036
  115OSM    C8S11988   5.650   3.972   7.198  0.1800  0.2248 -0.5255
  115OSM    H8S11989   5.751   3.924   7.199  0.1670  0.1027  2.0163
  115OSM    H8T11990   5.570   3.895   7.201 -1.5550  1.9947 -0.2681
  115OSM    C9S11991   5.647   4.049   7.330 -0.1084 -0.4725  0.0360
  115OSM    H9S11992   5.551   4.104   7.344  0.5568  0.6658  0.2567
  115OSM    H9T11993   5.733   4.119   7.320 -0.2122 -0.5382 -1.6477
  115OSM   C10S11994   5.669   3.959   7.458 -0.1269 -0.1959  0.1109
  115OSM   H10S11995   5.765   3.903   7.457  0.4483  0.7791 -0.8633
  115OSM   H10T11996   5.590   3.881   7.456  0.0747 -0.3849 -1.1685
  115OSM   C11S11997   5.650   4.039   7.589  0.0037  0.9866 -0.9067
  115OSM   H11S11998   5.546   4.075   7.604 -0.3852  0.3525 -1.9810
  115OSM   H11T11999   5.711   4.131   7.575  0.4278  0.5374 -2.1273
  115OSM   C12S12000   5.691   3.962   7.715 -0.4410  0.2788 -0.3190
  115OSM   H12S12001   5.791   3.915   7.700 -0.8969 -1.1904  0.8972
  115OSM   H12T12002   5.625   3.875   7.739 -0.3106  0.4620  0.7793
  115OSM   C13S12003   5.692   4.035   7.848  0.1114 -0.3782 -0.1185
  115OSM   H13S12004   5.595   4.088   7.857 -0.1578 -0.8305 -0.3386
  115OSM   H13T12005   5.770   4.114   7.839  1.8768 -2.0258 -0.0085
  115OSM   C14S12006   5.703   3.937   7.973  0.1183 -0.5404  0.1755
  115OSM   H14S12007   5.800   3.883   7.982  0.5628  0.0856 -0.6611
  115OSM   H14T12008   5.625   3.859   7.967  0.0566 -0.7693  2.7430
  115OSM   C15S12009   5.675   4.020   8.106  0.9797  0.3127  0.0000
  115OSM   H15S12010   5.621   4.112   8.073  0.6656  0.0140 -0.3358
  115OSM   H15T12011   5.774   4.061   8.135  0.5797  0.9124  0.5285
  115OSM   C16S12012   5.600   3.937   8.215 -0.2551 -0.3134 -0.3306
  115OSM   H16S12013   5.671   3.859   8.252  2.4744  2.2228  0.1869
  115OSM   H16T12014   5.505   3.893   8.179 -1.9295  1.6505  1.4038
  115OSM   C17S12015   5.562   4.043   8.317 -0.3489 -0.1675  0.6961
  115OSM   H17S12016   5.492   4.117   8.273  1.9136  1.3860 -0.4673
  115OSM   H17T12017   5.642   4.110   8.354 -0.6883  0.9279 -0.4893
  115OSM   C18S12018   5.501   3.980   8.444  0.6202 -0.7212 -0.2209
  115OSM   H18S12019   5.575   3.923   8.504  1.4929  1.2328  0.6535
  115OSM   H18T12020   5.414   3.920   8.409 -0.6234  2.0437 -2.2259
  115OSM   H18U12021   5.465   4.060   8.511  3.1068 -0.3651  0.7750
  115OSM    C1F12022   5.212   4.102   6.624 -0.2200 -0.0458 -0.0533
  115OSM     OF12023   5.220   3.999   6.559  0.4884  0.8872  0.7993
  115OSM    C2F12024   5.086   4.158   6.673  0.1277  0.1693  0.1031
  115OSM    H2F12025   5.017   4.170   6.587 -0.2878  0.3863  0.4604
  115OSM    H2G12026   5.102   4.261   6.710  1.3824  0.6401 -1.6180
  115OSM    C3F12027   5.008   4.063   6.771 -0.1546  0.0506  0.1112
  115OSM    H3F12028   4.979   3.971   6.715  0.1947 -0.1273  0.2234
  115OSM    H3G12029   4.909   4.111   6.791 -1.2377 -2.0297  0.0513
  115OSM    C4F12030   5.082   4.041   6.906  0.2754 -0.4691 -0.1193
  115OSM    H4F12031   5.071   4.137   6.961  0.0452 -0.3264 -0.4080
  115OSM    H4G12032   5.191   4.024   6.895  0.6662  0.5410  1.7800
  115OSM    C5F12033   5.010   3.938   6.988 -0.6241 -0.3343  0.4207
  115OSM    H5F12034   5.026   3.836   6.947  1.6247 -0.0956  0.5851
  115OSM    H5G12035   4.903   3.967   6.995 -0.8082 -1.3275  2.5320
  115OSM    C6F12036   5.061   3.927   7.136 -0.2152  0.1515 -0.1085
  115OSM    H6F12037   4.981   3.878   7.195 -0.6091  1.2712  0.3076
  115OSM    H6G12038   5.075   4.029   7.179 -0.3350  0.4561 -0.7784
  115OSM    C7F12039   5.185   3.846   7.148 -0.3563  0.0156 -0.5555
  115OSM    H7F12040   5.270   3.886   7.088 -0.6454 -0.2409 -1.1490
  115OSM    H7G12041   5.158   3.747   7.107 -2.5720  0.1082  0.5571
  115OSM    C8F12042   5.235   3.822   7.294  0.4833 -0.4586  0.1899
  115OSM    H8F12043   5.307   3.738   7.300  0.9634  0.0241  1.4223
  115OSM    H8G12044   5.145   3.798   7.355  0.4490 -0.0551  0.3028
  115OSM    C9F12045   5.303   3.942   7.360  0.0700  0.5894  0.7802
  115OSM    H9F12046   5.348   4.011   7.287 -0.9334 -0.3860 -0.8385
  115OSM   C10F12047   5.294   3.976   7.492 -0.6142  0.5797  1.0186
  115OSM   H10F12048   5.344   4.067   7.528 -0.3006  1.6582 -1.8435
  115OSM   C11F12049   5.220   3.910   7.602  0.1288 -0.2921  0.0368
  115OSM   H11F12050   5.135   3.853   7.557 -0.2796 -0.1595  0.6179
  115OSM   H11G12051   5.175   3.985   7.670 -0.7502  1.2109 -2.0902
  115OSM   C12F12052   5.309   3.819   7.682  0.3751  0.2678 -0.4720
  115OSM   H12F12053   5.391   3.879   7.728 -1.6706  1.1154  2.3407
  115OSM   H12G12054   5.344   3.734   7.620 -0.9366  0.5028 -1.5653
  115OSM   C13F12055   5.222   3.738   7.785  0.2165 -0.2184 -0.2894
  115OSM   H13F12056   5.291   3.694   7.860  1.4091  1.8369 -0.0977
  115OSM   H13G12057   5.173   3.651   7.737  0.5328 -0.2373 -0.5867
  115OSM   C14F12058   5.103   3.815   7.848  0.3291  0.0032  0.4210
  115OSM   H14F12059   5.031   3.842   7.767 -0.2651  1.9682  1.5327
  115OSM   H14G12060   5.127   3.913   7.894  4.0698  0.3556 -1.9108
  115OSM   C15F12061   5.035   3.717   7.953  0.2477 -0.0501 -0.3197
  115OSM   H15F12062   5.019   3.619   7.903 -1.6274  0.2572 -0.3913
  115OSM   H15G12063   4.931   3.751   7.974 -1.0722 -2.7274 -1.8180
  115OSM   C16F12064   5.104   3.702   8.084  0.4828 -0.3696  0.5320
  115OSM   H16F12065   5.209   3.668   8.072  0.5785 -0.1432  0.7343
  115OSM   H16G12066   5.053   3.627   8.147  1.1383  0.3728  1.9921
  115OSM   C17F12067   5.100   3.827   8.177 -0.2086 -0.6278 -0.4581
  115OSM   H17F12068   5.000   3.874   8.185 -0.0934 -0.5563  0.8323
  115OSM   H17G12069   5.170   3.902   8.136  0.6251  0.0343  1.9980
  115OSM   C18F12070   5.154   3.798   8.318  0.2827  1.0303  0.1360
  115OSM   H18F12071   5.131   3.874   8.396 -2.5441  1.1943 -0.7544
  115OSM   H18G12072   5.265   3.799   8.319  0.2929  1.4344 -0.4437
  115OSM   H18H12073   5.118   3.698   8.348  0.8371  0.5082 -0.8737
  116OSM      N12074   5.784   2.476   6.112 -0.1004 -0.4328 -0.5073
  116OSM    C1512075   5.798   2.551   6.241 -0.6847 -0.3864 -0.3232
  116OSM   H15A12076   5.758   2.651   6.235 -2.6111 -1.0052  1.0528
  116OSM   H15B12077   5.901   2.546   6.270 -0.5966  0.6000 -0.4480
  116OSM   H15C12078   5.737   2.502   6.316 -0.9356 -1.4757 -1.2123
  116OSM    C1412079   5.887   2.539   6.027 -0.2807 -0.1643 -0.0534
  116OSM   H14A12080   5.845   2.635   6.002  1.5745  1.0174  1.1052
  116OSM   H14B12081   5.912   2.500   5.930 -0.0169  2.4590 -1.1027
  116OSM   H14C12082   5.971   2.555   6.094 -0.2138  0.7785 -0.3558
  116OSM    C1312083   5.811   2.329   6.126 -0.9462 -0.5581 -0.2875
  116OSM   H13A12084   5.761   2.268   6.200 -0.9296 -1.0606 -0.6800
  116OSM   H13B12085   5.918   2.320   6.142 -0.7117  2.4418  0.4533
  116OSM   H13C12086   5.785   2.273   6.037 -1.5465 -1.0231  0.1703
  116OSM    C1212087   5.652   2.500   6.052 -0.2429  0.0908 -0.2835
  116OSM   H12A12088   5.647   2.450   5.956 -0.7168  1.2223 -0.8610
  116OSM   H12B12089   5.652   2.606   6.035  1.1474  0.2502  0.5451
  116OSM    C1112090   5.528   2.462   6.134  0.5394  0.1178 -0.3363
  116OSM   H11A12091   5.441   2.495   6.074  1.2513 -0.0703 -1.5029
  116OSM   H11B12092   5.505   2.526   6.222 -0.6688 -1.1346  0.2986
  116OSM      P12093   5.433   2.276   6.308 -0.0935 -0.3508  0.2616
  116OSM    O1312094   5.305   2.347   6.325  0.3281  0.1007  0.1540
  116OSM    O1412095   5.423   2.129   6.304 -0.3458  0.1941 -0.1844
  116OSM    O1112096   5.539   2.319   6.417  0.6515 -0.4304  0.0519
  116OSM    O1212097   5.513   2.319   6.179  0.8344  0.3253  0.3788
  116OSM    C1S12098   5.527   2.448   6.474  0.6185  0.0555  0.3147
  116OSM    H1S12099   5.426   2.493   6.467  1.0298  0.9742  0.0434
  116OSM    H1T12100   5.597   2.509   6.412  1.1134 -1.3436 -0.5571
  116OSM     NF12101   5.545   2.592   6.682  0.1950  0.1044  0.0471
  116OSM    HNF12102   5.625   2.651   6.681  0.8932 -0.8220 -0.0703
  116OSM    C2S12103   5.577   2.460   6.624 -0.0456  0.6991  0.7399
  116OSM    H2S12104   5.528   2.384   6.688 -3.2101  3.5514  2.0280
  116OSM    C3S12105   5.728   2.431   6.622  0.7103  0.8156 -0.1909
  116OSM    H3S12106   5.764   2.527   6.579 -2.2302  2.6914  1.2803
  116OSM     O312107   5.761   2.320   6.538 -0.2830 -0.3150  0.1621
  116OSM    HO312108   5.685   2.293   6.486 -1.7035  1.5281  1.1231
  116OSM    C4S12109   5.779   2.391   6.753  0.6454  0.0348  0.2590
  116OSM    H4S12110   5.741   2.291   6.779 -1.5776  0.0077 -2.5861
  116OSM    C5S12111   5.854   2.474   6.834  0.0442  0.4532  0.1250
  116OSM    H5S12112   5.866   2.579   6.804  2.7071 -0.4177 -2.2863
  116OSM    C6S12113   5.908   2.446   6.972  0.0475 -0.5484  0.6847
  116OSM    H6S12114   5.858   2.517   7.041  1.4516  0.9074  0.2625
  116OSM    H6T12115   6.016   2.474   6.967  0.1150 -0.8844  0.2442
  116OSM    C7S12116   5.884   2.315   7.046 -0.4831  0.0081  0.1255
  116OSM    H7S12117   5.893   2.229   6.975  1.6375  0.0821  0.2438
  116OSM    H7T12118   5.778   2.317   7.080 -1.1134 -3.2674 -1.1883
  116OSM    C8S12119   5.964   2.276   7.168 -0.5654 -0.0886 -0.2175
  116OSM    H8S12120   5.985   2.369   7.226 -0.1722 -1.4499  1.9451
  116OSM    H8T12121   6.058   2.223   7.140 -0.2563  0.3191  0.0244
  116OSM    C9S12122   5.897   2.165   7.260  0.1116 -0.3621  0.6291
  116OSM    H9S12123   5.858   2.079   7.201 -0.2303 -1.1304  1.9456
  116OSM    H9T12124   5.808   2.218   7.301 -1.3865  0.1123 -2.8059
  116OSM   C10S12125   5.971   2.118   7.383  0.9569 -0.0262 -0.6587
  116OSM   H10S12126   6.068   2.084   7.343  0.0500 -0.5117 -2.5306
  116OSM   H10T12127   5.921   2.025   7.419  0.8654  0.0082 -0.6946
  116OSM   C11S12128   5.985   2.215   7.498 -0.0187 -0.0442 -0.2702
  116OSM   H11S12129   5.978   2.320   7.462 -2.0125  0.6759  1.9846
  116OSM   H11T12130   6.088   2.197   7.535 -0.8383  0.1955  2.3265
  116OSM   C12S12131   5.883   2.186   7.609 -0.3229  0.4758  0.0377
  116OSM   H12S12132   5.863   2.079   7.630 -0.3715  0.7757  1.6062
  116OSM   H12T12133   5.784   2.223   7.578 -1.2009  0.5965  2.7554
  116OSM   C13S12134   5.921   2.250   7.752 -0.0107  0.0567 -0.0347
  116OSM   H13S12135   5.826   2.258   7.809  0.7301  0.5439  1.1708
  116OSM   H13T12136   5.957   2.355   7.744 -2.1576  0.8391  0.1176
  116OSM   C14S12137   6.022   2.166   7.830 -0.0156  0.2863 -0.2294
  116OSM   H14S12138   6.117   2.153   7.775  0.7319  2.2843  0.5318
  116OSM   H14T12139   5.978   2.064   7.839 -0.5015  0.6628  2.3281
  116OSM   C15S12140   6.059   2.225   7.967  0.0044  0.2329 -0.3288
  116OSM   H15S12141   5.967   2.255   8.022  0.1797  3.5564 -1.5872
  116OSM   H15T12142   6.111   2.323   7.954 -1.3456  0.7781 -2.0130
  116OSM   C16S12143   6.148   2.121   8.031  0.0609 -0.1746 -0.1876
  116OSM   H16S12144   6.236   2.110   7.964  1.6194  2.0984  1.3456
  116OSM   H16T12145   6.103   2.021   8.049  0.3836 -0.4689 -0.9427
  116OSM   C17S12146   6.195   2.184   8.166  0.5633 -0.2563  0.4676
  116OSM   H17S12147   6.101   2.206   8.221 -0.3985 -2.2942 -0.2613
  116OSM   H17T12148   6.246   2.279   8.139 -0.1371  0.2162  0.7623
  116OSM   C18S12149   6.283   2.094   8.248 -0.2132  0.1034 -0.2780
  116OSM   H18S12150   6.223   2.005   8.278  1.0024  0.2176  2.9506
  116OSM   H18T12151   6.308   2.145   8.344  4.2246 -1.2128 -0.4778
  116OSM   H18U12152   6.383   2.064   8.209  0.8385  1.6549  1.0721
  116OSM    C1F12153   5.418   2.629   6.711  0.4040 -0.0333 -0.2697
  116OSM     OF12154   5.319   2.553   6.697  0.2068 -0.0032  0.0028
  116OSM    C2F12155   5.397   2.767   6.764  0.2089  0.4114 -0.4079
  116OSM    H2F12156   5.358   2.828   6.680  0.8720 -1.2476 -1.9976
  116OSM    H2G12157   5.500   2.796   6.794  0.4407 -0.4937 -0.2835
  116OSM    C3F12158   5.302   2.767   6.886  0.5174  0.5061  0.3506
  116OSM    H3F12159   5.334   2.689   6.958 -1.1738 -0.0726  0.5257
  116OSM    H3G12160   5.202   2.748   6.840  0.1482  0.2282  1.2444
  116OSM    C4F12161   5.301   2.891   6.966 -0.4583  0.4585  0.0979
  116OSM    H4F12162   5.224   2.882   7.045  0.4530  0.0367  0.9583
  116OSM    H4G12163   5.284   2.976   6.897  1.9381 -0.0669 -1.2600
  116OSM    C5F12164   5.440   2.911   7.030 -0.7142 -0.0423 -0.1266
  116OSM    H5F12165   5.511   2.906   6.944 -1.2430 -0.5809 -0.5400
  116OSM    H5G12166   5.457   2.817   7.087 -0.3771 -1.2863 -2.1737
  116OSM    C6F12167   5.452   3.032   7.121  0.2421 -0.2480 -0.4555
  116OSM    H6F12168   5.368   3.038   7.193  0.5368  2.7465 -0.2460
  116OSM    H6G12169   5.444   3.127   7.065  0.7732  0.1723  0.1680
  116OSM    C7F12170   5.581   3.035   7.197  0.4584  0.0912  0.3761
  116OSM    H7F12171   5.662   3.064   7.126 -0.2860 -1.7841 -1.3637
  116OSM    H7G12172   5.592   2.933   7.240  2.3050 -0.5948 -1.4974
  116OSM    C8F12173   5.578   3.142   7.307 -0.1302  0.2700 -0.5764
  116OSM    H8F12174   5.485   3.128   7.365  0.4930 -0.2270  0.3215
  116OSM    H8G12175   5.563   3.242   7.260 -1.3610  0.6352  0.5320
  116OSM    C9F12176   5.706   3.151   7.391 -0.0560 -0.1785 -0.4356
  116OSM    H9F12177   5.796   3.152   7.327 -0.0408 -0.7967 -0.4320
  116OSM   C10F12178   5.722   3.145   7.523 -0.8288  0.3450 -0.9611
  116OSM   H10F12179   5.825   3.142   7.563 -1.1405 -0.6805 -0.1934
  116OSM   C11F12180   5.615   3.139   7.626  0.5079 -0.5752  0.0992
  116OSM   H11F12181   5.524   3.102   7.574  0.6502  1.5433 -1.7979
  116OSM   H11G12182   5.599   3.236   7.678  0.6827 -0.8836  0.7355
  116OSM   C12F12183   5.635   3.046   7.747  0.2576 -0.4141 -0.5642
  116OSM   H12F12184   5.627   2.937   7.725  1.8330 -0.6052 -0.2978
  116OSM   H12G12185   5.556   3.063   7.823  1.8801  2.4197  0.6374
  116OSM   C13F12186   5.768   3.076   7.816 -0.0717 -0.3282  0.4547
  116OSM   H13F12187   5.792   3.182   7.791  0.2891 -0.7798 -1.2604
  116OSM   H13G12188   5.845   3.013   7.766 -0.0350  0.4312 -0.4812
  116OSM   C14F12189   5.794   3.034   7.957  0.4789 -0.3520 -0.0598
  116OSM   H14F12190   5.896   3.071   7.981  0.3721 -0.1228  0.0459
  116OSM   H14G12191   5.789   2.924   7.970 -2.9530 -0.2772  0.0635
  116OSM   C15F12192   5.701   3.098   8.060 -0.3643  0.1113 -1.0271
  116OSM   H15F12193   5.604   3.047   8.078  0.9643 -1.7516  1.6069
  116OSM   H15G12194   5.692   3.204   8.027  2.2680  0.6133 -0.4097
  116OSM   C16F12195   5.773   3.106   8.203  0.2075  0.0401  0.3804
  116OSM   H16F12196   5.870   3.160   8.200  1.3101 -1.8358  0.5424
  116OSM   H16G12197   5.792   2.998   8.221 -3.9756 -0.3818  4.3383
  116OSM   C17F12198   5.677   3.144   8.314  0.6300 -0.3634 -0.2064
  116OSM   H17F12199   5.586   3.080   8.313 -0.3624  0.9699  0.5689
  116OSM   H17G12200   5.635   3.246   8.298 -0.8711 -0.8590  0.3508
  116OSM   C18F12201   5.744   3.145   8.448 -0.6405 -0.2080  0.3968
  116OSM   H18F12202   5.834   3.080   8.447 -0.4164  0.0211 -2.2022
  116OSM   H18G12203   5.677   3.103   8.526 -0.7977 -0.8520 -0.0738
  116OSM   H18H12204   5.781   3.248   8.466  1.5682 -0.7763 -0.5164
  117OSM      N12205   3.491   4.248   6.126  0.0421  0.0485  0.7093
  117OSM    C1512206   3.427   4.383   6.067 -0.3006  0.2073 -0.1223
  117OSM   H15A12207   3.329   4.400   6.108 -1.3959  1.5382 -2.9660
  117OSM   H15B12208   3.411   4.371   5.960 -2.2113 -2.4474  0.3573
  117OSM   H15C12209   3.489   4.469   6.089 -1.7361  1.0779  0.6305
  117OSM    C1412210   3.384   4.144   6.128  0.4088 -0.5853 -0.1052
  117OSM   H14A12211   3.355   4.118   6.028 -0.5707  1.6823 -0.4868
  117OSM   H14B12212   3.296   4.170   6.186  2.0727  0.4845  2.1219
  117OSM   H14C12213   3.419   4.050   6.168 -0.6927 -2.2305 -2.7640
  117OSM    C1312214   3.604   4.208   6.036 -0.3137  0.0091  0.2107
  117OSM   H13A12215   3.656   4.298   6.007 -1.0880  0.5549  0.4925
  117OSM   H13B12216   3.561   4.166   5.946 -2.5001  2.5633 -0.0286
  117OSM   H13C12217   3.667   4.139   6.091  2.1558 -0.9190 -3.4287
  117OSM    C1212218   3.535   4.270   6.264 -0.4766  0.0491  0.2541
  117OSM   H12A12219   3.450   4.306   6.320 -0.8466  1.3296 -1.0708
  117OSM   H12B12220   3.611   4.347   6.262 -0.3416 -0.0833  0.2211
  117OSM    C1112221   3.599   4.145   6.347 -0.7683  0.9007  0.3325
  117OSM   H11A12222   3.519   4.068   6.357 -0.2631 -0.1488 -2.7007
  117OSM   H11B12223   3.631   4.182   6.447 -0.6501  0.6405  0.3921
  117OSM      P12224   3.799   3.972   6.324 -0.2604 -0.1970 -0.1631
  117OSM    O1312225   3.729   3.844   6.311 -0.2565 -0.1531  0.0520
  117OSM    O1412226   3.923   3.984   6.244  0.1097  0.2843  0.2505
  117OSM    O1112227   3.827   4.006   6.468  0.4043  0.2674 -0.1748
  117OSM    O1212228   3.707   4.082   6.278 -0.1365  0.0550  0.5011
  117OSM    C1S12229   3.754   3.961   6.584  0.3406 -0.0970 -0.9894
  117OSM    H1S12230   3.757   3.850   6.588  0.2857 -0.0837  2.6392
  117OSM    H1T12231   3.648   3.995   6.580 -0.2804 -1.9812 -1.3596
  117OSM     NF12232   3.784   3.952   6.834 -0.1422  0.8404  0.2790
  117OSM    HNF12233   3.713   3.997   6.887 -1.9431 -0.5313 -0.8609
  117OSM    C2S12234   3.830   4.017   6.717 -0.1709  0.0432 -0.0622
  117OSM    H2S12235   3.940   3.996   6.716  0.0982  0.2400  4.3180
  117OSM    C3S12236   3.812   4.174   6.730  0.2159 -0.2842  0.4127
  117OSM    H3S12237   3.706   4.201   6.747  0.8425  0.9031  2.9250
  117OSM     O312238   3.855   4.244   6.608  0.3039  0.0365  0.5709
  117OSM    HO312239   3.874   4.170   6.551 -0.9095  0.0980  0.0571
  117OSM    C4S12240   3.900   4.221   6.847 -0.2333 -0.6556  0.3937
  117OSM    H4S12241   4.005   4.188   6.856  0.2320  1.0636  1.6796
  117OSM    C5S12242   3.863   4.313   6.939 -0.2155  0.2921 -0.5206
  117OSM    H5S12243   3.760   4.350   6.934 -0.4490 -0.4090 -1.0448
  117OSM    C6S12244   3.947   4.366   7.054 -0.7396 -0.2989  0.1175
  117OSM    H6S12245   3.885   4.390   7.143  2.0212  0.8691  1.8251
  117OSM    H6T12246   4.005   4.457   7.027  0.2837 -0.7713  0.6722
  117OSM    C7S12247   4.058   4.270   7.100  0.7220 -0.2246 -0.1938
  117OSM    H7S12248   4.149   4.275   7.037  1.9800  1.2818  1.6278
  117OSM    H7T12249   4.023   4.165   7.092  0.1826  0.1292 -3.7976
  117OSM    C8S12250   4.117   4.289   7.247 -0.1822 -0.5183  0.4526
  117OSM    H8S12251   4.140   4.394   7.272 -1.6087 -0.0604 -0.0480
  117OSM    H8T12252   4.211   4.229   7.249 -0.3423 -0.8333 -0.5995
  117OSM    C9S12253   4.022   4.238   7.359 -0.1559  0.4411  0.1396
  117OSM    H9S12254   3.995   4.132   7.340  0.1547  0.0343  1.8374
  117OSM    H9T12255   3.929   4.298   7.352  0.5034  1.6322  1.2357
  117OSM   C10S12256   4.086   4.240   7.501 -0.0856 -0.6747 -0.7191
  117OSM   H10S12257   4.121   4.344   7.516  0.6342 -1.0600  0.3495
  117OSM   H10T12258   4.182   4.184   7.492  0.7806  0.7097 -0.4264
  117OSM   C11S12259   3.991   4.209   7.622 -0.3961  0.6672  0.3118
  117OSM   H11S12260   3.972   4.101   7.601  2.1670  0.4781 -1.5417
  117OSM   H11T12261   3.902   4.274   7.608 -0.1520  1.4695  2.2830
  117OSM   C12S12262   4.069   4.234   7.751  0.7588 -0.5121 -0.0805
  117OSM   H12S12263   4.111   4.337   7.750  0.2627 -0.3024 -1.2218
  117OSM   H12T12264   4.155   4.164   7.760  0.1671 -0.9651  2.9139
  117OSM   C13S12265   3.977   4.223   7.873  0.0559  0.1745 -0.7454
  117OSM   H13S12266   3.929   4.123   7.875  2.1817 -0.8998  0.1595
  117OSM   H13T12267   3.907   4.309   7.858  0.9263  1.3545  1.4867
  117OSM   C14S12268   4.033   4.237   8.019 -0.8170  0.1246  0.3992
  117OSM   H14S12269   4.100   4.150   8.035 -1.5333 -0.3257  1.0251
  117OSM   H14T12270   3.952   4.238   8.094  0.4381 -1.2361  1.8413
  117OSM   C15S12271   4.111   4.372   8.038 -0.1538 -0.0214 -0.2434
  117OSM   H15S12272   4.049   4.463   8.050  3.1238  2.4178 -0.4279
  117OSM   H15T12273   4.162   4.391   7.941 -0.3172  1.3496 -0.0766
  117OSM   C16S12274   4.208   4.361   8.165 -0.6492  0.5279  0.0230
  117OSM   H16S12275   4.270   4.452   8.181 -0.7043  0.4089  0.9938
  117OSM   H16T12276   4.282   4.286   8.130  0.7041  2.9420 -2.7243
  117OSM   C17S12277   4.148   4.331   8.301 -0.1569 -0.5436 -0.0317
  117OSM   H17S12278   4.231   4.349   8.373 -1.3811  0.4152  1.2038
  117OSM   H17T12279   4.109   4.230   8.326 -0.8991 -0.6450 -1.5024
  117OSM   C18S12280   4.025   4.428   8.329 -0.1070  0.7320 -0.2999
  117OSM   H18S12281   3.931   4.382   8.290 -0.6245 -0.1569  1.7785
  117OSM   H18T12282   4.047   4.528   8.287 -0.1589  1.1783  0.6902
  117OSM   H18U12283   4.005   4.444   8.438 -1.3795  1.1097 -0.5673
  117OSM    C1F12284   3.798   3.823   6.858  0.3365 -0.4622  0.0335
  117OSM     OF12285   3.855   3.745   6.777  0.3974 -0.3727 -0.7033
  117OSM    C2F12286   3.737   3.789   6.988 -0.5369 -0.2181 -0.4783
  117OSM    H2F12287   3.627   3.781   6.977 -0.2028 -4.1273 -2.3324
  117OSM    H2G12288   3.763   3.866   7.064 -2.2803  0.0706 -0.1236
  117OSM    C3F12289   3.787   3.648   7.043  0.9009 -0.0810  0.8160
  117OSM    H3F12290   3.898   3.636   7.037  1.1795  2.3270  0.2036
  117OSM    H3G12291   3.739   3.570   6.980 -0.2814  0.7154  0.7152
  117OSM    C4F12292   3.744   3.618   7.191 -0.6796 -0.1386 -0.3033
  117OSM    H4F12293   3.637   3.635   7.214 -0.1169  4.0744  0.0410
  117OSM    H4G12294   3.796   3.681   7.266  0.1393 -0.1603 -0.8343
  117OSM    C5F12295   3.765   3.466   7.220 -0.2109 -0.8046 -1.1422
  117OSM    H5F12296   3.872   3.442   7.206  0.1389  0.7646 -1.4386
  117OSM    H5G12297   3.701   3.414   7.146 -1.5803  0.3529 -0.8114
  117OSM    C6F12298   3.714   3.436   7.359  0.6194 -0.0625 -0.5349
  117OSM    H6F12299   3.608   3.468   7.369  1.0466  1.7156 -1.3570
  117OSM    H6G12300   3.772   3.492   7.435  0.0255 -1.1947  0.8189
  117OSM    C7F12301   3.720   3.281   7.376 -0.1238 -0.2807 -0.4057
  117OSM    H7F12302   3.821   3.260   7.417 -0.2373 -2.3706 -1.0843
  117OSM    H7G12303   3.715   3.247   7.270  1.9097  0.0968 -0.6767
  117OSM    C8F12304   3.605   3.208   7.445  0.4646 -0.3162  0.0948
  117OSM    H8F12305   3.608   3.105   7.403  0.3887 -0.0321 -0.6180
  117OSM    H8G12306   3.514   3.262   7.410  1.5660 -0.4830 -3.4258
  117OSM    C9F12307   3.619   3.212   7.592  0.0036 -0.1170 -0.4252
  117OSM    H9F12308   3.665   3.308   7.621 -1.9083  1.4578 -2.2928
  117OSM   C10F12309   3.585   3.125   7.690 -0.0814  0.2845  0.5873
  117OSM   H10F12310   3.631   3.140   7.789 -0.8876 -1.8112  1.3348
  117OSM   C11F12311   3.515   3.005   7.674 -0.1117 -0.2720  0.1421
  117OSM   H11F12312   3.590   2.923   7.679  1.3982  0.9616 -1.1769
  117OSM   H11G12313   3.477   3.001   7.569  1.6616 -1.1392 -0.5042
  117OSM   C12F12314   3.398   2.980   7.777  1.0227  0.5988 -0.1944
  117OSM   H12F12315   3.341   2.894   7.734 -0.6572  1.9207 -0.7602
  117OSM   H12G12316   3.331   3.069   7.775 -2.1892 -1.6226 -2.0185
  117OSM   C13F12317   3.438   2.976   7.932  0.1062 -0.3494 -0.1228
  117OSM   H13F12318   3.481   3.069   7.975  0.7594 -0.9630  0.5747
  117OSM   H13G12319   3.520   2.902   7.946 -0.7633 -1.7775 -2.0750
  117OSM   C14F12320   3.316   2.939   8.018  0.1478  0.0536  0.8992
  117OSM   H14F12321   3.277   2.850   7.963 -0.6101 -1.1742  3.3113
  117OSM   H14G12322   3.243   3.022   8.012  0.7616  0.5145 -1.5756
  117OSM   C15F12323   3.344   2.919   8.168  0.2488  0.1269  0.2432
  117OSM   H15F12324   3.373   3.018   8.209  1.0709  0.5780 -1.3708
  117OSM   H15G12325   3.440   2.863   8.168  0.8782  1.1596 -1.2511
  117OSM   C16F12326   3.238   2.856   8.256 -0.5102 -0.5307 -0.5968
  117OSM   H16F12327   3.178   2.941   8.294  2.2834  0.2599  2.5225
  117OSM   H16G12328   3.294   2.826   8.347 -0.7080 -1.3644 -0.7457
  117OSM   C17F12329   3.151   2.745   8.187 -0.1481  0.1407  0.0227
  117OSM   H17F12330   3.105   2.784   8.094 -1.6889  1.6600  1.3265
  117OSM   H17G12331   3.224   2.664   8.169 -0.2084 -1.5150  5.3043
  117OSM   C18F12332   3.038   2.690   8.283 -0.3958 -0.8732  0.3353
  117OSM   H18F12333   3.083   2.671   8.383 -0.3409 -0.3567  0.4140
  117OSM   H18G12334   2.994   2.593   8.252  0.7817 -1.6436  1.0101
  117OSM   H18H12335   2.958   2.767   8.290  1.1514  0.7290  1.1733
  118OSM      N12336   2.440   5.076   6.065 -0.3061  0.2053 -1.2954
  118OSM    C1512337   2.533   5.161   6.145 -0.4064  0.1754 -0.3378
  118OSM   H15A12338   2.483   5.256   6.161  0.1995  0.5299 -0.5284
  118OSM   H15B12339   2.623   5.180   6.089 -0.9398 -3.2283 -2.7086
  118OSM   H15C12340   2.553   5.108   6.237 -0.0467 -1.1554 -1.1577
  118OSM    C1412341   2.389   5.156   5.948  0.2161 -0.0352 -0.3106
  118OSM   H14A12342   2.333   5.092   5.882  1.6060  0.1089 -1.6989
  118OSM   H14B12343   2.478   5.184   5.892 -0.5122  1.8017 -0.6151
  118OSM   H14C12344   2.327   5.237   5.983 -0.0628 -0.0301 -0.8138
  118OSM    C1312345   2.520   4.964   6.012 -0.3568 -0.2105  0.5241
  118OSM   H13A12346   2.610   5.000   5.965  0.1515  0.5268  2.0003
  118OSM   H13B12347   2.456   4.921   5.936 -0.6437 -1.5062  1.4556
  118OSM   H13C12348   2.540   4.880   6.078 -1.9984 -1.7207 -0.8208
  118OSM    C1212349   2.307   5.030   6.133 -1.5022  0.2339  0.3542
  118OSM   H12A12350   2.258   4.956   6.072 -0.4168 -0.9165  0.8566
  118OSM   H12B12351   2.253   5.123   6.150 -0.5029  0.7282  0.9228
  118OSM    C1112352   2.326   4.968   6.271  0.1271 -0.4216  0.3514
  118OSM   H11A12353   2.411   4.898   6.255  0.9645  1.0869 -2.5211
  118OSM   H11B12354   2.241   4.903   6.299  0.1092 -2.4308 -3.6264
  118OSM      P12355   2.246   5.149   6.442 -0.1616 -0.5526 -0.4261
  118OSM    O1312356   2.291   5.211   6.566  0.2406  0.2587  0.1693
  118OSM    O1412357   2.201   5.249   6.343 -0.1222 -0.1761  0.2320
  118OSM    O1112358   2.122   5.055   6.461  0.0355  0.1202 -0.2530
  118OSM    O1212359   2.364   5.058   6.379 -0.0226  0.2940  0.5382
  118OSM    C1S12360   2.116   4.972   6.582 -0.0256  0.4503 -0.2978
  118OSM    H1S12361   2.216   4.935   6.613  0.0254  2.0170  1.6031
  118OSM    H1T12362   2.057   4.880   6.559  1.7685 -0.6938 -0.4986
  118OSM     NF12363   2.047   4.964   6.819  0.0899  0.0463 -0.4745
  118OSM    HNF12364   1.958   4.930   6.847  0.6558 -1.1647 -0.0502
  118OSM    C2S12365   2.053   5.052   6.703 -0.6012  0.6045 -0.2044
  118OSM    H2S12366   2.123   5.135   6.723  1.6576 -0.1382 -4.0117
  118OSM    C3S12367   1.914   5.110   6.657 -0.1391 -0.8268 -0.5443
  118OSM    H3S12368   1.849   5.023   6.635  1.5315 -2.1195 -0.5276
  118OSM     O312369   1.912   5.182   6.535  0.2952 -0.0599 -0.0101
  118OSM    HO312370   1.984   5.151   6.480  2.7538  1.7512  1.9346
  118OSM    C4S12371   1.858   5.186   6.771 -0.3065 -0.2869  0.1217
  118OSM    H4S12372   1.920   5.273   6.799 -1.9750  0.7837  0.6032
  118OSM    C5S12373   1.752   5.159   6.841  0.7320  0.2331 -0.3254
  118OSM    H5S12374   1.690   5.068   6.829 -0.0540  0.6675  0.3636
  118OSM    C6S12375   1.716   5.257   6.958 -0.0468  0.0742 -0.3355
  118OSM    H6S12376   1.634   5.324   6.925  1.5236  1.9761 -0.5593
  118OSM    H6T12377   1.802   5.324   6.981 -0.6053  0.9343 -0.7083
  118OSM    C7S12378   1.675   5.189   7.091 -0.5705 -0.0747 -0.1745
  118OSM    H7S12379   1.771   5.144   7.124 -0.9436  1.5921  3.7037
  118OSM    H7T12380   1.604   5.105   7.072  1.0785 -1.8524  1.0772
  118OSM    C8S12381   1.627   5.290   7.202  0.0140  0.2316 -0.4807
  118OSM    H8S12382   1.529   5.330   7.167 -0.9334 -0.9060  0.7941
  118OSM    H8T12383   1.698   5.373   7.219  0.7574 -0.2834 -0.9923
  118OSM    C9S12384   1.612   5.229   7.339  0.2451  0.5188 -0.1988
  118OSM    H9S12385   1.714   5.211   7.380  0.1562  1.2966  0.3869
  118OSM    H9T12386   1.558   5.133   7.322 -0.2509  0.9670 -1.2958
  118OSM   C10S12387   1.528   5.321   7.420  0.3087 -0.2880 -0.2759
  118OSM   H10S12388   1.440   5.361   7.366 -0.2407 -1.0464  0.0390
  118OSM   H10T12389   1.589   5.407   7.457 -1.3002 -0.5171  3.4055
  118OSM   C11S12390   1.471   5.243   7.545 -0.8407 -0.4635 -0.0511
  118OSM   H11S12391   1.394   5.169   7.518  1.2438 -3.1197  0.8243
  118OSM   H11T12392   1.425   5.316   7.615  1.1120  2.4490 -1.5857
  118OSM   C12S12393   1.581   5.171   7.624 -0.4042 -0.0632  0.2177
  118OSM   H12S12394   1.670   5.237   7.628 -1.2398  1.2513 -1.4806
  118OSM   H12T12395   1.601   5.076   7.572  0.2136  0.1328  0.0952
  118OSM   C13S12396   1.542   5.130   7.764 -0.2229  0.0658  0.7797
  118OSM   H13S12397   1.447   5.073   7.757  1.1317 -2.0884 -1.7529
  118OSM   H13T12398   1.517   5.224   7.817  2.4212  1.1248  0.3278
  118OSM   C14S12399   1.667   5.078   7.833 -0.4317  0.8547 -0.7848
  118OSM   H14S12400   1.758   5.141   7.824  1.9755 -2.3032 -0.0844
  118OSM   H14T12401   1.690   4.972   7.810 -0.9083  0.2052  1.5136
  118OSM   C15S12402   1.646   5.075   7.982  0.1259  0.3945  0.4845
  118OSM   H15S12403   1.572   4.992   7.992  0.4845 -0.1113 -0.8317
  118OSM   H15T12404   1.609   5.173   8.018  0.3789  2.0223 -3.2130
  118OSM   C16S12405   1.774   5.042   8.067 -1.0675  0.2194  0.6630
  118OSM   H16S12406   1.843   5.124   8.040 -0.6205 -0.9395 -2.0349
  118OSM   H16T12407   1.823   4.951   8.027 -1.1973  0.1015  0.7683
  118OSM   C17S12408   1.755   5.043   8.213 -0.3374  0.6211  0.7014
  118OSM   H17S12409   1.658   4.992   8.230 -0.2457 -0.2626 -1.2122
  118OSM   H17T12410   1.751   5.140   8.267 -3.0988  0.5168  0.7967
  118OSM   C18S12411   1.870   4.965   8.276  0.1164  0.2978 -0.0818
  118OSM   H18S12412   1.973   4.998   8.250  0.3461  1.3825  1.9665
  118OSM   H18T12413   1.850   4.856   8.269 -0.7361  0.4854 -0.8169
  118OSM   H18U12414   1.870   4.978   8.386  2.4954 -2.3631  0.3446
  118OSM    C1F12415   2.152   4.924   6.885 -0.8461 -0.5311  0.5515
  118OSM     OF12416   2.256   4.984   6.869 -0.3382  0.1491  0.1403
  118OSM    C2F12417   2.125   4.817   6.980 -0.2412  0.0146  0.2546
  118OSM    H2F12418   2.114   4.725   6.920  0.9711 -0.4279  0.6829
  118OSM    H2G12419   2.031   4.820   7.040 -0.8105 -1.8052 -0.4754
  118OSM    C3F12420   2.239   4.776   7.071 -0.2127  0.4264  0.4166
  118OSM    H3F12421   2.272   4.853   7.144 -2.0048  1.5502  0.1075
  118OSM    H3G12422   2.335   4.747   7.023  0.2410 -0.6262  1.8621
  118OSM    C4F12423   2.202   4.651   7.162 -0.5284 -0.3299  0.3007
  118OSM    H4F12424   2.196   4.562   7.096 -0.9990 -1.1815  1.4473
  118OSM    H4G12425   2.098   4.670   7.196 -0.4625  0.5666  0.0249
  118OSM    C5F12426   2.314   4.630   7.270  0.4695  0.0994 -0.3640
  118OSM    H5F12427   2.345   4.727   7.316 -0.6277  0.4126 -0.2585
  118OSM    H5G12428   2.403   4.591   7.216 -1.8171 -0.9339 -3.7138
  118OSM    C6F12429   2.281   4.521   7.376  0.0188  0.0487 -0.6216
  118OSM    H6F12430   2.373   4.485   7.427  1.2290  3.2026 -0.3695
  118OSM    H6G12431   2.230   4.436   7.326 -1.2632  0.7916 -0.6431
  118OSM    C7F12432   2.184   4.573   7.479  0.6963  0.3002 -0.7389
  118OSM    H7F12433   2.145   4.491   7.542 -0.3812  1.2119 -0.1739
  118OSM    H7G12434   2.092   4.627   7.446  0.4891  1.0931  1.0289
  118OSM    C8F12435   2.249   4.678   7.578  0.8269 -0.1853 -1.1089
  118OSM    H8F12436   2.293   4.771   7.535  1.6380  0.1921  0.4925
  118OSM    H8G12437   2.323   4.628   7.643  1.5814 -0.1877 -1.9594
  118OSM    C9F12438   2.129   4.730   7.660 -0.0818 -0.1649  0.1551
  118OSM    H9F12439   2.039   4.748   7.598  0.6758 -0.3490 -1.0371
  118OSM   C10F12440   2.106   4.743   7.790 -0.3081  0.5557  0.1313
  118OSM   H10F12441   2.009   4.782   7.824  0.1011  2.1769 -0.4490
  118OSM   C11F12442   2.199   4.706   7.900  0.7369  0.6825 -0.7318
  118OSM   H11F12443   2.268   4.623   7.874  0.7942  0.4246  0.1917
  118OSM   H11G12444   2.141   4.661   7.983  1.2776  1.8773  0.3439
  118OSM   C12F12445   2.274   4.828   7.957 -0.3549 -0.3324  0.2199
  118OSM   H12F12446   2.205   4.911   7.986  0.9612  0.8213  0.1394
  118OSM   H12G12447   2.337   4.855   7.870 -0.9928  1.0550  0.1534
  118OSM   C13F12448   2.361   4.781   8.080  0.5747  0.3383 -0.2977
  118OSM   H13F12449   2.439   4.858   8.101 -0.2962  1.3824 -0.7991
  118OSM   H13G12450   2.408   4.684   8.055  1.2667  1.0720 -1.9908
  118OSM   C14F12451   2.270   4.748   8.193 -0.2961 -0.7492 -0.0438
  118OSM   H14F12452   2.228   4.646   8.181  0.1722 -0.8358 -1.0514
  118OSM   H14G12453   2.193   4.823   8.222  0.2485 -1.3257  3.3781
  118OSM   C15F12454   2.359   4.746   8.318  0.0833  0.6069  0.5159
  118OSM   H15F12455   2.389   4.848   8.349 -0.3001  0.3053  1.9616
  118OSM   H15G12456   2.444   4.677   8.297  1.5325  2.8295 -1.4118
  118OSM   C16F12457   2.284   4.693   8.441 -0.1418 -0.0553 -0.2846
  118OSM   H16F12458   2.355   4.682   8.526 -2.2718  1.7185  1.8619
  118OSM   H16G12459   2.228   4.599   8.420 -1.8581  0.9326 -0.3095
  118OSM   C17F12460   2.182   4.788   8.507  0.0672 -0.2824 -0.2100
  118OSM   H17F12461   2.088   4.801   8.448 -1.1944 -0.5711  1.6607
  118OSM   H17G12462   2.232   4.885   8.529 -2.2764  0.9210  0.1888
  118OSM   C18F12463   2.140   4.718   8.639  0.4177  1.1878 -0.0326
  118OSM   H18F12464   2.068   4.785   8.691  1.1733  1.9602  0.0383
  118OSM   H18G12465   2.225   4.687   8.703 -0.5203 -2.1895 -0.2197
  118OSM   H18H12466   2.094   4.618   8.622  0.1812  1.0163  1.4843
  119OSM      N12467   1.507   3.932   6.158  0.5981  0.1437 -0.0516
  119OSM    C1512468   1.489   3.867   6.298 -0.2264  0.5193  0.1798
  119OSM   H15A12469   1.445   3.769   6.296 -0.6208  0.5959  2.5255
  119OSM   H15B12470   1.425   3.923   6.364  3.0924  1.2146  3.0524
  119OSM   H15C12471   1.581   3.870   6.353  0.4745  0.0426 -0.9254
  119OSM    C1412472   1.593   4.046   6.180  0.1514 -0.3295 -0.1349
  119OSM   H14A12473   1.679   4.011   6.235  0.4025 -1.9939 -1.4811
  119OSM   H14B12474   1.544   4.113   6.249  2.2718 -1.7022  2.9026
  119OSM   H14C12475   1.639   4.098   6.098 -0.2536 -0.6579 -0.5768
  119OSM    C1312476   1.569   3.824   6.070  0.6303  0.3582  0.4609
  119OSM   H13A12477   1.601   3.871   5.978  0.4813  0.9943  0.7327
  119OSM   H13B12478   1.501   3.740   6.058  1.3688 -0.5029  2.0695
  119OSM   H13C12479   1.659   3.793   6.121  0.8353  2.3181  1.3550
  119OSM    C1212480   1.365   3.962   6.115  0.5175 -0.1643 -0.2660
  119OSM   H12A12481   1.311   4.010   6.195 -1.4777 -1.5987 -0.6854
  119OSM   H12B12482   1.314   3.867   6.107 -0.5441  0.2720  1.0477
  119OSM    C1112483   1.338   4.040   5.980  0.1754  0.2812 -0.8610
  119OSM   H11A12484   1.228   4.049   5.969 -0.2121 -0.4880  1.6770
  119OSM   H11B12485   1.378   3.979   5.896  0.6439  0.0604 -0.4807
  119OSM      P12486   1.332   4.303   6.016 -0.0471 -0.0178  0.2300
  119OSM    O1312487   1.418   4.421   5.993 -0.2157  0.3849  0.3563
  119OSM    O1412488   1.199   4.308   5.945  0.4244 -0.2541 -0.1396
  119OSM    O1112489   1.301   4.277   6.167  0.6516 -0.0656  0.1399
  119OSM    O1212490   1.402   4.166   5.980 -0.3694  0.1651  0.0187
  119OSM    C1S12491   1.245   4.381   6.247  0.0659 -0.6559 -0.3797
  119OSM    H1S12492   1.139   4.395   6.219  0.6125 -0.1676 -2.3238
  119OSM    H1T12493   1.289   4.478   6.216  0.1658 -0.1613  1.2313
  119OSM     NF12494   1.201   4.455   6.482  0.1858 -0.0489  0.1419
  119OSM    HNF12495   1.260   4.520   6.529 -0.6028 -0.0842  1.2124
  119OSM    C2S12496   1.266   4.364   6.397  0.4442 -0.5808 -0.0696
  119OSM    H2S12497   1.211   4.271   6.423 -0.9989  0.3368  0.3050
  119OSM    C3S12498   1.419   4.364   6.441 -0.1460 -0.7411  0.4136
  119OSM    H3S12499   1.482   4.447   6.400 -0.4933 -1.0355 -0.7559
  119OSM     O312500   1.490   4.258   6.388 -0.1000  0.3093  0.0029
  119OSM    HO312501   1.419   4.236   6.326 -1.7759  0.2899  1.8386
  119OSM    C4S12502   1.425   4.359   6.598  0.4346 -0.1910  0.2552
  119OSM    H4S12503   1.427   4.450   6.660  0.2481 -0.0380  0.0388
  119OSM    C5S12504   1.400   4.240   6.654 -0.2802  0.1253 -0.5527
  119OSM    H5S12505   1.362   4.155   6.596  0.2164 -0.2308 -0.3611
  119OSM    C6S12506   1.389   4.224   6.807  0.1240  1.1733 -0.4568
  119OSM    H6S12507   1.461   4.143   6.832 -1.5304 -0.8343 -1.7983
  119OSM    H6T12508   1.297   4.164   6.823  0.4061 -0.1879 -3.2225
  119OSM    C7S12509   1.409   4.332   6.920 -0.5214  0.2043 -0.2314
  119OSM    H7S12510   1.336   4.415   6.913  0.1148  0.8110  0.2041
  119OSM    H7T12511   1.505   4.387   6.906 -1.0387  0.9418 -0.9608
  119OSM    C8S12512   1.395   4.276   7.062 -0.6927  0.9341  0.1392
  119OSM    H8S12513   1.491   4.233   7.099 -1.2711 -1.6474 -1.1929
  119OSM    H8T12514   1.328   4.189   7.050 -0.5119  0.9205 -0.7824
  119OSM    C9S12515   1.326   4.373   7.159  0.2261  0.1348 -0.3847
  119OSM    H9S12516   1.280   4.319   7.244 -1.6168  0.5790 -1.0478
  119OSM    H9T12517   1.251   4.436   7.108 -1.1225 -1.2586 -0.2062
  119OSM   C10S12518   1.424   4.475   7.235 -0.3128  0.4129  1.1691
  119OSM   H10S12519   1.372   4.565   7.276 -1.9301  0.2340 -0.3446
  119OSM   H10T12520   1.501   4.509   7.163 -0.5201 -0.8324  0.3224
  119OSM   C11S12521   1.487   4.404   7.356  0.2111  0.3853 -0.2794
  119OSM   H11S12522   1.590   4.444   7.367  1.3482 -1.9620 -1.6371
  119OSM   H11T12523   1.502   4.300   7.322  1.8049  0.9276 -1.3863
  119OSM   C12S12524   1.406   4.419   7.484  0.1166 -0.6941 -0.8582
  119OSM   H12S12525   1.310   4.379   7.447 -0.0517 -0.0001 -1.1864
  119OSM   H12T12526   1.409   4.527   7.509  4.7522 -0.5298 -1.1238
  119OSM   C13S12527   1.460   4.322   7.597  0.3354  0.2661  0.5190
  119OSM   H13S12528   1.562   4.361   7.617  1.1630 -0.3294 -2.1397
  119OSM   H13T12529   1.474   4.217   7.565 -0.7817  1.0042 -2.8325
  119OSM   C14S12530   1.381   4.321   7.725  0.6869  0.3237 -0.7323
  119OSM   H14S12531   1.278   4.284   7.706 -0.3195  0.3268  3.6454
  119OSM   H14T12532   1.360   4.428   7.748 -0.3143 -0.2267  1.1416
  119OSM   C15S12533   1.444   4.248   7.847  0.5564 -0.0230 -0.2670
  119OSM   H15S12534   1.538   4.301   7.872 -0.7756  2.4489 -0.1269
  119OSM   H15T12535   1.462   4.141   7.824  1.3600 -0.0773  0.5335
  119OSM   C16S12536   1.343   4.254   7.959  0.3092  0.3913  0.0635
  119OSM   H16S12537   1.246   4.208   7.928  0.6213 -0.4958  0.3856
  119OSM   H16T12538   1.322   4.362   7.979 -0.3703  0.7693 -2.3626
  119OSM   C17S12539   1.368   4.196   8.095  0.3483 -0.3528  0.1826
  119OSM   H17S12540   1.447   4.252   8.148 -0.4198  0.3991  0.5611
  119OSM   H17T12541   1.403   4.092   8.078 -1.8785 -1.0606 -0.5033
  119OSM   C18S12542   1.238   4.192   8.169 -0.1439 -0.0290  0.1017
  119OSM   H18S12543   1.175   4.282   8.148  0.3967 -0.1663 -2.4173
  119OSM   H18T12544   1.255   4.164   8.275 -0.7538  2.6119  0.9776
  119OSM   H18U12545   1.183   4.106   8.126 -0.3960 -0.0476  0.4529
  119OSM    C1F12546   1.067   4.446   6.499  0.3189 -0.5340  0.1553
  119OSM     OF12547   0.996   4.370   6.439  0.3643  0.1876  0.1825
  119OSM    C2F12548   1.016   4.521   6.618 -0.5148 -0.3011  0.9286
  119OSM    H2F12549   0.908   4.529   6.597  0.2041  0.3572 -3.5538
  119OSM    H2G12550   1.052   4.627   6.618 -1.6955  0.1186 -0.1484
  119OSM    C3F12551   1.039   4.442   6.742 -0.5734 -0.4090 -0.1385
  119OSM    H3F12552   1.026   4.505   6.832  1.6492 -1.6064  1.0986
  119OSM    H3G12553   1.147   4.417   6.741 -0.1322  1.3374  0.5983
  119OSM    C4F12554   0.960   4.311   6.757  0.2630 -0.2970 -0.1371
  119OSM    H4F12555   0.983   4.241   6.674 -0.7887 -0.7061 -0.0904
  119OSM    H4G12556   0.853   4.341   6.750  0.5827  0.4882 -2.8144
  119OSM    C5F12557   0.991   4.242   6.889 -0.0091 -0.4032  0.0005
  119OSM    H5F12558   1.100   4.256   6.901  0.5168 -2.8458 -1.2868
  119OSM    H5G12559   0.967   4.134   6.873 -1.6619 -0.1701  0.6831
  119OSM    C6F12560   0.907   4.297   7.011 -0.4784  0.3067 -0.0589
  119OSM    H6F12561   0.802   4.285   6.977 -0.6619 -3.0768  1.3003
  119OSM    H6G12562   0.938   4.402   7.027 -0.8877  0.3974  0.1577
  119OSM    C7F12563   0.947   4.208   7.131 -0.5433 -0.5933  0.5979
  119OSM    H7F12564   1.049   4.244   7.155 -0.5841  0.7363 -1.0531
  119OSM    H7G12565   0.971   4.106   7.093 -0.2024 -0.2277 -0.1733
  119OSM    C8F12566   0.843   4.205   7.242  0.3178 -0.5138 -0.6034
  119OSM    H8F12567   0.892   4.144   7.322 -2.3168 -1.9903 -0.0090
  119OSM    H8G12568   0.754   4.142   7.223 -0.0110 -1.0557  2.3375
  119OSM    C9F12569   0.807   4.337   7.291 -0.1726 -0.7042 -0.3455
  119OSM    H9F12570   0.755   4.411   7.228  1.6208  0.9748  0.0507
  119OSM   C10F12571   0.840   4.386   7.411  0.2927 -0.0095  0.1627
  119OSM   H10F12572   0.818   4.492   7.434  1.3275 -0.0091  1.2120
  119OSM   C11F12573   0.916   4.325   7.528  0.4380  0.4143 -0.8900
  119OSM   H11F12574   1.001   4.389   7.563  0.4527 -0.9249  1.8355
  119OSM   H11G12575   0.954   4.221   7.515 -0.9969 -0.4859  1.3619
  119OSM   C12F12576   0.828   4.332   7.652 -0.4088 -0.4366 -0.2417
  119OSM   H12F12577   0.744   4.262   7.633  0.3852 -1.5453  0.1988
  119OSM   H12G12578   0.793   4.434   7.677 -0.0475 -1.3672  5.4308
  119OSM   C13F12579   0.907   4.289   7.774  0.1869 -0.2130 -0.3738
  119OSM   H13F12580   0.990   4.360   7.792  0.0765 -0.2331  0.2181
  119OSM   H13G12581   0.952   4.188   7.767 -2.2881 -1.3711 -0.5261
  119OSM   C14F12582   0.814   4.286   7.895  0.6899 -0.2508  0.3701
  119OSM   H14F12583   0.730   4.214   7.885  0.5294 -0.0910  0.5676
  119OSM   H14G12584   0.778   4.391   7.904 -1.0119 -0.6306 -1.3710
  119OSM   C15F12585   0.884   4.235   8.027 -0.1874 -0.3789 -0.5165
  119OSM   H15F12586   0.977   4.294   8.040  0.1674 -1.0961  0.2440
  119OSM   H15G12587   0.911   4.128   8.023  4.1736  0.5092 -0.0093
  119OSM   C16F12588   0.795   4.252   8.148 -0.1717 -0.3241  0.4957
  119OSM   H16F12589   0.704   4.189   8.146  0.0768 -0.6871  0.4994
  119OSM   H16G12590   0.770   4.359   8.161 -3.9795 -1.2291  1.8728
  119OSM   C17F12591   0.871   4.195   8.267  0.1251  0.6500 -0.5498
  119OSM   H17F12592   0.951   4.265   8.297  1.8292 -1.1127 -0.8120
  119OSM   H17G12593   0.924   4.099   8.253  2.4831  1.7522  0.3151
  119OSM   C18F12594   0.792   4.170   8.392  0.5920  0.4082  0.6543
  119OSM   H18F12595   0.726   4.086   8.362 -1.1105  2.3192 -1.2599
  119OSM   H18G12596   0.731   4.257   8.425  0.1475 -0.1659  1.3799
  119OSM   H18H12597   0.854   4.141   8.480  0.7268 -2.1403 -0.2127
  120OSM      N12598   5.748   3.384   6.216 -0.5333  0.5314  0.1379
  120OSM    C1512599   5.728   3.378   6.363 -0.0709 -0.6451 -0.1494
  120OSM   H15A12600   5.822   3.376   6.417  0.3616  2.7354 -0.5137
  120OSM   H15B12601   5.671   3.289   6.382  1.2106 -1.0485  2.3589
  120OSM   H15C12602   5.681   3.469   6.400 -0.0199 -0.8194  0.3633
  120OSM    C1412603   5.626   3.446   6.152 -0.1414 -0.0630  0.0561
  120OSM   H14A12604   5.601   3.541   6.197  1.8883 -0.0911  1.3786
  120OSM   H14B12605   5.546   3.375   6.156  1.0796 -1.4364  1.2666
  120OSM   H14C12606   5.652   3.464   6.048 -0.3569 -0.7388 -0.1170
  120OSM    C1312607   5.863   3.473   6.188  0.7232  0.0241 -0.1738
  120OSM   H13A12608   5.882   3.495   6.084  1.2356 -3.3302 -0.9257
  120OSM   H13B12609   5.952   3.422   6.221  0.9556 -1.5771 -2.9333
  120OSM   H13C12610   5.848   3.559   6.251 -2.3960 -1.5930  1.5256
  120OSM    C1212611   5.766   3.248   6.151  0.4716 -0.1925 -0.0235
  120OSM   H12A12612   5.858   3.200   6.181  0.3900 -1.4452 -1.6262
  120OSM   H12B12613   5.788   3.274   6.049 -2.2675  1.5036 -0.2985
  120OSM    C1112614   5.649   3.147   6.169  0.2466 -0.2636  0.4844
  120OSM   H11A12615   5.655   3.074   6.085  0.1585  1.4359 -1.0709
  120OSM   H11B12616   5.549   3.194   6.161 -0.2754 -1.6177 -2.1949
  120OSM      P12617   5.743   2.959   6.319  0.2438  0.8051 -0.4325
  120OSM    O1312618   5.656   2.841   6.289 -0.7493  0.6095 -0.6454
  120OSM    O1412619   5.873   2.975   6.252 -0.3311  0.3979 -0.6257
  120OSM    O1112620   5.766   2.955   6.479  0.0932  0.7592 -0.0344
  120OSM    O1212621   5.673   3.089   6.300 -0.0910  0.0931  0.1129
  120OSM    C1S12622   5.856   3.044   6.541 -0.4690 -0.6941 -0.3661
  120OSM    H1S12623   5.828   3.152   6.539 -1.3894 -0.9256 -0.4648
  120OSM    H1T12624   5.952   3.039   6.486 -0.3956 -3.0271 -0.1159
  120OSM     NF12625   6.007   3.099   6.744  0.0126  0.2308 -0.4990
  120OSM    HNF12626   6.098   3.060   6.751  0.3098  1.1466  1.3098
  120OSM    C2S12627   5.890   3.021   6.697 -0.0777 -0.4052 -0.4791
  120OSM    H2S12628   5.800   3.053   6.753 -0.2058 -0.7487 -0.4837
  120OSM    C3S12629   5.910   2.873   6.722 -0.0287  0.1614 -0.0633
  120OSM    H3S12630   5.987   2.833   6.653 -1.0740 -1.2378 -0.4653
  120OSM     O312631   5.799   2.788   6.691  0.1978  0.8122 -0.1284
  120OSM    HO312632   5.763   2.824   6.610  1.5380 -0.5192 -1.3720
  120OSM    C4S12633   5.952   2.834   6.860  0.0852  0.4813 -0.2073
  120OSM    H4S12634   6.052   2.788   6.858 -0.1158 -0.1660  1.9078
  120OSM    C5S12635   5.877   2.842   6.971  0.6798  0.1060 -0.6695
  120OSM    H5S12636   5.774   2.881   6.964  0.9977  1.7023  1.8284
  120OSM    C6S12637   5.916   2.805   7.108 -1.0787 -0.3266 -0.4611
  120OSM    H6S12638   6.002   2.735   7.110 -0.6966  0.1388  0.9888
  120OSM    H6T12639   5.830   2.747   7.149  0.1584 -0.5574  2.0203
  120OSM    C7S12640   5.958   2.912   7.207  0.9862 -0.0081 -0.0076
  120OSM    H7S12641   5.873   2.968   7.251 -0.7069 -0.9230 -1.9692
  120OSM    H7T12642   6.016   2.988   7.150  1.2440  0.2720  0.6195
  120OSM    C8S12643   6.054   2.872   7.320 -0.2959  0.0479 -0.1593
  120OSM    H8S12644   6.095   2.952   7.384  0.7925 -1.4933  1.1378
  120OSM    H8T12645   6.147   2.820   7.288 -1.1835 -1.6724 -0.0948
  120OSM    C9S12646   5.979   2.782   7.426 -0.3834 -0.1263  0.2363
  120OSM    H9S12647   5.968   2.686   7.371  1.5927  0.0999 -0.6472
  120OSM    H9T12648   5.881   2.828   7.451 -0.8500 -0.8736 -0.1588
  120OSM   C10S12649   6.065   2.754   7.551  0.4577  0.1652  0.3148
  120OSM   H10S12650   6.086   2.851   7.601  0.0661  0.3265  0.1719
  120OSM   H10T12651   6.163   2.722   7.511  0.9675  0.8763  0.9633
  120OSM   C11S12652   5.999   2.648   7.640 -0.5038 -0.3596  0.9812
  120OSM   H11S12653   6.004   2.550   7.589 -1.9488 -1.1342  2.2367
  120OSM   H11T12654   5.892   2.676   7.652 -0.9123 -2.5026  3.0358
  120OSM   C12S12655   6.065   2.648   7.781 -0.3817 -0.3776 -0.1717
  120OSM   H12S12656   6.172   2.677   7.779 -0.3518 -0.5043 -0.5527
  120OSM   H12T12657   6.066   2.548   7.829 -0.6213 -0.6342 -0.6997
  120OSM   C13S12658   5.984   2.729   7.883 -0.0999 -0.4311  0.2899
  120OSM   H13S12659   5.900   2.662   7.914 -1.0533  0.7048  0.2584
  120OSM   H13T12660   5.946   2.818   7.829  1.4583  0.2933  0.3440
  120OSM   C14S12661   6.069   2.770   8.012 -0.2730  0.7168  0.4607
  120OSM   H14S12662   6.025   2.857   8.064  0.7209  0.1150  2.4124
  120OSM   H14T12663   6.171   2.801   7.981 -0.1348 -0.1970 -0.0413
  120OSM   C15S12664   6.078   2.652   8.110  0.1831  0.3282 -0.2794
  120OSM   H15S12665   6.136   2.563   8.080 -0.6465 -0.2404 -0.2373
  120OSM   H15T12666   5.975   2.611   8.121  0.6642 -0.6418  0.7994
  120OSM   C16S12667   6.132   2.694   8.245 -0.5406 -0.0688  0.1058
  120OSM   H16S12668   6.054   2.765   8.280 -1.2410 -1.0630  0.5795
  120OSM   H16T12669   6.230   2.742   8.226 -0.4741 -0.7688 -1.4818
  120OSM   C17S12670   6.153   2.581   8.346 -0.0653  0.1343 -0.3084
  120OSM   H17S12671   6.230   2.507   8.313  0.0811 -0.7570  1.8317
  120OSM   H17T12672   6.060   2.520   8.356  0.5995 -1.1139 -1.3936
  120OSM   C18S12673   6.208   2.641   8.477 -0.0164 -0.1614  0.0104
  120OSM   H18S12674   6.247   2.571   8.554 -0.2942 -0.4380 -0.0968
  120OSM   H18T12675   6.129   2.691   8.537  0.9317  1.1713  0.1816
  120OSM   H18U12676   6.278   2.724   8.455  0.4339  0.6125  3.8032
  120OSM    C1F12677   6.000   3.225   6.749 -0.0279  0.7089  0.4541
  120OSM     OF12678   5.892   3.279   6.735  0.2298 -0.2090  0.5740
  120OSM    C2F12679   6.124   3.301   6.763  0.7134 -0.4157 -0.5835
  120OSM    H2F12680   6.084   3.404   6.773  0.9416 -0.5355  2.3479
  120OSM    H2G12681   6.178   3.281   6.668  1.4222 -0.4628 -0.1766
  120OSM    C3F12682   6.203   3.277   6.887 -0.5697  0.4089 -0.4749
  120OSM    H3F12683   6.277   3.360   6.894 -0.2165  0.4198 -3.2510
  120OSM    H3G12684   6.257   3.180   6.894 -1.3814 -0.0617 -0.6285
  120OSM    C4F12685   6.113   3.289   7.016 -0.2558  0.1420 -1.1776
  120OSM    H4F12686   6.045   3.201   7.015 -0.3229  0.0092  2.7902
  120OSM    H4G12687   6.050   3.380   6.999 -1.3990 -0.1265  1.3087
  120OSM    C5F12688   6.188   3.309   7.154 -0.0431 -0.4122  0.0860
  120OSM    H5F12689   6.246   3.403   7.137  1.4305 -0.9217  1.9917
  120OSM    H5G12690   6.258   3.223   7.157 -0.7866 -0.9847  1.5592
  120OSM    C6F12691   6.093   3.320   7.268  0.0072  0.1772 -0.1771
  120OSM    H6F12692   6.056   3.217   7.288  3.3231 -0.8805  1.2152
  120OSM    H6G12693   6.014   3.386   7.226  0.7706  0.4099 -1.2964
  120OSM    C7F12694   6.150   3.380   7.403  0.2291  0.1071  0.0850
  120OSM    H7F12695   6.159   3.486   7.372 -1.5086 -0.2687 -1.9865
  120OSM    H7G12696   6.249   3.338   7.427  0.8295  1.3055 -0.2414
  120OSM    C8F12697   6.052   3.371   7.522 -0.3590  0.5305  0.5045
  120OSM    H8F12698   5.951   3.396   7.482 -0.3670  0.9743  0.7957
  120OSM    H8G12699   6.067   3.468   7.573  0.6581 -0.9118  3.1329
  120OSM    C9F12700   6.051   3.240   7.606  0.4099 -0.0149 -0.1394
  120OSM    H9F12701   6.054   3.148   7.546  3.5480  0.3092 -0.6938
  120OSM   C10F12702   6.077   3.225   7.740 -0.1861 -0.1531  0.8016
  120OSM   H10F12703   6.059   3.129   7.792 -0.3989 -0.7403 -0.3240
  120OSM   C11F12704   6.106   3.333   7.833 -0.0801  0.3769  0.0131
  120OSM   H11F12705   6.127   3.435   7.794 -1.7537 -0.1508 -2.4706
  120OSM   H11G12706   6.197   3.299   7.886  0.9722  0.1217 -1.8935
  120OSM   C12F12707   5.986   3.358   7.932  0.1143 -0.3413  0.1754
  120OSM   H12F12708   5.932   3.268   7.968 -1.6753  0.3199 -0.7234
  120OSM   H12G12709   5.913   3.427   7.883 -1.4561 -2.7653 -1.0872
  120OSM   C13F12710   6.028   3.434   8.064  0.9146  0.0143 -0.0728
  120OSM   H13F12711   6.094   3.515   8.025  1.5022 -1.0266 -1.3189
  120OSM   H13G12712   6.089   3.370   8.132 -2.4676 -1.8323  1.4851
  120OSM   C14F12713   5.905   3.484   8.143 -0.3283 -1.2165  0.4509
  120OSM   H14F12714   5.839   3.405   8.185  0.8761 -1.8615  1.1988
  120OSM   H14G12715   5.841   3.547   8.078  3.4577  0.8151 -1.6857
  120OSM   C15F12716   5.970   3.566   8.250  0.2921  0.6936  0.9920
  120OSM   H15F12717   6.029   3.655   8.217 -0.1963  0.0354 -1.9567
  120OSM   H15G12718   6.031   3.490   8.303 -0.5777 -0.1131  0.8717
  120OSM   C16F12719   5.859   3.611   8.339  0.2745  0.0696 -0.4379
  120OSM   H16F12720   5.813   3.520   8.383 -2.6491  0.5053 -2.3250
  120OSM   H16G12721   5.783   3.667   8.281 -0.2709  1.4085  1.4623
  120OSM   C17F12722   5.911   3.690   8.458 -0.2982 -0.1004  0.3112
  120OSM   H17F12723   5.825   3.700   8.528 -1.2828  0.4650 -0.9398
  120OSM   H17G12724   5.943   3.788   8.418  1.6767 -0.9845 -0.3832
  120OSM   C18F12725   6.027   3.620   8.541 -0.2039  0.5702  0.2398
  120OSM   H18F12726   6.056   3.695   8.618 -2.0214 -1.3516  2.9720
  120OSM   H18G12727   6.113   3.588   8.478 -0.8640 -1.2858  0.2129
  120OSM   H18H12728   5.990   3.526   8.588 -1.7168  1.6884  1.4179
  121OSM      N12729   6.173   5.937   5.971  0.1759  0.4628  0.8432
  121OSM    C1512730   6.109   6.074   5.984 -0.6233  0.1428  0.0550
  121OSM   H15A12731   6.075   6.096   5.884 -0.1394 -1.6142 -0.5251
  121OSM   H15B12732   6.186   6.143   6.017 -0.3311 -0.5265  0.8000
  121OSM   H15C12733   6.024   6.078   6.050 -0.6779  0.7363 -0.0449
  121OSM    C1412734   6.069   5.839   5.924 -0.4860 -0.0122 -0.4585
  121OSM   H14A12735   6.090   5.823   5.819  0.4157 -1.8195 -0.0442
  121OSM   H14B12736   5.968   5.874   5.943  0.3707  1.9713  0.7308
  121OSM   H14C12737   6.077   5.742   5.970 -2.8118 -0.5023 -0.9484
  121OSM    C1312738   6.290   5.939   5.877  0.3389 -0.4700  0.5972
  121OSM   H13A12739   6.351   6.026   5.896 -0.1412 -0.5034  2.4588
  121OSM   H13B12740   6.246   5.955   5.779 -2.0914  0.3604  1.7538
  121OSM   H13C12741   6.346   5.847   5.866 -0.1503 -0.5788 -1.4689
  121OSM    C1212742   6.227   5.901   6.107  0.1192 -0.0335 -0.2920
  121OSM   H12A12743   6.296   5.975   6.144 -1.2281  1.6595 -1.0289
  121OSM   H12B12744   6.285   5.811   6.097 -0.3375 -0.5954  1.7116
  121OSM    C1112745   6.134   5.891   6.232  0.4966  0.1864  0.2012
  121OSM   H11A12746   6.072   5.983   6.235 -1.7605 -1.2771  1.5437
  121OSM   H11B12747   6.193   5.883   6.326 -1.3210 -1.8725  1.2571
  121OSM      P12748   5.899   5.761   6.223 -0.1915  0.2361 -0.0639
  121OSM    O1312749   5.842   5.877   6.294  0.0638 -0.0491  0.5405
  121OSM    O1412750   5.845   5.737   6.087 -0.4656  0.2882  0.9051
  121OSM    O1112751   5.879   5.633   6.317  0.5865  0.8285  0.0318
  121OSM    O1212752   6.056   5.770   6.216  0.2922 -0.6806  0.4746
  121OSM    C1S12753   5.953   5.613   6.434 -0.2211 -0.1754 -0.4081
  121OSM    H1S12754   5.992   5.709   6.475 -1.7896  0.6841 -0.8454
  121OSM    H1T12755   6.044   5.553   6.413  1.0498  2.3677 -2.8904
  121OSM     NF12756   5.962   5.523   6.653  0.6131 -0.1740  0.6472
  121OSM    HNF12757   6.018   5.442   6.644  0.4409 -0.1391 -1.1324
  121OSM    C2S12758   5.874   5.548   6.544  0.0845 -0.0807 -0.0931
  121OSM    H2S12759   5.793   5.622   6.559  0.0387  0.3092 -1.9315
  121OSM    C3S12760   5.810   5.419   6.490  0.8872  0.2394 -1.3812
  121OSM    H3S12761   5.890   5.346   6.464  0.1374 -1.6897  1.2585
  121OSM     O312762   5.736   5.433   6.374  0.0998  0.5215  0.4769
  121OSM    HO312763   5.742   5.525   6.347 -1.1066  1.0867  1.9350
  121OSM    C4S12764   5.736   5.354   6.599 -0.1222  0.4797  0.4729
  121OSM    H4S12765   5.803   5.288   6.656 -0.8365 -0.5600  0.1516
  121OSM    C5S12766   5.612   5.384   6.641 -1.0733  0.9469  0.4323
  121OSM    H5S12767   5.553   5.456   6.582 -1.9809  0.5262  0.8039
  121OSM    C6S12768   5.546   5.323   6.760  0.4138 -0.1293 -0.3208
  121OSM    H6S12769   5.617   5.271   6.828 -0.2254 -0.2302  0.2796
  121OSM    H6T12770   5.452   5.274   6.729  0.2165 -0.2565  0.4554
  121OSM    C7S12771   5.494   5.441   6.852  0.1541 -0.4710  0.6967
  121OSM    H7S12772   5.459   5.390   6.944  1.1617  0.4979  1.6558
  121OSM    H7T12773   5.405   5.492   6.809  0.4378 -1.5364 -1.2105
  121OSM    C8S12774   5.607   5.539   6.890 -0.7264 -0.4435 -0.0777
  121OSM    H8S12775   5.658   5.575   6.798  1.0828 -1.5854  0.4322
  121OSM    H8T12776   5.689   5.470   6.920  1.7232  0.3802 -4.0707
  121OSM    C9S12777   5.575   5.651   6.985 -0.2001  0.0082  0.2357
  121OSM    H9S12778   5.494   5.708   6.934  1.2664 -1.4001 -4.1915
  121OSM    H9T12779   5.665   5.715   6.978  0.8869 -1.2745  1.7814
  121OSM   C10S12780   5.524   5.605   7.129  0.2076 -0.0808 -0.1983
  121OSM   H10S12781   5.420   5.566   7.122  0.1573 -0.0454  0.2937
  121OSM   H10T12782   5.523   5.698   7.190 -0.7650  0.1278 -0.5131
  121OSM   C11S12783   5.621   5.504   7.191  0.0110 -0.1394  0.3517
  121OSM   H11S12784   5.727   5.536   7.190  0.6404 -1.8625  2.7141
  121OSM   H11T12785   5.613   5.407   7.137 -0.0665 -0.6926  1.3411
  121OSM   C12S12786   5.587   5.467   7.337  0.7462  0.5969 -0.0555
  121OSM   H12S12787   5.488   5.422   7.363  1.7611 -1.9018 -0.2223
  121OSM   H12T12788   5.599   5.558   7.399 -0.0601 -0.3230  1.5242
  121OSM   C13S12789   5.691   5.370   7.395  0.2538  0.5484  0.5275
  121OSM   H13S12790   5.777   5.420   7.445  1.4880 -1.7811  0.8789
  121OSM   H13T12791   5.737   5.326   7.304 -0.0584  1.6621 -0.1857
  121OSM   C14S12792   5.639   5.280   7.514 -0.1678 -0.2531  1.2738
  121OSM   H14S12793   5.713   5.200   7.533 -0.3919 -0.1815  2.5738
  121OSM   H14T12794   5.547   5.228   7.478  1.8856 -2.0039 -1.8874
  121OSM   C15S12795   5.622   5.358   7.641  0.1625 -0.9873  0.7569
  121OSM   H15S12796   5.536   5.429   7.643  0.2866 -0.8546  2.2138
  121OSM   H15T12797   5.709   5.427   7.640 -0.6193  0.0283 -0.3194
  121OSM   C16S12798   5.625   5.277   7.768  0.2344 -0.2782 -1.3400
  121OSM   H16S12799   5.722   5.227   7.789 -0.6969 -1.8183 -0.5784
  121OSM   H16T12800   5.553   5.194   7.754 -0.9375  0.6446 -0.8870
  121OSM   C17S12801   5.575   5.345   7.901 -0.4540 -0.6823  0.3052
  121OSM   H17S12802   5.465   5.354   7.911 -0.4951  1.3231 -1.3948
  121OSM   H17T12803   5.617   5.447   7.903  0.4663 -0.9703 -1.6078
  121OSM   C18S12804   5.622   5.285   8.037 -0.5517  0.1065  1.1226
  121OSM   H18S12805   5.591   5.179   8.053 -0.0284 -0.1926  0.2761
  121OSM   H18T12806   5.564   5.336   8.116 -0.2002 -0.0116  1.4559
  121OSM   H18U12807   5.728   5.304   8.063 -0.6238  1.3931  0.5756
  121OSM    C1F12808   5.987   5.621   6.740 -0.7482  0.4270  0.8682
  121OSM     OF12809   5.941   5.737   6.736  0.4078  1.1178  0.3636
  121OSM    C2F12810   6.086   5.590   6.844  0.0078  0.5998  0.0077
  121OSM    H2F12811   6.169   5.664   6.846 -1.2046  1.9961  0.2803
  121OSM    H2G12812   6.126   5.487   6.833  0.8433  0.2198  4.4855
  121OSM    C3F12813   6.030   5.574   6.989 -0.0364  0.0412  1.0108
  121OSM    H3F12814   5.967   5.483   6.979  2.8176 -1.8877 -1.0104
  121OSM    H3G12815   5.970   5.664   7.015  1.0103  0.5113  1.8415
  121OSM    C4F12816   6.136   5.537   7.096 -0.5147 -0.4645  0.2056
  121OSM    H4F12817   6.185   5.631   7.130 -1.5847  0.5462 -0.9342
  121OSM    H4G12818   6.218   5.469   7.064  0.6943  0.7582  0.6116
  121OSM    C5F12819   6.066   5.470   7.218  0.1461 -0.7676  0.1596
  121OSM    H5F12820   6.035   5.370   7.180 -0.9938 -0.6000  0.6162
  121OSM    H5G12821   5.979   5.531   7.248  1.2490  2.8284 -3.1284
  121OSM    C6F12822   6.144   5.459   7.346 -1.1830  0.6438  0.8891
  121OSM    H6F12823   6.190   5.547   7.398 -0.3438 -0.8547  2.7983
  121OSM    H6G12824   6.230   5.390   7.331 -0.4491  1.5225  0.8851
  121OSM    C7F12825   6.057   5.392   7.451  0.1002  0.1957 -1.0870
  121OSM    H7F12826   6.005   5.308   7.398 -0.9203  0.3856 -0.4178
  121OSM    H7G12827   5.971   5.455   7.483  0.3555 -1.6447  4.0701
  121OSM    C8F12828   6.125   5.339   7.582  0.7705 -0.4990 -0.2440
  121OSM    H8F12829   6.197   5.413   7.622  0.8990 -0.7473 -0.0152
  121OSM    H8G12830   6.180   5.245   7.563  1.5036 -0.1338  0.0070
  121OSM    C9F12831   6.015   5.313   7.683 -0.4779 -0.9057  1.1383
  121OSM    H9F12832   5.916   5.279   7.651  0.3552 -2.7527  0.3803
  121OSM   C10F12833   6.033   5.325   7.817  0.5422 -0.1089  0.4635
  121OSM   H10F12834   5.949   5.302   7.885  1.4452  0.6635  1.9062
  121OSM   C11F12835   6.148   5.373   7.903 -0.1025  0.3679  0.3561
  121OSM   H11F12836   6.225   5.416   7.835  0.8672 -1.5120  0.2046
  121OSM   H11G12837   6.204   5.287   7.945  1.1438  0.6795 -0.5973
  121OSM   C12F12838   6.126   5.482   8.010  0.2086 -0.0561  0.4563
  121OSM   H12F12839   6.034   5.468   8.071 -0.7379  0.2843 -0.8489
  121OSM   H12G12840   6.098   5.569   7.947 -1.3404 -1.8346 -1.4494
  121OSM   C13F12841   6.244   5.506   8.103  0.5965 -0.3467  0.5041
  121OSM   H13F12842   6.341   5.481   8.055 -1.0207 -2.0294 -2.1503
  121OSM   H13G12843   6.230   5.437   8.189  0.3954  0.5687  1.2256
  121OSM   C14F12844   6.252   5.645   8.161 -0.3229 -0.8422 -1.5635
  121OSM   H14F12845   6.152   5.693   8.176  1.3836  2.2543  1.4397
  121OSM   H14G12846   6.303   5.705   8.083 -0.2149 -0.5502 -1.2697
  121OSM   C15F12847   6.348   5.645   8.281  0.4434 -0.0340  0.5463
  121OSM   H15F12848   6.339   5.750   8.316  0.7598  0.4350 -0.7229
  121OSM   H15G12849   6.453   5.634   8.249  0.2830  0.9688 -0.3714
  121OSM   C16F12850   6.315   5.559   8.408 -0.6892 -0.1259  0.4480
  121OSM   H16F12851   6.396   5.583   8.480  1.5615 -2.7771 -1.0275
  121OSM   H16G12852   6.336   5.453   8.382  0.8886  0.6793 -1.9207
  121OSM   C17F12853   6.168   5.579   8.458 -0.9980  0.0523 -0.3163
  121OSM   H17F12854   6.095   5.532   8.388 -0.3700 -1.0814 -0.2370
  121OSM   H17G12855   6.155   5.689   8.457  1.8748  0.4680 -1.4071
  121OSM   C18F12856   6.130   5.526   8.601  0.8515  0.1789  0.2024
  121OSM   H18F12857   6.178   5.587   8.679  2.7959 -0.5589 -0.3631
  121OSM   H18G12858   6.158   5.419   8.613  1.0020  0.2021  0.0646
  121OSM   H18H12859   6.021   5.537   8.623  0.3863 -0.6737 -1.4394
  122OSM      N12860   5.568   5.994   6.058 -0.3070  0.6242 -0.4442
  122OSM    C1512861   5.511   5.859   6.082  0.3534  0.4770 -0.0435
  122OSM   H15A12862   5.478   5.807   5.993  0.2582 -1.4846  1.0698
  122OSM   H15B12863   5.421   5.866   6.142  0.2039 -0.6125 -0.1113
  122OSM   H15C12864   5.589   5.800   6.128  0.0368  0.7862  0.9140
  122OSM    C1412865   5.678   5.978   5.949  0.0542  0.7638 -0.6325
  122OSM   H14A12866   5.719   6.077   5.936  1.1162  0.6418  1.4483
  122OSM   H14B12867   5.645   5.939   5.854  4.8539  2.6407 -3.4512
  122OSM   H14C12868   5.754   5.908   5.979  0.6121  0.7561 -2.0013
  122OSM    C1312869   5.453   6.081   6.010  0.9082 -0.7741 -0.8265
  122OSM   H13A12870   5.402   6.069   5.916 -1.9966  0.4170  0.4693
  122OSM   H13B12871   5.486   6.184   6.009 -1.1203 -0.0719 -0.5216
  122OSM   H13C12872   5.366   6.069   6.073 -0.1608 -4.1374 -2.6825
  122OSM    C1212873   5.626   6.057   6.182 -0.5706  0.1003 -0.2918
  122OSM   H12A12874   5.681   6.145   6.150 -1.6568  1.6959  1.9756
  122OSM   H12B12875   5.699   5.992   6.226 -0.4747 -0.5489 -1.3783
  122OSM    C1112876   5.526   6.120   6.287 -0.2240  0.1520 -0.8745
  122OSM   H11A12877   5.457   6.193   6.240 -0.2014  1.5310  1.1322
  122OSM   H11B12878   5.585   6.183   6.357 -2.9169  1.1335  0.6682
  122OSM      P12879   5.300   6.000   6.354 -0.0025 -0.7791  0.1945
  122OSM    O1312880   5.253   6.075   6.236 -0.3133  0.4559  0.3462
  122OSM    O1412881   5.272   5.857   6.353 -0.1827  0.4346  0.2056
  122OSM    O1112882   5.237   6.076   6.479  0.1857 -0.6538  0.0037
  122OSM    O1212883   5.460   6.020   6.372  0.0259 -0.1205 -0.2817
  122OSM    C1S12884   5.185   6.004   6.586  0.3494  0.3960  0.2935
  122OSM    H1S12885   5.265   5.945   6.637 -1.2654 -2.0391  0.1856
  122OSM    H1T12886   5.117   5.927   6.544  0.6168  1.0956 -1.5077
  122OSM     NF12887   5.109   6.033   6.822 -0.2296 -0.0759 -0.1942
  122OSM    HNF12888   5.034   5.967   6.826  0.8688 -1.3231  1.1408
  122OSM    C2S12889   5.119   6.099   6.689 -0.2918  0.7244 -0.4136
  122OSM    H2S12890   5.179   6.193   6.686 -1.7743  1.6847 -2.1514
  122OSM    C3S12891   4.984   6.156   6.621  0.3751 -0.0089 -0.3215
  122OSM    H3S12892   4.917   6.067   6.615  0.6445 -0.3024  0.7731
  122OSM     O312893   4.992   6.198   6.489  0.1722  0.3965  0.2773
  122OSM    HO312894   5.080   6.167   6.468  0.6511  0.3086  2.2288
  122OSM    C4S12895   4.927   6.254   6.718  0.4331  0.2174  0.0067
  122OSM    H4S12896   4.895   6.206   6.812  0.2290  0.6068  0.1394
  122OSM    C5S12897   4.914   6.387   6.699  0.3178 -0.1800  0.8325
  122OSM    H5S12898   4.953   6.433   6.607 -1.0603  0.3512  0.4837
  122OSM    C6S12899   4.864   6.486   6.803 -0.4547 -0.1537  0.1879
  122OSM    H6S12900   4.775   6.542   6.766  0.6106  1.2852 -0.2875
  122OSM    H6T12901   4.938   6.569   6.812 -0.2767  0.2654 -3.7098
  122OSM    C7S12902   4.837   6.439   6.948  0.7115  0.4385 -0.5246
  122OSM    H7S12903   4.780   6.343   6.939  1.7132 -0.6158  2.7695
  122OSM    H7T12904   4.762   6.512   6.984  1.1705  0.8190 -0.3315
  122OSM    C8S12905   4.954   6.433   7.039 -0.5614 -0.2006  0.6009
  122OSM    H8S12906   5.007   6.531   7.045  0.0541 -0.5584  1.2106
  122OSM    H8T12907   5.028   6.359   7.001 -0.4649 -0.2004  0.7863
  122OSM    C9S12908   4.917   6.375   7.174  0.4969  0.0890  0.0030
  122OSM    H9S12909   4.879   6.271   7.163  1.1764 -0.0409 -1.4037
  122OSM    H9T12910   4.832   6.428   7.223  0.2350 -0.3468  0.0219
  122OSM   C10S12911   5.032   6.360   7.281 -0.4749  0.2225  0.1098
  122OSM   H10S12912   5.098   6.448   7.295  1.1682 -0.7129 -1.3579
  122OSM   H10T12913   5.094   6.277   7.241 -2.6020 -1.6823  0.5639
  122OSM   C11S12914   4.967   6.327   7.415 -0.0734  0.1238  0.3250
  122OSM   H11S12915   4.932   6.223   7.395 -2.3571  1.0911 -0.9817
  122OSM   H11T12916   4.879   6.391   7.436 -0.5426  0.3146 -1.9659
  122OSM   C12S12917   5.057   6.334   7.542  1.1790 -0.1426 -0.7289
  122OSM   H12S12918   5.107   6.433   7.535  0.6974  0.4178  2.3193
  122OSM   H12T12919   5.130   6.250   7.541  0.7444 -0.5231 -1.7757
  122OSM   C13S12920   4.970   6.337   7.675 -0.3291 -0.3498 -0.4411
  122OSM   H13S12921   4.933   6.232   7.677  0.5190 -0.6592 -0.7363
  122OSM   H13T12922   4.894   6.417   7.666  0.0561  0.1570  0.6632
  122OSM   C14S12923   5.040   6.349   7.808 -0.4731 -0.2123  0.6349
  122OSM   H14S12924   5.092   6.447   7.819  0.4342 -0.6454  0.2872
  122OSM   H14T12925   5.118   6.270   7.813 -0.5784 -0.4393 -0.8382
  122OSM   C15S12926   4.944   6.326   7.930  0.3163  0.0931 -0.4601
  122OSM   H15S12927   4.897   6.226   7.920 -1.2527  0.7915 -0.5081
  122OSM   H15T12928   4.865   6.405   7.931  0.1627 -0.0142  1.8756
  122OSM   C16S12929   5.028   6.333   8.056  0.0351  0.1219  0.2796
  122OSM   H16S12930   5.052   6.438   8.082 -0.3741  0.0765  0.8552
  122OSM   H16T12931   5.121   6.272   8.058  0.2900  0.5026  0.2314
  122OSM   C17S12932   4.932   6.286   8.176  0.0326 -0.1252  0.3869
  122OSM   H17S12933   4.898   6.182   8.157 -0.7179  0.3795 -1.1792
  122OSM   H17T12934   4.834   6.336   8.168  0.2412  0.0256 -1.8970
  122OSM   C18S12935   4.982   6.291   8.323  0.2787 -0.1953  0.4410
  122OSM   H18S12936   5.025   6.392   8.342 -1.1012  0.4204  0.4797
  122OSM   H18T12937   5.053   6.207   8.338  0.3333 -0.3874 -0.7537
  122OSM   H18U12938   4.895   6.273   8.390 -1.6569 -1.2821 -2.1845
  122OSM    C1F12939   5.221   6.022   6.901 -1.1902 -0.8624  0.5973
  122OSM     OF12940   5.324   6.077   6.860  0.0100  0.8165 -0.0193
  122OSM    C2F12941   5.221   5.934   7.017 -0.2997  0.3207 -0.7852
  122OSM    H2F12942   5.285   5.844   7.004 -0.7274 -0.2730  0.8960
  122OSM    H2G12943   5.119   5.895   7.034 -0.1828  0.2350 -0.2690
  122OSM    C3F12944   5.272   6.011   7.142 -0.4837 -0.1421  0.3404
  122OSM    H3F12945   5.208   6.101   7.155 -1.3740 -0.5727 -0.7834
  122OSM    H3G12946   5.380   6.034   7.137 -0.4717 -0.3029 -4.1616
  122OSM    C4F12947   5.255   5.921   7.264 -0.6825 -0.6309 -0.3215
  122OSM    H4F12948   5.299   5.820   7.248  1.1162  0.4266 -2.6061
  122OSM    H4G12949   5.147   5.899   7.278  0.1079 -3.1714  3.4873
  122OSM    C5F12950   5.313   5.999   7.379  0.4293  0.7334  0.2225
  122OSM    H5F12951   5.257   6.095   7.385  0.9221  0.9138  2.9886
  122OSM    H5G12952   5.421   6.019   7.365  0.6676  0.1827  1.2159
  122OSM    C6F12953   5.296   5.942   7.518 -0.1132 -0.1509  0.6448
  122OSM    H6F12954   5.187   5.922   7.527 -0.3149 -0.5313 -2.0169
  122OSM    H6G12955   5.333   6.018   7.591  0.2513  0.2674  0.0419
  122OSM    C7F12956   5.374   5.814   7.549 -0.7677 -0.1576  0.2719
  122OSM    H7F12957   5.477   5.833   7.511 -0.9258  0.6816  0.2568
  122OSM    H7G12958   5.317   5.740   7.489 -0.6625  1.5490 -2.0317
  122OSM    C8F12959   5.377   5.777   7.698 -0.7998 -0.1401 -0.6001
  122OSM    H8F12960   5.434   5.858   7.748 -0.1681 -0.5742 -0.6133
  122OSM    H8G12961   5.446   5.691   7.710  1.0277  1.2717 -0.4656
  122OSM    C9F12962   5.242   5.761   7.765 -0.1817 -0.0134  0.3893
  122OSM    H9F12963   5.157   5.796   7.705 -1.0017  0.5811  1.8560
  122OSM   C10F12964   5.223   5.707   7.887 -0.1566 -0.1888 -0.2519
  122OSM   H10F12965   5.119   5.703   7.924  0.3668 -0.6788  1.2134
  122OSM   C11F12966   5.327   5.655   7.982  0.0301  0.2207 -0.2936
  122OSM   H11F12967   5.432   5.665   7.946 -0.1438  0.6554 -0.6888
  122OSM   H11G12968   5.309   5.547   8.002  1.4130  0.1683  0.8637
  122OSM   C12F12969   5.324   5.724   8.117  0.4978  0.4663 -1.1509
  122OSM   H12F12970   5.399   5.673   8.182 -1.5729 -0.2338  0.8250
  122OSM   H12G12971   5.234   5.710   8.179  0.9938 -0.1122 -0.5402
  122OSM   C13F12972   5.370   5.867   8.096  0.0988 -1.3371 -0.1697
  122OSM   H13F12973   5.304   5.924   8.027  0.4021  0.7751  1.1903
  122OSM   H13G12974   5.466   5.859   8.040 -0.3495  2.3911 -1.7618
  122OSM   C14F12975   5.394   5.957   8.218 -0.6743 -0.0353  0.1503
  122OSM   H14F12976   5.447   6.050   8.189 -1.8436  1.4163  2.3669
  122OSM   H14G12977   5.464   5.898   8.281 -0.2294 -0.1269 -0.4267
  122OSM   C15F12978   5.264   5.990   8.295 -0.4715  0.2117 -0.2554
  122OSM   H15F12979   5.212   5.897   8.327 -2.3503  1.0770 -0.6530
  122OSM   H15G12980   5.199   6.048   8.226 -0.8913 -2.1041 -1.9407
  122OSM   C16F12981   5.293   6.057   8.432 -0.3596  0.1698 -1.0621
  122OSM   H16F12982   5.372   6.007   8.493 -1.1867  0.5703  0.3910
  122OSM   H16G12983   5.205   6.062   8.500  1.1819  0.0637  1.0602
  122OSM   C17F12984   5.338   6.208   8.417 -0.2381  0.1314  0.1560
  122OSM   H17F12985   5.257   6.270   8.375  0.6438  1.3738  0.2436
  122OSM   H17G12986   5.430   6.203   8.354  0.2023 -2.9587  0.8589
  122OSM   C18F12987   5.379   6.263   8.554 -0.2255  0.2166 -0.5309
  122OSM   H18F12988   5.441   6.355   8.547 -2.0924  1.4831 -1.2141
  122OSM   H18G12989   5.426   6.193   8.627 -0.6674  0.7152  0.2443
  122OSM   H18H12990   5.287   6.283   8.612  1.5819  1.5143  2.1389
  123OSM      N12991   2.225   2.814   6.599  0.0562 -0.0690 -0.3191
  123OSM    C1512992   2.178   2.796   6.743 -0.7745 -0.1553  0.8056
  123OSM   H15A12993   2.193   2.693   6.771  0.9747 -0.3586 -0.6625
  123OSM   H15B12994   2.070   2.807   6.744 -0.6761  1.0191  0.6295
  123OSM   H15C12995   2.214   2.869   6.814 -0.3972 -0.8861  1.3770
  123OSM    C1412996   2.170   2.706   6.511  0.2849  0.1226 -0.5985
  123OSM   H14A12997   2.201   2.713   6.408 -0.8404 -1.5089 -1.1013
  123OSM   H14B12998   2.062   2.698   6.515  0.3797 -0.4781  1.7207
  123OSM   H14C12999   2.202   2.610   6.548 -0.8778 -0.6280 -1.4566
  123OSM    C1313000   2.178   2.946   6.543  0.2738 -0.3101 -0.0962
  123OSM   H13A13001   2.070   2.948   6.549  0.2844 -1.8749  1.3991
  123OSM   H13B13002   2.207   2.952   6.439  4.5625  0.4856  0.9743
  123OSM   H13C13003   2.222   3.028   6.596  1.8872 -0.2447 -1.4574
  123OSM    C1213004   2.377   2.808   6.594 -0.3558  0.1413 -0.2075
  123OSM   H12A13005   2.402   2.817   6.489 -1.2742 -1.7817 -0.6365
  123OSM   H12B13006   2.418   2.710   6.608  0.7775  0.5522 -0.5448
  123OSM    C1113007   2.445   2.900   6.689 -0.5962 -0.7132  0.6958
  123OSM   H11A13008   2.551   2.867   6.692 -1.0272 -2.0865  1.7326
  123OSM   H11B13009   2.398   2.884   6.788 -1.1567 -1.5055  0.3147
  123OSM      P13010   2.501   3.158   6.668 -0.4374  0.0903  0.3343
  123OSM    O1313011   2.568   3.184   6.540 -0.3973 -0.4177  0.0395
  123OSM    O1413012   2.410   3.262   6.715  0.2132  0.3909  0.0318
  123OSM    O1113013   2.608   3.128   6.779  0.2285  0.0255  0.6180
  123OSM    O1213014   2.415   3.038   6.653  0.0099  0.5912 -0.4883
  123OSM    C1S13015   2.590   3.154   6.921 -0.1176 -0.1025  0.2045
  123OSM    H1S13016   2.553   3.057   6.961 -0.0595  0.0665  0.6799
  123OSM    H1T13017   2.515   3.232   6.949  1.2980  1.0171  1.0305
  123OSM     NF13018   2.690   3.212   7.140 -0.6611 -0.1572 -0.5527
  123OSM    HNF13019   2.676   3.304   7.177 -0.4165 -0.4711  0.3673
  123OSM    C2S13020   2.719   3.199   6.997 -0.6630  0.4409  0.8075
  123OSM    H2S13021   2.791   3.115   6.986 -0.2418  0.5083  2.7563
  123OSM    C3S13022   2.784   3.322   6.937  1.1271  0.1353  0.8327
  123OSM    H3S13023   2.711   3.405   6.944 -3.1427 -2.7151 -3.2133
  123OSM     O313024   2.805   3.315   6.795 -0.0448  0.2989 -0.0058
  123OSM    HO313025   2.754   3.242   6.758  1.2759 -1.6752  1.8754
  123OSM    C4S13026   2.907   3.365   7.016 -0.2179 -0.9958  0.2869
  123OSM    H4S13027   2.863   3.423   7.098  0.7755  0.8321 -0.4036
  123OSM    C5S13028   3.038   3.342   6.993  0.9162 -0.5931 -0.5161
  123OSM    H5S13029   3.056   3.274   6.908  2.1457  0.6970 -1.3468
  123OSM    C6S13030   3.157   3.398   7.080 -0.0640  0.4725  0.1631
  123OSM    H6S13031   3.207   3.473   7.015 -1.8740 -0.0405 -1.9316
  123OSM    H6T13032   3.235   3.323   7.105  0.9385  0.7375 -1.9325
  123OSM    C7S13033   3.122   3.456   7.213 -0.0377  0.3482 -0.2948
  123OSM    H7S13034   3.071   3.385   7.282  0.2182  0.7399  0.3073
  123OSM    H7T13035   3.044   3.535   7.204 -0.0379  0.1835 -1.8805
  123OSM    C8S13036   3.242   3.512   7.294 -0.2367  0.2938  0.1191
  123OSM    H8S13037   3.302   3.591   7.242  0.3670  1.4408  2.4231
  123OSM    H8T13038   3.318   3.434   7.314  1.0552  0.8621 -2.1060
  123OSM    C9S13039   3.200   3.559   7.434 -0.2898 -0.2638  0.4978
  123OSM    H9S13040   3.111   3.503   7.469  0.1767 -0.1858  1.8344
  123OSM    H9T13041   3.170   3.663   7.412 -1.2665 -0.9572 -1.7910
  123OSM   C10S13042   3.320   3.554   7.530  0.6877 -1.6773 -0.3664
  123OSM   H10S13043   3.402   3.621   7.498 -0.8108  0.5551  0.2070
  123OSM   H10T13044   3.366   3.453   7.532  2.1830 -1.0250 -0.4232
  123OSM   C11S13045   3.274   3.575   7.674 -0.7426  0.4050  0.3573
  123OSM   H11S13046   3.204   3.659   7.691  2.0423  2.6454  1.5958
  123OSM   H11T13047   3.358   3.617   7.734  0.8496  2.8387 -3.2243
  123OSM   C12S13048   3.233   3.444   7.735 -0.3782  0.4065 -0.4388
  123OSM   H12S13049   3.323   3.379   7.723 -0.4890  0.6533 -3.3366
  123OSM   H12T13050   3.161   3.393   7.668  1.6276 -1.0832 -1.5919
  123OSM   C13S13051   3.183   3.445   7.879  0.7273 -0.3374 -0.2847
  123OSM   H13S13052   3.153   3.349   7.926  0.1162  1.2169  2.6695
  123OSM   H13T13053   3.085   3.496   7.877  2.6334  3.7439 -0.0560
  123OSM   C14S13054   3.278   3.523   7.971  0.0435 -0.3556  0.0809
  123OSM   H14S13055   3.279   3.630   7.940 -1.2538  0.0046  1.1788
  123OSM   H14T13056   3.385   3.495   7.968  0.5133  1.3398 -0.0341
  123OSM   C15S13057   3.225   3.511   8.110  0.2506  0.5366  0.7987
  123OSM   H15S13058   3.227   3.401   8.126  1.1310  0.5516  0.8394
  123OSM   H15T13059   3.120   3.549   8.112  0.2825  0.6831 -0.0342
  123OSM   C16S13060   3.302   3.570   8.221  0.4141  0.5120  0.2773
  123OSM   H16S13061   3.408   3.536   8.212  0.8465  1.0609  2.5270
  123OSM   H16T13062   3.259   3.546   8.321  1.7498  2.0724  1.2882
  123OSM   C17S13063   3.302   3.728   8.214 -0.1913  0.3889 -0.0169
  123OSM   H17S13064   3.197   3.756   8.192 -0.7438 -1.1243  0.5809
  123OSM   H17T13065   3.375   3.767   8.140  1.2055 -0.2959  0.9348
  123OSM   C18S13066   3.333   3.799   8.345  0.4315  0.4972  0.5707
  123OSM   H18S13067   3.257   3.776   8.423 -0.1831 -0.7657 -0.3553
  123OSM   H18T13068   3.326   3.909   8.330 -0.7131  0.2268 -1.3346
  123OSM   H18U13069   3.438   3.774   8.371  1.6484 -1.0755 -4.7249
  123OSM    C1F13070   2.673   3.110   7.227  0.1352 -0.2618 -0.6144
  123OSM     OF13071   2.667   3.005   7.174  0.4595  0.2557 -0.4931
  123OSM    C2F13072   2.658   3.140   7.374  0.1563 -0.2134 -0.1503
  123OSM    H2F13073   2.555   3.182   7.387 -0.3881 -0.6788 -2.4619
  123OSM    H2G13074   2.728   3.215   7.417 -0.5189 -0.9169  2.3813
  123OSM    C3F13075   2.670   3.008   7.466  0.1768 -1.0230 -0.7648
  123OSM    H3F13076   2.779   2.987   7.463 -0.1432 -3.1455  0.2111
  123OSM    H3G13077   2.620   2.918   7.424  0.5396 -1.4553 -0.2805
  123OSM    C4F13078   2.610   3.036   7.601  0.0083 -0.1421  0.0371
  123OSM    H4F13079   2.499   3.044   7.593 -0.1245 -1.9471 -0.2930
  123OSM    H4G13080   2.657   3.130   7.636  1.9854 -1.4679  1.1657
  123OSM    C5F13081   2.639   2.918   7.692  0.1019  0.2998 -0.0778
  123OSM    H5F13082   2.748   2.895   7.701 -0.0706 -0.5994 -0.1409
  123OSM    H5G13083   2.588   2.822   7.668 -2.0777  1.4539 -0.2344
  123OSM    C6F13084   2.572   2.958   7.827 -0.1196  0.2129  0.7183
  123OSM    H6F13085   2.468   2.981   7.797  0.5636  1.2517 -1.0104
  123OSM    H6G13086   2.626   3.043   7.874 -1.5684  1.1057  0.8245
  123OSM    C7F13087   2.585   2.841   7.928  0.3193 -0.2128 -0.3061
  123OSM    H7F13088   2.694   2.818   7.924  1.0223  2.7713 -0.7117
  123OSM    H7G13089   2.533   2.749   7.894 -1.4843  0.4288  0.6090
  123OSM    C8F13090   2.551   2.882   8.072 -0.0397 -0.7656  0.2977
  123OSM    H8F13091   2.440   2.890   8.076 -0.0660  0.1556 -1.4794
  123OSM    H8G13092   2.576   2.988   8.096 -0.7264 -0.5247 -0.0079
  123OSM    C9F13093   2.621   2.797   8.176 -0.2768 -0.5250  0.1456
  123OSM    H9F13094   2.722   2.832   8.203 -0.3921 -0.1330  0.0820
  123OSM   C10F13095   2.555   2.709   8.258 -0.1609  0.1719  0.5601
  123OSM   H10F13096   2.621   2.649   8.322  0.9299  0.2281 -0.4773
  123OSM   C11F13097   2.410   2.662   8.247 -0.2174  0.4504 -0.0284
  123OSM   H11F13098   2.363   2.730   8.173  1.7510  0.6953 -1.1148
  123OSM   H11G13099   2.350   2.666   8.341 -3.4133 -2.9831 -1.6932
  123OSM   C12F13100   2.388   2.516   8.204 -0.1414  0.5129 -1.0493
  123OSM   H12F13101   2.444   2.516   8.108  3.1809  1.1684  0.7213
  123OSM   H12G13102   2.280   2.496   8.186 -0.4532  1.6533 -0.5713
  123OSM   C13F13103   2.450   2.398   8.287 -0.1762  0.0150  0.1332
  123OSM   H13F13104   2.558   2.424   8.295 -0.7351  3.6834 -2.2563
  123OSM   H13G13105   2.440   2.303   8.230  0.8240  0.7410 -1.3142
  123OSM   C14F13106   2.384   2.380   8.426 -0.8555  0.1019 -0.5606
  123OSM   H14F13107   2.407   2.477   8.476 -1.3464  0.4483 -1.0064
  123OSM   H14G13108   2.437   2.306   8.489  0.1529 -0.5063 -2.0663
  123OSM   C15F13109   2.238   2.347   8.411  0.5291  0.5502  0.0945
  123OSM   H15F13110   2.223   2.252   8.355 -1.2023 -0.4073  2.0651
  123OSM   H15G13111   2.179   2.426   8.360 -0.1758 -0.1231 -0.1499
  123OSM   C16F13112   2.174   2.348   8.549  0.5197 -0.6483  0.5698
  123OSM   H16F13113   2.194   2.444   8.601 -1.5169  0.6586 -0.9237
  123OSM   H16G13114   2.225   2.269   8.609 -0.9031 -0.4842  2.0853
  123OSM   C17F13115   2.019   2.336   8.552 -0.5444  0.2367 -0.4708
  123OSM   H17F13116   2.009   2.228   8.529  2.5763 -0.7931  2.2434
  123OSM   H17G13117   1.974   2.396   8.469  0.8422 -0.4452 -1.7576
  123OSM   C18F13118   1.954   2.358   8.694 -0.2435  0.4461 -0.1686
  123OSM   H18F13119   2.007   2.290   8.764 -0.3285  0.7510  0.1942
  123OSM   H18G13120   1.848   2.333   8.672  0.1736 -3.3959  1.5322
  123OSM   H18H13121   1.983   2.463   8.715  3.5592 -0.4439 -0.2854
  124OSM      N13122   4.029   4.418   6.319  0.4677 -0.2466 -0.1276
  124OSM    C1513123   4.149   4.439   6.225  0.1292 -0.0691  0.2104
  124OSM   H15A13124   4.197   4.345   6.203  1.7372  0.8511 -0.4004
  124OSM   H15B13125   4.224   4.498   6.275 -1.2764  0.8578  1.3042
  124OSM   H15C13126   4.132   4.484   6.128  3.1381 -0.6028 -0.6693
  124OSM    C1413127   3.968   4.549   6.364 -0.0924  0.5151 -0.4906
  124OSM   H14A13128   3.929   4.527   6.462  2.1478 -1.0255  0.1269
  124OSM   H14B13129   3.894   4.582   6.292  0.0284 -1.4543 -1.5886
  124OSM   H14C13130   4.044   4.620   6.389  0.0676  0.4682 -0.8288
  124OSM    C1313131   3.926   4.333   6.252 -0.1850  0.2666 -0.3792
  124OSM   H13A13132   3.863   4.286   6.326 -2.5631  0.8811 -1.9348
  124OSM   H13B13133   3.972   4.271   6.177  0.7500  1.3576 -0.7323
  124OSM   H13C13134   3.858   4.392   6.194 -1.0240  0.0631  0.3716
  124OSM    C1213135   4.083   4.353   6.443  0.8056 -0.0532  0.8312
  124OSM   H12A13136   4.011   4.331   6.521  0.1460  1.5048  0.7037
  124OSM   H12B13137   4.155   4.414   6.496  1.9194 -0.4316 -0.1950
  124OSM    C1113138   4.175   4.219   6.427  0.7606 -0.5805  0.5281
  124OSM   H11A13139   4.115   4.158   6.355 -1.4758 -0.5630  2.2643
  124OSM   H11B13140   4.191   4.166   6.523  2.5644 -1.5838 -0.2716
  124OSM      P13141   4.412   4.329   6.447 -0.2472  0.3095  0.2303
  124OSM    O1313142   4.534   4.304   6.364  0.3314 -0.2074 -0.7431
  124OSM    O1413143   4.371   4.463   6.485 -0.3240 -0.3903  0.8689
  124OSM    O1113144   4.420   4.253   6.582 -0.4058 -0.0802 -0.1028
  124OSM    O1213145   4.300   4.247   6.365  0.1303  0.5754  0.5732
  124OSM    C1S13146   4.459   4.117   6.578 -0.2821 -0.8807 -0.4527
  124OSM    H1S13147   4.565   4.118   6.545 -0.6937  1.2828 -1.8673
  124OSM    H1T13148   4.398   4.059   6.505 -0.8781  0.9557 -1.4679
  124OSM     NF13149   4.490   3.915   6.716 -0.1905  0.0255 -0.3733
  124OSM    HNF13150   4.421   3.844   6.708 -1.1484  0.7270  1.2662
  124OSM    C2S13151   4.445   4.053   6.716 -0.1636  0.0971  0.1936
  124OSM    H2S13152   4.510   4.110   6.786  1.2039 -2.3414  1.0223
  124OSM    C3S13153   4.302   4.073   6.764  0.0291 -0.1510 -0.2765
  124OSM    H3S13154   4.250   4.014   6.686  2.4618 -1.9111 -0.6756
  124OSM     O313155   4.268   4.212   6.774 -0.2558  0.1395 -0.3166
  124OSM    HO313156   4.348   4.250   6.737 -0.1921 -0.3763 -0.7119
  124OSM    C4S13157   4.282   4.005   6.901 -0.1707  0.7458  0.6606
  124OSM    H4S13158   4.329   4.062   6.982 -2.0740  1.4802  1.2923
  124OSM    C5S13159   4.210   3.891   6.932  0.3367  0.4473  0.3708
  124OSM    H5S13160   4.165   3.837   6.847  1.9836  0.4694 -0.5667
  124OSM    C6S13161   4.191   3.827   7.073 -0.0721 -0.1738 -0.3665
  124OSM    H6S13162   4.218   3.720   7.058 -0.2288 -0.1449 -0.8947
  124OSM    H6T13163   4.081   3.823   7.092 -0.1951  1.3399 -0.6466
  124OSM    C7S13164   4.260   3.877   7.200 -0.2968 -0.3443 -0.3920
  124OSM    H7S13165   4.248   3.985   7.223 -2.2849  0.1344 -3.1796
  124OSM    H7T13166   4.370   3.862   7.188 -0.2690 -0.6276  0.1683
  124OSM    C8S13167   4.229   3.800   7.323  0.5849  0.6634 -0.9355
  124OSM    H8S13168   4.240   3.690   7.315  0.2082  0.6312 -1.0532
  124OSM    H8T13169   4.121   3.822   7.342  0.0201 -1.3682 -1.5143
  124OSM    C9S13170   4.316   3.833   7.447 -0.1705 -0.5262  0.6989
  124OSM    H9S13171   4.315   3.944   7.453 -1.8425 -0.4831  0.0743
  124OSM    H9T13172   4.418   3.802   7.415  0.1749  2.3754 -1.4288
  124OSM   C10S13173   4.279   3.782   7.583  0.3069 -0.0164 -0.7622
  124OSM   H10S13174   4.364   3.807   7.651  0.7625 -1.3761 -0.8104
  124OSM   H10T13175   4.266   3.672   7.573 -0.0146 -0.4177  2.8575
  124OSM   C11S13176   4.139   3.829   7.635 -0.4133  0.0004  0.3190
  124OSM   H11S13177   4.072   3.811   7.549  0.9239 -1.8275 -0.4214
  124OSM   H11T13178   4.146   3.939   7.647 -3.5204  0.5508 -1.8883
  124OSM   C12S13179   4.108   3.750   7.763  0.5577 -0.2474  0.6932
  124OSM   H12S13180   4.112   3.641   7.746 -2.9794 -0.5078  0.8338
  124OSM   H12T13181   4.000   3.767   7.782  0.2788 -0.7656 -0.3566
  124OSM   C13S13182   4.196   3.794   7.882  0.2983 -0.1592  0.0298
  124OSM   H13S13183   4.200   3.905   7.887  0.0038 -0.0616 -1.5335
  124OSM   H13T13184   4.302   3.764   7.863  0.4904  1.0334 -0.9158
  124OSM   C14S13185   4.154   3.737   8.018  0.4603 -0.4910  0.4045
  124OSM   H14S13186   4.199   3.636   8.015 -1.8870 -1.5816 -2.0961
  124OSM   H14T13187   4.045   3.722   8.028  0.0182  2.4538  1.0192
  124OSM   C15S13188   4.199   3.827   8.137 -0.0782  0.1282 -0.2508
  124OSM   H15S13189   4.115   3.897   8.158 -0.7208 -0.6285 -0.2237
  124OSM   H15T13190   4.289   3.882   8.103 -0.6898  0.9649 -0.5346
  124OSM   C16S13191   4.231   3.756   8.270 -0.3018  0.2127 -0.0843
  124OSM   H16S13192   4.292   3.666   8.252 -1.8275 -0.8474 -0.1347
  124OSM   H16T13193   4.140   3.720   8.323  0.5703 -1.9032  0.0366
  124OSM   C17S13194   4.301   3.851   8.363  0.1790 -0.1641 -0.6367
  124OSM   H17S13195   4.228   3.934   8.373 -2.2069 -2.1658 -0.5800
  124OSM   H17T13196   4.397   3.885   8.317 -0.1477  1.4747 -0.1970
  124OSM   C18S13197   4.320   3.808   8.513 -0.3051  0.2555  0.0511
  124OSM   H18S13198   4.420   3.763   8.524 -0.2003  0.2753 -0.8004
  124OSM   H18T13199   4.230   3.746   8.532  0.0299 -0.3300 -0.2578
  124OSM   H18U13200   4.320   3.899   8.578 -0.7176  0.2797  0.0228
  124OSM    C1F13201   4.614   3.891   6.687  0.4648  1.3907 -1.0562
  124OSM     OF13202   4.700   3.978   6.667  0.2720 -0.3047  0.0126
  124OSM    C2F13203   4.663   3.749   6.674 -0.2404 -0.3269  0.4587
  124OSM    H2F13204   4.728   3.735   6.585  1.7484 -1.0954  1.9390
  124OSM    H2G13205   4.581   3.675   6.664 -0.7001  0.3188 -0.7717
  124OSM    C3F13206   4.760   3.717   6.789  0.5611 -0.3658  0.3246
  124OSM    H3F13207   4.852   3.780   6.787  0.6892 -0.5659 -0.8456
  124OSM    H3G13208   4.799   3.614   6.772  2.2451  0.4072 -0.8620
  124OSM    C4F13209   4.712   3.716   6.930 -0.4908  0.0800  0.4449
  124OSM    H4F13210   4.610   3.674   6.930 -1.1465  1.5510  1.9962
  124OSM    H4G13211   4.698   3.822   6.960  0.3864 -0.1613  1.7877
  124OSM    C5F13212   4.794   3.643   7.033  1.0236 -0.6836 -0.1782
  124OSM    H5F13213   4.904   3.655   7.023  0.7921  1.8644 -0.4283
  124OSM    H5G13214   4.783   3.534   7.014 -0.2154 -0.6157  0.0421
  124OSM    C6F13215   4.752   3.666   7.182  0.0138 -0.6223  0.4893
  124OSM    H6F13216   4.643   3.643   7.184  0.1525 -1.2863  1.3111
  124OSM    H6G13217   4.761   3.774   7.206 -0.4958 -0.6585  0.8751
  124OSM    C7F13218   4.831   3.570   7.263 -0.8030 -0.7609  0.1169
  124OSM    H7F13219   4.939   3.587   7.246 -0.5707  1.7566  3.2002
  124OSM    H7G13220   4.808   3.473   7.214 -0.5606 -0.6369 -0.2434
  124OSM    C8F13221   4.796   3.575   7.411  0.5921  0.5601 -0.0845
  124OSM    H8F13222   4.860   3.503   7.466  2.2853  2.7024  0.9054
  124OSM    H8G13223   4.689   3.546   7.415  0.7077 -0.1476 -1.4608
  124OSM    C9F13224   4.821   3.709   7.478 -0.2175 -0.5239  0.3012
  124OSM    H9F13225   4.874   3.786   7.421  1.5684 -1.0851  1.1455
  124OSM   C10F13226   4.809   3.730   7.608  0.3108  0.6723  0.0565
  124OSM   H10F13227   4.829   3.829   7.652  0.7492  0.3638  0.5710
  124OSM   C11F13228   4.753   3.624   7.700  0.1118  0.2901  0.0404
  124OSM   H11F13229   4.804   3.638   7.798  3.4936  0.4457 -1.5954
  124OSM   H11G13230   4.783   3.521   7.671  1.1199  0.1591  1.4353
  124OSM   C12F13231   4.601   3.625   7.721 -0.5439 -0.7070  0.0112
  124OSM   H12F13232   4.556   3.614   7.621 -1.0156 -1.4461  0.2955
  124OSM   H12G13233   4.569   3.722   7.764  0.5565  0.1549 -1.0605
  124OSM   C13F13234   4.536   3.519   7.806  0.0562  0.3412 -0.3129
  124OSM   H13F13235   4.545   3.430   7.740  0.6369  0.1110  0.0705
  124OSM   H13G13236   4.427   3.529   7.826  0.0675 -1.0143  0.5626
  124OSM   C14F13237   4.610   3.470   7.939  1.5443  0.0895  0.1305
  124OSM   H14F13238   4.720   3.483   7.930  1.3990  0.1439 -2.8220
  124OSM   H14G13239   4.587   3.364   7.962  0.9067  0.1653 -0.1406
  124OSM   C15F13240   4.574   3.552   8.066 -0.0753 -0.0472  1.2478
  124OSM   H15F13241   4.470   3.522   8.089 -0.6516  1.0485  0.2383
  124OSM   H15G13242   4.560   3.659   8.037  1.3376 -0.3492 -0.7882
  124OSM   C16F13243   4.673   3.542   8.188 -0.4261 -0.5471 -0.3645
  124OSM   H16F13244   4.775   3.575   8.159 -0.1069 -3.1561 -2.5284
  124OSM   H16G13245   4.685   3.432   8.199  0.3995 -0.2823  2.3293
  124OSM   C17F13246   4.620   3.587   8.324  0.4069 -0.4438 -0.0656
  124OSM   H17F13247   4.515   3.553   8.338 -0.2404  1.2307 -0.5515
  124OSM   H17G13248   4.620   3.698   8.317  2.0545 -0.3482  0.8532
  124OSM   C18F13249   4.703   3.546   8.446  0.3337  1.0582 -0.1697
  124OSM   H18F13250   4.657   3.577   8.543 -1.1564  0.6439 -0.7146
  124OSM   H18G13251   4.804   3.590   8.447  1.5144 -1.4712  0.1207
  124OSM   H18H13252   4.728   3.438   8.445 -0.0145  0.6471  5.4043
  125OSM      N13253   6.702   4.484   6.121  0.3368  0.2956  0.0601
  125OSM    C1513254   6.668   4.593   6.019  0.0299  0.2592 -0.3205
  125OSM   H15A13255   6.758   4.651   6.002  0.6342 -1.3105 -3.2344
  125OSM   H15B13256   6.595   4.662   6.059  0.5302  0.0853  0.9311
  125OSM   H15C13257   6.632   4.554   5.925  0.5658 -0.3048 -0.2972
  125OSM    C1413258   6.580   4.402   6.156  0.9158 -0.6377 -0.0443
  125OSM   H14A13259   6.498   4.455   6.202 -1.2601 -2.8015 -1.1858
  125OSM   H14B13260   6.606   4.317   6.218  1.3465 -0.5568 -0.1127
  125OSM   H14C13261   6.548   4.355   6.064 -0.0467  3.0000 -1.7243
  125OSM    C1313262   6.789   4.384   6.057  0.2875  0.6436 -0.3376
  125OSM   H13A13263   6.792   4.299   6.124 -0.3800  0.9474  0.0789
  125OSM   H13B13264   6.891   4.419   6.050  0.0467  1.3087 -0.5779
  125OSM   H13C13265   6.755   4.339   5.965 -1.4333  0.3793  0.3814
  125OSM    C1213266   6.765   4.544   6.238 -0.1087 -0.5618 -0.0036
  125OSM   H12A13267   6.820   4.467   6.290 -0.3213  0.3085  1.5470
  125OSM   H12B13268   6.687   4.575   6.305 -1.6676 -2.5438 -0.7899
  125OSM    C1113269   6.870   4.656   6.218 -0.8448  0.8117 -0.9429
  125OSM   H11A13270   6.897   4.688   6.321 -0.1863 -1.7646 -0.2508
  125OSM   H11B13271   6.831   4.743   6.161 -2.9888 -0.3590 -1.3963
  125OSM      P13272   7.088   4.514   6.223  0.0726  0.1440  0.1205
  125OSM    O1313273   7.107   4.393   6.139  0.9652 -0.6567 -0.5839
  125OSM    O1413274   7.205   4.588   6.268  0.2213 -0.2456  0.4107
  125OSM    O1113275   7.007   4.463   6.356  0.4755  0.1054  0.3457
  125OSM    O1213276   6.981   4.609   6.146 -0.4030 -0.1157 -0.3908
  125OSM    C1S13277   7.060   4.346   6.425  0.2263  0.2482 -0.1070
  125OSM    H1S13278   7.170   4.340   6.416  0.3894  0.9039  1.2787
  125OSM    H1T13279   7.024   4.255   6.371  1.5957  0.0628 -0.7501
  125OSM     NF13280   7.098   4.225   6.635  0.2936 -0.2271  0.5961
  125OSM    HNF13281   7.033   4.149   6.635 -1.0771  0.8960  0.3305
  125OSM    C2S13282   7.046   4.345   6.581  0.2526 -0.2090 -0.2364
  125OSM    H2S13283   7.102   4.431   6.623 -2.7367  0.6198  2.4936
  125OSM    C3S13284   6.898   4.368   6.628  0.1481  0.3868 -0.3199
  125OSM    H3S13285   6.830   4.291   6.587  1.2129 -0.7608 -0.0118
  125OSM     O313286   6.847   4.486   6.568  0.0642 -0.2532  0.0275
  125OSM    HO313287   6.914   4.512   6.505  0.0339  1.4218  0.6407
  125OSM    C4S13288   6.884   4.379   6.782 -0.0685  0.9223 -0.6569
  125OSM    H4S13289   6.945   4.306   6.837 -0.5730  2.7141  2.4893
  125OSM    C5S13290   6.819   4.466   6.856  0.5135  0.0304 -0.3616
  125OSM    H5S13291   6.753   4.539   6.806  0.5307 -1.4617 -2.7287
  125OSM    C6S13292   6.809   4.450   7.004  0.1277 -0.5965 -0.6415
  125OSM    H6S13293   6.878   4.377   7.052  0.3834 -0.7737 -1.2673
  125OSM    H6T13294   6.707   4.426   7.040 -0.2665  1.6710 -0.0655
  125OSM    C7S13295   6.833   4.596   7.058  0.1285  0.2370 -0.7140
  125OSM    H7S13296   6.752   4.662   7.020 -0.6188  0.8329  1.7618
  125OSM    H7T13297   6.922   4.642   7.010 -0.4473  2.2349  0.0365
  125OSM    C8S13298   6.853   4.605   7.211  0.4278  0.1879  0.1107
  125OSM    H8S13299   6.946   4.549   7.237 -1.4499 -3.5390 -0.5207
  125OSM    H8T13300   6.779   4.547   7.269  1.6468 -0.8366  0.6887
  125OSM    C9S13301   6.863   4.747   7.258  0.4384  0.0043 -1.1012
  125OSM    H9S13302   6.778   4.814   7.234 -0.2781  0.1654  1.5409
  125OSM    H9T13303   6.955   4.786   7.210  0.5772 -0.7357 -1.4420
  125OSM   C10S13304   6.876   4.765   7.418  0.0060  0.4800 -0.6861
  125OSM   H10S13305   6.857   4.871   7.441  1.2858  0.2340  1.8140
  125OSM   H10T13306   6.981   4.734   7.439 -0.0535  0.1807 -0.8122
  125OSM   C11S13307   6.773   4.687   7.502  0.2790  0.4394  0.1928
  125OSM   H11S13308   6.774   4.577   7.484 -1.3906  0.5539 -0.9070
  125OSM   H11T13309   6.669   4.709   7.467 -0.0149 -1.0968  0.0149
  125OSM   C12S13310   6.768   4.721   7.648 -0.1593 -0.0067  0.5637
  125OSM   H12S13311   6.671   4.696   7.696 -0.9252 -1.8066 -1.7868
  125OSM   H12T13312   6.770   4.832   7.655 -3.7745  0.4871 -2.9181
  125OSM   C13S13313   6.878   4.648   7.730 -0.5073  0.1539  0.3935
  125OSM   H13S13314   6.977   4.668   7.684  0.1517  0.3394  1.8322
  125OSM   H13T13315   6.859   4.539   7.731  0.4698 -0.1396  4.5445
  125OSM   C14S13316   6.888   4.695   7.873 -0.1064  0.8347 -0.1778
  125OSM   H14S13317   6.922   4.801   7.864  1.0732  0.4146 -1.0145
  125OSM   H14T13318   6.968   4.639   7.926  0.7182  0.4893 -1.7276
  125OSM   C15S13319   6.758   4.682   7.952 -0.6320  0.2519 -0.1408
  125OSM   H15S13320   6.716   4.581   7.932 -0.2558 -0.0579  0.5667
  125OSM   H15T13321   6.685   4.760   7.921  1.3820  2.0929 -0.4998
  125OSM   C16S13322   6.748   4.699   8.100  0.8593  0.1512 -0.2855
  125OSM   H16S13323   6.787   4.615   8.162 -0.3106 -0.1985  0.0134
  125OSM   H16T13324   6.645   4.703   8.140  1.5954  0.7723  1.6565
  125OSM   C17S13325   6.828   4.824   8.139 -0.0319 -0.0269 -0.6475
  125OSM   H17S13326   6.792   4.910   8.080  0.5052 -0.8362 -2.2321
  125OSM   H17T13327   6.935   4.807   8.112  0.8318 -1.0635  2.8460
  125OSM   C18S13328   6.809   4.858   8.292 -0.4341 -0.1992  0.4011
  125OSM   H18S13329   6.859   4.775   8.346 -0.7370 -1.5998 -1.3655
  125OSM   H18T13330   6.700   4.858   8.313 -0.7208  0.0005 -0.9781
  125OSM   H18U13331   6.859   4.956   8.307 -0.1929 -0.3905  0.8864
  125OSM    C1F13332   7.219   4.197   6.646 -0.3450 -1.3218 -0.0016
  125OSM     OF13333   7.306   4.285   6.634 -0.4009  0.7561 -0.1155
  125OSM    C2F13334   7.248   4.047   6.670 -0.3514  0.5803  0.2310
  125OSM    H2F13335   7.262   4.001   6.570  2.0788 -2.5016  1.8221
  125OSM    H2G13336   7.170   3.992   6.726  0.3244 -2.3916 -1.5106
  125OSM    C3F13337   7.376   4.012   6.747 -0.7573  0.2273  0.2082
  125OSM    H3F13338   7.468   4.042   6.693 -0.0218 -0.6508  0.9209
  125OSM    H3G13339   7.365   3.902   6.755  1.6838 -0.1529 -0.8748
  125OSM    C4F13340   7.376   4.065   6.890 -0.2931 -0.3612 -0.0116
  125OSM    H4F13341   7.403   4.173   6.893  0.6830 -0.6013  2.5927
  125OSM    H4G13342   7.443   4.004   6.955 -1.4671 -3.4266 -1.5274
  125OSM    C5F13343   7.245   4.060   6.965 -0.1577  0.7475 -0.7925
  125OSM    H5F13344   7.194   3.962   6.958 -0.6940  0.8493  1.2050
  125OSM    H5G13345   7.183   4.147   6.935 -0.6882  0.9939  0.8964
  125OSM    C6F13346   7.274   4.082   7.117  0.2576 -0.5354  0.4139
  125OSM    H6F13347   7.338   4.171   7.134 -0.6650 -0.0654  1.5865
  125OSM    H6G13348   7.317   3.989   7.160  1.0546 -1.1035 -1.4985
  125OSM    C7F13349   7.147   4.115   7.200 -0.2572  0.0470 -0.1181
  125OSM    H7F13350   7.069   4.050   7.155 -2.1379  1.8574  0.3752
  125OSM    H7G13351   7.109   4.216   7.172 -0.7265  0.3689  1.5803
  125OSM    C8F13352   7.165   4.102   7.350 -0.5125  0.4487  0.0969
  125OSM    H8F13353   7.197   3.998   7.372 -0.2003  0.1693 -1.5235
  125OSM    H8G13354   7.065   4.116   7.397 -0.0413 -0.9797  1.6149
  125OSM    C9F13355   7.254   4.207   7.406 -0.3538  0.1847 -0.2928
  125OSM    H9F13356   7.354   4.214   7.360 -1.6088 -0.1588 -3.3056
  125OSM   C10F13357   7.230   4.299   7.496  0.2915 -0.1667 -0.8644
  125OSM   H10F13358   7.316   4.359   7.528  0.8118 -0.5901 -1.4450
  125OSM   C11F13359   7.095   4.315   7.566  0.3932  0.0029 -1.0607
  125OSM   H11F13360   7.013   4.259   7.517  1.1198 -2.5984  0.5336
  125OSM   H11G13361   7.064   4.422   7.572  0.6955  0.1983 -2.4980
  125OSM   C12F13362   7.091   4.251   7.712 -0.2767 -0.5428  0.2587
  125OSM   H12F13363   7.140   4.152   7.706  2.8963  0.7872  1.6509
  125OSM   H12G13364   6.994   4.250   7.765 -0.7021 -1.0014 -0.5230
  125OSM   C13F13365   7.184   4.327   7.807 -0.1302  0.4008 -0.5808
  125OSM   H13F13366   7.176   4.436   7.788  1.1430  0.6272  0.0526
  125OSM   H13G13367   7.290   4.296   7.802  0.2830  1.3805  1.0519
  125OSM   C14F13368   7.144   4.305   7.952 -0.4060  0.3426 -0.5020
  125OSM   H14F13369   7.155   4.197   7.973 -1.9175  0.5201  1.5149
  125OSM   H14G13370   7.036   4.324   7.966 -0.2907 -0.5824  2.2582
  125OSM   C15F13371   7.228   4.388   8.055  0.5577  0.2874  0.7844
  125OSM   H15F13372   7.220   4.493   8.018 -0.1269  0.0419  0.2232
  125OSM   H15G13373   7.335   4.360   8.056  0.2670 -0.9148  2.1687
  125OSM   C16F13374   7.156   4.390   8.189 -0.3935 -0.1664  0.1202
  125OSM   H16F13375   7.117   4.288   8.206  0.5947 -0.5708 -0.0071
  125OSM   H16G13376   7.064   4.453   8.199 -0.4815 -0.4707  1.3829
  125OSM   C17F13377   7.265   4.418   8.293 -0.1724  0.3172 -0.2241
  125OSM   H17F13378   7.371   4.399   8.265 -0.4908 -1.2941 -0.4297
  125OSM   H17G13379   7.250   4.338   8.369 -2.4975  0.3489 -0.6006
  125OSM   C18F13380   7.239   4.552   8.369 -0.0011 -0.0535  0.7914
  125OSM   H18F13381   7.145   4.538   8.426  0.7559 -1.0339  1.8470
  125OSM   H18G13382   7.229   4.636   8.297  0.9250 -2.8198 -2.8954
  125OSM   H18H13383   7.321   4.568   8.442  0.0067 -0.0384  0.7799
  126OSM      N13384   4.929   1.576   6.510 -0.6685 -0.3787  0.0607
  126OSM    C1513385   4.908   1.490   6.396  0.5893  0.1217  0.2953
  126OSM   H15A13386   4.954   1.392   6.400  1.1964  0.4187  0.7824
  126OSM   H15B13387   4.947   1.536   6.307  0.7502 -1.5425 -0.5477
  126OSM   H15C13388   4.803   1.469   6.382  0.6325 -1.1635  1.5619
  126OSM    C1413389   4.860   1.707   6.490  0.0268 -0.5911  0.4666
  126OSM   H14A13390   4.884   1.752   6.395 -3.5351  0.3747 -0.1289
  126OSM   H14B13391   4.867   1.766   6.580 -0.8691 -0.3497  0.3844
  126OSM   H14C13392   4.754   1.685   6.484 -0.3320  1.2430 -0.7285
  126OSM    C1313393   4.889   1.513   6.634 -0.1049 -0.8214 -0.5659
  126OSM   H13A13394   4.947   1.421   6.638  1.2026 -0.0753 -1.6317
  126OSM   H13B13395   4.786   1.480   6.640 -0.8193 -0.2067 -5.5272
  126OSM   H13C13396   4.924   1.568   6.721  1.5628  0.7296 -2.1261
  126OSM    C1213397   5.077   1.612   6.532 -0.1591 -0.0452  0.2610
  126OSM   H12A13398   5.133   1.524   6.561  1.5948 -1.4928 -5.9997
  126OSM   H12B13399   5.075   1.675   6.619 -1.9761 -1.1376  1.0673
  126OSM    C1113400   5.146   1.688   6.414  0.3965  0.5434 -0.1863
  126OSM   H11A13401   5.095   1.786   6.399 -1.7057 -0.5724 -0.7182
  126OSM   H11B13402   5.123   1.632   6.321  3.4177  0.2635 -0.8770
  126OSM      P13403   5.378   1.583   6.393 -0.1145  0.0596  0.3025
  126OSM    O1313404   5.296   1.461   6.376 -0.5022  0.1517  0.7334
  126OSM    O1413405   5.464   1.625   6.278  0.3963  0.3602 -0.1696
  126OSM    O1113406   5.479   1.558   6.513 -0.0953 -0.3138 -0.2423
  126OSM    O1213407   5.287   1.704   6.440 -0.3837  0.2220  0.1281
  126OSM    C1S13408   5.419   1.532   6.644 -1.0200  0.1495  0.9665
  126OSM    H1S13409   5.370   1.432   6.641 -0.8602  0.0414  1.6482
  126OSM    H1T13410   5.346   1.608   6.677 -0.7669  1.3223 -1.0254
  126OSM     NF13411   5.474   1.474   6.879  0.4958  0.0972 -0.4469
  126OSM    HNF13412   5.445   1.527   6.958  0.5916  1.3240 -1.2065
  126OSM    C2S13413   5.539   1.527   6.757  0.3325  0.3935 -0.4207
  126OSM    H2S13414   5.626   1.464   6.728  3.1298  2.8428  1.8694
  126OSM    C3S13415   5.600   1.673   6.757 -0.0287  0.6197  0.3644
  126OSM    H3S13416   5.524   1.750   6.782 -0.3790  0.6615 -0.7704
  126OSM     O313417   5.660   1.709   6.634 -0.1950  0.4790  0.7334
  126OSM    HO313418   5.608   1.659   6.571  0.5891  0.4266  0.1166
  126OSM    C4S13419   5.694   1.687   6.879 -0.8146  0.5786 -0.8336
  126OSM    H4S13420   5.639   1.715   6.971 -0.4760 -0.9867 -0.1278
  126OSM    C5S13421   5.830   1.670   6.885 -0.2261 -0.2625 -0.0294
  126OSM    H5S13422   5.889   1.648   6.795  0.6504 -2.2696  0.9769
  126OSM    C6S13423   5.924   1.696   7.002  0.3026  0.1259 -0.4076
  126OSM    H6S13424   5.984   1.783   6.968 -0.1731  0.7721  0.3760
  126OSM    H6T13425   5.991   1.608   7.010  3.5810  2.2000 -2.7981
  126OSM    C7S13426   5.850   1.731   7.131 -1.0466  0.2063 -0.1853
  126OSM    H7S13427   5.776   1.654   7.161  1.2541 -1.6180  1.1647
  126OSM    H7T13428   5.814   1.836   7.121  0.0143  0.6660  0.6002
  126OSM    C8S13429   5.953   1.733   7.254  0.0273  0.2152  0.7256
  126OSM    H8S13430   6.045   1.795   7.252 -0.1459  0.6940  3.4201
  126OSM    H8T13431   6.003   1.634   7.251  1.0280  0.7174 -2.4865
  126OSM    C9S13432   5.879   1.746   7.389 -0.5382 -0.8941 -0.4792
  126OSM    H9S13433   5.797   1.671   7.395 -0.7136 -0.6734 -0.0827
  126OSM    H9T13434   5.841   1.850   7.377  1.0877 -0.1849  0.2747
  126OSM   C10S13435   5.959   1.745   7.513  0.4048 -0.1283  0.0546
  126OSM   H10S13436   6.031   1.830   7.518 -1.6020  1.6088  1.6896
  126OSM   H10T13437   6.018   1.651   7.516  1.9981  0.8567  1.1027
  126OSM   C11S13438   5.878   1.770   7.647 -0.0440  0.2021 -0.5702
  126OSM   H11S13439   5.795   1.696   7.653  0.6235 -0.4548  1.3153
  126OSM   H11T13440   5.830   1.870   7.643 -2.8505 -0.9179  1.5507
  126OSM   C12S13441   5.953   1.746   7.779  0.0812  0.0005  1.0838
  126OSM   H12S13442   6.044   1.810   7.780 -0.1183  0.4272 -1.4552
  126OSM   H12T13443   5.994   1.643   7.782  1.3508  0.4078 -0.5817
  126OSM   C13S13444   5.868   1.771   7.897  0.5942 -0.1711 -0.3641
  126OSM   H13S13445   5.769   1.722   7.885 -1.2473  2.5450  2.3234
  126OSM   H13T13446   5.843   1.873   7.933  2.0879 -0.1386  0.6861
  126OSM   C14S13447   5.926   1.704   8.023 -0.6729 -0.1757  0.7108
  126OSM   H14S13448   6.014   1.767   8.049 -0.6027  0.6949 -1.4347
  126OSM   H14T13449   5.960   1.601   7.998 -1.5886 -0.6154  1.2607
  126OSM   C15S13450   5.830   1.705   8.137 -0.6070  0.2182 -0.2877
  126OSM   H15S13451   5.726   1.697   8.099 -1.5004  1.0512  1.8348
  126OSM   H15T13452   5.825   1.807   8.179 -0.8270  0.4947 -0.9699
  126OSM   C16S13453   5.861   1.600   8.246 -1.0619 -0.2788 -0.0732
  126OSM   H16S13454   5.912   1.518   8.192 -0.8591  0.5654 -1.1897
  126OSM   H16T13455   5.767   1.555   8.284 -1.1538  0.9019  1.2013
  126OSM   C17S13456   5.937   1.644   8.374 -0.4681 -0.1827 -0.4393
  126OSM   H17S13457   5.867   1.712   8.426  0.6224 -0.1216  1.0275
  126OSM   H17T13458   6.025   1.702   8.339 -1.3117  0.6289 -1.2697
  126OSM   C18S13459   5.977   1.525   8.467  0.5726  0.0137 -0.7528
  126OSM   H18S13460   6.071   1.475   8.433  0.7923 -0.0018 -0.1490
  126OSM   H18T13461   5.904   1.445   8.493  1.7705 -0.1402  2.6503
  126OSM   H18U13462   6.012   1.557   8.568  0.6128  0.2884 -0.8534
  126OSM    C1F13463   5.431   1.351   6.886 -0.4023  0.1130  0.1264
  126OSM     OF13464   5.441   1.268   6.798 -0.2139  0.1117 -0.3583
  126OSM    C2F13465   5.351   1.326   7.013  0.0030  0.4953  0.3556
  126OSM    H2F13466   5.269   1.252   7.003 -1.0126  1.6901 -0.5327
  126OSM    H2G13467   5.282   1.412   7.029  0.5614  0.7029  1.7662
  126OSM    C3F13468   5.441   1.290   7.131 -0.2270  0.6032  0.3513
  126OSM    H3F13469   5.500   1.378   7.162  2.0646 -1.1133  1.0975
  126OSM    H3G13470   5.516   1.213   7.104 -1.8494 -0.6695 -0.7561
  126OSM    C4F13471   5.367   1.229   7.257  0.2155 -0.0741 -0.0114
  126OSM    H4F13472   5.448   1.183   7.318  0.3039  0.0749 -0.0163
  126OSM    H4G13473   5.298   1.149   7.223  1.1126 -1.9657  2.2932
  126OSM    C5F13474   5.289   1.336   7.318 -0.6111  0.0697  0.6156
  126OSM    H5F13475   5.226   1.394   7.248 -0.5990 -0.9500 -0.2548
  126OSM    H5G13476   5.347   1.423   7.355 -1.1199  0.8123 -0.3031
  126OSM    C6F13477   5.205   1.280   7.431 -0.3629  0.7681 -1.0994
  126OSM    H6F13478   5.270   1.223   7.501  0.0066  0.1532 -1.9255
  126OSM    H6G13479   5.131   1.212   7.384 -1.8451 -0.0272  2.1286
  126OSM    C7F13480   5.130   1.387   7.509 -0.9592  0.4166  0.3765
  126OSM    H7F13481   5.048   1.410   7.438 -0.4332 -1.6657 -0.9936
  126OSM    H7G13482   5.199   1.468   7.540  2.1876 -1.7000 -0.6473
  126OSM    C8F13483   5.087   1.338   7.646  0.0084  0.5050  0.3046
  126OSM    H8F13484   5.181   1.330   7.703  1.3355 -0.2025 -1.8598
  126OSM    H8G13485   5.029   1.243   7.636 -2.1012  1.9286 -2.6775
  126OSM    C9F13486   5.002   1.438   7.707 -1.1308  0.5152  0.2617
  126OSM    H9F13487   4.926   1.477   7.638  0.7323  1.4365 -1.3807
  126OSM   C10F13488   5.005   1.478   7.836  0.4507 -0.3754 -0.6450
  126OSM   H10F13489   4.932   1.555   7.865  0.6417  0.2218 -1.6899
  126OSM   C11F13490   5.103   1.441   7.942 -0.4266 -0.3367 -0.4876
  126OSM   H11F13491   5.202   1.488   7.923  0.9464 -1.5405  2.8927
  126OSM   H11G13492   5.119   1.332   7.956  0.6180  0.1776  3.7302
  126OSM   C12F13493   5.077   1.496   8.087 -0.0847  0.5139 -0.5028
  126OSM   H12F13494   5.098   1.605   8.087 -0.3150  0.6117  1.7411
  126OSM   H12G13495   5.162   1.450   8.141 -0.7220 -1.2772 -0.9513
  126OSM   C13F13496   4.939   1.458   8.159  0.1426 -0.7683 -0.1224
  126OSM   H13F13497   4.854   1.505   8.104  1.2625 -1.0825 -2.2206
  126OSM   H13G13498   4.949   1.502   8.261  1.4483 -1.9840  0.2965
  126OSM   C14F13499   4.928   1.310   8.183 -0.0596  0.2436  0.2103
  126OSM   H14F13500   4.997   1.271   8.261 -1.4182  0.7555  1.7253
  126OSM   H14G13501   4.945   1.262   8.085  0.6057  0.0878  0.4008
  126OSM   C15F13502   4.785   1.268   8.212 -0.2778  0.8221  0.1491
  126OSM   H15F13503   4.757   1.171   8.167  0.0547  0.5449  0.5244
  126OSM   H15G13504   4.725   1.342   8.155 -2.7941 -1.1527  0.0751
  126OSM   C16F13505   4.747   1.254   8.359  0.2847  0.7178 -0.4499
  126OSM   H16F13506   4.766   1.356   8.400  2.3743  0.0522  0.3800
  126OSM   H16G13507   4.811   1.184   8.417 -1.2429  0.5695  1.1333
  126OSM   C17F13508   4.600   1.225   8.372  0.9832  0.0936  0.5698
  126OSM   H17F13509   4.576   1.156   8.288 -0.8406  1.9979 -0.5641
  126OSM   H17G13510   4.536   1.305   8.331 -0.3817 -1.8850 -1.4083
  126OSM   C18F13511   4.545   1.171   8.501 -0.6731 -0.4424 -0.2150
  126OSM   H18F13512   4.551   1.254   8.574 -0.0541 -0.0943 -0.6548
  126OSM   H18G13513   4.610   1.090   8.540  1.0469  0.8272 -0.3416
  126OSM   H18H13514   4.438   1.141   8.494 -0.4931 -1.7265  1.6203
  127OSM      N13515   3.043   2.390   6.097 -0.2797 -0.2975  0.9976
  127OSM    C1513516   3.197   2.394   6.099  0.4319 -0.4503 -0.1123
  127OSM   H15A13517   3.239   2.465   6.028 -0.3676 -0.4453 -0.5989
  127OSM   H15B13518   3.240   2.297   6.079  0.2583 -0.4362 -0.5953
  127OSM   H15C13519   3.222   2.425   6.199  1.7154 -0.2338 -0.4824
  127OSM    C1413520   2.983   2.524   6.135  0.1214 -1.0433 -0.2505
  127OSM   H14A13521   2.996   2.544   6.240  0.3652  2.0020 -0.7734
  127OSM   H14B13522   2.876   2.515   6.125  0.0705  0.4573 -1.3753
  127OSM   H14C13523   3.018   2.603   6.071  0.5530  0.1681  1.4249
  127OSM    C1313524   3.010   2.352   5.953 -0.6366  0.4086 -0.3283
  127OSM   H13A13525   3.061   2.422   5.888 -1.4610  2.1756  0.8317
  127OSM   H13B13526   2.902   2.349   5.951 -0.9668  2.1968  3.7816
  127OSM   H13C13527   3.063   2.259   5.941  1.5262  0.7638  4.1161
  127OSM    C1213528   3.001   2.276   6.189 -0.2169  0.0734 -0.0901
  127OSM   H12A13529   3.070   2.263   6.271 -0.4645  0.8435  0.2411
  127OSM   H12B13530   3.021   2.187   6.130  1.4690  0.3276  0.0643
  127OSM    C1113531   2.854   2.266   6.238  0.0533  0.9187  0.0054
  127OSM   H11A13532   2.814   2.169   6.274 -0.7650  1.2733  0.0599
  127OSM   H11B13533   2.791   2.305   6.156  0.9037  2.0753 -0.1212
  127OSM      P13534   2.912   2.345   6.485  0.1552 -0.5130 -0.2713
  127OSM    O1313535   3.055   2.389   6.472  0.4857  0.0363 -0.1290
  127OSM    O1413536   2.841   2.423   6.589  0.5270  0.0394  0.1547
  127OSM    O1113537   2.904   2.191   6.505 -0.2295  0.5679  0.1270
  127OSM    O1213538   2.835   2.358   6.344  0.5265  0.2302 -0.0727
  127OSM    C1S13539   2.975   2.131   6.618 -0.0626 -0.2116 -0.1659
  127OSM    H1S13540   3.001   2.212   6.690 -1.5757  1.8918 -1.8704
  127OSM    H1T13541   3.073   2.087   6.589 -0.2171 -2.4172  2.2095
  127OSM     NF13542   2.983   1.973   6.807  0.8697  0.3442  0.2789
  127OSM    HNF13543   3.008   1.877   6.808 -2.0971 -0.5545  1.7652
  127OSM    C2S13544   2.893   2.022   6.701 -0.1693 -0.4079 -0.3798
  127OSM    H2S13545   2.802   2.068   6.745  0.1942 -0.1345  0.0954
  127OSM    C3S13546   2.841   1.914   6.602 -0.0554  0.4726  0.4681
  127OSM    H3S13547   2.924   1.854   6.559 -2.5666 -2.4715 -0.6473
  127OSM     O313548   2.775   1.963   6.488 -0.4226  0.0949  0.1664
  127OSM    HO313549   2.797   2.056   6.480 -0.5032  0.0075 -1.3673
  127OSM    C4S13550   2.759   1.827   6.681 -0.4434 -0.1528  0.2242
  127OSM    H4S13551   2.664   1.875   6.710 -1.8957 -2.2809 -0.6901
  127OSM    C5S13552   2.779   1.701   6.728  0.0308  0.1998 -0.3839
  127OSM    H5S13553   2.871   1.643   6.710 -0.8501 -2.3795  2.5284
  127OSM    C6S13554   2.689   1.612   6.811  0.0977  0.2281 -0.3945
  127OSM    H6S13555   2.728   1.508   6.816  2.0987  0.9737  0.8911
  127OSM    H6T13556   2.592   1.608   6.759  0.4374  1.6304 -1.1903
  127OSM    C7S13557   2.660   1.675   6.946 -0.1864 -0.1380  0.2953
  127OSM    H7S13558   2.609   1.773   6.934  1.4180  0.8292  1.1468
  127OSM    H7T13559   2.758   1.692   6.995  0.5152 -0.9307 -0.7878
  127OSM    C8S13560   2.565   1.593   7.039 -0.1610  1.0646 -0.1092
  127OSM    H8S13561   2.595   1.486   7.029 -1.8897  0.5637 -0.2692
  127OSM    H8T13562   2.467   1.590   6.988  1.5181 -2.5649 -3.6492
  127OSM    C9S13563   2.549   1.649   7.176 -0.0152 -0.3284 -0.3186
  127OSM    H9S13564   2.480   1.587   7.237  0.8751 -1.1815 -0.1402
  127OSM    H9T13565   2.502   1.749   7.168  2.0598  0.5842 -2.5072
  127OSM   C10S13566   2.676   1.663   7.263 -0.2611 -0.1191 -0.1165
  127OSM   H10S13567   2.710   1.767   7.243  1.6209 -0.6440  0.1876
  127OSM   H10T13568   2.750   1.593   7.218 -2.4558 -2.0106 -0.9792
  127OSM   C11S13569   2.653   1.638   7.418 -0.1699 -0.3434  0.2210
  127OSM   H11S13570   2.570   1.696   7.463  0.7749  0.6452  0.7300
  127OSM   H11T13571   2.748   1.665   7.469  1.3528  0.4009 -2.7570
  127OSM   C12S13572   2.636   1.485   7.440 -0.3434  0.7015  0.3838
  127OSM   H12S13573   2.730   1.426   7.446 -1.2180 -0.6459  1.5122
  127OSM   H12T13574   2.574   1.440   7.359 -0.4109  1.0484  0.2402
  127OSM   C13S13575   2.545   1.459   7.562 -0.3518 -0.3118 -0.1281
  127OSM   H13S13576   2.504   1.356   7.569 -0.9710  0.0166  1.6939
  127OSM   H13T13577   2.453   1.520   7.556 -1.2195 -1.3945  1.2951
  127OSM   C14S13578   2.618   1.481   7.691  0.7141  0.2670 -0.4326
  127OSM   H14S13579   2.657   1.585   7.688 -1.2034  1.0325 -0.2926
  127OSM   H14T13580   2.711   1.421   7.699  1.2506  1.1319 -0.0040
  127OSM   C15S13581   2.529   1.462   7.817  0.0842 -0.2143 -0.3565
  127OSM   H15S13582   2.497   1.356   7.833  3.3558 -1.4752 -1.3015
  127OSM   H15T13583   2.440   1.528   7.810  0.3494  0.3684  1.3479
  127OSM   C16S13584   2.620   1.481   7.944 -0.3117  0.0060  0.5412
  127OSM   H16S13585   2.655   1.586   7.932  2.1573 -0.9071 -1.2891
  127OSM   H16T13586   2.711   1.421   7.919 -0.3113 -0.1538  0.9145
  127OSM   C17S13587   2.548   1.437   8.073  0.1272  0.0012 -0.0995
  127OSM   H17S13588   2.618   1.455   8.158 -0.0764 -2.3559  0.6526
  127OSM   H17T13589   2.544   1.326   8.083 -0.5551  0.0272 -0.0728
  127OSM   C18S13590   2.416   1.508   8.093  0.1619  0.2623  1.2123
  127OSM   H18S13591   2.351   1.472   8.176 -4.0812 -0.4737 -2.0564
  127OSM   H18T13592   2.351   1.492   8.004  2.6664 -0.8756 -0.5195
  127OSM   H18U13593   2.425   1.617   8.113 -1.0922  0.8375 -0.9664
  127OSM    C1F13594   3.014   2.056   6.911 -0.8924 -0.0218 -0.2676
  127OSM     OF13595   2.957   2.158   6.928  0.3547 -0.1033 -0.2649
  127OSM    C2F13596   3.121   2.006   7.011 -0.7436 -0.4789 -0.0004
  127OSM    H2F13597   3.169   1.916   6.968  0.6267  0.6698 -0.9640
  127OSM    H2G13598   3.067   1.977   7.104 -1.2710 -0.1739 -0.2130
  127OSM    C3F13599   3.236   2.102   7.050 -0.4494 -0.8900 -0.3594
  127OSM    H3F13600   3.189   2.189   7.099  1.4940 -0.2582  0.4407
  127OSM    H3G13601   3.286   2.135   6.957 -2.2849 -0.6454 -1.3233
  127OSM    C4F13602   3.325   2.036   7.157 -0.2809 -0.2667 -0.9529
  127OSM    H4F13603   3.420   2.093   7.165 -0.8764  0.5655  0.4688
  127OSM    H4G13604   3.325   1.928   7.130 -1.8737 -0.2914 -0.9053
  127OSM    C5F13605   3.261   2.049   7.299  0.3314  0.0142 -0.0760
  127OSM    H5F13606   3.171   1.987   7.320 -0.4454  0.7082 -1.2596
  127OSM    H5G13607   3.232   2.156   7.304 -1.5951 -0.3800 -1.5783
  127OSM    C6F13608   3.367   2.026   7.410 -0.5487  0.3214 -0.5615
  127OSM    H6F13609   3.465   2.077   7.414 -0.2751 -0.2447  2.2977
  127OSM    H6G13610   3.399   1.919   7.406 -1.6947 -0.0054 -1.9223
  127OSM    C7F13611   3.313   2.056   7.546 -0.0161 -0.0724 -0.2714
  127OSM    H7F13612   3.239   1.977   7.574  1.4140 -0.8862  1.3901
  127OSM    H7G13613   3.258   2.152   7.532 -3.2763 -2.0101 -2.2096
  127OSM    C8F13614   3.425   2.040   7.656 -0.0355  0.9799  0.4023
  127OSM    H8F13615   3.396   2.107   7.740  1.7997  0.9713  1.0764
  127OSM    H8G13616   3.510   2.090   7.605 -0.6030  2.7202  1.0982
  127OSM    C9F13617   3.470   1.896   7.701  0.2400  0.4227 -0.0984
  127OSM    H9F13618   3.479   1.827   7.616  1.2080 -0.7541  0.9244
  127OSM   C10F13619   3.462   1.837   7.820  0.0196  0.2733 -0.2647
  127OSM   H10F13620   3.495   1.733   7.835  2.4100  1.1595  1.1541
  127OSM   C11F13621   3.412   1.914   7.943 -0.0354 -1.1279 -0.5316
  127OSM   H11F13622   3.346   1.840   7.995  0.2973 -1.4398 -0.5501
  127OSM   H11G13623   3.346   2.000   7.917  0.6951  0.1564  1.6137
  127OSM   C12F13624   3.532   1.978   8.018 -0.6303  0.4136  0.6676
  127OSM   H12F13625   3.569   2.060   7.954  0.1111 -0.0668  0.4698
  127OSM   H12G13626   3.605   1.895   8.033 -2.5044 -1.6458 -0.8234
  127OSM   C13F13627   3.484   2.010   8.157 -0.3681 -0.3002 -0.7932
  127OSM   H13F13628   3.459   1.911   8.201  1.7341 -0.3696  0.3987
  127OSM   H13G13629   3.400   2.082   8.148  1.1149  1.3417 -1.9904
  127OSM   C14F13630   3.591   2.061   8.257 -0.3146  0.2541 -0.1777
  127OSM   H14F13631   3.646   2.149   8.218 -0.1919  0.6209  0.8089
  127OSM   H14G13632   3.670   1.984   8.270 -1.3201 -0.3232  3.5898
  127OSM   C15F13633   3.538   2.095   8.398 -0.0189 -0.8529 -0.6964
  127OSM   H15F13634   3.513   1.999   8.449  0.8594 -1.5609 -1.5573
  127OSM   H15G13635   3.441   2.146   8.384 -0.0016 -0.4887  0.3800
  127OSM   C16F13636   3.633   2.171   8.487 -0.0041  0.1833 -0.4041
  127OSM   H16F13637   3.654   2.271   8.444 -2.1859  1.2248  0.8049
  127OSM   H16G13638   3.729   2.114   8.494  1.8269  3.1167  0.1314
  127OSM   C17F13639   3.571   2.188   8.636  0.3463 -0.1817  0.1552
  127OSM   H17F13640   3.494   2.268   8.633  1.8904  1.3772 -3.0116
  127OSM   H17G13641   3.650   2.234   8.700  0.8725 -0.9880  0.1049
  127OSM   C18F13642   3.511   2.061   8.713 -0.2524 -0.8530  1.2222
  127OSM   H18F13643   3.437   2.005   8.651  1.6871 -1.8583 -0.3257
  127OSM   H18G13644   3.471   2.089   8.812 -1.6924 -0.2570  0.5026
  127OSM   H18H13645   3.602   2.000   8.730 -0.7301 -2.3002 -0.9863
  128OSM      N13646   2.994   5.892   5.911  0.0050 -0.2470 -0.3548
  128OSM    C1513647   2.911   5.797   5.838  0.6925  0.2876 -0.3541
  128OSM   H15A13648   2.944   5.786   5.736  1.7015  0.1685 -0.0244
  128OSM   H15B13649   2.806   5.824   5.839  0.5758 -0.0421 -1.5906
  128OSM   H15C13650   2.917   5.704   5.891 -0.8625  0.8273  0.8454
  128OSM    C1413651   3.132   5.854   5.877  0.4873  0.3044  1.0637
  128OSM   H14A13652   3.140   5.892   5.776 -3.1698  1.1720  0.9570
  128OSM   H14B13653   3.148   5.749   5.893 -1.9659 -0.2559  0.1858
  128OSM   H14C13654   3.206   5.904   5.939 -1.1110  1.4577  2.1341
  128OSM    C1313655   2.954   6.031   5.865  0.2136  0.0220  0.6626
  128OSM   H13A13656   2.855   6.033   5.823  0.5694  1.7246 -0.1600
  128OSM   H13B13657   3.024   6.063   5.789 -1.7399  1.2174 -0.6985
  128OSM   H13C13658   2.938   6.097   5.949 -2.4852 -0.5881  0.7086
  128OSM    C1213659   2.969   5.863   6.060 -0.0127  0.0334 -0.1682
  128OSM   H12A13660   2.971   5.755   6.069  1.5847 -0.1618 -2.0678
  128OSM   H12B13661   2.865   5.886   6.077  0.4489  0.0190  3.3933
  128OSM    C1113662   3.047   5.933   6.173 -0.1436  0.0410 -0.5430
  128OSM   H11A13663   3.148   5.888   6.170 -0.1382  0.0694 -0.8337
  128OSM   H11B13664   2.999   5.893   6.265  0.4700  1.5393  0.4563
  128OSM      P13665   2.950   6.168   6.233  0.4406 -0.2680 -0.1817
  128OSM    O1313666   3.011   6.304   6.238 -0.2667  0.2349  0.6326
  128OSM    O1413667   2.815   6.150   6.178  0.3984 -0.4422 -0.9001
  128OSM    O1113668   2.955   6.104   6.373 -0.3211  0.0747 -0.3255
  128OSM    O1213669   3.052   6.070   6.158 -0.4147  0.1415 -0.3616
  128OSM    C1S13670   3.076   6.130   6.452  0.2935  0.5714 -0.1040
  128OSM    H1S13671   3.129   6.226   6.436  1.1295  0.5859  2.3100
  128OSM    H1T13672   3.151   6.051   6.430  0.3903  1.4869 -3.5914
  128OSM     NF13673   3.177   6.145   6.669 -0.0531  0.1337 -0.3559
  128OSM    HNF13674   3.231   6.076   6.717  0.7189  0.6526 -0.4630
  128OSM    C2S13675   3.052   6.107   6.607  0.6368  0.5658 -0.1761
  128OSM    H2S13676   2.971   6.178   6.633 -1.9809 -1.7743 -1.3803
  128OSM    C3S13677   2.992   5.968   6.640 -0.1556  0.0114  0.1327
  128OSM    H3S13678   3.068   5.887   6.637 -1.7573 -1.6560  2.1085
  128OSM     O313679   2.889   5.927   6.563  0.1219  0.5711  0.7603
  128OSM    HO313680   2.890   5.964   6.474 -2.2445  1.9949  1.2270
  128OSM    C4S13681   2.948   5.959   6.787  0.0075  0.0404 -0.2171
  128OSM    H4S13682   3.022   5.916   6.855  0.4139  0.4963 -0.3640
  128OSM    C5S13683   2.819   5.985   6.833 -0.0746  0.3818  0.5402
  128OSM    H5S13684   2.740   6.017   6.764 -0.5841 -1.0771  0.4102
  128OSM    C6S13685   2.758   5.958   6.968  0.2443 -0.4017 -0.4587
  128OSM    H6S13686   2.694   5.868   6.967 -1.8121  0.9751 -2.1206
  128OSM    H6T13687   2.706   6.050   7.001 -0.7277 -0.7145 -1.0757
  128OSM    C7S13688   2.867   5.932   7.078  1.7608  0.0754 -0.7765
  128OSM    H7S13689   2.944   6.011   7.067  0.1963  1.8721  0.4144
  128OSM    H7T13690   2.923   5.838   7.063  1.1375 -0.5582  0.6488
  128OSM    C8S13691   2.808   5.926   7.222  0.1839  0.4343 -0.2642
  128OSM    H8S13692   2.711   5.873   7.227 -0.4883  1.1793 -3.2079
  128OSM    H8T13693   2.786   6.022   7.273  1.6275 -0.2892  1.8526
  128OSM    C9S13694   2.907   5.859   7.322 -0.3024 -0.4491  0.7480
  128OSM    H9S13695   3.004   5.915   7.324  0.2970 -1.4106 -0.4859
  128OSM    H9T13696   2.930   5.753   7.302 -2.3097 -1.2036  2.1264
  128OSM   C10S13697   2.875   5.872   7.467  0.5390 -0.0001 -0.0556
  128OSM   H10S13698   2.837   5.974   7.490  0.0374 -0.7467  2.8514
  128OSM   H10T13699   2.964   5.854   7.531 -0.3687 -0.7555  1.0418
  128OSM   C11S13700   2.775   5.759   7.502 -0.1614  0.6107  0.2465
  128OSM   H11S13701   2.813   5.660   7.467  0.5528 -0.5625  3.9319
  128OSM   H11T13702   2.682   5.775   7.444 -0.9390  1.5103  1.6751
  128OSM   C12S13703   2.730   5.753   7.651 -0.3386 -0.0369 -0.1477
  128OSM   H12S13704   2.658   5.669   7.657 -2.0167  1.0170 -3.1351
  128OSM   H12T13705   2.682   5.852   7.668  0.7976  0.3299  1.1245
  128OSM   C13S13706   2.846   5.725   7.746  0.4784 -0.3440 -0.6308
  128OSM   H13S13707   2.909   5.816   7.743  0.5886 -0.4419 -1.3549
  128OSM   H13T13708   2.906   5.640   7.707  1.1885  0.2395 -0.8493
  128OSM   C14S13709   2.789   5.696   7.882  0.7053 -0.0976  0.0444
  128OSM   H14S13710   2.763   5.589   7.875  0.8337 -0.1482  0.3017
  128OSM   H14T13711   2.698   5.758   7.893  1.1952  0.8688 -1.1151
  128OSM   C15S13712   2.888   5.705   8.006  0.2901  0.5285 -0.4454
  128OSM   H15S13713   2.916   5.812   8.015 -0.2754  0.6591 -0.1899
  128OSM   H15T13714   2.981   5.649   7.983  0.0621 -0.4970  1.0311
  128OSM   C16S13715   2.810   5.670   8.137 -0.1931 -0.5205  0.3785
  128OSM   H16S13716   2.773   5.565   8.134 -3.4184  0.5370 -1.4269
  128OSM   H16T13717   2.716   5.729   8.146 -0.4364 -0.7031 -0.7383
  128OSM   C17S13718   2.904   5.718   8.255  0.3444 -0.2052 -0.1370
  128OSM   H17S13719   2.926   5.825   8.237 -0.7451  0.2509  1.1454
  128OSM   H17T13720   3.000   5.665   8.237  1.0284  1.1044 -0.4562
  128OSM   C18S13721   2.851   5.695   8.395  0.0794 -0.4367 -0.3353
  128OSM   H18S13722   2.940   5.691   8.461 -0.0797  2.4529  0.1775
  128OSM   H18T13723   2.795   5.601   8.411  2.9641 -1.9980  1.4137
  128OSM   H18U13724   2.791   5.777   8.440  0.6003 -0.5281  0.5520
  128OSM    C1F13725   3.223   6.268   6.688  0.2654 -0.2544  0.1814
  128OSM     OF13726   3.154   6.362   6.653 -0.0508 -0.6801 -0.4212
  128OSM    C2F13727   3.350   6.290   6.772 -0.0918  0.0325 -0.0721
  128OSM    H2F13728   3.427   6.329   6.702 -1.2529 -0.3233 -1.6207
  128OSM    H2G13729   3.385   6.190   6.804  0.7882 -0.1669 -1.5475
  128OSM    C3F13730   3.323   6.394   6.887  1.3663  0.0185  0.2464
  128OSM    H3F13731   3.302   6.491   6.836 -0.2221  0.1807  1.1744
  128OSM    H3G13732   3.415   6.399   6.950  2.1242  0.8391 -0.8737
  128OSM    C4F13733   3.202   6.357   6.973 -0.2904  0.3737 -0.1459
  128OSM    H4F13734   3.114   6.314   6.920  0.1748 -0.2049 -0.4628
  128OSM    H4G13735   3.171   6.452   7.021  1.1510  0.2045  1.2006
  128OSM    C5F13736   3.251   6.268   7.096 -0.3751 -0.1386  0.1820
  128OSM    H5F13737   3.330   6.320   7.155  0.4903 -0.7892 -0.3688
  128OSM    H5G13738   3.305   6.179   7.057 -0.6362 -0.9731  1.6719
  128OSM    C6F13739   3.132   6.212   7.177 -0.4040  0.9220 -0.1783
  128OSM    H6F13740   3.149   6.105   7.201 -0.1493  0.7452 -1.0795
  128OSM    H6G13741   3.053   6.211   7.099  1.2922  0.0641 -1.9852
  128OSM    C7F13742   3.097   6.297   7.297 -0.3833  0.0461  0.1075
  128OSM    H7F13743   3.034   6.383   7.266 -0.1191  1.2652  2.6677
  128OSM    H7G13744   3.190   6.347   7.332 -1.8911  1.7466  1.8741
  128OSM    C8F13745   3.039   6.226   7.425 -0.6585 -0.0954  0.2069
  128OSM    H8F13746   2.940   6.179   7.405 -0.5321 -0.5224  0.5629
  128OSM    H8G13747   3.019   6.309   7.496 -0.8384 -1.5006  1.8646
  128OSM    C9F13748   3.131   6.130   7.492  0.2881  0.4276  0.1577
  128OSM    H9F13749   3.203   6.085   7.422 -2.5262 -2.4629 -1.1174
  128OSM   C10F13750   3.139   6.107   7.627  0.7388  0.4839 -0.1227
  128OSM   H10F13751   3.207   6.032   7.669 -0.7787 -0.7718  0.2032
  128OSM   C11F13752   3.043   6.161   7.726  0.6335 -0.3751  0.2741
  128OSM   H11F13753   2.988   6.076   7.769  3.0075 -1.0256  2.2376
  128OSM   H11G13754   2.981   6.238   7.675 -0.8728 -0.8396  1.3617
  128OSM   C12F13755   3.136   6.222   7.834 -0.0358 -0.3680  0.2019
  128OSM   H12F13756   3.188   6.308   7.788 -1.1403 -0.2425 -0.8590
  128OSM   H12G13757   3.209   6.146   7.870  0.3794  0.4137  1.0686
  128OSM   C13F13758   3.057   6.271   7.952  0.7149 -0.4239 -0.0595
  128OSM   H13F13759   3.009   6.185   8.005 -2.7567  0.4076 -1.5925
  128OSM   H13G13760   2.983   6.340   7.906  2.1709  0.2290 -1.5382
  128OSM   C14F13761   3.143   6.342   8.046  0.2473 -0.1642 -0.5002
  128OSM   H14F13762   3.184   6.436   8.004 -0.7766  0.1488 -0.8362
  128OSM   H14G13763   3.231   6.279   8.069 -1.6977 -1.9576  2.8647
  128OSM   C15F13764   3.061   6.378   8.180 -0.7786 -0.2313  0.6060
  128OSM   H15F13765   2.974   6.439   8.149 -0.9360 -0.1848  1.1280
  128OSM   H15G13766   3.130   6.448   8.232  1.0535 -1.8393  0.4590
  128OSM   C16F13767   3.026   6.266   8.272  0.0286  0.2333  0.2087
  128OSM   H16F13768   3.106   6.190   8.286  0.0531  0.4596  1.4121
  128OSM   H16G13769   2.935   6.220   8.228  0.5521  2.2213 -3.3062
  128OSM   C17F13770   2.984   6.323   8.412 -0.4723 -0.4144  0.6057
  128OSM   H17F13771   2.887   6.376   8.398  0.8351  1.5884 -1.5839
  128OSM   H17G13772   3.055   6.405   8.436  0.5533 -0.1075 -2.9720
  128OSM   C18F13773   2.970   6.210   8.510 -0.5788 -0.3573 -0.1715
  128OSM   H18F13774   2.900   6.128   8.483  1.8163 -2.6552  0.1055
  128OSM   H18G13775   2.931   6.245   8.609  1.2481 -2.1316  1.2728
  128OSM   H18H13776   3.068   6.161   8.529  1.0350  2.2161 -1.4490
  129OSM      N13777   6.430   6.435   5.854  0.1600  0.4830 -0.1083
  129OSM    C1513778   6.293   6.453   5.806  0.0122 -0.4283 -0.0658
  129OSM   H15A13779   6.254   6.551   5.827  2.6304  0.6546  0.0089
  129OSM   H15B13780   6.225   6.386   5.857 -0.4983  2.1038  2.8562
  129OSM   H15C13781   6.288   6.433   5.700  0.9689 -2.5934  0.2392
  129OSM    C1413782   6.477   6.305   5.805 -0.6225 -0.2662 -0.0172
  129OSM   H14A13783   6.482   6.310   5.698  1.4076  0.3219  0.0704
  129OSM   H14B13784   6.423   6.219   5.843 -0.1287 -0.1314  1.0241
  129OSM   H14C13785   6.580   6.281   5.826  0.0968  0.7881 -2.1088
  129OSM    C1313786   6.521   6.530   5.798 -0.3182 -0.7586  0.2062
  129OSM   H13A13787   6.490   6.633   5.811 -0.1188 -0.7207  0.3810
  129OSM   H13B13788   6.517   6.513   5.691 -2.2091 -0.5409  0.2170
  129OSM   H13C13789   6.623   6.524   5.835  1.1402  2.2381 -2.7053
  129OSM    C1213790   6.436   6.444   6.006 -0.2781  0.2803  0.5755
  129OSM   H12A13791   6.402   6.542   6.036 -0.1763  1.3082 -2.3635
  129OSM   H12B13792   6.535   6.450   6.048 -0.0464  4.6091 -0.1788
  129OSM    C1113793   6.360   6.342   6.095 -0.5430  0.0748  0.0452
  129OSM   H11A13794   6.406   6.358   6.195  0.7331  0.0883 -0.5228
  129OSM   H11B13795   6.393   6.239   6.071  3.0716  0.8832  0.8821
  129OSM      P13796   6.138   6.466   6.149  0.2401 -0.3829  0.1724
  129OSM    O1313797   6.183   6.600   6.102  0.4124  0.0526 -0.0706
  129OSM    O1413798   5.997   6.433   6.126  0.0002  0.3100 -0.5861
  129OSM    O1113799   6.161   6.466   6.307 -0.0793 -0.1865 -0.1380
  129OSM    O1213800   6.220   6.353   6.088 -0.8231  0.5752  0.3919
  129OSM    C1S13801   6.174   6.339   6.380  0.5288  0.7121 -1.3841
  129OSM    H1S13802   6.265   6.282   6.352 -0.0864  0.1699 -2.3659
  129OSM    H1T13803   6.082   6.278   6.370 -0.6727  1.5786  2.7700
  129OSM     NF13804   6.184   6.228   6.596  0.4656  0.4006  0.0672
  129OSM    HNF13805   6.108   6.210   6.657  0.2727 -1.5074 -0.6877
  129OSM    C2S13806   6.193   6.358   6.534  0.2830  0.2925  0.1707
  129OSM    H2S13807   6.298   6.393   6.546  1.5252 -3.0889 -0.0279
  129OSM    C3S13808   6.093   6.464   6.606 -1.1251  0.6148 -0.3250
  129OSM    H3S13809   6.005   6.396   6.607 -0.6345 -0.0261  0.0482
  129OSM     O313810   6.064   6.586   6.535 -0.2010  0.3136  0.5015
  129OSM    HO313811   6.100   6.572   6.448 -3.4606  0.6709 -1.0766
  129OSM    C4S13812   6.127   6.493   6.748  0.0947  0.1026  0.2624
  129OSM    H4S13813   6.231   6.526   6.764 -0.3442  1.2455  0.8906
  129OSM    C5S13814   6.041   6.493   6.852  0.7489 -0.0893 -0.4447
  129OSM    H5S13815   5.939   6.460   6.828 -0.2572  2.5667 -0.2220
  129OSM    C6S13816   6.062   6.530   6.996 -0.0386 -0.3035 -0.1470
  129OSM    H6S13817   6.063   6.437   7.056 -0.1564  0.9076  1.8124
  129OSM    H6T13818   5.982   6.596   7.037 -0.2995 -0.4273 -0.4497
  129OSM    C7S13819   6.199   6.588   7.015 -0.1431  0.0884 -0.0750
  129OSM    H7S13820   6.218   6.668   6.941 -1.2802  0.0769 -0.4043
  129OSM    H7T13821   6.276   6.512   6.988 -1.0700 -1.5587  1.6413
  129OSM    C8S13822   6.210   6.637   7.158 -0.4468 -0.3242  0.1858
  129OSM    H8S13823   6.207   6.554   7.231 -0.3541  1.1464  1.9137
  129OSM    H8T13824   6.126   6.708   7.176  1.0751  1.5951  0.0732
  129OSM    C9S13825   6.336   6.717   7.181 -0.5283 -0.0130  0.3845
  129OSM    H9S13826   6.311   6.824   7.165 -2.6350 -0.5146  0.0322
  129OSM    H9T13827   6.415   6.685   7.109 -0.6349  0.4882  0.0429
  129OSM   C10S13828   6.388   6.706   7.325 -0.3878  0.7824  0.2161
  129OSM   H10S13829   6.475   6.775   7.329  0.6064 -0.4000 -0.3264
  129OSM   H10T13830   6.424   6.604   7.351 -1.5277  0.6741  1.4381
  129OSM   C11S13831   6.283   6.750   7.431  0.4679 -0.1512  0.3167
  129OSM   H11S13832   6.193   6.688   7.410  1.4535 -1.5053 -0.0339
  129OSM   H11T13833   6.257   6.858   7.420 -0.7328 -0.5895 -1.6212
  129OSM   C12S13834   6.328   6.730   7.574  0.0793  0.1665  0.1772
  129OSM   H12S13835   6.431   6.766   7.593  0.0513  0.3820 -0.0769
  129OSM   H12T13836   6.344   6.621   7.589  1.3173  0.5976  2.5046
  129OSM   C13S13837   6.233   6.769   7.685 -0.0562 -0.5557 -0.3778
  129OSM   H13S13838   6.137   6.713   7.673 -0.0721 -0.2820 -1.6314
  129OSM   H13T13839   6.212   6.877   7.666 -1.8051 -0.9660 -0.9208
  129OSM   C14S13840   6.298   6.765   7.825 -0.2913  0.2562  0.6891
  129OSM   H14S13841   6.381   6.839   7.814 -0.9089  0.9350  0.5538
  129OSM   H14T13842   6.341   6.664   7.840 -0.6714 -0.0174 -0.0247
  129OSM   C15S13843   6.208   6.792   7.939 -0.2713  0.3580 -0.8744
  129OSM   H15S13844   6.139   6.706   7.955  2.1594 -1.7574 -1.2191
  129OSM   H15T13845   6.157   6.888   7.917  0.0869  0.7502 -0.0618
  129OSM   C16S13846   6.284   6.830   8.079 -0.8938  1.8400  0.1334
  129OSM   H16S13847   6.334   6.929   8.071  0.3210  1.2122 -0.3993
  129OSM   H16T13848   6.366   6.755   8.087 -1.0031  1.7482  0.3979
  129OSM   C17S13849   6.184   6.827   8.193  0.2214  0.0872 -0.4413
  129OSM   H17S13850   6.088   6.877   8.167  1.2662  1.1225 -2.6011
  129OSM   H17T13851   6.231   6.886   8.275 -1.2339  1.1351 -0.3226
  129OSM   C18S13852   6.150   6.692   8.251  0.0813 -0.5591 -0.0555
  129OSM   H18S13853   6.089   6.709   8.342  0.2199  2.1031 -0.3909
  129OSM   H18T13854   6.248   6.653   8.287  0.4963  2.4381  2.3914
  129OSM   H18U13855   6.105   6.621   8.178  0.7428 -1.3261  0.2670
  129OSM    C1F13856   6.258   6.120   6.573 -1.2540  0.0099  0.2042
  129OSM     OF13857   6.369   6.123   6.510  0.2963  0.0029 -0.0197
  129OSM    C2F13858   6.207   5.992   6.620 -0.9380  0.5244  0.1198
  129OSM    H2F13859   6.127   5.961   6.550 -0.5798  0.8252 -0.4233
  129OSM    H2G13860   6.143   5.997   6.711 -1.6309  0.5005 -0.3564
  129OSM    C3F13861   6.306   5.879   6.646  0.2133  0.7182 -0.3305
  129OSM    H3F13862   6.363   5.864   6.551  0.1605  0.3329 -0.3042
  129OSM    H3G13863   6.245   5.786   6.655  1.3411 -0.4291 -3.1597
  129OSM    C4F13864   6.408   5.893   6.758  0.2330  0.0129  0.3445
  129OSM    H4F13865   6.350   5.904   6.852  0.4281 -2.3534  0.8078
  129OSM    H4G13866   6.476   5.977   6.734 -0.2457 -0.0902 -1.5472
  129OSM    C5F13867   6.493   5.767   6.765 -0.4388  1.1207  0.0357
  129OSM    H5F13868   6.574   5.774   6.689  0.0226  2.1931  0.6017
  129OSM    H5G13869   6.439   5.675   6.734 -1.0351  1.3450  0.3802
  129OSM    C6F13870   6.552   5.754   6.904  0.1663 -0.3723 -0.2406
  129OSM    H6F13871   6.589   5.852   6.943  0.5210 -0.9111  0.8469
  129OSM    H6G13872   6.646   5.694   6.896  0.4834  0.0980 -0.0980
  129OSM    C7F13873   6.451   5.696   7.000  0.2189  0.1739 -0.4437
  129OSM    H7F13874   6.401   5.621   6.935 -2.1852  2.3171 -1.2462
  129OSM    H7G13875   6.387   5.782   7.030  2.1838  1.8324 -0.7236
  129OSM    C8F13876   6.524   5.634   7.131 -0.0162  0.3014  0.4202
  129OSM    H8F13877   6.594   5.559   7.089 -2.0051 -2.0229  0.9814
  129OSM    H8G13878   6.447   5.580   7.190 -0.6713 -1.0891 -1.5837
  129OSM    C9F13879   6.593   5.741   7.206  0.2249 -0.1498  0.1651
  129OSM    H9F13880   6.675   5.792   7.153 -1.0182 -0.1876 -1.9027
  129OSM   C10F13881   6.542   5.807   7.312 -0.0083  0.4903  0.1129
  129OSM   H10F13882   6.590   5.897   7.353 -0.7841  0.3802  1.2997
  129OSM   C11F13883   6.413   5.777   7.389  0.3949  0.0214 -0.3211
  129OSM   H11F13884   6.338   5.708   7.344  0.2020 -1.0589  1.5605
  129OSM   H11G13885   6.350   5.868   7.381  1.6438  0.8217 -1.3187
  129OSM   C12F13886   6.424   5.738   7.538  0.2427  1.0184  0.5796
  129OSM   H12F13887   6.497   5.654   7.543  3.0148  3.0301 -1.8612
  129OSM   H12G13888   6.331   5.720   7.596  0.5204 -1.8115  0.2797
  129OSM   C13F13889   6.491   5.849   7.620 -0.5893 -0.3321 -0.2405
  129OSM   H13F13890   6.412   5.927   7.625 -1.0531 -0.8248  0.1166
  129OSM   H13G13891   6.575   5.890   7.558 -2.0693  1.2108 -1.3316
  129OSM   C14F13892   6.534   5.801   7.756  0.9424 -0.0458  0.1488
  129OSM   H14F13893   6.608   5.719   7.750  3.0144  1.8088 -0.8721
  129OSM   H14G13894   6.442   5.752   7.794  1.6483 -2.2433 -0.7935
  129OSM   C15F13895   6.579   5.900   7.859  0.2320 -0.0093 -0.0765
  129OSM   H15F13896   6.488   5.964   7.867  2.4610  3.7360 -1.7836
  129OSM   H15G13897   6.660   5.968   7.823  1.1369 -0.0642  1.7504
  129OSM   C16F13898   6.630   5.845   7.993  0.7806  0.1896 -0.1130
  129OSM   H16F13899   6.699   5.764   7.962  2.2243  0.7375  1.5320
  129OSM   H16G13900   6.543   5.805   8.050  0.5877  1.7791  0.7608
  129OSM   C17F13901   6.717   5.940   8.086  0.5098 -0.7898  0.2564
  129OSM   H17F13902   6.646   5.988   8.157 -1.2818  0.6596 -2.3693
  129OSM   H17G13903   6.763   6.024   8.029  0.6062  0.6366  2.3334
  129OSM   C18F13904   6.830   5.867   8.154 -0.0840 -0.1308 -0.6224
  129OSM   H18F13905   6.919   5.931   8.173  0.1721 -0.4049 -0.9060
  129OSM   H18G13906   6.888   5.797   8.091  2.3602  1.9978 -0.8777
  129OSM   H18H13907   6.802   5.809   8.245 -0.4992  1.8184  0.5581
  130OSM      N13908   1.309   6.750   6.108  0.0490 -0.0711  0.1162
  130OSM    C1513909   1.425   6.746   6.009  0.3293  0.0114 -0.1924
  130OSM   H15A13910   1.476   6.651   6.020  1.6287  0.7799  0.6450
  130OSM   H15B13911   1.499   6.824   6.023  1.6341 -1.1096 -0.5751
  130OSM   H15C13912   1.390   6.740   5.907 -0.9237 -1.7066  0.2895
  130OSM    C1413913   1.235   6.877   6.086  0.1074  0.4501 -0.2376
  130OSM   H14A13914   1.297   6.956   6.126  1.6565 -1.6271  1.7136
  130OSM   H14B13915   1.142   6.879   6.140  0.4087 -1.8426  0.4993
  130OSM   H14C13916   1.230   6.897   5.980 -0.3775 -0.0476 -0.3170
  130OSM    C1313917   1.214   6.636   6.071  0.2559 -0.4183 -0.1085
  130OSM   H13A13918   1.262   6.541   6.084  0.5645 -0.4080 -1.1538
  130OSM   H13B13919   1.173   6.632   5.971  0.9451 -1.9959 -0.3479
  130OSM   H13C13920   1.126   6.637   6.134 -0.6091 -1.0069 -1.2781
  130OSM    C1213921   1.353   6.747   6.252  0.4224  0.3233  0.0860
  130OSM   H12A13922   1.268   6.759   6.317 -0.6748 -2.1527 -0.7627
  130OSM   H12B13923   1.422   6.829   6.266  1.6728 -0.7587  0.5668
  130OSM    C1113924   1.423   6.626   6.304  0.1478 -0.0994  0.3609
  130OSM   H11A13925   1.447   6.646   6.411 -0.2574 -0.7837  0.5833
  130OSM   H11B13926   1.525   6.615   6.260  0.2781 -0.9762  0.8571
  130OSM      P13927   1.238   6.460   6.383  0.0047 -0.6976 -0.2145
  130OSM    O1313928   1.152   6.579   6.415  0.3489 -0.2535 -0.9069
  130OSM    O1413929   1.177   6.345   6.321  0.4240 -0.4525 -0.4181
  130OSM    O1113930   1.312   6.425   6.513 -0.6658 -0.2598  0.2837
  130OSM    O1213931   1.349   6.507   6.294 -0.3609  0.1793 -0.0032
  130OSM    C1S13932   1.402   6.317   6.509 -0.1716 -0.0007 -0.3592
  130OSM    H1S13933   1.495   6.349   6.458  0.6647 -0.4317  0.8427
  130OSM    H1T13934   1.359   6.227   6.460 -0.2319  0.0388 -0.3783
  130OSM     NF13935   1.529   6.153   6.657 -0.3789  0.3074 -0.1726
  130OSM    HNF13936   1.492   6.061   6.671  0.5788 -0.0108  0.4131
  130OSM    C2S13937   1.432   6.268   6.655  0.3209 -0.7872  0.3856
  130OSM    H2S13938   1.473   6.356   6.709 -3.9462  0.3707  2.1370
  130OSM    C3S13939   1.298   6.234   6.729  0.1716 -1.0143 -0.2850
  130OSM    H3S13940   1.256   6.140   6.685  0.9012 -1.0554 -0.9182
  130OSM     O313941   1.188   6.327   6.721 -0.5524 -0.1174  0.0072
  130OSM    HO313942   1.227   6.390   6.659 -0.9159 -1.2948 -1.4649
  130OSM    C4S13943   1.327   6.206   6.876  0.4863  0.1064  0.2915
  130OSM    H4S13944   1.318   6.099   6.903  2.4687  0.0582  0.9791
  130OSM    C5S13945   1.352   6.298   6.969  0.7587  0.8101 -0.1738
  130OSM    H5S13946   1.347   6.405   6.942  1.7175  0.7143 -0.7902
  130OSM    C6S13947   1.369   6.272   7.121 -0.1651 -0.4834  0.3451
  130OSM    H6S13948   1.349   6.167   7.151 -0.3857  0.1629  2.6115
  130OSM    H6T13949   1.298   6.336   7.178 -1.7730  0.1129 -2.1730
  130OSM    C7S13950   1.507   6.312   7.183  0.5886  0.5233 -0.0252
  130OSM    H7S13951   1.541   6.407   7.136 -1.7432  1.5944  0.3120
  130OSM    H7T13952   1.572   6.227   7.153  0.7117  0.8415 -0.6732
  130OSM    C8S13953   1.508   6.338   7.332  0.2366  0.3167 -0.4731
  130OSM    H8S13954   1.472   6.441   7.355  1.3075  0.3330  1.3220
  130OSM    H8T13955   1.610   6.358   7.371 -1.1165 -0.0950  3.7351
  130OSM    C9S13956   1.434   6.235   7.420  0.2445 -0.2440 -0.9223
  130OSM    H9S13957   1.455   6.138   7.370 -0.4187 -0.1245 -1.4435
  130OSM    H9T13958   1.325   6.258   7.423  0.3293  0.4755 -2.4963
  130OSM   C10S13959   1.502   6.241   7.562 -0.3499 -0.6914 -0.0062
  130OSM   H10S13960   1.487   6.348   7.588 -1.0736 -0.0057 -2.8731
  130OSM   H10T13961   1.610   6.221   7.542  0.0567  1.3802 -0.1036
  130OSM   C11S13962   1.467   6.135   7.665  0.3571  0.0719  0.5627
  130OSM   H11S13963   1.514   6.035   7.653 -1.4077 -0.7426  0.0795
  130OSM   H11T13964   1.357   6.122   7.653  0.5944 -1.1848 -0.5257
  130OSM   C12S13965   1.500   6.192   7.809  0.8211 -0.2984  0.2914
  130OSM   H12S13966   1.451   6.292   7.814  0.2243 -0.5797  0.2425
  130OSM   H12T13967   1.610   6.195   7.819  0.7950  1.5282  0.3341
  130OSM   C13S13968   1.450   6.105   7.926  0.5501 -0.0565  0.4627
  130OSM   H13S13969   1.506   6.009   7.916  0.5265 -0.2164  1.6743
  130OSM   H13T13970   1.344   6.074   7.919  0.4960 -0.7406  3.0425
  130OSM   C14S13971   1.481   6.154   8.070  0.3186 -0.1805 -0.3391
  130OSM   H14S13972   1.439   6.256   8.088  0.9038  0.1888 -1.0300
  130OSM   H14T13973   1.589   6.145   8.093 -0.3489 -2.2852  2.5111
  130OSM   C15S13974   1.404   6.068   8.172 -0.2318  0.0126  0.4939
  130OSM   H15S13975   1.447   5.968   8.153 -0.5061  0.0500 -0.3551
  130OSM   H15T13976   1.298   6.064   8.138  0.5284  0.7579 -2.2053
  130OSM   C16S13977   1.428   6.124   8.310 -0.6534 -0.2269 -0.0379
  130OSM   H16S13978   1.357   6.093   8.389  1.1231  1.1608  2.2190
  130OSM   H16T13979   1.434   6.235   8.310  0.0069 -0.2581  0.4548
  130OSM   C17S13980   1.563   6.069   8.368  0.4415 -0.1214  0.4019
  130OSM   H17S13981   1.572   6.120   8.466  0.9289  0.1222  0.2333
  130OSM   H17T13982   1.638   6.106   8.295 -0.7441  0.2480 -0.6491
  130OSM   C18S13983   1.576   5.920   8.389  0.9079  0.2476  0.3199
  130OSM   H18S13984   1.667   5.894   8.446 -0.1872 -0.5926  1.7501
  130OSM   H18T13985   1.577   5.867   8.291 -0.6542  0.0305  0.3877
  130OSM   H18U13986   1.490   5.875   8.442 -0.6774  1.4901 -1.0777
  130OSM    C1F13987   1.656   6.164   6.626  0.8188 -0.6497 -0.8660
  130OSM     OF13988   1.686   6.277   6.596 -0.0763  0.5060 -0.0055
  130OSM    C2F13989   1.751   6.042   6.615  0.8597  0.1191 -0.3106
  130OSM    H2F13990   1.756   6.008   6.510  1.4099 -1.7547  0.2754
  130OSM    H2G13991   1.709   5.963   6.682  0.0793  2.1944  1.8132
  130OSM    C3F13992   1.888   6.079   6.678 -0.0877  0.0593  0.0861
  130OSM    H3F13993   1.883   6.107   6.785  1.2119 -0.5930  0.3346
  130OSM    H3G13994   1.923   6.168   6.622  0.9605 -0.8680 -0.7727
  130OSM    C4F13995   1.991   5.963   6.664  0.4456  0.3151  0.3858
  130OSM    H4F13996   2.088   6.000   6.705  0.2278 -0.8830  2.1166
  130OSM    H4G13997   2.003   5.941   6.556  0.4077 -3.1956  0.9783
  130OSM    C5F13998   1.959   5.828   6.726 -0.1974 -0.2177  0.3457
  130OSM    H5F13999   2.005   5.744   6.669 -1.0885 -0.2117 -0.4061
  130OSM    H5G14000   1.849   5.818   6.730 -0.3693  0.5207 -1.4263
  130OSM    C6F14001   2.022   5.801   6.867 -0.0646 -0.6180 -0.3272
  130OSM    H6F14002   1.973   5.880   6.927  0.4355  0.6523 -1.5370
  130OSM    H6G14003   2.131   5.822   6.870 -0.4514  1.5741 -0.0316
  130OSM    C7F14004   1.970   5.664   6.929  0.0550  0.9011  0.2041
  130OSM    H7F14005   2.008   5.582   6.864  0.4323 -1.3830  3.0554
  130OSM    H7G14006   1.860   5.673   6.930 -0.1820 -1.3364 -0.5712
  130OSM    C8F14007   2.033   5.637   7.075  0.4545  0.0823 -0.0353
  130OSM    H8F14008   2.039   5.736   7.125  2.1542 -0.4456  0.8751
  130OSM    H8G14009   2.133   5.607   7.038  0.9957  0.6771  0.9223
  130OSM    C9F14010   1.964   5.539   7.160 -0.4492  0.0697 -0.1775
  130OSM    H9F14011   1.857   5.561   7.174 -0.6782 -1.3788  0.6343
  130OSM   C10F14012   2.016   5.426   7.208  0.4105  0.2907 -0.2387
  130OSM   H10F14013   1.958   5.357   7.273  0.3107  0.6615  0.0708
  130OSM   C11F14014   2.160   5.369   7.199 -0.3236 -0.9712 -0.1392
  130OSM   H11F14015   2.208   5.379   7.298 -0.4099  3.0942 -0.3337
  130OSM   H11G14016   2.227   5.439   7.145  1.9268 -3.0032 -0.1524
  130OSM   C12F14017   2.165   5.229   7.130  0.3447  0.0270  0.1967
  130OSM   H12F14018   2.271   5.196   7.128 -0.3231 -2.3073  0.5954
  130OSM   H12G14019   2.126   5.234   7.026  1.2370  0.8026 -0.1218
  130OSM   C13F14020   2.079   5.114   7.198  0.0215  0.4520  0.2010
  130OSM   H13F14021   2.092   5.021   7.138 -2.4276  1.5506 -2.2707
  130OSM   H13G14022   1.969   5.130   7.204 -0.5086 -1.9700 -1.5215
  130OSM   C14F14023   2.132   5.085   7.339  0.2296  0.6321  0.2422
  130OSM   H14F14024   2.179   5.171   7.393  1.4613 -0.4272  0.9261
  130OSM   H14G14025   2.203   5.000   7.332  2.1530  2.1083  0.9728
  130OSM   C15F14026   2.016   5.046   7.428 -0.2436  1.0638  0.1573
  130OSM   H15F14027   1.983   4.945   7.393 -2.2789  3.0160 -4.4210
  130OSM   H15G14028   1.927   5.112   7.429 -0.8733  0.2365  0.4432
  130OSM   C16F14029   2.051   5.031   7.580 -0.2255  0.4904  0.7439
  130OSM   H16F14030   2.149   4.992   7.614 -0.0419 -1.0392 -1.3518
  130OSM   H16G14031   1.977   4.956   7.617 -0.9159  1.6857  1.8667
  130OSM   C17F14032   2.046   5.163   7.656 -0.7018 -0.8643 -0.2948
  130OSM   H17F14033   1.943   5.206   7.655 -0.5921 -0.5845  0.2417
  130OSM   H17G14034   2.108   5.239   7.603 -0.6892 -1.1011 -0.6213
  130OSM   C18F14035   2.090   5.151   7.804  0.3481  0.1032  0.1378
  130OSM   H18F14036   2.007   5.105   7.861  0.7577  0.2505  0.8618
  130OSM   H18G14037   2.116   5.249   7.850 -0.3286  0.5317 -0.3661
  130OSM   H18H14038   2.166   5.071   7.818 -0.9779 -1.0619  0.9043
  131OSM      N14039   6.560   2.143   6.326  0.0767  0.2538 -0.8735
  131OSM    C1514040   6.664   2.038   6.315  0.1625 -0.1699  0.1029
  131OSM   H15A14041   6.751   2.068   6.371 -1.0681 -0.2453  2.1793
  131OSM   H15B14042   6.696   2.019   6.214 -1.0579 -1.9920  0.0131
  131OSM   H15C14043   6.629   1.942   6.349  2.3701 -1.0221  0.0813
  131OSM    C1414044   6.642   2.271   6.318  0.6417  0.3410 -0.0248
  131OSM   H14A14045   6.718   2.290   6.392  1.3540 -1.5098 -0.2325
  131OSM   H14B14046   6.567   2.349   6.326 -0.5559 -0.8113  0.3667
  131OSM   H14C14047   6.677   2.278   6.216  0.0154 -0.7859 -0.3298
  131OSM    C1314048   6.466   2.131   6.219 -0.5051  0.2757  0.2792
  131OSM   H13A14049   6.508   2.098   6.125  0.8685 -1.6510  1.5016
  131OSM   H13B14050   6.401   2.215   6.198 -0.0020  0.0688 -2.5401
  131OSM   H13C14051   6.389   2.060   6.247 -0.9032  0.9200  0.8636
  131OSM    C1214052   6.496   2.126   6.468  0.1795 -0.2112  0.0789
  131OSM   H12A14053   6.436   2.213   6.494 -0.2279  0.1759 -1.9608
  131OSM   H12B14054   6.577   2.108   6.536  0.5506 -2.3695 -0.8599
  131OSM    C1114055   6.400   2.002   6.490  0.4727 -0.4614  0.2628
  131OSM   H11A14056   6.313   2.036   6.431  0.7759  0.0652  0.1111
  131OSM   H11B14057   6.380   1.989   6.599  0.5235 -2.2776  0.0855
  131OSM      P14058   6.357   1.775   6.365  0.5545  0.0957 -0.0641
  131OSM    O1314059   6.265   1.852   6.277  0.7061  0.3063 -0.3174
  131OSM    O1414060   6.444   1.673   6.295 -0.4447  0.4170  0.4169
  131OSM    O1114061   6.282   1.696   6.482  0.1170 -0.1975 -0.4166
  131OSM    O1214062   6.452   1.879   6.437 -0.5118  0.0956  0.5491
  131OSM    C1S14063   6.353   1.600   6.571  0.2120  0.1421 -0.2986
  131OSM    H1S14064   6.449   1.570   6.524  1.1798  1.3754  0.8059
  131OSM    H1T14065   6.298   1.504   6.586  0.0301  0.2783 -0.0974
  131OSM     NF14066   6.454   1.550   6.781  0.2971  0.1066 -0.6471
  131OSM    HNF14067   6.405   1.508   6.857  1.6469  0.1850  0.3040
  131OSM    C2S14068   6.383   1.660   6.714 -0.0638 -0.1361 -0.3009
  131OSM    H2S14069   6.460   1.739   6.703  1.8148 -1.7348  0.9428
  131OSM    C3S14070   6.252   1.705   6.776  0.7387 -0.3018  0.3381
  131OSM    H3S14071   6.185   1.618   6.791  0.5442 -0.0362  1.0371
  131OSM     O314072   6.178   1.793   6.694  0.5964 -0.7755 -0.4361
  131OSM    HO314073   6.209   1.779   6.605 -0.3964 -0.5574 -0.8326
  131OSM    C4S14074   6.283   1.762   6.907  0.3046  0.3175 -0.2295
  131OSM    H4S14075   6.298   1.684   6.983 -1.2632 -0.3520 -0.5842
  131OSM    C5S14076   6.296   1.894   6.936  0.3104 -0.4148 -0.0142
  131OSM    H5S14077   6.280   1.967   6.855  1.5163  0.3969  0.4615
  131OSM    C6S14078   6.336   1.945   7.072 -0.8626 -0.4843 -0.3202
  131OSM    H6S14079   6.249   1.985   7.130 -2.7762  0.2336 -3.4241
  131OSM    H6T14080   6.399   2.035   7.057 -1.3683 -0.3065 -1.5362
  131OSM    C7S14081   6.419   1.846   7.163  0.4895 -0.9641 -0.5081
  131OSM    H7S14082   6.523   1.837   7.126  0.2733 -0.1265 -1.3374
  131OSM    H7T14083   6.363   1.750   7.153 -4.0185  1.4558 -1.4683
  131OSM    C8S14084   6.444   1.885   7.310  0.3640  0.6724  0.1911
  131OSM    H8S14085   6.460   1.995   7.320  1.2670  0.5614  0.1309
  131OSM    H8T14086   6.538   1.833   7.341  0.1463 -1.6402 -2.5432
  131OSM    C9S14087   6.330   1.837   7.395 -0.3278 -0.1106  0.6025
  131OSM    H9S14088   6.330   1.726   7.402  1.6878 -0.2525 -0.7063
  131OSM    H9T14089   6.226   1.858   7.361 -0.6529 -0.3845  1.3954
  131OSM   C10S14090   6.348   1.890   7.540 -0.5245 -0.4919  0.1129
  131OSM   H10S14091   6.270   1.968   7.553 -0.0414 -0.1525  1.0789
  131OSM   H10T14092   6.444   1.942   7.558 -0.9725  0.7652 -0.9758
  131OSM   C11S14093   6.329   1.776   7.637 -0.9551  0.0591  0.2768
  131OSM   H11S14094   6.389   1.688   7.605 -0.6990  0.1081  0.6219
  131OSM   H11T14095   6.219   1.768   7.650 -1.4500  2.5129 -1.5964
  131OSM   C12S14096   6.369   1.821   7.775 -0.4486 -0.7204  0.1109
  131OSM   H12S14097   6.343   1.926   7.799 -1.1224 -0.7262 -0.5619
  131OSM   H12T14098   6.480   1.829   7.781 -0.5094  0.7472 -0.3581
  131OSM   C13S14099   6.335   1.709   7.881 -0.1659  0.3079 -0.0594
  131OSM   H13S14100   6.380   1.610   7.858 -0.5991  0.2229 -0.5425
  131OSM   H13T14101   6.225   1.705   7.865 -0.2539  2.1922 -0.1453
  131OSM   C14S14102   6.367   1.730   8.026  0.6407 -0.1880 -0.5196
  131OSM   H14S14103   6.359   1.831   8.070  2.1688 -1.0755  1.9884
  131OSM   H14T14104   6.473   1.702   8.041 -0.0259 -4.5447 -2.2659
  131OSM   C15S14105   6.284   1.629   8.113 -0.3250 -0.0948 -0.1590
  131OSM   H15S14106   6.269   1.546   8.041 -0.8694  0.5993 -0.8524
  131OSM   H15T14107   6.183   1.675   8.121  0.7487  2.2710  0.7898
  131OSM   C16S14108   6.350   1.590   8.245 -0.4526  0.4552 -0.0889
  131OSM   H16S14109   6.431   1.518   8.220  0.4964  1.2172  0.6811
  131OSM   H16T14110   6.271   1.536   8.301  0.8876 -3.0734 -1.3469
  131OSM   C17S14111   6.384   1.706   8.340 -0.7726 -0.2460  0.4061
  131OSM   H17S14112   6.287   1.744   8.378 -1.2213 -1.5519  0.5919
  131OSM   H17T14113   6.439   1.784   8.283  0.6934 -0.4801  1.4590
  131OSM   C18S14114   6.483   1.654   8.450 -0.0892 -0.2637 -0.0466
  131OSM   H18S14115   6.469   1.544   8.460  0.9813 -0.3866  0.1937
  131OSM   H18T14116   6.455   1.699   8.547 -1.5759 -1.2043 -0.0021
  131OSM   H18U14117   6.590   1.672   8.425 -0.4101  0.9537 -0.5985
  131OSM    C1F14118   6.583   1.516   6.755 -0.2733  0.5705 -0.5469
  131OSM     OF14119   6.650   1.590   6.683 -0.2197 -0.4427  0.6749
  131OSM    C2F14120   6.632   1.393   6.819 -0.3798  0.2706 -0.1509
  131OSM    H2F14121   6.603   1.320   6.740 -0.1366 -0.2478  0.2288
  131OSM    H2G14122   6.571   1.364   6.907  0.2565 -0.2084  0.1383
  131OSM    C3F14123   6.776   1.417   6.874  0.3867  0.2437  0.7884
  131OSM    H3F14124   6.852   1.456   6.803  0.9472  0.6182  1.5774
  131OSM    H3G14125   6.811   1.320   6.913  2.3097  0.8369  0.6221
  131OSM    C4F14126   6.782   1.516   6.990 -0.0930 -0.1592  0.4179
  131OSM    H4F14127   6.730   1.607   6.955 -2.7715 -1.5811  0.4532
  131OSM    H4G14128   6.888   1.524   7.023  0.8002 -0.5178 -2.1577
  131OSM    C5F14129   6.712   1.470   7.117  0.2638 -0.5966  0.4180
  131OSM    H5F14130   6.606   1.445   7.096  0.3776 -1.2948  0.6413
  131OSM    H5G14131   6.709   1.552   7.191 -0.3977  0.0113 -0.2719
  131OSM    C6F14132   6.783   1.357   7.191  0.1714 -0.3546  0.0322
  131OSM    H6F14133   6.891   1.382   7.198 -0.2079  1.1035  0.9001
  131OSM    H6G14134   6.773   1.264   7.130  0.3219  0.0123 -0.5613
  131OSM    C7F14135   6.735   1.336   7.331  0.3085  0.0263 -0.7158
  131OSM    H7F14136   6.625   1.327   7.320  0.5785 -2.8100 -1.8793
  131OSM    H7G14137   6.752   1.426   7.394 -1.0990 -0.0437 -0.2174
  131OSM    C8F14138   6.795   1.210   7.388 -0.2062  0.3828 -0.2267
  131OSM    H8F14139   6.901   1.219   7.356 -0.5152 -1.6640 -2.0795
  131OSM    H8G14140   6.769   1.113   7.339 -0.4986  0.2803  0.1251
  131OSM    C9F14141   6.775   1.187   7.537 -0.6003  0.5440 -0.1763
  131OSM    H9F14142   6.695   1.118   7.566 -0.2986  0.2728  0.0185
  131OSM   C10F14143   6.841   1.251   7.632 -0.5367  0.3154  0.0799
  131OSM   H10F14144   6.817   1.235   7.739  0.3303 -0.3272  0.1970
  131OSM   C11F14145   6.943   1.352   7.611 -0.9443 -0.4054 -0.0967
  131OSM   H11F14146   6.895   1.447   7.582  2.2593  0.4629 -3.2521
  131OSM   H11G14147   7.017   1.323   7.533 -1.4312 -0.2112 -0.6308
  131OSM   C12F14148   7.026   1.375   7.739  0.3361  0.0646 -0.4493
  131OSM   H12F14149   7.082   1.280   7.756 -0.6068 -0.7107 -1.5342
  131OSM   H12G14150   6.948   1.387   7.816 -0.0821  1.3842 -1.0541
  131OSM   C13F14151   7.127   1.485   7.729 -0.2885 -0.3310 -0.3984
  131OSM   H13F14152   7.074   1.583   7.738  0.0762 -0.1347 -0.3590
  131OSM   H13G14153   7.171   1.490   7.627  0.1822  0.1177 -0.1799
  131OSM   C14F14154   7.243   1.479   7.830  0.0371  0.3402 -0.4372
  131OSM   H14F14155   7.290   1.579   7.844  1.3810 -0.3004 -0.2504
  131OSM   H14G14156   7.326   1.413   7.799  0.4476  0.5666  0.1658
  131OSM   C15F14157   7.213   1.435   7.978  0.4658  0.4047 -0.8221
  131OSM   H15F14158   7.290   1.426   8.058 -2.6612 -0.9037  2.2779
  131OSM   H15G14159   7.165   1.335   7.977 -1.4398  1.1123  3.0383
  131OSM   C16F14160   7.117   1.543   8.038 -0.0954 -0.1934 -0.4687
  131OSM   H16F14161   7.037   1.570   7.965  0.6496  0.6821 -0.9813
  131OSM   H16G14162   7.178   1.634   8.049  0.0587 -0.4631  1.1257
  131OSM   C17F14163   7.061   1.490   8.173  0.0040 -0.1521 -0.2958
  131OSM   H17F14164   7.027   1.566   8.248  1.9475 -0.4910  1.0182
  131OSM   H17G14165   7.143   1.434   8.222 -1.9667 -2.4039  0.6081
  131OSM   C18F14166   6.954   1.389   8.148  0.1744  0.3324 -0.1772
  131OSM   H18F14167   6.946   1.328   8.241 -0.4721 -3.8202 -2.7198
  131OSM   H18G14168   6.972   1.317   8.066 -1.3614  0.1547 -0.4035
  131OSM   H18H14169   6.853   1.433   8.130 -0.1843 -0.3562  0.1155
  132OSM      N14170   4.172   4.872   6.008  0.6316 -0.2131 -0.3280
  132OSM    C1514171   4.157   4.988   5.917 -0.1283  0.1685  0.5133
  132OSM   H15A14172   4.124   4.959   5.818  1.8530 -1.8834  0.3481
  132OSM   H15B14173   4.251   5.036   5.893 -1.0606  1.6382 -0.3652
  132OSM   H15C14174   4.099   5.073   5.948  2.0716  2.3411 -0.9029
  132OSM    C1414175   4.034   4.822   6.044  0.0171 -0.0512 -0.3784
  132OSM   H14A14176   3.980   4.895   6.104 -1.2077 -0.1722 -1.2826
  132OSM   H14B14177   4.025   4.729   6.098  1.1689  0.5289  0.8696
  132OSM   H14C14178   3.979   4.801   5.954 -2.0256  3.1574 -0.0482
  132OSM    C1314179   4.246   4.763   5.939  0.1641  0.4428 -0.4000
  132OSM   H13A14180   4.210   4.667   5.973  1.6463  0.2097  0.5700
  132OSM   H13B14181   4.353   4.778   5.936  0.9405 -2.2928  4.2497
  132OSM   H13C14182   4.211   4.761   5.837  1.4814  2.8257 -0.9726
  132OSM    C1214183   4.242   4.905   6.138  0.2627 -0.8167  0.2695
  132OSM   H12A14184   4.346   4.879   6.126  0.3304 -0.1537 -0.7536
  132OSM   H12B14185   4.203   4.841   6.216  0.6495  0.2396  1.3398
  132OSM    C1114186   4.226   5.050   6.181  0.2698  0.0065 -0.9597
  132OSM   H11A14187   4.271   5.127   6.114  1.3713 -1.2350 -1.6898
  132OSM   H11B14188   4.294   5.071   6.267 -1.0732  2.4618 -0.3935
  132OSM      P14189   4.010   5.210   6.168  0.0529  0.1569 -0.1164
  132OSM    O1314190   4.088   5.303   6.091  0.1087 -0.7841 -0.1607
  132OSM    O1414191   3.892   5.156   6.100  0.7827 -0.3568 -0.2448
  132OSM    O1114192   3.949   5.283   6.291 -0.0349  0.3221 -0.2430
  132OSM    O1214193   4.094   5.081   6.216  0.1054  0.1464  0.8469
  132OSM    C1S14194   3.963   5.231   6.426  0.7717 -0.9973  0.1629
  132OSM    H1S14195   4.071   5.229   6.453  0.9563  0.8339 -0.2740
  132OSM    H1T14196   3.914   5.132   6.423 -1.2949 -0.0147 -2.5061
  132OSM     NF14197   3.931   5.297   6.661  0.6098 -0.0683  0.6136
  132OSM    HNF14198   3.876   5.246   6.726 -0.9301  0.9956  0.2175
  132OSM    C2S14199   3.878   5.323   6.530 -0.0014  1.0082  0.9110
  132OSM    H2S14200   3.901   5.428   6.502  1.7246 -0.1295 -2.5147
  132OSM    C3S14201   3.734   5.302   6.508 -0.5268  0.5897  0.4006
  132OSM    H3S14202   3.712   5.193   6.519 -0.0207  0.4147 -0.2882
  132OSM     O314203   3.698   5.333   6.370 -0.1345 -0.1018 -0.6211
  132OSM    HO314204   3.782   5.339   6.325 -0.6084 -0.7142 -1.6280
  132OSM    C4S14205   3.638   5.377   6.601  0.3429  0.0536  0.2961
  132OSM    H4S14206   3.584   5.323   6.680 -0.1366 -1.3092 -0.9086
  132OSM    C5S14207   3.598   5.506   6.595 -0.3831  0.1677 -0.5467
  132OSM    H5S14208   3.633   5.578   6.520 -0.3515 -2.9529 -3.7983
  132OSM    C6S14209   3.498   5.570   6.692 -0.0157 -0.1181 -0.0757
  132OSM    H6S14210   3.394   5.568   6.652  0.6670  1.0786 -2.0823
  132OSM    H6T14211   3.504   5.681   6.686 -2.0233 -0.0461 -2.9114
  132OSM    C7S14212   3.516   5.529   6.840  0.2317  0.0262 -0.2473
  132OSM    H7S14213   3.621   5.516   6.871  0.3894 -0.4446 -0.9575
  132OSM    H7T14214   3.469   5.430   6.861  0.8178  0.0494  1.2641
  132OSM    C8S14215   3.437   5.619   6.930  0.6279  0.2440  0.0701
  132OSM    H8S14216   3.327   5.607   6.925  0.3638  1.0179  2.7517
  132OSM    H8T14217   3.476   5.721   6.911  0.3405  0.2232 -0.6599
  132OSM    C9S14218   3.448   5.575   7.079  0.4027 -0.2181  0.3212
  132OSM    H9S14219   3.555   5.558   7.100  0.1924 -0.4795  1.2642
  132OSM    H9T14220   3.413   5.471   7.094  2.2428 -0.6903  1.6080
  132OSM   C10S14221   3.390   5.675   7.176 -0.1091  0.0131  0.5330
  132OSM   H10S14222   3.280   5.689   7.172  0.0571  1.3449  0.3861
  132OSM   H10T14223   3.440   5.771   7.152 -0.7418 -0.0617 -1.1861
  132OSM   C11S14224   3.428   5.632   7.317 -0.0158 -0.7637 -0.4468
  132OSM   H11S14225   3.532   5.599   7.336 -0.2655 -1.3153 -0.0005
  132OSM   H11T14226   3.385   5.529   7.327 -2.6334  0.3168  0.3030
  132OSM   C12S14227   3.368   5.724   7.429  0.2445  0.7830  0.5810
  132OSM   H12S14228   3.272   5.769   7.396 -0.1390 -0.1519  0.3891
  132OSM   H12T14229   3.442   5.807   7.435  1.3889 -0.0392 -1.0387
  132OSM   C13S14230   3.361   5.667   7.574 -0.0567 -0.2480  0.3611
  132OSM   H13S14231   3.456   5.620   7.606 -1.2274 -0.9367  3.1469
  132OSM   H13T14232   3.280   5.591   7.585 -0.5505 -0.0989 -1.8499
  132OSM   C14S14233   3.337   5.774   7.686  0.2330  0.3026  0.1307
  132OSM   H14S14234   3.230   5.802   7.676  0.7405  2.0100 -0.8941
  132OSM   H14T14235   3.401   5.865   7.682 -0.2639  0.6808  0.7364
  132OSM   C15S14236   3.363   5.710   7.826  0.7727  0.1642 -0.0209
  132OSM   H15S14237   3.465   5.665   7.821  0.7718  0.2613 -1.1789
  132OSM   H15T14238   3.284   5.635   7.847 -0.2828  1.1861 -0.2480
  132OSM   C16S14239   3.362   5.805   7.948 -0.0025  0.2901  0.3868
  132OSM   H16S14240   3.428   5.892   7.929 -0.5552  0.4902 -0.6873
  132OSM   H16T14241   3.405   5.747   8.033 -2.0363 -2.1786 -0.1179
  132OSM   C17S14242   3.218   5.851   7.980  0.3052 -0.0818 -0.7264
  132OSM   H17S14243   3.179   5.759   8.028 -1.1718  0.1455 -1.4443
  132OSM   H17T14244   3.154   5.886   7.897 -3.4037 -0.7673  1.6269
  132OSM   C18S14245   3.213   5.961   8.086  0.2783  0.1614  0.5238
  132OSM   H18S14246   3.250   6.062   8.062  0.6882  0.2251  1.3829
  132OSM   H18T14247   3.244   5.934   8.190 -1.0067 -0.7947  0.6895
  132OSM   H18U14248   3.104   5.980   8.098 -0.0242 -0.8732 -0.4808
  132OSM    C1F14249   4.046   5.335   6.704 -0.3172  0.5083 -0.4657
  132OSM     OF14250   4.123   5.407   6.645 -0.2982 -0.4215 -0.1238
  132OSM    C2F14251   4.092   5.271   6.826 -0.0096  0.1851  0.5525
  132OSM    H2F14252   4.186   5.215   6.806 -1.7801 -1.7590 -3.6595
  132OSM    H2G14253   4.016   5.195   6.854 -0.6039  1.2879  2.0358
  132OSM    C3F14254   4.104   5.378   6.941  0.4604  0.3219  0.5523
  132OSM    H3F14255   4.027   5.456   6.959  0.8402  1.0232 -0.7325
  132OSM    H3G14256   4.177   5.450   6.899  0.9623  0.0495  0.9423
  132OSM    C4F14257   4.154   5.332   7.075 -0.3985 -0.2383 -0.5104
  132OSM    H4F14258   4.263   5.314   7.067 -0.1549  1.3358 -1.2100
  132OSM    H4G14259   4.099   5.238   7.097  0.0688 -0.8428 -1.8624
  132OSM    C5F14260   4.130   5.436   7.183 -0.0475  0.4675  0.0597
  132OSM    H5F14261   4.022   5.460   7.191 -0.4518 -1.2666  0.1398
  132OSM    H5G14262   4.194   5.523   7.159 -0.1289  0.6879  0.6320
  132OSM    C6F14263   4.172   5.397   7.326 -0.3601  0.3922 -0.1967
  132OSM    H6F14264   4.283   5.393   7.331 -0.4030 -0.7902  0.0341
  132OSM    H6G14265   4.133   5.295   7.348  1.6766 -0.3853  0.0744
  132OSM    C7F14266   4.117   5.500   7.428  0.5517 -0.4364 -0.1217
  132OSM    H7F14267   4.007   5.506   7.415  0.5897  1.5532  0.1496
  132OSM    H7G14268   4.155   5.594   7.383 -0.9470 -0.7149 -2.1134
  132OSM    C8F14269   4.152   5.479   7.580  0.9182  0.2445 -0.4333
  132OSM    H8F14270   4.115   5.559   7.647 -0.8895 -0.6061 -0.3601
  132OSM    H8G14271   4.263   5.487   7.591  0.7311  0.2579  1.9454
  132OSM    C9F14272   4.092   5.351   7.629  0.3859 -0.6683 -0.6459
  132OSM    H9F14273   4.039   5.295   7.550 -2.2032 -2.7635  2.3500
  132OSM   C10F14274   4.087   5.312   7.758  0.3421 -0.7602 -0.7845
  132OSM   H10F14275   4.039   5.215   7.781 -0.7601 -0.2714 -0.9903
  132OSM   C11F14276   4.151   5.387   7.877 -0.4492 -0.6080  0.8152
  132OSM   H11F14277   4.122   5.494   7.880  0.7209 -0.2982  1.9597
  132OSM   H11G14278   4.261   5.376   7.865 -0.7683 -1.2515 -2.5374
  132OSM   C12F14279   4.111   5.333   8.006 -0.5706  0.1687  0.5154
  132OSM   H12F14280   4.161   5.238   8.034 -0.6792  0.5511  2.0728
  132OSM   H12G14281   4.001   5.321   8.014 -0.3482 -1.2497  1.8394
  132OSM   C13F14282   4.137   5.422   8.122  0.2237  0.1709 -0.6966
  132OSM   H13F14283   4.061   5.499   8.099  2.4623  2.6775 -0.2493
  132OSM   H13G14284   4.238   5.468   8.109 -0.0388  0.4797 -1.7118
  132OSM   C14F14285   4.115   5.366   8.267  0.4079  0.0896 -0.7082
  132OSM   H14F14286   4.176   5.275   8.283 -1.3449 -0.8169  1.2806
  132OSM   H14G14287   4.011   5.331   8.279  0.1549  0.9991 -0.1364
  132OSM   C15F14288   4.141   5.462   8.382 -0.2524  0.8690 -0.6004
  132OSM   H15F14289   4.078   5.554   8.384 -0.0262  1.0250  1.4725
  132OSM   H15G14290   4.245   5.500   8.372  0.2388  1.0364  3.5578
  132OSM   C16F14291   4.126   5.403   8.525 -0.0429  0.4710  0.4563
  132OSM   H16F14292   4.219   5.346   8.545 -0.4688 -1.1609 -1.7698
  132OSM   H16G14293   4.048   5.324   8.535 -0.4473  1.1689  3.5302
  132OSM   C17F14294   4.104   5.514   8.638 -0.1020  0.9024 -0.4773
  132OSM   H17F14295   4.007   5.566   8.618 -0.7342  0.3922  1.0747
  132OSM   H17G14296   4.186   5.586   8.615  0.0826  0.2639 -1.9131
  132OSM   C18F14297   4.109   5.447   8.777  0.8208  0.7788  0.4595
  132OSM   H18F14298   4.202   5.393   8.803  0.3035  0.0594  0.8558
  132OSM   H18G14299   4.022   5.378   8.787 -0.4996  2.5379  1.7242
  132OSM   H18H14300   4.083   5.520   8.857 -0.1994 -0.3168  1.1620
  133SAPE     N14301   5.686   0.813  11.001  0.4161 -0.3798  0.9770
  133SAPE   HN114302   5.698   0.738  10.930 -0.4735  0.6020 -0.2442
  133SAPE   HN214303   5.771   0.870  10.983  0.8648 -1.1588  0.6026
  133SAPE   HN314304   5.687   0.773  11.097 -0.9356  0.8340  1.5353
  133SAPE   C1214305   5.561   0.884  10.989  0.0075 -0.6107 -0.1962
  133SAPE  H12A14306   5.567   0.976  11.053  0.2348  0.6527 -1.9664
  133SAPE  H12B14307   5.481   0.813  11.019  0.0619 -0.1537  1.1139
  133SAPE   C1114308   5.535   0.937  10.847  0.4724  0.2436  0.0442
  133SAPE  H11A14309   5.433   0.979  10.835  0.1100 -0.9498 -1.4629
  133SAPE  H11B14310   5.528   0.845  10.784  0.4654 -1.4192  2.3397
  133SAPE     P14311   5.609   1.186  10.789  0.2648  0.0929  0.0493
  133SAPE   O1314312   5.533   1.221  10.912  0.1113  0.2457 -0.1133
  133SAPE   O1414313   5.738   1.254  10.762  0.1657  0.0075 -0.1003
  133SAPE   O1214314   5.632   1.028  10.799 -0.0789  0.0057  0.4699
  133SAPE   O1114315   5.512   1.196  10.660 -0.7969 -0.0456  0.5876
  133SAPE    C114316   5.573   1.181  10.527  0.1942 -0.4385  0.4208
  133SAPE    HA14317   5.573   1.287  10.493 -0.0558 -0.2233  1.0724
  133SAPE    HB14318   5.676   1.141  10.522 -0.4083 -1.8951 -1.4527
  133SAPE    C214319   5.477   1.090  10.436 -0.2314 -0.2077 -0.5094
  133SAPE    HS14320   5.541   1.058  10.351  1.5044  2.4352 -0.3159
  133SAPE   O2114321   5.368   1.167  10.405  0.4178 -0.1452  0.3257
  133SAPE   C2114322   5.361   1.203  10.278 -0.7705  0.4045  0.4175
  133SAPE   O2214323   5.435   1.165  10.185  0.1795  0.3278  0.4437
  133SAPE   C2214324   5.242   1.292  10.269  0.3754 -0.4296  0.2144
  133SAPE   H2R14325   5.166   1.257  10.342 -1.2906 -1.6113 -1.9278
  133SAPE   H2S14326   5.269   1.392  10.307 -1.5344 -0.0700  0.7152
  133SAPE    C314327   5.424   0.966  10.522 -0.0191  0.1821  0.2586
  133SAPE    HX14328   5.352   1.004  10.598 -1.4197 -0.3049 -0.7598
  133SAPE    HY14329   5.515   0.934  10.577  0.1779  2.2965  1.2747
  133SAPE   O3114330   5.379   0.853  10.442 -0.4316 -0.1252 -0.6462
  133SAPE   C3114331   5.248   0.861  10.396 -0.5590 -0.0882 -0.4738
  133SAPE   O3214332   5.165   0.940  10.425 -0.0981 -0.4590 -0.2948
  133SAPE   C3214333   5.230   0.751  10.297  0.3508 -0.3576 -0.1103
  133SAPE   H2X14334   5.168   0.682  10.359 -1.7962  0.8683 -0.7988
  133SAPE   H2Y14335   5.325   0.697  10.280  1.4808  0.9010  1.8384
  133SAPE   C2314336   5.164   1.293  10.131 -0.9682 -0.2742  0.1554
  133SAPE   H3R14337   5.057   1.296  10.160 -0.7153  1.5370  1.0667
  133SAPE   H3S14338   5.199   1.206  10.071 -0.0274 -0.5549  1.0703
  133SAPE   C2414339   5.199   1.414  10.043 -0.0138 -0.4157 -0.1546
  133SAPE   H4R14340   5.296   1.391   9.992 -0.1702 -1.2443 -0.0926
  133SAPE   H4S14341   5.218   1.500  10.110  0.7663 -0.8650  0.2247
  133SAPE   C2514342   5.093   1.451   9.946 -0.0138  0.9849  0.3500
  133SAPE   H5R14343   4.990   1.428   9.978 -1.0788  3.2479 -1.1530
  133SAPE   C2614344   5.108   1.505   9.824 -0.0237  0.0572  0.2758
  133SAPE   H6R14345   5.009   1.521   9.778  0.4779 -1.2814 -1.3427
  133SAPE   C2714346   5.232   1.550   9.752 -0.0497 -0.0934 -0.1012
  133SAPE   H7R14347   5.248   1.477   9.670 -3.3523 -2.8500  1.4150
  133SAPE   H7S14348   5.318   1.539   9.820  0.4256 -1.3777 -0.8836
  133SAPE   C2814349   5.237   1.693   9.723 -0.2741  0.5055 -0.2959
  133SAPE   H8R14350   5.263   1.763   9.804  0.0996  0.4649 -0.3743
  133SAPE   C2914351   5.222   1.739   9.601 -0.3978 -0.3350  0.3528
  133SAPE   H9R14352   5.243   1.846   9.587  0.4357 -0.6734 -1.1918
  133SAPE  C21014353   5.202   1.666   9.472  0.2054 -0.1521  0.0103
  133SAPE  H10R14354   5.284   1.594   9.453 -0.2365 -0.6674  0.0471
  133SAPE  H10S14355   5.215   1.743   9.393  0.1961  3.0790  2.9002
  133SAPE  C21114356   5.070   1.607   9.451  0.4481 -0.2064 -0.2531
  133SAPE  H11R14357   4.983   1.674   9.466  0.2516 -0.3613 -0.6845
  133SAPE  C21214358   5.048   1.494   9.386 -0.2791 -0.5557  0.5474
  133SAPE  H12R14359   4.947   1.453   9.372  0.6176 -3.2131  1.2484
  133SAPE  C21314360   5.145   1.397   9.324  0.5672  0.4094 -0.0110
  133SAPE  H13R14361   5.137   1.304   9.384  2.6131 -0.2706 -0.7063
  133SAPE  H13S14362   5.250   1.433   9.331 -0.1745  2.5535  0.9669
  133SAPE  C21414363   5.123   1.325   9.195 -0.2781 -0.3477 -0.5219
  133SAPE  H14R14364   5.100   1.218   9.195 -1.7610 -0.0526  0.4757
  133SAPE  C21514365   5.143   1.386   9.073  0.4649 -0.0167 -0.8279
  133SAPE  H15R14366   5.117   1.327   8.984 -0.7471  0.5644 -0.8849
  133SAPE  C21614367   5.203   1.519   9.050 -0.6099  0.3656 -0.3468
  133SAPE  H16R14368   5.206   1.591   9.135 -0.7287  0.4580 -0.4186
  133SAPE  H16S14369   5.140   1.577   8.979 -1.7826 -1.0457 -0.4993
  133SAPE  C21714370   5.342   1.512   8.989 -0.4193 -0.0460 -0.2319
  133SAPE  H17R14371   5.362   1.612   8.944 -0.9601 -0.3771 -1.2439
  133SAPE  H17S14372   5.343   1.434   8.910  2.9046 -0.6185  0.2137
  133SAPE  C21814373   5.455   1.473   9.084 -0.2868  0.6289 -0.3609
  133SAPE  H18R14374   5.439   1.370   9.124 -1.9240  1.1421  0.4402
  133SAPE  H18S14375   5.466   1.535   9.176  4.7951  1.1508 -1.0427
  133SAPE  C21914376   5.596   1.481   9.016 -0.2693  0.5478 -0.1983
  133SAPE  H19R14377   5.598   1.577   8.959  1.4051 -0.3435 -1.7190
  133SAPE  H19S14378   5.598   1.396   8.944  0.5313  0.5489 -0.1854
  133SAPE  C22014379   5.719   1.465   9.108  0.3519  0.1531  0.0379
  133SAPE  H20R14380   5.704   1.386   9.184 -1.7023  0.1447 -0.3221
  133SAPE  H20S14381   5.722   1.561   9.164  1.0145  1.1233 -1.5994
  133SAPE  H20T14382   5.817   1.446   9.059  0.1613 -2.1884  0.4446
  133SAPE   C3314383   5.160   0.788  10.164  0.3083 -0.6114  0.1443
  133SAPE   H3X14384   5.067   0.845  10.184  0.1330 -1.3553  1.5209
  133SAPE   H3Y14385   5.129   0.691  10.118  2.0123 -1.1021 -0.0561
  133SAPE   C3414386   5.257   0.860  10.068  0.0950  0.7618 -0.1758
  133SAPE   H4X14387   5.332   0.787  10.033  0.3649  1.2127 -0.5399
  133SAPE   H4Y14388   5.316   0.944  10.112  1.5684 -0.4650  0.2848
  133SAPE   C3514389   5.186   0.918   9.948  0.9422 -0.5750 -0.5924
  133SAPE   H5X14390   5.103   0.982   9.984  0.3207 -0.1954 -2.5628
  133SAPE   H5Y14391   5.152   0.838   9.879  0.0428  2.0004 -3.3900
  133SAPE   C3614392   5.288   1.012   9.871 -0.0481  0.1361  0.2859
  133SAPE   H6X14393   5.368   0.947   9.830  0.8668  0.4937  1.4414
  133SAPE   H6Y14394   5.344   1.078   9.941  2.3050 -1.7244  0.2647
  133SAPE   C3714395   5.231   1.090   9.756 -0.5330  0.2306  0.6170
  133SAPE   H7X14396   5.317   1.140   9.706 -1.9728  1.4840 -0.6931
  133SAPE   H7Y14397   5.164   1.169   9.796  0.2000  0.6079  1.1121
  133SAPE   C3814398   5.153   1.016   9.651  0.1507 -0.2459  0.1424
  133SAPE   H8X14399   5.111   1.088   9.578 -0.4727 -0.5059  0.2363
  133SAPE   H8Y14400   5.067   0.974   9.707 -1.4099 -1.4871 -2.9345
  133SAPE   C3914401   5.233   0.898   9.586  0.6332 -0.5795 -0.4687
  133SAPE   H9X14402   5.277   0.834   9.666  3.1835 -1.1086 -2.1776
  133SAPE   H9Y14403   5.317   0.944   9.529  0.7822  0.9817  0.9126
  133SAPE  C31014404   5.159   0.819   9.479  0.9537  0.4774  0.2528
  133SAPE  H10X14405   5.165   0.872   9.381 -1.3361 -0.2764 -0.3581
  133SAPE  H10Y14406   5.049   0.815   9.496  0.5821 -1.7347 -2.0256
  133SAPE  C31114407   5.220   0.672   9.472 -0.0877 -0.9087  0.0243
  133SAPE  H11X14408   5.209   0.619   9.569  1.2811 -2.5915 -0.6910
  133SAPE  H11Y14409   5.328   0.692   9.458 -0.2576  1.5198  1.4998
  133SAPE  C31214410   5.156   0.585   9.370 -0.0018 -0.0030 -0.1121
  133SAPE  H12X14411   5.201   0.615   9.273 -0.0113 -1.3673 -0.5539
  133SAPE  H12Y14412   5.046   0.600   9.369 -0.1055 -0.7546 -0.1692
  133SAPE  C31314413   5.176   0.433   9.399  0.0394  0.3795 -0.7941
  133SAPE  H13X14414   5.157   0.404   9.504  0.9810  0.5561 -0.5698
  133SAPE  H13Y14415   5.284   0.409   9.391 -0.2725 -0.8090 -1.8623
  133SAPE  C31414416   5.097   0.339   9.299 -0.0996 -0.2064 -0.4450
  133SAPE  H14X14417   4.995   0.380   9.317 -0.1305 -0.6107  0.3617
  133SAPE  H14Y14418   5.094   0.230   9.320  2.7807 -0.5299 -1.2828
  133SAPE  C31514419   5.140   0.357   9.154  0.1516 -0.6027 -0.1101
  133SAPE  H15X14420   5.246   0.328   9.140  0.4649  1.5104 -3.0410
  133SAPE  H15Y14421   5.131   0.461   9.117  1.9489 -0.9427 -1.6439
  133SAPE  C31614422   5.062   0.259   9.066 -0.7319 -0.2337 -0.2714
  133SAPE  H16X14423   4.953   0.277   9.080 -1.1809 -1.6205 -1.6844
  133SAPE  H16Y14424   5.071   0.150   9.084  0.8675 -0.1527 -0.3804
  133SAPE  C31714425   5.102   0.288   8.924 -0.1816 -0.2319  0.2724
  133SAPE  H17X14426   5.212   0.279   8.921  0.0903  1.9900  1.1618
  133SAPE  H17Y14427   5.073   0.392   8.896  0.6263  0.5424  2.1373
  133SAPE  C31814428   5.051   0.193   8.821  0.0062  0.1096  0.2271
  133SAPE  H18X14429   5.075   0.087   8.842 -0.0136  0.4523  2.1132
  133SAPE  H18Y14430   5.104   0.208   8.724  0.7624 -3.4177 -0.0624
  133SAPE  H18Z14431   4.942   0.196   8.801  0.0340 -0.3601 -0.0143
  134SAPE     N14432   1.619   4.936  10.807 -0.4519  0.1017  0.1396
  134SAPE   HN114433   1.593   4.853  10.863  0.1932 -0.0006  0.2916
  134SAPE   HN214434   1.718   4.917  10.782  0.0918  1.1498  1.4070
  134SAPE   HN314435   1.624   5.019  10.869 -1.9325  0.8993 -0.7534
  134SAPE   C1214436   1.518   4.954  10.694  0.1001 -0.0244 -0.0365
  134SAPE  H12A14437   1.533   4.865  10.630  1.5638 -1.0981  1.7157
  134SAPE  H12B14438   1.548   5.041  10.633  0.3154 -1.2842 -1.7968
  134SAPE   C1114439   1.374   4.927  10.744 -0.3976 -0.5036  0.4815
  134SAPE  H11A14440   1.383   4.822  10.782 -2.1904 -0.6465  0.6028
  134SAPE  H11B14441   1.300   4.921  10.661  0.7518 -1.6241 -0.5179
  134SAPE     P14442   1.237   5.130  10.851 -0.4537  0.1123 -0.7520
  134SAPE   O1314443   1.169   5.145  10.980  0.6454  0.6263 -0.2660
  134SAPE   O1414444   1.306   5.250  10.793 -0.0027  0.1442  0.0785
  134SAPE   O1214445   1.340   5.010  10.865  0.3149  0.5962  0.2474
  134SAPE   O1114446   1.140   5.086  10.742 -0.0377  0.6232  0.1219
  134SAPE    C114447   1.040   4.976  10.763 -0.6587 -0.2954  0.5241
  134SAPE    HA14448   1.061   4.904  10.845  0.6855 -0.1720  0.3070
  134SAPE    HB14449   0.945   5.022  10.797 -0.5421 -0.6256  1.3196
  134SAPE    C214450   0.998   4.888  10.643  0.0345 -0.1441  0.2870
  134SAPE    HS14451   1.085   4.823  10.621  0.3137  0.2039  0.3569
  134SAPE   O2114452   0.964   4.957  10.524 -0.3524 -0.3139  0.8203
  134SAPE   C2114453   0.972   4.896  10.413  0.0332  0.0824 -0.2260
  134SAPE   O2214454   1.001   4.776  10.401  0.6810 -0.3377  0.1086
  134SAPE   C2214455   0.914   4.981  10.296 -0.1591  0.2852 -0.1187
  134SAPE   H2R14456   0.848   5.060  10.338 -0.1788 -0.1708  0.7279
  134SAPE   H2S14457   1.001   5.010  10.234 -0.5691 -2.0676 -1.9095
  134SAPE    C314458   0.873   4.785  10.680  0.5928 -1.2482 -0.0533
  134SAPE    HX14459   0.884   4.716  10.767 -0.2083 -2.2781 -0.7322
  134SAPE    HY14460   0.853   4.725  10.588 -0.4981  0.1894 -0.7852
  134SAPE   O3114461   0.755   4.864  10.724 -0.1570  0.6429  0.0907
  134SAPE   C3114462   0.670   4.886  10.625 -0.4881 -0.1577  0.1955
  134SAPE   O3214463   0.662   4.832  10.520  0.3103 -0.6984  0.2276
  134SAPE   C3214464   0.569   4.990  10.679  0.5558  0.2952 -0.3493
  134SAPE   H2X14465   0.553   4.959  10.785  0.3767 -0.5442 -0.6170
  134SAPE   H2Y14466   0.479   4.982  10.615  0.0053  1.0346  0.3050
  134SAPE   C2314467   0.828   4.893  10.202  0.2531 -1.2753  0.0757
  134SAPE   H3R14468   0.731   4.858  10.243  0.7972 -0.2266  2.4126
  134SAPE   H3S14469   0.891   4.806  10.173  0.4790 -1.4200  0.9661
  134SAPE   C2414470   0.782   4.963  10.074 -0.0876 -0.1058  0.2637
  134SAPE   H4R14471   0.722   5.050  10.108 -0.9870  0.1694 -1.8376
  134SAPE   H4S14472   0.704   4.904  10.021 -0.3163 -0.1415  0.6381
  134SAPE   C2514473   0.893   5.011   9.989 -0.5821 -0.5290  0.4118
  134SAPE   H5R14474   0.983   5.044  10.043 -1.0196 -1.5798  1.8583
  134SAPE   C2614475   0.905   5.017   9.859 -0.3946 -0.7074  0.5609
  134SAPE   H6R14476   1.002   5.045   9.814 -0.2128  0.0276  1.3781
  134SAPE   C2714477   0.799   4.976   9.756 -0.6535  0.1641 -0.8188
  134SAPE   H7R14478   0.785   5.059   9.684  1.1801  1.1595 -0.1012
  134SAPE   H7S14479   0.698   4.987   9.800 -2.4457  1.3222 -4.7732
  134SAPE   C2814480   0.841   4.844   9.698 -0.3910 -0.3642  0.8398
  134SAPE   H8R14481   0.859   4.772   9.780  3.1612  2.2702  2.6735
  134SAPE   C2914482   0.845   4.808   9.567 -0.5174 -0.7965  0.0362
  134SAPE   H9R14483   0.868   4.704   9.540 -0.3025 -0.7939  0.2020
  134SAPE  C21014484   0.818   4.903   9.450  0.8358 -0.3893  0.3696
  134SAPE  H10R14485   0.869   4.865   9.359 -2.0955  0.6477 -1.8475
  134SAPE  H10S14486   0.858   5.004   9.472 -3.3402  1.7189 -0.7058
  134SAPE  C21114487   0.671   4.920   9.411  0.1551  0.3776 -0.2079
  134SAPE  H11R14488   0.605   4.949   9.494 -1.3596 -0.6383 -1.0117
  134SAPE  C21214489   0.628   4.920   9.281 -0.6324 -0.3180 -0.3650
  134SAPE  H12R14490   0.521   4.938   9.262 -0.5843 -0.3554 -0.6813
  134SAPE  C21314491   0.701   4.903   9.153 -0.2303 -0.2851  0.2145
  134SAPE  H13R14492   0.782   4.978   9.146 -2.4724  2.3473  0.6975
  134SAPE  H13S14493   0.634   4.924   9.067  0.2085 -0.7440 -0.2467
  134SAPE  C21414494   0.758   4.763   9.141 -0.6761 -0.5982 -0.0106
  134SAPE  H14R14495   0.693   4.683   9.179 -1.5783  0.1853  0.1516
  134SAPE  C21514496   0.882   4.721   9.093 -0.6061  0.0976  0.2715
  134SAPE  H15R14497   0.903   4.613   9.092  1.2360  0.4291 -0.4743
  134SAPE  C21614498   0.994   4.812   9.050  0.1867 -0.2992 -0.2687
  134SAPE  H16R14499   1.093   4.779   9.088  0.8746  0.4389 -1.3463
  134SAPE  H16S14500   0.984   4.918   9.082  1.2926 -0.2781  0.0378
  134SAPE  C21714501   1.007   4.809   8.902  0.2483  0.3479  0.1559
  134SAPE  H17R14502   0.907   4.849   8.876 -0.3118  0.6079  2.5129
  134SAPE  H17S14503   1.011   4.711   8.850 -0.7524  0.6455 -0.5104
  134SAPE  C21814504   1.126   4.898   8.851  0.4946  0.2169  0.5486
  134SAPE  H18R14505   1.209   4.879   8.922  1.0448  0.2774 -0.0783
  134SAPE  H18S14506   1.114   5.009   8.852  0.1925  0.1843  1.1648
  134SAPE  C21914507   1.169   4.851   8.715  0.7773 -0.0797 -0.0896
  134SAPE  H19R14508   1.087   4.871   8.643 -0.2127 -3.1916  0.0340
  134SAPE  H19S14509   1.199   4.744   8.711  2.7941  0.2932  2.4343
  134SAPE  C22014510   1.288   4.934   8.651  0.1292  0.2003 -0.3462
  134SAPE  H20R14511   1.383   4.923   8.707 -0.6077  2.4432  1.4932
  134SAPE  H20S14512   1.253   5.039   8.645 -0.2013  0.1445  0.4420
  134SAPE  H20T14513   1.307   4.893   8.550  1.4270  1.3833 -0.6063
  134SAPE   C3314514   0.612   5.137  10.669 -0.4450 -0.6452 -0.2715
  134SAPE   H3X14515   0.717   5.141  10.704 -0.8933 -0.7139  1.1636
  134SAPE   H3Y14516   0.547   5.192  10.741 -0.6692  1.2131 -1.8195
  134SAPE   C3414517   0.606   5.195  10.532 -0.4891 -0.1173 -0.4425
  134SAPE   H4X14518   0.663   5.130  10.462  0.3648 -0.2321  0.3287
  134SAPE   H4Y14519   0.671   5.285  10.536  0.4502 -0.7746 -0.5355
  134SAPE   C3514520   0.461   5.208  10.485 -0.8456 -0.0979  0.0772
  134SAPE   H5X14521   0.405   5.266  10.561 -0.4619 -2.3447  2.1854
  134SAPE   H5Y14522   0.405   5.112  10.473 -0.8135 -0.3520  1.7896
  134SAPE   C3614523   0.471   5.298  10.354 -0.5150 -0.1197  0.8163
  134SAPE   H6X14524   0.541   5.385  10.360  1.7281 -1.7755 -0.0564
  134SAPE   H6Y14525   0.368   5.327  10.327 -0.3447 -0.5509 -0.3711
  134SAPE   C3714526   0.502   5.232  10.213 -0.3907 -0.0197 -0.3583
  134SAPE   H7X14527   0.426   5.151  10.209 -1.0665  0.6036 -0.2715
  134SAPE   H7Y14528   0.606   5.192  10.212 -0.0066  0.9407 -0.1289
  134SAPE   C3814529   0.492   5.317  10.086  0.4514 -0.3102 -0.2099
  134SAPE   H8X14530   0.569   5.398  10.092 -0.0208  0.0412  3.0451
  134SAPE   H8Y14531   0.406   5.386  10.098  1.8622  1.3201  1.3520
  134SAPE   C3914532   0.507   5.236   9.957 -0.0255  0.9142  0.4409
  134SAPE   H9X14533   0.431   5.155   9.964 -1.7372  2.4982  0.8514
  134SAPE   H9Y14534   0.606   5.186   9.968  0.8115  2.5108  0.4687
  134SAPE  C31014535   0.494   5.320   9.829  0.1812  0.2548  1.0891
  134SAPE  H10X14536   0.570   5.401   9.820 -2.8742  3.0634 -3.0987
  134SAPE  H10Y14537   0.407   5.388   9.834  0.7267  0.9304  1.6062
  134SAPE  C31114538   0.482   5.232   9.701  0.1720 -0.5641 -0.3026
  134SAPE  H11X14539   0.404   5.156   9.720 -1.3158  1.2025  1.1006
  134SAPE  H11Y14540   0.584   5.192   9.685 -0.0068 -0.4380 -1.9017
  134SAPE  C31214541   0.465   5.313   9.575  0.4452  0.1463  0.0451
  134SAPE  H12X14542   0.539   5.396   9.585 -1.2432  2.0072 -1.9475
  134SAPE  H12Y14543   0.366   5.360   9.564  0.1444 -0.6789 -1.0717
  134SAPE  C31314544   0.495   5.240   9.444  0.2143 -0.0147  0.0621
  134SAPE  H13X14545   0.430   5.150   9.439 -1.1834  1.0025 -1.0885
  134SAPE  H13Y14546   0.601   5.208   9.442  0.2536  0.1352 -0.7899
  134SAPE  C31414547   0.468   5.330   9.322  0.6909 -0.3338  0.3234
  134SAPE  H14X14548   0.530   5.422   9.325  0.0462  0.1567 -0.7626
  134SAPE  H14Y14549   0.367   5.375   9.332  1.1477  0.5053  1.4331
  134SAPE  C31514550   0.482   5.242   9.194 -0.2271 -0.5346  0.1465
  134SAPE  H15X14551   0.401   5.166   9.194 -1.5744  0.7508  2.8027
  134SAPE  H15Y14552   0.579   5.191   9.174 -0.6232 -1.5690  0.7973
  134SAPE  C31614553   0.447   5.330   9.069  0.2630 -0.1528 -0.6089
  134SAPE  H16X14554   0.522   5.412   9.059  1.7868 -1.3198  0.8137
  134SAPE  H16Y14555   0.343   5.368   9.077 -0.4395 -2.2362  0.8521
  134SAPE  C31714556   0.429   5.242   8.944 -0.2266  0.6110  0.0875
  134SAPE  H17X14557   0.386   5.149   8.988  3.5278  0.0477  3.0402
  134SAPE  H17Y14558   0.526   5.200   8.911 -0.2123 -0.4071  1.3346
  134SAPE  C31814559   0.366   5.321   8.828  0.5494 -0.6020  0.3552
  134SAPE  H18X14560   0.279   5.379   8.865  2.5467  2.2494  0.9657
  134SAPE  H18Y14561   0.346   5.255   8.741  2.0249 -0.1350 -0.3668
  134SAPE  H18Z14562   0.430   5.408   8.800 -1.6679  0.7077 -0.9321
  135SAPE     N14563   6.402   2.087  10.636 -0.5316  0.2973  0.4058
  135SAPE   HN114564   6.301   2.060  10.639 -0.5936  0.2669 -1.1840
  135SAPE   HN214565   6.452   2.004  10.674 -0.2828  0.2028 -0.1288
  135SAPE   HN314566   6.431   2.164  10.698 -0.3599 -0.3619  1.1642
  135SAPE   C1214567   6.447   2.100  10.498  0.0794 -0.1220 -0.2911
  135SAPE  H12A14568   6.428   2.205  10.467  1.1800 -0.3783 -1.9689
  135SAPE  H12B14569   6.382   2.041  10.429  0.8639 -0.4325 -0.7855
  135SAPE   C1114570   6.596   2.080  10.475  0.0500  0.6273 -0.4143
  135SAPE  H11A14571   6.633   2.095  10.371  2.1431 -1.4185 -0.0622
  135SAPE  H11B14572   6.631   1.975  10.486  1.3300  0.9252 -1.3863
  135SAPE     P14573   6.745   2.290  10.541  0.6638 -0.3330 -0.2336
  135SAPE   O1314574   6.640   2.389  10.540  0.7626  0.3480  0.4024
  135SAPE   O1414575   6.856   2.308  10.637  0.4649 -0.0291  0.4026
  135SAPE   O1214576   6.675   2.152  10.561  0.2186  0.7024  0.3060
  135SAPE   O1114577   6.801   2.289  10.400 -0.1086 -0.5646 -0.2409
  135SAPE    C114578   6.828   2.407  10.313 -0.3208 -0.4632  0.2088
  135SAPE    HA14579   6.759   2.489  10.342 -1.8932 -1.5108 -0.4033
  135SAPE    HB14580   6.937   2.426  10.317 -0.0975 -1.6263  0.0014
  135SAPE    C214581   6.776   2.376  10.171  0.1676  0.1248 -0.4738
  135SAPE    HS14582   6.666   2.358  10.178  0.2074 -0.2853 -0.8822
  135SAPE   O2114583   6.851   2.260  10.129 -0.5241 -0.4364 -0.1454
  135SAPE   C2114584   6.783   2.176  10.047 -0.0345  1.0324 -0.0693
  135SAPE   O2214585   6.666   2.186  10.018  0.2752  0.3405 -0.0607
  135SAPE   C2214586   6.888   2.080   9.977  0.3026 -0.0881 -0.6268
  135SAPE   H2R14587   6.960   2.158   9.945  0.8460 -0.2611  0.1330
  135SAPE   H2S14588   6.941   2.024  10.057 -0.1346  1.6769  0.9795
  135SAPE    C314589   6.794   2.499  10.067  0.8825 -0.2722  0.3906
  135SAPE    HX14590   6.903   2.521  10.058  0.7865 -0.6826 -3.6240
  135SAPE    HY14591   6.744   2.584  10.118  1.1280  0.7603 -1.0060
  135SAPE   O3114592   6.727   2.476   9.940 -0.2801  0.1041 -0.1366
  135SAPE   C3114593   6.822   2.456   9.843  0.1896  0.0430  0.0017
  135SAPE   O3214594   6.943   2.458   9.857 -0.0355 -0.4031 -0.4680
  135SAPE   C3214595   6.753   2.449   9.707  0.0623  1.1265 -0.3398
  135SAPE   H2X14596   6.726   2.552   9.677  1.7370  2.2386  1.7397
  135SAPE   H2Y14597   6.667   2.380   9.723  1.2431 -0.2896  0.1327
  135SAPE   C2314598   6.831   1.999   9.863  0.3406 -0.3430  0.3012
  135SAPE   H3R14599   6.760   2.058   9.802 -1.1373 -1.7404  0.6286
  135SAPE   H3S14600   6.784   1.911   9.910  0.2470  0.1185  1.0933
  135SAPE   C2414601   6.940   1.959   9.770 -0.6546  0.0509  0.0491
  135SAPE   H4R14602   7.008   1.884   9.816  1.5805  2.3372  0.6586
  135SAPE   H4S14603   7.006   2.043   9.739 -1.1200  0.2635 -0.3843
  135SAPE   C2514604   6.905   1.894   9.637 -0.4792  0.4968 -0.5174
  135SAPE   H5R14605   6.809   1.839   9.639 -0.4688  0.4761 -0.6028
  135SAPE   C2614606   6.974   1.903   9.519  0.3114  0.6263 -0.3204
  135SAPE   H6R14607   6.935   1.850   9.430 -0.4037  1.2440 -0.3775
  135SAPE   C2714608   7.106   1.973   9.498 -0.2968 -0.3922 -0.9478
  135SAPE   H7R14609   7.154   1.994   9.596  2.4516  1.1523 -2.5030
  135SAPE   H7S14610   7.073   2.074   9.463  0.5486 -0.6588 -2.6046
  135SAPE   C2814611   7.215   1.912   9.417  0.7808  0.2345 -0.4003
  135SAPE   H8R14612   7.308   1.892   9.472  0.2554 -3.0956 -0.4796
  135SAPE   C2914613   7.211   1.891   9.287  0.3307 -0.8427 -0.1399
  135SAPE   H9R14614   7.297   1.832   9.251  0.3552 -0.9052  0.0230
  135SAPE  C21014615   7.096   1.918   9.189  0.1894  0.2238  0.1074
  135SAPE  H10R14616   7.003   1.950   9.240  0.6775 -0.4330  1.4610
  135SAPE  H10S14617   7.070   1.828   9.130  2.1230  0.6083 -1.4415
  135SAPE  C21114618   7.148   2.020   9.081  0.6211 -0.0633 -0.6991
  135SAPE  H11R14619   7.211   2.093   9.133 -0.8261  0.8170 -0.1197
  135SAPE  C21214620   7.149   2.032   8.952 -0.8705  0.1527 -0.1002
  135SAPE  H12R14621   7.208   2.117   8.917  0.3080 -0.3362  0.6463
  135SAPE  C21314622   7.090   1.946   8.845  0.5126 -0.2591 -0.4055
  135SAPE  H13R14623   7.064   1.852   8.898 -1.6411  0.0813 -0.7833
  135SAPE  H13S14624   7.165   1.919   8.767 -0.4871 -2.5708 -0.6490
  135SAPE  C21414625   6.968   2.009   8.773 -0.1589 -0.1689 -0.2895
  135SAPE  H14R14626   6.941   2.109   8.808  0.8534  0.3185 -0.8366
  135SAPE  C21514627   6.900   1.948   8.676 -0.2901  0.1858 -1.0941
  135SAPE  H15R14628   6.815   1.994   8.622  0.8589  0.4600 -2.7529
  135SAPE  C21614629   6.940   1.808   8.633  0.5355  0.8267 -0.3699
  135SAPE  H16R14630   6.912   1.746   8.721 -0.3779  1.3351 -0.2890
  135SAPE  H16S14631   7.045   1.807   8.599  0.4711 -0.6948 -0.5660
  135SAPE  C21714632   6.852   1.753   8.518  0.4590 -0.0515  0.1887
  135SAPE  H17R14633   6.866   1.821   8.431 -0.4112  0.7288  0.6411
  135SAPE  H17S14634   6.745   1.743   8.547 -0.0182 -0.5171 -1.5926
  135SAPE  C21814635   6.893   1.606   8.479 -0.1216 -0.1081  0.0163
  135SAPE  H18R14636   7.004   1.598   8.477 -0.1408 -0.3718 -1.9525
  135SAPE  H18S14637   6.850   1.576   8.381 -2.8964  0.0763  1.1011
  135SAPE  C21914638   6.834   1.495   8.579 -0.4737 -0.8929 -0.1076
  135SAPE  H19R14639   6.737   1.531   8.619  0.2040 -0.6717  1.4121
  135SAPE  H19S14640   6.904   1.481   8.664 -0.4618 -1.2940 -0.1796
  135SAPE  C22014641   6.813   1.364   8.520 -0.1711 -0.0767  0.4320
  135SAPE  H20R14642   6.768   1.303   8.602 -0.9654 -0.1088 -0.0149
  135SAPE  H20S14643   6.905   1.325   8.472 -0.0635  0.8985 -0.2063
  135SAPE  H20T14644   6.741   1.366   8.435  0.8031  0.7709 -0.4003
  135SAPE   C3314645   6.836   2.389   9.583 -0.2018  0.0069  0.3098
  135SAPE   H3X14646   6.874   2.286   9.597 -2.0651 -0.6338  0.9593
  135SAPE   H3Y14647   6.926   2.455   9.579  0.5783 -0.8569  2.3995
  135SAPE   C3414648   6.756   2.385   9.447  0.2600 -0.4536 -0.4405
  135SAPE   H4X14649   6.697   2.478   9.433 -1.8922 -1.4093  1.5173
  135SAPE   H4Y14650   6.691   2.294   9.445  2.6840 -2.2911 -0.0953
  135SAPE   C3514651   6.861   2.369   9.340  0.5196 -0.0528  0.3134
  135SAPE   H5X14652   6.917   2.273   9.333  0.2887 -0.3016  1.6436
  135SAPE   H5Y14653   6.937   2.448   9.355  0.4282 -0.1812  1.4935
  135SAPE   C3614654   6.792   2.399   9.200  0.8216  0.1967  0.8359
  135SAPE   H6X14655   6.742   2.498   9.200 -0.1987 -0.3033  0.2015
  135SAPE   H6Y14656   6.701   2.337   9.189 -0.8096  2.6796 -0.6142
  135SAPE   C3714657   6.890   2.397   9.076  0.6030 -0.1636  0.2935
  135SAPE   H7X14658   6.954   2.306   9.073 -1.3714 -1.5950 -0.9512
  135SAPE   H7Y14659   6.953   2.487   9.092 -0.9441  0.7490  1.5112
  135SAPE   C3814660   6.830   2.428   8.932  0.3563  0.1079  0.0421
  135SAPE   H8X14661   6.788   2.529   8.917 -1.0490 -0.5515 -0.6221
  135SAPE   H8Y14662   6.755   2.347   8.917  0.5988 -0.0903 -0.1220
  135SAPE   C3914663   6.938   2.422   8.821  0.3604  0.3841 -0.0701
  135SAPE   H9X14664   7.000   2.335   8.851  0.5464 -0.0738 -1.7012
  135SAPE   H9Y14665   6.987   2.521   8.813  2.2552 -0.4743  0.3755
  135SAPE  C31014666   6.874   2.406   8.685  0.3960 -0.2666  0.5340
  135SAPE  H10X14667   6.795   2.483   8.669  0.3017 -0.6667 -1.1517
  135SAPE  H10Y14668   6.811   2.315   8.675 -1.5966  1.3088 -4.0371
  135SAPE  C31114669   6.973   2.401   8.570 -0.2048  0.0898  0.0643
  135SAPE  H11X14670   7.029   2.497   8.562 -1.2991  0.6811 -0.9767
  135SAPE  H11Y14671   6.922   2.373   8.475 -0.2113  0.0467  0.0806
  135SAPE  C31214672   7.072   2.285   8.575  0.1877 -1.0984  0.0395
  135SAPE  H12X14673   7.028   2.184   8.586 -2.2639 -0.3771 -1.9821
  135SAPE  H12Y14674   7.137   2.295   8.664 -0.9893 -0.8614  0.8955
  135SAPE  C31314675   7.165   2.272   8.464  0.1544  0.3302 -0.4036
  135SAPE  H13X14676   7.225   2.365   8.455 -1.8225  1.6963 -0.2514
  135SAPE  H13Y14677   7.119   2.262   8.363 -2.2600  1.4147  0.5000
  135SAPE  C31414678   7.253   2.146   8.493 -0.1993 -0.1571 -0.2434
  135SAPE  H14X14679   7.200   2.051   8.513 -0.3242 -0.5598 -2.2901
  135SAPE  H14Y14680   7.320   2.157   8.581  1.8071 -1.9767 -1.4318
  135SAPE  C31514681   7.354   2.122   8.381 -0.0427 -0.2900  1.0367
  135SAPE  H15X14682   7.422   2.208   8.364 -2.6974  1.4970 -1.6401
  135SAPE  H15Y14683   7.305   2.101   8.284 -0.0876  0.4659  0.8971
  135SAPE  C31614684   7.430   1.993   8.404 -0.0629 -0.6702  0.2429
  135SAPE  H16X14685   7.474   1.993   8.506  1.2632  0.9291 -0.2855
  135SAPE  H16Y14686   7.512   1.984   8.331  1.5913 -4.8004  2.3003
  135SAPE  C31714687   7.356   1.861   8.397  0.2166  0.4379 -0.0589
  135SAPE  H17X14688   7.295   1.856   8.489  0.0833 -0.9461 -0.2039
  135SAPE  H17Y14689   7.423   1.772   8.398 -3.5252 -2.6883 -1.5260
  135SAPE  C31814690   7.261   1.846   8.283 -0.6797  0.1856 -0.2907
  135SAPE  H18X14691   7.310   1.840   8.184  1.8518 -1.4387  0.9293
  135SAPE  H18Y14692   7.186   1.927   8.279 -2.6251 -1.4139  1.2159
  135SAPE  H18Z14693   7.209   1.748   8.292 -0.4766  0.0887 -0.1565
  136SAPE     N14694   1.661   3.533  10.919 -0.3392 -0.0842 -0.3057
  136SAPE   HN114695   1.641   3.488  10.828 -1.3704  0.6093 -0.4318
  136SAPE   HN214696   1.637   3.634  10.917  0.7272  0.2064  0.7036
  136SAPE   HN314697   1.764   3.535  10.938 -0.3098 -2.1957  0.0256
  136SAPE   C1214698   1.588   3.454  11.033  0.5595 -0.3325 -0.1581
  136SAPE  H12A14699   1.482   3.434  11.005  0.2901 -0.9471  1.2424
  136SAPE  H12B14700   1.591   3.508  11.130  1.3389 -1.3470  0.3887
  136SAPE   C1114701   1.664   3.321  11.061  0.1446 -0.0788 -0.0068
  136SAPE  H11A14702   1.639   3.272  11.157 -1.6863  1.2247  0.2324
  136SAPE  H11B14703   1.775   3.331  11.062  0.2613 -0.9992 -1.0628
  136SAPE     P14704   1.540   3.124  10.959  0.2272  0.4018 -0.2030
  136SAPE   O1314705   1.522   3.075  11.098 -0.4424  0.1762  0.0669
  136SAPE   O1414706   1.421   3.181  10.890 -0.3203 -0.1016 -0.3782
  136SAPE   O1214707   1.655   3.233  10.958  0.2142  0.3441  0.4720
  136SAPE   O1114708   1.608   3.004  10.888 -0.6283 -0.2806  0.3295
  136SAPE    C114709   1.748   3.005  10.857 -0.2597  0.4275  0.2457
  136SAPE    HA14710   1.775   3.093  10.795 -1.2967 -1.1770 -2.6711
  136SAPE    HB14711   1.814   3.012  10.946 -1.1423  0.0814  0.9532
  136SAPE    C214712   1.804   2.874  10.788  0.2593 -0.4476  0.3808
  136SAPE    HS14713   1.908   2.894  10.754  0.1467  0.0918  0.3448
  136SAPE   O2114714   1.722   2.825  10.679  1.0031 -0.5452 -0.0257
  136SAPE   C2114715   1.697   2.920  10.581 -0.2765 -0.0088 -0.4323
  136SAPE   O2214716   1.761   3.025  10.572 -0.0025 -0.0717 -0.1074
  136SAPE   C2214717   1.577   2.880  10.492  0.1891  0.0744 -0.4147
  136SAPE   H2R14718   1.497   2.854  10.565  0.9539  2.9027  1.6171
  136SAPE   H2S14719   1.544   2.973  10.442  0.9979  0.6786  0.1539
  136SAPE    C314720   1.820   2.760  10.890 -0.7036 -0.1647 -0.0977
  136SAPE    HX14721   1.722   2.746  10.939 -1.5016  1.6015 -1.0909
  136SAPE    HY14722   1.886   2.794  10.973  0.0880 -0.6877 -0.5038
  136SAPE   O3114723   1.869   2.636  10.827  0.1418 -0.2674 -0.0838
  136SAPE   C3114724   2.002   2.636  10.793 -0.1346  0.1436 -0.6189
  136SAPE   O3214725   2.076   2.734  10.809  0.2007 -0.1405 -0.1247
  136SAPE   C3214726   2.032   2.504  10.717 -0.1928  0.5592  0.4696
  136SAPE   H2X14727   1.935   2.462  10.682  0.9546 -2.3796  0.6081
  136SAPE   H2Y14728   2.067   2.427  10.788  1.5888 -0.2486 -1.1866
  136SAPE   C2314729   1.630   2.772  10.395 -0.2217 -0.3351 -1.0529
  136SAPE   H3R14730   1.546   2.711  10.356  1.0733 -0.2447 -4.2795
  136SAPE   H3S14731   1.698   2.698  10.444 -1.2242  0.1069  1.1295
  136SAPE   C2414732   1.700   2.834  10.271  0.4135 -0.4453  0.4136
  136SAPE   H4R14733   1.779   2.900  10.313  0.0339  1.5140 -1.7566
  136SAPE   H4S14734   1.619   2.895  10.227  1.0138  0.0148 -0.0729
  136SAPE   C2514735   1.791   2.744  10.183 -0.1198  0.2681 -0.0868
  136SAPE   H5R14736   1.827   2.653  10.235 -1.9835  0.0144  0.8351
  136SAPE   C2614737   1.808   2.757  10.054  0.1886  1.4542 -0.4228
  136SAPE   H6R14738   1.863   2.677  10.003  2.0409  1.5312  1.3050
  136SAPE   C2714739   1.749   2.855   9.962 -0.0837  0.1020  0.1183
  136SAPE   H7R14740   1.683   2.933  10.007  0.6667  1.5700 -1.2321
  136SAPE   H7S14741   1.671   2.813   9.897 -0.2626  1.0633 -0.3103
  136SAPE   C2814742   1.854   2.930   9.875  0.2686  0.4279  0.5308
  136SAPE   H8R14743   1.940   2.975   9.926  0.1085  0.7979  0.4790
  136SAPE   C2914744   1.832   2.967   9.750  0.0989  0.3307  0.1821
  136SAPE   H9R14745   1.919   2.997   9.690 -0.4946  0.5059 -0.6069
  136SAPE  C21014746   1.710   2.941   9.668 -0.5393  0.4438  0.0392
  136SAPE  H10R14747   1.617   2.914   9.722 -0.7180 -0.7374 -0.8125
  136SAPE  H10S14748   1.732   2.854   9.603 -3.6223  1.0345 -1.9840
  136SAPE  C21114749   1.679   3.054   9.573  0.0905 -0.4080 -0.1004
  136SAPE  H11R14750   1.699   3.147   9.627  0.6768 -1.4804  1.6056
  136SAPE  C21214751   1.627   3.048   9.450 -0.0506  0.0145  0.2341
  136SAPE  H12R14752   1.600   3.146   9.408 -2.1149 -1.0662 -1.1492
  136SAPE  C21314753   1.586   2.932   9.365 -0.3306  0.7551 -0.0064
  136SAPE  H13R14754   1.510   2.960   9.290  0.6106 -1.2344 -1.8125
  136SAPE  H13S14755   1.538   2.853   9.427 -2.8625 -0.0955 -2.8491
  136SAPE  C21414756   1.707   2.863   9.301 -0.3292 -0.2457  0.1681
  136SAPE  H14R14757   1.761   2.795   9.370  0.2338  0.8454  0.8281
  136SAPE  C21514758   1.744   2.872   9.172  0.4279 -0.1131 -0.1028
  136SAPE  H15R14759   1.833   2.818   9.139  0.4745 -0.1863  0.1386
  136SAPE  C21614760   1.679   2.946   9.060 -0.4319 -0.5215  0.5262
  136SAPE  H16R14761   1.735   3.042   9.054  0.6692 -1.1529  0.4299
  136SAPE  H16S14762   1.575   2.973   9.088 -0.6995 -0.4981 -0.4404
  136SAPE  C21714763   1.682   2.883   8.913  0.0167  0.3781  0.1180
  136SAPE  H17R14764   1.640   2.781   8.927  0.0717  0.2788 -0.4245
  136SAPE  H17S14765   1.786   2.880   8.876  0.6473  1.8790  1.6318
  136SAPE  C21814766   1.616   2.981   8.804 -0.0762  0.1053 -0.2202
  136SAPE  H18R14767   1.669   3.078   8.805  1.3524 -0.5803 -2.2688
  136SAPE  H18S14768   1.511   3.004   8.829 -0.9987 -0.3730 -3.2500
  136SAPE  C21914769   1.606   2.924   8.660 -0.2130 -0.5648  0.0435
  136SAPE  H19R14770   1.610   2.813   8.652 -2.1971 -1.0055  3.1461
  136SAPE  H19S14771   1.688   2.974   8.605 -0.8740  0.9821  0.4235
  136SAPE  C22014772   1.486   2.975   8.581  1.3039 -0.1344  0.6135
  136SAPE  H20R14773   1.393   2.944   8.633  0.7724  0.6615  0.1732
  136SAPE  H20S14774   1.494   2.932   8.478 -0.7568  2.5543 -0.8122
  136SAPE  H20T14775   1.480   3.086   8.585  0.6111 -0.0915 -0.9009
  136SAPE   C3314776   2.130   2.513  10.595  0.4743 -0.4603  0.1261
  136SAPE   H3X14777   2.146   2.409  10.559  0.8729 -1.1639  2.1893
  136SAPE   H3Y14778   2.225   2.544  10.643 -0.0739  0.9301  0.3539
  136SAPE   C3414779   2.075   2.604  10.484  0.3621 -0.3302  0.1587
  136SAPE   H4X14780   2.063   2.709  10.519 -0.2710 -0.2719 -0.2246
  136SAPE   H4Y14781   1.985   2.555  10.441  0.3112 -1.4008  1.4229
  136SAPE   C3514782   2.179   2.610  10.380 -0.5389  0.4590 -0.1123
  136SAPE   H5X14783   2.202   2.504  10.355 -0.1135  0.1620  1.4194
  136SAPE   H5Y14784   2.279   2.636  10.421  0.5445 -0.4957 -2.0056
  136SAPE   C3614785   2.157   2.705  10.262 -0.4022 -0.1278  0.0428
  136SAPE   H6X14786   2.141   2.809  10.297  0.7137 -0.5069  1.8449
  136SAPE   H6Y14787   2.059   2.674  10.218 -2.0281  1.4836  2.2660
  136SAPE   C3714788   2.256   2.693  10.145 -0.2381  0.2772 -0.4167
  136SAPE   H7X14789   2.273   2.585  10.126  2.5062  0.4161  0.8311
  136SAPE   H7Y14790   2.350   2.721  10.197  0.4277 -1.6792 -0.4921
  136SAPE   C3814791   2.215   2.772  10.025 -0.0886 -0.4285  0.3138
  136SAPE   H8X14792   2.217   2.878  10.057  0.9485 -0.9220  1.9995
  136SAPE   H8Y14793   2.106   2.760  10.003  0.2153 -0.4426 -1.3464
  136SAPE   C3914794   2.297   2.735   9.904 -0.4639 -0.0491  0.0830
  136SAPE   H9X14795   2.274   2.632   9.871 -1.8445  0.6347 -1.2401
  136SAPE   H9Y14796   2.402   2.742   9.941 -1.0066  3.7745  1.4106
  136SAPE  C31014797   2.284   2.834   9.797 -0.1947 -0.1823 -0.4405
  136SAPE  H10X14798   2.313   2.930   9.845 -1.1749  0.0669 -0.3255
  136SAPE  H10Y14799   2.182   2.869   9.769  0.6803  2.8669 -0.2137
  136SAPE  C31114800   2.374   2.818   9.677  0.1532 -1.6889  0.3375
  136SAPE  H11X14801   2.463   2.764   9.716  1.1752  0.6394  1.4432
  136SAPE  H11Y14802   2.413   2.915   9.640 -0.0398  0.6124  5.3278
  136SAPE  C31214803   2.309   2.731   9.569  0.0910 -0.1304 -0.0722
  136SAPE  H12X14804   2.230   2.786   9.514  2.0369  3.0256  0.0727
  136SAPE  H12Y14805   2.272   2.635   9.612 -0.2304 -0.0862 -0.2485
  136SAPE  C31314806   2.411   2.681   9.455 -0.6100  0.3320  0.1524
  136SAPE  H13X14807   2.361   2.610   9.387  0.0758  0.1190 -0.1356
  136SAPE  H13Y14808   2.488   2.618   9.504 -1.6066 -2.3653 -1.5474
  136SAPE  C31414809   2.480   2.801   9.387 -0.7928  0.3418 -0.1773
  136SAPE  H14X14810   2.587   2.782   9.367  0.1885 -0.1726  4.4547
  136SAPE  H14Y14811   2.498   2.888   9.454  2.4105 -1.0568  0.9638
  136SAPE  C31514812   2.402   2.844   9.263  0.0800 -0.3705  0.5471
  136SAPE  H15X14813   2.312   2.905   9.288  1.4015  2.9873 -2.0202
  136SAPE  H15Y14814   2.361   2.752   9.217  1.2142 -0.9331  0.6185
  136SAPE  C31614815   2.490   2.930   9.169  0.9189  0.3002  0.5095
  136SAPE  H16X14816   2.433   2.929   9.074 -1.0012 -3.0392  1.5113
  136SAPE  H16Y14817   2.585   2.874   9.153  0.0662 -1.6799  1.8928
  136SAPE  C31714818   2.507   3.078   9.215  0.5150 -0.0303  0.4169
  136SAPE  H17X14819   2.563   3.088   9.310  0.9957  1.8171 -0.0268
  136SAPE  H17Y14820   2.404   3.114   9.233 -1.1995 -3.0084 -2.3698
  136SAPE  C31814821   2.574   3.161   9.114 -0.0931 -0.3340  0.6138
  136SAPE  H18X14822   2.677   3.128   9.086 -0.5723  0.1222 -1.9845
  136SAPE  H18Y14823   2.569   3.270   9.133 -0.1366 -0.3763  0.8441
  136SAPE  H18Z14824   2.523   3.148   9.016 -0.4787 -0.6400  0.8550
  137SAPE     N14825   0.013   4.608  10.705 -0.1356 -0.1266  0.8330
  137SAPE   HN114826   0.023   4.704  10.667 -0.1398 -1.2791 -2.4269
  137SAPE   HN214827  -0.058   4.571  10.639  0.3797  1.5515 -0.7386
  137SAPE   HN314828  -0.017   4.606  10.805  1.2827  2.7703  1.4250
  137SAPE   C1214829   0.139   4.533  10.682 -0.4669  0.5721 -0.1420
  137SAPE  H12A14830   0.191   4.557  10.777  1.4180 -0.2248 -0.9202
  137SAPE  H12B14831   0.192   4.578  10.595  0.1479  2.3794  1.1146
  137SAPE   C1114832   0.109   4.382  10.675  0.4040  0.4809  0.1961
  137SAPE  H11A14833   0.205   4.329  10.660 -0.4803 -1.7744  1.8305
  137SAPE  H11B14834   0.037   4.357  10.594  0.6229 -1.2583  0.5049
  137SAPE     P14835  -0.076   4.284  10.844  0.3335  0.0723 -0.3237
  137SAPE   O1314836  -0.113   4.154  10.778 -0.1547 -0.0551  0.3110
  137SAPE   O1414837  -0.094   4.304  10.989  0.1387 -0.2620 -0.1834
  137SAPE   O1214838   0.070   4.327  10.803 -0.3111  0.4425 -0.5402
  137SAPE   O1114839  -0.156   4.396  10.766  0.6336  0.5178  0.2494
  137SAPE    C114840  -0.297   4.387  10.759 -0.2715  0.2187  0.1402
  137SAPE    HA14841  -0.345   4.307  10.818  1.3841  0.2503  1.5768
  137SAPE    HB14842  -0.335   4.481  10.806  0.1679  1.1763 -1.3365
  137SAPE    C214843  -0.354   4.390  10.612  0.0955  0.1187  0.1961
  137SAPE    HS14844  -0.279   4.339  10.547  0.8350  1.2742  0.1118
  137SAPE   O2114845  -0.383   4.519  10.571 -0.1776  0.4571 -0.1646
  137SAPE   C2114846  -0.285   4.584  10.504 -0.2364 -0.1275 -0.2563
  137SAPE   O2214847  -0.172   4.543  10.488  0.1825 -0.0274  0.4260
  137SAPE   C2214848  -0.336   4.717  10.462  0.2367  0.0551  0.6366
  137SAPE   H2R14849  -0.422   4.754  10.522 -1.1804 -2.5714  0.3443
  137SAPE   H2S14850  -0.256   4.790  10.488  1.9869 -1.5982  0.1613
  137SAPE    C314851  -0.492   4.324  10.607 -0.2864 -0.0587 -0.7297
  137SAPE    HX14852  -0.540   4.356  10.512 -2.0516 -0.4503 -0.0176
  137SAPE    HY14853  -0.560   4.365  10.684  2.0113  3.6589 -0.4463
  137SAPE   O3114854  -0.486   4.174  10.612 -0.0694 -0.0848  0.8601
  137SAPE   C3114855  -0.458   4.125  10.488  0.1221 -0.3322 -0.8207
  137SAPE   O3214856  -0.445   4.188  10.386 -0.5976 -0.6065  0.2633
  137SAPE   C3214857  -0.442   3.973  10.498  0.6961 -0.1613 -0.1395
  137SAPE   H2X14858  -0.532   3.932  10.549  1.3383 -0.1929  1.0135
  137SAPE   H2Y14859  -0.361   3.951  10.571 -0.1126 -1.2864  0.4614
  137SAPE   C2314860  -0.359   4.740  10.314  0.4470  0.4984  0.1487
  137SAPE   H3R14861  -0.436   4.674  10.268  2.0429  0.9545 -3.5244
  137SAPE   H3S14862  -0.270   4.707  10.256  0.3921 -2.2770  1.4748
  137SAPE   C2414863  -0.399   4.887  10.274  0.1171  0.2788  0.3545
  137SAPE   H4R14864  -0.466   4.923  10.355  2.0887  2.1194  1.2999
  137SAPE   H4S14865  -0.450   4.884  10.176 -0.8369 -2.7566  0.8521
  137SAPE   C2514866  -0.277   4.979  10.272  0.2807  0.8150  0.0007
  137SAPE   H5R14867  -0.209   4.987  10.359  1.0362 -1.4324 -0.3206
  137SAPE   C2614868  -0.246   5.066  10.176 -0.2462 -0.9315 -0.2924
  137SAPE   H6R14869  -0.157   5.131  10.183 -0.2272 -0.9342 -0.5036
  137SAPE   C2714870  -0.317   5.096  10.048  0.7506 -0.3991  0.0775
  137SAPE   H7R14871  -0.351   5.202  10.051 -1.6500 -1.0791 -0.8941
  137SAPE   H7S14872  -0.409   5.034  10.042 -0.0723  0.8797 -1.2684
  137SAPE   C2814873  -0.233   5.076   9.920  0.5717 -0.2420  0.1650
  137SAPE   H8R14874  -0.123   5.074   9.927  0.4883 -1.0871  1.4910
  137SAPE   C2914875  -0.290   5.072   9.798  0.3725  0.5986  0.2420
  137SAPE   H9R14876  -0.231   5.058   9.707 -1.2138 -1.0733 -0.5980
  137SAPE  C21014877  -0.438   5.082   9.756  0.9978  0.9858  0.6207
  137SAPE  H10R14878  -0.506   5.067   9.842  0.2472 -2.5203 -0.4251
  137SAPE  H10S14879  -0.462   5.006   9.678  3.4119 -1.0465  1.7289
  137SAPE  C21114880  -0.453   5.227   9.702 -0.9282  0.2854  0.2411
  137SAPE  H11R14881  -0.419   5.309   9.766 -2.3934 -0.2267  1.7438
  137SAPE  C21214882  -0.494   5.259   9.580  0.0468  0.9560  0.2674
  137SAPE  H12R14883  -0.493   5.363   9.545 -0.3027  1.0231  0.4493
  137SAPE  C21314884  -0.537   5.149   9.477 -0.1620 -0.6586  0.2485
  137SAPE  H13R14885  -0.608   5.192   9.403  0.5358 -1.2237 -0.7672
  137SAPE  H13S14886  -0.591   5.061   9.519 -0.4555 -0.9272 -0.6583
  137SAPE  C21414887  -0.415   5.107   9.406 -0.3983 -0.2133  0.1754
  137SAPE  H14R14888  -0.319   5.136   9.451 -0.6379  4.2193 -1.7020
  137SAPE  C21514889  -0.417   5.052   9.287 -0.1002 -0.0371  0.1413
  137SAPE  H15R14890  -0.317   5.042   9.242 -0.4365 -0.7004 -0.4888
  137SAPE  C21614891  -0.537   5.011   9.204  0.1661  0.0148  0.3451
  137SAPE  H16R14892  -0.620   4.981   9.271 -0.0613 -0.8932 -0.3321
  137SAPE  H16S14893  -0.507   4.919   9.151  1.8814 -0.4182  1.9592
  137SAPE  C21714894  -0.599   5.109   9.106  0.1856 -0.3979  0.3168
  137SAPE  H17R14895  -0.649   5.188   9.164  0.2278  0.0329 -0.2223
  137SAPE  H17S14896  -0.687   5.054   9.066  1.1536 -1.7586 -0.0455
  137SAPE  C21814897  -0.509   5.157   8.992  0.0909  0.4256 -0.2351
  137SAPE  H18R14898  -0.475   5.073   8.927  1.0360  0.4030  0.2771
  137SAPE  H18S14899  -0.413   5.189   9.038 -0.5121  0.8663  0.7514
  137SAPE  C21914900  -0.570   5.259   8.899  0.5251 -0.0274  0.1545
  137SAPE  H19R14901  -0.674   5.229   8.871  0.7485 -0.4748 -0.2147
  137SAPE  H19S14902  -0.518   5.258   8.801 -1.0070  0.0155 -0.6938
  137SAPE  C22014903  -0.579   5.406   8.948  0.6035  0.0562  0.1190
  137SAPE  H20R14904  -0.643   5.457   8.874  0.0218 -1.1414 -0.2309
  137SAPE  H20S14905  -0.479   5.452   8.933  2.0250 -3.1577 -1.4713
  137SAPE  H20T14906  -0.623   5.400   9.049 -0.9746  1.6682 -0.4260
  137SAPE   C3314907  -0.428   3.918  10.354 -0.7284  0.3317  0.2950
  137SAPE   H3X14908  -0.320   3.920  10.332 -0.6052 -0.5487  0.7780
  137SAPE   H3Y14909  -0.472   3.977  10.270 -1.7063  0.8395  1.1425
  137SAPE   C3414910  -0.477   3.778  10.341 -0.1614 -0.0173 -0.5971
  137SAPE   H4X14911  -0.586   3.799  10.334 -0.2926 -0.9370 -1.8165
  137SAPE   H4Y14912  -0.449   3.717  10.429 -2.3956  0.1749  0.3190
  137SAPE   C3514913  -0.439   3.696  10.215 -0.2637 -0.4293 -0.0792
  137SAPE   H5X14914  -0.506   3.608  10.211  0.3258 -0.8753 -0.2892
  137SAPE   H5Y14915  -0.334   3.663  10.202  0.1221  0.0903  1.4939
  137SAPE   C3614916  -0.470   3.770  10.090 -0.0025 -0.4489  0.0746
  137SAPE   H6X14917  -0.409   3.862  10.083  1.2663 -1.3287 -1.2217
  137SAPE   H6Y14918  -0.579   3.787  10.100  0.1332  0.2318  0.4517
  137SAPE   C3714919  -0.449   3.682   9.965  0.4352 -0.3121 -0.1461
  137SAPE   H7X14920  -0.520   3.597   9.961  0.2189 -0.1664  0.4620
  137SAPE   H7Y14921  -0.342   3.652   9.974  1.5198  2.7341 -1.2556
  137SAPE   C3814922  -0.467   3.763   9.839 -0.0317  0.2722  0.3775
  137SAPE   H8X14923  -0.424   3.865   9.848  1.0348 -0.1241 -0.1292
  137SAPE   H8Y14924  -0.574   3.793   9.828 -0.6291 -1.9132 -0.2585
  137SAPE   C3914925  -0.423   3.684   9.721 -0.5109  0.1866 -0.5471
  137SAPE   H9X14926  -0.324   3.638   9.739 -0.2652  1.2621  1.0284
  137SAPE   H9Y14927  -0.413   3.763   9.643 -2.0014  3.4003  2.2221
  137SAPE  C31014928  -0.521   3.568   9.683 -0.3529  0.0819 -0.0478
  137SAPE  H10X14929  -0.619   3.619   9.683  0.7279  2.3763 -1.5402
  137SAPE  H10Y14930  -0.516   3.483   9.754 -0.2214 -0.0548 -0.2224
  137SAPE  C31114931  -0.478   3.510   9.544  0.0803  0.0926 -0.1890
  137SAPE  H11X14932  -0.373   3.473   9.548 -1.1098 -3.5950  1.9325
  137SAPE  H11Y14933  -0.494   3.595   9.475 -1.3945  0.0682  0.0947
  137SAPE  C31214934  -0.574   3.397   9.500  0.6836  0.1804 -0.2947
  137SAPE  H12X14935  -0.674   3.437   9.472  0.1051 -0.9765  0.0871
  137SAPE  H12Y14936  -0.590   3.338   9.592  0.1527 -0.9950 -1.1231
  137SAPE  C31314937  -0.516   3.310   9.391 -0.2593 -0.5365  0.6404
  137SAPE  H13X14938  -0.575   3.217   9.378 -1.1743  0.2175 -0.8270
  137SAPE  H13Y14939  -0.413   3.274   9.411  0.3106 -0.7128 -2.1787
  137SAPE  C31414940  -0.502   3.389   9.258  0.0927 -0.2065  0.6622
  137SAPE  H14X14941  -0.451   3.485   9.281  1.0838 -0.7150  0.6529
  137SAPE  H14Y14942  -0.606   3.408   9.225  0.3707  0.8474  0.3400
  137SAPE  C31514943  -0.416   3.318   9.150 -0.2029  0.2819 -0.4492
  137SAPE  H15X14944  -0.313   3.288   9.180 -0.3367  0.5118  0.2707
  137SAPE  H15Y14945  -0.405   3.394   9.070  0.6823 -0.4829 -1.0625
  137SAPE  C31614946  -0.494   3.196   9.079 -0.0958  0.0412  0.5855
  137SAPE  H16X14947  -0.499   3.113   9.151 -0.5557 -1.3219 -0.9577
  137SAPE  H16Y14948  -0.427   3.157   8.999  0.4070  1.0240  0.5005
  137SAPE  C31714949  -0.626   3.227   9.009  0.4627  0.6038 -0.3178
  137SAPE  H17X14950  -0.634   3.328   8.965  0.2936  0.9172  0.4083
  137SAPE  H17Y14951  -0.710   3.230   9.082  1.2340 -1.4430  0.7344
  137SAPE  C31814952  -0.667   3.123   8.905  0.7202 -0.4759  0.4227
  137SAPE  H18X14953  -0.646   3.018   8.934 -1.2591 -1.6967 -2.1604
  137SAPE  H18Y14954  -0.609   3.145   8.813  1.8133 -0.5310  1.0835
  137SAPE  H18Z14955  -0.776   3.136   8.887  1.1279  2.4430 -0.4909
  138SAPE     N14956   6.370   6.756  11.042  0.5743 -0.1475 -0.6095
  138SAPE   HN114957   6.288   6.806  11.082  2.0156  2.0052 -0.1963
  138SAPE   HN214958   6.341   6.659  11.017  0.5502  0.1133 -1.6230
  138SAPE   HN314959   6.445   6.750  11.113  1.4326 -1.7030 -1.6057
  138SAPE   C1214960   6.412   6.823  10.916 -0.0998 -0.0004 -0.6247
  138SAPE  H12A14961   6.520   6.799  10.903 -0.3406 -1.0227 -0.8181
  138SAPE  H12B14962   6.407   6.930  10.946 -2.2969 -0.6190  1.5449
  138SAPE   C1114963   6.325   6.775  10.804 -0.1678 -0.1904  0.3674
  138SAPE  H11A14964   6.337   6.666  10.788  0.1799 -0.2560  1.0293
  138SAPE  H11B14965   6.359   6.813  10.705 -2.2656 -2.7260 -1.4680
  138SAPE     P14966   6.120   6.938  10.763  0.4724  0.2769  0.2386
  138SAPE   O1314967   5.982   6.927  10.813 -0.1025 -0.3034 -0.2209
  138SAPE   O1414968   6.200   7.062  10.795  0.2181 -0.1447  0.0163
  138SAPE   O1214969   6.188   6.812  10.827 -0.2724  0.5466 -0.3839
  138SAPE   O1114970   6.124   6.907  10.615 -0.3867 -0.1139 -0.0247
  138SAPE    C114971   6.037   6.808  10.560  0.0698 -0.2435 -0.3674
  138SAPE    HA14972   6.071   6.703  10.574 -0.5227 -0.2753  0.9196
  138SAPE    HB14973   5.936   6.813  10.605  0.9611 -3.0406  2.2104
  138SAPE    C214974   6.017   6.828  10.409  0.1732 -0.0058  0.1004
  138SAPE    HS14975   5.968   6.739  10.363  1.1094 -0.4915  0.0195
  138SAPE   O2114976   6.148   6.838  10.343 -0.1311  0.1480 -0.1154
  138SAPE   C2114977   6.226   6.731  10.347 -0.1958 -0.4437  0.3540
  138SAPE   O2214978   6.185   6.617  10.371  0.2378  0.2320 -0.3237
  138SAPE   C2214979   6.367   6.757  10.287  0.5962 -0.9860 -0.5385
  138SAPE   H2R14980   6.353   6.818  10.195 -0.6936  1.8030  1.3650
  138SAPE   H2S14981   6.434   6.811  10.357  0.8869 -0.7382 -1.0033
  138SAPE    C314982   5.930   6.949  10.368 -0.2668 -0.2490 -0.1309
  138SAPE    HX14983   5.978   7.043  10.403 -1.0975  0.8680 -1.8410
  138SAPE    HY14984   5.827   6.940  10.410 -0.3855  0.1854 -0.3279
  138SAPE   O3114985   5.912   6.953  10.221  0.3594 -0.3743  0.2143
  138SAPE   C3114986   5.993   7.039  10.143  0.9449  0.0440  0.5816
  138SAPE   O3214987   6.092   7.094  10.184 -0.4090  0.7764 -0.3548
  138SAPE   C3214988   5.929   7.054  10.005 -0.3568  0.2105  0.0080
  138SAPE   H2X14989   5.845   7.127  10.004 -2.1093 -1.7317  0.7936
  138SAPE   H2Y14990   5.881   6.958   9.979 -1.4041  1.1035 -1.5622
  138SAPE   C2314991   6.432   6.621  10.241  0.1840  0.2408 -0.2923
  138SAPE   H3R14992   6.367   6.593  10.155 -0.4066 -0.6742  0.4342
  138SAPE   H3S14993   6.440   6.548  10.325  2.3551  2.0943  1.2053
  138SAPE   C2414994   6.572   6.644  10.181  0.3794 -0.2512 -0.4122
  138SAPE   H4R14995   6.631   6.656  10.274  0.5858 -1.6002 -0.3536
  138SAPE   H4S14996   6.561   6.739  10.124  0.8022  1.6940  2.5298
  138SAPE   C2514997   6.625   6.530  10.105  0.0800  0.1120  0.1378
  138SAPE   H5R14998   6.681   6.451  10.159 -0.9668  0.6131  2.0646
  138SAPE   C2614999   6.602   6.500   9.973  0.3288 -0.3919  0.0963
  138SAPE   H6R15000   6.666   6.422   9.930  1.3727 -0.4135  1.5987
  138SAPE   C2715001   6.512   6.579   9.876 -0.5453 -0.0777  0.5551
  138SAPE   H7R15002   6.567   6.652   9.813 -1.5525 -0.6262 -1.0114
  138SAPE   H7S15003   6.445   6.642   9.939  0.0173 -0.0153  1.1016
  138SAPE   C2815004   6.448   6.485   9.784 -0.1013 -0.1200 -0.5325
  138SAPE   H8R15005   6.351   6.451   9.823  0.9066 -3.2896 -0.4946
  138SAPE   C2915006   6.484   6.454   9.654  0.9610 -0.5431 -0.2223
  138SAPE   H9R15007   6.416   6.378   9.611 -1.0357  1.1155 -0.1554
  138SAPE  C21015008   6.602   6.509   9.580  0.7141  0.5035  0.6097
  138SAPE  H10R15009   6.667   6.426   9.544  0.9958  1.5266 -1.3604
  138SAPE  H10S15010   6.654   6.588   9.638 -0.9019  0.1600  2.6285
  138SAPE  C21115011   6.556   6.584   9.462  0.1165  0.5849 -0.3410
  138SAPE  H11R15012   6.489   6.668   9.487 -1.4234 -0.9604  0.9433
  138SAPE  C21215013   6.569   6.546   9.333  0.2751  0.0903 -0.2734
  138SAPE  H12R15014   6.509   6.607   9.263 -1.3941  0.1418  1.1508
  138SAPE  C21315015   6.647   6.430   9.282 -0.4771 -0.2229  0.5612
  138SAPE  H13R15016   6.676   6.355   9.359  0.3622 -0.1481  0.3211
  138SAPE  H13S15017   6.735   6.480   9.238 -1.2414  0.2055 -0.5409
  138SAPE  C21415018   6.575   6.360   9.171  0.0392 -0.4297 -0.2208
  138SAPE  H14R15019   6.547   6.255   9.189  2.4556 -0.7168  2.5910
  138SAPE  C21515020   6.573   6.404   9.040 -0.5442 -0.2397 -0.6885
  138SAPE  H15R15021   6.506   6.348   8.973 -1.0728 -0.0895 -0.2878
  138SAPE  C21615022   6.626   6.532   8.990 -0.1752  1.0113 -0.4544
  138SAPE  H16R15023   6.685   6.510   8.898  0.9068  0.7409  0.2837
  138SAPE  H16S15024   6.693   6.574   9.068 -1.4289 -0.3552  1.4307
  138SAPE  C21715025   6.521   6.640   8.966 -0.6455  0.1699 -0.0393
  138SAPE  H17R15026   6.578   6.731   8.941 -1.0412  0.4913  0.2118
  138SAPE  H17S15027   6.457   6.664   9.054 -1.9655  0.0114 -0.9206
  138SAPE  C21815028   6.431   6.609   8.846 -0.8637 -0.3622 -0.3596
  138SAPE  H18R15029   6.394   6.505   8.859  0.4168 -0.8584 -0.5099
  138SAPE  H18S15030   6.500   6.612   8.759 -1.0334 -2.9267 -0.6775
  138SAPE  C21915031   6.306   6.699   8.833  0.5769 -0.0319  0.2852
  138SAPE  H19R15032   6.343   6.800   8.805  2.5703 -0.3785  1.5021
  138SAPE  H19S15033   6.259   6.704   8.934 -0.1344 -0.2563 -0.0239
  138SAPE  C22015034   6.210   6.645   8.720  0.3563 -0.6596 -0.2343
  138SAPE  H20R15035   6.116   6.702   8.734  0.5888  0.2004 -1.8429
  138SAPE  H20S15036   6.194   6.536   8.734 -0.0345 -0.6021 -0.2302
  138SAPE  H20T15037   6.258   6.665   8.621  0.0232  0.4491 -0.1880
  138SAPE   C3315038   6.027   7.104   9.898 -0.3580 -0.3862  0.3051
  138SAPE   H3X15039   6.126   7.055   9.907  0.1335  0.8869  2.5637
  138SAPE   H3Y15040   6.051   7.209   9.925 -1.5133  0.6635 -2.3788
  138SAPE   C3415041   5.968   7.120   9.761 -0.6879 -0.1075 -0.4888
  138SAPE   H4X15042   5.887   7.195   9.762 -0.4061  0.2247  1.5275
  138SAPE   H4Y15043   5.923   7.022   9.733  0.2028 -0.5149 -0.5511
  138SAPE   C3515044   6.074   7.162   9.658 -0.1230 -0.3973  0.2052
  138SAPE   H5X15045   6.151   7.086   9.633  2.8863  2.5480 -0.2120
  138SAPE   H5Y15046   6.135   7.249   9.690  0.6303 -0.3244 -1.2972
  138SAPE   C3615047   5.994   7.195   9.521  0.1495 -0.2232 -0.3776
  138SAPE   H6X15048   5.927   7.283   9.527 -0.4429 -0.6292 -1.0074
  138SAPE   H6Y15049   5.927   7.108   9.509 -0.9880  0.7159 -1.1288
  138SAPE   C3715050   6.085   7.204   9.400 -0.2769 -0.3012  0.1406
  138SAPE   H7X15051   6.145   7.110   9.399 -1.7804 -1.3025  1.0627
  138SAPE   H7Y15052   6.148   7.296   9.399 -0.0734 -0.4422 -0.6224
  138SAPE   C3815053   5.995   7.221   9.278  0.2846  0.2402  0.1265
  138SAPE   H8X15054   5.940   7.316   9.299  0.9214  0.2658  1.8183
  138SAPE   H8Y15055   5.924   7.136   9.273  0.6694 -0.0902  0.3562
  138SAPE   C3915056   6.074   7.228   9.148 -0.1013  0.4379  0.5925
  138SAPE   H9X15057   6.131   7.132   9.146  1.2017  1.1762  0.9090
  138SAPE   H9Y15058   6.145   7.312   9.136 -0.0372  0.4420  0.9834
  138SAPE  C31015059   5.996   7.209   9.021  0.1845  0.1819 -0.8395
  138SAPE  H10X15060   5.939   7.304   9.013 -0.7733 -0.4401 -1.5837
  138SAPE  H10Y15061   5.922   7.128   9.036  0.6750  0.0065  0.8906
  138SAPE  C31115062   6.074   7.186   8.891  0.8891  0.0113 -0.0419
  138SAPE  H11X15063   5.993   7.211   8.820 -2.1068 -1.4394  2.6135
  138SAPE  H11Y15064   6.100   7.078   8.886  2.1867  0.2936  0.1999
  138SAPE  C31215065   6.208   7.255   8.868 -0.0924 -0.5911 -0.1090
  138SAPE  H12X15066   6.292   7.214   8.928 -0.5934  1.3947  2.0753
  138SAPE  H12Y15067   6.199   7.360   8.901  0.2891 -0.9701  1.2817
  138SAPE  C31315068   6.271   7.230   8.730  0.3958  0.1505  0.2418
  138SAPE  H13X15069   6.369   7.283   8.729  0.3150  0.4737 -3.4684
  138SAPE  H13Y15070   6.204   7.282   8.658 -4.5328 -4.3844  0.9499
  138SAPE  C31415071   6.307   7.090   8.701  1.1700  0.5211  0.1259
  138SAPE  H14X15072   6.212   7.033   8.702 -0.7723  3.4631 -2.5095
  138SAPE  H14Y15073   6.375   7.054   8.782  1.2000  1.5882  0.5909
  138SAPE  C31515074   6.370   7.076   8.559 -0.2597 -0.1992 -0.0541
  138SAPE  H15X15075   6.440   7.161   8.541 -0.8041  0.2984  0.1472
  138SAPE  H15Y15076   6.287   7.072   8.486 -1.0315 -1.1172  0.8543
  138SAPE  C31615077   6.453   6.943   8.556  0.2279 -1.2475  0.1310
  138SAPE  H16X15078   6.385   6.855   8.560 -0.2535 -0.8558  2.4700
  138SAPE  H16Y15079   6.522   6.940   8.643 -0.6746  1.1508  0.9949
  138SAPE  C31715080   6.542   6.929   8.435 -0.5187  0.9471  0.2041
  138SAPE  H17X15081   6.613   7.014   8.434 -1.0400  1.3968 -1.7878
  138SAPE  H17Y15082   6.475   6.952   8.350 -0.8655 -0.9682 -0.1018
  138SAPE  C31815083   6.602   6.792   8.417 -0.2714 -0.1949  0.3219
  138SAPE  H18X15084   6.523   6.714   8.413 -1.7338  1.2396 -0.1654
  138SAPE  H18Y15085   6.674   6.755   8.493 -0.0733 -0.3686  0.0494
  138SAPE  H18Z15086   6.655   6.799   8.320 -2.7324 -0.4291 -1.1211
  139SAPE     N15087   3.455   0.349  10.934  0.3214 -0.7354 -0.3095
  139SAPE   HN115088   3.430   0.340  10.833 -0.7266  0.4195 -0.1743
  139SAPE   HN215089   3.453   0.248  10.958  0.5424 -0.4601  0.9147
  139SAPE   HN315090   3.377   0.401  10.978 -0.3502 -2.6862  0.9346
  139SAPE   C1215091   3.595   0.403  10.949 -0.0910 -0.6538 -0.1227
  139SAPE  H12A15092   3.660   0.344  10.881 -0.1460  2.1293 -2.8501
  139SAPE  H12B15093   3.624   0.383  11.055 -1.1385  0.3813  0.3838
  139SAPE   C1115094   3.588   0.555  10.924 -0.0836  0.0601 -0.4645
  139SAPE  H11A15095   3.693   0.585  10.942  0.0004 -0.4341 -0.1195
  139SAPE  H11B15096   3.530   0.611  11.001  0.7625  2.5866 -1.5536
  139SAPE     P15097   3.635   0.622  10.674  0.0203  0.2774  0.5572
  139SAPE   O1315098   3.625   0.765  10.637 -0.2824  0.1155  0.6731
  139SAPE   O1415099   3.768   0.564  10.705 -0.1541  0.2389 -0.2446
  139SAPE   O1215100   3.534   0.597  10.796  0.3956  0.5829 -0.6317
  139SAPE   O1115101   3.569   0.530  10.564  0.0812 -0.7860  0.5195
  139SAPE    C115102   3.650   0.432  10.501  0.1952  0.1661 -0.3091
  139SAPE    HA15103   3.681   0.349  10.568  3.1897  1.6332  0.3201
  139SAPE    HB15104   3.584   0.384  10.427 -0.7828  1.7908 -0.5388
  139SAPE    C215105   3.780   0.483  10.423  0.1205  0.0563  0.3150
  139SAPE    HS15106   3.858   0.518  10.493  0.2685  1.3984 -0.4833
  139SAPE   O2115107   3.727   0.588  10.337 -0.0470 -0.4252  0.0465
  139SAPE   C2115108   3.807   0.692  10.321 -0.6554  0.4032  0.6085
  139SAPE   O2215109   3.909   0.713  10.382  0.3375  0.0104  0.2016
  139SAPE   C2215110   3.762   0.766  10.189  0.0532  0.1484  0.1604
  139SAPE   H2R15111   3.745   0.679  10.123  1.5771 -0.4937  0.5808
  139SAPE   H2S15112   3.660   0.810  10.196 -0.8354 -1.7881  0.2665
  139SAPE    C315113   3.868   0.382  10.340  0.0690  0.4693  0.6034
  139SAPE    HX15114   3.914   0.313  10.414  0.9511 -0.1212 -0.4586
  139SAPE    HY15115   3.951   0.428  10.282 -0.3234 -1.7727 -1.9518
  139SAPE   O3115116   3.789   0.291  10.254 -0.9736 -0.4295 -0.3138
  139SAPE   C3115117   3.789   0.334  10.124  0.1628  0.0265  0.0245
  139SAPE   O3215118   3.854   0.420  10.071  0.3087 -0.0291 -0.6765
  139SAPE   C3215119   3.685   0.238  10.048  0.6229 -0.5264 -0.6383
  139SAPE   H2X15120   3.589   0.236  10.104 -0.0411 -0.2125 -1.7412
  139SAPE   H2Y15121   3.724   0.134  10.058 -1.3503 -1.2525  0.0046
  139SAPE   C2315122   3.869   0.856  10.134  0.0566 -0.1224  0.3874
  139SAPE   H3R15123   3.970   0.814  10.113 -0.9277 -2.1001 -0.6828
  139SAPE   H3S15124   3.891   0.940  10.203  0.1964  0.3500 -0.2269
  139SAPE   C2415125   3.827   0.927   9.994  0.0472  0.0975 -0.1024
  139SAPE   H4R15126   3.924   0.971   9.963 -0.2354 -0.0829 -1.2943
  139SAPE   H4S15127   3.752   1.006  10.015 -1.4298 -1.3290  0.2487
  139SAPE   C2515128   3.779   0.827   9.891 -1.2445 -0.0083  0.2511
  139SAPE   H5R15129   3.692   0.770   9.923 -1.8612  0.2818 -0.8548
  139SAPE   C2615130   3.814   0.811   9.760 -0.6518 -0.2037  0.1399
  139SAPE   H6R15131   3.779   0.728   9.698  1.6358 -0.8551 -0.3956
  139SAPE   C2715132   3.918   0.894   9.690  0.2833 -0.0525 -0.5529
  139SAPE   H7R15133   3.987   0.941   9.763 -0.7428  1.5347 -0.5486
  139SAPE   H7S15134   3.875   0.990   9.653 -0.7433  0.1367  1.0019
  139SAPE   C2815135   3.993   0.829   9.583  0.1254  0.4058  0.2042
  139SAPE   H8R15136   4.052   0.744   9.621 -0.0814  0.0634 -0.2236
  139SAPE   C2915137   4.006   0.846   9.453 -0.3905 -0.4129 -0.0042
  139SAPE   H9R15138   4.053   0.763   9.399  0.5256 -1.0693  1.7153
  139SAPE  C21015139   3.939   0.947   9.365  0.0949  0.2459  0.2076
  139SAPE  H10R15140   4.010   1.001   9.299 -2.1678  1.5528 -1.3044
  139SAPE  H10S15141   3.911   1.039   9.421  1.5866  3.3965 -3.7208
  139SAPE  C21115142   3.812   0.896   9.304  0.4545  0.1913 -0.1283
  139SAPE  H11R15143   3.734   0.866   9.375 -0.4890 -3.1276 -2.2942
  139SAPE  C21215144   3.797   0.898   9.169  0.9291 -0.3976 -0.0669
  139SAPE  H12R15145   3.699   0.859   9.139  0.5418 -0.5257  1.3169
  139SAPE  C21315146   3.883   0.949   9.057 -0.2054  0.1147  0.9307
  139SAPE  H13R15147   3.948   1.029   9.100 -0.0754  0.9357 -0.7186
  139SAPE  H13S15148   3.824   1.013   8.988 -0.7990 -0.4133  0.9353
  139SAPE  C21415149   3.956   0.838   8.981 -0.8308 -0.1689  0.0928
  139SAPE  H14R15150   4.040   0.802   9.043 -0.2398  1.9660  0.6569
  139SAPE  C21515151   3.946   0.823   8.847  0.0849  0.1192 -0.2214
  139SAPE  H15R15152   4.023   0.757   8.803 -1.3444 -2.7943  1.3466
  139SAPE  C21615153   3.853   0.887   8.748  0.3351 -0.6995 -0.0637
  139SAPE  H16R15154   3.763   0.934   8.793  0.3949 -0.6044 -0.0425
  139SAPE  H16S15155   3.820   0.809   8.677  0.9367 -0.6371 -0.4170
  139SAPE  C21715156   3.917   1.003   8.669 -0.4345  0.0527  0.2449
  139SAPE  H17R15157   3.954   1.060   8.757 -1.5287  0.3762  0.5179
  139SAPE  H17S15158   3.843   1.068   8.617  1.1264  0.4492 -1.5912
  139SAPE  C21815159   4.027   0.944   8.577  0.1411  0.2962  0.8007
  139SAPE  H18R15160   3.981   0.917   8.480 -3.2355  1.2007  1.9777
  139SAPE  H18S15161   4.062   0.852   8.628 -0.6285 -0.5930 -0.2246
  139SAPE  C21915162   4.139   1.036   8.550 -0.3439  0.1114 -0.0605
  139SAPE  H19R15163   4.216   0.975   8.498 -0.3583  0.6055 -0.6668
  139SAPE  H19S15164   4.184   1.079   8.643 -0.6525 -0.4305  0.3450
  139SAPE  C22015165   4.094   1.160   8.463  0.2928 -0.1011 -0.4871
  139SAPE  H20R15166   4.180   1.225   8.436  0.0371  0.7221  0.5815
  139SAPE  H20S15167   4.025   1.226   8.519  0.2805 -0.7108  0.2349
  139SAPE  H20T15168   4.046   1.129   8.368 -2.5974  0.2963  0.7586
  139SAPE   C3315169   3.646   0.260   9.896 -0.2967 -0.3777 -0.7330
  139SAPE   H3X15170   3.607   0.364   9.885 -2.6198 -1.1770 -0.5521
  139SAPE   H3Y15171   3.574   0.187   9.854  0.3878 -0.9093 -1.0005
  139SAPE   C3415172   3.769   0.255   9.803 -0.0529  0.1908 -0.0112
  139SAPE   H4X15173   3.745   0.167   9.741 -0.7331  0.5517 -0.2684
  139SAPE   H4Y15174   3.862   0.227   9.857  0.7744 -0.7459 -1.8490
  139SAPE   C3515175   3.788   0.381   9.712  0.1993  0.7385  0.3529
  139SAPE   H5X15176   3.804   0.475   9.768 -1.4782  1.6771 -0.6533
  139SAPE   H5Y15177   3.695   0.392   9.653 -0.5321  0.5883  1.4645
  139SAPE   C3615178   3.904   0.359   9.615 -0.7005  0.2809  0.2078
  139SAPE   H6X15179   3.997   0.345   9.675  0.2661  2.0507 -0.7678
  139SAPE   H6Y15180   3.923   0.447   9.549  2.9808 -1.2357 -1.0112
  139SAPE   C3715181   3.880   0.232   9.528  0.2940  0.3922  0.4203
  139SAPE   H7X15182   3.774   0.242   9.497  0.2800  0.5102  0.5062
  139SAPE   H7Y15183   3.895   0.138   9.586  2.4696 -0.2538 -1.0282
  139SAPE   C3815184   3.981   0.217   9.411  0.0836  0.5521 -0.4220
  139SAPE   H8X15185   4.081   0.211   9.459 -0.5391  0.0905  0.8536
  139SAPE   H8Y15186   3.977   0.310   9.351 -0.7114  1.0361  0.3638
  139SAPE   C3915187   3.966   0.099   9.312 -0.4355  1.2179 -0.2804
  139SAPE   H9X15188   3.863   0.056   9.310  0.1345 -0.1603 -1.3282
  139SAPE   H9Y15189   4.026   0.015   9.353 -0.8248  1.5988  1.1343
  139SAPE  C31015190   4.006   0.132   9.173 -0.0434 -0.5032 -0.1624
  139SAPE  H10X15191   4.115   0.155   9.171 -0.0691 -0.4027 -0.4148
  139SAPE  H10Y15192   3.956   0.227   9.146 -0.3345 -0.5171  0.3354
  139SAPE  C31115193   3.972   0.015   9.073  0.0370  0.6689  0.1805
  139SAPE  H11X15194   3.862   0.004   9.083  0.1849 -0.2102  0.9798
  139SAPE  H11Y15195   4.013  -0.087   9.087 -2.8135 -0.8703 -1.6173
  139SAPE  C31215196   4.006   0.050   8.930  0.2972 -0.2861  0.1097
  139SAPE  H12X15197   3.965   0.150   8.905  1.1485 -0.1126 -0.6474
  139SAPE  H12Y15198   3.977  -0.027   8.855  3.5779 -0.3261 -1.3142
  139SAPE  C31315199   4.159   0.043   8.909  0.4810  0.0370  0.5728
  139SAPE  H13X15200   4.196  -0.061   8.925 -1.1471 -0.9059 -1.4029
  139SAPE  H13Y15201   4.213   0.101   8.987  1.8371  1.7988 -1.5424
  139SAPE  C31415202   4.210   0.096   8.775 -0.1055  1.0510  0.4806
  139SAPE  H14X15203   4.318   0.071   8.771  0.3768  2.4516  3.0567
  139SAPE  H14Y15204   4.198   0.206   8.762 -0.7833  0.6760 -3.0968
  139SAPE  C31515205   4.155   0.027   8.647 -0.4174  0.3305  1.1142
  139SAPE  H15X15206   4.045   0.026   8.639 -0.4118 -2.5790  0.1670
  139SAPE  H15Y15207   4.178  -0.081   8.654 -0.0640  0.1378 -1.6485
  139SAPE  C31615208   4.216   0.087   8.522  0.2895  0.1363  0.0952
  139SAPE  H16X15209   4.144   0.111   8.441  0.1580  1.6657  0.6283
  139SAPE  H16Y15210   4.264   0.183   8.549  2.0903 -0.2091 -1.7063
  139SAPE  C31715211   4.312  -0.017   8.461  0.5093  0.7692  0.3315
  139SAPE  H17X15212   4.256  -0.110   8.439  1.4561  0.5160 -1.1625
  139SAPE  H17Y15213   4.399  -0.038   8.527  3.6315  1.1762 -3.3224
  139SAPE  C31815214   4.375   0.023   8.327 -0.3997  0.3503 -0.3503
  139SAPE  H18X15215   4.297   0.036   8.248 -0.7429  2.2072  0.2477
  139SAPE  H18Y15216   4.446  -0.054   8.291 -0.9863 -0.2379 -0.2728
  139SAPE  H18Z15217   4.432   0.118   8.337  0.0788  0.0058  0.2173
  140SAPE     N15218   0.207   1.355  10.763  0.1855 -0.2719 -0.6783
  140SAPE   HN115219   0.284   1.411  10.805 -0.3466  1.4020 -1.8388
  140SAPE   HN215220   0.136   1.424  10.731  2.1050  2.4554  0.4841
  140SAPE   HN315221   0.156   1.300  10.835  2.1398  1.0820  1.9122
  140SAPE   C1215222   0.260   1.270  10.652 -0.0395 -0.2620 -0.0368
  140SAPE  H12A15223   0.307   1.347  10.587 -0.9361  0.9762  0.7330
  140SAPE  H12B15224   0.175   1.218  10.602  0.5697 -0.1049 -1.2874
  140SAPE   C1115225   0.358   1.162  10.693 -0.1172  0.5429  0.0240
  140SAPE  H11A15226   0.398   1.113  10.602  0.2637  1.6377 -0.4158
  140SAPE  H11B15227   0.313   1.086  10.760 -0.4496  0.9047  0.2188
  140SAPE     P15228   0.574   1.159  10.859 -0.3092 -0.0009  0.0636
  140SAPE   O1315229   0.679   1.259  10.890 -0.0169  0.7816 -0.6324
  140SAPE   O1415230   0.506   1.103  10.972 -0.1055  0.0995 -0.0154
  140SAPE   O1215231   0.468   1.222  10.764  0.5412  0.0937  0.5399
  140SAPE   O1115232   0.632   1.043  10.765 -0.6173  0.4705 -0.3328
  140SAPE    C115233   0.734   1.068  10.675  0.9474 -0.0325  0.4960
  140SAPE    HA15234   0.781   1.169  10.673 -0.3441  0.6557  2.0108
  140SAPE    HB15235   0.823   1.009  10.706  0.8533  0.1578  1.1482
  140SAPE    C215236   0.699   1.034  10.528 -0.6244  0.0511  0.2352
  140SAPE    HS15237   0.795   1.041  10.474 -0.6521 -1.1085  0.0070
  140SAPE   O2115238   0.608   1.137  10.484 -0.0527 -0.6780 -0.3848
  140SAPE   C2115239   0.610   1.153  10.356 -0.0280 -0.6160  0.7521
  140SAPE   O2215240   0.685   1.096  10.276  0.0116 -0.1912 -0.7059
  140SAPE   C2215241   0.508   1.260  10.320 -0.0431  1.4048  0.5446
  140SAPE   H2R15242   0.491   1.318  10.414 -0.8847  0.5592  0.9281
  140SAPE   H2S15243   0.552   1.322  10.240  0.7149 -2.2091 -2.0825
  140SAPE    C315244   0.641   0.885  10.525  0.6258  0.2289 -0.6195
  140SAPE    HX15245   0.542   0.880  10.576  1.3178 -0.9343  0.6770
  140SAPE    HY15246   0.708   0.820  10.585  0.0852 -1.4861 -1.7783
  140SAPE   O3115247   0.633   0.825  10.390 -0.0763  0.6406  0.1925
  140SAPE   C3115248   0.740   0.782  10.343 -0.6030 -0.1803  0.3750
  140SAPE   O3215249   0.850   0.787  10.399  0.3071 -0.2133 -0.2285
  140SAPE   C3215250   0.716   0.722  10.209 -0.3233  0.0128  0.3005
  140SAPE   H2X15251   0.615   0.751  10.171 -0.3341 -0.4989 -0.0691
  140SAPE   H2Y15252   0.709   0.611  10.215 -1.9237  0.0690  0.0293
  140SAPE   C2315253   0.368   1.195  10.285 -0.1030  0.3734  0.1498
  140SAPE   H3R15254   0.297   1.280  10.282  0.2207  0.6212 -0.8767
  140SAPE   H3S15255   0.334   1.143  10.377 -0.1022  0.6789  0.3251
  140SAPE   C2415256   0.360   1.110  10.159 -0.4808  0.2589 -0.4015
  140SAPE   H4R15257   0.251   1.091  10.150 -0.3133 -1.0359  0.1123
  140SAPE   H4S15258   0.405   1.010  10.175 -2.7100 -0.3899  2.8013
  140SAPE   C2515259   0.395   1.183  10.037 -0.3811 -0.1136 -0.4392
  140SAPE   H5R15260   0.341   1.278  10.021 -0.2687 -0.0310 -0.3304
  140SAPE   C2615261   0.466   1.138   9.934 -0.0329  0.1448  0.4705
  140SAPE   H6R15262   0.477   1.206   9.848  0.1813  0.2106  0.5475
  140SAPE   C2715263   0.537   1.003   9.938  0.2578 -0.2502 -0.0784
  140SAPE   H7R15264   0.569   0.965  10.037  0.6686 -1.0355 -0.5032
  140SAPE   H7S15265   0.636   1.011   9.889  1.9736 -1.2845  2.9813
  140SAPE   C2815266   0.462   0.883   9.882 -0.1753 -0.2495  0.0016
  140SAPE   H8R15267   0.404   0.830   9.960 -0.6746 -0.4721 -0.5181
  140SAPE   C2915268   0.455   0.839   9.751 -0.6394 -0.3030 -0.2817
  140SAPE   H9R15269   0.402   0.748   9.717  1.4298 -0.5469 -3.1652
  140SAPE  C21015270   0.519   0.902   9.631  0.4387 -0.2657  0.3117
  140SAPE  H10R15271   0.575   0.822   9.579 -0.1441 -0.9245  0.6875
  140SAPE  H10S15272   0.596   0.979   9.657 -0.1603  0.4291  0.0763
  140SAPE  C21115273   0.417   0.964   9.547  0.6654  0.5866  0.2378
  140SAPE  H11R15274   0.326   0.986   9.605 -0.0441 -0.9835 -0.2142
  140SAPE  C21215275   0.429   1.007   9.414  0.0245  0.1559 -0.4029
  140SAPE  H12R15276   0.335   1.047   9.373 -0.6887 -1.0564 -0.0167
  140SAPE  C21315277   0.552   0.985   9.330 -0.6106 -0.3187  0.1417
  140SAPE  H13R15278   0.545   0.882   9.290 -2.0431 -0.6033  1.0542
  140SAPE  H13S15279   0.647   0.985   9.388 -0.5287 -2.6431  0.0734
  140SAPE  C21415280   0.570   1.079   9.215 -0.1512 -0.4975  0.6920
  140SAPE  H14R15281   0.626   1.169   9.245 -1.3424  0.9624 -1.2609
  140SAPE  C21515282   0.527   1.063   9.089 -0.5170 -0.3250  0.6311
  140SAPE  H15R15283   0.557   1.136   9.012 -1.4006 -1.9979 -1.3971
  140SAPE  C21615284   0.442   0.947   9.036  0.0299  1.0582 -0.5316
  140SAPE  H16R15285   0.380   0.908   9.119  0.3043  0.4727 -0.5935
  140SAPE  H16S15286   0.513   0.869   9.000 -0.4331 -0.5751  1.9138
  140SAPE  C21715287   0.354   0.977   8.911 -0.3539  0.3918  0.4768
  140SAPE  H17R15288   0.319   0.884   8.861  1.9027  1.7256 -4.2594
  140SAPE  H17S15289   0.413   1.029   8.831 -0.6837 -0.2015 -0.1624
  140SAPE  C21815290   0.234   1.069   8.938 -0.2790  0.1543 -0.1792
  140SAPE  H18R15291   0.274   1.165   8.977 -0.6715  0.5544 -0.7597
  140SAPE  H18S15292   0.179   1.017   9.019  1.8094  0.9336  1.8506
  140SAPE  C21915293   0.132   1.107   8.824 -0.1561 -0.5639  0.7585
  140SAPE  H19R15294   0.182   1.165   8.743 -1.7295  0.1423  0.2435
  140SAPE  H19S15295   0.057   1.177   8.865  0.3710  0.9737 -0.7473
  140SAPE  C22015296   0.065   0.992   8.756 -0.0262 -0.1917 -0.1273
  140SAPE  H20R15297   0.141   0.926   8.707 -0.1889 -0.4152 -0.0794
  140SAPE  H20S15298  -0.013   1.017   8.682 -1.1449 -2.5369  0.1608
  140SAPE  H20T15299   0.014   0.934   8.836  0.1078 -0.7056 -0.4115
  140SAPE   C3315300   0.821   0.769  10.114 -1.3065 -0.0704  0.2485
  140SAPE   H3X15301   0.921   0.743  10.153 -0.6363  0.7770 -0.8365
  140SAPE   H3Y15302   0.814   0.879  10.107 -1.9927 -0.0697  0.8813
  140SAPE   C3415303   0.796   0.711   9.975  0.0388  0.2713  1.0819
  140SAPE   H4X15304   0.694   0.735   9.937  0.7469  0.2296 -0.9513
  140SAPE   H4Y15305   0.806   0.600   9.982  2.1188  0.4640  1.7748
  140SAPE   C3515306   0.891   0.765   9.870 -0.2514  0.2326 -0.1925
  140SAPE   H5X15307   0.996   0.757   9.905  0.1564 -2.4318 -1.7478
  140SAPE   H5Y15308   0.866   0.873   9.864 -2.7814 -0.2593  0.4375
  140SAPE   C3615309   0.883   0.700   9.730 -0.4188  0.4511  0.1222
  140SAPE   H6X15310   0.774   0.703   9.705 -0.2531  2.5504 -0.5422
  140SAPE   H6Y15311   0.914   0.594   9.726 -0.4415  0.4346  0.4098
  140SAPE   C3715312   0.949   0.776   9.614  0.2471 -0.4119 -0.2215
  140SAPE   H7X15313   1.059   0.762   9.612  0.1471 -1.3001  0.4327
  140SAPE   H7Y15314   0.929   0.884   9.634  1.1038 -0.5265  1.3535
  140SAPE   C3815315   0.904   0.732   9.479  0.6096  0.3341 -0.1366
  140SAPE   H8X15316   0.793   0.735   9.476  0.4460  2.6471  2.8417
  140SAPE   H8Y15317   0.938   0.626   9.470  0.0893  0.0928  0.6192
  140SAPE   C3915318   0.951   0.829   9.363  0.3728  0.1103 -1.1002
  140SAPE   H9X15319   1.060   0.846   9.352  0.5202  1.4661  1.5779
  140SAPE   H9Y15320   0.901   0.928   9.375 -0.9166 -0.6285 -0.0116
  140SAPE  C31015321   0.892   0.784   9.236 -0.0810  0.7607  0.6277
  140SAPE  H10X15322   0.790   0.740   9.248 -0.3888  1.9661  3.0993
  140SAPE  H10Y15323   0.956   0.703   9.196 -2.2806 -1.3792  1.1788
  140SAPE  C31115324   0.906   0.895   9.128  0.1224 -0.6159  0.2172
  140SAPE  H11X15325   1.013   0.920   9.114 -0.3665  2.2334  1.0160
  140SAPE  H11Y15326   0.858   0.986   9.170  0.3574 -1.1694  1.7474
  140SAPE  C31215327   0.832   0.865   9.000  0.4979 -0.1440  0.1783
  140SAPE  H12X15328   0.727   0.844   9.031  0.1742  0.9061 -0.1710
  140SAPE  H12Y15329   0.873   0.772   8.954 -1.1340 -1.0805  0.5471
  140SAPE  C31315330   0.834   0.990   8.903  0.0093 -0.1879 -0.9058
  140SAPE  H13X15331   0.813   1.075   8.971  0.5141 -1.1220  0.4617
  140SAPE  H13Y15332   0.748   0.973   8.834  0.2041  1.6914 -1.6619
  140SAPE  C31415333   0.961   1.007   8.826 -0.7858 -0.6971  0.3194
  140SAPE  H14X15334   1.054   1.000   8.885  2.1849 -2.0314 -4.0056
  140SAPE  H14Y15335   0.965   1.110   8.784  1.2222 -1.1046 -0.5935
  140SAPE  C31515336   0.967   0.921   8.693  0.1314 -0.3414  0.1606
  140SAPE  H15X15337   0.955   0.817   8.730 -2.0101 -0.4318 -0.6636
  140SAPE  H15Y15338   1.061   0.932   8.634  0.2254  3.0052  0.7778
  140SAPE  C31615339   0.865   0.954   8.578  0.5023  0.8273  0.2747
  140SAPE  H16X15340   0.761   0.970   8.616 -0.7659 -2.2771 -1.4697
  140SAPE  H16Y15341   0.856   0.857   8.524 -1.7923  0.8362  0.5406
  140SAPE  C31715342   0.909   1.066   8.485 -0.6309 -0.4045  0.2384
  140SAPE  H17X15343   0.896   1.159   8.544  1.0820  0.3780 -0.5647
  140SAPE  H17Y15344   0.831   1.068   8.406 -0.8048 -1.2082  0.3752
  140SAPE  C31815345   1.051   1.067   8.422 -0.2682 -0.4693 -0.2663
  140SAPE  H18X15346   1.122   1.137   8.472  0.2405  3.5874 -5.7861
  140SAPE  H18Y15347   1.058   1.082   8.312 -1.6802  2.0681 -0.0794
  140SAPE  H18Z15348   1.081   0.960   8.425  0.3182 -0.3165 -0.4692
  141SAPE     N15349   1.319   3.105  11.260  0.5661  0.1969 -0.0759
  141SAPE   HN115350   1.244   3.034  11.254  1.3735 -0.6207 -0.8021
  141SAPE   HN215351   1.392   3.093  11.187 -1.1315  1.7931 -2.1755
  141SAPE   HN315352   1.359   3.113  11.356  1.0867  1.1382 -0.3594
  141SAPE   C1215353   1.253   3.224  11.218  0.6539 -0.6529 -0.6499
  141SAPE  H12A15354   1.328   3.295  11.176  0.6103 -1.5810 -2.4049
  141SAPE  H12B15355   1.214   3.269  11.312 -0.6734  0.0792 -1.5097
  141SAPE   C1115356   1.133   3.200  11.118  0.0035  0.7956  0.4167
  141SAPE  H11A15357   1.178   3.208  11.017  0.5917  1.2178  0.7048
  141SAPE  H11B15358   1.065   3.288  11.113  1.1065  1.6155 -1.1586
  141SAPE     P15359   0.923   3.053  11.094  0.0242  0.0321  0.0578
  141SAPE   O1315360   0.887   2.906  11.103 -0.4518  0.3518 -0.5715
  141SAPE   O1415361   0.830   3.146  11.168 -0.4350 -0.2682 -0.4424
  141SAPE   O1215362   1.070   3.072  11.149  0.0945 -0.6452 -0.2512
  141SAPE   O1115363   0.950   3.099  10.939 -0.1172 -0.4157 -0.1722
  141SAPE    C115364   0.850   3.098  10.837  0.4476  0.1224 -0.0215
  141SAPE    HA15365   0.838   2.995  10.798 -2.0672  0.0618  0.7013
  141SAPE    HB15366   0.753   3.134  10.879 -1.2065 -0.8447 -2.7016
  141SAPE    C215367   0.870   3.194  10.713  0.3077 -0.1137  0.4275
  141SAPE    HS15368   0.781   3.175  10.650  1.1374 -0.1152 -0.7874
  141SAPE   O2115369   0.994   3.171  10.650 -0.6707 -0.6190  0.7289
  141SAPE   C2115370   0.995   3.084  10.548 -0.4610 -0.0629  0.0201
  141SAPE   O2215371   0.897   3.018  10.511 -0.5412 -0.1964 -0.4602
  141SAPE   C2215372   1.135   3.077  10.487 -0.1772 -0.4931 -0.3319
  141SAPE   H2R15373   1.218   3.110  10.553  1.7833 -1.0302 -2.4229
  141SAPE   H2S15374   1.143   2.966  10.485 -0.4256 -0.5063 -0.7062
  141SAPE    C315375   0.858   3.346  10.757  0.0459 -0.2437 -0.4334
  141SAPE    HX15376   0.930   3.359  10.841 -1.0603 -0.7928  0.6351
  141SAPE    HY15377   0.764   3.364  10.813  1.4701  2.3900  1.3650
  141SAPE   O3115378   0.879   3.442  10.656  0.1844  0.2194  0.3696
  141SAPE   C3115379   0.770   3.472  10.588 -0.3858  0.4359 -0.0462
  141SAPE   O3215380   0.660   3.419  10.607 -0.3741  0.2983  0.0374
  141SAPE   C3215381   0.794   3.586  10.494 -0.0229 -0.7586  0.0629
  141SAPE   H2X15382   0.899   3.595  10.461  0.2331 -1.2119  0.7435
  141SAPE   H2Y15383   0.782   3.678  10.555 -0.7519 -2.3065  2.3885
  141SAPE   C2315384   1.152   3.120  10.340 -0.0073  0.3616  0.2898
  141SAPE   H3R15385   1.158   3.231  10.336  0.0178  0.3609  0.3095
  141SAPE   H3S15386   1.060   3.089  10.286  0.2673  1.0359 -0.5769
  141SAPE   C2415387   1.284   3.065  10.286  0.1380  0.0270  1.1256
  141SAPE   H4R15388   1.359   3.078  10.367  0.4392  0.6954  0.7447
  141SAPE   H4S15389   1.325   3.131  10.206 -1.5047 -0.3041 -0.0280
  141SAPE   C2515390   1.290   2.922  10.236 -0.0485 -0.4241 -0.1833
  141SAPE   H5R15391   1.288   2.847  10.317  1.4301 -0.2362  0.0572
  141SAPE   C2615392   1.292   2.879  10.106 -0.8494 -1.2122 -0.2489
  141SAPE   H6R15393   1.290   2.769  10.099 -3.3625 -1.2405  0.0566
  141SAPE   C2715394   1.286   2.969   9.982  0.4345  0.5726 -0.2330
  141SAPE   H7R15395   1.355   2.927   9.906  0.9481 -1.3915  1.2379
  141SAPE   H7S15396   1.335   3.065  10.009 -0.7558  0.8562  1.0628
  141SAPE   C2815397   1.145   2.984   9.930 -0.5109 -0.3144  0.4751
  141SAPE   H8R15398   1.073   2.905   9.957 -2.8059  0.6557 -2.2549
  141SAPE   C2915399   1.107   3.093   9.862  0.2052 -0.7986  0.3001
  141SAPE   H9R15400   1.001   3.106   9.835 -0.3180 -1.2760  2.0049
  141SAPE  C21015401   1.196   3.211   9.823  0.1548 -0.1784  0.0619
  141SAPE  H10R15402   1.288   3.216   9.884 -0.5567  0.8547  1.0951
  141SAPE  H10S15403   1.143   3.308   9.836 -0.3452 -0.5472  0.8580
  141SAPE  C21115404   1.231   3.215   9.674  0.1847 -0.0194  0.5270
  141SAPE  H11R15405   1.273   3.119   9.641  0.8942 -0.9646  3.7589
  141SAPE  C21215406   1.229   3.314   9.589 -0.2308 -0.4308  0.4477
  141SAPE  H12R15407   1.250   3.288   9.484 -0.2184  1.1266  0.0420
  141SAPE  C21315408   1.181   3.451   9.612 -0.2734  0.6179  0.7174
  141SAPE  H13R15409   1.250   3.489   9.690  3.0522 -2.1769 -0.5747
  141SAPE  H13S15410   1.076   3.454   9.646 -0.6092  2.8984 -0.3412
  141SAPE  C21415411   1.183   3.533   9.481  0.0951 -0.9444  0.7781
  141SAPE  H14R15412   1.258   3.613   9.479 -2.6427  1.8052  0.8022
  141SAPE  C21515413   1.105   3.520   9.371  0.6397  0.6530  0.6295
  141SAPE  H15R15414   1.121   3.577   9.278  0.6193  1.0947  0.8915
  141SAPE  C21615415   0.999   3.418   9.352 -0.1444  0.0320  0.5066
  141SAPE  H16R15416   0.905   3.468   9.382  0.1905 -0.4388  2.5100
  141SAPE  H16S15417   1.011   3.335   9.425 -0.0351 -0.9961 -0.6575
  141SAPE  C21715418   0.994   3.363   9.209 -0.3733  0.1642 -0.6226
  141SAPE  H17R15419   0.922   3.279   9.215  0.2102 -0.2773  0.5232
  141SAPE  H17S15420   1.095   3.321   9.191  0.5065  1.4594  1.0370
  141SAPE  C21815421   0.945   3.452   9.096 -0.5965 -0.4788 -0.4765
  141SAPE  H18R15422   1.002   3.546   9.109 -1.6897 -0.0750  2.0567
  141SAPE  H18S15423   0.835   3.468   9.100 -0.5409  0.0933 -1.0696
  141SAPE  C21915424   0.976   3.407   8.956  0.1982  0.1647 -0.0829
  141SAPE  H19R15425   0.943   3.305   8.927  0.8566  0.1528 -0.8436
  141SAPE  H19S15426   1.086   3.407   8.936  0.4494  2.5501  0.9645
  141SAPE  C22015427   0.910   3.506   8.856  0.1445  0.2291  0.4156
  141SAPE  H20R15428   0.944   3.480   8.754 -0.1575 -1.5240  0.7350
  141SAPE  H20S15429   0.933   3.612   8.879 -2.1121  0.9745 -0.4676
  141SAPE  H20T15430   0.802   3.483   8.849 -0.1907  1.9373 -0.6446
  141SAPE   C3315431   0.699   3.580  10.373  0.5171 -0.3385 -0.2880
  141SAPE   H3X15432   0.702   3.681  10.325  3.0363 -0.9076 -1.4673
  141SAPE   H3Y15433   0.601   3.566  10.425  1.3990  1.3806  2.0482
  141SAPE   C3415434   0.730   3.467  10.276 -0.2770 -0.5355 -0.5678
  141SAPE   H4X15435   0.635   3.422  10.242 -2.4500  1.9983  1.6605
  141SAPE   H4Y15436   0.776   3.394  10.347  0.5930  1.4988  1.0881
  141SAPE   C3515437   0.842   3.503  10.176  0.0948  0.5664  0.1160
  141SAPE   H5X15438   0.854   3.406  10.123 -2.1463  0.0448  0.4409
  141SAPE   H5Y15439   0.937   3.536  10.223 -0.1820  0.7925  0.5270
  141SAPE   C3615440   0.792   3.601  10.068  0.2056  0.4557 -0.2911
  141SAPE   H6X15441   0.733   3.675  10.127  0.0660  0.3632 -0.3136
  141SAPE   H6Y15442   0.706   3.563  10.008 -1.5332 -1.0826  2.9376
  141SAPE   C3715443   0.901   3.680   9.995  1.2542 -0.1003  0.4522
  141SAPE   H7X15444   0.972   3.600   9.967 -0.0835 -1.5468  1.0095
  141SAPE   H7Y15445   0.957   3.756  10.053  2.7671  0.2743 -1.4347
  141SAPE   C3815446   0.848   3.750   9.870  0.0072 -1.1360 -0.5313
  141SAPE   H8X15447   0.776   3.831   9.892 -2.4087 -2.5081 -2.7505
  141SAPE   H8Y15448   0.790   3.669   9.820 -0.6328 -2.9297  2.8640
  141SAPE   C3915449   0.946   3.815   9.769 -0.3291 -0.0548  0.2978
  141SAPE   H9X15450   1.015   3.730   9.749 -0.7351 -0.9747  2.5539
  141SAPE   H9Y15451   1.005   3.892   9.823  3.3050 -2.5660  0.3389
  141SAPE  C31015452   0.882   3.871   9.631  0.4953  0.1491  0.2916
  141SAPE  H10X15453   0.950   3.926   9.562  0.1438  0.9062  0.5388
  141SAPE  H10Y15454   0.804   3.948   9.646  0.9703  0.8619 -0.8006
  141SAPE  C31115455   0.808   3.759   9.549 -0.7040  0.2200 -0.8163
  141SAPE  H11X15456   0.719   3.724   9.606 -0.1765  0.3299  0.1043
  141SAPE  H11Y15457   0.884   3.678   9.542  1.1392  1.7349  0.7269
  141SAPE  C31215458   0.772   3.808   9.409  0.2911 -0.3255  1.1174
  141SAPE  H12X15459   0.862   3.839   9.353 -1.0645 -2.1132 -2.3853
  141SAPE  H12Y15460   0.701   3.892   9.391  0.2632 -0.5225  0.2489
  141SAPE  C31315461   0.711   3.697   9.326 -0.4419  0.0544 -0.1546
  141SAPE  H13X15462   0.632   3.648   9.386  0.5881  1.2679  2.3029
  141SAPE  H13Y15463   0.789   3.618   9.320 -1.5042 -1.3064  2.4153
  141SAPE  C31415464   0.658   3.737   9.192  0.3847  0.9996  0.0012
  141SAPE  H14X15465   0.579   3.815   9.194  0.6323  1.2943 -1.0487
  141SAPE  H14Y15466   0.607   3.653   9.141 -1.3818  1.7619  0.4364
  141SAPE  C31515467   0.761   3.808   9.100  0.7878  0.2320 -0.6009
  141SAPE  H15X15468   0.840   3.730   9.091 -2.6165 -3.4711 -1.1877
  141SAPE  H15Y15469   0.800   3.901   9.148  1.0545  0.6294 -1.5746
  141SAPE  C31615470   0.703   3.835   8.961  0.4764 -0.0880  0.3948
  141SAPE  H16X15471   0.622   3.910   8.973  1.2707  1.1207 -1.3028
  141SAPE  H16Y15472   0.661   3.740   8.921  4.7054 -1.2097 -1.9975
  141SAPE  C31715473   0.804   3.885   8.857 -0.4423  0.1274  0.4593
  141SAPE  H17X15474   0.881   3.806   8.844  0.9091  1.3522  0.7728
  141SAPE  H17Y15475   0.840   3.977   8.909 -0.5174 -0.1156  0.9451
  141SAPE  C31815476   0.743   3.908   8.722 -0.4505 -0.2118 -0.2643
  141SAPE  H18X15477   0.679   3.821   8.696 -0.7606 -0.8523  2.3812
  141SAPE  H18Y15478   0.825   3.916   8.647  0.7706  0.2841  1.0774
  141SAPE  H18Z15479   0.685   4.003   8.723 -2.4700 -1.3921 -0.2977
  142SAPE     N15480   2.394   2.217  11.393 -0.3752 -0.1284 -0.0133
  142SAPE   HN115481   2.323   2.222  11.316 -0.5641  0.8024  0.2048
  142SAPE   HN215482   2.356   2.189  11.485 -2.1018 -1.3170 -1.0117
  142SAPE   HN315483   2.429   2.315  11.396  0.3692 -0.4101  1.7149
  142SAPE   C1215484   2.502   2.123  11.338 -0.8441  0.6501  0.6139
  142SAPE  H12A15485   2.589   2.124  11.407  0.0288 -0.1320 -0.4290
  142SAPE  H12B15486   2.530   2.171  11.241 -1.3609 -1.8156 -0.8472
  142SAPE   C1115487   2.441   1.978  11.308 -0.1271  0.1309  0.1542
  142SAPE  H11A15488   2.420   1.917  11.398 -0.2679 -2.5822 -1.5951
  142SAPE  H11B15489   2.520   1.934  11.243  1.0871  2.3348  0.0299
  142SAPE     P15490   2.241   1.879  11.171 -0.5172 -0.3323 -0.0585
  142SAPE   O1315491   2.168   1.811  11.283 -0.1171 -0.6683  0.7940
  142SAPE   O1415492   2.175   1.925  11.049 -0.4925 -0.1137  1.3060
  142SAPE   O1215493   2.309   2.003  11.242 -0.3367 -0.1005 -0.2272
  142SAPE   O1115494   2.356   1.774  11.138 -0.0994 -0.0357  0.1411
  142SAPE    C115495   2.314   1.639  11.117 -0.5680 -0.5897 -0.2647
  142SAPE    HA15496   2.286   1.598  11.217 -1.6737 -0.4904 -0.5200
  142SAPE    HB15497   2.228   1.639  11.047 -0.8421 -1.2484  0.0557
  142SAPE    C215498   2.416   1.536  11.056 -0.3644 -0.2145 -0.1833
  142SAPE    HS15499   2.491   1.525  11.137 -0.9313  2.2792  0.7806
  142SAPE   O2115500   2.477   1.594  10.939 -0.3107  0.2750  0.2551
  142SAPE   C2115501   2.582   1.527  10.896 -0.3912 -0.0581  0.1393
  142SAPE   O2215502   2.632   1.431  10.954 -0.7656  0.1695 -0.2859
  142SAPE   C2215503   2.620   1.558  10.747  0.4763 -0.0417 -0.2036
  142SAPE   H2R15504   2.541   1.531  10.674  0.0613 -0.7094  0.4762
  142SAPE   H2S15505   2.626   1.669  10.752 -0.4190 -0.0346  1.2699
  142SAPE    C315506   2.348   1.404  11.035  0.4111 -0.0073 -0.1871
  142SAPE    HX15507   2.306   1.374  11.133  0.1937  1.4757  0.1963
  142SAPE    HY15508   2.429   1.331  11.015  0.4406  0.1182 -0.5392
  142SAPE   O3115509   2.249   1.431  10.935  0.2033 -0.0253  0.5888
  142SAPE   C3115510   2.288   1.389  10.817  0.2780  0.5336 -0.5040
  142SAPE   O3215511   2.386   1.320  10.786  0.3274 -0.2030 -0.1686
  142SAPE   C3215512   2.214   1.463  10.713  0.5428  0.0265  0.4128
  142SAPE   H2X15513   2.264   1.561  10.695 -1.2056  0.7819 -0.6081
  142SAPE   H2Y15514   2.106   1.479  10.735  0.5650 -0.0484  0.5725
  142SAPE   C2315515   2.764   1.499  10.711  0.4800  0.3111  0.0890
  142SAPE   H3R15516   2.751   1.390  10.694  1.5111  0.3581 -1.1007
  142SAPE   H3S15517   2.834   1.517  10.796 -0.5180  0.9229  0.8129
  142SAPE   C2415518   2.822   1.553  10.579  0.0318  0.3612 -0.4368
  142SAPE   H4R15519   2.842   1.660  10.600 -1.4229  0.7338 -0.8598
  142SAPE   H4S15520   2.752   1.540  10.494  0.0928  1.4832 -0.6786
  142SAPE   C2515521   2.960   1.496  10.541 -0.6306 -0.0054  0.3146
  142SAPE   H5R15522   3.004   1.435  10.621 -0.4436 -0.6228 -0.2497
  142SAPE   C2615523   3.026   1.512  10.424 -0.3788 -0.7628  0.0929
  142SAPE   H6R15524   3.116   1.449  10.411 -0.3246 -1.0003  1.4877
  142SAPE   C2715525   2.983   1.593  10.309 -0.2662 -0.0949 -0.0668
  142SAPE   H7R15526   2.894   1.656  10.329 -0.0478  0.5900 -1.1215
  142SAPE   H7S15527   2.956   1.529  10.222 -1.1513  1.9602 -1.3923
  142SAPE   C2815528   3.091   1.696  10.272  0.0489 -0.4675 -0.2791
  142SAPE   H8R15529   3.136   1.739  10.362 -2.6526 -2.1092  2.0180
  142SAPE   C2915530   3.122   1.738  10.149 -0.8454 -0.7259 -0.5880
  142SAPE   H9R15531   3.208   1.805  10.137 -1.0792 -0.2880  0.1190
  142SAPE  C21015532   3.053   1.691  10.018 -0.1479 -0.0120 -1.1308
  142SAPE  H10R15533   2.953   1.648  10.044  0.5640 -1.1468 -0.1490
  142SAPE  H10S15534   3.115   1.614   9.969  2.0444  2.4655 -2.4644
  142SAPE  C21115535   3.044   1.811   9.921 -0.0404 -0.2446  0.2450
  142SAPE  H11R15536   2.994   1.899   9.965 -0.3368 -1.3965  2.3787
  142SAPE  C21215537   3.105   1.816   9.798 -0.0918  0.0956 -1.0393
  142SAPE  H12R15538   3.101   1.910   9.740 -0.0399  0.6892 -0.1069
  142SAPE  C21315539   3.189   1.716   9.729  1.0095 -0.0125 -0.2822
  142SAPE  H13R15540   3.254   1.670   9.806  0.8578 -1.1377 -0.8080
  142SAPE  H13S15541   3.258   1.761   9.655 -1.4681 -0.1263 -2.8309
  142SAPE  C21415542   3.103   1.611   9.669  0.7087 -0.0328 -0.5709
  142SAPE  H14R15543   3.056   1.547   9.746 -1.2808 -1.9161 -3.1762
  142SAPE  C21515544   3.061   1.608   9.544 -0.3841 -0.0031  0.4648
  142SAPE  H15R15545   2.999   1.519   9.522 -0.0560 -0.1430  0.0989
  142SAPE  C21615546   3.089   1.687   9.418 -0.8725  0.0977  0.3139
  142SAPE  H16R15547   3.135   1.786   9.440 -0.5074  0.6962 -2.7654
  142SAPE  H16S15548   3.000   1.705   9.356 -0.7860 -1.4264 -0.2964
  142SAPE  C21715549   3.199   1.626   9.321 -0.2852 -0.6180  0.3577
  142SAPE  H17R15550   3.176   1.522   9.290  1.1565 -0.5761 -0.9791
  142SAPE  H17S15551   3.300   1.633   9.368 -0.2236  1.2233  0.0174
  142SAPE  C21815552   3.229   1.727   9.207 -0.4564 -0.7785 -0.0036
  142SAPE  H18R15553   3.325   1.710   9.154  0.3474  0.7746  0.8817
  142SAPE  H18S15554   3.250   1.825   9.256  1.3700 -1.0263 -0.2234
  142SAPE  C21915555   3.110   1.740   9.109  0.5880  0.0504 -0.1927
  142SAPE  H19R15556   3.015   1.769   9.159  0.6714  0.8204 -0.4676
  142SAPE  H19S15557   3.098   1.641   9.061 -0.6094  0.1429 -0.1130
  142SAPE  C22015558   3.134   1.833   8.996 -0.1754 -0.2367 -0.1114
  142SAPE  H20R15559   3.229   1.804   8.947  0.5815  0.2448  1.0295
  142SAPE  H20S15560   3.146   1.935   9.039 -0.8639  0.2541 -1.0653
  142SAPE  H20T15561   3.050   1.828   8.923 -0.4820  0.1769  0.2036
  142SAPE   C3315562   2.211   1.394  10.579  0.0754  0.4088  0.0234
  142SAPE   H3X15563   2.150   1.302  10.590  1.0035 -0.4433 -1.5834
  142SAPE   H3Y15564   2.316   1.368  10.554 -0.0562  0.4404 -0.5970
  142SAPE   C3415565   2.168   1.489  10.459 -0.1318  0.0035  0.4289
  142SAPE   H4X15566   2.220   1.586  10.472 -1.4006  0.9558 -1.2496
  142SAPE   H4Y15567   2.058   1.500  10.470 -0.3504 -2.5692  1.7751
  142SAPE   C3515568   2.206   1.440  10.320 -0.0292 -0.1309  0.2103
  142SAPE   H5X15569   2.317   1.439  10.318  0.0258  2.1240 -0.3991
  142SAPE   H5Y15570   2.182   1.509  10.236 -2.3145  0.2217  1.0826
  142SAPE   C3615571   2.151   1.304  10.282  0.6450  0.0875 -0.1193
  142SAPE   H6X15572   2.040   1.310  10.290  0.7204  0.6673  0.5557
  142SAPE   H6Y15573   2.193   1.228  10.352  0.9675  0.5072  0.1514
  142SAPE   C3715574   2.185   1.248  10.135  0.0029  0.2435  0.3344
  142SAPE   H7X15575   2.150   1.143  10.137 -2.5032  1.0218  0.3420
  142SAPE   H7Y15576   2.294   1.247  10.114 -0.0607 -1.3377 -0.0148
  142SAPE   C3815577   2.123   1.329  10.025 -0.2627 -0.7451  0.5236
  142SAPE   H8X15578   2.161   1.433  10.025 -4.2321  0.9170 -1.4835
  142SAPE   H8Y15579   2.013   1.330  10.044 -0.3755  0.3911 -0.1261
  142SAPE   C3915580   2.156   1.281   9.879  0.2016  1.3972 -0.8476
  142SAPE   H9X15581   2.127   1.174   9.879  1.3725  1.0270  1.1889
  142SAPE   H9Y15582   2.266   1.276   9.867  0.2788 -0.3328  0.1412
  142SAPE  C31015583   2.090   1.364   9.769  0.4593  0.9125  0.0469
  142SAPE  H10X15584   2.125   1.468   9.787  1.3529  0.6970 -0.4097
  142SAPE  H10Y15585   1.980   1.348   9.773  0.7404 -1.3071  0.6431
  142SAPE  C31115586   2.142   1.305   9.634  0.0751 -0.0357 -0.1190
  142SAPE  H11X15587   2.107   1.200   9.633 -0.8695  0.2624  0.6276
  142SAPE  H11Y15588   2.253   1.313   9.637 -0.0501  2.6403  1.7430
  142SAPE  C31215589   2.077   1.378   9.515  0.3434  0.0431 -0.2803
  142SAPE  H12X15590   2.022   1.470   9.544  0.7566  0.3641 -0.4992
  142SAPE  H12Y15591   2.005   1.305   9.473 -1.3200  1.2059  0.4442
  142SAPE  C31315592   2.179   1.417   9.399  0.6455 -0.0448 -0.3064
  142SAPE  H13X15593   2.260   1.341   9.395 -0.5974 -1.4076 -0.1903
  142SAPE  H13Y15594   2.229   1.516   9.409 -1.9831  1.8825 -3.8237
  142SAPE  C31415595   2.099   1.423   9.261 -0.5383 -0.3629  0.1363
  142SAPE  H14X15596   2.030   1.509   9.268  1.3956  1.4309 -1.5255
  142SAPE  H14Y15597   2.033   1.334   9.250 -2.1701  0.7701  0.3894
  142SAPE  C31515598   2.193   1.448   9.142 -0.0903  0.1752  0.5807
  142SAPE  H15X15599   2.255   1.359   9.120  2.5069  1.6436  1.4628
  142SAPE  H15Y15600   2.263   1.531   9.169 -1.9284  2.3833 -1.0174
  142SAPE  C31615601   2.130   1.512   9.018 -0.3269  0.0265  0.8762
  142SAPE  H16X15602   2.215   1.526   8.949 -0.5735  0.6089  0.6858
  142SAPE  H16Y15603   2.105   1.613   9.057 -0.4961 -0.0233  0.9019
  142SAPE  C31715604   2.017   1.429   8.947  0.0815  0.1040 -0.4469
  142SAPE  H17X15605   1.998   1.475   8.848  0.5214 -2.3382 -1.7450
  142SAPE  H17Y15606   1.927   1.415   9.010  0.0545 -1.5921 -0.8162
  142SAPE  C31815607   2.067   1.285   8.914  0.3531 -0.4179 -0.2373
  142SAPE  H18X15608   2.107   1.247   9.011  2.5924  1.2469 -0.4252
  142SAPE  H18Y15609   2.133   1.289   8.825 -0.1407 -2.9048 -0.7909
  142SAPE  H18Z15610   1.977   1.223   8.896  2.6592 -4.2117  0.1840
  143SAPE     N15611   1.196   1.467  11.248  0.2973  0.2680  0.8173
  143SAPE   HN115612   1.289   1.498  11.283  0.5912  0.4381 -0.0825
  143SAPE   HN215613   1.117   1.484  11.313 -1.0641 -0.4886 -0.5533
  143SAPE   HN315614   1.201   1.363  11.237 -3.4587  0.1484 -1.3639
  143SAPE   C1215615   1.179   1.522  11.109  0.2651  0.1983 -0.5659
  143SAPE  H12A15616   1.210   1.628  11.123 -0.2229  0.0960  1.6673
  143SAPE  H12B15617   1.068   1.521  11.098 -0.0099 -1.0371  1.8218
  143SAPE   C1115618   1.243   1.435  10.995  0.5234 -0.1227 -0.8987
  143SAPE  H11A15619   1.350   1.467  10.992  0.1556  1.2017 -0.7439
  143SAPE  H11B15620   1.216   1.463  10.891  1.7680 -1.2622 -1.5722
  143SAPE     P15621   1.103   1.213  10.996 -0.3084  0.0614 -0.4575
  143SAPE   O1315622   1.132   1.068  10.995  0.7815 -0.1953  0.8228
  143SAPE   O1415623   0.998   1.268  11.087  0.2158  0.3339  0.5277
  143SAPE   O1215624   1.236   1.294  11.019  0.1029 -0.0911 -0.9276
  143SAPE   O1115625   1.073   1.263  10.846 -0.7020 -0.1562 -0.0860
  143SAPE    C115626   1.131   1.197  10.732  0.3467 -0.8798 -0.8754
  143SAPE    HA15627   1.240   1.188  10.754  0.3836  0.5143 -0.4277
  143SAPE    HB15628   1.072   1.103  10.726 -1.2527  0.1728 -2.9203
  143SAPE    C215629   1.119   1.282  10.597 -0.0806 -0.3164 -0.2066
  143SAPE    HS15630   1.012   1.310  10.595 -0.2633 -0.9648  0.0616
  143SAPE   O2115631   1.157   1.216  10.478 -0.1170  0.8553 -0.4746
  143SAPE   C2115632   1.106   1.096  10.442  0.6158 -0.3002  0.7519
  143SAPE   O2215633   1.007   1.051  10.494 -0.0950 -0.4353  0.5607
  143SAPE   C2215634   1.181   1.055  10.320  0.1287 -0.6088  0.3228
  143SAPE   H2R15635   1.193   1.140  10.249  2.1233  0.8402  2.2852
  143SAPE   H2S15636   1.280   1.032  10.362 -0.3524  1.0697  2.5563
  143SAPE    C315637   1.200   1.420  10.605 -0.0183  0.6332 -0.4312
  143SAPE    HX15638   1.305   1.394  10.633 -0.1297 -1.1951 -1.5651
  143SAPE    HY15639   1.150   1.481  10.683 -3.2592 -2.5655  0.2661
  143SAPE   O3115640   1.199   1.485  10.479  0.1422  0.2777 -0.1909
  143SAPE   C3115641   1.291   1.461  10.389 -0.7392 -0.3143  0.4320
  143SAPE   O3215642   1.404   1.414  10.411 -0.6113 -0.0789  0.0435
  143SAPE   C3215643   1.230   1.490  10.252  0.2683 -0.2260  0.4607
  143SAPE   H2X15644   1.219   1.600  10.244 -1.1131 -0.3376  0.5428
  143SAPE   H2Y15645   1.124   1.457  10.251 -0.7635  2.7650  0.3107
  143SAPE   C2315646   1.116   0.930  10.255  0.0347 -0.0712 -0.0151
  143SAPE   H3R15647   1.006   0.933  10.243  0.0456 -2.6320 -1.5170
  143SAPE   H3S15648   1.120   0.849  10.331 -3.5841  1.6270  2.2654
  143SAPE   C2415649   1.177   0.902  10.120  0.3268  0.6168 -0.5656
  143SAPE   H4R15650   1.162   0.989  10.053 -0.8961  0.8417 -0.0164
  143SAPE   H4S15651   1.126   0.814  10.076  0.3445  1.3691 -2.1712
  143SAPE   C2515652   1.320   0.858  10.122  0.2613 -0.0913 -0.6543
  143SAPE   H5R15653   1.368   0.873  10.220 -1.0909  2.1055 -0.2579
  143SAPE   C2615654   1.397   0.845  10.009  0.5921  0.5417 -0.0352
  143SAPE   H6R15655   1.495   0.802  10.034  1.4814  3.1694  1.4197
  143SAPE   C2715656   1.364   0.851   9.859 -0.5762  1.3454  0.5715
  143SAPE   H7R15657   1.254   0.851   9.843 -1.0996 -1.4615  3.1304
  143SAPE   H7S15658   1.398   0.748   9.834  0.2846  0.5441  4.3718
  143SAPE   C2815659   1.444   0.940   9.770 -0.0242 -0.3541  1.0789
  143SAPE   H8R15660   1.525   1.002   9.812  2.9837 -1.7651 -2.0804
  143SAPE   C2915661   1.438   0.933   9.635  0.0787 -0.3465  0.0992
  143SAPE   H9R15662   1.509   0.995   9.579 -1.5874  1.4365 -0.1369
  143SAPE  C21015663   1.351   0.849   9.546  0.2302  0.2009 -0.1355
  143SAPE  H10R15664   1.313   0.914   9.464 -0.8759  0.7654  0.7858
  143SAPE  H10S15665   1.253   0.831   9.595 -0.9340 -2.2193 -3.0392
  143SAPE  C21115666   1.410   0.722   9.486 -0.6967 -0.0794 -0.2553
  143SAPE  H11R15667   1.447   0.654   9.565 -1.7859 -0.4584 -0.0492
  143SAPE  C21215668   1.402   0.685   9.357 -0.2616  0.2073 -0.0687
  143SAPE  H12R15669   1.465   0.598   9.334  2.4892  1.0125  3.6116
  143SAPE  C21315670   1.343   0.754   9.245 -0.5720 -0.7584  0.3865
  143SAPE  H13R15671   1.344   0.862   9.271 -0.6599 -0.6915  0.1123
  143SAPE  H13S15672   1.237   0.719   9.236 -0.4848 -0.9052 -0.0674
  143SAPE  C21415673   1.428   0.747   9.118 -0.1697  0.5987  0.5306
  143SAPE  H14R15674   1.538   0.757   9.121 -0.2002  1.3630 -0.6358
  143SAPE  C21515675   1.383   0.730   8.994 -1.0268  0.9261 -0.7656
  143SAPE  H15R15676   1.456   0.737   8.911 -0.4801 -3.3212 -0.8566
  143SAPE  C21615677   1.236   0.730   8.956 -0.5002  0.3428 -0.1469
  143SAPE  H16R15678   1.222   0.797   8.869 -0.6059  0.8730  0.2652
  143SAPE  H16S15679   1.174   0.777   9.036  2.5445  0.6276  2.2571
  143SAPE  C21715680   1.188   0.581   8.923  0.0695 -0.2429  0.8962
  143SAPE  H17R15681   1.079   0.589   8.905  0.2659 -0.7134 -0.7559
  143SAPE  H17S15682   1.186   0.524   9.018  0.3363  1.6692  2.1046
  143SAPE  C21815683   1.258   0.521   8.800 -1.3598  1.0116  0.3981
  143SAPE  H18R15684   1.359   0.484   8.826 -1.8862 -1.0316 -0.2820
  143SAPE  H18S15685   1.261   0.590   8.714  1.2935 -1.3867 -1.6094
  143SAPE  C21915686   1.187   0.395   8.742  0.2814  0.0008 -1.0510
  143SAPE  H19R15687   1.093   0.440   8.703 -0.3673  1.5156  1.9966
  143SAPE  H19S15688   1.172   0.329   8.829 -0.4852  1.0965 -0.3302
  143SAPE  C22015689   1.257   0.316   8.635 -1.0604  0.5421 -0.0450
  143SAPE  H20R15690   1.197   0.226   8.612  0.9288 -0.7278 -0.5483
  143SAPE  H20S15691   1.357   0.284   8.672 -0.7010  3.0277  1.3609
  143SAPE  H20T15692   1.276   0.376   8.544 -1.7037  1.0776  0.1667
  143SAPE   C3315693   1.314   1.450  10.132 -0.5224 -0.2114  0.2720
  143SAPE   H3X15694   1.279   1.350  10.096 -0.6956  0.5450 -1.8175
  143SAPE   H3Y15695   1.420   1.438  10.163 -0.7204 -3.6098  0.0160
  143SAPE   C3415696   1.292   1.551  10.021 -0.0406  0.1680 -0.1461
  143SAPE   H4X15697   1.333   1.651  10.046  0.9492 -0.3535  0.3607
  143SAPE   H4Y15698   1.185   1.554   9.992 -0.1041  0.1727  0.0928
  143SAPE   C3515699   1.360   1.510   9.885  0.0725  0.0463 -0.5932
  143SAPE   H5X15700   1.314   1.419   9.841  0.2300  1.0617 -3.0435
  143SAPE   H5Y15701   1.464   1.475   9.901  0.0407  0.3496  0.3344
  143SAPE   C3615702   1.363   1.612   9.772 -0.2061 -0.3035  0.0160
  143SAPE   H6X15703   1.427   1.700   9.793  0.0826 -0.2629 -0.9835
  143SAPE   H6Y15704   1.257   1.645   9.759  0.0644  0.4500 -0.4066
  143SAPE   C3715705   1.401   1.554   9.628  0.4231 -0.2161 -0.4157
  143SAPE   H7X15706   1.365   1.450   9.619  1.1977 -0.4626 -0.7494
  143SAPE   H7Y15707   1.510   1.554   9.608  0.7953 -1.5821  1.3507
  143SAPE   C3815708   1.341   1.635   9.516  0.0140 -0.1306  0.6665
  143SAPE   H8X15709   1.361   1.741   9.543 -0.8764 -0.5935  3.4886
  143SAPE   H8Y15710   1.232   1.614   9.522  0.0838 -0.3850  1.1442
  143SAPE   C3915711   1.380   1.599   9.371 -0.1903  0.7826 -0.4727
  143SAPE   H9X15712   1.357   1.492   9.358  2.0173 -0.5156  4.2013
  143SAPE   H9Y15713   1.491   1.603   9.359 -0.3598  0.8247 -2.3671
  143SAPE  C31015714   1.321   1.689   9.266  0.0794 -0.3110 -0.7499
  143SAPE  H10X15715   1.381   1.782   9.260 -2.5893  1.4996 -0.6958
  143SAPE  H10Y15716   1.215   1.716   9.286  0.6139  2.7714 -1.5168
  143SAPE  C31115717   1.339   1.624   9.126  0.5096 -0.2567  0.7289
  143SAPE  H11X15718   1.294   1.523   9.136 -0.4799 -0.1662 -2.0000
  143SAPE  H11Y15719   1.447   1.619   9.098  0.4985  1.3926  0.2391
  143SAPE  C31215720   1.263   1.716   9.019 -0.5200 -0.6500 -0.0046
  143SAPE  H12X15721   1.314   1.814   9.018 -0.1753 -0.8298 -1.2765
  143SAPE  H12Y15722   1.158   1.740   9.048 -0.3693 -1.0232  0.8899
  143SAPE  C31315723   1.268   1.669   8.872 -0.6868 -0.4896 -0.5350
  143SAPE  H13X15724   1.217   1.735   8.798 -1.1656  0.5989  0.7099
  143SAPE  H13Y15725   1.229   1.565   8.871 -0.1631 -0.6967 -1.8092
  143SAPE  C31415726   1.415   1.665   8.815 -0.7237  0.9204  0.1148
  143SAPE  H14X15727   1.482   1.594   8.869  1.2986  2.7087  0.0841
  143SAPE  H14Y15728   1.472   1.760   8.818  0.6913  0.1050  0.1290
  143SAPE  C31515729   1.410   1.617   8.670  0.4073 -0.6152  0.2267
  143SAPE  H15X15730   1.360   1.696   8.610  1.8346  0.3355  0.2264
  143SAPE  H15Y15731   1.376   1.511   8.673  0.8914 -0.7591  2.1551
  143SAPE  C31615732   1.541   1.593   8.603 -0.2292 -0.1736  0.4727
  143SAPE  H16X15733   1.591   1.501   8.641  2.3824  0.6090 -0.8410
  143SAPE  H16Y15734   1.616   1.668   8.635 -0.6425 -0.0624  1.2117
  143SAPE  C31715735   1.532   1.588   8.448 -0.3978 -0.8195 -0.0844
  143SAPE  H17X15736   1.430   1.554   8.421 -0.5877 -0.2674 -0.0730
  143SAPE  H17Y15737   1.595   1.505   8.410  1.1579 -0.4315  1.4977
  143SAPE  C31815738   1.552   1.726   8.380 -0.2197 -0.0176  0.1297
  143SAPE  H18X15739   1.551   1.709   8.270  0.8202 -0.0507  0.1223
  143SAPE  H18Y15740   1.649   1.772   8.407 -0.0996 -1.1449  1.6864
  143SAPE  H18Z15741   1.467   1.795   8.402  0.2957  1.6910 -2.6389
  144SAPE     N15742   0.185   6.222  10.884 -0.3321  0.0798  0.0896
  144SAPE   HN115743   0.254   6.197  10.810  0.4030  1.9149  0.0970
  144SAPE   HN215744   0.238   6.262  10.965 -0.6061  0.6088  0.0142
  144SAPE   HN315745   0.140   6.137  10.923 -1.8883  1.5932  1.8141
  144SAPE   C1215746   0.074   6.319  10.843  0.5616  0.2836 -0.5096
  144SAPE  H12A15747   0.120   6.415  10.814 -1.4639  1.7395  0.7560
  144SAPE  H12B15748   0.003   6.336  10.928  2.0052 -1.0472  1.0372
  144SAPE   C1115749  -0.012   6.258  10.728  0.4217 -0.2823 -0.8791
  144SAPE  H11A15750   0.056   6.261  10.640  1.2477 -0.2465 -0.2544
  144SAPE  H11B15751  -0.095   6.330  10.717  2.0010  2.0762  1.4491
  144SAPE     P15752  -0.196   6.087  10.801 -0.2305 -0.1496 -0.2218
  144SAPE   O1315753  -0.194   5.940  10.806  0.5923  0.0143 -0.1671
  144SAPE   O1415754  -0.217   6.156  10.926 -0.5662 -0.3066 -0.1685
  144SAPE   O1215755  -0.046   6.119  10.751  0.3054 -0.4071  0.2023
  144SAPE   O1115756  -0.290   6.152  10.698  0.3297 -0.2853  0.0480
  144SAPE    C115757  -0.402   6.081  10.637  0.3909  0.1335  0.1727
  144SAPE    HA15758  -0.460   6.029  10.715 -0.2055 -1.9709 -1.5715
  144SAPE    HB15759  -0.462   6.156  10.582  1.1708  0.2491 -0.5542
  144SAPE    C215760  -0.365   5.981  10.525 -0.1162  0.2098  0.7150
  144SAPE    HS15761  -0.269   5.928  10.545  0.0385  0.4094  0.5090
  144SAPE   O2115762  -0.359   6.047  10.400 -0.0166 -0.1346  0.7166
  144SAPE   C2115763  -0.291   5.989  10.302  0.6367 -0.5008  0.7021
  144SAPE   O2215764  -0.230   5.884  10.308 -0.2116  0.0589 -0.3174
  144SAPE   C2215765  -0.312   6.074  10.173 -0.3747  0.3852 -0.4356
  144SAPE   H2R15766  -0.361   6.168  10.204  0.3588 -0.0270  2.2357
  144SAPE   H2S15767  -0.206   6.086  10.140  1.1915 -2.0975  3.0624
  144SAPE    C315768  -0.466   5.860  10.511 -0.2772 -0.0640  0.4781
  144SAPE    HX15769  -0.487   5.819  10.612  0.2805 -1.2528  0.1296
  144SAPE    HY15770  -0.414   5.788  10.444  0.0477  0.1399  0.5081
  144SAPE   O3115771  -0.592   5.898  10.451  0.2723  0.4293  0.7581
  144SAPE   C3115772  -0.693   5.946  10.525 -0.2832 -0.7220  0.1016
  144SAPE   O3215773  -0.680   5.989  10.639 -0.0391 -0.1707  0.6962
  144SAPE   C3215774  -0.813   5.970  10.434 -0.2413 -0.1964  1.1888
  144SAPE   H2X15775  -0.884   6.046  10.474 -1.4232 -1.4495  1.5593
  144SAPE   H2Y15776  -0.862   5.871  10.430  0.2113 -0.4071 -2.2848
  144SAPE   C2315777  -0.387   5.990  10.074  1.3954  0.3462  0.3602
  144SAPE   H3R15778  -0.487   5.956  10.109  1.9155 -0.2232  1.3093
  144SAPE   H3S15779  -0.332   5.895  10.061 -1.2981 -1.2570 -0.0687
  144SAPE   C2415780  -0.416   6.063   9.940 -0.1339  0.7051  0.1286
  144SAPE   H4R15781  -0.464   5.990   9.872 -2.8084  0.3766  2.1614
  144SAPE   H4S15782  -0.316   6.094   9.903  0.2900  1.1339  1.5622
  144SAPE   C2515783  -0.492   6.190   9.944 -0.0877 -0.2937 -0.1318
  144SAPE   H5R15784  -0.461   6.269  10.014 -1.5971  1.4013 -1.2696
  144SAPE   C2615785  -0.596   6.225   9.863 -0.0809 -0.0093  0.9233
  144SAPE   H6R15786  -0.652   6.318   9.880 -2.3732 -1.1799  0.1383
  144SAPE   C2715787  -0.670   6.163   9.747 -0.6273  0.6540  0.1728
  144SAPE   H7R15788  -0.762   6.218   9.720  0.5871  3.2830  0.9688
  144SAPE   H7S15789  -0.699   6.061   9.778  2.5904 -0.5937 -0.4464
  144SAPE   C2815790  -0.578   6.151   9.629  0.4826 -0.3451 -0.2518
  144SAPE   H8R15791  -0.474   6.122   9.651  0.8684  1.0014 -0.1864
  144SAPE   C2915792  -0.614   6.162   9.500 -0.0361 -0.2520  0.2429
  144SAPE   H9R15793  -0.545   6.142   9.416  1.0388  2.1823  0.4644
  144SAPE  C21015794  -0.754   6.191   9.452 -0.0034 -0.0723 -0.4630
  144SAPE  H10R15795  -0.742   6.295   9.413 -2.5675  0.3266 -0.3939
  144SAPE  H10S15796  -0.826   6.188   9.537  0.7707  2.2516  0.3759
  144SAPE  C21115797  -0.809   6.093   9.346  0.5308  0.4269 -0.2734
  144SAPE  H11R15798  -0.849   6.002   9.392 -0.4040  0.8369 -0.2554
  144SAPE  C21215799  -0.811   6.121   9.213 -0.1078  0.4763  0.1767
  144SAPE  H12R15800  -0.846   6.044   9.142  0.9353  0.3747 -0.2506
  144SAPE  C21315801  -0.764   6.253   9.147  0.0633 -0.2503  0.2429
  144SAPE  H13R15802  -0.675   6.288   9.202  0.4342 -0.0545 -0.4713
  144SAPE  H13S15803  -0.837   6.335   9.165 -0.4650 -0.8855  1.0926
  144SAPE  C21415804  -0.714   6.235   9.003  0.3901  0.3149 -0.3936
  144SAPE  H14R15805  -0.627   6.169   9.001 -0.8525 -1.3703 -2.2620
  144SAPE  C21515806  -0.775   6.266   8.891  0.1684  0.1296  0.4104
  144SAPE  H15R15807  -0.742   6.232   8.792 -1.3706  1.8575 -0.7621
  144SAPE  C21615808  -0.907   6.328   8.896 -0.1219 -0.0626 -1.0105
  144SAPE  H16R15809  -0.908   6.413   8.966  0.2971 -0.8426 -0.0357
  144SAPE  H16S15810  -0.971   6.252   8.945  1.4731 -1.9324 -1.6716
  144SAPE  C21715811  -0.953   6.364   8.759 -0.2340  0.6543  0.3695
  144SAPE  H17R15812  -0.868   6.417   8.711 -1.3118 -0.2354 -2.7924
  144SAPE  H17S15813  -1.039   6.433   8.768 -1.0053 -0.3619  0.9978
  144SAPE  C21815814  -0.998   6.243   8.666 -0.0751  0.5973 -0.1989
  144SAPE  H18R15815  -1.070   6.185   8.727 -0.0120  0.8853  0.1517
  144SAPE  H18S15816  -0.905   6.183   8.656 -0.2667  0.5391 -2.0514
  144SAPE  C21915817  -1.057   6.264   8.526 -0.3515 -0.8139 -0.4958
  144SAPE  H19R15818  -0.980   6.313   8.461  3.4105 -0.6225  3.6304
  144SAPE  H19S15819  -1.141   6.336   8.535  0.2694 -0.3665  3.9594
  144SAPE  C22015820  -1.099   6.134   8.468 -0.0463 -0.1320 -0.1560
  144SAPE  H20R15821  -1.094   6.144   8.357 -0.9333  1.0802 -0.1115
  144SAPE  H20S15822  -1.206   6.120   8.495 -0.1784  1.4039  0.2459
  144SAPE  H20T15823  -1.040   6.047   8.502 -2.1858 -1.0937  1.3092
  144SAPE   C3315824  -0.768   5.997  10.288 -0.6596  0.0789 -0.8239
  144SAPE   H3X15825  -0.865   6.007  10.233 -1.1115  0.0350 -0.0536
  144SAPE   H3Y15826  -0.710   5.913  10.244  0.5166  0.8659 -0.8180
  144SAPE   C3415827  -0.678   6.119  10.275  0.1214 -0.9646  0.5424
  144SAPE   H4X15828  -0.666   6.133  10.165 -1.5897 -0.5226  0.3766
  144SAPE   H4Y15829  -0.577   6.094  10.311  0.3620 -0.9393 -0.0941
  144SAPE   C3515830  -0.747   6.245  10.332 -0.0812  0.1315  0.2656
  144SAPE   H5X15831  -0.677   6.331  10.326 -0.0451  0.1013  0.2537
  144SAPE   H5Y15832  -0.771   6.240  10.440 -0.2042  1.5786  0.3343
  144SAPE   C3615833  -0.873   6.301  10.264  0.3403  0.7419 -0.7052
  144SAPE   H6X15834  -0.930   6.373  10.327  2.2859  2.2928 -0.6421
  144SAPE   H6Y15835  -0.949   6.220  10.260 -0.9335  1.8477  0.2187
  144SAPE   C3715836  -0.861   6.372  10.126 -0.6966 -0.2443 -1.0937
  144SAPE   H7X15837  -0.963   6.404  10.095 -0.0593  1.0926 -1.8860
  144SAPE   H7Y15838  -0.828   6.294  10.055 -0.7112 -4.4948  3.0792
  144SAPE   C3815839  -0.758   6.494  10.123  0.1812  0.2492  0.0851
  144SAPE   H8X15840  -0.654   6.456  10.134  0.5906  1.2862 -0.1027
  144SAPE   H8Y15841  -0.785   6.567  10.202 -0.4751 -1.3312  1.3931
  144SAPE   C3915842  -0.774   6.575   9.990  0.2715 -0.2616 -0.3619
  144SAPE   H9X15843  -0.874   6.622  10.001  0.2824 -0.4309  0.5423
  144SAPE   H9Y15844  -0.769   6.517   9.895  2.2694 -0.8311  0.0490
  144SAPE  C31015845  -0.660   6.682   9.987  0.8716  0.1837  1.1807
  144SAPE  H10X15846  -0.573   6.643  10.044  0.1429 -0.5758  1.8008
  144SAPE  H10Y15847  -0.693   6.781  10.026  1.1729  0.4749  0.7028
  144SAPE  C31115848  -0.618   6.718   9.839  0.1051  0.7762 -0.4833
  144SAPE  H11X15849  -0.585   6.621   9.796  0.4654  1.6337 -2.2285
  144SAPE  H11Y15850  -0.530   6.784   9.853  2.0401 -1.8145  0.2641
  144SAPE  C31215851  -0.725   6.762   9.741  0.0029 -0.8188  0.1349
  144SAPE  H12X15852  -0.665   6.798   9.654  0.6693 -0.0218  0.8974
  144SAPE  H12Y15853  -0.781   6.849   9.780  0.0800 -1.0515  0.7738
  144SAPE  C31315854  -0.816   6.649   9.682  0.1786 -0.3278 -0.0343
  144SAPE  H13X15855  -0.902   6.622   9.747 -1.2521 -0.0599 -1.7376
  144SAPE  H13Y15856  -0.756   6.556   9.678  1.5012  0.4850  0.1138
  144SAPE  C31415857  -0.884   6.684   9.547  0.0896  0.1579 -0.2969
  144SAPE  H14X15858  -0.904   6.792   9.559  1.0738  0.3397 -0.2165
  144SAPE  H14Y15859  -0.978   6.625   9.539  0.5622 -0.7056  0.3387
  144SAPE  C31515860  -0.786   6.664   9.430  0.2152  0.2059  0.2595
  144SAPE  H15X15861  -0.841   6.617   9.346 -3.5478  2.0516  1.4570
  144SAPE  H15Y15862  -0.709   6.591   9.462  0.1100  0.9651  2.3802
  144SAPE  C31615863  -0.723   6.799   9.378 -0.0788  0.2729  0.6610
  144SAPE  H16X15864  -0.641   6.828   9.446 -0.8791  1.7808  1.0147
  144SAPE  H16Y15865  -0.803   6.876   9.383 -0.5495 -0.2166  0.7089
  144SAPE  C31715866  -0.672   6.793   9.235  0.0522  0.2191 -0.4154
  144SAPE  H17X15867  -0.628   6.694   9.211 -0.4689  0.0947 -0.8569
  144SAPE  H17Y15868  -0.598   6.876   9.236 -2.7213  2.8813  0.6497
  144SAPE  C31815869  -0.777   6.822   9.131  0.2270 -0.5306 -0.1793
  144SAPE  H18X15870  -0.844   6.737   9.110  0.7127 -0.5098 -1.9931
  144SAPE  H18Y15871  -0.721   6.854   9.041  0.1615  1.6215  0.4864
  144SAPE  H18Z15872  -0.828   6.916   9.161  0.7257 -0.3904  0.2487
  145SAPE     N15873   2.826   3.217  11.196 -0.5563 -0.3346 -0.2796
  145SAPE   HN115874   2.740   3.175  11.155  0.1980 -1.0918 -1.1277
  145SAPE   HN215875   2.805   3.213  11.298  0.1906  0.1545 -0.0955
  145SAPE   HN315876   2.833   3.315  11.162  1.1008 -0.9600 -1.8905
  145SAPE   C1215877   2.951   3.140  11.164  0.2701 -0.2054 -0.9504
  145SAPE  H12A15878   3.013   3.133  11.256 -0.3882 -0.7286 -0.5363
  145SAPE  H12B15879   3.004   3.203  11.090 -1.4377  1.2726 -0.9955
  145SAPE   C1115880   2.923   2.998  11.106  0.2597 -0.2710 -0.1753
  145SAPE  H11A15881   3.022   2.982  11.057  0.0219  1.1031 -1.1488
  145SAPE  H11B15882   2.839   2.999  11.033 -0.0133 -2.8901  0.0078
  145SAPE     P15883   2.766   2.863  11.270  0.3653 -0.2597  0.0080
  145SAPE   O1315884   2.766   2.744  11.356  0.5438  0.4098  0.1538
  145SAPE   O1415885   2.703   2.977  11.343 -0.1324  0.4073  0.4089
  145SAPE   O1215886   2.915   2.907  11.219 -0.0235 -0.1520 -0.3372
  145SAPE   O1115887   2.686   2.828  11.134 -0.4003  0.1756 -0.4148
  145SAPE    C115888   2.729   2.712  11.057  0.2846 -0.1929  0.5350
  145SAPE    HA15889   2.835   2.689  11.082  0.8044  2.1073  0.7527
  145SAPE    HB15890   2.667   2.624  11.081  0.0388 -0.5825 -1.3484
  145SAPE    C215891   2.724   2.746  10.907  0.2214  0.0690  0.4592
  145SAPE    HS15892   2.768   2.847  10.895  1.6169 -0.7614 -2.2793
  145SAPE   O2115893   2.589   2.733  10.860  1.1628  0.2502  0.3693
  145SAPE   C2115894   2.516   2.845  10.867  0.7649  0.0958  0.2647
  145SAPE   O2215895   2.560   2.951  10.908  0.1416  0.2936  0.4471
  145SAPE   C2215896   2.376   2.827  10.814 -0.3593 -0.0282  0.1773
  145SAPE   H2R15897   2.373   2.745  10.739  0.4819  1.3350 -1.3947
  145SAPE   H2S15898   2.307   2.804  10.898 -0.4588  1.4457  0.5284
  145SAPE    C315899   2.824   2.651  10.830  0.6830 -0.3794 -0.1688
  145SAPE    HX15900   2.781   2.548  10.836  0.9971 -0.5521 -0.7436
  145SAPE    HY15901   2.927   2.649  10.873  0.3455  0.5002  0.7108
  145SAPE   O3115902   2.845   2.700  10.698  0.1426 -0.8255 -0.5943
  145SAPE   C3115903   2.838   2.620  10.597 -0.8142 -0.0702 -0.0031
  145SAPE   O3215904   2.849   2.496  10.604  0.6311  0.0597 -0.1327
  145SAPE   C3215905   2.844   2.699  10.466  0.0417  0.5679  0.7246
  145SAPE   H2X15906   2.953   2.695  10.444 -0.3371  1.6946 -1.7150
  145SAPE   H2Y15907   2.825   2.807  10.480  1.1493  0.8503  0.2194
  145SAPE   C2315908   2.322   2.952  10.736 -0.6301 -0.1243  0.4083
  145SAPE   H3R15909   2.316   3.037  10.807  0.9820 -0.3930  0.8953
  145SAPE   H3S15910   2.214   2.942  10.712 -0.7843  2.6039 -0.3559
  145SAPE   C2415911   2.405   2.991  10.611  0.5119 -0.4090 -0.2196
  145SAPE   H4R15912   2.496   3.035  10.657 -1.0130  3.2605 -0.3894
  145SAPE   H4S15913   2.348   3.065  10.552 -0.8192 -1.3790 -0.1901
  145SAPE   C2515914   2.443   2.884  10.525  0.0481  0.6146  0.4190
  145SAPE   H5R15915   2.463   2.787  10.573  1.3037 -0.3039 -1.7957
  145SAPE   C2615916   2.459   2.883  10.394  0.7656 -0.0123 -0.7459
  145SAPE   H6R15917   2.495   2.793  10.343  1.8300  1.1060 -2.0625
  145SAPE   C2715918   2.435   3.001  10.298  1.0631  0.4700 -0.2192
  145SAPE   H7R15919   2.331   3.035  10.316  0.4984 -1.7372  1.0549
  145SAPE   H7S15920   2.435   2.956  10.196  1.8150  1.9094 -0.8852
  145SAPE   C2815921   2.531   3.118  10.284  0.0690  0.2987  0.5034
  145SAPE   H8R15922   2.529   3.192  10.365 -2.2311 -0.1124  0.8824
  145SAPE   C2915923   2.611   3.145  10.177 -0.0535 -0.4393 -0.2805
  145SAPE   H9R15924   2.680   3.230  10.183  0.8470 -1.1811  0.2756
  145SAPE  C21015925   2.632   3.062  10.054 -0.0010 -0.0207 -0.1318
  145SAPE  H10R15926   2.621   2.956  10.086 -3.4829  0.9122  2.3620
  145SAPE  H10S15927   2.739   3.062  10.024  0.8702 -2.3354  2.5402
  145SAPE  C21115928   2.526   3.104   9.953  0.1045 -0.0152 -0.0996
  145SAPE  H11R15929   2.423   3.096   9.991  0.1771 -1.1492 -0.1029
  145SAPE  C21215930   2.550   3.144   9.825  0.3677 -0.7057  0.3438
  145SAPE  H12R15931   2.467   3.190   9.770 -1.5972 -3.6233  0.6497
  145SAPE  C21315932   2.686   3.155   9.762  0.5069  0.3888  0.1606
  145SAPE  H13R15933   2.753   3.094   9.826  0.7840 -1.3806 -1.7041
  145SAPE  H13S15934   2.727   3.258   9.767 -1.1881  1.0623  0.8784
  145SAPE  C21415935   2.700   3.118   9.617 -0.3131 -0.4112 -0.1145
  145SAPE  H14R15936   2.715   3.012   9.592 -0.0346 -0.0114 -1.7742
  145SAPE  C21515937   2.701   3.203   9.514 -0.2238  1.3943  0.2651
  145SAPE  H15R15938   2.703   3.161   9.413  1.2091 -1.1097  1.2384
  145SAPE  C21615939   2.676   3.349   9.525 -0.3879 -0.2062 -0.4766
  145SAPE  H16R15940   2.767   3.397   9.568  0.1293 -1.3569 -0.2419
  145SAPE  H16S15941   2.587   3.379   9.584  1.0064  2.5481  0.4295
  145SAPE  C21715942   2.663   3.426   9.386 -0.2404  0.1878 -0.3013
  145SAPE  H17R15943   2.601   3.368   9.314  0.3008 -0.7704 -0.0209
  145SAPE  H17S15944   2.765   3.438   9.344  0.6316 -0.4997  1.4813
  145SAPE  C21815945   2.607   3.567   9.389  0.5013  0.3328 -0.5602
  145SAPE  H18R15946   2.675   3.624   9.455 -0.3011  0.4128  0.2181
  145SAPE  H18S15947   2.506   3.572   9.434  1.5271  1.8556  1.7192
  145SAPE  C21915948   2.606   3.633   9.243 -0.3162  0.4282  0.0462
  145SAPE  H19R15949   2.581   3.740   9.260  1.2701  0.6021  1.5765
  145SAPE  H19S15950   2.532   3.573   9.187 -0.0297 -0.5352  0.6781
  145SAPE  C22015951   2.742   3.631   9.170 -0.4049 -0.3981  0.6633
  145SAPE  H20R15952   2.749   3.703   9.086  1.7856  0.1329  1.2318
  145SAPE  H20S15953   2.776   3.528   9.148  2.5523  0.6768 -0.3275
  145SAPE  H20T15954   2.817   3.668   9.244 -1.4931  2.7282  0.3815
  145SAPE   C3315955   2.757   2.632  10.353 -0.4067 -0.0163  0.1439
  145SAPE   H3X15956   2.648   2.648  10.365 -0.2620  2.4654 -1.1360
  145SAPE   H3Y15957   2.778   2.523  10.345  0.5605  0.3065 -2.6346
  145SAPE   C3415958   2.811   2.694  10.221 -0.7441 -0.3503 -0.0497
  145SAPE   H4X15959   2.921   2.686  10.208 -1.0360 -0.1223 -3.8991
  145SAPE   H4Y15960   2.783   2.801  10.218 -2.4330 -0.7626 -2.6816
  145SAPE   C3515961   2.751   2.631  10.095 -0.1873 -0.2672 -1.1954
  145SAPE   H5X15962   2.642   2.643  10.110  0.0146 -0.2538  0.4417
  145SAPE   H5Y15963   2.773   2.522  10.085  0.1596 -0.7729  3.1992
  145SAPE   C3615964   2.793   2.710   9.973 -0.1572  0.6710 -0.5844
  145SAPE   H6X15965   2.902   2.694   9.964  0.5128  3.5087  1.2011
  145SAPE   H6Y15966   2.774   2.818   9.990  2.1933  0.5861  4.7795
  145SAPE   C3715967   2.719   2.660   9.850 -0.3605  0.4450 -0.8562
  145SAPE   H7X15968   2.715   2.750   9.785  1.1817  1.5564  0.4887
  145SAPE   H7Y15969   2.616   2.631   9.880 -0.1729  0.3306 -0.3153
  145SAPE   C3815970   2.800   2.544   9.775  0.4516 -0.3720 -0.5418
  145SAPE   H8X15971   2.805   2.463   9.851  1.5970  0.7482  0.6361
  145SAPE   H8Y15972   2.905   2.573   9.751 -0.0550  0.1531 -2.2320
  145SAPE   C3915973   2.736   2.505   9.642  0.5697 -0.5225 -0.1675
  145SAPE   H9X15974   2.628   2.529   9.644  0.5972 -0.3548 -0.5902
  145SAPE   H9Y15975   2.737   2.394   9.630  1.8602 -0.9042  2.6280
  145SAPE  C31015976   2.810   2.574   9.524 -0.0344 -0.4593 -0.6606
  145SAPE  H10X15977   2.917   2.545   9.516 -0.0769 -2.1567  3.1367
  145SAPE  H10Y15978   2.793   2.682   9.542 -1.9928 -1.1571  2.4512
  145SAPE  C31115979   2.766   2.523   9.390  0.2718  0.5904  0.4096
  145SAPE  H11X15980   2.664   2.562   9.376  0.3528  1.0532  1.0601
  145SAPE  H11Y15981   2.773   2.412   9.383 -0.4561  0.5386  0.4286
  145SAPE  C31215982   2.835   2.587   9.267  0.3706 -0.3665  0.5260
  145SAPE  H12X15983   2.945   2.583   9.284  0.8458 -0.7118 -2.2757
  145SAPE  H12Y15984   2.799   2.692   9.272  0.2896 -0.3141 -0.9144
  145SAPE  C31315985   2.780   2.529   9.134  0.2027  0.4297 -0.8372
  145SAPE  H13X15986   2.672   2.554   9.122  0.0083 -1.2676 -3.4639
  145SAPE  H13Y15987   2.781   2.418   9.137 -0.4401  0.4247 -0.5394
  145SAPE  C31415988   2.880   2.564   9.017  0.6351  0.0733  0.3127
  145SAPE  H14X15989   2.874   2.480   8.945  1.3835  0.6093 -0.3953
  145SAPE  H14Y15990   2.985   2.555   9.053  0.6994  1.7849  0.6397
  145SAPE  C31515991   2.844   2.691   8.943  0.2402 -0.2239 -0.3925
  145SAPE  H15X15992   2.916   2.772   8.969  2.4798 -1.6685 -1.7538
  145SAPE  H15Y15993   2.742   2.723   8.974  0.2174 -0.9464  0.3155
  145SAPE  C31615994   2.833   2.672   8.800  0.1722 -0.3234  0.5585
  145SAPE  H16X15995   2.929   2.634   8.761  0.0823  0.8513 -0.9001
  145SAPE  H16Y15996   2.804   2.770   8.756 -1.0338  0.6873  3.3079
  145SAPE  C31715997   2.727   2.576   8.750 -0.5030 -0.1218 -0.1650
  145SAPE  H17X15998   2.625   2.619   8.746  0.1547  1.4871 -0.5133
  145SAPE  H17Y15999   2.731   2.491   8.822  0.8265  0.8597  0.9747
  145SAPE  C31816000   2.755   2.551   8.606 -0.6109  0.0512  0.6788
  145SAPE  H18X16001   2.673   2.500   8.550 -1.2047 -0.5859  2.0841
  145SAPE  H18Y16002   2.845   2.486   8.600 -0.6745  0.0644 -2.0669
  145SAPE  H18Z16003   2.789   2.641   8.549 -1.6277 -0.5313 -0.9436
  146SAPE     N16004   3.604   6.447  11.032  0.2598  0.2946 -0.7343
  146SAPE   HN116005   3.601   6.368  11.100  1.4575  1.0470  0.2602
  146SAPE   HN216006   3.706   6.465  11.016  0.6161  1.1172  1.9387
  146SAPE   HN316007   3.564   6.529  11.081 -1.1568 -1.2646  0.8367
  146SAPE   C1216008   3.569   6.409  10.891  0.4118  0.1597  0.5150
  146SAPE  H12A16009   3.463   6.378  10.882  0.6679 -0.2711 -1.1608
  146SAPE  H12B16010   3.630   6.322  10.861  1.1293  0.1358  1.9279
  146SAPE   C1116011   3.584   6.523  10.780  0.6551 -0.2336 -0.4381
  146SAPE  H11A16012   3.524   6.496  10.691 -1.5555 -1.7092  1.3748
  146SAPE  H11B16013   3.682   6.538  10.731  0.6685 -0.7862 -0.5821
  146SAPE     P16014   3.640   6.771  10.875 -0.1181 -0.1706  0.0750
  146SAPE   O1316015   3.563   6.896  10.900  0.0029 -0.3043  0.3662
  146SAPE   O1416016   3.714   6.721  10.990 -0.1991  0.8548 -0.1401
  146SAPE   O1216017   3.536   6.656  10.829 -0.1009  0.3478  0.3256
  146SAPE   O1116018   3.743   6.782  10.753 -0.1515  0.4047  0.1847
  146SAPE    C116019   3.720   6.875  10.646 -0.0896  0.4048  0.2934
  146SAPE    HA16020   3.637   6.946  10.668  0.4360  0.8253  0.9429
  146SAPE    HB16021   3.806   6.946  10.641  2.0198 -2.0304 -0.1332
  146SAPE    C216022   3.707   6.804  10.509  0.0106  0.7002 -0.6621
  146SAPE    HS16023   3.713   6.877  10.425  1.8957 -0.4082 -1.5543
  146SAPE   O2116024   3.593   6.721  10.489 -0.4264 -0.4708 -0.5636
  146SAPE   C2116025   3.478   6.783  10.491  0.1063 -0.3454  0.2083
  146SAPE   O2216026   3.462   6.900  10.522  0.2979  0.6437  0.2993
  146SAPE   C2216027   3.366   6.691  10.441 -0.4504 -0.0775 -0.1813
  146SAPE   H2R16028   3.402   6.603  10.383  0.1758  0.2623 -0.3168
  146SAPE   H2S16029   3.326   6.641  10.531  0.5142  2.2778  1.6712
  146SAPE    C316030   3.830   6.716  10.482  0.2357 -0.3061  0.1413
  146SAPE    HX16031   3.827   6.684  10.376  0.9910 -1.2599  0.3886
  146SAPE    HY16032   3.812   6.625  10.545 -2.8040  0.2993  0.3022
  146SAPE   O3116033   3.959   6.789  10.510  0.4777  0.4129 -0.9572
  146SAPE   C3116034   4.025   6.834  10.405  0.2374  0.1281 -0.4318
  146SAPE   O3216035   3.989   6.818  10.285  0.3032 -0.3648 -0.3819
  146SAPE   C3216036   4.145   6.925  10.436 -0.2246 -0.0255  0.1364
  146SAPE   H2X16037   4.124   6.970  10.536  1.5407  0.0015  0.5217
  146SAPE   H2Y16038   4.156   7.008  10.363  3.1229 -0.6358 -0.1841
  146SAPE   C2316039   3.248   6.761  10.368 -0.1059  0.0781  0.2588
  146SAPE   H3R16040   3.220   6.848  10.431  2.0652  0.4794  0.7396
  146SAPE   H3S16041   3.167   6.685  10.365  1.4449 -1.6853  0.9700
  146SAPE   C2416042   3.273   6.810  10.230  0.1127 -0.4786  0.8606
  146SAPE   H4R16043   3.305   6.721  10.172  1.9757 -0.8805  2.4045
  146SAPE   H4S16044   3.358   6.880  10.218 -0.8528  0.8810  1.6474
  146SAPE   C2516045   3.145   6.866  10.169  0.5013 -0.1792  0.1997
  146SAPE   H5R16046   3.071   6.899  10.244 -1.5405 -1.1421 -1.2663
  146SAPE   C2616047   3.124   6.892  10.038  0.4310  0.7080 -0.2571
  146SAPE   H6R16048   3.021   6.920  10.012  0.2591  0.6578  0.3626
  146SAPE   C2716049   3.218   6.881   9.923 -0.1677 -0.6329 -0.0397
  146SAPE   H7R16050   3.170   6.814   9.849 -0.5589  0.2102 -0.5627
  146SAPE   H7S16051   3.300   6.811   9.953 -0.9828 -0.6877  2.2685
  146SAPE   C2816052   3.279   7.007   9.859 -0.6932  0.4471  0.0489
  146SAPE   H8R16053   3.268   7.096   9.922 -0.8906  0.6454 -0.2627
  146SAPE   C2916054   3.315   7.018   9.733 -1.1558  0.2814  0.2140
  146SAPE   H9R16055   3.360   7.117   9.715  0.4955 -0.0777  2.0856
  146SAPE  C21016056   3.305   6.916   9.619  0.0625 -0.8821 -0.5174
  146SAPE  H10R16057   3.260   6.819   9.646  0.3103 -0.8470  0.0287
  146SAPE  H10S16058   3.410   6.887   9.598  0.5881 -0.0786  0.8685
  146SAPE  C21116059   3.233   6.989   9.507 -0.2126  0.1221 -0.3412
  146SAPE  H11R16060   3.196   7.090   9.532 -0.5563  0.0439 -0.5198
  146SAPE  C21216061   3.217   6.937   9.386  1.3307 -0.3285 -0.2035
  146SAPE  H12R16062   3.162   6.999   9.314 -1.9425 -0.8227  1.6941
  146SAPE  C21316063   3.278   6.807   9.342  0.7798  0.2020 -0.3197
  146SAPE  H13R16064   3.200   6.778   9.268  0.7217  1.5857 -0.8381
  146SAPE  H13S16065   3.277   6.728   9.420  0.9010  1.3390  0.8820
  146SAPE  C21416066   3.413   6.831   9.286 -0.8002 -0.0595 -0.5904
  146SAPE  H14R16067   3.498   6.822   9.355 -0.2051  2.6298 -0.8880
  146SAPE  C21516068   3.439   6.869   9.158  0.2302 -0.0316  0.4206
  146SAPE  H15R16069   3.542   6.895   9.127  0.2117 -0.4033  0.0399
  146SAPE  C21616070   3.341   6.885   9.042 -0.0892 -0.8098  0.4148
  146SAPE  H16R16071   3.254   6.822   9.071 -1.9143  2.3311  2.2781
  146SAPE  H16S16072   3.386   6.843   8.949  1.2164  1.0781  0.1375
  146SAPE  C21716073   3.296   7.029   9.007  0.2735  0.6593  0.6718
  146SAPE  H17R16074   3.320   7.103   9.086  0.2748  1.2546  0.1213
  146SAPE  H17S16075   3.186   7.027   8.992  0.2574  1.5659  0.5879
  146SAPE  C21816076   3.358   7.087   8.878  0.5676  0.3110 -0.0218
  146SAPE  H18R16077   3.319   7.036   8.787  2.4795 -0.5743 -0.3782
  146SAPE  H18S16078   3.468   7.071   8.877  0.5732  0.3693 -0.3762
  146SAPE  C21916079   3.328   7.239   8.878 -0.6073 -0.5009  0.1612
  146SAPE  H19R16080   3.393   7.293   8.806 -1.6955  0.1803 -0.3441
  146SAPE  H19S16081   3.369   7.273   8.975 -2.1652  0.3326  0.5730
  146SAPE  C22016082   3.178   7.280   8.867 -0.0152  0.2336  0.2254
  146SAPE  H20R16083   3.117   7.242   8.951 -0.0412 -2.3460 -0.8731
  146SAPE  H20S16084   3.125   7.228   8.784 -1.0349  0.5217  0.6784
  146SAPE  H20T16085   3.166   7.390   8.854  0.9205  0.3183  0.0500
  146SAPE   C3316086   4.289   6.856  10.437  0.2421  0.4911 -0.0938
  146SAPE   H3X16087   4.293   6.764  10.500  0.7073  0.5544 -0.0273
  146SAPE   H3Y16088   4.364   6.933  10.464  0.4262  0.7014 -1.1635
  146SAPE   C3416089   4.339   6.815  10.301 -0.0339 -0.1063 -0.3012
  146SAPE   H4X16090   4.337   6.902  10.232 -0.4132 -0.8904 -1.2953
  146SAPE   H4Y16091   4.266   6.743  10.260  0.0611  0.2964 -1.2081
  146SAPE   C3516092   4.476   6.739  10.301  0.2728 -0.3055 -0.6502
  146SAPE   H5X16093   4.452   6.639  10.342 -1.1469  0.3335  0.1568
  146SAPE   H5Y16094   4.549   6.798  10.360 -0.5226 -1.7200  1.8898
  146SAPE   C3616095   4.529   6.724  10.153 -0.0111 -0.0378 -1.0737
  146SAPE   H6X16096   4.447   6.686  10.090 -0.4365 -0.3760 -0.3319
  146SAPE   H6Y16097   4.615   6.653  10.150  0.2073  0.1619 -0.1092
  146SAPE   C3716098   4.580   6.855  10.098 -0.1300 -0.1459 -0.4823
  146SAPE   H7X16099   4.654   6.894  10.172 -0.4488 -0.1384 -0.1675
  146SAPE   H7Y16100   4.500   6.930  10.082  1.0675  0.9980 -1.3766
  146SAPE   C3816101   4.651   6.837   9.962  0.4441  0.0921  0.0117
  146SAPE   H8X16102   4.565   6.818   9.895  0.1010  1.1151  0.1380
  146SAPE   H8Y16103   4.714   6.746   9.959  1.1842  0.5205  1.5458
  146SAPE   C3916104   4.721   6.966   9.917 -0.7109  0.2605  0.5290
  146SAPE   H9X16105   4.812   6.977   9.979 -1.3336 -0.4472  1.5859
  146SAPE   H9Y16106   4.663   7.059   9.934 -0.2345  0.6610  0.0056
  146SAPE  C31016107   4.781   6.966   9.769 -0.4640 -0.1971  0.6801
  146SAPE  H10X16108   4.850   6.884   9.741 -0.9946 -0.4690  0.1315
  146SAPE  H10Y16109   4.843   7.058   9.766 -1.6550  0.7334  2.5937
  146SAPE  C31116110   4.678   6.981   9.656  0.5304  0.0828  0.3423
  146SAPE  H11X16111   4.610   7.067   9.672 -0.9298 -0.6305 -1.6149
  146SAPE  H11Y16112   4.614   6.890   9.650 -2.0567  1.8540 -0.8953
  146SAPE  C31216113   4.747   7.004   9.521 -0.6679 -1.1325  0.0095
  146SAPE  H12X16114   4.839   6.942   9.516  0.4160 -0.0116  3.4518
  146SAPE  H12Y16115   4.791   7.106   9.520 -0.5525 -1.1813  0.0915
  146SAPE  C31316116   4.660   6.988   9.397  0.4677  0.9721  0.4091
  146SAPE  H13X16117   4.579   7.063   9.390 -2.1407 -1.7152 -0.3710
  146SAPE  H13Y16118   4.608   6.892   9.417  1.2112  0.4676 -0.0152
  146SAPE  C31416119   4.734   6.976   9.268  0.3046  0.1914  0.1786
  146SAPE  H14X16120   4.809   6.896   9.285  0.7104  0.0346 -2.0851
  146SAPE  H14Y16121   4.781   7.075   9.252 -1.2311  0.8082 -0.6868
  146SAPE  C31516122   4.648   6.962   9.137  0.8290  0.2520  0.5029
  146SAPE  H15X16123   4.642   7.056   9.079  1.4275  1.1179  1.7958
  146SAPE  H15Y16124   4.553   6.922   9.179 -0.0123  0.8025 -0.8030
  146SAPE  C31616125   4.690   6.843   9.045 -0.2199 -0.0179  0.2946
  146SAPE  H16X16126   4.737   6.769   9.114  0.9423  0.6833  0.2954
  146SAPE  H16Y16127   4.770   6.876   8.976  0.1246  1.5303  1.3714
  146SAPE  C31716128   4.571   6.776   8.976  0.4628  1.0140  0.6290
  146SAPE  H17X16129   4.522   6.851   8.911  2.3551  0.0222 -2.1409
  146SAPE  H17Y16130   4.494   6.743   9.049 -0.1236 -0.9984 -0.8069
  146SAPE  C31816131   4.617   6.656   8.895 -0.5154 -0.0818  0.4132
  146SAPE  H18X16132   4.543   6.627   8.818 -0.5669  1.5597 -0.1911
  146SAPE  H18Y16133   4.651   6.578   8.967 -3.3779 -1.0050  0.9260
  146SAPE  H18Z16134   4.706   6.690   8.839 -1.5963  3.4629  0.5688
  147SAPE     N16135   1.026   5.120   6.082  0.6394 -0.1326 -0.2181
  147SAPE   HN116136   1.031   5.191   6.006 -0.1449  2.1556  1.7304
  147SAPE   HN216137   0.977   5.037   6.044 -0.4048  0.0823  0.6043
  147SAPE   HN316138   0.973   5.154   6.165 -0.1466 -1.2109 -0.2660
  147SAPE   C1216139   1.165   5.074   6.118 -0.1426 -0.5296  0.4748
  147SAPE  H12A16140   1.219   5.070   6.021 -1.2283 -1.6091 -0.1086
  147SAPE  H12B16141   1.154   4.972   6.161  1.0219 -0.3045  1.3694
  147SAPE   C1116142   1.252   5.183   6.185  0.0173  1.1282  0.0105
  147SAPE  H11A16143   1.258   5.275   6.122 -2.2627  0.6720 -0.9826
  147SAPE  H11B16144   1.357   5.149   6.193  0.2082  1.5231 -0.6726
  147SAPE     P16145   1.224   5.138   6.441  0.1852 -0.0751 -0.2351
  147SAPE   O1316146   1.151   5.208   6.548 -0.1590 -0.3034 -0.6613
  147SAPE   O1416147   1.197   4.999   6.422 -0.3700  0.3329 -0.0441
  147SAPE   O1216148   1.196   5.222   6.309  0.0475  0.2641  0.2367
  147SAPE   O1116149   1.383   5.166   6.464  0.0691 -0.4197  0.5143
  147SAPE    C116150   1.423   5.307   6.477  0.3293  0.4073  0.6012
  147SAPE    HA16151   1.505   5.330   6.407  0.2047  2.0300  0.9484
  147SAPE    HB16152   1.344   5.382   6.456  0.0954  0.0119  0.0622
  147SAPE    C216153   1.475   5.340   6.618  0.0238  0.3919 -0.0112
  147SAPE    HS16154   1.544   5.258   6.649 -2.8689 -1.7179  1.3482
  147SAPE   O2116155   1.365   5.350   6.705 -0.9579 -0.2857 -0.2535
  147SAPE   C2116156   1.342   5.255   6.800  0.2640 -0.2232  0.0866
  147SAPE   O2216157   1.405   5.150   6.806  0.2403 -0.0793  0.0443
  147SAPE   C2216158   1.227   5.297   6.888 -0.2763  0.3092 -0.2050
  147SAPE   H2R16159   1.202   5.404   6.870 -2.4846 -0.0340  0.5338
  147SAPE   H2S16160   1.140   5.244   6.845 -1.4570  2.9641 -1.3246
  147SAPE    C316161   1.550   5.474   6.618  0.9204 -0.4514 -1.0623
  147SAPE    HX16162   1.486   5.550   6.569  1.2209  0.1156 -0.5748
  147SAPE    HY16163   1.651   5.467   6.571  1.5887 -1.6144  0.4434
  147SAPE   O3116164   1.584   5.509   6.753  1.2153  0.4463 -0.7877
  147SAPE   C3116165   1.507   5.603   6.811  0.6226  0.1717  0.2567
  147SAPE   O3216166   1.412   5.664   6.759 -0.1036 -0.2664 -0.0452
  147SAPE   C3216167   1.544   5.616   6.960 -0.2326 -0.0640 -0.0024
  147SAPE   H2X16168   1.648   5.582   6.979 -0.6324  0.1211  2.9747
  147SAPE   H2Y16169   1.475   5.554   7.021  0.1034  1.0405  1.5649
  147SAPE   C2316170   1.251   5.270   7.042 -0.6441 -0.2272  0.1287
  147SAPE   H3R16171   1.318   5.346   7.090 -1.7377 -0.1342  1.5695
  147SAPE   H3S16172   1.296   5.169   7.051 -0.0442 -0.3454 -2.9240
  147SAPE   C2416173   1.118   5.275   7.121 -0.0900 -0.1441 -0.7946
  147SAPE   H4R16174   1.148   5.277   7.228  0.5058  1.0040 -0.9697
  147SAPE   H4S16175   1.062   5.179   7.115  0.9283 -1.0231  2.1723
  147SAPE   C2516176   1.042   5.400   7.084  0.7893 -0.2042 -0.0156
  147SAPE   H5R16177   0.994   5.400   6.985  0.6026  1.0591  0.0564
  147SAPE   C2616178   1.032   5.524   7.143 -0.1134 -0.1412 -0.1702
  147SAPE   H6R16179   0.976   5.609   7.101  0.6084  0.8351  0.7883
  147SAPE   C2716180   1.101   5.571   7.276  0.1391  0.2742  0.4645
  147SAPE   H7R16181   1.149   5.483   7.325  2.2721  0.1893 -1.6393
  147SAPE   H7S16182   1.020   5.603   7.345 -1.0124  2.7645 -1.8757
  147SAPE   C2816183   1.209   5.681   7.270  0.0708 -0.3025 -0.8568
  147SAPE   H8R16184   1.222   5.735   7.175  0.7210  1.1195  0.0062
  147SAPE   C2916185   1.285   5.725   7.371  0.1463 -0.1665 -0.2343
  147SAPE   H9R16186   1.361   5.802   7.353  0.4471 -0.2403  0.6663
  147SAPE  C21016187   1.279   5.676   7.509 -1.1638  0.5292 -0.4570
  147SAPE  H10R16188   1.308   5.569   7.507 -0.2553  0.7594 -2.7586
  147SAPE  H10S16189   1.174   5.656   7.541 -1.0998 -0.1751 -0.6684
  147SAPE  C21116190   1.366   5.749   7.606  0.2423  0.3603 -0.2376
  147SAPE  H11R16191   1.381   5.853   7.574  1.0082 -0.1854 -1.7798
  147SAPE  C21216192   1.420   5.705   7.718 -0.2586 -0.3383  0.5116
  147SAPE  H12R16193   1.490   5.772   7.771  0.2463 -0.1539 -0.3786
  147SAPE  C21316194   1.401   5.562   7.763 -0.5630  0.3241  0.3826
  147SAPE  H13R16195   1.365   5.489   7.688 -1.1797  0.6774  0.3262
  147SAPE  H13S16196   1.328   5.557   7.847 -1.0230 -3.2705 -0.0828
  147SAPE  C21416197   1.531   5.505   7.821  0.4730  0.8089  0.0826
  147SAPE  H14R16198   1.598   5.468   7.742 -0.7654 -0.2806 -0.4859
  147SAPE  C21516199   1.565   5.484   7.951 -0.3674  0.3724 -0.4945
  147SAPE  H15R16200   1.665   5.452   7.983 -0.5372  0.1998 -0.1386
  147SAPE  C21616201   1.467   5.521   8.071  0.3247 -0.4184 -0.0833
  147SAPE  H16R16202   1.359   5.516   8.048  0.4913 -3.4945 -0.5378
  147SAPE  H16S16203   1.499   5.621   8.110  3.2908 -0.9207 -0.9746
  147SAPE  C21716204   1.474   5.430   8.198  0.0898 -0.6913 -0.2265
  147SAPE  H17R16205   1.461   5.323   8.169  1.9309 -0.0837 -3.9308
  147SAPE  H17S16206   1.396   5.458   8.272  0.8264 -2.1504  1.1704
  147SAPE  C21816207   1.610   5.444   8.278 -0.0350  0.0325  0.8654
  147SAPE  H18R16208   1.628   5.546   8.316 -0.6513  0.4956 -0.0554
  147SAPE  H18S16209   1.696   5.417   8.213  0.2665  1.3283  0.7070
  147SAPE  C21916210   1.609   5.344   8.394 -0.9683 -0.1473 -0.5381
  147SAPE  H19R16211   1.600   5.241   8.355  1.9958 -0.0190 -1.8684
  147SAPE  H19S16212   1.527   5.381   8.459 -2.3688 -0.5815 -2.0226
  147SAPE  C22016213   1.743   5.348   8.473 -0.1645 -0.0975  0.0773
  147SAPE  H20R16214   1.773   5.454   8.487  2.3529 -1.0567  3.0538
  147SAPE  H20S16215   1.826   5.306   8.413  0.0157 -0.6558  0.7117
  147SAPE  H20T16216   1.737   5.287   8.566  0.2400 -1.7142 -0.9217
  147SAPE   C3316217   1.522   5.760   7.017  0.1826  0.1195 -0.0523
  147SAPE   H3X16218   1.518   5.744   7.127 -1.9711  2.2515  0.2715
  147SAPE   H3Y16219   1.424   5.794   6.977 -0.3570 -0.6452  0.5752
  147SAPE   C3416220   1.634   5.851   6.979 -0.2209 -0.6333  0.0337
  147SAPE   H4X16221   1.624   5.866   6.869  0.7731  2.1336  0.2296
  147SAPE   H4Y16222   1.732   5.802   6.999  0.0099 -0.2754 -0.1887
  147SAPE   C3516223   1.623   5.981   7.065  0.1271 -0.2696  0.1473
  147SAPE   H5X16224   1.538   6.041   7.028 -0.0728 -1.6582 -1.8230
  147SAPE   H5Y16225   1.714   6.038   7.035  0.0218 -0.4970 -0.6386
  147SAPE   C3616226   1.632   5.963   7.213  0.5180  0.2292  0.0126
  147SAPE   H6X16227   1.532   5.936   7.253  0.2175  3.0776  1.4785
  147SAPE   H6Y16228   1.659   6.060   7.260  0.3133  0.3799 -0.1808
  147SAPE   C3716229   1.744   5.862   7.257 -0.1171 -1.1882  0.9444
  147SAPE   H7X16230   1.838   5.897   7.209  0.5468 -2.3825  1.3167
  147SAPE   H7Y16231   1.726   5.764   7.208 -2.5537  0.9463 -2.9850
  147SAPE   C3816232   1.754   5.848   7.411  1.0329  0.3058 -0.4560
  147SAPE   H8X16233   1.658   5.816   7.458  1.7031  0.4075  1.0339
  147SAPE   H8Y16234   1.790   5.944   7.455 -1.0289  1.0719 -0.3183
  147SAPE   C3916235   1.847   5.736   7.452 -0.4217 -0.5243  0.1291
  147SAPE   H9X16236   1.947   5.757   7.407 -0.6799  2.0150  0.5537
  147SAPE   H9Y16237   1.805   5.638   7.423 -0.7180  0.0745 -1.5596
  147SAPE  C31016238   1.867   5.734   7.606  0.0795  0.2323  0.1197
  147SAPE  H10X16239   1.775   5.759   7.663  0.0433 -2.2074  1.2464
  147SAPE  H10Y16240   1.948   5.808   7.623 -0.0724  0.0136  1.9217
  147SAPE  C31116241   1.912   5.604   7.669 -0.5177  0.5259 -0.4399
  147SAPE  H11X16242   2.010   5.566   7.634 -0.9724 -2.4073  1.1832
  147SAPE  H11Y16243   1.849   5.518   7.637  2.4960 -1.8995 -0.2860
  147SAPE  C31216244   1.926   5.612   7.821  0.4512 -0.1705  0.0518
  147SAPE  H12X16245   1.826   5.645   7.854  0.0354 -0.3161 -1.0188
  147SAPE  H12Y16246   2.003   5.688   7.849  2.2631 -2.7414  2.5259
  147SAPE  C31316247   1.963   5.490   7.894  0.3296  0.1394  0.1010
  147SAPE  H13X16248   2.061   5.450   7.858  0.5824  0.4911  0.3859
  147SAPE  H13Y16249   1.885   5.413   7.876 -0.0244  0.5597 -0.1721
  147SAPE  C31416250   1.985   5.519   8.047 -0.6110  0.4096 -0.4356
  147SAPE  H14X16251   1.893   5.531   8.109 -0.2540 -1.3017  0.4833
  147SAPE  H14Y16252   2.043   5.612   8.064  1.3730 -0.7832 -0.3205
  147SAPE  C31516253   2.053   5.394   8.113 -0.2865 -0.3824  0.7454
  147SAPE  H15X16254   2.158   5.378   8.079  0.4953 -0.4020  2.9867
  147SAPE  H15Y16255   1.999   5.300   8.089  1.7819 -1.5289  0.2722
  147SAPE  C31616256   2.063   5.399   8.267 -0.2763  0.1139  0.3646
  147SAPE  H16X16257   1.959   5.393   8.306 -1.6184 -1.3789 -3.0666
  147SAPE  H16Y16258   2.117   5.491   8.300 -0.5544 -0.0428  1.2847
  147SAPE  C31716259   2.135   5.279   8.322 -0.4207  0.4076  0.3407
  147SAPE  H17X16260   2.244   5.296   8.308  0.1532 -3.3295 -1.1796
  147SAPE  H17Y16261   2.116   5.188   8.260 -1.2508  1.6223 -1.2448
  147SAPE  C31816262   2.118   5.257   8.476 -0.6872  0.0106 -0.2402
  147SAPE  H18X16263   2.154   5.354   8.517  1.3564 -1.7178  2.4536
  147SAPE  H18Y16264   2.181   5.181   8.528  2.4493  0.2680 -3.3084
  147SAPE  H18Z16265   2.014   5.237   8.509 -1.3242  0.5099 -1.8845
  148SAPE     N16266   5.291   1.959   6.460 -0.4406 -0.2765  0.3014
  148SAPE   HN116267   5.287   1.862   6.422 -0.8669  0.8171 -2.7625
  148SAPE   HN216268   5.191   1.987   6.459 -0.1814  1.0445  2.9273
  148SAPE   HN316269   5.336   2.018   6.387 -1.2056  0.3015  0.2870
  148SAPE   C1216270   5.350   1.986   6.600  0.1958  0.7467  0.8335
  148SAPE  H12A16271   5.351   2.097   6.607 -2.0717  1.0834 -2.0979
  148SAPE  H12B16272   5.452   1.943   6.600 -0.7602 -2.0529 -2.8791
  148SAPE   C1116273   5.267   1.913   6.706 -0.4829 -0.0200 -0.0731
  148SAPE  H11A16274   5.318   1.939   6.801 -0.4561 -0.2211 -0.0324
  148SAPE  H11B16275   5.277   1.805   6.683 -0.3399  0.0597 -0.3948
  148SAPE     P16276   5.033   1.897   6.819 -0.5017  0.2136 -0.3982
  148SAPE   O1316277   4.907   1.878   6.741 -0.0960 -0.5145 -0.1992
  148SAPE   O1416278   5.099   1.781   6.880 -0.5992  0.5939 -0.2039
  148SAPE   O1216279   5.131   1.944   6.705 -0.2376  0.5021 -0.2284
  148SAPE   O1116280   5.028   2.016   6.924  0.0699  0.2375  0.0461
  148SAPE    C116281   5.051   2.154   6.899 -0.0914  0.6928  0.2102
  148SAPE    HA16282   5.094   2.175   6.799  1.5644  2.3397  1.1999
  148SAPE    HB16283   4.955   2.208   6.910  0.2241  0.9273  2.2311
  148SAPE    C216284   5.164   2.213   6.992 -0.3763  0.3127  0.0995
  148SAPE    HS16285   5.243   2.135   7.005  0.0048  0.6895  0.0354
  148SAPE   O2116286   5.104   2.245   7.122 -0.1304 -0.1626  0.3739
  148SAPE   C2116287   5.179   2.256   7.233 -0.2300 -0.1375  0.3357
  148SAPE   O2216288   5.300   2.248   7.241  0.8213  0.0097 -0.1230
  148SAPE   C2216289   5.095   2.291   7.352 -0.2560  0.2404 -0.4306
  148SAPE   H2R16290   5.046   2.388   7.329 -3.6167 -0.6336  2.2040
  148SAPE   H2S16291   5.008   2.223   7.360 -0.3065 -0.0244 -2.6755
  148SAPE    C316292   5.228   2.339   6.934  0.3247 -0.2722 -0.7336
  148SAPE    HX16293   5.143   2.407   6.916  0.2435 -0.1436  0.0825
  148SAPE    HY16294   5.271   2.337   6.832 -0.3233  1.0749 -1.0544
  148SAPE   O3116295   5.322   2.420   7.019  0.4319  0.2743 -0.3885
  148SAPE   C3116296   5.449   2.383   7.021  0.0812  0.2309 -0.3917
  148SAPE   O3216297   5.493   2.281   6.972 -0.5542 -0.4462  0.2525
  148SAPE   C3216298   5.532   2.489   7.073 -0.1222 -0.0331 -0.5210
  148SAPE   H2X16299   5.477   2.585   7.070  1.5512  1.1275  2.3507
  148SAPE   H2Y16300   5.630   2.495   7.021  2.6819 -1.5359  3.9866
  148SAPE   C2316301   5.164   2.301   7.492 -0.7927 -0.2711  0.5237
  148SAPE   H3R16302   5.265   2.346   7.484  0.2916 -2.2534  2.1027
  148SAPE   H3S16303   5.187   2.199   7.530  1.1685 -0.6951 -1.5940
  148SAPE   C2416304   5.084   2.384   7.596 -1.4417  0.0279 -0.1214
  148SAPE   H4R16305   4.988   2.336   7.627 -1.1233  1.4081  3.5672
  148SAPE   H4S16306   5.071   2.490   7.564 -1.5542  0.1602  0.3538
  148SAPE   C2516307   5.170   2.389   7.719 -0.1963  1.3990  0.0929
  148SAPE   H5R16308   5.278   2.403   7.701  0.3632 -1.9012  0.2290
  148SAPE   C2616309   5.131   2.343   7.836 -0.1875 -0.2663 -0.1691
  148SAPE   H6R16310   5.203   2.357   7.918 -1.7564  0.2723  1.1755
  148SAPE   C2716311   4.994   2.301   7.886  0.1391  0.0524 -0.3831
  148SAPE   H7R16312   4.992   2.208   7.948 -1.7293 -0.1136 -0.6490
  148SAPE   H7S16313   4.923   2.278   7.804 -0.4085 -0.3007  0.1729
  148SAPE   C2816314   4.931   2.409   7.978 -0.0688  0.0848 -0.5106
  148SAPE   H8R16315   4.863   2.472   7.919  4.3702  2.9577 -3.0854
  148SAPE   C2916316   4.949   2.421   8.116  0.6921 -0.0631 -0.1636
  148SAPE   H9R16317   4.897   2.497   8.175  1.3226 -0.5648  1.0896
  148SAPE  C21016318   5.029   2.328   8.194 -0.3275 -0.0031  0.0914
  148SAPE  H10R16319   5.098   2.388   8.257 -2.0121  0.0113  1.9940
  148SAPE  H10S16320   5.093   2.260   8.133 -1.3040 -0.2450 -0.6958
  148SAPE  C21116321   4.936   2.238   8.277  0.0323  0.0843 -0.4224
  148SAPE  H11R16322   4.870   2.179   8.213  1.4143  0.7316 -2.5341
  148SAPE  C21216323   4.944   2.212   8.407  0.1643  0.0043  0.2165
  148SAPE  H12R16324   4.876   2.141   8.456 -0.0737  0.0256 -0.0760
  148SAPE  C21316325   5.039   2.290   8.501 -0.6727 -0.0975 -0.2960
  148SAPE  H13R16326   4.977   2.333   8.583 -1.0140 -1.8950  0.4193
  148SAPE  H13S16327   5.098   2.371   8.454  0.3607 -0.4354  0.3991
  148SAPE  C21416328   5.147   2.207   8.566 -0.3318 -0.6819  0.0367
  148SAPE  H14R16329   5.238   2.200   8.505 -0.2772  0.0597  0.0208
  148SAPE  C21516330   5.154   2.167   8.692  0.2185  0.4033 -0.0599
  148SAPE  H15R16331   5.241   2.106   8.719 -0.0021 -0.3464 -0.9675
  148SAPE  C21616332   5.049   2.178   8.798  0.1857 -0.8655  0.1731
  148SAPE  H16R16333   5.003   2.079   8.815 -0.9844 -0.3352  0.2100
  148SAPE  H16S16334   4.969   2.250   8.772  0.6211 -0.4295  0.0157
  148SAPE  C21716335   5.091   2.234   8.936 -0.4595 -0.5613 -0.3299
  148SAPE  H17R16336   5.169   2.311   8.916 -0.5651 -0.8330 -1.9847
  148SAPE  H17S16337   5.149   2.155   8.989 -1.1929  0.4320  2.0510
  148SAPE  C21816338   4.974   2.282   9.024  0.1240  0.0452  0.2434
  148SAPE  H18R16339   4.903   2.197   9.027 -0.2621  0.3801  0.6531
  148SAPE  H18S16340   4.930   2.369   8.971  1.4308 -0.2406 -1.3992
  148SAPE  C21916341   5.012   2.333   9.159 -0.3139 -0.3469 -0.2169
  148SAPE  H19R16342   5.108   2.388   9.158 -0.1394 -0.6512 -0.6180
  148SAPE  H19S16343   5.049   2.248   9.220  0.5197 -0.1150 -0.3870
  148SAPE  C22016344   4.895   2.414   9.223 -0.2353  0.1962 -0.4212
  148SAPE  H20R16345   4.928   2.449   9.323  0.1537  2.1774 -1.2039
  148SAPE  H20S16346   4.801   2.355   9.231 -0.2611  0.4140  0.9881
  148SAPE  H20T16347   4.872   2.503   9.161  0.5692  0.5475 -0.2333
  148SAPE   C3316348   5.576   2.453   7.221 -0.2471 -0.2057 -0.1155
  148SAPE   H3X16349   5.640   2.362   7.224  1.3298  0.6499 -3.2320
  148SAPE   H3Y16350   5.485   2.426   7.278 -0.4747 -0.0490 -0.4035
  148SAPE   C3416351   5.646   2.567   7.290  0.3356  0.0400 -0.5118
  148SAPE   H4X16352   5.583   2.657   7.272  0.7594  0.9627  2.1874
  148SAPE   H4Y16353   5.743   2.584   7.237  0.7319  0.1726  0.2444
  148SAPE   C3516354   5.672   2.533   7.437  0.4765  0.0024 -0.1457
  148SAPE   H5X16355   5.757   2.596   7.470  1.4386 -1.7679  0.9215
  148SAPE   H5Y16356   5.707   2.428   7.442  0.6248 -0.0800 -2.1910
  148SAPE   C3616357   5.559   2.547   7.542 -0.4893  0.5969  0.0678
  148SAPE   H6X16358   5.476   2.489   7.496  0.7401 -0.5718 -0.7313
  148SAPE   H6Y16359   5.531   2.653   7.563  2.3618  1.3222  0.6520
  148SAPE   C3716360   5.612   2.485   7.676  0.1772  0.0605 -0.1251
  148SAPE   H7X16361   5.720   2.509   7.667 -0.0925  1.5459  0.2399
  148SAPE   H7Y16362   5.611   2.375   7.688  0.8110  0.2719  2.5214
  148SAPE   C3816363   5.549   2.560   7.803 -0.0041  0.4377  0.7309
  148SAPE   H8X16364   5.440   2.553   7.783  0.2174 -1.2263 -0.0844
  148SAPE   H8Y16365   5.579   2.667   7.806  2.8180 -0.2897  1.6925
  148SAPE   C3916366   5.581   2.499   7.941  0.2391 -0.1435  1.2971
  148SAPE   H9X16367   5.692   2.505   7.944  0.2522  2.9376 -0.7030
  148SAPE   H9Y16368   5.543   2.395   7.939  1.4068 -0.6010 -1.3974
  148SAPE  C31016369   5.529   2.582   8.055 -0.6794  0.6556 -0.1712
  148SAPE  H10X16370   5.418   2.579   8.069 -0.9995  1.8906 -2.1156
  148SAPE  H10Y16371   5.560   2.688   8.059  0.8237  0.2206  2.9281
  148SAPE  C31116372   5.603   2.527   8.184  0.0150  0.7270  0.5532
  148SAPE  H11X16373   5.573   2.588   8.272  1.4380  0.6869  1.1060
  148SAPE  H11Y16374   5.710   2.553   8.168  0.5664 -0.9618  1.2507
  148SAPE  C31216375   5.610   2.384   8.224 -0.2242  0.5912  0.0434
  148SAPE  H12X16376   5.643   2.318   8.140  2.1189 -0.6529  1.8279
  148SAPE  H12Y16377   5.505   2.356   8.248 -0.4981 -1.1253 -2.6776
  148SAPE  C31316378   5.708   2.363   8.343 -0.0205 -0.5751  0.2388
  148SAPE  H13X16379   5.669   2.431   8.422  2.8339  1.3667  0.1207
  148SAPE  H13Y16380   5.810   2.398   8.316 -0.7789  0.1528 -1.9710
  148SAPE  C31416381   5.718   2.221   8.388  0.5864 -0.2565  0.0028
  148SAPE  H14X16382   5.794   2.216   8.469  0.1686  1.9876  0.5906
  148SAPE  H14Y16383   5.739   2.153   8.303  0.1325 -1.6839  0.9935
  148SAPE  C31516384   5.584   2.166   8.439 -0.1118  0.4564  0.0963
  148SAPE  H15X16385   5.542   2.086   8.373 -0.3613 -0.6342  1.5312
  148SAPE  H15Y16386   5.521   2.256   8.431 -0.5181  0.2138  0.5640
  148SAPE  C31616387   5.592   2.112   8.583 -0.3127  0.0436 -0.2357
  148SAPE  H16X16388   5.490   2.089   8.622  1.0027 -1.6278  2.5123
  148SAPE  H16Y16389   5.633   2.192   8.649 -0.4267 -0.5652  0.5870
  148SAPE  C31716390   5.681   1.979   8.597 -0.2577 -0.2080 -0.1356
  148SAPE  H17X16391   5.786   2.013   8.594  0.6870 -2.3946  3.1435
  148SAPE  H17Y16392   5.657   1.920   8.507 -1.9596 -1.0210  0.7878
  148SAPE  C31816393   5.647   1.890   8.717 -0.5712 -0.3780 -0.0354
  148SAPE  H18X16394   5.540   1.859   8.712 -0.5962 -0.7684  2.1438
  148SAPE  H18Y16395   5.650   1.955   8.807  1.0272  2.9728 -2.2681
  148SAPE  H18Z16396   5.715   1.803   8.723  1.0627  0.8454 -0.1348
  149SAPE     N16397   3.568   3.640   6.407 -0.6037 -0.4628 -0.1444
  149SAPE   HN116398   3.622   3.719   6.367 -1.3328  0.4644  0.6476
  149SAPE   HN216399   3.479   3.676   6.447  0.2330  0.2375  1.1547
  149SAPE   HN316400   3.633   3.609   6.482 -1.9477 -0.6126  1.0140
  149SAPE   C1216401   3.540   3.514   6.317  0.4764  0.2869  0.6616
  149SAPE  H12A16402   3.623   3.442   6.326  0.5372  0.2910  0.1464
  149SAPE  H12B16403   3.543   3.543   6.210  1.8412 -3.4377 -0.4319
  149SAPE   C1116404   3.397   3.475   6.342 -0.6135  0.2629  1.2760
  149SAPE  H11A16405   3.392   3.387   6.273  2.1169  0.4701  0.7040
  149SAPE  H11B16406   3.323   3.550   6.305 -0.8916 -1.0423 -1.0165
  149SAPE     P16407   3.301   3.320   6.510  0.2486 -0.4121 -0.1439
  149SAPE   O1316408   3.181   3.302   6.423 -0.1157 -0.4680  0.2172
  149SAPE   O1416409   3.397   3.212   6.493  0.3642  0.5708 -1.0058
  149SAPE   O1216410   3.379   3.446   6.483  0.4617 -0.4595 -0.2327
  149SAPE   O1116411   3.259   3.330   6.662 -0.7251  0.4241  0.5376
  149SAPE    C116412   3.354   3.386   6.756 -0.0880 -0.2655  0.3895
  149SAPE    HA16413   3.403   3.476   6.712 -0.6901 -0.3618 -0.5259
  149SAPE    HB16414   3.306   3.432   6.845  1.4808  2.0201  0.1610
  149SAPE    C216415   3.453   3.291   6.810 -0.5202 -0.3496  0.5233
  149SAPE    HS16416   3.497   3.235   6.724 -1.4122  1.2240 -1.0391
  149SAPE   O2116417   3.378   3.198   6.889  0.3808  0.1079  0.5246
  149SAPE   C2116418   3.431   3.080   6.907 -0.4569  0.1311 -0.4870
  149SAPE   O2216419   3.542   3.047   6.863  0.2287 -0.4258 -0.5716
  149SAPE   C2216420   3.350   3.001   7.007 -0.2020  0.0486 -0.8489
  149SAPE   H2R16421   3.242   2.996   6.981 -0.2901 -3.2496 -0.2139
  149SAPE   H2S16422   3.360   2.892   6.994  0.3126  0.1028 -0.9252
  149SAPE    C316423   3.559   3.361   6.893 -0.8287 -0.6222 -0.5438
  149SAPE    HX16424   3.513   3.409   6.982  0.8808 -0.8817  0.5392
  149SAPE    HY16425   3.594   3.449   6.835 -1.2896 -0.0001  0.1061
  149SAPE   O3116426   3.662   3.273   6.929  0.9689 -0.0311  0.3219
  149SAPE   C3116427   3.771   3.276   6.853 -0.3110  0.4297 -0.3768
  149SAPE   O3216428   3.798   3.355   6.767  0.0386 -0.6256  0.2057
  149SAPE   C3216429   3.875   3.177   6.907  0.3295 -0.4839 -0.2128
  149SAPE   H2X16430   3.974   3.217   6.878 -0.4460  1.4584 -0.2883
  149SAPE   H2Y16431   3.851   3.081   6.857 -0.6611 -0.4676  0.1988
  149SAPE   C2316432   3.383   3.041   7.155  0.1877  0.1569  0.1347
  149SAPE   H3R16433   3.345   3.142   7.181  0.8526  0.2671  0.6939
  149SAPE   H3S16434   3.493   3.047   7.167  0.3703  1.1288 -1.7130
  149SAPE   C2416435   3.324   2.940   7.260 -1.2339 -0.2714 -0.2577
  149SAPE   H4R16436   3.355   2.966   7.364 -0.9199  0.1422 -0.4501
  149SAPE   H4S16437   3.362   2.838   7.242  0.6840  0.8198 -2.9562
  149SAPE   C2516438   3.172   2.938   7.254 -0.2491 -0.2762 -0.0773
  149SAPE   H5R16439   3.128   2.905   7.159  1.0356  0.2465 -0.8889
  149SAPE   C2616440   3.091   2.969   7.353 -0.3666  0.6261  0.6148
  149SAPE   H6R16441   2.985   2.940   7.353 -0.0881 -0.4306  0.9865
  149SAPE   C2716442   3.128   3.022   7.490 -0.0342 -0.1281  0.5644
  149SAPE   H7R16443   3.226   3.073   7.503 -0.4136  0.5349  0.8480
  149SAPE   H7S16444   3.153   2.933   7.552  2.9910  1.0546  1.2457
  149SAPE   C2816445   3.021   3.107   7.554 -0.3800 -0.0340 -0.3585
  149SAPE   H8R16446   2.955   3.158   7.482 -0.9099 -1.2171 -0.7344
  149SAPE   C2916447   2.989   3.122   7.686  0.2538 -0.2923  0.0191
  149SAPE   H9R16448   2.912   3.196   7.712 -0.8414 -1.7595  1.0994
  149SAPE  C21016449   3.064   3.054   7.793  0.8346 -0.4134 -0.0774
  149SAPE  H10R16450   3.119   3.120   7.864 -0.1828  0.9793 -0.5534
  149SAPE  H10S16451   3.141   2.986   7.750  0.9432 -1.1695  1.2329
  149SAPE  C21116452   2.969   2.972   7.871  0.3337  0.1157  0.2768
  149SAPE  H11R16453   2.961   2.869   7.833  1.1803  0.2527 -0.3040
  149SAPE  C21216454   2.920   3.009   7.991 -0.3804 -0.0002 -0.1190
  149SAPE  H12R16455   2.834   2.953   8.031 -0.9962 -1.4926 -3.2172
  149SAPE  C21316456   2.940   3.144   8.056  0.6632 -0.9339 -0.1953
  149SAPE  H13R16457   2.950   3.227   7.983  1.8683 -0.2299  0.7140
  149SAPE  H13S16458   3.034   3.142   8.115  0.5617 -2.0068 -0.0573
  149SAPE  C21416459   2.821   3.184   8.151 -0.2896  0.3417 -0.1118
  149SAPE  H14R16460   2.719   3.158   8.118 -0.7421 -3.2721  3.4194
  149SAPE  C21516461   2.838   3.245   8.276 -0.1770  0.3269  1.3375
  149SAPE  H15R16462   2.753   3.260   8.344 -1.1587  0.5648  0.1145
  149SAPE  C21616463   2.962   3.294   8.336  0.1405 -0.3024 -0.3188
  149SAPE  H16R16464   2.942   3.386   8.394 -2.0208  0.0299 -1.4478
  149SAPE  H16S16465   3.030   3.320   8.252 -0.3439  1.8674 -0.0940
  149SAPE  C21716466   3.020   3.177   8.413 -0.2888  0.0944  0.2752
  149SAPE  H17R16467   3.122   3.212   8.439  0.2153  0.0939 -1.5372
  149SAPE  H17S16468   3.017   3.081   8.358 -0.4980 -0.6759  1.5894
  149SAPE  C21816469   2.947   3.151   8.552 -0.1574 -0.5801  0.7172
  149SAPE  H18R16470   2.840   3.125   8.541 -0.4108  0.5509  0.3043
  149SAPE  H18S16471   2.966   3.244   8.609 -0.1050 -0.2803  0.2205
  149SAPE  C21916472   3.000   3.033   8.643 -1.0008 -0.5657  0.2455
  149SAPE  H19R16473   3.109   3.049   8.658 -0.9008  1.1361 -1.8230
  149SAPE  H19S16474   2.977   2.936   8.596  1.1002 -0.6390 -0.7684
  149SAPE  C22016475   2.948   3.048   8.788  0.6591 -0.1714  0.0108
  149SAPE  H20R16476   2.974   3.148   8.829 -0.7374  0.5782 -0.8574
  149SAPE  H20S16477   3.001   2.970   8.847  2.1013  0.9334  0.2236
  149SAPE  H20T16478   2.840   3.023   8.798  1.0053 -1.5828  0.4490
  149SAPE   C3316479   3.858   3.144   7.061 -0.2071  0.0808  0.7452
  149SAPE   H3X16480   3.753   3.120   7.088 -0.4037 -2.1175 -1.5672
  149SAPE   H3Y16481   3.910   3.224   7.118  2.0619  1.3101 -2.7040
  149SAPE   C3416482   3.933   3.013   7.093 -0.0968  0.5710 -0.4499
  149SAPE   H4X16483   4.033   3.007   7.045 -0.7742 -0.2689 -1.8249
  149SAPE   H4Y16484   3.886   2.923   7.049  2.8004 -1.7779  0.9141
  149SAPE   C3516485   3.960   3.004   7.245 -0.6957 -0.5315 -0.5687
  149SAPE   H5X16486   3.866   2.970   7.293 -0.5326  1.6415  1.4644
  149SAPE   H5Y16487   3.989   3.104   7.283 -0.4966 -2.0629  3.9101
  149SAPE   C3616488   4.071   2.902   7.280  0.5074 -0.3310 -0.2919
  149SAPE   H6X16489   4.155   2.923   7.211 -0.4895  2.5468 -0.7819
  149SAPE   H6Y16490   4.044   2.797   7.253 -1.6520  0.1705 -0.2732
  149SAPE   C3716491   4.117   2.906   7.423 -0.5979 -0.4833  0.3335
  149SAPE   H7X16492   4.035   2.955   7.479 -1.4536  1.3237 -2.3142
  149SAPE   H7Y16493   4.207   2.972   7.427 -0.2578 -0.9845  2.1574
  149SAPE   C3816494   4.163   2.763   7.477  0.7015 -0.6099  0.0062
  149SAPE   H8X16495   4.217   2.716   7.392 -0.0217 -0.5065 -0.5194
  149SAPE   H8Y16496   4.071   2.704   7.492  0.7175 -0.2608  1.7469
  149SAPE   C3916497   4.226   2.771   7.619 -0.0056  0.6047 -0.8966
  149SAPE   H9X16498   4.314   2.839   7.624 -1.3425  2.2956  1.7246
  149SAPE   H9Y16499   4.260   2.670   7.647 -0.6801  0.9385  1.3354
  149SAPE  C31016500   4.127   2.821   7.726  0.2612 -0.1536 -0.3297
  149SAPE  H10X16501   4.028   2.773   7.714  0.5399 -1.0086  0.7277
  149SAPE  H10Y16502   4.127   2.932   7.719  0.8732 -0.0235  1.2442
  149SAPE  C31116503   4.177   2.791   7.870  0.2119  0.0360 -0.2741
  149SAPE  H11X16504   4.282   2.828   7.875  0.1190  0.5294 -1.5711
  149SAPE  H11Y16505   4.179   2.681   7.886  0.1644  0.2320  1.1793
  149SAPE  C31216506   4.107   2.876   7.976  0.5208 -0.4656  0.1575
  149SAPE  H12X16507   4.000   2.847   7.978 -0.1910  1.9967  0.6016
  149SAPE  H12Y16508   4.101   2.983   7.948  2.6371  0.0150  1.3111
  149SAPE  C31316509   4.158   2.875   8.127  0.4621  0.9159 -0.5857
  149SAPE  H13X16510   4.102   2.954   8.182 -0.1263 -0.3607  0.7221
  149SAPE  H13Y16511   4.268   2.890   8.134  0.6738 -1.1210  1.6528
  149SAPE  C31416512   4.128   2.744   8.197 -0.8097 -0.5157 -0.3654
  149SAPE  H14X16513   4.157   2.646   8.154 -2.1344 -0.7570 -0.7498
  149SAPE  H14Y16514   4.017   2.742   8.197 -0.8474  0.8841 -0.6951
  149SAPE  C31516515   4.185   2.744   8.346 -0.5315 -0.2654 -0.4566
  149SAPE  H15X16516   4.295   2.751   8.355 -0.7597  1.0848  2.0116
  149SAPE  H15Y16517   4.155   2.648   8.393  1.9208  0.0646  2.0359
  149SAPE  C31616518   4.120   2.855   8.417  0.5627 -0.7828 -1.3200
  149SAPE  H16X16519   4.010   2.856   8.404  0.4959  1.8128 -1.0278
  149SAPE  H16Y16520   4.149   2.952   8.372 -1.4259 -0.2882 -1.6018
  149SAPE  C31716521   4.136   2.855   8.575  0.4931 -0.6890  0.3340
  149SAPE  H17X16522   4.245   2.864   8.595  0.9046 -1.6459 -1.2732
  149SAPE  H17Y16523   4.100   2.758   8.614  0.7645 -1.7190 -1.8400
  149SAPE  C31816524   4.064   2.972   8.634 -0.0006 -0.0624  0.0321
  149SAPE  H18X16525   4.080   2.963   8.744 -0.4291 -0.5574  0.0604
  149SAPE  H18Y16526   3.954   2.960   8.632 -0.1867 -0.2296  3.8344
  149SAPE  H18Z16527   4.090   3.071   8.590 -1.2511 -0.0278 -0.6625
  150SAPE     N16528   2.209   3.933   6.522 -0.1861  0.3848 -0.2158
  150SAPE   HN116529   2.151   3.859   6.567  0.7725  1.0388  2.2468
  150SAPE   HN216530   2.292   3.878   6.492 -1.5453 -1.9482  0.0532
  150SAPE   HN316531   2.221   4.000   6.601 -3.7334  0.9125  0.0404
  150SAPE   C1216532   2.147   4.001   6.402 -0.3674 -0.1984 -0.3191
  150SAPE  H12A16533   2.224   4.059   6.347  0.8090 -0.3434  1.1216
  150SAPE  H12B16534   2.072   4.069   6.449 -0.9001 -0.0290 -1.3817
  150SAPE   C1116535   2.075   3.896   6.313 -0.2351 -0.4338 -0.4058
  150SAPE  H11A16536   2.158   3.843   6.261  1.3117  0.0539  1.4214
  150SAPE  H11B16537   2.012   3.948   6.238 -1.7701  0.0759  1.1732
  150SAPE     P16538   1.876   3.733   6.344 -0.1660  0.1056  0.1554
  150SAPE   O1316539   1.872   3.739   6.197 -0.3038 -0.3083  0.4432
  150SAPE   O1416540   1.863   3.597   6.407 -0.6528  0.5183 -0.1291
  150SAPE   O1216541   2.005   3.801   6.399 -0.1197 -0.0992  0.1029
  150SAPE   O1116542   1.756   3.824   6.396  0.4558 -0.8385 -0.0069
  150SAPE    C116543   1.769   3.940   6.484 -0.2037  0.2891 -0.2725
  150SAPE    HA16544   1.861   3.997   6.460 -0.2369 -0.0391 -1.2300
  150SAPE    HB16545   1.687   4.005   6.445  0.1370  2.9966  3.0290
  150SAPE    C216546   1.730   3.902   6.628 -0.4917 -1.1696  0.3814
  150SAPE    HS16547   1.805   3.827   6.661  2.5343  1.7927  0.8270
  150SAPE   O2116548   1.588   3.867   6.636 -0.1369 -0.0907 -0.5032
  150SAPE   C2116549   1.566   3.779   6.737  0.4418 -0.1952  0.3140
  150SAPE   O2216550   1.652   3.733   6.803  0.3273 -0.1890 -0.0361
  150SAPE   C2216551   1.421   3.741   6.737 -0.2646 -0.0673 -0.3228
  150SAPE   H2R16552   1.373   3.730   6.638 -1.2523  1.5577 -0.0715
  150SAPE   H2S16553   1.417   3.641   6.786  1.5299 -1.2490 -2.4047
  150SAPE    C316554   1.757   4.029   6.712 -0.3317 -0.1225 -0.2342
  150SAPE    HX16555   1.691   4.108   6.672  0.7878  1.7202  1.3640
  150SAPE    HY16556   1.861   4.065   6.692  0.0612 -0.8718  0.3871
  150SAPE   O3116557   1.729   4.015   6.853 -0.0908 -0.2141 -0.0283
  150SAPE   C3116558   1.822   3.969   6.936  0.1220 -0.6724  0.0111
  150SAPE   O3216559   1.932   3.928   6.907 -0.1048  0.4095  0.6851
  150SAPE   C3216560   1.762   3.980   7.083  0.2450 -0.2783 -0.5081
  150SAPE   H2X16561   1.662   4.028   7.072 -0.6896 -1.5751  1.6481
  150SAPE   H2Y16562   1.829   4.036   7.152 -0.4074 -1.3847  1.0704
  150SAPE   C2316563   1.338   3.844   6.810 -0.0806  0.6518 -0.6600
  150SAPE   H3R16564   1.232   3.813   6.821 -0.7272  2.8779 -0.1790
  150SAPE   H3S16565   1.345   3.930   6.741  0.7633  0.4920 -0.7778
  150SAPE   C2416566   1.378   3.881   6.952  0.4490  0.4868 -0.2996
  150SAPE   H4R16567   1.320   3.973   6.977  2.7532  1.9226  0.1143
  150SAPE   H4S16568   1.481   3.923   6.945  0.9147 -0.2731  1.3654
  150SAPE   C2516569   1.370   3.775   7.059 -0.0114 -0.0063  0.9197
  150SAPE   H5R16570   1.432   3.687   7.034 -1.2025 -0.5182 -0.4262
  150SAPE   C2616571   1.299   3.781   7.175 -0.7200 -0.1562  0.2939
  150SAPE   H6R16572   1.305   3.701   7.249  2.1920  1.5870  2.1547
  150SAPE   C2716573   1.221   3.902   7.214 -0.0792 -1.2049  0.1396
  150SAPE   H7R16574   1.123   3.874   7.259 -0.8272  1.7906  0.5631
  150SAPE   H7S16575   1.188   3.968   7.131 -0.1456 -1.1200  0.2332
  150SAPE   C2816576   1.303   3.989   7.312 -0.1572 -0.5137  0.1880
  150SAPE   H8R16577   1.392   4.031   7.263  0.1230  0.5766  1.5456
  150SAPE   C2916578   1.278   4.006   7.442 -0.5293  0.8649  0.3954
  150SAPE   H9R16579   1.358   4.054   7.500  1.8172 -2.3265  0.0433
  150SAPE  C21016580   1.156   3.939   7.511  0.0134 -0.2799 -0.2320
  150SAPE  H10R16581   1.173   3.829   7.505 -0.1256 -0.3781  1.0531
  150SAPE  H10S16582   1.073   3.973   7.446  0.0121  1.0345  0.4385
  150SAPE  C21116583   1.138   3.999   7.649  0.7467 -0.3058 -0.4487
  150SAPE  H11R16584   1.129   4.108   7.656 -1.3327 -0.4370 -0.6265
  150SAPE  C21216585   1.111   3.926   7.757 -0.3554  0.7218 -0.9571
  150SAPE  H12R16586   1.096   3.974   7.855  2.2526 -2.2930  1.1196
  150SAPE  C21316587   1.100   3.772   7.770  0.2843  0.2448 -0.1626
  150SAPE  H13R16588   1.183   3.724   7.714  0.8332  0.9675  0.0036
  150SAPE  H13S16589   1.003   3.757   7.717 -0.1337  0.8168  0.4286
  150SAPE  C21416590   1.083   3.700   7.906 -0.3375 -0.3374  0.8584
  150SAPE  H14R16591   0.992   3.639   7.905 -0.8586  0.3998  1.7969
  150SAPE  C21516592   1.164   3.708   8.015  0.6076  0.0694 -0.2090
  150SAPE  H15R16593   1.131   3.654   8.105 -1.5334 -0.0949 -1.0355
  150SAPE  C21616594   1.286   3.800   8.020  0.5908  0.0718 -0.6626
  150SAPE  H16R16595   1.272   3.884   8.092 -3.2436 -1.9517  1.2714
  150SAPE  H16S16596   1.310   3.842   7.920  1.5975  0.4345 -0.2806
  150SAPE  C21716597   1.420   3.726   8.046  0.1095 -0.6650  0.1970
  150SAPE  H17R16598   1.501   3.797   8.019 -0.6107 -0.0052 -0.3070
  150SAPE  H17S16599   1.421   3.648   7.968 -1.7805 -1.4076  0.8482
  150SAPE  C21816600   1.446   3.656   8.182 -0.0146  0.4732 -0.5925
  150SAPE  H18R16601   1.346   3.613   8.202 -0.4406  1.6098 -0.1934
  150SAPE  H18S16602   1.468   3.718   8.272 -2.5740  1.6912 -0.7233
  150SAPE  C21916603   1.548   3.539   8.172  0.1774 -0.4016  0.1206
  150SAPE  H19R16604   1.514   3.460   8.101 -2.2468  0.3637  0.3497
  150SAPE  H19S16605   1.546   3.481   8.267  3.0594 -1.0274 -0.1077
  150SAPE  C22016606   1.687   3.578   8.140 -0.1050 -0.1164  0.2625
  150SAPE  H20R16607   1.745   3.493   8.100  2.5176  2.1146 -0.9705
  150SAPE  H20S16608   1.731   3.634   8.225  1.1227  0.9890 -1.0439
  150SAPE  H20T16609   1.685   3.646   8.052 -1.5030 -0.4180  0.0206
  150SAPE   C3316610   1.725   3.839   7.141 -0.6112  0.4601 -0.1162
  150SAPE   H3X16611   1.809   3.766   7.143  0.5847  1.5836 -3.1947
  150SAPE   H3Y16612   1.650   3.787   7.078  1.7389 -0.8548 -1.9927
  150SAPE   C3416613   1.670   3.829   7.283  0.1262 -0.1604  0.2790
  150SAPE   H4X16614   1.639   3.726   7.312  0.3446  0.2356  2.0045
  150SAPE   H4Y16615   1.589   3.903   7.301  1.0622  0.8754  0.3274
  150SAPE   C3516616   1.779   3.860   7.393  0.2858  0.0783  0.5309
  150SAPE   H5X16617   1.820   3.962   7.372 -2.3826  0.7239 -2.3170
  150SAPE   H5Y16618   1.850   3.775   7.400 -0.6298 -0.6487  1.1545
  150SAPE   C3616619   1.704   3.880   7.529  0.2277 -0.3306 -0.4983
  150SAPE   H6X16620   1.639   3.792   7.548  0.0278 -0.9311 -3.4935
  150SAPE   H6Y16621   1.643   3.972   7.517 -0.6899 -1.1212 -2.4090
  150SAPE   C3716622   1.801   3.901   7.644  0.5349 -0.4930 -0.2967
  150SAPE   H7X16623   1.862   3.985   7.605 -0.8965  0.8568  0.2789
  150SAPE   H7Y16624   1.871   3.817   7.666  1.8363  0.4670 -0.6640
  150SAPE   C3816625   1.729   3.948   7.778  0.6489  0.2757  0.2306
  150SAPE   H8X16626   1.634   3.892   7.790 -0.4599  2.2451  1.1168
  150SAPE   H8Y16627   1.717   4.058   7.774  1.1996  0.3338 -0.0149
  150SAPE   C3916628   1.817   3.916   7.901 -0.3948 -0.0552  0.4661
  150SAPE   H9X16629   1.913   3.969   7.885 -1.3704  2.0329  1.1222
  150SAPE   H9Y16630   1.833   3.807   7.915  0.6409  0.2482  1.8634
  150SAPE  C31016631   1.763   3.982   8.028 -0.6134 -0.0063 -0.3708
  150SAPE  H10X16632   1.666   3.932   8.048 -2.6895  3.4257 -0.8942
  150SAPE  H10Y16633   1.743   4.090   8.010 -0.0111  0.0364 -0.8148
  150SAPE  C31116634   1.849   3.967   8.147 -0.9849 -0.1367 -0.9045
  150SAPE  H11X16635   1.937   4.035   8.137 -0.0698 -0.6649  2.1890
  150SAPE  H11Y16636   1.894   3.866   8.160 -0.1659  0.5272  2.2219
  150SAPE  C31216637   1.783   4.012   8.281 -0.2935  0.0672  0.6278
  150SAPE  H12X16638   1.754   4.116   8.257  1.0891  0.7060  1.5725
  150SAPE  H12Y16639   1.864   4.022   8.357  0.0309  0.6313  0.2099
  150SAPE  C31316640   1.661   3.930   8.324 -0.5782  0.1091 -0.0172
  150SAPE  H13X16641   1.684   3.822   8.315  0.8884  0.4757 -1.1738
  150SAPE  H13Y16642   1.572   3.932   8.258 -0.8203  1.4567  0.3123
  150SAPE  C31416643   1.612   3.954   8.466  0.5549  0.1961  0.5583
  150SAPE  H14X16644   1.577   4.058   8.485 -5.0066 -1.7755  3.3787
  150SAPE  H14Y16645   1.686   3.925   8.543 -0.9803 -1.1324  1.6082
  150SAPE  C31516646   1.484   3.878   8.500  0.2219  0.4271  0.0774
  150SAPE  H15X16647   1.462   3.899   8.607 -0.5788 -1.9082  0.4251
  150SAPE  H15Y16648   1.506   3.771   8.483 -0.7607  0.7021 -3.6422
  150SAPE  C31616649   1.361   3.918   8.417  0.3485 -0.1607  0.5288
  150SAPE  H16X16650   1.368   3.891   8.309 -1.4359  0.2932  0.2687
  150SAPE  H16Y16651   1.353   4.028   8.413  1.0914 -0.0001  2.4157
  150SAPE  C31716652   1.225   3.864   8.477  0.1619 -0.5874  0.5112
  150SAPE  H17X16653   1.228   3.883   8.587  1.5746 -1.8147  0.7127
  150SAPE  H17Y16654   1.216   3.755   8.461 -1.6165 -0.6777  1.8267
  150SAPE  C31816655   1.107   3.940   8.417 -0.1122 -1.0469  0.3443
  150SAPE  H18X16656   1.088   3.904   8.314  2.5078 -2.0127  0.1422
  150SAPE  H18Y16657   1.124   4.050   8.414  2.2206 -1.2645  2.5926
  150SAPE  H18Z16658   1.010   3.926   8.470 -1.1484  1.7261 -0.5841
  151SAPE     N16659   5.945   2.082   6.551  0.4742  0.2057  0.1280
  151SAPE   HN116660   5.950   1.999   6.489  0.5567  0.7858 -0.6418
  151SAPE   HN216661   5.883   2.060   6.632  0.7599  1.0573  0.5805
  151SAPE   HN316662   5.904   2.140   6.476 -1.3642  1.5775  2.0666
  151SAPE   C1216663   6.072   2.146   6.592 -0.1824 -0.0999  0.2100
  151SAPE  H12A16664   6.147   2.065   6.602  1.3617  1.3482  0.7080
  151SAPE  H12B16665   6.066   2.205   6.686  2.8602 -0.7123  0.8988
  151SAPE   C1116666   6.113   2.223   6.466  0.1720 -0.0175 -0.0173
  151SAPE  H11A16667   6.027   2.293   6.461 -1.7126 -1.7831  3.8290
  151SAPE  H11B16668   6.107   2.163   6.373 -0.4627 -0.5288  0.3511
  151SAPE     P16669   6.268   2.409   6.389  0.2821  0.1961 -0.0129
  151SAPE   O1316670   6.411   2.454   6.388  0.0788  0.4593 -0.1691
  151SAPE   O1416671   6.204   2.390   6.255 -0.4118  0.1378 -0.2783
  151SAPE   O1216672   6.243   2.286   6.485  0.2321  0.0854  0.1754
  151SAPE   O1116673   6.174   2.525   6.460  0.4035  0.2718 -0.2368
  151SAPE    C116674   6.167   2.536   6.603  0.0712 -0.0381  1.2563
  151SAPE    HA16675   6.072   2.584   6.636 -0.4377 -0.2358  0.1273
  151SAPE    HB16676   6.170   2.435   6.650 -2.1720 -1.0137 -0.5008
  151SAPE    C216677   6.285   2.625   6.658 -0.4761 -0.4906  0.0146
  151SAPE    HS16678   6.379   2.571   6.636 -0.4267 -0.6022  0.4765
  151SAPE   O2116679   6.273   2.645   6.799 -1.0757 -0.2297 -0.2865
  151SAPE   C2116680   6.309   2.547   6.880  0.3689 -0.4874  0.1661
  151SAPE   O2216681   6.331   2.431   6.847  0.5597 -0.7207  0.5654
  151SAPE   C2216682   6.313   2.605   7.019  0.2667 -0.2337 -0.3377
  151SAPE   H2R16683   6.389   2.687   7.024 -3.1291  3.1220  0.4619
  151SAPE   H2S16684   6.212   2.647   7.032 -0.1775 -1.3092 -0.2174
  151SAPE    C316685   6.299   2.759   6.582 -0.1117  0.7931  0.3937
  151SAPE    HX16686   6.194   2.795   6.578 -2.4058 -4.7285  1.5183
  151SAPE    HY16687   6.330   2.736   6.478  0.0740  2.5282  0.0495
  151SAPE   O3116688   6.401   2.847   6.640 -0.5462 -0.6266 -0.1039
  151SAPE   C3116689   6.362   2.936   6.716 -0.4449 -0.2623 -0.0959
  151SAPE   O3216690   6.249   2.952   6.763 -0.3685 -0.8339 -0.1192
  151SAPE   C3216691   6.481   3.027   6.748 -0.8060 -0.7110  0.4712
  151SAPE   H2X16692   6.455   3.134   6.765 -0.6755 -0.2671 -1.8921
  151SAPE   H2Y16693   6.555   3.031   6.666 -0.2691  1.1904  0.9862
  151SAPE   C2316694   6.341   2.503   7.123 -0.8400 -0.0805  0.3890
  151SAPE   H3R16695   6.449   2.483   7.133 -0.9681 -0.4193  1.1788
  151SAPE   H3S16696   6.291   2.409   7.091  0.2790 -0.3268 -0.6777
  151SAPE   C2416697   6.294   2.553   7.256  0.4680 -0.0361  0.3762
  151SAPE   H4R16698   6.183   2.561   7.258  0.3064 -1.8057  1.8528
  151SAPE   H4S16699   6.329   2.654   7.286 -0.8893  0.3262  0.8274
  151SAPE   C2516700   6.319   2.456   7.363 -0.1644  0.6751 -0.0580
  151SAPE   H5R16701   6.276   2.357   7.344 -1.9356  1.5514 -0.7905
  151SAPE   C2616702   6.381   2.481   7.482 -0.6366 -0.4935  0.2862
  151SAPE   H6R16703   6.376   2.401   7.558  0.3382 -0.7754  0.0661
  151SAPE   C2716704   6.429   2.612   7.527 -0.5604 -0.4662 -0.4985
  151SAPE   H7R16705   6.405   2.621   7.635  0.4810 -0.0100 -0.2870
  151SAPE   H7S16706   6.381   2.703   7.484 -2.7249 -0.5130  1.6109
  151SAPE   C2816707   6.578   2.617   7.499 -0.3110 -0.0444 -0.2049
  151SAPE   H8R16708   6.600   2.592   7.394 -0.9056  1.3969 -0.6966
  151SAPE   C2916709   6.675   2.635   7.588  0.2451 -0.3155 -0.3939
  151SAPE   H9R16710   6.779   2.647   7.555 -0.0227  0.8621 -0.8384
  151SAPE  C21016711   6.661   2.651   7.736  0.2282 -0.7778 -0.1680
  151SAPE  H10R16712   6.673   2.559   7.797 -0.4867  0.0168  1.2270
  151SAPE  H10S16713   6.561   2.690   7.766  0.1246 -1.7019  0.7507
  151SAPE  C21116714   6.765   2.747   7.790 -1.4492  0.1282 -0.8312
  151SAPE  H11R16715   6.750   2.855   7.773 -2.4560  0.3229  0.9667
  151SAPE  C21216716   6.871   2.708   7.862 -0.5066  0.3208  0.3018
  151SAPE  H12R16717   6.940   2.781   7.907  0.9234 -1.4328  1.0876
  151SAPE  C21316718   6.916   2.557   7.890  1.1668 -0.7007 -0.2645
  151SAPE  H13R16719   6.949   2.516   7.793  0.0629 -1.6109 -0.2758
  151SAPE  H13S16720   6.830   2.501   7.932  1.5868 -1.5967 -0.5869
  151SAPE  C21416721   7.016   2.547   7.993 -0.1004 -0.1849 -0.1379
  151SAPE  H14R16722   7.050   2.635   8.051  1.8808 -0.4315 -0.8610
  151SAPE  C21516723   7.085   2.429   8.017 -0.2830 -0.7708 -0.1964
  151SAPE  H15R16724   7.158   2.454   8.095 -0.3487 -0.5422 -0.2069
  151SAPE  C21616725   7.080   2.294   7.957  0.3560  0.4182 -0.1846
  151SAPE  H16R16726   6.982   2.286   7.905 -0.3974  2.0971  0.8726
  151SAPE  H16S16727   7.073   2.228   8.046 -0.2169 -1.9225 -1.8705
  151SAPE  C21716728   7.200   2.267   7.863 -0.9852  0.4978  0.0203
  151SAPE  H17R16729   7.288   2.287   7.929  0.6482  0.4073 -2.0279
  151SAPE  H17S16730   7.189   2.349   7.789  4.8134  1.8092  0.1182
  151SAPE  C21816731   7.213   2.127   7.789 -0.0730 -0.1506 -0.4604
  151SAPE  H18R16732   7.295   2.127   7.714  0.1535 -0.3725 -0.2158
  151SAPE  H18S16733   7.111   2.119   7.746 -0.6550  1.2497  0.5868
  151SAPE  C21916734   7.237   2.019   7.898 -0.8397  0.2183 -0.6643
  151SAPE  H19R16735   7.159   2.025   7.977 -0.2571 -0.8865  0.0205
  151SAPE  H19S16736   7.335   2.016   7.950 -0.4301  0.2665 -1.4059
  151SAPE  C22016737   7.208   1.878   7.844  0.3897  0.0678  1.2891
  151SAPE  H20R16738   7.238   1.862   7.738  1.2834 -0.5622  1.6277
  151SAPE  H20S16739   7.256   1.801   7.908  1.0349 -0.5778  0.0582
  151SAPE  H20T16740   7.099   1.861   7.845  0.2051  0.6821 -1.2993
  151SAPE   C3316741   6.553   2.974   6.874  0.0918  0.5826  0.1551
  151SAPE   H3X16742   6.656   3.016   6.881  0.5367 -0.4541 -0.0001
  151SAPE   H3Y16743   6.572   2.866   6.856 -0.4135  0.5374 -0.1109
  151SAPE   C3416744   6.478   3.012   7.001  0.4977 -0.1857 -1.0392
  151SAPE   H4X16745   6.379   2.963   6.984 -0.8500  2.0172 -0.0917
  151SAPE   H4Y16746   6.459   3.121   6.996 -2.5048 -0.6093 -1.0029
  151SAPE   C3516747   6.542   2.973   7.137  0.8284 -0.1727  0.3347
  151SAPE   H5X16748   6.644   3.011   7.158 -0.2073  1.8566  2.1726
  151SAPE   H5Y16749   6.546   2.865   7.160  0.5549 -0.4081 -0.6937
  151SAPE   C3616750   6.465   3.034   7.252 -0.0228  0.2426 -1.0269
  151SAPE   H6X16751   6.360   3.001   7.243  0.5698 -2.0921  0.0143
  151SAPE   H6Y16752   6.466   3.145   7.241  0.4464  0.6018  1.8426
  151SAPE   C3716753   6.506   2.988   7.400 -0.0974  0.0653  0.7356
  151SAPE   H7X16754   6.605   3.032   7.425  0.0452 -0.3468  0.8959
  151SAPE   H7Y16755   6.514   2.877   7.397 -1.0045 -0.0276  1.1535
  151SAPE   C3816756   6.410   3.025   7.519 -0.0993 -0.3955  0.0481
  151SAPE   H8X16757   6.304   2.994   7.510  0.3712 -2.5823  1.3745
  151SAPE   H8Y16758   6.404   3.136   7.532  2.2977  0.2156 -2.8607
  151SAPE   C3916759   6.456   2.967   7.651 -0.5592  0.2935  0.6661
  151SAPE   H9X16760   6.566   2.974   7.656 -0.4389 -0.1890 -0.9029
  151SAPE   H9Y16761   6.439   2.857   7.647  2.0245 -0.1071 -1.5606
  151SAPE  C31016762   6.391   3.040   7.767  0.2332 -0.1419 -0.4138
  151SAPE  H10X16763   6.281   3.033   7.755  0.0937  0.8143  0.1613
  151SAPE  H10Y16764   6.421   3.147   7.770 -2.5342  0.6948  0.7817
  151SAPE  C31116765   6.441   2.971   7.892 -0.2173  0.3343 -0.3708
  151SAPE  H11X16766   6.551   2.985   7.887 -0.3069  1.2307 -0.0402
  151SAPE  H11Y16767   6.423   2.862   7.880  1.4537  0.0392 -0.3583
  151SAPE  C31216768   6.379   3.018   8.020  0.8144 -0.2927  0.1404
  151SAPE  H12X16769   6.383   2.936   8.094 -0.9383  0.4810  1.1703
  151SAPE  H12Y16770   6.270   3.041   8.011  0.0714 -2.9304  1.6931
  151SAPE  C31316771   6.439   3.149   8.071 -0.0879 -0.1755  0.4393
  151SAPE  H13X16772   6.422   3.228   7.993 -0.2175 -2.3609 -1.8753
  151SAPE  H13Y16773   6.546   3.145   8.097 -0.3841  0.9778  2.0112
  151SAPE  C31416774   6.361   3.201   8.190 -0.5115 -0.0409 -0.1831
  151SAPE  H14X16775   6.252   3.204   8.169 -0.0951 -1.9622 -3.2200
  151SAPE  H14Y16776   6.393   3.308   8.194 -1.2508  0.2190 -1.0105
  151SAPE  C31516777   6.410   3.139   8.325 -0.1222  0.0956  0.6390
  151SAPE  H15X16778   6.514   3.099   8.317  0.4471  1.5566  0.4288
  151SAPE  H15Y16779   6.338   3.057   8.345 -1.5470  0.5123 -2.2913
  151SAPE  C31616780   6.409   3.240   8.436 -0.3977 -0.6528 -0.6461
  151SAPE  H16X16781   6.454   3.338   8.408 -0.8785 -0.5210 -0.9825
  151SAPE  H16Y16782   6.457   3.195   8.525  0.1334 -0.0829 -0.6398
  151SAPE  C31716783   6.260   3.275   8.475  0.4303 -0.2354 -0.2563
  151SAPE  H17X16784   6.201   3.181   8.471  1.1899 -0.8954  2.2577
  151SAPE  H17Y16785   6.223   3.348   8.400  1.3427  0.7709  0.2401
  151SAPE  C31816786   6.247   3.334   8.617  0.3342  0.2826  0.0120
  151SAPE  H18X16787   6.302   3.272   8.691  0.1743  0.4422  0.2620
  151SAPE  H18Y16788   6.143   3.333   8.654  0.5820  1.1373  0.7632
  151SAPE  H18Z16789   6.290   3.436   8.624  0.7761 -0.0111  2.1113
  152SAPE     N16790   2.712   1.101   6.052 -0.3616  0.4866 -0.2570
  152SAPE   HN116791   2.763   1.175   6.103 -1.7295  1.8594 -0.7877
  152SAPE   HN216792   2.756   1.101   5.958 -1.4685  1.8581 -0.8074
  152SAPE   HN316793   2.612   1.129   6.041 -0.3020  0.0649 -2.2233
  152SAPE   C1216794   2.725   0.976   6.118 -0.7215  0.4656 -1.2177
  152SAPE  H12A16795   2.664   0.898   6.069  0.2503 -0.8413 -0.3874
  152SAPE  H12B16796   2.694   0.979   6.225 -1.1255  0.2464 -1.3292
  152SAPE   C1116797   2.875   0.934   6.115  0.3255  0.0853  0.3800
  152SAPE  H11A16798   2.903   0.904   6.012 -0.7728  0.6320 -0.0853
  152SAPE  H11B16799   2.898   0.853   6.187  1.8983  0.8191  0.7691
  152SAPE     P16800   3.095   1.038   6.228 -0.5351 -0.0587 -0.8133
  152SAPE   O1316801   3.176   0.940   6.159  0.2258 -0.0499 -0.5939
  152SAPE   O1416802   3.150   1.176   6.229 -0.9960  0.2641 -0.4895
  152SAPE   O1216803   2.962   1.042   6.149  0.0435  0.0816  0.0415
  152SAPE   O1116804   3.063   0.995   6.384 -0.2458  0.2992 -0.4446
  152SAPE    C116805   2.934   1.003   6.441  0.1176  0.3022  0.3604
  152SAPE    HA16806   2.895   1.105   6.421 -2.2684 -0.8741 -1.4276
  152SAPE    HB16807   2.863   0.929   6.399 -2.0319  1.1444  2.3328
  152SAPE    C216808   2.921   0.960   6.592  0.5149  0.4304  0.2957
  152SAPE    HS16809   2.815   0.962   6.625  0.7132 -1.8884  1.2301
  152SAPE   O2116810   2.999   1.051   6.678 -0.6150 -0.2138 -0.6624
  152SAPE   C2116811   2.949   1.165   6.708 -0.0286 -0.3370  0.3620
  152SAPE   O2216812   2.837   1.203   6.673  0.2288  0.5033  0.0235
  152SAPE   C2216813   3.039   1.235   6.813  0.9130 -0.2256 -0.1344
  152SAPE   H2R16814   3.084   1.152   6.871 -0.4157 -0.8433  0.0407
  152SAPE   H2S16815   3.126   1.288   6.768  1.5086 -0.4580  0.7232
  152SAPE    C316816   2.975   0.815   6.611  0.3864  0.3778  0.3631
  152SAPE    HX16817   3.073   0.809   6.557 -0.0673 -0.6397 -0.3691
  152SAPE    HY16818   2.901   0.746   6.567 -0.0028 -0.2949  2.0133
  152SAPE   O3116819   3.009   0.797   6.751  0.0675  1.0890 -0.1301
  152SAPE   C3116820   2.908   0.779   6.834 -0.2067 -0.6912  0.4079
  152SAPE   O3216821   2.793   0.784   6.808  0.3723  0.1167  0.4724
  152SAPE   C3216822   2.956   0.765   6.982  0.0106  0.1058 -0.3445
  152SAPE   H2X16823   3.019   0.848   7.021 -0.7713 -0.1241  1.5419
  152SAPE   H2Y16824   3.022   0.675   6.984  0.6322  0.5697  1.0382
  152SAPE   C2316825   2.959   1.335   6.904 -0.1440 -0.1662 -0.6416
  152SAPE   H3R16826   2.886   1.392   6.844  0.3826 -1.9442 -3.1479
  152SAPE   H3S16827   3.039   1.403   6.940 -0.6361  0.5384 -0.8600
  152SAPE   C2416828   2.903   1.263   7.027  0.2694 -0.1471  0.6454
  152SAPE   H4R16829   2.877   1.349   7.092  0.9911  0.5323  0.0496
  152SAPE   H4S16830   2.990   1.204   7.063  0.5445 -1.3398 -1.8005
  152SAPE   C2516831   2.783   1.176   7.003  0.2345  0.2804  0.0923
  152SAPE   H5R16832   2.754   1.173   6.897  1.1922  0.1930 -0.1751
  152SAPE   C2616833   2.688   1.138   7.095 -0.2671 -0.0762  0.2579
  152SAPE   H6R16834   2.613   1.064   7.065  0.5318 -1.3812  1.3749
  152SAPE   C2716835   2.684   1.177   7.238  0.5180  0.4781 -0.2701
  152SAPE   H7R16836   2.581   1.193   7.277  1.3063  0.8883  1.7196
  152SAPE   H7S16837   2.735   1.272   7.263  0.3983 -0.1955  2.8933
  152SAPE   C2816838   2.762   1.080   7.328  0.9524 -0.5978 -0.0375
  152SAPE   H8R16839   2.844   1.027   7.277  1.8339 -0.4130  1.1481
  152SAPE   C2916840   2.736   1.050   7.454  0.1778 -0.0411 -0.2231
  152SAPE   H9R16841   2.808   0.982   7.503 -0.3533  0.2950  1.0675
  152SAPE  C21016842   2.626   1.087   7.543 -0.4427  0.2410 -0.4900
  152SAPE  H10R16843   2.538   1.115   7.482 -1.2668 -1.9775 -0.3998
  152SAPE  H10S16844   2.659   1.184   7.588  0.8653  0.7920 -2.5175
  152SAPE  C21116845   2.581   0.993   7.646 -0.6376 -0.0418  0.2538
  152SAPE  H11R16846   2.522   0.910   7.606 -0.7054 -0.1162  0.5026
  152SAPE  C21216847   2.618   1.003   7.779 -0.3995  0.4913  1.0382
  152SAPE  H12R16848   2.585   0.926   7.850  2.4593 -0.1588  1.8189
  152SAPE  C21316849   2.706   1.110   7.846  0.0742 -0.0538  0.0048
  152SAPE  H13R16850   2.681   1.117   7.954 -0.8088 -1.2401 -0.1042
  152SAPE  H13S16851   2.687   1.210   7.799 -0.3142 -1.0631 -2.1141
  152SAPE  C21416852   2.852   1.080   7.810 -0.3962 -0.2137  0.1294
  152SAPE  H14R16853   2.887   1.102   7.708  0.8500 -1.5757  0.2261
  152SAPE  C21516854   2.936   1.020   7.893 -0.0395  0.2749  0.5338
  152SAPE  H15R16855   3.042   0.998   7.872  0.2975  1.2787  1.1190
  152SAPE  C21616856   2.901   0.969   8.030  0.4157  0.3901 -0.1000
  152SAPE  H16R16857   2.966   0.885   8.061 -1.4894  0.1634  3.8990
  152SAPE  H16S16858   2.796   0.934   8.035  0.0297  1.4031 -0.7047
  152SAPE  C21716859   2.926   1.075   8.144  0.2282 -0.2097  0.0780
  152SAPE  H17R16860   2.858   1.162   8.132 -1.6010 -1.7227 -1.0469
  152SAPE  H17S16861   3.029   1.118   8.136  0.0701  0.0215 -0.7997
  152SAPE  C21816862   2.930   1.017   8.282 -0.1732 -0.0285 -0.3293
  152SAPE  H18R16863   3.001   0.932   8.278  1.8335  1.4065  1.7578
  152SAPE  H18S16864   2.830   0.983   8.315  0.3537  1.3580  3.1037
  152SAPE  C21916865   3.002   1.095   8.400  0.8626 -0.3105  0.1992
  152SAPE  H19R16866   3.092   1.152   8.370 -0.4469 -0.3868 -4.7151
  152SAPE  H19S16867   3.025   1.019   8.478 -2.3327 -2.1610 -0.4784
  152SAPE  C22016868   2.903   1.195   8.455 -0.9351 -0.1378 -0.3996
  152SAPE  H20R16869   2.818   1.144   8.506 -0.7970  0.5803  0.5875
  152SAPE  H20S16870   2.849   1.253   8.377 -0.2024  0.3328 -0.5683
  152SAPE  H20T16871   2.939   1.271   8.528 -3.5783  0.8170  0.0039
  152SAPE   C3316872   2.844   0.740   7.083  0.0815  0.3141 -0.0339
  152SAPE   H3X16873   2.776   0.666   7.036 -0.8180  1.6793 -0.9427
  152SAPE   H3Y16874   2.792   0.835   7.104 -0.7820 -0.1207 -0.1740
  152SAPE   C3416875   2.897   0.691   7.220  0.3201 -0.0425 -0.2656
  152SAPE   H4X16876   2.982   0.760   7.240 -0.5730  1.1035 -0.3422
  152SAPE   H4Y16877   2.929   0.585   7.215  0.5218  0.0035  0.0626
  152SAPE   C3516878   2.795   0.688   7.342 -0.0439  0.8287 -0.3283
  152SAPE   H5X16879   2.738   0.594   7.324 -0.5822  1.2114 -0.6314
  152SAPE   H5Y16880   2.724   0.771   7.323 -1.5220 -0.6482 -1.6941
  152SAPE   C3616881   2.866   0.680   7.476 -0.3271 -0.0050  0.0205
  152SAPE   H6X16882   2.936   0.766   7.486 -1.5473  1.0922 -0.5571
  152SAPE   H6Y16883   2.912   0.580   7.488  0.4685  0.4784  1.2083
  152SAPE   C3716884   2.761   0.694   7.581 -0.0791 -0.1103  0.6047
  152SAPE   H7X16885   2.696   0.605   7.565  1.9247 -1.3744 -1.0870
  152SAPE   H7Y16886   2.697   0.782   7.560 -0.2437 -0.4557 -0.3851
  152SAPE   C3816887   2.808   0.690   7.725  0.2039  0.2068  0.0552
  152SAPE   H8X16888   2.719   0.718   7.785  0.0571  1.0659 -0.5366
  152SAPE   H8Y16889   2.891   0.764   7.734  1.1464 -0.6347 -1.3467
  152SAPE   C3916890   2.859   0.550   7.767 -0.5940 -0.4276 -0.3654
  152SAPE   H9X16891   2.887   0.565   7.873 -0.6840  1.7315 -0.6001
  152SAPE   H9Y16892   2.949   0.524   7.707 -0.2381 -1.7232  0.6823
  152SAPE  C31016893   2.751   0.434   7.766 -0.4088 -0.2723 -0.0799
  152SAPE  H10X16894   2.727   0.399   7.663 -2.2578  1.9428 -0.4912
  152SAPE  H10Y16895   2.658   0.479   7.807 -0.3810 -0.2425 -0.0493
  152SAPE  C31116896   2.793   0.309   7.834 -0.9273  0.4382  0.1789
  152SAPE  H11X16897   2.832   0.334   7.935  1.6884 -0.4479 -0.5279
  152SAPE  H11Y16898   2.872   0.264   7.770 -0.5522 -1.0659  1.6444
  152SAPE  C31216899   2.689   0.208   7.848 -0.3634  0.6105  1.1767
  152SAPE  H12X16900   2.641   0.188   7.750  2.3053  0.9076 -0.3040
  152SAPE  H12Y16901   2.608   0.252   7.909 -0.4113  1.7949  0.2766
  152SAPE  C31316902   2.752   0.076   7.914 -0.1548  0.1551  0.1705
  152SAPE  H13X16903   2.812   0.107   8.002 -1.2425  2.3542  0.1980
  152SAPE  H13Y16904   2.825   0.026   7.846 -0.0965  0.1744  0.2189
  152SAPE  C31416905   2.642  -0.031   7.952  0.0265 -0.2206  0.2787
  152SAPE  H14X16906   2.597  -0.067   7.856 -0.0990  0.4726  0.0696
  152SAPE  H14Y16907   2.558   0.018   8.005 -0.1915  0.4982 -0.6978
  152SAPE  C31516908   2.693  -0.147   8.038 -0.2113  0.3471 -0.3100
  152SAPE  H15X16909   2.796  -0.168   8.002 -0.7461 -0.2173 -1.5873
  152SAPE  H15Y16910   2.635  -0.237   8.008 -0.8398  0.7399 -0.3133
  152SAPE  C31616911   2.688  -0.116   8.188  0.7318  0.2940 -0.0988
  152SAPE  H16X16912   2.591  -0.069   8.216  0.3451  1.2299 -2.7027
  152SAPE  H16Y16913   2.757  -0.032   8.210 -1.4038  2.3482 -0.8207
  152SAPE  C31716914   2.708  -0.246   8.275  0.4281  0.0628  0.4159
  152SAPE  H17X16915   2.806  -0.290   8.246  0.6846  0.4971  0.6057
  152SAPE  H17Y16916   2.622  -0.309   8.246  0.8122  0.1047 -0.8681
  152SAPE  C31816917   2.710  -0.207   8.422  0.2208  0.4785 -0.0601
  152SAPE  H18X16918   2.781  -0.125   8.448  1.6369 -0.8962  0.5444
  152SAPE  H18Y16919   2.731  -0.301   8.478 -2.3039  0.2741  0.6931
  152SAPE  H18Z16920   2.606  -0.186   8.457  0.2676 -0.7514  0.8599
  153SAPE     N16921   0.540   5.395   6.046 -0.1403 -0.1976  0.0181
  153SAPE   HN116922   0.631   5.423   6.087  0.2587  0.7521 -1.4541
  153SAPE   HN216923   0.553   5.313   5.983  0.2237 -0.2555  0.1698
  153SAPE   HN316924   0.499   5.470   5.986  0.3778  0.6889  0.7490
  153SAPE   C1216925   0.453   5.348   6.159  0.5759  0.7014 -0.9451
  153SAPE  H12A16926   0.379   5.277   6.116 -0.7926  2.6370 -1.9553
  153SAPE  H12B16927   0.382   5.428   6.193 -2.3953 -1.0230 -2.6251
  153SAPE   C1116928   0.528   5.294   6.281  0.2631  0.2547 -0.2075
  153SAPE  H11A16929   0.446   5.264   6.350 -0.1895  3.0960  0.6072
  153SAPE  H11B16930   0.571   5.377   6.340  0.7909  1.2904 -1.9881
  153SAPE     P16931   0.747   5.168   6.328 -0.9884  0.2909 -0.3786
  153SAPE   O1316932   0.772   5.024   6.330 -0.3109 -0.2971  0.3669
  153SAPE   O1416933   0.859   5.243   6.269  0.7265  0.2285 -0.2343
  153SAPE   O1216934   0.622   5.190   6.250 -0.6171  0.0759  0.4357
  153SAPE   O1116935   0.725   5.225   6.477 -0.4517 -0.3706  0.0462
  153SAPE    C116936   0.805   5.189   6.585  0.3443 -0.7758 -0.7670
  153SAPE    HA16937   0.911   5.170   6.556  0.8985  0.0911  0.5479
  153SAPE    HB16938   0.815   5.274   6.656 -2.1680 -1.4367  0.4735
  153SAPE    C216939   0.748   5.071   6.666  0.7813  0.7449  1.1731
  153SAPE    HS16940   0.768   4.984   6.600  0.0465  2.5130 -1.5655
  153SAPE   O2116941   0.607   5.089   6.698  0.0787  0.3707  0.2654
  153SAPE   C2116942   0.518   5.038   6.616 -0.0490 -0.6975  0.4137
  153SAPE   O2216943   0.540   4.982   6.511 -0.3754 -0.1604 -0.5064
  153SAPE   C2216944   0.375   5.030   6.679  0.4528 -0.8215  0.7819
  153SAPE   H2R16945   0.330   4.932   6.652 -1.8389  0.6825 -1.3499
  153SAPE   H2S16946   0.382   5.061   6.786 -1.2113  2.3306  0.0841
  153SAPE    C316947   0.832   5.048   6.800  0.5177  0.4825 -0.0881
  153SAPE    HX16948   0.779   4.969   6.859  2.0287 -0.1422  0.4892
  153SAPE    HY16949   0.822   5.141   6.858 -1.4408 -0.9041  1.9708
  153SAPE   O3116950   0.975   5.016   6.787 -0.2705  0.7272 -0.8682
  153SAPE   C3116951   1.005   4.896   6.756  0.0969  0.2788  0.8801
  153SAPE   O3216952   0.928   4.802   6.744  0.3884  0.0830  0.0657
  153SAPE   C3216953   1.159   4.887   6.740 -0.0394 -0.3888 -0.0060
  153SAPE   H2X16954   1.205   4.987   6.723  0.4756 -0.6477 -0.1501
  153SAPE   H2Y16955   1.179   4.841   6.641  0.0607  2.2472 -1.3048
  153SAPE   C2316956   0.286   5.136   6.608 -0.2270  0.4209 -0.1284
  153SAPE   H3R16957   0.182   5.122   6.643 -0.8022  1.9162 -1.1663
  153SAPE   H3S16958   0.300   5.116   6.499  1.3290 -2.4830  0.4966
  153SAPE   C2416959   0.325   5.276   6.638  0.0813 -0.1730  0.6585
  153SAPE   H4R16960   0.434   5.299   6.636 -0.0784  1.0329  2.4692
  153SAPE   H4S16961   0.296   5.295   6.744 -1.6841  1.3599 -0.0347
  153SAPE   C2516962   0.246   5.370   6.552  0.4557 -0.6036  0.5231
  153SAPE   H5R16963   0.225   5.336   6.450  1.2529  1.1571 -0.2894
  153SAPE   C2616964   0.187   5.482   6.587  0.3559  0.0757 -0.4162
  153SAPE   H6R16965   0.135   5.545   6.514 -2.3434  0.1648  1.4197
  153SAPE   C2716966   0.176   5.521   6.731  0.2599  0.5300 -0.1166
  153SAPE   H7R16967   0.156   5.628   6.753  0.3288  0.5541 -0.1731
  153SAPE   H7S16968   0.275   5.500   6.778  0.4692  1.3891 -0.1542
  153SAPE   C2816969   0.061   5.447   6.796 -0.0554 -0.4938 -0.2447
  153SAPE   H8R16970  -0.022   5.415   6.732  1.4778 -1.7786 -1.6818
  153SAPE   C2916971   0.049   5.438   6.930 -0.6430  0.9998  1.5084
  153SAPE   H9R16972  -0.039   5.383   6.968 -1.7772  1.2061 -0.6897
  153SAPE  C21016973   0.152   5.495   7.026 -0.1367 -0.3937 -0.2169
  153SAPE  H10R16974   0.193   5.589   6.984  0.7097 -0.3502  0.6604
  153SAPE  H10S16975   0.238   5.424   7.033  0.0878 -0.0819  0.3326
  153SAPE  C21116976   0.087   5.521   7.154 -0.3167 -0.0755 -0.4333
  153SAPE  H11R16977  -0.022   5.504   7.153  0.0352 -3.9651 -4.5663
  153SAPE  C21216978   0.154   5.556   7.268 -0.4392 -0.8845  0.3654
  153SAPE  H12R16979   0.092   5.578   7.355  1.1383 -3.2455  2.2211
  153SAPE  C21316980   0.301   5.584   7.283  0.5314  0.9193 -0.3175
  153SAPE  H13R16981   0.352   5.486   7.272  0.5065  0.8405  0.2751
  153SAPE  H13S16982   0.318   5.628   7.383 -2.3777  4.3397 -1.1345
  153SAPE  C21416983   0.370   5.683   7.190 -0.8912 -0.1459 -0.8305
  153SAPE  H14R16984   0.309   5.730   7.112 -1.0421  0.9720 -0.0641
  153SAPE  C21516985   0.507   5.719   7.213  0.6434 -0.1982 -0.6770
  153SAPE  H15R16986   0.554   5.781   7.136  0.5974  2.2054  1.1038
  153SAPE  C21616987   0.595   5.682   7.337  1.1181 -0.2447  0.6468
  153SAPE  H16R16988   0.679   5.616   7.309  0.6683  0.5003 -3.0607
  153SAPE  H16S16989   0.528   5.617   7.398 -2.3494  1.3394 -1.1289
  153SAPE  C21716990   0.655   5.796   7.423  0.7747 -0.6988  0.1913
  153SAPE  H17R16991   0.748   5.843   7.383  1.4839 -2.4497 -0.2839
  153SAPE  H17S16992   0.681   5.740   7.515 -0.6844  1.8853  2.3377
  153SAPE  C21816993   0.554   5.898   7.455 -0.2720  0.1576 -0.1915
  153SAPE  H18R16994   0.452   5.856   7.466  0.2150 -0.7645  0.9422
  153SAPE  H18S16995   0.538   5.967   7.369 -0.6219  1.2741  0.7419
  153SAPE  C21916996   0.591   5.979   7.572  0.5097  0.0534  0.0427
  153SAPE  H19R16997   0.691   6.020   7.549  0.9540 -0.9911  0.0445
  153SAPE  H19S16998   0.592   5.915   7.663  0.4392  0.2702  0.1965
  153SAPE  C22016999   0.498   6.094   7.607 -0.4088 -0.2711  0.1225
  153SAPE  H20R17000   0.399   6.050   7.629 -0.4353  0.3125  1.2539
  153SAPE  H20S17001   0.489   6.160   7.518 -3.6268 -1.7039 -0.7422
  153SAPE  H20T17002   0.537   6.159   7.689 -1.1586  2.0725 -1.2863
  153SAPE   C3317003   1.223   4.800   6.849  0.8067 -0.0687  0.0197
  153SAPE   H3X17004   1.318   4.750   6.821  0.9406 -0.1489  0.5985
  153SAPE   H3Y17005   1.154   4.716   6.876  2.2998 -1.8459 -1.4198
  153SAPE   C3417006   1.259   4.874   6.976 -0.2769  0.5985  0.5983
  153SAPE   H4X17007   1.181   4.942   7.015 -1.4544 -0.2583 -0.1933
  153SAPE   H4Y17008   1.343   4.938   6.940  0.0108 -0.9057 -1.6187
  153SAPE   C3517009   1.307   4.791   7.097 -0.1052 -0.3715  0.1580
  153SAPE   H5X17010   1.387   4.726   7.055 -0.5471  0.1647 -1.5955
  153SAPE   H5Y17011   1.232   4.721   7.140  0.5877 -1.2903 -0.0911
  153SAPE   C3617012   1.378   4.880   7.204  0.0602  0.1181 -0.4134
  153SAPE   H6X17013   1.414   4.965   7.142  0.3059  0.9187  0.7911
  153SAPE   H6Y17014   1.460   4.820   7.248 -0.5608 -0.1964  0.3362
  153SAPE   C3717015   1.275   4.933   7.309 -0.3709 -0.1792  0.4405
  153SAPE   H7X17016   1.189   4.981   7.258  1.1437  0.5152 -1.5560
  153SAPE   H7Y17017   1.325   5.014   7.366  1.6215 -0.1100 -1.2820
  153SAPE   C3817018   1.226   4.820   7.408 -0.4485 -1.1015  0.2412
  153SAPE   H8X17019   1.296   4.734   7.403 -0.3835 -1.0380  0.0356
  153SAPE   H8Y17020   1.130   4.783   7.368 -1.6325  1.1990  0.7512
  153SAPE   C3917021   1.218   4.869   7.552 -0.6906  0.5405  0.1213
  153SAPE   H9X17022   1.130   4.936   7.557 -2.6470 -1.7557 -1.4579
  153SAPE   H9Y17023   1.312   4.916   7.589  0.6261 -0.0143 -2.2891
  153SAPE  C31017024   1.178   4.747   7.642  0.9417 -0.1444 -1.2569
  153SAPE  H10X17025   1.251   4.664   7.634  0.3208 -1.0604  1.4704
  153SAPE  H10Y17026   1.085   4.711   7.593  0.3015 -0.3902  0.0786
  153SAPE  C31117027   1.150   4.792   7.783 -0.8973  0.1523  0.7831
  153SAPE  H11X17028   1.075   4.872   7.768  1.7562  2.4051 -1.3938
  153SAPE  H11Y17029   1.244   4.837   7.822 -0.8983  1.4681 -0.6544
  153SAPE  C31217030   1.085   4.684   7.873  0.8240  0.2203  1.0304
  153SAPE  H12X17031   1.138   4.587   7.868 -0.5215 -0.5328  0.7955
  153SAPE  H12Y17032   0.980   4.662   7.842 -0.0071  0.4967  3.4747
  153SAPE  C31317033   1.071   4.741   8.016  0.1664  0.8535  0.7437
  153SAPE  H13X17034   1.042   4.847   7.999 -0.7667  0.4829 -0.0901
  153SAPE  H13Y17035   1.173   4.736   8.061 -0.5181 -0.3298  2.2447
  153SAPE  C31417036   0.973   4.658   8.103 -0.2009 -0.0963  0.3341
  153SAPE  H14X17037   0.996   4.550   8.115 -0.0839 -0.0645  0.4026
  153SAPE  H14Y17038   0.872   4.660   8.058 -0.5733 -0.3951  1.1262
  153SAPE  C31517039   0.964   4.714   8.249 -0.3190  0.3521 -0.0066
  153SAPE  H15X17040   0.910   4.811   8.243 -3.3887 -1.2886 -3.5898
  153SAPE  H15Y17041   1.063   4.724   8.299 -0.0788 -0.9103 -0.1980
  153SAPE  C31617042   0.896   4.626   8.349  0.4976  0.1712 -0.0505
  153SAPE  H16X17043   0.947   4.528   8.357  0.4635  0.1349 -0.2954
  153SAPE  H16Y17044   0.794   4.602   8.313  0.0097 -4.0355  3.3233
  153SAPE  C31717045   0.887   4.676   8.494  0.2542 -0.1397  0.1206
  153SAPE  H17X17046   0.992   4.689   8.528  0.1819  1.1562 -0.1037
  153SAPE  H17Y17047   0.840   4.603   8.564  0.3273  1.1278  1.5555
  153SAPE  C31817048   0.819   4.812   8.512  0.1509  0.1818  0.0213
  153SAPE  H18X17049   0.714   4.798   8.477 -0.1583 -0.4917  1.1612
  153SAPE  H18Y17050   0.872   4.890   8.454  0.2725 -0.5689 -0.9058
  153SAPE  H18Z17051   0.807   4.837   8.620  2.4446 -1.4111  0.7248
  154SAPE     N17052   4.305   2.925   6.232 -0.0549  0.2459  0.5672
  154SAPE   HN117053   4.218   2.878   6.264 -0.5690  1.3759  0.8923
  154SAPE   HN217054   4.286   2.958   6.135  1.9664  0.2974  0.1513
  154SAPE   HN317055   4.380   2.856   6.213 -2.4023 -1.3704 -4.7528
  154SAPE   C1217056   4.331   3.029   6.322 -0.0548  0.1778  0.1311
  154SAPE  H12A17057   4.370   2.986   6.416  0.4246  0.8807  0.2589
  154SAPE  H12B17058   4.237   3.081   6.349 -1.0845 -1.2971 -0.4391
  154SAPE   C1117059   4.446   3.110   6.253 -0.6830 -0.2517 -0.3554
  154SAPE  H11A17060   4.422   3.162   6.158  0.1384 -1.9384 -1.5313
  154SAPE  H11B17061   4.530   3.044   6.224 -0.8608 -0.5570 -0.1840
  154SAPE     P17062   4.613   3.306   6.286  0.2113 -0.2137  0.1925
  154SAPE   O1317063   4.713   3.222   6.219 -0.6566  0.1771 -0.1237
  154SAPE   O1417064   4.552   3.418   6.212  0.0026  0.6567 -0.0050
  154SAPE   O1217065   4.501   3.214   6.343  0.1748  0.5274  0.2347
  154SAPE   O1117066   4.681   3.360   6.420  0.1158 -0.9726  0.1285
  154SAPE    C117067   4.606   3.387   6.536  0.4598  0.4677 -0.2644
  154SAPE    HA17068   4.640   3.481   6.584  1.0862  0.4942 -0.7429
  154SAPE    HB17069   4.502   3.414   6.511 -0.3344  0.1112  2.3315
  154SAPE    C217070   4.611   3.278   6.643  0.8674  0.2772 -0.3031
  154SAPE    HS17071   4.567   3.182   6.609  0.1451  0.5278 -0.0908
  154SAPE   O2117072   4.540   3.328   6.765  0.3979  0.0730 -0.3036
  154SAPE   C2117073   4.414   3.325   6.763 -0.7083  0.3277  0.0132
  154SAPE   O2217074   4.346   3.252   6.689 -0.1754  0.1994  0.2532
  154SAPE   C2217075   4.369   3.429   6.862  0.1306  0.5757 -0.3489
  154SAPE   H2R17076   4.390   3.528   6.816 -1.2897  0.9753 -0.1796
  154SAPE   H2S17077   4.261   3.417   6.883  0.2559  0.6789  0.3704
  154SAPE    C317078   4.765   3.255   6.670  0.9478 -0.4479  0.0020
  154SAPE    HX17079   4.813   3.351   6.697  2.1699 -0.9388 -0.3555
  154SAPE    HY17080   4.806   3.236   6.569 -0.4920  0.4407 -0.7924
  154SAPE   O3117081   4.789   3.145   6.764  0.5550  0.0205  0.5416
  154SAPE   C3117082   4.792   3.180   6.888 -0.4120  0.5806  0.7608
  154SAPE   O3217083   4.770   3.292   6.932  0.7167  0.0414 -0.2498
  154SAPE   C3217084   4.824   3.061   6.974  0.3411 -0.5203  0.2486
  154SAPE   H2X17085   4.867   2.974   6.919  0.2539 -0.1223 -0.4650
  154SAPE   H2Y17086   4.728   3.021   7.013 -1.2941  1.4126 -1.5342
  154SAPE   C2317087   4.439   3.424   7.001  0.0199 -0.0929 -0.9095
  154SAPE   H3R17088   4.547   3.449   6.992  0.1442 -0.3513 -0.1625
  154SAPE   H3S17089   4.438   3.321   7.041  0.8811  0.2689  0.0808
  154SAPE   C2417090   4.370   3.517   7.108 -0.8320  1.0884 -0.2326
  154SAPE   H4R17091   4.262   3.528   7.081 -0.3102  0.6180 -2.8143
  154SAPE   H4S17092   4.413   3.620   7.103  0.1053  0.7180  0.1347
  154SAPE   C2517093   4.408   3.458   7.240 -0.3957  0.7849  0.6020
  154SAPE   H5R17094   4.508   3.492   7.269  0.8054 -1.2652 -0.8884
  154SAPE   C2617095   4.339   3.370   7.316  0.2416 -0.6662 -0.7786
  154SAPE   H6R17096   4.386   3.343   7.411 -0.6883 -0.2065 -0.1686
  154SAPE   C2717097   4.200   3.321   7.281 -0.3746 -0.5703  0.5412
  154SAPE   H7R17098   4.192   3.211   7.295 -0.8355 -0.7871 -1.2036
  154SAPE   H7S17099   4.181   3.342   7.173  0.9867 -0.0779  0.3707
  154SAPE   C2817100   4.109   3.404   7.364 -0.4193  0.2944 -0.4887
  154SAPE   H8R17101   4.085   3.503   7.322 -1.4790  0.7188  1.0256
  154SAPE   C2917102   4.050   3.368   7.484 -0.7504 -0.4250 -0.2015
  154SAPE   H9R17103   3.996   3.444   7.543  0.1555 -0.1449  0.2842
  154SAPE  C21017104   4.072   3.238   7.554 -0.4014 -0.7952 -1.0148
  154SAPE  H10R17105   4.176   3.233   7.593 -0.5558 -0.7174 -0.5816
  154SAPE  H10S17106   4.072   3.162   7.473 -0.3882 -2.1164  0.1837
  154SAPE  C21117107   3.976   3.199   7.659  0.1218  0.2965  0.2761
  154SAPE  H11R17108   3.889   3.136   7.635  0.5876 -1.1968  2.2391
  154SAPE  C21217109   3.990   3.241   7.789  0.9633  0.0831 -0.0138
  154SAPE  H12R17110   3.915   3.208   7.863  2.6652  1.5732  2.5192
  154SAPE  C21317111   4.097   3.338   7.843  0.3948 -0.1275 -0.4402
  154SAPE  H13R17112   4.123   3.418   7.770 -0.7731  1.2894  0.6417
  154SAPE  H13S17113   4.196   3.288   7.847  0.7928  0.5102 -1.6864
  154SAPE  C21417114   4.066   3.387   7.977 -0.0899  0.4555  0.5274
  154SAPE  H14R17115   3.985   3.461   7.980 -0.3087  0.3722 -1.7987
  154SAPE  C21517116   4.131   3.348   8.087  0.2013 -0.6248 -0.8095
  154SAPE  H15R17117   4.106   3.399   8.181  0.9088 -0.1082 -0.8894
  154SAPE  C21617118   4.242   3.255   8.108  0.3394  0.4671 -0.3930
  154SAPE  H16R17119   4.331   3.304   8.063  1.5256 -0.9441  0.3230
  154SAPE  H16S17120   4.256   3.155   8.060 -1.1464 -0.3378  0.7632
  154SAPE  C21717121   4.267   3.231   8.262 -0.0589  0.4916  0.2026
  154SAPE  H17R17122   4.332   3.141   8.263  0.8087  1.1062  0.0618
  154SAPE  H17S17123   4.166   3.221   8.308 -0.2840  0.3047 -0.3198
  154SAPE  C21817124   4.327   3.351   8.336  0.6146  0.6039  0.7332
  154SAPE  H18R17125   4.262   3.442   8.338  0.0134  0.1866  0.3702
  154SAPE  H18S17126   4.430   3.369   8.298  0.2105 -1.5801 -1.6255
  154SAPE  C21917127   4.346   3.318   8.494  0.4532 -0.1988 -0.3579
  154SAPE  H19R17128   4.425   3.383   8.537  0.7575 -0.5494 -0.3888
  154SAPE  H19S17129   4.387   3.215   8.495  2.2830  0.4532  2.6592
  154SAPE  C22017130   4.211   3.333   8.564  0.2693  0.1761 -0.5356
  154SAPE  H20R17131   4.145   3.255   8.520  0.7931  0.5099 -1.9617
  154SAPE  H20S17132   4.175   3.436   8.541 -1.1556  0.4529  2.3863
  154SAPE  H20T17133   4.219   3.319   8.674  0.6015 -1.2103 -0.7137
  154SAPE   C3317134   4.927   3.102   7.084 -0.2282 -0.2868  0.2513
  154SAPE   H3X17135   4.956   3.210   7.083 -1.6094  0.1042 -0.5954
  154SAPE   H3Y17136   5.014   3.037   7.062  0.1979  0.7588 -1.3433
  154SAPE   C3417137   4.887   3.053   7.222 -0.3411 -0.0508  0.7018
  154SAPE   H4X17138   4.980   3.024   7.276 -1.7994 -2.0301  2.2761
  154SAPE   H4Y17139   4.836   2.955   7.223  0.5416 -0.5290  0.2530
  154SAPE   C3517140   4.814   3.159   7.304 -0.7876  0.5600  0.2059
  154SAPE   H5X17141   4.733   3.197   7.238 -1.0933 -1.1261 -0.4340
  154SAPE   H5Y17142   4.885   3.240   7.332  0.4500 -1.6626  4.2690
  154SAPE   C3617143   4.739   3.109   7.429 -0.5392  0.3187 -0.3068
  154SAPE   H6X17144   4.808   3.057   7.499  0.6356 -0.5265 -2.0239
  154SAPE   H6Y17145   4.664   3.033   7.399 -0.2687 -0.5328  1.0620
  154SAPE   C3717146   4.660   3.223   7.494 -0.7146 -0.0959  0.2763
  154SAPE   H7X17147   4.616   3.294   7.420 -1.5352 -0.2111  0.6516
  154SAPE   H7Y17148   4.737   3.285   7.544  1.1254 -0.1543 -2.2627
  154SAPE   C3817149   4.545   3.179   7.586  0.7834  0.2924  0.5675
  154SAPE   H8X17150   4.499   3.101   7.521  1.3472  2.4255 -2.6138
  154SAPE   H8Y17151   4.474   3.262   7.607  0.9578  0.1833  1.6361
  154SAPE   C3917152   4.594   3.126   7.716  0.3915  0.0245  0.2795
  154SAPE   H9X17153   4.633   3.209   7.778  0.9035  1.4478 -1.8120
  154SAPE   H9Y17154   4.679   3.060   7.688  0.6430  0.0391  1.0027
  154SAPE  C31017155   4.485   3.055   7.793 -0.4421  0.0838  0.2489
  154SAPE  H10X17156   4.460   2.960   7.740 -0.8426  0.9894 -1.2403
  154SAPE  H10Y17157   4.391   3.113   7.805 -0.0809  0.6763  0.2396
  154SAPE  C31117158   4.522   3.006   7.932  0.5723 -0.0493  0.1858
  154SAPE  H11X17159   4.438   2.957   7.984 -0.0196  1.4120  0.6523
  154SAPE  H11Y17160   4.535   3.091   8.002 -1.7843 -0.3496  1.0814
  154SAPE  C31217161   4.645   2.916   7.942 -0.3396  0.2470  0.6763
  154SAPE  H12X17162   4.733   2.959   7.889 -1.5514 -0.0785 -1.7362
  154SAPE  H12Y17163   4.625   2.830   7.875  1.3176 -0.0558  0.5388
  154SAPE  C31317164   4.689   2.863   8.075 -0.0133  0.3212 -0.1347
  154SAPE  H13X17165   4.771   2.791   8.051  0.1576 -0.6776  3.0191
  154SAPE  H13Y17166   4.611   2.802   8.125  2.0912  0.4226  3.6490
  154SAPE  C31417167   4.737   2.977   8.162  0.3555  0.0409  0.2627
  154SAPE  H14X17168   4.661   3.058   8.173 -0.8654 -1.2486  1.6488
  154SAPE  H14Y17169   4.820   3.025   8.105 -0.1554 -0.4974 -0.9845
  154SAPE  C31517170   4.797   2.937   8.297 -0.7258  0.6133  0.3096
  154SAPE  H15X17171   4.831   3.022   8.361  0.3969  0.0808  0.4465
  154SAPE  H15Y17172   4.878   2.863   8.280 -3.2437 -2.2063 -0.2169
  154SAPE  C31617173   4.698   2.859   8.386  0.8821 -0.3056  0.1545
  154SAPE  H16X17174   4.685   2.760   8.337 -1.9988  0.4690 -0.8678
  154SAPE  H16Y17175   4.602   2.914   8.381  0.8340 -0.4095 -0.0775
  154SAPE  C31717176   4.732   2.848   8.533  0.1216 -0.5015  0.4694
  154SAPE  H17X17177   4.634   2.815   8.575 -0.0484  1.1630  1.4515
  154SAPE  H17Y17178   4.744   2.951   8.573 -4.5469  0.9871 -1.1903
  154SAPE  C31817179   4.835   2.743   8.569  0.6063  0.8148 -0.0929
  154SAPE  H18X17180   4.868   2.750   8.674  0.5839 -1.8790  0.1768
  154SAPE  H18Y17181   4.932   2.760   8.518  2.3416 -0.6111  2.5066
  154SAPE  H18Z17182   4.806   2.640   8.536 -1.5731  1.3789 -0.1344
  155SAPE     N17183   4.276   6.503   6.403 -0.9934 -0.4550  0.5599
  155SAPE   HN117184   4.358   6.474   6.346 -0.9924  0.1674  0.2410
  155SAPE   HN217185   4.296   6.604   6.409 -1.2914 -0.4662  2.8006
  155SAPE   HN317186   4.270   6.475   6.503 -1.1552  3.4929  1.8240
  155SAPE   C1217187   4.146   6.493   6.339  0.1015  0.1762 -0.3585
  155SAPE  H12A17188   4.111   6.387   6.337  0.9966 -0.1493  0.3111
  155SAPE  H12B17189   4.142   6.524   6.232 -2.7210 -5.6547 -2.4280
  155SAPE   C1117190   4.043   6.575   6.408 -0.2995  1.0230  0.1726
  155SAPE  H11A17191   4.019   6.536   6.510  1.2379  3.8551  1.7429
  155SAPE  H11B17192   3.949   6.565   6.349 -1.2321  1.3155  1.5657
  155SAPE     P17193   3.999   6.828   6.424 -0.3014 -0.0390 -0.1237
  155SAPE   O1317194   3.980   6.872   6.282  1.0228  0.2942 -0.3965
  155SAPE   O1417195   3.886   6.809   6.513 -0.0891 -0.2625  0.0447
  155SAPE   O1217196   4.090   6.706   6.415 -0.2155 -0.3192  0.6054
  155SAPE   O1117197   4.093   6.936   6.501  0.5008  0.0429 -0.0118
  155SAPE    C117198   4.192   6.896   6.596 -0.0174  0.2241  0.5440
  155SAPE    HA17199   4.196   6.785   6.605  1.8607 -0.2007 -3.4369
  155SAPE    HB17200   4.296   6.928   6.572  0.5115 -1.1793  0.8171
  155SAPE    C217201   4.167   6.964   6.733  0.6547  0.1082  0.1074
  155SAPE    HS17202   4.240   6.938   6.813  1.9365  0.0644 -1.0598
  155SAPE   O2117203   4.043   6.915   6.782  0.5524 -0.5429 -0.0544
  155SAPE   C2117204   4.048   6.794   6.822 -0.4880  0.1059  0.1344
  155SAPE   O2217205   4.146   6.716   6.820  0.2343 -0.1843  0.4618
  155SAPE   C2217206   3.924   6.760   6.898 -0.6849  0.4115  0.0782
  155SAPE   H2R17207   3.849   6.842   6.907 -1.4788 -0.5130  2.4986
  155SAPE   H2S17208   3.866   6.679   6.849 -2.5007  1.9707 -0.5062
  155SAPE    C317209   4.154   7.116   6.719 -0.2175 -0.5303 -0.9899
  155SAPE    HX17210   4.090   7.153   6.636 -0.3333  0.5351 -0.4388
  155SAPE    HY17211   4.258   7.153   6.707 -0.0894 -0.9621 -1.2114
  155SAPE   O3117212   4.113   7.182   6.844  0.1951 -0.1509 -0.5956
  155SAPE   C3117213   3.987   7.208   6.858  0.1195 -0.0451  0.4966
  155SAPE   O3217214   3.893   7.179   6.779 -0.0064 -0.3153  0.2973
  155SAPE   C3217215   3.967   7.287   6.992 -0.8479  0.4518  0.1143
  155SAPE   H2X17216   3.859   7.290   7.020 -0.7338 -2.4805  1.2476
  155SAPE   H2Y17217   3.997   7.393   6.974 -0.0607  0.3127  0.5544
  155SAPE   C2317218   3.970   6.708   7.037 -0.2592  0.4117  0.0802
  155SAPE   H3R17219   4.017   6.798   7.082  0.9207 -0.6671  1.0723
  155SAPE   H3S17220   4.045   6.628   7.028 -0.9659 -0.2187 -0.2757
  155SAPE   C2417221   3.863   6.649   7.134 -0.2666  0.4762 -0.4353
  155SAPE   H4R17222   3.905   6.609   7.229 -3.8589 -1.2555  0.5771
  155SAPE   H4S17223   3.822   6.556   7.088 -0.3405  0.1493  0.2719
  155SAPE   C2517224   3.757   6.751   7.162 -0.9029  0.3181 -0.3526
  155SAPE   H5R17225   3.712   6.800   7.074 -0.8370  1.0644  0.0208
  155SAPE   C2617226   3.716   6.790   7.286 -0.5531  0.0393  0.1609
  155SAPE   H6R17227   3.637   6.867   7.277 -1.0952 -0.4175  0.8235
  155SAPE   C2717228   3.754   6.744   7.430  0.3306 -0.7113 -0.4024
  155SAPE   H7R17229   3.855   6.697   7.434 -0.6182 -3.1241 -2.1803
  155SAPE   H7S17230   3.678   6.670   7.462 -1.4939  1.6364  1.0055
  155SAPE   C2817231   3.728   6.870   7.518 -0.6273 -0.2528 -0.0369
  155SAPE   H8R17232   3.705   6.966   7.471 -0.1532 -1.1242 -2.1536
  155SAPE   C2917233   3.744   6.870   7.654 -0.7321  0.7602 -0.6253
  155SAPE   H9R17234   3.723   6.953   7.722  1.7447  0.7127  0.2888
  155SAPE  C21017235   3.784   6.745   7.724  0.0790 -0.4811 -0.1827
  155SAPE  H10R17236   3.777   6.652   7.664  0.3547  0.1303 -1.1898
  155SAPE  H10S17237   3.718   6.739   7.814  0.6953  1.1448  0.4073
  155SAPE  C21117238   3.929   6.744   7.761 -0.1090  1.0876  0.0413
  155SAPE  H11R17239   3.996   6.779   7.681  1.4685  0.3223  0.9961
  155SAPE  C21217240   3.981   6.700   7.873 -1.1894  0.5853 -0.7015
  155SAPE  H12R17241   4.089   6.709   7.890 -0.9192 -3.4564  1.0091
  155SAPE  C21317242   3.908   6.644   7.991 -0.0902 -0.1426  0.3826
  155SAPE  H13R17243   3.911   6.534   7.973 -0.4276 -0.1428  0.3127
  155SAPE  H13S17244   3.801   6.674   7.978  0.2368  0.1164 -2.3252
  155SAPE  C21417245   3.970   6.680   8.123  0.3153 -0.2291 -0.7636
  155SAPE  H14R17246   4.063   6.625   8.143  0.4379  0.0084 -0.6817
  155SAPE  C21517247   3.908   6.747   8.216  0.3645  0.0239  0.2570
  155SAPE  H15R17248   3.949   6.756   8.317 -0.9378 -0.0427  0.8142
  155SAPE  C21617249   3.766   6.812   8.208  0.5075 -0.0846  0.6757
  155SAPE  H16R17250   3.718   6.746   8.133  1.3930  1.2550 -1.1599
  155SAPE  H16S17251   3.780   6.912   8.161  0.3717  0.1137  1.0527
  155SAPE  C21717252   3.693   6.818   8.340  0.4699 -0.4010  0.2561
  155SAPE  H17R17253   3.596   6.869   8.322  1.0912  1.1389  1.0754
  155SAPE  H17S17254   3.749   6.893   8.401 -2.1083  0.3844  1.8374
  155SAPE  C21817255   3.675   6.686   8.416 -0.1452  0.7122 -0.4589
  155SAPE  H18R17256   3.773   6.669   8.465 -0.0122  2.4296 -0.0695
  155SAPE  H18S17257   3.642   6.599   8.356 -1.1313  1.4000 -0.9522
  155SAPE  C21917258   3.581   6.707   8.531  0.1601 -0.4926  0.1604
  155SAPE  H19R17259   3.480   6.719   8.487 -0.3836 -1.3148  1.1563
  155SAPE  H19S17260   3.589   6.806   8.580  0.5397  0.6071 -1.9842
  155SAPE  C22017261   3.583   6.582   8.619 -0.8218 -0.1834  0.4510
  155SAPE  H20R17262   3.497   6.575   8.689 -0.2486 -0.1881  1.1672
  155SAPE  H20S17263   3.672   6.595   8.685 -1.8091  1.6294  1.4926
  155SAPE  H20T17264   3.595   6.490   8.558 -1.0942  1.0837 -1.6016
  155SAPE   C3317265   4.047   7.230   7.108 -0.3190 -0.0809 -0.1626
  155SAPE   H3X17266   4.038   7.288   7.202 -0.7557  2.7933 -1.8477
  155SAPE   H3Y17267   4.156   7.218   7.096 -0.2686 -3.1938  2.2254
  155SAPE   C3417268   3.997   7.092   7.136 -0.9861  0.0668  0.2133
  155SAPE   H4X17269   3.985   7.034   7.042  1.4534 -1.0184  0.4853
  155SAPE   H4Y17270   3.894   7.095   7.176 -1.2768 -2.3550 -0.2158
  155SAPE   C3517271   4.084   7.011   7.232 -0.5851  0.1028 -0.1937
  155SAPE   H5X17272   4.165   6.972   7.167 -0.9823  2.6908 -2.4286
  155SAPE   H5Y17273   4.018   6.927   7.263 -0.4135 -0.2085 -0.6608
  155SAPE   C3617274   4.135   7.091   7.347 -0.7740  0.5463  0.0789
  155SAPE   H6X17275   4.050   7.132   7.406  1.1069  0.2593  3.2566
  155SAPE   H6Y17276   4.204   7.172   7.317 -0.1534 -0.1236 -0.3560
  155SAPE   C3717277   4.212   6.994   7.440 -0.7250  0.3701  0.0945
  155SAPE   H7X17278   4.313   6.962   7.407 -0.3655  0.1792  1.3290
  155SAPE   H7Y17279   4.154   6.899   7.446 -0.7309  0.3123 -0.7803
  155SAPE   C3817280   4.224   7.051   7.580 -0.3041  0.3319  0.6484
  155SAPE   H8X17281   4.135   7.109   7.612  0.3796  3.1236 -2.0531
  155SAPE   H8Y17282   4.304   7.128   7.581 -0.3289  0.3958 -0.5654
  155SAPE   C3917283   4.274   6.954   7.690  0.0967 -0.0361  0.4175
  155SAPE   H9X17284   4.378   6.926   7.662 -0.0728  0.5035 -0.8048
  155SAPE   H9Y17285   4.208   6.864   7.687  0.8123 -0.5405 -1.2636
  155SAPE  C31017286   4.280   7.017   7.823  0.4180  0.9918  0.7448
  155SAPE  H10X17287   4.355   7.098   7.816 -0.0368  1.3021 -1.2856
  155SAPE  H10Y17288   4.299   6.936   7.897 -4.0005 -0.5518  0.4845
  155SAPE  C31117289   4.144   7.068   7.873 -0.0204 -0.1973  0.6466
  155SAPE  H11X17290   4.068   6.989   7.850 -1.0900  1.3782 -1.6114
  155SAPE  H11Y17291   4.122   7.160   7.815  1.7338 -0.1342  0.0160
  155SAPE  C31217292   4.158   7.106   8.019  0.6229 -0.0060 -0.0338
  155SAPE  H12X17293   4.244   7.174   8.035 -0.2861  1.6011 -1.5894
  155SAPE  H12Y17294   4.173   7.013   8.078  1.1337 -0.1182 -0.3334
  155SAPE  C31317295   4.019   7.171   8.055 -0.2300 -0.1629 -0.1927
  155SAPE  H13X17296   3.948   7.090   8.029  0.7573 -0.4660 -2.0743
  155SAPE  H13Y17297   3.998   7.258   7.989 -1.7113  0.9669  1.6552
  155SAPE  C31417298   4.008   7.209   8.202 -1.1332 -0.2429 -0.0975
  155SAPE  H14X17299   4.100   7.268   8.226 -1.4987  0.2311  0.1451
  155SAPE  H14Y17300   3.989   7.120   8.266 -1.3505  0.1592  0.4082
  155SAPE  C31517301   3.888   7.301   8.250 -0.2314 -0.2455 -0.3018
  155SAPE  H15X17302   3.802   7.306   8.180  0.1264  0.0650 -0.7232
  155SAPE  H15Y17303   3.933   7.402   8.263  0.9154 -0.9590  1.5237
  155SAPE  C31617304   3.831   7.252   8.382  0.1662 -0.5120 -0.2081
  155SAPE  H16X17305   3.909   7.233   8.459 -0.4934  1.0444  0.8825
  155SAPE  H16Y17306   3.773   7.158   8.374 -1.6988  0.3812  1.7021
  155SAPE  C31717307   3.745   7.363   8.440  0.2995 -0.3087 -0.0964
  155SAPE  H17X17308   3.671   7.405   8.369 -0.2189 -1.1377 -0.0566
  155SAPE  H17Y17309   3.814   7.448   8.461 -2.0982  1.5015  0.9529
  155SAPE  C31817310   3.671   7.322   8.565  0.1595  0.2828 -0.1251
  155SAPE  H18X17311   3.747   7.293   8.641  0.9842 -1.0211 -1.4143
  155SAPE  H18Y17312   3.608   7.234   8.542 -0.9942  0.9926  0.2279
  155SAPE  H18Z17313   3.613   7.402   8.616  3.1992  2.4716  0.2043
  156SAPE     N17314   2.460   0.317   6.014  0.4237  0.0878  0.6817
  156SAPE   HN117315   2.410   0.328   5.923  2.2972 -1.9907 -0.6940
  156SAPE   HN217316   2.463   0.216   6.038 -2.6324 -0.4235 -0.5784
  156SAPE   HN317317   2.392   0.363   6.078 -2.2386 -0.6548 -1.4238
  156SAPE   C1217318   2.584   0.397   6.020  0.5347 -0.8440  0.9600
  156SAPE  H12A17319   2.563   0.497   5.976 -0.6033 -1.5602 -0.1856
  156SAPE  H12B17320   2.657   0.353   5.949 -2.2410  0.3077 -2.9496
  156SAPE   C1117321   2.640   0.377   6.160 -0.2035  0.6595  0.1763
  156SAPE  H11A17322   2.562   0.396   6.237  1.9372 -2.9505  3.5721
  156SAPE  H11B17323   2.715   0.458   6.167 -1.4982  2.1513 -1.8923
  156SAPE     P17324   2.777   0.220   6.314 -0.1129  0.0906 -0.3705
  156SAPE   O1317325   2.846   0.089   6.298 -0.3069  0.4387  0.3969
  156SAPE   O1417326   2.874   0.333   6.330 -0.1073 -0.3700 -0.5132
  156SAPE   O1217327   2.681   0.246   6.182  0.2692  0.1655 -0.3291
  156SAPE   O1117328   2.682   0.207   6.440 -0.4388 -0.0268  0.1946
  156SAPE    C117329   2.649   0.311   6.526 -0.6719  0.4005 -0.0193
  156SAPE    HA17330   2.696   0.409   6.505 -2.7842  1.2354 -1.1199
  156SAPE    HB17331   2.538   0.321   6.531 -0.6678  1.0023 -0.9734
  156SAPE    C217332   2.689   0.281   6.675 -0.0573  0.0440 -0.0806
  156SAPE    HS17333   2.796   0.252   6.682 -0.9246 -3.0457  3.1375
  156SAPE   O2117334   2.606   0.178   6.732 -0.0091  0.7240 -0.3681
  156SAPE   C2117335   2.661   0.061   6.723  0.6678 -0.7768  0.2757
  156SAPE   O2217336   2.775   0.037   6.681 -0.1812  0.2894  0.3115
  156SAPE   C2217337   2.565  -0.033   6.793 -0.6033  0.1662 -0.3770
  156SAPE   H2R17338   2.557   0.006   6.897  0.1838  1.5511 -0.7997
  156SAPE   H2S17339   2.465  -0.024   6.746 -1.9641 -1.4760  1.9962
  156SAPE    C317340   2.677   0.409   6.762 -0.2231  0.0145  0.1678
  156SAPE    HX17341   2.571   0.441   6.767  0.1032  0.9189  1.9458
  156SAPE    HY17342   2.742   0.487   6.716  1.4998 -1.5260 -0.0960
  156SAPE   O3117343   2.732   0.388   6.894  0.3762  0.6667 -0.2768
  156SAPE   C3117344   2.651   0.334   6.981  0.6579 -0.0523  0.8108
  156SAPE   O3217345   2.529   0.337   6.972 -0.6550 -0.5351 -0.3654
  156SAPE   C3217346   2.725   0.263   7.089 -0.2348 -0.0909 -0.3803
  156SAPE   H2X17347   2.786   0.342   7.137 -0.5680 -0.5888  0.9011
  156SAPE   H2Y17348   2.789   0.181   7.050 -1.5741 -0.8197 -1.1381
  156SAPE   C2317349   2.610  -0.176   6.787 -0.5487 -0.1896  0.1887
  156SAPE   H3R17350   2.609  -0.204   6.679  1.7236  0.6442 -0.0957
  156SAPE   H3S17351   2.532  -0.234   6.841 -2.8349  1.8039 -0.7764
  156SAPE   C2417352   2.750  -0.210   6.861  0.2578 -0.1706  0.1588
  156SAPE   H4R17353   2.745  -0.169   6.965 -0.2391  0.0382  0.0559
  156SAPE   H4S17354   2.834  -0.156   6.812 -0.3161  0.5435 -0.0644
  156SAPE   C2517355   2.761  -0.364   6.871 -0.0616  0.2672 -0.6657
  156SAPE   H5R17356   2.771  -0.422   6.778 -1.9238 -2.4853  0.7383
  156SAPE   C2617357   2.759  -0.438   6.983  0.0476 -0.1178 -0.1112
  156SAPE   H6R17358   2.772  -0.547   6.976  0.0655 -0.3021  1.9622
  156SAPE   C2717359   2.760  -0.390   7.125  0.3087  0.1916  0.2709
  156SAPE   H7R17360   2.660  -0.342   7.131 -0.3350 -1.1888  0.9093
  156SAPE   H7S17361   2.841  -0.320   7.155  0.5322 -0.5230  1.4084
  156SAPE   C2817362   2.765  -0.510   7.218 -0.3399  0.4018  1.0712
  156SAPE   H8R17363   2.828  -0.595   7.191 -0.8902 -0.2230  1.7106
  156SAPE   C2917364   2.694  -0.525   7.326 -0.1707  0.5823 -0.1103
  156SAPE   H9R17365   2.707  -0.621   7.378  0.1219 -0.3603 -1.8385
  156SAPE  C21017366   2.600  -0.431   7.395 -0.4280 -0.2155  0.2765
  156SAPE  H10R17367   2.587  -0.331   7.349  1.2594  0.1152  0.4661
  156SAPE  H10S17368   2.647  -0.408   7.493  3.0873  0.9730 -1.5386
  156SAPE  C21117369   2.467  -0.501   7.420  0.0800  0.2325 -0.6405
  156SAPE  H11R17370   2.401  -0.491   7.333  0.0406  1.9016 -0.4590
  156SAPE  C21217371   2.425  -0.562   7.539  0.3550 -0.3419 -0.1206
  156SAPE  H12R17372   2.325  -0.607   7.553  0.4426 -0.9931 -1.4701
  156SAPE  C21317373   2.505  -0.561   7.667  0.2208 -0.2757 -0.0193
  156SAPE  H13R17374   2.437  -0.574   7.753  1.0774 -1.3594  0.5102
  156SAPE  H13S17375   2.533  -0.455   7.688 -0.2018 -0.5687  2.2264
  156SAPE  C21417376   2.625  -0.658   7.690 -0.1795 -0.7265  0.2618
  156SAPE  H14R17377   2.680  -0.694   7.602  1.2749  2.1566 -0.1354
  156SAPE  C21517378   2.687  -0.682   7.810 -0.0250  0.0339 -0.0566
  156SAPE  H15R17379   2.760  -0.763   7.822  0.3102  0.5487  1.5994
  156SAPE  C21617380   2.641  -0.632   7.942 -0.3741 -0.0967  0.5830
  156SAPE  H16R17381   2.584  -0.537   7.942  2.2268  1.6253  2.5408
  156SAPE  H16S17382   2.733  -0.617   8.002 -0.5896 -1.1781  1.2039
  156SAPE  C21717383   2.570  -0.745   8.016 -0.0453 -0.2518  0.5581
  156SAPE  H17R17384   2.630  -0.829   8.058 -1.1847 -1.0209  0.6856
  156SAPE  H17S17385   2.503  -0.794   7.941  1.8887 -2.1560 -0.0359
  156SAPE  C21817386   2.476  -0.689   8.130  0.3317  0.2862 -0.0257
  156SAPE  H18R17387   2.424  -0.770   8.185  2.0591 -1.3224 -0.6664
  156SAPE  H18S17388   2.406  -0.633   8.063  2.2021  1.5707 -1.0136
  156SAPE  C21917389   2.528  -0.586   8.237 -0.2713  0.6383  0.1428
  156SAPE  H19R17390   2.561  -0.498   8.178 -1.3306  0.2131 -1.1070
  156SAPE  H19S17391   2.616  -0.627   8.292 -2.5896  0.3306  3.9531
  156SAPE  C22017392   2.428  -0.544   8.344  0.0435 -0.0436  0.1417
  156SAPE  H20R17393   2.485  -0.479   8.413 -0.3775 -2.1227  2.5813
  156SAPE  H20S17394   2.385  -0.630   8.399  3.0408 -1.3668  0.5988
  156SAPE  H20T17395   2.345  -0.488   8.296  1.0891  1.2221 -0.2491
  156SAPE   C3317396   2.624   0.205   7.189 -0.6389  0.4138  0.1226
  156SAPE   H3X17397   2.567   0.123   7.140 -2.1834  2.0348 -0.9367
  156SAPE   H3Y17398   2.554   0.289   7.206 -0.9826  0.7722 -2.6058
  156SAPE   C3417399   2.687   0.159   7.320 -0.0527  0.2165 -0.0960
  156SAPE   H4X17400   2.609   0.144   7.398  0.1578  0.4440  0.1605
  156SAPE   H4Y17401   2.754   0.234   7.367  3.5764 -2.2342 -0.9526
  156SAPE   C3517402   2.776   0.036   7.310 -0.4363  0.0642 -0.0344
  156SAPE   H5X17403   2.868   0.069   7.256 -1.0478 -1.2534 -1.9793
  156SAPE   H5Y17404   2.717  -0.043   7.259 -0.8860 -0.0392  0.6362
  156SAPE   C3617405   2.811  -0.006   7.450 -0.1564  0.0795 -0.2368
  156SAPE   H6X17406   2.721  -0.033   7.510  1.2209 -1.4701  1.2353
  156SAPE   H6Y17407   2.863   0.076   7.505 -1.6541 -0.1441  1.5931
  156SAPE   C3717408   2.907  -0.126   7.456  0.3613 -0.0741 -0.2975
  156SAPE   H7X17409   2.994  -0.099   7.393  0.5272  0.2338  0.0628
  156SAPE   H7Y17410   2.856  -0.214   7.412  2.2571 -1.0401 -0.6790
  156SAPE   C3817411   2.945  -0.155   7.599  0.0806  0.5556 -0.3444
  156SAPE   H8X17412   3.001  -0.251   7.598  2.5004  1.8900 -0.0877
  156SAPE   H8Y17413   2.863  -0.175   7.670  0.8138  1.0147  0.6482
  156SAPE   C3917414   3.041  -0.059   7.666 -1.0029 -0.0709 -0.3375
  156SAPE   H9X17415   3.008   0.047   7.667  1.1252  0.7022 -2.3194
  156SAPE   H9Y17416   3.140  -0.066   7.615 -1.1438  2.8023 -1.1816
  156SAPE  C31017417   3.083  -0.108   7.804  0.1416  0.0085 -0.0458
  156SAPE  H10X17418   3.123  -0.211   7.813  0.4563  0.1580  0.3088
  156SAPE  H10Y17419   2.995  -0.095   7.870 -0.2919 -0.5758 -0.5011
  156SAPE  C31117420   3.192  -0.033   7.879 -0.5688  0.1027  0.4083
  156SAPE  H11X17421   3.196   0.075   7.853  0.0022  0.6555  2.5578
  156SAPE  H11Y17422   3.289  -0.077   7.845  0.0326  2.1646 -0.6963
  156SAPE  C31217423   3.174  -0.053   8.031  1.2137  0.5163  0.6708
  156SAPE  H12X17424   3.163  -0.159   8.060  0.1924  0.6416  0.7531
  156SAPE  H12Y17425   3.081  -0.006   8.069  1.6317  1.2385  0.8372
  156SAPE  C31317426   3.293   0.003   8.116  1.0226  0.0937 -0.3854
  156SAPE  H13X17427   3.291   0.113   8.099  0.1542  0.0016 -0.9657
  156SAPE  H13Y17428   3.387  -0.043   8.077  1.0063 -0.0163 -0.2946
  156SAPE  C31417429   3.273  -0.013   8.268 -0.2439  0.2491  0.0414
  156SAPE  H14X17430   3.353   0.053   8.308  0.7593 -0.5470 -0.6206
  156SAPE  H14Y17431   3.310  -0.114   8.293 -1.5874 -0.1012  0.7172
  156SAPE  C31517432   3.133   0.019   8.319  0.4959  0.2809 -0.3380
  156SAPE  H15X17433   3.063  -0.062   8.292  0.5322  0.4922 -1.0981
  156SAPE  H15Y17434   3.100   0.117   8.278 -0.9234 -0.4615 -1.0446
  156SAPE  C31617435   3.135   0.031   8.470 -0.4527  0.1247  0.5678
  156SAPE  H16X17436   3.045   0.080   8.512  0.3131  1.1883  1.0164
  156SAPE  H16Y17437   3.232   0.078   8.495  0.1407 -0.8080  0.0811
  156SAPE  C31717438   3.151  -0.098   8.551  0.0475  0.8342  0.4183
  156SAPE  H17X17439   3.219  -0.152   8.483 -2.2414  0.0038 -1.3497
  156SAPE  H17Y17440   3.054  -0.153   8.547  0.8038 -0.6208  1.3074
  156SAPE  C31817441   3.201  -0.095   8.695  0.1622  0.2732  0.0742
  156SAPE  H18X17442   3.140  -0.018   8.746  0.4662  1.0271 -0.6962
  156SAPE  H18Y17443   3.310  -0.073   8.701  0.8509 -2.6071 -0.4012
  156SAPE  H18Z17444   3.186  -0.196   8.740 -1.5817  0.9122  1.0419
  157SAPE     N17445   0.024   1.520   6.480  0.4274  0.2751 -0.1917
  157SAPE   HN117446  -0.046   1.490   6.551 -0.5667  0.2516 -1.1508
  157SAPE   HN217447   0.076   1.447   6.426  0.9422  0.2421  0.3400
  157SAPE   HN317448   0.094   1.571   6.538 -0.9296  2.7321 -0.5556
  157SAPE   C1217449  -0.040   1.633   6.391  0.0970 -0.2737  0.0059
  157SAPE  H12A17450  -0.113   1.680   6.460  0.0534 -0.0546 -0.1880
  157SAPE  H12B17451  -0.074   1.584   6.298  2.3700  1.0251 -1.6162
  157SAPE   C1117452   0.076   1.720   6.338 -0.4130  0.2587 -0.9539
  157SAPE  H11A17453   0.039   1.802   6.273 -1.2680  0.9851  0.3854
  157SAPE  H11B17454   0.150   1.663   6.278 -0.1739  2.0126 -2.3763
  157SAPE     P17455   0.198   1.910   6.479 -0.1827  0.2624 -0.5237
  157SAPE   O1317456   0.304   1.905   6.579 -0.4861 -0.3713 -0.3909
  157SAPE   O1417457   0.224   1.978   6.353  0.0468 -0.4278 -0.2026
  157SAPE   O1217458   0.156   1.759   6.449 -0.1970  0.0433  0.2995
  157SAPE   O1117459   0.070   1.969   6.548 -0.2111 -0.6120 -0.1271
  157SAPE    C117460  -0.015   1.907   6.646 -0.4628 -0.4588  0.2362
  157SAPE    HA17461  -0.117   1.947   6.629 -0.8711 -1.0098  1.2989
  157SAPE    HB17462  -0.012   1.796   6.635 -0.0522 -0.4190 -0.0856
  157SAPE    C217463   0.028   1.938   6.791  0.0177  0.2956  0.6529
  157SAPE    HS17464   0.038   2.049   6.793 -0.7105  0.4758 -1.6984
  157SAPE   O2117465   0.149   1.864   6.820 -0.1913  0.4671 -0.1514
  157SAPE   C2117466   0.220   1.930   6.912  0.0730 -0.4746 -0.3794
  157SAPE   O2217467   0.196   2.038   6.965 -0.0369  0.0387  0.0023
  157SAPE   C2217468   0.345   1.840   6.949  0.5283  0.6454  0.0088
  157SAPE   H2R17469   0.391   1.801   6.856  0.6850  3.8840 -1.4142
  157SAPE   H2S17470   0.425   1.904   6.992  0.4898 -1.2132  3.1297
  157SAPE    C317471  -0.097   1.907   6.880 -0.1262  0.1736 -0.0019
  157SAPE    HX17472  -0.113   1.797   6.875 -1.3281  0.3321  0.0927
  157SAPE    HY17473  -0.188   1.955   6.839  0.1565  1.7048  1.0678
  157SAPE   O3117474  -0.077   1.946   7.018  0.5049 -0.1332 -0.0988
  157SAPE   C3117475  -0.111   2.070   7.052  0.1904  0.5315 -0.3396
  157SAPE   O3217476  -0.164   2.153   6.977  0.2016 -0.2494  0.5135
  157SAPE   C3217477  -0.101   2.092   7.197  0.6717 -0.1122 -0.4648
  157SAPE   H2X17478  -0.082   1.993   7.243 -1.6324 -1.1034 -1.4863
  157SAPE   H2Y17479  -0.206   2.121   7.218  0.9180  1.7133 -1.4678
  157SAPE   C2317480   0.298   1.734   7.048  0.3342  0.2390  0.3056
  157SAPE   H3R17481   0.355   1.639   7.054  1.2732  0.6183 -1.6723
  157SAPE   H3S17482   0.199   1.699   7.011  1.5890 -0.8056 -2.2759
  157SAPE   C2417483   0.302   1.802   7.189 -0.6890  0.7433  0.8770
  157SAPE   H4R17484   0.216   1.872   7.198 -1.1981  0.5373 -1.6669
  157SAPE   H4S17485   0.393   1.865   7.192 -0.9888  1.5892 -2.9832
  157SAPE   C2517486   0.304   1.706   7.312 -0.0008  0.0082  0.5703
  157SAPE   H5R17487   0.392   1.641   7.322 -0.5658 -1.8177 -3.7823
  157SAPE   C2617488   0.204   1.692   7.405 -0.2928  0.2927 -0.2730
  157SAPE   H6R17489   0.223   1.633   7.496 -0.2684  0.6332 -0.0572
  157SAPE   C2717490   0.072   1.765   7.411  0.3998  0.3531  0.3887
  157SAPE   H7R17491   0.047   1.768   7.303  0.3668 -0.6480  0.3551
  157SAPE   H7S17492   0.085   1.873   7.431 -5.1318  1.5316 -0.7409
  157SAPE   C2817493  -0.044   1.702   7.489 -0.6478  0.0897  0.4701
  157SAPE   H8R17494  -0.106   1.646   7.419 -1.6949  1.5365  0.1925
  157SAPE   C2917495  -0.082   1.709   7.613  0.2078 -0.3091 -0.1644
  157SAPE   H9R17496  -0.168   1.650   7.649 -1.4634  2.5167  0.8410
  157SAPE  C21017497  -0.013   1.791   7.717 -0.2361  0.3750 -0.2309
  157SAPE  H10R17498  -0.070   1.886   7.727 -0.6112 -0.0438  2.5996
  157SAPE  H10S17499   0.084   1.832   7.682  0.8706 -1.7332  0.2174
  157SAPE  C21117500   0.026   1.737   7.859  0.2595  0.6163  0.1469
  157SAPE  H11R17501   0.055   1.631   7.846  1.7672  1.1023 -0.6587
  157SAPE  C21217502   0.016   1.793   7.979  0.1562 -0.1260 -0.1866
  157SAPE  H12R17503   0.056   1.738   8.066 -0.5614  0.3932  0.4857
  157SAPE  C21317504  -0.025   1.937   8.005 -0.0073 -0.9583 -0.1614
  157SAPE  H13R17505  -0.130   1.951   8.038  0.3259  0.0954  0.4978
  157SAPE  H13S17506  -0.016   2.005   7.918 -1.2154 -0.2964  0.2115
  157SAPE  C21417507   0.078   1.989   8.104 -0.0575  0.4962  0.1335
  157SAPE  H14R17508   0.182   1.963   8.079 -0.1251  1.6224 -1.5153
  157SAPE  C21517509   0.051   2.046   8.220 -0.1704 -0.4734  0.5949
  157SAPE  H15R17510   0.126   2.040   8.301  0.2021 -4.0350  0.1704
  157SAPE  C21617511  -0.090   2.067   8.259  0.3975 -1.5646 -0.3966
  157SAPE  H16R17512  -0.150   1.979   8.290 -1.4148 -0.9189 -1.9044
  157SAPE  H16S17513  -0.152   2.121   8.185  0.1498  1.2577  1.7038
  157SAPE  C21717514  -0.087   2.162   8.380 -0.3685  0.0137  0.0760
  157SAPE  H17R17515  -0.040   2.256   8.343  0.5374 -1.4747 -2.8404
  157SAPE  H17S17516  -0.024   2.119   8.461  1.1659 -2.0582 -2.0879
  157SAPE  C21817517  -0.224   2.194   8.439 -0.0382 -0.6735  0.1641
  157SAPE  H18R17518  -0.291   2.107   8.458 -0.4044 -1.2765 -3.2200
  157SAPE  H18S17519  -0.282   2.249   8.361 -1.3530  0.6142  1.9725
  157SAPE  C21917520  -0.233   2.292   8.551  0.7281 -0.2147 -0.3945
  157SAPE  H19R17521  -0.174   2.377   8.509 -0.8638  1.0952 -0.0619
  157SAPE  H19S17522  -0.197   2.249   8.647  1.6769 -0.0837 -0.6764
  157SAPE  C22017523  -0.370   2.338   8.581 -0.0431  0.0826  0.3694
  157SAPE  H20R17524  -0.418   2.381   8.490 -2.1087 -0.7460  0.9963
  157SAPE  H20S17525  -0.370   2.415   8.661 -0.4598  1.5817 -0.9961
  157SAPE  H20T17526  -0.424   2.247   8.614  0.2649 -0.1264  0.2964
  157SAPE   C3317527  -0.003   2.199   7.249 -0.1601  0.8934  0.7870
  157SAPE   H3X17528  -0.042   2.302   7.230  1.6367  1.6941  1.1814
  157SAPE   H3Y17529   0.083   2.195   7.178 -1.4856 -0.1699 -0.8038
  157SAPE   C3417530   0.033   2.189   7.396 -0.0347 -0.3584 -0.5044
  157SAPE   H4X17531   0.106   2.269   7.421 -0.3324 -0.5623  1.0908
  157SAPE   H4Y17532   0.087   2.092   7.401  2.3497  0.4278 -5.1802
  157SAPE   C3517533  -0.090   2.172   7.490 -0.0293  0.2634  0.6936
  157SAPE   H5X17534  -0.153   2.081   7.479  0.1364 -0.4410  4.3411
  157SAPE   H5Y17535  -0.151   2.262   7.467  2.0049  1.9877  1.6829
  157SAPE   C3617536  -0.068   2.165   7.644 -0.5040 -0.3729  0.5597
  157SAPE   H6X17537  -0.011   2.254   7.679  0.6650 -2.2587  3.9512
  157SAPE   H6Y17538   0.003   2.081   7.660 -0.6127 -1.0186 -1.9023
  157SAPE   C3717539  -0.197   2.168   7.732  0.0085 -0.2042  0.6056
  157SAPE   H7X17540  -0.189   2.096   7.817 -0.9651 -1.9629 -0.7309
  157SAPE   H7Y17541  -0.290   2.136   7.680 -0.8967 -0.4497  2.2707
  157SAPE   C3817542  -0.222   2.306   7.800 -0.1120 -0.2141  0.4848
  157SAPE   H8X17543  -0.225   2.389   7.726 -0.0294 -1.1251 -0.5595
  157SAPE   H8Y17544  -0.146   2.326   7.879 -1.0823 -0.3407  1.4800
  157SAPE   C3917545  -0.357   2.318   7.876  0.8377  0.1589 -0.4346
  157SAPE   H9X17546  -0.364   2.228   7.940  2.8971 -0.9268 -1.6190
  157SAPE   H9Y17547  -0.445   2.305   7.809  1.9407  0.1750 -1.9470
  157SAPE  C31017548  -0.385   2.458   7.942  0.1180  0.9028 -0.3725
  157SAPE  H10X17549  -0.493   2.481   7.928  0.6295  1.6965 -3.8414
  157SAPE  H10Y17550  -0.323   2.525   7.879  0.8724  0.5469 -0.0132
  157SAPE  C31117551  -0.317   2.480   8.084 -0.0497  0.2421  0.4473
  157SAPE  H11X17552  -0.224   2.420   8.082 -0.1382  0.0727  1.2192
  157SAPE  H11Y17553  -0.382   2.442   8.166  0.2495  0.7319  0.9194
  157SAPE  C31217554  -0.292   2.628   8.100 -0.3781 -0.1937 -1.3278
  157SAPE  H12X17555  -0.388   2.684   8.087 -0.6062  0.6360  2.6633
  157SAPE  H12Y17556  -0.218   2.669   8.028 -0.4760 -0.1995 -1.4321
  157SAPE  C31317557  -0.242   2.658   8.245  0.2325  0.0514 -0.2021
  157SAPE  H13X17558  -0.165   2.586   8.278 -0.9057 -1.3730 -0.5535
  157SAPE  H13Y17559  -0.335   2.630   8.299  1.2477  0.5928  1.9205
  157SAPE  C31417560  -0.193   2.804   8.273  0.6370  1.1083  0.3414
  157SAPE  H14X17561  -0.214   2.830   8.379  2.2533 -0.4833  1.1108
  157SAPE  H14Y17562  -0.236   2.880   8.204 -0.2655  1.6643  1.4787
  157SAPE  C31517563  -0.043   2.815   8.272  0.6463  0.8792  0.2163
  157SAPE  H15X17564  -0.019   2.773   8.172 -1.6342  2.1032 -0.9434
  157SAPE  H15Y17565  -0.010   2.752   8.357  0.8672  2.8635  1.6611
  157SAPE  C31617566   0.006   2.956   8.287  0.2766  0.1552  0.7240
  157SAPE  H16X17567  -0.012   3.001   8.387  0.6270  0.4709  0.6496
  157SAPE  H16Y17568  -0.045   3.023   8.216  0.3724  0.1511  0.6516
  157SAPE  C31717569   0.162   2.974   8.273 -0.2209  0.0696  0.3626
  157SAPE  H17X17570   0.214   2.913   8.350 -0.8501  0.1386  0.8545
  157SAPE  H17Y17571   0.179   3.081   8.295 -0.9610  0.2082  0.2730
  157SAPE  C31817572   0.221   2.941   8.132 -0.1563  0.4055 -0.9164
  157SAPE  H18X17573   0.147   2.963   8.052 -0.7334 -0.9475 -0.7805
  157SAPE  H18Y17574   0.227   2.831   8.121 -2.4390  0.1260 -0.0105
  157SAPE  H18Z17575   0.320   2.988   8.120  0.3704  0.4538  2.5267
  158SAPE     N17576   1.511   0.985   6.337 -0.4253 -0.0140  0.0257
  158SAPE   HN117577   1.509   1.063   6.268 -3.1403  1.0985  1.2471
  158SAPE   HN217578   1.612   0.973   6.363 -0.8972  0.1244  2.1008
  158SAPE   HN317579   1.467   0.905   6.287  0.5258  1.1233 -2.8500
  158SAPE   C1217580   1.432   0.996   6.459 -0.0308 -1.0494  0.3031
  158SAPE  H12A17581   1.339   1.049   6.427  0.6762  1.2346  1.7892
  158SAPE  H12B17582   1.491   1.051   6.535 -2.1629  1.3747  0.3527
  158SAPE   C1117583   1.402   0.851   6.506 -0.1902 -0.4121 -0.1878
  158SAPE  H11A17584   1.365   0.850   6.611  2.0370  0.0247  0.6624
  158SAPE  H11B17585   1.495   0.791   6.510 -0.3155 -0.6234 -0.4218
  158SAPE     P17586   1.285   0.637   6.410 -0.5427  0.1319 -0.0925
  158SAPE   O1317587   1.192   0.618   6.299 -0.2492  0.0418 -0.2519
  158SAPE   O1417588   1.415   0.561   6.406  0.0996 -0.4806  0.1752
  158SAPE   O1217589   1.314   0.792   6.416 -0.4665  0.2851  0.0851
  158SAPE   O1117590   1.207   0.612   6.544  0.0507 -0.2977  0.9063
  158SAPE    C117591   1.208   0.505   6.634  0.1639  0.7986  0.8112
  158SAPE    HA17592   1.201   0.410   6.577  3.2470  0.9466 -0.0022
  158SAPE    HB17593   1.307   0.513   6.684 -0.1113  0.4933  1.4124
  158SAPE    C217594   1.093   0.515   6.727  1.1800  0.3966  0.2684
  158SAPE    HS17595   0.993   0.526   6.681 -0.2799 -1.5531  2.7136
  158SAPE   O2117596   1.118   0.625   6.814 -0.1591  0.3660  0.6180
  158SAPE   C2117597   1.017   0.672   6.888  0.3165  0.0353 -0.3390
  158SAPE   O2217598   0.901   0.640   6.887 -0.1774  0.4066  0.0824
  158SAPE   C2217599   1.084   0.782   6.972 -0.4466  0.2984 -0.0905
  158SAPE   H2R17600   1.026   0.795   7.066 -1.2650  0.9143 -0.6597
  158SAPE   H2S17601   1.189   0.752   6.986 -0.3627  0.5907 -0.0906
  158SAPE    C317602   1.081   0.378   6.805 -0.1312 -0.3899 -0.6101
  158SAPE    HX17603   1.177   0.364   6.859 -0.7147 -1.2347  0.2434
  158SAPE    HY17604   1.082   0.299   6.728 -2.3586 -1.8396  0.7076
  158SAPE   O3117605   0.985   0.373   6.911  1.0284 -0.1413 -0.4950
  158SAPE   C3117606   0.862   0.336   6.874 -1.0140 -0.0202  0.1545
  158SAPE   O3217607   0.831   0.307   6.760  0.2994  0.2948 -0.1518
  158SAPE   C3217608   0.767   0.337   6.998 -0.1423  0.3793  0.2912
  158SAPE   H2X17609   0.657   0.328   6.982 -0.2256  0.6037  0.7314
  158SAPE   H2Y17610   0.780   0.435   7.048  0.0336  1.5370 -1.9117
  158SAPE   C2317611   1.075   0.918   6.889 -0.4065 -0.0801 -0.2936
  158SAPE   H3R17612   0.970   0.924   6.853 -1.2343  4.2147  2.1993
  158SAPE   H3S17613   1.147   0.918   6.804  1.3804  1.9229  1.1050
  158SAPE   C2417614   1.091   1.041   6.974 -0.5514  0.0169 -0.4452
  158SAPE   H4R17615   1.021   1.043   7.061  0.6891 -0.8128  0.6066
  158SAPE   H4S17616   1.072   1.133   6.914  1.7184  1.1299  0.4239
  158SAPE   C2517617   1.239   1.046   7.018  0.5765  0.1873 -0.6859
  158SAPE   H5R17618   1.315   1.070   6.942  1.6328  0.9671  0.5752
  158SAPE   C2617619   1.280   1.039   7.144  0.6615 -0.6332  0.1959
  158SAPE   H6R17620   1.385   1.066   7.166  0.3646 -0.2919  1.2655
  158SAPE   C2717621   1.192   1.021   7.271 -1.0228  0.1829  0.3706
  158SAPE   H7R17622   1.249   0.973   7.353 -1.7571  0.2205  0.9115
  158SAPE   H7S17623   1.109   0.948   7.260  1.8329 -3.7986  2.7683
  158SAPE   C2817624   1.123   1.139   7.331  0.2695 -0.0069 -0.5424
  158SAPE   H8R17625   1.069   1.204   7.261  0.6505  2.5899  1.4324
  158SAPE   C2917626   1.125   1.177   7.464  0.6237  0.2061  0.4090
  158SAPE   H9R17627   1.058   1.261   7.489  2.4091  2.4658 -1.8023
  158SAPE  C21017628   1.184   1.089   7.578  0.3552  0.3375  0.1457
  158SAPE  H10R17629   1.172   0.985   7.541 -0.1283  0.1086  0.9285
  158SAPE  H10S17630   1.128   1.102   7.672 -0.5462 -1.4584 -0.1038
  158SAPE  C21117631   1.331   1.106   7.597 -0.2131 -0.4917  0.4469
  158SAPE  H11R17632   1.372   1.161   7.511 -1.5936  1.6031  1.0694
  158SAPE  C21217633   1.415   1.044   7.679 -0.3345  0.4316 -0.3653
  158SAPE  H12R17634   1.524   1.049   7.686 -0.1497 -2.4269  0.0117
  158SAPE  C21317635   1.375   0.936   7.775  0.5414  0.0366 -0.3478
  158SAPE  H13R17636   1.453   0.857   7.769 -1.9046 -2.5885  0.0164
  158SAPE  H13S17637   1.293   0.869   7.739 -0.5198  0.3357  1.3958
  158SAPE  C21417638   1.340   1.014   7.902 -0.3968  0.1875  0.3848
  158SAPE  H14R17639   1.247   1.072   7.903 -1.3276 -1.1017 -2.1621
  158SAPE  C21517640   1.419   1.012   8.010  0.0178  0.2042  0.4276
  158SAPE  H15R17641   1.388   1.075   8.095 -0.6246 -0.1832  0.4889
  158SAPE  C21617642   1.544   0.931   8.022  0.2632  0.0965  0.3533
  158SAPE  H16R17643   1.630   1.002   8.019  0.0348  0.3589 -1.5045
  158SAPE  H16S17644   1.552   0.876   7.925  0.4584  1.7840 -0.6333
  158SAPE  C21717645   1.536   0.812   8.117  0.7370 -0.6255 -1.0502
  158SAPE  H17R17646   1.625   0.746   8.109  2.0933  0.6883  1.6227
  158SAPE  H17S17647   1.442   0.753   8.103 -0.5349  1.1048 -0.2229
  158SAPE  C21817648   1.531   0.849   8.272 -0.2140  0.0254 -0.5472
  158SAPE  H18R17649   1.453   0.926   8.292  0.8295  2.3259 -4.3286
  158SAPE  H18S17650   1.634   0.885   8.293  0.5329 -0.7310 -2.6788
  158SAPE  C21917651   1.508   0.717   8.352 -0.0839 -0.0952 -1.2310
  158SAPE  H19R17652   1.594   0.647   8.340  1.0308  1.2548 -1.4430
  158SAPE  H19S17653   1.415   0.668   8.319 -0.5721  1.1150 -1.7169
  158SAPE  C22017654   1.488   0.751   8.497  0.5441  0.0662 -0.0542
  158SAPE  H20R17655   1.480   0.660   8.561  0.3873 -0.3967 -0.7224
  158SAPE  H20S17656   1.390   0.803   8.499 -1.0913 -2.7808  0.0175
  158SAPE  H20T17657   1.559   0.822   8.545  1.9995 -0.7147 -0.9970
  158SAPE   C3317658   0.806   0.232   7.113 -0.0321 -0.4065  0.7670
  158SAPE   H3X17659   0.917   0.226   7.111  0.2276  2.5687 -1.4473
  158SAPE   H3Y17660   0.764   0.132   7.093  2.3628 -1.1139 -1.2566
  158SAPE   C3417661   0.765   0.277   7.253  0.8675  0.4159 -0.3488
  158SAPE   H4X17662   0.789   0.385   7.268 -0.7207  0.9135 -1.2401
  158SAPE   H4Y17663   0.824   0.215   7.325  1.2867  0.7553 -0.3942
  158SAPE   C3517664   0.618   0.255   7.286 -0.3650  0.0851 -0.1490
  158SAPE   H5X17665   0.569   0.247   7.187  1.2014 -1.0792 -0.8776
  158SAPE   H5Y17666   0.581   0.346   7.337  0.3938 -0.8480  2.2069
  158SAPE   C3617667   0.587   0.133   7.371 -0.6047 -0.1214  0.0016
  158SAPE   H6X17668   0.650   0.139   7.462 -0.0027 -0.9736 -0.3437
  158SAPE   H6Y17669   0.618   0.037   7.324 -1.4236 -1.7791  2.6481
  158SAPE   C3717670   0.442   0.117   7.402  0.1020  0.3670 -0.3091
  158SAPE   H7X17671   0.390   0.215   7.402  1.1324  0.9339  0.5319
  158SAPE   H7Y17672   0.402   0.047   7.325  0.2799 -0.6218  0.4810
  158SAPE   C3817673   0.412   0.056   7.539  0.0021 -0.4658 -0.8461
  158SAPE   H8X17674   0.445   0.143   7.600  1.1317 -1.5091  0.0716
  158SAPE   H8Y17675   0.483  -0.026   7.563 -0.0223 -0.1837  0.2782
  158SAPE   C3917676   0.269   0.007   7.560 -1.2379  0.4474 -0.3012
  158SAPE   H9X17677   0.272  -0.098   7.523  0.2223  0.0139  0.9226
  158SAPE   H9Y17678   0.204   0.062   7.489 -1.5397  2.6647  1.5697
  158SAPE  C31017679   0.228   0.018   7.708 -0.8881 -0.0379  0.7636
  158SAPE  H10X17680   0.124  -0.016   7.725 -1.3653  0.3173 -1.1943
  158SAPE  H10Y17681   0.233   0.123   7.743  0.6973  0.1032  0.2331
  158SAPE  C31117682   0.305  -0.076   7.798 -0.3270 -0.1766  0.2949
  158SAPE  H11X17683   0.404  -0.027   7.816 -0.1033 -1.4039  2.8516
  158SAPE  H11Y17684   0.327  -0.177   7.757  0.1361 -1.0692  2.5940
  158SAPE  C31217685   0.246  -0.092   7.940 -0.0568 -0.5793  0.6244
  158SAPE  H12X17686   0.143  -0.134   7.948  0.1106 -0.8664  1.2818
  158SAPE  H12Y17687   0.233   0.015   7.966 -0.9161 -0.3255 -0.7064
  158SAPE  C31317688   0.350  -0.142   8.045 -0.3976 -0.3829 -0.2724
  158SAPE  H13X17689   0.440  -0.078   8.036 -0.2485 -0.2009  2.0111
  158SAPE  H13Y17690   0.376  -0.248   8.020  1.8364  0.1762 -0.6107
  158SAPE  C31417691   0.305  -0.117   8.193  0.9369  0.9446  0.4309
  158SAPE  H14X17692   0.378  -0.158   8.265  0.3627 -1.0776 -0.0542
  158SAPE  H14Y17693   0.209  -0.173   8.201 -0.1981  2.4563 -1.4539
  158SAPE  C31517694   0.281   0.026   8.232  0.2329  0.4228  0.1377
  158SAPE  H15X17695   0.198   0.058   8.166  1.7021 -1.5149 -2.8296
  158SAPE  H15Y17696   0.377   0.069   8.195  0.0712 -0.8298 -1.8834
  158SAPE  C31617697   0.255   0.045   8.381  0.1090  0.2597 -0.6396
  158SAPE  H16X17698   0.330  -0.006   8.444 -0.9781  0.9311  1.3062
  158SAPE  H16Y17699   0.161  -0.006   8.412 -0.3516  0.8628 -1.0270
  158SAPE  C31717700   0.264   0.189   8.428 -0.8366 -0.1827  1.4079
  158SAPE  H17X17701   0.176   0.248   8.393 -0.9028 -2.5247 -3.0875
  158SAPE  H17Y17702   0.355   0.226   8.376 -1.7123 -1.0773 -0.8777
  158SAPE  C31817703   0.288   0.205   8.577  0.0936 -0.0660  0.1108
  158SAPE  H18X17704   0.207   0.154   8.633  0.0424 -1.0946 -0.8711
  158SAPE  H18Y17705   0.321   0.309   8.598 -0.5624 -0.1423  1.6880
  158SAPE  H18Z17706   0.374   0.140   8.605  1.0189  1.3636  0.6878
  159SAPE     N17707   1.113   1.484   5.983 -0.8309 -0.1842  0.3210
  159SAPE   HN117708   1.063   1.499   5.894 -0.5881 -0.7241  0.0876
  159SAPE   HN217709   1.127   1.381   5.989 -0.9333 -0.1611  1.1246
  159SAPE   HN317710   1.037   1.501   6.053 -3.3962  1.1360 -2.5490
  159SAPE   C1217711   1.227   1.570   6.022 -0.0289 -0.6218 -0.1529
  159SAPE  H12A17712   1.190   1.671   5.995 -0.5053 -0.9760 -0.8641
  159SAPE  H12B17713   1.314   1.540   5.961  0.1640  0.6245 -0.5179
  159SAPE   C1117714   1.251   1.556   6.176  0.4485  0.4677  0.3454
  159SAPE  H11A17715   1.164   1.598   6.230  0.4540  0.1869  0.5753
  159SAPE  H11B17716   1.338   1.621   6.201 -0.0267  0.9190  0.8551
  159SAPE     P17717   1.288   1.368   6.361 -0.0349  0.2488  0.0840
  159SAPE   O1317718   1.191   1.259   6.362  1.1784 -0.3638 -0.0133
  159SAPE   O1417719   1.427   1.336   6.411  0.4843  0.0517  0.6135
  159SAPE   O1217720   1.282   1.426   6.218  0.7328 -0.3572 -0.2248
  159SAPE   O1117721   1.228   1.493   6.431  0.8820 -0.0441 -0.1002
  159SAPE    C117722   1.305   1.594   6.497 -0.1178 -0.5839  0.9019
  159SAPE    HA17723   1.394   1.635   6.445 -2.3075  1.6866 -1.3696
  159SAPE    HB17724   1.243   1.686   6.491  0.5691 -0.1687  0.0590
  159SAPE    C217725   1.343   1.556   6.643  0.1480  0.0473  0.0473
  159SAPE    HS17726   1.398   1.460   6.641  1.9264  1.0267  0.4668
  159SAPE   O2117727   1.219   1.550   6.716  0.0495  0.0762 -0.0309
  159SAPE   C2117728   1.211   1.470   6.817 -0.5857  0.1093  0.5416
  159SAPE   O2217729   1.299   1.388   6.848 -0.9326  0.0142  0.1567
  159SAPE   C2217730   1.095   1.513   6.902  0.4064  0.1473  0.8521
  159SAPE   H2R17731   1.096   1.624   6.903 -0.1526  0.1530  1.2527
  159SAPE   H2S17732   1.000   1.479   6.856  1.1251  0.2102 -0.7502
  159SAPE    C317733   1.438   1.659   6.708 -0.0135  0.2771 -0.3413
  159SAPE    HX17734   1.385   1.754   6.733  0.1195 -0.0803  1.4237
  159SAPE    HY17735   1.515   1.678   6.630  0.3950  0.2687  0.0581
  159SAPE   O3117736   1.487   1.601   6.827 -0.0501  0.1866  0.3019
  159SAPE   C3117737   1.598   1.526   6.822  0.6282 -0.2085 -1.0981
  159SAPE   O3217738   1.664   1.496   6.726 -0.0991  0.3346 -0.1388
  159SAPE   C3217739   1.620   1.461   6.962 -0.5237  0.3316  0.6616
  159SAPE   H2X17740   1.526   1.419   7.005  0.1619  0.9755  2.8956
  159SAPE   H2Y17741   1.656   1.542   7.028  0.4149  2.1350 -1.8892
  159SAPE   C2317742   1.102   1.449   7.049  0.3224 -0.0568  0.5879
  159SAPE   H3R17743   1.114   1.340   7.033 -0.1617  0.0241 -0.3752
  159SAPE   H3S17744   1.004   1.465   7.097  0.1062  1.1579 -0.2217
  159SAPE   C2417745   1.228   1.507   7.134  0.3576  0.5136  0.6743
  159SAPE   H4R17746   1.317   1.508   7.067  0.2149  1.0490  0.4869
  159SAPE   H4S17747   1.244   1.447   7.226 -3.0689  1.2025  1.8599
  159SAPE   C2517748   1.189   1.649   7.178 -0.1557  0.1735 -0.2060
  159SAPE   H5R17749   1.176   1.723   7.098  1.7424  0.3884 -0.3550
  159SAPE   C2617750   1.188   1.699   7.308 -0.0594  0.1070 -0.0316
  159SAPE   H6R17751   1.153   1.803   7.319 -0.6958 -0.0124 -0.8819
  159SAPE   C2717752   1.229   1.630   7.436 -0.4559  0.4732  0.9759
  159SAPE   H7R17753   1.267   1.704   7.510  1.0934 -0.7417  1.4731
  159SAPE   H7S17754   1.318   1.567   7.414 -1.0117  0.0156  0.0203
  159SAPE   C2817755   1.121   1.545   7.501 -0.0002 -0.3896  0.2916
  159SAPE   H8R17756   1.027   1.528   7.447 -0.9418  0.5641  1.5781
  159SAPE   C2917757   1.137   1.483   7.621  0.1090  0.2212  0.3974
  159SAPE   H9R17758   1.059   1.418   7.662 -0.4575 -0.9343 -2.2607
  159SAPE  C21017759   1.255   1.500   7.713 -0.4766  0.1294  0.6880
  159SAPE  H10R17760   1.320   1.586   7.689  0.7126 -0.5530  1.3749
  159SAPE  H10S17761   1.319   1.413   7.684  0.5777  1.4052 -0.9975
  159SAPE  C21117762   1.225   1.506   7.856  0.9549 -0.0768 -0.1484
  159SAPE  H11R17763   1.144   1.438   7.887 -1.4829  1.9461 -1.6068
  159SAPE  C21217764   1.275   1.591   7.944 -0.1012 -0.3245 -0.2173
  159SAPE  H12R17765   1.236   1.582   8.046  0.8587 -1.8427  0.0469
  159SAPE  C21317766   1.364   1.713   7.923  1.0184  1.0300 -0.6101
  159SAPE  H13R17767   1.335   1.793   7.994  0.3162 -1.3468  1.9403
  159SAPE  H13S17768   1.348   1.754   7.820 -0.4984  0.3250 -0.6831
  159SAPE  C21417769   1.510   1.675   7.946  0.9463 -0.7948  0.3994
  159SAPE  H14R17770   1.518   1.582   8.004  0.7775 -0.3564  1.1418
  159SAPE  C21517771   1.618   1.745   7.906  0.1454 -0.0751 -0.5391
  159SAPE  H15R17772   1.713   1.705   7.944  0.4028  2.1042  1.3139
  159SAPE  C21617773   1.632   1.870   7.832 -0.2202 -1.1913  0.9483
  159SAPE  H16R17774   1.736   1.907   7.834 -0.5626 -0.0332 -0.8605
  159SAPE  H16S17775   1.555   1.941   7.870 -1.0685 -2.4091  1.6048
  159SAPE  C21717776   1.592   1.860   7.681 -0.0608 -0.1443  0.2736
  159SAPE  H17R17777   1.485   1.829   7.679  0.5265 -2.2659 -0.8489
  159SAPE  H17S17778   1.658   1.787   7.631  0.7525 -0.6288  1.9938
  159SAPE  C21817779   1.605   1.999   7.606  0.2225  0.1858  0.3479
  159SAPE  H18R17780   1.532   2.069   7.651 -1.6155 -1.6500  0.3743
  159SAPE  H18S17781   1.565   2.001   7.503 -2.3366 -3.1815  1.1058
  159SAPE  C21917782   1.741   2.069   7.602  0.1449  0.6168  0.3377
  159SAPE  H19R17783   1.808   1.984   7.577 -1.1717 -0.2433 -0.4566
  159SAPE  H19S17784   1.771   2.096   7.705 -1.8853 -1.2565  1.5137
  159SAPE  C22017785   1.749   2.183   7.504  0.0796 -0.8100 -0.1386
  159SAPE  H20R17786   1.725   2.136   7.406  0.4475  0.8578 -1.0772
  159SAPE  H20S17787   1.849   2.231   7.497 -0.0068 -0.6394 -0.2161
  159SAPE  H20T17788   1.672   2.261   7.521 -0.4199 -1.3828  0.2885
  159SAPE   C3317789   1.721   1.341   6.969 -0.3262  0.2273  1.4026
  159SAPE   H3X17790   1.820   1.390   6.956 -0.8805  1.0441  0.0861
  159SAPE   H3Y17791   1.701   1.255   6.902  1.0861 -1.7485  3.3523
  159SAPE   C3417792   1.724   1.262   7.102  0.3073 -0.7381 -0.7542
  159SAPE   H4X17793   1.619   1.260   7.139  0.4906 -0.1355 -0.1835
  159SAPE   H4Y17794   1.796   1.324   7.160 -1.8172  1.0095  0.1421
  159SAPE   C3517795   1.769   1.116   7.094  0.5554 -0.2081 -0.2297
  159SAPE   H5X17796   1.862   1.096   7.036  0.4785  2.0273 -1.2143
  159SAPE   H5Y17797   1.703   1.044   7.039 -1.1842 -0.4787  2.0739
  159SAPE   C3617798   1.795   1.050   7.232 -0.0466  0.1244 -0.5872
  159SAPE   H6X17799   1.859   1.109   7.301  1.2353 -0.8062 -0.9385
  159SAPE   H6Y17800   1.841   0.950   7.216  2.5174  1.2952 -1.1851
  159SAPE   C3717801   1.660   1.017   7.303  0.2989 -0.0180 -0.1631
  159SAPE   H7X17802   1.585   0.986   7.227  0.3777  1.7548 -1.0178
  159SAPE   H7Y17803   1.621   1.106   7.357 -0.2969  0.8341 -1.9277
  159SAPE   C3817804   1.678   0.899   7.404 -0.3184 -0.3057 -0.1738
  159SAPE   H8X17805   1.707   0.810   7.345  0.7765 -0.1527  0.1048
  159SAPE   H8Y17806   1.586   0.876   7.461  0.7227 -2.1231  0.8876
  159SAPE   C3917807   1.796   0.928   7.510 -0.0023  1.0187 -0.1557
  159SAPE   H9X17808   1.788   1.033   7.545  0.9966  1.0711 -0.0424
  159SAPE   H9Y17809   1.898   0.913   7.468 -0.8200 -1.2547 -1.4991
  159SAPE  C31017810   1.779   0.828   7.625  0.6791  0.1537  0.3938
  159SAPE  H10X17811   1.813   0.726   7.597  1.4907  0.6938 -0.6232
  159SAPE  H10Y17812   1.673   0.810   7.653  0.5503 -0.1432 -0.2673
  159SAPE  C31117813   1.852   0.866   7.750  0.3281  0.5263  0.4210
  159SAPE  H11X17814   1.808   0.957   7.795  0.1599  1.3096 -1.2532
  159SAPE  H11Y17815   1.958   0.895   7.733  1.0386 -1.1652  1.6510
  159SAPE  C31217816   1.854   0.762   7.860 -0.9810 -0.2832  0.2152
  159SAPE  H12X17817   1.878   0.666   7.809 -2.4324  0.0554 -1.1898
  159SAPE  H12Y17818   1.753   0.760   7.905 -1.2035  0.9913 -0.1784
  159SAPE  C31317819   1.958   0.793   7.969  0.7548 -0.2897 -0.0142
  159SAPE  H13X17820   1.919   0.888   8.013  0.0455 -0.1541 -0.9045
  159SAPE  H13Y17821   2.065   0.797   7.939  0.6151  2.4343 -0.4277
  159SAPE  C31417822   1.944   0.693   8.088 -0.0447 -0.5901 -1.0978
  159SAPE  H14X17823   2.023   0.618   8.070 -0.2460 -0.7170 -1.4612
  159SAPE  H14Y17824   1.841   0.657   8.107  0.6212 -0.5069  3.8323
  159SAPE  C31517825   1.971   0.765   8.225 -1.0048 -0.2845  0.2456
  159SAPE  H15X17826   1.886   0.836   8.237 -1.9189 -1.3354  0.1157
  159SAPE  H15Y17827   2.069   0.817   8.215 -0.2248 -1.8703 -0.8334
  159SAPE  C31617828   1.982   0.657   8.333 -0.8952  0.2865  0.3911
  159SAPE  H16X17829   1.904   0.579   8.320  0.0715 -0.6042 -0.2357
  159SAPE  H16Y17830   1.969   0.709   8.430  0.1392  4.9196 -1.6252
  159SAPE  C31717831   2.121   0.588   8.325  0.2894 -0.3401  0.0486
  159SAPE  H17X17832   2.199   0.660   8.356 -1.3218  1.1709  0.7259
  159SAPE  H17Y17833   2.148   0.566   8.219 -1.7849 -0.5552 -0.4936
  159SAPE  C31817834   2.148   0.465   8.417 -0.3312  0.3802 -0.5546
  159SAPE  H18X17835   2.093   0.375   8.380  0.0172 -0.0829  0.0276
  159SAPE  H18Y17836   2.118   0.484   8.522 -1.1400 -1.5701 -0.3918
  159SAPE  H18Z17837   2.255   0.436   8.424 -0.8973 -2.1121 -1.0350
  160SAPE     N17838   1.617   0.511   6.572 -0.0912 -0.8410  0.8935
  160SAPE   HN117839   1.697   0.572   6.543 -0.3080  0.1126  2.1932
  160SAPE   HN217840   1.541   0.514   6.501 -0.6194 -0.4983  1.4666
  160SAPE   HN317841   1.589   0.555   6.662  2.8678 -0.7267  1.8986
  160SAPE   C1217842   1.662   0.370   6.603  0.5218 -0.0683 -0.1627
  160SAPE  H12A17843   1.756   0.372   6.663  0.3557  2.7385  0.1063
  160SAPE  H12B17844   1.689   0.334   6.501 -0.6228  1.0272 -0.8884
  160SAPE   C1117845   1.561   0.283   6.680  0.6868  0.0886 -0.1272
  160SAPE  H11A17846   1.540   0.349   6.767 -1.1870  0.4441 -0.8145
  160SAPE  H11B17847   1.612   0.188   6.707  0.1551 -0.0735  0.3331
  160SAPE     P17848   1.393   0.124   6.552 -0.0838 -0.1752 -0.5974
  160SAPE   O1317849   1.288   0.129   6.453 -0.9083  0.5180  0.3112
  160SAPE   O1417850   1.509   0.054   6.502 -0.0509 -0.8858  0.1789
  160SAPE   O1217851   1.435   0.271   6.607  0.1216 -0.6362  0.4322
  160SAPE   O1117852   1.345   0.069   6.695  0.0183  0.0422  0.1676
  160SAPE    C117853   1.294  -0.068   6.698 -0.0457 -0.0615 -0.0978
  160SAPE    HA17854   1.187  -0.067   6.729  0.2561  1.2779  1.0020
  160SAPE    HB17855   1.300  -0.123   6.602  0.5670 -2.4583  1.2501
  160SAPE    C217856   1.370  -0.158   6.801 -0.4726 -0.5503  0.1141
  160SAPE    HS17857   1.316  -0.255   6.796 -2.6150  0.4701  1.7320
  160SAPE   O2117858   1.356  -0.104   6.933 -0.5305 -0.1261 -0.0305
  160SAPE   C2117859   1.237  -0.098   6.983 -0.0396 -0.4641  0.2458
  160SAPE   O2217860   1.135  -0.144   6.937  0.8962  0.1757  0.2724
  160SAPE   C2217861   1.235  -0.021   7.113 -0.4170  0.0894  0.4864
  160SAPE   H2R17862   1.329  -0.055   7.163 -0.2946 -1.3632 -0.6895
  160SAPE   H2S17863   1.244   0.089   7.097 -2.1088 -0.0703 -2.1175
  160SAPE    C317864   1.518  -0.174   6.762 -0.0920  0.7910  0.3484
  160SAPE    HX17865   1.576  -0.088   6.801  1.0870  0.2728 -0.2047
  160SAPE    HY17866   1.523  -0.188   6.652  0.9686 -0.6158  0.5457
  160SAPE   O3117867   1.570  -0.285   6.838  0.4041  0.4080 -0.0117
  160SAPE   C3117868   1.705  -0.304   6.817 -1.1276 -0.8919 -0.1458
  160SAPE   O3217869   1.768  -0.245   6.733 -0.0242  0.1010  0.0172
  160SAPE   C3217870   1.762  -0.395   6.926  0.2271  0.4922  0.0215
  160SAPE   H2X17871   1.727  -0.499   6.908 -2.3987  1.0283  1.4246
  160SAPE   H2Y17872   1.710  -0.368   7.021  0.5286 -0.1633  0.3770
  160SAPE   C2317873   1.107  -0.032   7.198  0.0363 -0.2519  0.4135
  160SAPE   H3R17874   1.069  -0.136   7.193  1.0965 -0.5986 -0.8494
  160SAPE   H3S17875   1.032   0.035   7.150 -1.6452 -0.7683  2.1415
  160SAPE   C2417876   1.123   0.002   7.350  0.4132  0.7734 -0.3481
  160SAPE   H4R17877   1.176   0.099   7.358 -0.2332  0.9855  2.1334
  160SAPE   H4S17878   1.203  -0.061   7.394  1.5928  2.0535 -0.5725
  160SAPE   C2517879   0.987  -0.013   7.422 -0.1998 -1.1490 -0.7313
  160SAPE   H5R17880   0.901   0.016   7.361 -1.2101 -1.1716  0.6348
  160SAPE   C2617881   0.970  -0.054   7.550 -0.1904  0.6970  0.2053
  160SAPE   H6R17882   0.866  -0.050   7.583 -1.1308 -0.3091 -2.3563
  160SAPE   C2717883   1.076  -0.094   7.647 -0.1485  0.7633  0.6630
  160SAPE   H7R17884   1.046  -0.089   7.754  0.4961 -0.0824  0.8956
  160SAPE   H7S17885   1.160  -0.023   7.633 -0.9086  1.1132 -3.4621
  160SAPE   C2817886   1.151  -0.225   7.612 -0.1609 -0.1689  0.2531
  160SAPE   H8R17887   1.206  -0.229   7.517 -0.3980 -1.3630  0.1568
  160SAPE   C2917888   1.160  -0.335   7.693  0.1164  0.2235 -0.4588
  160SAPE   H9R17889   1.207  -0.424   7.648 -0.1550 -0.7040  1.0212
  160SAPE  C21017890   1.105  -0.357   7.835  0.1473 -0.6767 -0.5067
  160SAPE  H10R17891   1.002  -0.399   7.829 -0.4992  0.9289 -1.3594
  160SAPE  H10S17892   1.076  -0.258   7.877  2.2613 -0.1886 -0.1004
  160SAPE  C21117893   1.187  -0.422   7.938 -0.6073 -0.3444 -0.3213
  160SAPE  H11R17894   1.293  -0.392   7.946  0.0241 -2.3469 -0.4602
  160SAPE  C21217895   1.133  -0.497   8.038 -0.4296  0.0534 -0.0508
  160SAPE  H12R17896   1.199  -0.536   8.117  0.9427  0.5973 -0.8803
  160SAPE  C21317897   0.984  -0.527   8.048  0.3726 -0.2315 -0.0730
  160SAPE  H13R17898   0.951  -0.595   7.967  0.9269 -1.8618  1.0252
  160SAPE  H13S17899   0.927  -0.432   8.038  0.2534 -0.4263 -1.4001
  160SAPE  C21417900   0.956  -0.573   8.184  0.2641  0.2142 -0.0548
  160SAPE  H14R17901   1.030  -0.550   8.263 -0.7168  3.3884  0.1076
  160SAPE  C21517902   0.843  -0.634   8.215  0.3933  0.2377  0.1915
  160SAPE  H15R17903   0.836  -0.668   8.319 -0.6586  1.4018  0.5318
  160SAPE  C21617904   0.725  -0.654   8.118 -1.3535  0.0087  0.6266
  160SAPE  H16R17905   0.739  -0.753   8.069  2.0979  1.0066 -0.6816
  160SAPE  H16S17906   0.717  -0.575   8.040  0.6360 -0.5334 -0.1975
  160SAPE  C21717907   0.597  -0.681   8.182 -0.1828  0.2343 -0.5185
  160SAPE  H17R17908   0.569  -0.592   8.243 -1.0107 -0.9422  0.8910
  160SAPE  H17S17909   0.605  -0.770   8.249 -1.2175 -1.6591 -2.7640
  160SAPE  C21817910   0.483  -0.692   8.081  0.1240  0.3378  0.6738
  160SAPE  H18R17911   0.462  -0.592   8.039 -1.5017  0.1383  0.9246
  160SAPE  H18S17912   0.385  -0.712   8.131  0.5213 -2.0909  0.6244
  160SAPE  C21917913   0.490  -0.800   7.967 -0.0395 -0.1864  0.1304
  160SAPE  H19R17914   0.577  -0.864   7.992  0.5726  0.4839 -0.2234
  160SAPE  H19S17915   0.511  -0.753   7.869 -1.1698  0.4235  0.1604
  160SAPE  C22017916   0.357  -0.882   7.952 -0.3039 -0.1684 -0.1549
  160SAPE  H20R17917   0.345  -0.954   8.036 -2.4223  1.7520  1.2942
  160SAPE  H20S17918   0.359  -0.936   7.855  0.2090 -0.9209  0.2625
  160SAPE  H20T17919   0.269  -0.815   7.951  1.3410  2.2376  1.9768
  160SAPE   C3317920   1.913  -0.393   6.948  0.0476  0.1914  0.9978
  160SAPE   H3X17921   1.955  -0.292   6.971  1.3435 -0.4755  1.6552
  160SAPE   H3Y17922   1.973  -0.416   6.857  2.1929  1.7783  1.9184
  160SAPE   C3417923   1.966  -0.500   7.055  0.3470 -0.5602 -0.3393
  160SAPE   H4X17924   2.077  -0.506   7.052  0.4599  0.4095  1.1845
  160SAPE   H4Y17925   1.935  -0.598   7.012  2.0056 -0.6801 -1.3506
  160SAPE   C3517926   1.928  -0.469   7.199 -0.2195  0.0080 -0.2814
  160SAPE   H5X17927   1.819  -0.471   7.223  0.0511  0.6810  1.0789
  160SAPE   H5Y17928   1.969  -0.367   7.214  1.7937 -0.7185 -0.5703
  160SAPE   C3617929   1.988  -0.568   7.306 -1.1014  0.1189  0.4612
  160SAPE   H6X17930   2.099  -0.565   7.303 -1.0985  0.3096  0.7645
  160SAPE   H6Y17931   1.961  -0.670   7.273  1.4858  0.0095 -1.7394
  160SAPE   C3717932   1.939  -0.538   7.449 -0.4713 -0.0395  0.2227
  160SAPE   H7X17933   1.832  -0.568   7.453 -0.7053  0.6063 -0.8102
  160SAPE   H7Y17934   1.953  -0.428   7.463  1.0266 -0.1377 -0.3470
  160SAPE   C3817935   2.012  -0.620   7.552  0.1208 -0.1594  0.9406
  160SAPE   H8X17936   2.120  -0.592   7.561  0.1031  0.3386 -0.2392
  160SAPE   H8Y17937   2.014  -0.726   7.521 -0.5416  0.0345  0.2368
  160SAPE   C3917938   1.946  -0.627   7.692  0.1594 -0.5624  0.1508
  160SAPE   H9X17939   1.861  -0.696   7.673 -0.1275 -0.0592 -0.4071
  160SAPE   H9Y17940   1.916  -0.526   7.727 -0.9438  0.4914 -3.4431
  160SAPE  C31017941   2.040  -0.691   7.791 -0.2291  0.5747 -0.1392
  160SAPE  H10X17942   2.140  -0.644   7.782 -0.0193  0.4488  1.3166
  160SAPE  H10Y17943   2.064  -0.793   7.757 -2.0265  0.1554 -0.2530
  160SAPE  C31117944   2.006  -0.672   7.938  0.8005 -0.4282  0.7508
  160SAPE  H11X17945   1.897  -0.688   7.952  0.6276 -0.7573 -0.8048
  160SAPE  H11Y17946   2.025  -0.567   7.971 -0.0615 -0.4391  1.3331
  160SAPE  C31217947   2.086  -0.775   8.024 -0.0629  0.3425  0.1579
  160SAPE  H12X17948   2.196  -0.760   8.028 -0.1469  1.9292 -1.7769
  160SAPE  H12Y17949   2.061  -0.873   7.979 -2.3821  1.4151 -1.1324
  160SAPE  C31317950   2.030  -0.784   8.169 -0.4721 -0.5704  0.2435
  160SAPE  H13X17951   2.086  -0.871   8.211  1.9250 -0.0676 -1.6805
  160SAPE  H13Y17952   1.921  -0.802   8.157 -1.0456  0.5877  2.9246
  160SAPE  C31417953   2.067  -0.667   8.256 -0.0164 -0.1103 -0.2223
  160SAPE  H14X17954   1.999  -0.581   8.242  1.3981  0.6012 -3.8409
  160SAPE  H14Y17955   2.169  -0.635   8.227 -0.3739  0.3458 -1.0323
  160SAPE  C31517956   2.061  -0.688   8.405 -0.4164  0.2901  1.0623
  160SAPE  H15X17957   2.124  -0.608   8.448  0.1491  0.2721  0.2977
  160SAPE  H15Y17958   2.104  -0.788   8.428 -2.9700 -1.6843 -1.9092
  160SAPE  C31617959   1.924  -0.663   8.463  0.4888  0.7022  0.0774
  160SAPE  H16X17960   1.852  -0.740   8.428 -0.3027  1.4355  0.0590
  160SAPE  H16Y17961   1.876  -0.566   8.439 -1.1429 -0.0322  0.2070
  160SAPE  C31717962   1.920  -0.680   8.621  0.9305 -0.0718 -0.9358
  160SAPE  H17X17963   2.013  -0.644   8.670 -0.0296  1.0153  0.1597
  160SAPE  H17Y17964   1.925  -0.790   8.636 -1.8095  0.0893  2.4101
  160SAPE  C31817965   1.794  -0.626   8.696  0.1693 -0.3212  0.2329
  160SAPE  H18X17966   1.807  -0.516   8.700  1.9136 -0.5451  1.8577
  160SAPE  H18Y17967   1.785  -0.660   8.801 -0.6245 -1.7448 -0.2585
  160SAPE  H18Z17968   1.699  -0.652   8.644  0.7990  1.4850 -1.9842
  161SOPE     N17969   5.779   3.065  10.913 -0.0834  0.7393  0.7939
  161SOPE   HN117970   5.729   2.976  10.933  0.1588  0.3889 -0.1361
  161SOPE   HN217971   5.848   3.081  10.989  2.1627 -0.0792 -0.9599
  161SOPE   HN317972   5.712   3.144  10.922 -1.7119 -0.1787 -1.9362
  161SOPE   C1217973   5.841   3.060  10.772  0.2754 -0.6139 -0.2507
  161SOPE  H12A17974   5.819   3.157  10.723 -1.7311  0.0590  1.7946
  161SOPE  H12B17975   5.792   2.973  10.723  0.1225 -0.5333 -0.2422
  161SOPE   C1117976   5.994   3.051  10.797  0.5144 -0.1155 -0.1842
  161SOPE  H11A17977   6.015   3.130  10.872 -1.2420 -1.2802  1.6268
  161SOPE  H11B17978   6.043   3.062  10.698  0.0042 -0.8851 -0.5355
  161SOPE     P17979   6.148   2.831  10.817  0.0318 -0.1609 -0.0682
  161SOPE   O1317980   6.147   2.708  10.899 -0.2450  0.0285  0.1072
  161SOPE   O1417981   6.264   2.924  10.835  0.4262  0.7706 -0.1362
  161SOPE   O1217982   6.021   2.920  10.850 -0.2028  0.3986 -0.0192
  161SOPE   O1117983   6.132   2.798  10.663  0.4244  0.2919  0.3887
  161SOPE    C117984   6.005   2.747  10.624 -0.4690 -0.3086  0.4499
  161SOPE    HA17985   5.921   2.801  10.672  0.0291  1.5924 -0.7124
  161SOPE    HB17986   5.993   2.642  10.657 -1.6813  0.5229  2.8977
  161SOPE    C217987   5.971   2.769  10.471  0.0576 -0.0778  0.0847
  161SOPE    HS17988   5.862   2.754  10.454 -0.3700  0.8404  1.8035
  161SOPE   O2117989   6.063   2.700  10.388 -0.5955 -0.3159  0.4234
  161SOPE   C2117990   6.018   2.573  10.353  0.3593 -0.6103 -0.5224
  161SOPE   O2217991   5.920   2.521  10.414  0.7339 -0.5654 -0.0372
  161SOPE   C2217992   6.106   2.512  10.248  0.3017  0.1285 -0.2373
  161SOPE   H2R17993   6.155   2.420  10.286 -1.4923 -0.6930  0.2357
  161SOPE   H2S17994   6.163   2.591  10.195 -1.3196  1.7672  0.3633
  161SOPE    C317995   5.985   2.921  10.414 -0.0239 -0.5038  0.8863
  161SOPE    HX17996   5.993   2.915  10.303  1.1681  0.1728  0.9168
  161SOPE    HY17997   6.082   2.967  10.443  0.8611 -2.6643  1.6005
  161SOPE   O3117998   5.876   3.006  10.462 -0.6745 -0.4269  0.6146
  161SOPE   C3117999   5.787   3.038  10.374  0.3891  0.1646  0.1071
  161SOPE   O3218000   5.782   3.006  10.255 -0.2148  0.2510 -0.6376
  161SOPE   C3218001   5.676   3.125  10.435 -0.1601  0.2805 -0.8160
  161SOPE   H2X18002   5.709   3.162  10.534 -1.0178  1.1123 -0.8314
  161SOPE   H2Y18003   5.582   3.066  10.447 -0.6701  1.3404  0.7453
  161SOPE   C2318004   6.013   2.450  10.137 -0.2091 -0.4353  0.2428
  161SOPE   H3R18005   5.931   2.392  10.184 -1.7356  2.9064  2.0196
  161SOPE   H3S18006   6.074   2.381  10.073  1.1925  1.6638 -0.8144
  161SOPE   C2418007   5.959   2.560  10.046  0.2020 -0.2878 -0.0584
  161SOPE   H4R18008   5.901   2.514   9.963 -1.2862 -0.7261  1.1680
  161SOPE   H4S18009   5.884   2.615  10.107  0.3267  0.4189 -0.5350
  161SOPE   C2518010   6.061   2.655   9.975 -0.3989  0.2510 -0.0564
  161SOPE   H5R18011   5.994   2.730   9.928 -0.9753  0.9596  1.8177
  161SOPE   H5S18012   6.124   2.718  10.041 -1.2086  0.7100  0.2956
  161SOPE   C2618013   6.121   2.576   9.861 -0.0783 -0.5471 -0.0775
  161SOPE   H6R18014   6.162   2.485   9.910 -1.5487 -0.8459  0.6249
  161SOPE   H6S18015   6.038   2.548   9.793  0.0195 -0.2628 -0.3188
  161SOPE   C2718016   6.218   2.649   9.764  0.0093  0.0464  0.4466
  161SOPE   H7R18017   6.173   2.715   9.687  0.6251 -1.6774 -1.5003
  161SOPE   H7S18018   6.275   2.716   9.832 -0.5436  1.8025 -0.7178
  161SOPE   C2818019   6.307   2.550   9.696 -0.3658 -0.5143 -0.3180
  161SOPE   H8R18020   6.248   2.494   9.621  1.2553  0.0964 -2.1112
  161SOPE   H8S18021   6.383   2.613   9.646  0.4205 -0.1774  1.2291
  161SOPE   C2918022   6.382   2.461   9.793 -0.0818  0.2283  0.1550
  161SOPE   H9118023   6.461   2.512   9.850  0.3099 -1.3019  1.0273
  161SOPE  C21018024   6.391   2.323   9.798  0.5533 -0.5980 -0.7729
  161SOPE  H10118025   6.460   2.283   9.874  1.5735  3.2480  0.5345
  161SOPE  C21118026   6.312   2.224   9.715  0.9140  0.0413 -1.0760
  161SOPE  H11R18027   6.215   2.268   9.682  1.0335  1.9832  0.9396
  161SOPE  H11S18028   6.278   2.134   9.771 -2.2138  0.2424 -2.4433
  161SOPE  C21218029   6.385   2.187   9.590  0.2518  0.0062  0.4519
  161SOPE  H12R18030   6.477   2.129   9.615  0.2376  0.4615  1.6567
  161SOPE  H12S18031   6.405   2.278   9.530 -2.0573  0.1311 -0.2497
  161SOPE  C21318032   6.299   2.096   9.504  0.4226  0.5900 -0.2552
  161SOPE  H13R18033   6.199   2.142   9.494 -0.2788 -0.7777  0.2217
  161SOPE  H13S18034   6.284   1.996   9.550  2.4017  0.4661  0.2047
  161SOPE  C21418035   6.365   2.077   9.365  0.3657  0.0148  0.0367
  161SOPE  H14R18036   6.371   2.180   9.322 -3.2189  0.5800  0.5822
  161SOPE  H14S18037   6.289   2.023   9.304 -1.4805  3.3955 -0.9332
  161SOPE  C21518038   6.506   2.020   9.365 -0.2005 -0.2103 -0.2468
  161SOPE  H15R18039   6.511   1.917   9.406 -1.2703 -0.3582 -0.4565
  161SOPE  H15S18040   6.579   2.077   9.427  1.5226 -0.7080 -1.7209
  161SOPE  C21618041   6.554   2.023   9.221  0.0942  0.0555  0.4100
  161SOPE  H16R18042   6.516   2.113   9.168  3.2484  2.2023  1.5145
  161SOPE  H16S18043   6.499   1.943   9.168 -0.8169  0.2085  1.0921
  161SOPE  C21718044   6.711   2.019   9.212  0.2144  0.4956  0.5874
  161SOPE  H17R18045   6.739   1.931   9.273 -0.5188 -0.5654 -0.5639
  161SOPE  H17S18046   6.758   2.107   9.261 -0.2800  1.3160 -0.3788
  161SOPE  C21818047   6.767   2.017   9.067 -0.2378 -0.0838  0.3391
  161SOPE  H18R18048   6.741   1.918   9.025 -1.2880  1.1759 -2.1339
  161SOPE  H18S18049   6.877   2.031   9.057 -0.1786  0.5338  1.5868
  161SOPE  H18T18050   6.707   2.104   9.034 -0.6418 -0.0400  1.1450
  161SOPE   C3318051   5.624   3.246  10.344  0.4423 -0.2146 -0.0212
  161SOPE   H3X18052   5.698   3.324  10.319 -0.7504  1.7373  2.1524
  161SOPE   H3Y18053   5.550   3.291  10.414  0.4508 -1.8547  1.1242
  161SOPE   C3418054   5.551   3.187  10.220 -0.2482 -0.1184 -0.2340
  161SOPE   H4X18055   5.509   3.087  10.247  1.9085 -1.3785 -1.2313
  161SOPE   H4Y18056   5.637   3.157  10.156 -1.0122 -2.4068 -0.2867
  161SOPE   C3518057   5.451   3.275  10.141 -0.2302  0.0550 -0.5461
  161SOPE   H5X18058   5.386   3.311  10.225  2.4712  2.3746  0.7160
  161SOPE   H5Y18059   5.388   3.220  10.068 -3.0348  1.8661  0.3410
  161SOPE   C3618060   5.518   3.391  10.074 -0.2009  0.1609  0.3258
  161SOPE   H6X18061   5.588   3.337  10.007 -0.6759  0.0802 -0.1143
  161SOPE   H6Y18062   5.571   3.454  10.149  0.8852  0.5435 -0.7535
  161SOPE   C3718063   5.418   3.469   9.992  0.3458  0.2600 -0.0689
  161SOPE   H7X18064   5.334   3.506  10.055  1.5879  2.9751  0.1554
  161SOPE   H7Y18065   5.366   3.404   9.919 -0.1615 -1.8015  2.0146
  161SOPE   C3818066   5.476   3.582   9.899  0.5973 -0.6867  0.6916
  161SOPE   H8X18067   5.543   3.534   9.825 -1.3727  0.3714 -1.9458
  161SOPE   H8Y18068   5.535   3.653   9.961 -2.0831  0.0350  2.6029
  161SOPE   C3918069   5.374   3.662   9.817  0.1724  0.3773 -0.2529
  161SOPE   H9X18070   5.409   3.768   9.814  3.6760 -0.5587  1.7717
  161SOPE   H9Y18071   5.285   3.659   9.883 -0.0078 -3.2564 -0.4898
  161SOPE  C31018072   5.336   3.601   9.693 -0.2193  0.6680 -0.3265
  161SOPE  H10X18073   5.262   3.519   9.705  0.8298 -0.0445  1.8709
  161SOPE  H10Y18074   5.428   3.568   9.640 -0.4463  1.9757 -1.6175
  161SOPE  C31118075   5.263   3.703   9.596 -0.3558  1.2329  0.8539
  161SOPE  H11X18076   5.335   3.785   9.577  1.8848 -1.5003 -4.5763
  161SOPE  H11Y18077   5.168   3.721   9.652 -1.1816 -0.7634  0.1990
  161SOPE  C31218078   5.213   3.617   9.469 -0.0960 -0.2033  0.1471
  161SOPE  H12X18079   5.155   3.528   9.502  0.3359 -0.3000  0.6585
  161SOPE  H12Y18080   5.302   3.580   9.415 -0.2615  1.2618 -1.2074
  161SOPE  C31318081   5.117   3.693   9.374 -0.3711 -0.2292 -0.4790
  161SOPE  H13X18082   5.030   3.731   9.432 -0.7968 -1.7768 -0.0402
  161SOPE  H13Y18083   5.070   3.622   9.302 -0.6456 -0.1688 -0.3613
  161SOPE  C31418084   5.178   3.812   9.299 -0.7049  0.3395  0.1728
  161SOPE  H14X18085   5.221   3.887   9.370  1.8129 -0.5663 -0.3065
  161SOPE  H14Y18086   5.094   3.863   9.247 -1.1069 -0.1290  0.3564
  161SOPE  C31518087   5.288   3.786   9.193 -0.1066  0.8691  0.1013
  161SOPE  H15X18088   5.271   3.698   9.127 -0.1576 -0.4201  1.7419
  161SOPE  H15Y18089   5.380   3.749   9.245 -0.1206 -1.3979 -1.3357
  161SOPE  C31618090   5.310   3.909   9.102 -0.0928  0.0657 -0.9090
  161SOPE  H16X18091   5.388   3.978   9.140  0.7690 -1.2125 -0.3293
  161SOPE  H16Y18092   5.213   3.962   9.092 -0.2882 -0.1507 -0.2153
  161SOPE  C31718093   5.341   3.873   8.958 -0.1159  0.8311 -0.3089
  161SOPE  H17X18094   5.325   3.963   8.895  0.6994  0.3146 -1.2886
  161SOPE  H17Y18095   5.281   3.785   8.924 -0.9932  0.8984  0.9854
  161SOPE  C31818096   5.486   3.831   8.942 -0.7178 -0.0208 -0.2607
  161SOPE  H18X18097   5.559   3.914   8.951  1.3174 -1.8306  0.5012
  161SOPE  H18Y18098   5.505   3.784   8.844  1.9722  2.8485 -1.2861
  161SOPE  H18Z18099   5.517   3.760   9.021  0.0501  1.2222  0.5892
  162SOPE     N18100   6.065   0.593  11.138 -0.2724 -0.5869  0.9704
  162SOPE   HN118101   6.082   0.624  11.236 -3.2972  2.3152  0.7634
  162SOPE   HN218102   6.151   0.583  11.082 -1.8725  0.2214 -1.8118
  162SOPE   HN318103   6.012   0.675  11.102  2.8936  0.7901 -0.9791
  162SOPE   C1218104   5.977   0.466  11.135  0.2135  0.0705 -0.2481
  162SOPE  H12A18105   5.886   0.489  11.193 -0.4332 -1.1647 -0.7394
  162SOPE  H12B18106   6.030   0.389  11.196 -1.8068 -1.1573  0.0303
  162SOPE   C1118107   5.936   0.411  10.994  0.4557 -0.6709  0.6573
  162SOPE  H11A18108   5.894   0.309  10.979  0.1608 -0.6237  1.1405
  162SOPE  H11B18109   6.035   0.412  10.943  0.4467 -1.5902  0.6091
  162SOPE     P18110   5.715   0.475  10.857 -0.4558  0.0070 -0.3283
  162SOPE   O1318111   5.642   0.603  10.839 -0.1644  0.1281  0.4183
  162SOPE   O1418112   5.651   0.371  10.941  0.5999  0.4781  0.0758
  162SOPE   O1218113   5.853   0.506  10.933  0.8984 -0.7164  0.4983
  162SOPE   O1118114   5.751   0.422  10.717  0.6398  0.5924 -0.0477
  162SOPE    C118115   5.863   0.464  10.637 -0.0175 -0.0524 -0.1469
  162SOPE    HA18116   5.929   0.380  10.605  0.1325  0.2491 -0.6411
  162SOPE    HB18117   5.921   0.541  10.692  0.5009  0.2113 -1.0457
  162SOPE    C218118   5.815   0.534  10.508  0.2270  1.1497 -0.3194
  162SOPE    HS18119   5.749   0.615  10.546 -0.5793 -0.0547  0.9364
  162SOPE   O2118120   5.745   0.430  10.437 -0.5984  0.4465 -0.3361
  162SOPE   C2118121   5.611   0.432  10.438  0.7512  0.7605 -0.4785
  162SOPE   O2218122   5.539   0.511  10.495  0.2890  0.3289 -0.4517
  162SOPE   C2218123   5.549   0.321  10.355  0.1871 -0.3905 -0.4405
  162SOPE   H2R18124   5.491   0.258  10.427  2.2520 -1.4203  0.3968
  162SOPE   H2S18125   5.627   0.253  10.315 -0.3923 -0.7384 -1.0109
  162SOPE    C318126   5.929   0.596  10.419  0.3555 -0.4380 -0.5143
  162SOPE    HX18127   5.993   0.507  10.400  0.8359 -0.6663  1.8367
  162SOPE    HY18128   5.991   0.664  10.480 -0.0236 -0.2244 -0.3624
  162SOPE   O3118129   5.873   0.657  10.298  0.0806  0.2867  0.7104
  162SOPE   C3118130   5.821   0.776  10.316  0.1307 -0.1255  0.8631
  162SOPE   O3218131   5.830   0.844  10.415 -0.6636 -0.5176  0.4883
  162SOPE   C3218132   5.752   0.815  10.188 -0.1998 -0.3989  0.5437
  162SOPE   H2X18133   5.647   0.834  10.218  0.3291 -0.6321  2.6980
  162SOPE   H2Y18134   5.773   0.742  10.108  1.3715  1.2976 -0.6681
  162SOPE   C2318135   5.459   0.367  10.249  0.2134  0.1068  0.5414
  162SOPE   H3R18136   5.397   0.443  10.301  0.7444  0.3567  0.8205
  162SOPE   H3S18137   5.382   0.292  10.223 -0.1316  0.9728 -0.9918
  162SOPE   C2418138   5.531   0.409  10.117  0.3988 -0.2435 -0.2301
  162SOPE   H4R18139   5.582   0.505  10.141  0.0625 -0.1950  0.3110
  162SOPE   H4S18140   5.607   0.337  10.080 -0.7463 -1.2789 -0.6331
  162SOPE   C2518141   5.440   0.430   9.994  0.0976 -0.2540 -1.8849
  162SOPE   H5R18142   5.430   0.338   9.932  1.2955 -0.7288 -1.4039
  162SOPE   H5S18143   5.337   0.453  10.026  0.2231 -1.5616 -0.4170
  162SOPE   C2618144   5.480   0.540   9.893 -0.0812 -0.4094 -0.5192
  162SOPE   H6R18145   5.384   0.562   9.842 -0.6246 -1.1188  0.1701
  162SOPE   H6S18146   5.501   0.627   9.960  2.2306 -0.4917 -1.0527
  162SOPE   C2718147   5.599   0.503   9.806  0.4838 -0.5535  0.2877
  162SOPE   H7R18148   5.677   0.445   9.859  0.2438 -1.4502 -0.3274
  162SOPE   H7S18149   5.551   0.440   9.729  0.7010  0.2586 -0.5365
  162SOPE   C2818150   5.656   0.631   9.749  0.3971  0.5216  0.2182
  162SOPE   H8R18151   5.708   0.687   9.829  1.0585 -0.2064  0.3166
  162SOPE   H8S18152   5.739   0.590   9.687  1.6011  0.6966  1.6649
  162SOPE   C2918153   5.566   0.729   9.674 -0.6512 -0.4133  0.1695
  162SOPE   H9118154   5.489   0.770   9.740 -1.3275 -1.1435 -0.1460
  162SOPE  C21018155   5.556   0.745   9.538 -0.0320  0.7993 -0.3379
  162SOPE  H10118156   5.503   0.832   9.497 -0.9957  0.3995  0.0482
  162SOPE  C21118157   5.626   0.660   9.433 -0.5307 -0.8713  0.0388
  162SOPE  H11R18158   5.613   0.552   9.454  3.7794 -1.1784  2.3960
  162SOPE  H11S18159   5.733   0.691   9.433 -0.3775 -1.3814  0.0958
  162SOPE  C21218160   5.578   0.690   9.294 -0.0539  0.0794  0.1356
  162SOPE  H12R18161   5.611   0.795   9.278  1.6617 -0.5499 -0.7088
  162SOPE  H12S18162   5.468   0.685   9.279 -0.4791  0.9137  2.6114
  162SOPE  C21318163   5.638   0.595   9.188 -0.1783  0.0739  0.2675
  162SOPE  H13R18164   5.588   0.496   9.195  0.5985 -0.2480  1.6917
  162SOPE  H13S18165   5.745   0.589   9.215 -0.4882  1.5623  2.0176
  162SOPE  C21418166   5.628   0.634   9.039  0.1782 -0.5343 -0.2451
  162SOPE  H14R18167   5.720   0.604   8.984  1.4906  0.0520  1.5420
  162SOPE  H14S18168   5.626   0.745   9.033 -0.4427 -0.5898 -1.3563
  162SOPE  C21518169   5.502   0.576   8.969 -0.3941  0.6254 -0.6841
  162SOPE  H15R18170   5.415   0.625   9.020 -1.1819  0.8702 -2.2172
  162SOPE  H15S18171   5.493   0.465   8.972 -3.5677  0.7147 -2.1430
  162SOPE  C21618172   5.501   0.599   8.815  0.0700 -0.5753 -0.4747
  162SOPE  H16R18173   5.589   0.559   8.759  0.5315  0.8516 -0.8003
  162SOPE  H16S18174   5.512   0.704   8.780  0.2959 -0.1380  0.8091
  162SOPE  C21718175   5.375   0.548   8.748  0.6322  0.2739  0.0688
  162SOPE  H17R18176   5.285   0.579   8.806 -0.3463  0.5653 -1.5297
  162SOPE  H17S18177   5.376   0.438   8.731 -0.2840  0.6142 -2.7722
  162SOPE  C21818178   5.356   0.607   8.614 -0.1817 -0.5815 -0.1375
  162SOPE  H18R18179   5.308   0.706   8.621 -1.2832 -1.2369  3.6715
  162SOPE  H18S18180   5.301   0.544   8.541 -0.2813  1.7258 -2.1766
  162SOPE  H18T18181   5.459   0.621   8.574  0.8958 -0.4477  2.4485
  162SOPE   C3318182   5.805   0.955  10.133 -0.2937 -0.8186 -0.3651
  162SOPE   H3X18183   5.915   0.954  10.114 -0.3599 -1.6908 -0.7220
  162SOPE   H3Y18184   5.780   1.027  10.214 -1.0069 -2.9293  1.4024
  162SOPE   C3418185   5.723   0.977  10.004 -0.3724 -0.8042  0.0225
  162SOPE   H4X18186   5.620   0.994  10.043 -0.1513 -0.4458  0.4750
  162SOPE   H4Y18187   5.730   0.881   9.948  2.3351 -0.6266 -0.0561
  162SOPE   C3518188   5.757   1.099   9.910  0.5301  0.0892  0.3548
  162SOPE   H5X18189   5.864   1.085   9.884  0.2831 -0.8862 -0.2171
  162SOPE   H5Y18190   5.741   1.192   9.969  0.0561 -0.1475  0.6061
  162SOPE   C3618191   5.660   1.098   9.794 -0.1584  0.1370 -0.2443
  162SOPE   H6X18192   5.562   1.128   9.836 -0.0024  1.1530 -0.5983
  162SOPE   H6Y18193   5.655   0.996   9.750  0.1159 -0.6110  1.3838
  162SOPE   C3718194   5.706   1.189   9.678 -0.2595  0.0877  0.0284
  162SOPE   H7X18195   5.806   1.151   9.647 -0.7936 -1.7611  0.4120
  162SOPE   H7Y18196   5.729   1.286   9.727  0.7838  0.3915 -1.0201
  162SOPE   C3818197   5.619   1.220   9.560  0.1197 -0.3404 -0.4663
  162SOPE   H8X18198   5.685   1.285   9.498  0.4185 -2.0062 -2.0027
  162SOPE   H8Y18199   5.524   1.273   9.583  0.9949 -0.0788  2.9828
  162SOPE   C3918200   5.607   1.100   9.461  0.2130 -0.0916  0.2701
  162SOPE   H9X18201   5.575   1.015   9.524  0.9620 -0.9737 -0.5173
  162SOPE   H9Y18202   5.709   1.080   9.420  0.8986 -0.3877  2.0092
  162SOPE  C31018203   5.517   1.131   9.341 -0.3118 -0.3832  0.3533
  162SOPE  H10X18204   5.554   1.222   9.289 -0.0073 -0.8485 -0.2551
  162SOPE  H10Y18205   5.412   1.140   9.376 -1.0452 -1.8679 -1.2904
  162SOPE  C31118206   5.494   1.017   9.233  0.8455 -0.7148  0.0107
  162SOPE  H11X18207   5.444   0.933   9.285  1.2384  0.2331  1.9973
  162SOPE  H11Y18208   5.589   0.977   9.190  1.0013 -3.5008  2.5707
  162SOPE  C31218209   5.399   1.054   9.116  0.1875 -0.3184 -0.4724
  162SOPE  H12X18210   5.439   1.141   9.060  0.9774 -1.9382 -2.5334
  162SOPE  H12Y18211   5.303   1.082   9.164  0.4499  1.5665 -0.9540
  162SOPE  C31318212   5.360   0.938   9.022 -0.7389  0.5338  0.6049
  162SOPE  H13X18213   5.368   0.840   9.075 -0.7443  0.3607  0.2897
  162SOPE  H13Y18214   5.432   0.932   8.937 -1.2431 -1.6347  0.2732
  162SOPE  C31418215   5.219   0.942   8.963  0.0348 -0.8127 -0.5833
  162SOPE  H14X18216   5.147   0.970   9.042 -0.8081  1.6020 -2.0780
  162SOPE  H14Y18217   5.187   0.843   8.923 -0.0688 -0.6832 -0.8294
  162SOPE  C31518218   5.212   1.051   8.850  0.9106  0.1511  0.4658
  162SOPE  H15X18219   5.241   1.004   8.753  1.0099  1.9053 -0.3896
  162SOPE  H15Y18220   5.275   1.139   8.872  0.5006  0.1037  1.9153
  162SOPE  C31618221   5.078   1.100   8.815 -0.1487 -0.7892 -0.1094
  162SOPE  H16X18222   5.035   1.170   8.890  0.0474 -0.1572 -0.5858
  162SOPE  H16Y18223   4.997   1.024   8.809  0.2124 -1.2776  0.9389
  162SOPE  C31718224   5.064   1.163   8.675 -0.2735  0.0160 -0.2100
  162SOPE  H17X18225   5.076   1.089   8.593 -1.3192  0.2685 -0.6047
  162SOPE  H17Y18226   5.151   1.233   8.672  0.8599 -1.3768 -2.0720
  162SOPE  C31818227   4.929   1.229   8.655 -0.1157  0.0567  0.0926
  162SOPE  H18X18228   4.846   1.154   8.652 -0.5548  0.5607 -2.2217
  162SOPE  H18Y18229   4.937   1.274   8.554 -2.1369 -0.2269 -0.2451
  162SOPE  H18Z18230   4.916   1.302   8.738 -0.5026 -1.4567  1.4316
  163SOPE     N18231   3.379   3.588  10.562  0.1143  0.1064 -0.4315
  163SOPE   HN118232   3.427   3.505  10.603  1.3446  0.9212 -0.1506
  163SOPE   HN218233   3.293   3.547  10.520  0.7462 -1.0314 -0.6814
  163SOPE   HN318234   3.439   3.626  10.486 -3.1893  2.2409 -2.2052
  163SOPE   C1218235   3.334   3.691  10.665 -0.0255 -0.0724 -0.4505
  163SOPE  H12A18236   3.366   3.788  10.620 -0.0869 -0.3983 -1.2216
  163SOPE  H12B18237   3.401   3.685  10.753 -0.2105  1.3397 -0.1801
  163SOPE   C1118238   3.190   3.696  10.705  0.2423 -0.0460 -0.5582
  163SOPE  H11A18239   3.128   3.731  10.620  1.8213  2.2408 -0.8624
  163SOPE  H11B18240   3.171   3.766  10.788 -5.0031  0.3301 -1.7370
  163SOPE     P18241   3.151   3.513  10.885  0.1039 -0.3736  0.4326
  163SOPE   O1318242   3.066   3.601  10.965 -0.1388  0.0011 -0.3892
  163SOPE   O1418243   3.294   3.496  10.927  0.1440  0.5817  0.5808
  163SOPE   O1218244   3.161   3.562  10.740 -1.3637 -0.7541 -0.3524
  163SOPE   O1118245   3.086   3.371  10.864  0.1574 -0.0767  0.1047
  163SOPE    C118246   2.973   3.352  10.771 -0.2596  0.7738 -0.0464
  163SOPE    HA18247   2.929   3.449  10.743 -3.9347 -0.7296 -0.0117
  163SOPE    HB18248   2.891   3.285  10.804  1.2508 -2.0081 -1.5106
  163SOPE    C218249   3.030   3.288  10.648  0.2269  0.1718  0.6942
  163SOPE    HS18250   3.138   3.313  10.643  0.3648 -0.4453  0.5269
  163SOPE   O2118251   2.966   3.337  10.535  0.1431  0.4227 -0.1796
  163SOPE   C2118252   3.041   3.410  10.452  0.0207  0.2956 -0.2491
  163SOPE   O2218253   3.156   3.438  10.459  0.0751 -0.1539  0.0803
  163SOPE   C2218254   2.947   3.459  10.345  0.3628  0.1134  0.2918
  163SOPE   H2R18255   2.998   3.548  10.302  2.3933 -1.2253 -0.2258
  163SOPE   H2S18256   2.851   3.492  10.390 -0.0864 -1.3095  0.4351
  163SOPE    C318257   3.023   3.133  10.660 -0.8352  0.3189 -0.4148
  163SOPE    HX18258   2.929   3.097  10.706 -1.4582  1.8786 -0.3773
  163SOPE    HY18259   3.098   3.106  10.738 -2.8552 -0.0778  1.5143
  163SOPE   O3118260   3.051   3.071  10.537 -0.0673  0.6639 -0.1258
  163SOPE   C3118261   3.179   3.067  10.491 -0.2537 -0.0947 -0.5387
  163SOPE   O3218262   3.281   3.090  10.558 -0.1788 -0.1138  0.4987
  163SOPE   C3218263   3.185   3.024  10.341 -0.0601  0.2945 -0.2494
  163SOPE   H2X18264   3.293   3.021  10.316 -0.1874 -1.4981 -0.6999
  163SOPE   H2Y18265   3.127   3.097  10.281 -1.6548 -1.5441 -1.0207
  163SOPE   C2318266   2.924   3.351  10.235  0.4519 -0.9976 -0.6861
  163SOPE   H3R18267   2.831   3.389  10.189  0.2348  0.0115  0.5272
  163SOPE   H3S18268   2.904   3.250  10.276 -2.6178  0.7413  2.6203
  163SOPE   C2418269   3.037   3.367  10.130  0.4411  0.5463 -0.4409
  163SOPE   H4R18270   3.056   3.475  10.113 -0.5645  0.6219 -1.2193
  163SOPE   H4S18271   3.126   3.315  10.170 -0.5501 -2.6393 -2.0818
  163SOPE   C2518272   2.996   3.313   9.995  0.2266  0.6912 -0.9758
  163SOPE   H5R18273   2.970   3.205   9.986  0.7827  0.5394 -0.7631
  163SOPE   H5S18274   2.902   3.371   9.980 -0.1207  0.9627  1.6345
  163SOPE   C2618275   3.093   3.334   9.884 -0.1074  0.2936  0.4320
  163SOPE   H6R18276   3.150   3.430   9.891  0.6160 -0.0441 -0.5888
  163SOPE   H6S18277   3.177   3.262   9.891  1.0815  1.5309 -0.4243
  163SOPE   C2718278   3.017   3.336   9.747 -0.3875 -0.8341  0.3747
  163SOPE   H7R18279   2.963   3.240   9.727 -1.6949  0.4357 -2.8288
  163SOPE   H7S18280   2.945   3.421   9.740 -1.9049 -2.0855 -0.0099
  163SOPE   C2818281   3.113   3.360   9.632  0.1584 -0.9058 -0.3870
  163SOPE   H8R18282   3.177   3.449   9.649  0.8742 -0.9537 -2.4547
  163SOPE   H8S18283   3.188   3.278   9.622  1.2201  0.0062 -0.1563
  163SOPE   C2918284   3.045   3.383   9.500  0.7934  0.9269 -0.1997
  163SOPE   H9118285   2.977   3.299   9.478  2.1049 -0.4403  0.8149
  163SOPE  C21018286   3.065   3.474   9.398  0.2008 -0.3352  0.0247
  163SOPE  H10118287   2.999   3.471   9.310 -0.8239 -1.4810  0.8026
  163SOPE  C21118288   3.167   3.581   9.406  0.0471  0.5056 -0.5612
  163SOPE  H11R18289   3.231   3.552   9.492  0.9409  0.5152 -1.2017
  163SOPE  H11S18290   3.115   3.678   9.419 -0.9797 -0.1345  0.2505
  163SOPE  C21218291   3.248   3.602   9.283 -0.3530 -0.0765 -0.3825
  163SOPE  H12R18292   3.302   3.506   9.272 -2.4768 -1.8833  2.9800
  163SOPE  H12S18293   3.320   3.683   9.307  0.1969 -0.5670 -0.3658
  163SOPE  C21318294   3.164   3.645   9.157  0.2427  0.2451 -0.4556
  163SOPE  H13R18295   3.140   3.752   9.175  2.0711  0.4668  0.9112
  163SOPE  H13S18296   3.076   3.580   9.139  1.8646 -1.9671 -0.7813
  163SOPE  C21418297   3.248   3.642   9.028  0.4392 -0.0940 -0.1401
  163SOPE  H14R18298   3.288   3.538   9.022 -0.9963 -0.9102  2.4923
  163SOPE  H14S18299   3.334   3.711   9.034  0.8601 -0.5990 -0.3281
  163SOPE  C21518300   3.158   3.660   8.903 -0.6403  0.0711 -0.5490
  163SOPE  H15R18301   3.081   3.579   8.909 -0.0657 -0.3898  1.2034
  163SOPE  H15S18302   3.211   3.650   8.806 -1.1134  0.0311 -0.8093
  163SOPE  C21618303   3.085   3.792   8.908  0.2157 -0.2083 -0.4983
  163SOPE  H16R18304   3.159   3.875   8.901  1.0872 -1.0057 -1.0306
  163SOPE  H16S18305   3.024   3.805   9.000  2.2054  1.0346  0.7050
  163SOPE  C21718306   2.996   3.805   8.781 -0.7696  0.3319  0.3978
  163SOPE  H17R18307   2.913   3.731   8.787 -0.6267 -0.0919 -1.9142
  163SOPE  H17S18308   3.057   3.780   8.692  0.1427 -1.4940  1.4874
  163SOPE  C21818309   2.939   3.943   8.777  0.8835  0.5264  0.4870
  163SOPE  H18R18310   2.855   3.954   8.705 -1.5638 -0.2340  3.0815
  163SOPE  H18S18311   3.024   4.012   8.756  0.0893  1.4976  0.3922
  163SOPE  H18T18312   2.899   3.980   8.873 -2.1088 -1.1165 -0.0135
  163SOPE   C3318313   3.132   2.880  10.310 -0.0464 -0.0056 -0.9045
  163SOPE   H3X18314   3.022   2.881  10.327  0.2094 -0.4287  0.9886
  163SOPE   H3Y18315   3.176   2.812  10.386  0.4308 -0.7601 -1.8284
  163SOPE   C3418316   3.179   2.824  10.177  0.3387  0.7330 -0.5143
  163SOPE   H4X18317   3.149   2.718  10.172  0.5425  0.5735  1.1676
  163SOPE   H4Y18318   3.290   2.814  10.187  0.1291  0.2059  1.7556
  163SOPE   C3518319   3.142   2.908  10.057 -0.3241 -0.1539  0.6761
  163SOPE   H5X18320   3.195   3.006  10.059  0.8202 -0.2963 -5.1674
  163SOPE   H5Y18321   3.036   2.942  10.058  0.3575  2.1851  0.0993
  163SOPE   C3618322   3.190   2.858   9.917 -0.5856  0.8386 -0.9739
  163SOPE   H6X18323   3.161   2.752   9.899  0.7503  0.0026  1.2800
  163SOPE   H6Y18324   3.300   2.845   9.907 -0.7037  0.1992 -1.5304
  163SOPE   C3718325   3.141   2.948   9.798 -0.0859  0.1173  0.7481
  163SOPE   H7X18326   3.222   3.024   9.783 -0.2391  0.6190  2.2810
  163SOPE   H7Y18327   3.048   2.998   9.833 -0.6225  0.0969 -0.5843
  163SOPE   C3818328   3.111   2.869   9.676 -0.5098  0.1337  0.5728
  163SOPE   H8X18329   3.027   2.802   9.701  0.9866 -1.4464  1.6086
  163SOPE   H8Y18330   3.197   2.809   9.638 -0.7329  0.0499  0.1978
  163SOPE   C3918331   3.073   2.967   9.561 -0.3460  0.0985  0.0144
  163SOPE   H9X18332   3.157   3.035   9.536  1.0344 -1.4392  0.2703
  163SOPE   H9Y18333   2.980   3.019   9.593 -1.5145 -1.2746 -1.0081
  163SOPE  C31018334   3.041   2.889   9.427  0.0303 -0.2867 -0.5723
  163SOPE  H10X18335   2.950   2.829   9.448  0.6751 -2.0346 -2.4647
  163SOPE  H10Y18336   3.122   2.821   9.394 -0.0378 -1.5499  1.6403
  163SOPE  C31118337   3.016   2.988   9.313 -0.4225 -0.2224  0.7347
  163SOPE  H11X18338   2.956   3.073   9.350 -1.6707 -0.6682 -0.1955
  163SOPE  H11Y18339   2.963   2.930   9.235  2.8008 -2.4509 -0.0167
  163SOPE  C31218340   3.149   3.023   9.247  0.0686  0.3384  0.4851
  163SOPE  H12X18341   3.199   2.933   9.206  1.1030  0.9185  0.4389
  163SOPE  H12Y18342   3.233   3.037   9.319  0.3109 -2.5647  0.8568
  163SOPE  C31318343   3.139   3.117   9.128  0.3162  0.0777  0.5132
  163SOPE  H13X18344   3.109   3.219   9.160  0.3933  0.0299  0.7390
  163SOPE  H13Y18345   3.082   3.079   9.041  1.9436 -0.5936 -0.3049
  163SOPE  C31418346   3.278   3.138   9.070 -0.4440  0.2479  0.7416
  163SOPE  H14X18347   3.324   3.047   9.025 -0.1353  1.5458 -1.7346
  163SOPE  H14Y18348   3.350   3.195   9.132 -0.9311  4.7600 -2.3414
  163SOPE  C31518349   3.272   3.239   8.955  0.0299  0.3320 -0.2786
  163SOPE  H15X18350   3.246   3.335   9.005 -3.1503 -1.0182  0.8821
  163SOPE  H15Y18351   3.188   3.218   8.886  1.6983 -1.7580 -1.8168
  163SOPE  C31618352   3.405   3.237   8.878  0.2587  0.1212  0.5673
  163SOPE  H16X18353   3.400   3.141   8.822 -0.0367  1.1418 -1.2729
  163SOPE  H16Y18354   3.492   3.232   8.947 -0.1609 -0.0269  1.0912
  163SOPE  C31718355   3.403   3.342   8.770 -0.3339 -0.5859  0.1430
  163SOPE  H17X18356   3.489   3.329   8.702 -0.3025  1.6891 -0.3423
  163SOPE  H17Y18357   3.412   3.447   8.806  1.9626 -0.4863 -0.5643
  163SOPE  C31818358   3.275   3.339   8.679  0.6215 -0.3821  0.0384
  163SOPE  H18X18359   3.186   3.381   8.730  2.1988 -0.0877  2.7365
  163SOPE  H18Y18360   3.252   3.235   8.647 -2.1208  0.2563 -0.3186
  163SOPE  H18Z18361   3.293   3.407   8.592 -0.9622  0.7713  0.5781
  164SOPE     N18362   1.577   5.851  10.543  0.3423 -0.0369 -0.5489
  164SOPE   HN118363   1.622   5.911  10.471  0.6638  2.3966  1.5354
  164SOPE   HN218364   1.555   5.756  10.505 -0.6409 -0.0783  0.0974
  164SOPE   HN318365   1.488   5.891  10.577  0.9108 -0.2217  1.2630
  164SOPE   C1218366   1.673   5.832  10.657 -0.1064  0.2193 -0.4603
  164SOPE  H12A18367   1.767   5.791  10.616 -0.7498 -0.6623 -1.1145
  164SOPE  H12B18368   1.629   5.748  10.716  0.1911  0.0297 -0.5082
  164SOPE   C1118369   1.678   5.956  10.750  0.5290  0.6458 -1.9266
  164SOPE  H11A18370   1.686   6.042  10.680  0.9370  2.2987  0.0206
  164SOPE  H11B18371   1.771   5.944  10.810 -0.2199  1.0734 -0.6421
  164SOPE     P18372   1.447   6.074  10.805 -0.2494 -0.2876 -0.2123
  164SOPE   O1318373   1.511   6.203  10.786  0.3783  0.3116 -0.3352
  164SOPE   O1418374   1.342   6.060  10.910  0.1176  0.2941 -0.2025
  164SOPE   O1218375   1.558   5.960  10.832 -0.2926  0.5770  0.5181
  164SOPE   O1118376   1.400   6.024  10.671  0.2252 -0.0543  0.6560
  164SOPE    C118377   1.273   6.072  10.615  0.6619 -0.3972 -0.7382
  164SOPE    HA18378   1.232   6.158  10.671  0.7813 -1.0357  0.3656
  164SOPE    HB18379   1.193   5.995  10.621  0.7941 -0.9224 -3.9208
  164SOPE    C218380   1.290   6.112  10.465  0.1033  0.2850 -0.0545
  164SOPE    HS18381   1.191   6.135  10.419  0.9008 -1.2221 -2.7781
  164SOPE   O2118382   1.351   6.006  10.395  0.5103 -0.7983  0.6868
  164SOPE   C2118383   1.339   6.002  10.265 -0.4570  0.6429 -0.0295
  164SOPE   O2218384   1.283   6.085  10.196  0.6569  0.0807 -0.2445
  164SOPE   C2218385   1.378   5.862  10.220  0.1639 -0.8897  0.7448
  164SOPE   H2R18386   1.331   5.784  10.282 -0.9187  0.7638  2.1037
  164SOPE   H2S18387   1.488   5.852  10.237  0.0597 -4.9655 -0.1135
  164SOPE    C318388   1.374   6.247  10.468  0.0218  0.2393 -0.2429
  164SOPE    HX18389   1.461   6.228  10.535 -0.2699  1.7028  0.5938
  164SOPE    HY18390   1.319   6.325  10.525 -1.3532 -0.0271 -1.1547
  164SOPE   O3118391   1.419   6.298  10.341 -0.1151  0.1837 -0.5875
  164SOPE   C3118392   1.342   6.374  10.267 -0.4230 -0.5511 -0.0497
  164SOPE   O3218393   1.232   6.419  10.304 -0.4388 -0.3245 -0.5132
  164SOPE   C3218394   1.395   6.399  10.125 -0.3693 -0.4479 -0.6546
  164SOPE   H2X18395   1.429   6.308  10.071 -1.6942 -0.3836 -1.6355
  164SOPE   H2Y18396   1.489   6.455  10.145 -1.9862  1.9011  0.9066
  164SOPE   C2318397   1.350   5.850  10.061 -0.1018  0.9277  0.1634
  164SOPE   H3R18398   1.345   5.950  10.011 -2.0104  1.3121  1.0071
  164SOPE   H3S18399   1.246   5.810  10.060  0.1122  0.3329 -1.8260
  164SOPE   C2418400   1.445   5.751   9.987  0.5369  0.5466 -0.5897
  164SOPE   H4R18401   1.542   5.803  10.006  0.5996  0.8008 -1.5111
  164SOPE   H4S18402   1.440   5.657  10.045 -1.1304  1.3951  0.7177
  164SOPE   C2518403   1.426   5.726   9.834  0.1508 -0.2028 -0.3381
  164SOPE   H5R18404   1.361   5.636   9.821 -1.0293  0.3674  1.2779
  164SOPE   H5S18405   1.385   5.811   9.774 -0.5942 -0.3424 -0.0414
  164SOPE   C2618406   1.559   5.696   9.773  0.5218  0.8509 -0.0312
  164SOPE   H6R18407   1.644   5.757   9.812  0.5475  0.8857 -0.1413
  164SOPE   H6S18408   1.592   5.594   9.801 -1.1210  0.7300  1.6945
  164SOPE   C2718409   1.557   5.712   9.624  0.8420 -0.1555  0.4379
  164SOPE   H7R18410   1.525   5.815   9.597  1.5506 -0.5604 -2.2214
  164SOPE   H7S18411   1.656   5.694   9.577 -0.0995  1.7517 -2.5025
  164SOPE   C2818412   1.469   5.608   9.539 -0.8462  0.3450 -0.3719
  164SOPE   H8R18413   1.506   5.512   9.581  1.8362  1.5595  0.2783
  164SOPE   H8S18414   1.366   5.629   9.573 -0.5168  1.3746  0.0506
  164SOPE   C2918415   1.497   5.628   9.390 -0.4515  0.4060 -0.4338
  164SOPE   H9118416   1.584   5.574   9.350  1.2774  2.0828  0.9008
  164SOPE  C21018417   1.428   5.710   9.311  0.0682 -1.1252  0.2100
  164SOPE  H10118418   1.465   5.714   9.207 -2.3218  3.2789 -0.7170
  164SOPE  C21118419   1.314   5.798   9.342  0.7089  0.7701  0.0866
  164SOPE  H11R18420   1.329   5.907   9.327 -0.5693  1.3482  2.5186
  164SOPE  H11S18421   1.288   5.777   9.448 -0.5364 -2.2499 -0.6958
  164SOPE  C21218422   1.195   5.756   9.261  0.2616  0.1289  0.7332
  164SOPE  H12R18423   1.112   5.829   9.274  0.8494  0.9228  0.1123
  164SOPE  H12S18424   1.149   5.668   9.310  1.1425  0.0453  1.4217
  164SOPE  C21318425   1.221   5.741   9.109 -0.5156  0.4225 -0.1565
  164SOPE  H13R18426   1.288   5.656   9.085 -0.2053  0.5185  0.3756
  164SOPE  H13S18427   1.275   5.836   9.088 -1.2189  1.5430  2.7279
  164SOPE  C21418428   1.107   5.725   9.013 -0.2380  0.0292  0.6076
  164SOPE  H14R18429   1.063   5.825   8.994 -1.1046 -0.2814  0.8861
  164SOPE  H14S18430   1.029   5.670   9.071 -0.4533 -1.9501 -1.4119
  164SOPE  C21518431   1.141   5.639   8.886  0.4003  0.5159  0.1901
  164SOPE  H15R18432   1.047   5.631   8.828  1.1167 -1.1931 -0.8128
  164SOPE  H15S18433   1.164   5.536   8.921  0.4859  0.2792 -0.5504
  164SOPE  C21618434   1.255   5.690   8.797  0.1971 -0.4517 -0.4147
  164SOPE  H16R18435   1.345   5.721   8.854 -0.5676  0.8264  0.1319
  164SOPE  H16S18436   1.224   5.789   8.758 -0.0128  0.3810  1.7472
  164SOPE  C21718437   1.296   5.603   8.682 -0.5220  0.0797  0.5729
  164SOPE  H17R18438   1.203   5.571   8.629  1.3098 -0.0550 -2.8099
  164SOPE  H17S18439   1.335   5.510   8.729  1.6972  0.9148  0.5120
  164SOPE  C21818440   1.389   5.671   8.579  0.0092 -0.1165  0.0027
  164SOPE  H18R18441   1.330   5.743   8.518 -0.8439  0.6972  1.7317
  164SOPE  H18S18442   1.448   5.601   8.516 -0.9776 -1.0036  0.0477
  164SOPE  H18T18443   1.455   5.749   8.623 -0.0877  1.9732 -3.1892
  164SOPE   C3318444   1.304   6.476  10.038  0.3107  0.5355 -0.0799
  164SOPE   H3X18445   1.278   6.577  10.077 -0.7848  0.3856 -0.3902
  164SOPE   H3Y18446   1.203   6.433  10.023  1.3333 -2.0330 -0.2267
  164SOPE   C3418447   1.356   6.472   9.890  0.0310  0.0277 -0.0287
  164SOPE   H4X18448   1.407   6.376   9.866  2.3797  1.1673  0.1580
  164SOPE   H4Y18449   1.442   6.541   9.884 -0.6455  0.9240  0.4507
  164SOPE   C3518450   1.255   6.500   9.783 -0.1448 -0.6508  0.5604
  164SOPE   H5X18451   1.207   6.598   9.804 -0.3577 -0.8197  0.8738
  164SOPE   H5Y18452   1.180   6.418   9.795  1.5276 -2.1433  1.3576
  164SOPE   C3618453   1.318   6.502   9.642  0.2743  0.1203 -0.7104
  164SOPE   H6X18454   1.341   6.399   9.609  3.1926  0.3739  0.2494
  164SOPE   H6Y18455   1.417   6.553   9.640  0.2742  0.1092 -1.9026
  164SOPE   C3718456   1.223   6.567   9.541  0.2069  0.5498  0.3834
  164SOPE   H7X18457   1.217   6.672   9.574 -1.1314  1.5675 -2.7270
  164SOPE   H7Y18458   1.118   6.530   9.543  0.4950 -0.2664  1.8492
  164SOPE   C3818459   1.277   6.562   9.396 -0.3400 -0.0185  0.8682
  164SOPE   H8X18460   1.273   6.457   9.358  1.3313  0.6374 -1.3758
  164SOPE   H8Y18461   1.384   6.591   9.393 -0.8995  2.3996 -3.4979
  164SOPE   C3918462   1.198   6.665   9.311  0.3054  0.5061 -0.4719
  164SOPE   H9X18463   1.215   6.770   9.341  1.0489  0.0087  0.9486
  164SOPE   H9Y18464   1.088   6.656   9.326  0.6634  0.6920  2.9680
  164SOPE  C31018465   1.244   6.645   9.164 -0.0171 -0.1811  0.6022
  164SOPE  H10X18466   1.224   6.541   9.130 -1.1121  0.0079  0.6216
  164SOPE  H10Y18467   1.353   6.662   9.159 -0.1974  0.8369 -0.3187
  164SOPE  C31118468   1.189   6.756   9.061 -0.0313  1.1512  0.4731
  164SOPE  H11X18469   1.239   6.852   9.082  2.3687 -0.0908  0.7290
  164SOPE  H11Y18470   1.081   6.778   9.079 -0.2173  0.8966 -0.2931
  164SOPE  C31218471   1.195   6.705   8.916  0.3125  0.1496 -0.4378
  164SOPE  H12X18472   1.186   6.594   8.906  2.3261 -0.1725  0.6219
  164SOPE  H12Y18473   1.295   6.726   8.873  0.9541  0.5980  1.2229
  164SOPE  C31318474   1.106   6.785   8.826 -0.8708 -0.2200  0.6256
  164SOPE  H13X18475   1.156   6.790   8.727  1.5451 -2.7230  1.5994
  164SOPE  H13Y18476   1.114   6.892   8.856  0.6122 -0.3578  0.7900
  164SOPE  C31418477   0.963   6.750   8.803  0.9398 -0.2372 -0.5113
  164SOPE  H14X18478   0.923   6.717   8.902  0.5865 -0.1431 -0.6200
  164SOPE  H14Y18479   0.956   6.656   8.745 -0.2109 -0.5265  0.0422
  164SOPE  C31518480   0.876   6.864   8.737  0.3353 -0.0217  0.4140
  164SOPE  H15X18481   0.926   6.962   8.725 -0.8860  0.9227  2.4811
  164SOPE  H15Y18482   0.788   6.884   8.801 -0.4611  0.3274 -0.7738
  164SOPE  C31618483   0.823   6.825   8.597 -0.3416  0.1095  0.6085
  164SOPE  H16X18484   0.738   6.754   8.599 -0.4626  0.2091 -0.4818
  164SOPE  H16Y18485   0.902   6.769   8.542 -2.4932 -0.8731 -1.6797
  164SOPE  C31718486   0.786   6.951   8.531  0.5662  0.3157  0.3345
  164SOPE  H17X18487   0.730   7.027   8.591 -1.3093 -0.9766  0.2942
  164SOPE  H17Y18488   0.717   6.919   8.450  1.1361  0.1985 -0.1072
  164SOPE  C31818489   0.902   7.034   8.473  0.4031 -0.3740 -0.2130
  164SOPE  H18X18490   0.983   6.967   8.438 -1.3831 -1.9836 -1.5045
  164SOPE  H18Y18491   0.948   7.088   8.558  0.0610  0.8571 -0.7912
  164SOPE  H18Z18492   0.866   7.113   8.404  0.1594  0.1264  0.4697
  165SOPE     N18493   5.733   6.181  10.946  0.2153  0.0333  0.7311
  165SOPE   HN118494   5.749   6.084  10.979 -0.3312 -0.0199  0.8432
  165SOPE   HN218495   5.823   6.217  10.909 -0.8506  2.2912  0.1594
  165SOPE   HN318496   5.686   6.238  11.019  1.1912 -1.3214  2.5052
  165SOPE   C1218497   5.643   6.167  10.822 -0.2014 -0.2896 -0.5640
  165SOPE  H12A18498   5.597   6.263  10.793  0.0534  0.7473  2.1336
  165SOPE  H12B18499   5.557   6.102  10.851  1.1949 -1.9444  0.0963
  165SOPE   C1118500   5.711   6.106  10.697 -0.0994 -0.0603 -0.2005
  165SOPE  H11A18501   5.760   6.185  10.636  0.1668  1.4506  1.8474
  165SOPE  H11B18502   5.639   6.069  10.621  1.0953 -1.6820 -0.5971
  165SOPE     P18503   5.754   5.871  10.806 -0.0124  0.1084  0.0583
  165SOPE   O1318504   5.719   5.909  10.941  0.6012  0.1163  0.4348
  165SOPE   O1418505   5.852   5.764  10.792  0.0669 -0.3349  0.8720
  165SOPE   O1218506   5.807   6.006  10.731  0.0016  0.1607 -0.3029
  165SOPE   O1118507   5.623   5.834  10.717 -0.2849 -0.2321 -0.0090
  165SOPE    C118508   5.649   5.769  10.596  0.4234 -0.0435  0.0677
  165SOPE    HA18509   5.734   5.812  10.538 -0.2794  1.6132  0.2218
  165SOPE    HB18510   5.565   5.789  10.526 -0.5109 -2.1006  0.5080
  165SOPE    C218511   5.637   5.615  10.594 -0.3084 -0.4342 -0.1650
  165SOPE    HS18512   5.710   5.562  10.659 -0.5349 -0.2761  0.2221
  165SOPE   O2118513   5.634   5.578  10.455 -0.1327  0.2149  0.2438
  165SOPE   C2118514   5.751   5.566  10.401 -1.3136 -0.5838  0.9400
  165SOPE   O2218515   5.864   5.575  10.451 -0.3720 -0.2688  0.1553
  165SOPE   C2218516   5.741   5.519  10.258 -0.1298  0.4833  0.1973
  165SOPE   H2R18517   5.698   5.417  10.251  1.0056  0.0493 -0.7949
  165SOPE   H2S18518   5.847   5.516  10.225  0.3361  0.6194  1.6241
  165SOPE    C318519   5.500   5.579  10.649 -1.2883 -0.0861 -0.5188
  165SOPE    HX18520   5.432   5.635  10.581  1.4119  0.0960 -3.2810
  165SOPE    HY18521   5.483   5.611  10.754 -0.4213 -2.5677  0.4379
  165SOPE   O3118522   5.480   5.443  10.636 -0.1337  0.5130  0.0774
  165SOPE   C3118523   5.525   5.364  10.732  0.0202 -0.4894  0.6851
  165SOPE   O3218524   5.585   5.395  10.830  0.1420 -0.3873  0.2350
  165SOPE   C3218525   5.479   5.221  10.700 -0.1833  0.1610  0.0885
  165SOPE   H2X18526   5.442   5.180  10.797  2.0363 -0.4368  0.7585
  165SOPE   H2Y18527   5.572   5.175  10.662  0.9459  1.4549  1.1644
  165SOPE   C2318528   5.673   5.615  10.166  0.5290  0.3753 -0.2578
  165SOPE   H3R18529   5.574   5.652  10.200  0.5509  0.9877 -0.8350
  165SOPE   H3S18530   5.662   5.579  10.062  1.1951  0.7022 -0.4445
  165SOPE   C2418531   5.754   5.743  10.146 -0.1766 -0.3993  0.4739
  165SOPE   H4R18532   5.690   5.819  10.096  2.3580  1.2407 -0.5015
  165SOPE   H4S18533   5.780   5.793  10.242 -0.5980  1.3049 -0.2744
  165SOPE   C2518534   5.884   5.729  10.067  0.2678  0.2404 -1.0271
  165SOPE   H5R18535   5.928   5.831  10.055 -1.0276  0.7596 -1.5503
  165SOPE   H5S18536   5.954   5.675  10.134 -3.0915 -0.9504  1.7829
  165SOPE   C2618537   5.878   5.683   9.924 -0.4903 -0.3854 -0.1227
  165SOPE   H6R18538   5.984   5.675   9.892 -0.1660  0.6687  0.6414
  165SOPE   H6S18539   5.842   5.578   9.930 -0.5067 -0.3832 -0.1681
  165SOPE   C2718540   5.792   5.780   9.838 -0.2275 -0.2389 -0.3172
  165SOPE   H7R18541   5.688   5.791   9.876  0.2266 -2.1031  1.7067
  165SOPE   H7S18542   5.834   5.883   9.831  0.3419 -0.4695 -0.3870
  165SOPE   C2818543   5.778   5.734   9.686  0.2807  0.3413  0.6189
  165SOPE   H8R18544   5.874   5.702   9.640  0.0499  0.3424  0.1386
  165SOPE   H8S18545   5.713   5.644   9.685 -0.2530  0.7220 -0.6499
  165SOPE   C2918546   5.723   5.839   9.593 -0.0670  0.5534 -0.4627
  165SOPE   H9118547   5.672   5.918   9.649  1.1838  2.1466 -1.4919
  165SOPE  C21018548   5.714   5.828   9.461  0.1518 -0.3185  0.0769
  165SOPE  H10118549   5.667   5.915   9.411  1.5831  1.1173  1.1165
  165SOPE  C21118550   5.771   5.717   9.376 -1.0270  0.2264  0.0478
  165SOPE  H11R18551   5.783   5.621   9.432 -2.0815 -0.2181 -0.4651
  165SOPE  H11S18552   5.874   5.738   9.339 -0.7813  0.1201  0.6666
  165SOPE  C21218553   5.673   5.664   9.265  0.3580  0.6926  0.2213
  165SOPE  H12R18554   5.584   5.630   9.322  0.5157  0.7187  0.4873
  165SOPE  H12S18555   5.706   5.570   9.215  1.4475  1.8905 -1.4172
  165SOPE  C21318556   5.632   5.771   9.157 -0.3168 -0.0761  0.4322
  165SOPE  H13R18557   5.565   5.848   9.200  1.7987  1.9306  0.3405
  165SOPE  H13S18558   5.575   5.714   9.081 -0.9232  0.9447  0.1072
  165SOPE  C21418559   5.745   5.840   9.073 -0.4175  0.2385  1.3178
  165SOPE  H14R18560   5.833   5.772   9.074 -0.4777  0.0329 -1.2702
  165SOPE  H14S18561   5.771   5.936   9.122 -0.8080  0.3736  1.2662
  165SOPE  C21518562   5.714   5.877   8.922  0.3363  0.4732  0.5167
  165SOPE  H15R18563   5.635   5.954   8.924 -2.3246 -2.0023 -1.2562
  165SOPE  H15S18564   5.669   5.792   8.866  1.4909 -1.1062  1.8719
  165SOPE  C21618565   5.834   5.942   8.852 -0.0035  0.4473 -0.6088
  165SOPE  H16R18566   5.871   6.022   8.920  1.0270 -1.7904  1.6089
  165SOPE  H16S18567   5.796   5.985   8.756  1.0531 -0.3472 -1.4080
  165SOPE  C21718568   5.938   5.842   8.800 -0.3542 -0.2628 -0.0199
  165SOPE  H17R18569   5.890   5.752   8.755  2.4992 -1.0378 -1.7615
  165SOPE  H17S18570   5.990   5.814   8.894  0.2370 -4.7121 -1.4265
  165SOPE  C21818571   6.020   5.897   8.687  0.2985 -1.0523 -0.1751
  165SOPE  H18R18572   5.958   5.906   8.595  0.4363  1.8269 -0.1024
  165SOPE  H18S18573   6.105   5.831   8.660  2.6521  2.0263 -0.8237
  165SOPE  H18T18574   6.048   6.003   8.708 -2.3346 -0.4885  1.0027
  165SOPE   C3318575   5.364   5.211  10.600 -0.0802  0.2014 -0.1818
  165SOPE   H3X18576   5.383   5.261  10.502  0.4395  1.5050  0.5594
  165SOPE   H3Y18577   5.278   5.263  10.647 -0.5464 -0.2243 -0.5481
  165SOPE   C3418578   5.301   5.074  10.581 -0.2476 -0.7334 -0.8209
  165SOPE   H4X18579   5.248   5.043  10.673  1.2136 -1.5738 -0.2166
  165SOPE   H4Y18580   5.382   5.000  10.563 -0.1066 -0.6327 -0.6066
  165SOPE   C3518581   5.208   5.071  10.459 -0.5918  0.1013 -0.5391
  165SOPE   H5X18582   5.267   5.114  10.375  2.2213 -0.2275  1.1269
  165SOPE   H5Y18583   5.117   5.133  10.461 -0.1277  0.9946 -3.3930
  165SOPE   C3618584   5.177   4.923  10.416  0.6093  0.3287  0.2729
  165SOPE   H6X18585   5.132   4.873  10.505 -0.3848  1.0870  0.2166
  165SOPE   H6Y18586   5.273   4.870  10.401  0.0883 -0.1861 -1.5128
  165SOPE   C3718587   5.087   4.912  10.289 -0.4574  0.4990 -0.1018
  165SOPE   H7X18588   4.985   4.951  10.303  0.1712  2.3517 -0.4227
  165SOPE   H7Y18589   5.068   4.803  10.273  1.1925  0.1068  0.3743
  165SOPE   C3818590   5.154   4.962  10.161 -0.0506  0.1788 -0.0905
  165SOPE   H8X18591   5.253   4.913  10.146 -0.8171 -1.7235  0.8462
  165SOPE   H8Y18592   5.182   5.069  10.173 -0.9752  0.3799  0.3190
  165SOPE   C3918593   5.069   4.963  10.028  0.2927  0.1109  0.0882
  165SOPE   H9X18594   4.968   5.009  10.035 -0.8966 -1.8538 -2.4808
  165SOPE   H9Y18595   5.049   4.855  10.008 -0.1310  0.3407 -0.7382
  165SOPE  C31018596   5.147   5.028   9.920  0.0074 -0.9548  0.6873
  165SOPE  H10X18597   5.251   4.989   9.915  0.8526  1.2678 -3.1368
  165SOPE  H10Y18598   5.159   5.138   9.934  1.4291 -1.0551  0.4276
  165SOPE  C31118599   5.084   5.004   9.777 -0.4201  0.1626 -0.3977
  165SOPE  H11X18600   4.988   5.058   9.764  0.3030  1.6512  0.1534
  165SOPE  H11Y18601   5.068   4.894   9.772  0.8072 -0.0733  0.2977
  165SOPE  C31218602   5.180   5.029   9.659 -0.1320  0.1499 -0.1001
  165SOPE  H12X18603   5.151   4.965   9.572  1.6925 -0.5262 -0.2667
  165SOPE  H12Y18604   5.276   4.987   9.697  0.2972  0.9957 -0.2249
  165SOPE  C31318605   5.198   5.175   9.634  0.2848 -0.0330 -0.1334
  165SOPE  H13X18606   5.291   5.194   9.576  0.1815  0.4105 -0.1571
  165SOPE  H13Y18607   5.202   5.241   9.723 -1.4842  2.2016 -1.5763
  165SOPE  C31418608   5.065   5.221   9.566  0.0243 -0.1847 -0.2374
  165SOPE  H14X18609   4.976   5.221   9.632 -0.6059 -1.7553 -1.0307
  165SOPE  H14Y18610   5.043   5.144   9.489  0.5986 -1.4428  0.8235
  165SOPE  C31518611   5.072   5.353   9.484 -0.1149 -0.0583  0.3387
  165SOPE  H15X18612   5.069   5.433   9.561 -0.1085 -0.2238  0.5125
  165SOPE  H15Y18613   4.979   5.362   9.425  0.0460 -0.8834 -0.0473
  165SOPE  C31618614   5.193   5.377   9.389 -0.4147  0.0086 -0.7215
  165SOPE  H16X18615   5.291   5.360   9.438 -1.1004 -0.7968  0.4332
  165SOPE  H16Y18616   5.197   5.482   9.354 -3.9746  0.4390 -0.2341
  165SOPE  C31718617   5.178   5.295   9.260 -0.5558  0.4300 -0.1426
  165SOPE  H17X18618   5.067   5.289   9.248 -0.3773 -2.9514 -1.1133
  165SOPE  H17Y18619   5.201   5.187   9.269  2.3289  0.9988  0.2881
  165SOPE  C31818620   5.258   5.338   9.137 -0.4202  0.3292  0.2629
  165SOPE  H18X18621   5.254   5.255   9.062 -1.9345 -0.1201  0.8088
  165SOPE  H18Y18622   5.366   5.347   9.163 -0.2502  0.4081 -0.4442
  165SOPE  H18Z18623   5.230   5.432   9.085 -0.2662  0.0235 -0.3872
  166SOPE     N18624   2.239   6.134  11.295 -0.9686  0.5757 -0.2849
  166SOPE   HN118625   2.225   6.229  11.255 -1.7104 -0.0777 -1.6272
  166SOPE   HN218626   2.163   6.071  11.263  0.0377 -0.9240  0.1711
  166SOPE   HN318627   2.237   6.119  11.398 -0.5604 -0.0824 -0.3695
  166SOPE   C1218628   2.374   6.075  11.255  0.1107  0.4836 -0.0940
  166SOPE  H12A18629   2.387   5.982  11.313  0.3256 -1.0838 -2.5427
  166SOPE  H12B18630   2.446   6.149  11.296 -0.5364  0.8088  0.4695
  166SOPE   C1118631   2.386   6.067  11.108  0.3104 -0.4418  0.9138
  166SOPE  H11A18632   2.389   6.156  11.042  0.0794 -1.1216 -0.0337
  166SOPE  H11B18633   2.300   6.007  11.070  1.2296 -0.7768 -0.7224
  166SOPE     P18634   2.634   6.019  11.026 -0.0780 -0.1373 -0.1845
  166SOPE   O1318635   2.699   5.890  10.988 -0.6488  0.6713 -0.4096
  166SOPE   O1418636   2.697   6.105  11.132  0.2884  0.7948  0.2656
  166SOPE   O1218637   2.494   5.977  11.077 -0.3066  0.0342 -0.2212
  166SOPE   O1118638   2.594   6.104  10.890  0.3567  0.2479 -0.3027
  166SOPE    C118639   2.494   6.053  10.795  0.9716  0.0591  0.5098
  166SOPE    HA18640   2.400   6.108  10.813 -0.0301 -0.8867 -1.4931
  166SOPE    HB18641   2.465   5.947  10.806 -0.9707  0.3748 -1.0275
  166SOPE    C218642   2.540   6.081  10.644 -0.5767  0.7196 -0.4540
  166SOPE    HS18643   2.624   6.011  10.623 -1.0034 -0.1127  0.4923
  166SOPE   O2118644   2.585   6.216  10.631  0.0991  0.7093  0.3044
  166SOPE   C2118645   2.675   6.240  10.545 -0.1664 -0.3474 -0.4560
  166SOPE   O2218646   2.756   6.171  10.486 -0.4099 -0.1707  0.0018
  166SOPE   C2218647   2.660   6.391  10.503 -1.0157  0.6386 -0.2753
  166SOPE   H2R18648   2.699   6.437  10.597 -3.3808 -0.6997  1.4742
  166SOPE   H2S18649   2.554   6.419  10.484 -1.0312  0.9152  0.1938
  166SOPE    C318650   2.432   6.053  10.534  0.5856 -0.2040 -0.8239
  166SOPE    HX18651   2.345   6.123  10.540  0.2007 -0.6865 -0.7442
  166SOPE    HY18652   2.401   5.951  10.562 -1.1433  0.8242  1.3399
  166SOPE   O3118653   2.487   6.080  10.408  0.3061  0.2946  0.3887
  166SOPE   C3118654   2.535   5.978  10.342 -0.1559  0.3573 -0.4564
  166SOPE   O3218655   2.528   5.863  10.381  0.0257 -0.2893  0.2176
  166SOPE   C3218656   2.594   6.025  10.211 -0.4131  0.2774 -0.1108
  166SOPE   H2X18657   2.694   6.069  10.229 -0.0961 -0.3452 -0.3060
  166SOPE   H2Y18658   2.533   6.112  10.179 -0.5927  0.7566  1.4500
  166SOPE   C2318659   2.743   6.425  10.380  0.1299  0.0684 -0.2848
  166SOPE   H3R18660   2.845   6.387  10.401  0.1665  1.4803  2.5262
  166SOPE   H3S18661   2.740   6.536  10.369 -1.0315 -0.1012 -2.0418
  166SOPE   C2418662   2.692   6.373  10.247  0.2650 -0.0342  0.3242
  166SOPE   H4R18663   2.705   6.263  10.237  0.6433  0.0372  0.0105
  166SOPE   H4S18664   2.584   6.392  10.267 -0.0001  0.8112 -1.6626
  166SOPE   C2518665   2.747   6.439  10.120  0.1760 -0.1636  0.1334
  166SOPE   H5R18666   2.731   6.549  10.109  0.6358 -0.0488  0.5497
  166SOPE   H5S18667   2.857   6.424  10.115 -0.0089 -1.1232 -1.7704
  166SOPE   C2618668   2.690   6.368   9.995 -0.6886  0.0266  0.9108
  166SOPE   H6R18669   2.765   6.366   9.913 -0.3525 -0.8739  1.2314
  166SOPE   H6S18670   2.664   6.261  10.011 -3.1340  0.0987 -1.7063
  166SOPE   C2718671   2.557   6.424   9.952  0.3703 -1.0929 -0.9240
  166SOPE   H7R18672   2.482   6.364  10.007  0.4997 -1.0890 -0.7423
  166SOPE   H7S18673   2.544   6.528   9.990 -0.9673 -1.5490 -0.0599
  166SOPE   C2818674   2.523   6.433   9.796 -0.0639  0.6349  0.0183
  166SOPE   H8R18675   2.423   6.480   9.787  0.6561  2.0078 -1.5529
  166SOPE   H8S18676   2.597   6.509   9.760  0.4509  1.1555  2.0078
  166SOPE   C2918677   2.528   6.286   9.754  0.1443  0.2510 -0.7047
  166SOPE   H9118678   2.503   6.214   9.833 -2.1205  2.9451  1.2505
  166SOPE  C21018679   2.581   6.244   9.639  0.4198  0.2227 -0.4495
  166SOPE  H10118680   2.575   6.137   9.618 -1.5086  0.3241 -0.5326
  166SOPE  C21118681   2.637   6.328   9.527  0.2710 -0.5662  0.0690
  166SOPE  H11R18682   2.748   6.337   9.522  0.1954  0.7867  0.3027
  166SOPE  H11S18683   2.605   6.435   9.528 -0.2438 -0.7172 -0.2481
  166SOPE  C21218684   2.605   6.261   9.394 -0.1682  0.2557 -0.7670
  166SOPE  H12R18685   2.497   6.233   9.390  0.0884 -0.7151 -1.2860
  166SOPE  H12S18686   2.663   6.167   9.408 -0.9754  0.0296  1.6390
  166SOPE  C21318687   2.656   6.341   9.282 -0.4890  0.1127 -0.3475
  166SOPE  H13R18688   2.759   6.368   9.314 -0.8157  0.1820  0.6794
  166SOPE  H13S18689   2.598   6.434   9.268 -0.5718  0.2207  0.6808
  166SOPE  C21418690   2.654   6.256   9.149 -0.4711 -0.6360 -0.5867
  166SOPE  H14R18691   2.661   6.333   9.068  0.4454  0.0711  0.1465
  166SOPE  H14S18692   2.560   6.200   9.134 -1.0160  0.1926 -0.3485
  166SOPE  C21518693   2.756   6.147   9.147  0.1158  1.0564 -0.1854
  166SOPE  H15R18694   2.714   6.074   9.219 -0.3822  1.5140 -0.0136
  166SOPE  H15S18695   2.854   6.182   9.187  0.9444 -3.1304  2.0602
  166SOPE  C21618696   2.773   6.069   9.016 -0.1418 -0.3410  0.5506
  166SOPE  H16R18697   2.816   6.136   8.938  0.8870 -2.0093 -0.3905
  166SOPE  H16S18698   2.675   6.035   8.975  0.4467  1.0469 -2.2645
  166SOPE  C21718699   2.868   5.956   9.033 -0.3493  0.1101  0.7519
  166SOPE  H17R18700   2.818   5.871   9.084 -1.2606  1.7087  2.6568
  166SOPE  H17S18701   2.948   5.982   9.105  0.2615 -0.8959  0.4620
  166SOPE  C21818702   2.927   5.896   8.902  0.8834 -0.6281 -0.0363
  166SOPE  H18R18703   2.995   5.810   8.922  2.2565  0.7432  1.4231
  166SOPE  H18S18704   2.987   5.974   8.849  0.4207 -0.6614 -0.6229
  166SOPE  H18T18705   2.850   5.856   8.833 -1.2903 -0.3305  2.1095
  166SOPE   C3318706   2.611   5.918  10.096  0.4770 -1.1385  0.4812
  166SOPE   H3X18707   2.549   5.957  10.013 -1.7244 -1.1979  2.0041
  166SOPE   H3Y18708   2.557   5.825  10.126 -1.0358 -0.3340  0.3459
  166SOPE   C3418709   2.755   5.885  10.063  0.0748 -0.2009 -0.5077
  166SOPE   H4X18710   2.803   5.841  10.153 -1.3781 -0.0518  0.3775
  166SOPE   H4Y18711   2.803   5.982  10.036  0.7371 -0.6773 -1.0996
  166SOPE   C3518712   2.758   5.787   9.945  0.2003 -0.5357 -0.0836
  166SOPE   H5X18713   2.699   5.696   9.965  2.1387 -1.4500  1.8944
  166SOPE   H5Y18714   2.858   5.742   9.927  0.6435 -0.1700  1.3886
  166SOPE   C3618715   2.699   5.855   9.820  0.7453 -0.0529  0.5326
  166SOPE   H6X18716   2.772   5.936   9.796 -0.1366  0.5440 -0.1778
  166SOPE   H6Y18717   2.591   5.878   9.820  0.0966 -2.7237 -0.6989
  166SOPE   C3718718   2.699   5.767   9.696 -0.0434 -0.4034 -0.1961
  166SOPE   H7X18719   2.663   5.664   9.719 -2.2086  0.1143 -1.0614
  166SOPE   H7Y18720   2.800   5.765   9.649 -0.2481 -0.6676 -0.6301
  166SOPE   C3818721   2.611   5.826   9.584 -0.9648 -0.1612  0.7798
  166SOPE   H8X18722   2.646   5.930   9.564 -1.9644 -0.1567 -1.2577
  166SOPE   H8Y18723   2.509   5.838   9.625 -0.2348 -2.4337  3.5286
  166SOPE   C3918724   2.600   5.736   9.464  0.2622 -0.5943  0.5478
  166SOPE   H9X18725   2.698   5.698   9.428  0.5460 -0.4306  1.1227
  166SOPE   H9Y18726   2.548   5.793   9.385 -1.2228 -3.5679 -0.7618
  166SOPE  C31018727   2.499   5.624   9.480 -0.0292 -0.5922 -0.2860
  166SOPE  H10X18728   2.405   5.679   9.502  0.2513  0.3017 -1.2008
  166SOPE  H10Y18729   2.530   5.564   9.568 -0.0225  4.4130  3.5598
  166SOPE  C31118730   2.463   5.530   9.361 -0.6296  0.1125 -0.0471
  166SOPE  H11X18731   2.381   5.463   9.396 -0.1017 -0.3156  0.3912
  166SOPE  H11Y18732   2.553   5.472   9.331 -0.3196 -0.6103  2.1220
  166SOPE  C31218733   2.424   5.616   9.237  0.4908  0.0845  0.5765
  166SOPE  H12X18734   2.508   5.675   9.196 -0.3608  2.5242  2.1015
  166SOPE  H12Y18735   2.350   5.692   9.269  2.7374  2.7045 -0.0794
  166SOPE  C31318736   2.356   5.523   9.124  0.1872 -0.5468 -0.2151
  166SOPE  H13X18737   2.245   5.526   9.132  0.3108  0.8998  1.3664
  166SOPE  H13Y18738   2.403   5.424   9.138 -2.6850 -2.0751 -0.6876
  166SOPE  C31418739   2.388   5.586   8.990 -0.2907  0.2743 -0.1265
  166SOPE  H14X18740   2.496   5.601   8.968 -0.6023 -1.2045 -3.1546
  166SOPE  H14Y18741   2.352   5.691   8.983 -2.3400 -0.4555 -1.5849
  166SOPE  C31518742   2.330   5.501   8.873 -0.0433  1.0423 -0.0487
  166SOPE  H15X18743   2.272   5.565   8.803 -1.8215  1.1288  1.4206
  166SOPE  H15Y18744   2.253   5.437   8.921  0.2557  0.5380 -0.2286
  166SOPE  C31618745   2.443   5.418   8.808  0.5678  0.1722 -0.2380
  166SOPE  H16X18746   2.492   5.349   8.880 -1.8341 -0.7561  0.6070
  166SOPE  H16Y18747   2.520   5.489   8.770 -0.8232  1.7914 -0.1944
  166SOPE  C31718748   2.395   5.338   8.693  0.1902 -0.7491 -0.0929
  166SOPE  H17X18749   2.374   5.398   8.601  1.1210  0.7400  0.6242
  166SOPE  H17Y18750   2.293   5.306   8.725 -0.4346  3.2410  2.6571
  166SOPE  C31818751   2.475   5.211   8.670 -0.3787  0.1205  0.1113
  166SOPE  H18X18752   2.584   5.226   8.683 -0.2587  0.5717 -1.2354
  166SOPE  H18Y18753   2.460   5.166   8.569 -0.0572  0.5906 -0.1527
  166SOPE  H18Z18754   2.461   5.131   8.746  1.7201  0.4987  0.9526
  167SOPE     N18755   0.809   4.326   6.266 -0.3801  0.2380  0.2387
  167SOPE   HN118756   0.873   4.377   6.330 -1.7924  3.0448 -0.4523
  167SOPE   HN218757   0.872   4.271   6.204  1.6655 -0.5252  2.7863
  167SOPE   HN318758   0.754   4.392   6.208  0.3502  0.6722  0.0286
  167SOPE   C1218759   0.715   4.244   6.351  0.1630 -0.4927  0.0304
  167SOPE  H12A18760   0.629   4.213   6.289 -0.4514 -0.4768  0.8651
  167SOPE  H12B18761   0.676   4.309   6.431  0.4958 -0.0585 -0.1533
  167SOPE   C1118762   0.792   4.118   6.410  0.1899 -0.3631 -0.1304
  167SOPE  H11A18763   0.720   4.054   6.466  2.4262 -2.6922  0.2983
  167SOPE  H11B18764   0.872   4.145   6.483 -2.0610  1.8367  1.6753
  167SOPE     P18765   0.833   3.895   6.275  0.0457  0.4486 -0.1284
  167SOPE   O1318766   0.925   3.844   6.170 -0.0281  0.0184 -0.4283
  167SOPE   O1418767   0.688   3.876   6.256 -0.8060 -0.5235 -0.8130
  167SOPE   O1218768   0.861   4.045   6.307 -0.4350  0.2365  0.3521
  167SOPE   O1118769   0.879   3.822   6.406  1.0274 -0.5649  0.2322
  167SOPE    C118770   1.012   3.779   6.425  0.0971  0.9279 -0.5914
  167SOPE    HA18771   1.088   3.860   6.420  1.0055  0.2266  1.0081
  167SOPE    HB18772   1.037   3.693   6.360  0.2186 -1.1499  2.0013
  167SOPE    C218773   1.040   3.735   6.572 -0.6168  1.2246 -0.9935
  167SOPE    HS18774   1.148   3.714   6.587 -1.1788 -0.2619  1.3484
  167SOPE   O2118775   0.975   3.609   6.616  0.6423  0.3255  0.7037
  167SOPE   C2118776   1.017   3.499   6.560 -0.2023 -0.1975  0.2066
  167SOPE   O2218777   1.088   3.489   6.459 -0.2602 -0.4986 -0.1534
  167SOPE   C2218778   0.954   3.383   6.636 -0.2997  0.0640  0.0018
  167SOPE   H2R18779   0.887   3.336   6.562  1.0840  0.6338 -1.6705
  167SOPE   H2S18780   0.892   3.410   6.725 -0.7553  0.8197 -0.5281
  167SOPE    C318781   0.998   3.846   6.670  1.2757  0.2871 -0.6048
  167SOPE    HX18782   0.897   3.881   6.639 -0.3220 -3.3442 -0.0118
  167SOPE    HY18783   1.052   3.940   6.644 -0.1275  0.4786 -3.1938
  167SOPE   O3118784   0.996   3.817   6.813 -0.5024  0.1717  0.3302
  167SOPE   C3118785   0.879   3.779   6.859  0.2310 -0.6876  0.2881
  167SOPE   O3218786   0.779   3.758   6.794  0.9879  0.7494  0.2408
  167SOPE   C3218787   0.889   3.771   7.007  0.2310  0.1520 -0.2114
  167SOPE   H2X18788   0.893   3.876   7.045  0.3974  0.6548 -1.5898
  167SOPE   H2Y18789   0.978   3.710   7.035 -1.3441 -1.0635  2.5843
  167SOPE   C2318790   1.072   3.288   6.681 -0.4094  1.0277  0.2652
  167SOPE   H3R18791   1.122   3.265   6.584 -2.6299 -0.1135 -0.6711
  167SOPE   H3S18792   1.021   3.194   6.711 -0.1592  0.3128 -1.4414
  167SOPE   C2418793   1.177   3.346   6.781  0.0465 -0.0486  0.1384
  167SOPE   H4R18794   1.244   3.264   6.815  1.2511  1.2785  1.1238
  167SOPE   H4S18795   1.230   3.420   6.718  0.3354  1.6429  2.2613
  167SOPE   C2518796   1.117   3.408   6.913  0.0860  0.3739 -0.0124
  167SOPE   H5R18797   1.200   3.474   6.947 -1.0188  1.5255  0.5386
  167SOPE   H5S18798   1.028   3.470   6.893  0.7594  2.3143  2.5136
  167SOPE   C2618799   1.091   3.308   7.012 -0.0153 -0.2150 -0.6292
  167SOPE   H6R18800   1.003   3.260   6.965  0.9906 -0.5810 -2.2481
  167SOPE   H6S18801   1.168   3.228   7.004  1.4014  1.2616 -3.2550
  167SOPE   C2718802   1.045   3.360   7.153  0.0945  0.4818  0.7058
  167SOPE   H7R18803   0.973   3.444   7.142  0.5036  0.4975 -3.6220
  167SOPE   H7S18804   1.009   3.270   7.207  0.4046 -0.1124 -0.0570
  167SOPE   C2818805   1.162   3.393   7.240  0.4719  0.7509  0.0069
  167SOPE   H8R18806   1.230   3.306   7.254  1.7929  1.7985  0.2199
  167SOPE   H8S18807   1.223   3.460   7.176 -0.0150 -0.3220 -1.6530
  167SOPE   C2918808   1.143   3.453   7.375  0.5011 -0.7509  0.3706
  167SOPE   H9118809   1.128   3.562   7.376  1.2125 -0.6480  0.3468
  167SOPE  C21018810   1.127   3.390   7.496 -0.3428 -0.0382  0.4421
  167SOPE  H10118811   1.113   3.450   7.587 -3.7920 -0.6184  0.3960
  167SOPE  C21118812   1.115   3.240   7.507  0.5168 -0.1814  0.3741
  167SOPE  H11R18813   1.169   3.199   7.595  0.4886  1.5024  1.2143
  167SOPE  H11S18814   1.168   3.198   7.419 -1.3892  1.4682 -1.6633
  167SOPE  C21218815   0.977   3.165   7.499  1.0504  0.3304 -0.2136
  167SOPE  H12R18816   0.907   3.218   7.430  0.8508  1.4628  0.8114
  167SOPE  H12S18817   0.946   3.174   7.606 -1.7111 -1.8597 -0.7209
  167SOPE  C21318818   0.990   3.023   7.454  0.2711  0.1085 -0.0518
  167SOPE  H13R18819   0.907   2.959   7.492  0.2682  0.0229 -0.2024
  167SOPE  H13S18820   1.088   2.982   7.487 -0.1721 -1.3772 -0.5074
  167SOPE  C21418821   0.988   2.999   7.302 -0.2236 -0.3278  0.1588
  167SOPE  H14R18822   1.081   3.038   7.256  0.7115 -0.5936  1.7632
  167SOPE  H14S18823   0.893   3.048   7.269 -0.0292  0.8252  1.2174
  167SOPE  C21518824   0.984   2.850   7.269  0.2951  0.3674 -0.1831
  167SOPE  H15R18825   0.934   2.784   7.343  1.6706 -0.9411 -0.3626
  167SOPE  H15S18826   1.088   2.816   7.248  0.7368  0.5117  1.6036
  167SOPE  C21618827   0.906   2.834   7.137 -0.2362 -0.0251 -0.3280
  167SOPE  H16R18828   0.942   2.903   7.057 -1.1220  1.2950  0.3695
  167SOPE  H16S18829   0.798   2.851   7.158 -0.0671 -0.7188  1.2268
  167SOPE  C21718830   0.928   2.704   7.069  0.1907 -0.1517 -0.1148
  167SOPE  H17R18831   0.907   2.611   7.127 -0.1169  1.6185  2.8121
  167SOPE  H17S18832   1.036   2.704   7.043  0.6556 -1.9884  1.5400
  167SOPE  C21818833   0.849   2.700   6.947  0.2701  0.5657 -0.5104
  167SOPE  H18R18834   0.742   2.676   6.965  0.2466  0.7063 -0.4571
  167SOPE  H18S18835   0.876   2.612   6.885 -0.4975 -0.1756  0.1774
  167SOPE  H18T18836   0.859   2.797   6.893  0.5085  2.5609  2.8196
  167SOPE   C3318837   0.768   3.703   7.069 -0.3850 -0.0137  0.4017
  167SOPE   H3X18838   0.759   3.602   7.024 -0.2469 -1.0818  2.6470
  167SOPE   H3Y18839   0.678   3.767   7.054 -1.2484 -1.4782 -0.9743
  167SOPE   C3418840   0.788   3.684   7.223 -0.1392 -0.2426 -0.2925
  167SOPE   H4X18841   0.884   3.632   7.241  0.1571  0.8010  1.3415
  167SOPE   H4Y18842   0.707   3.610   7.243 -0.8644  0.2843 -1.1715
  167SOPE   C3518843   0.780   3.819   7.295 -0.6738 -0.6171  0.3783
  167SOPE   H5X18844   0.751   3.895   7.219  0.1294  0.1718  0.8424
  167SOPE   H5Y18845   0.877   3.855   7.337 -0.8284 -0.9137  0.9945
  167SOPE   C3618846   0.673   3.829   7.408 -0.5854 -0.4011  0.5120
  167SOPE   H6X18847   0.679   3.730   7.459  2.1677 -1.8338 -2.2573
  167SOPE   H6Y18848   0.575   3.846   7.359  0.4969  3.4445 -0.6261
  167SOPE   C3718849   0.709   3.943   7.503  0.1549 -0.1607  0.0577
  167SOPE   H7X18850   0.725   4.041   7.452  1.4794 -1.1302 -1.4911
  167SOPE   H7Y18851   0.801   3.911   7.557 -1.1556 -1.1287  1.8130
  167SOPE   C3818852   0.610   3.969   7.621 -0.1609 -0.1383 -0.0703
  167SOPE   H8X18853   0.510   3.993   7.580 -0.5903  0.1946  1.1445
  167SOPE   H8Y18854   0.649   4.055   7.680 -2.0226  0.9380 -0.3311
  167SOPE   C3918855   0.594   3.850   7.704  0.0240  0.8154  0.0931
  167SOPE   H9X18856   0.692   3.829   7.754 -0.6320  1.1223  1.5795
  167SOPE   H9Y18857   0.574   3.761   7.641  0.0862  0.1681  0.9684
  167SOPE  C31018858   0.478   3.864   7.804  0.3158  0.7005 -0.1811
  167SOPE  H10X18859   0.383   3.868   7.747  0.5074  0.4192 -0.5314
  167SOPE  H10Y18860   0.495   3.957   7.862 -0.7102  0.9716 -0.3063
  167SOPE  C31118861   0.464   3.753   7.914  0.3684 -0.8910 -0.5926
  167SOPE  H11X18862   0.468   3.651   7.870 -1.9443 -0.8875 -0.9016
  167SOPE  H11Y18863   0.370   3.770   7.971  0.3961  0.3573 -0.8848
  167SOPE  C31218864   0.574   3.762   8.027  0.1991 -0.8499  0.1091
  167SOPE  H12X18865   0.672   3.758   7.973 -0.2347 -1.6033 -0.6520
  167SOPE  H12Y18866   0.554   3.675   8.093 -2.2105 -0.4581 -0.0170
  167SOPE  C31318867   0.566   3.881   8.124 -1.0033  0.0757  0.1069
  167SOPE  H13X18868   0.478   3.944   8.100 -0.6705  0.9870  1.2016
  167SOPE  H13Y18869   0.658   3.941   8.108 -0.9998  0.2498  0.7646
  167SOPE  C31418870   0.579   3.853   8.275 -0.1517 -0.1710  0.5936
  167SOPE  H14X18871   0.498   3.782   8.306 -0.5835  0.4180  0.8359
  167SOPE  H14Y18872   0.566   3.941   8.341 -1.1876 -1.1095  1.7022
  167SOPE  C31518873   0.713   3.790   8.321  0.3741  0.4134  0.7715
  167SOPE  H15X18874   0.734   3.810   8.428 -1.6295 -1.2212  1.5505
  167SOPE  H15Y18875   0.793   3.843   8.266  1.4332 -1.9358 -0.0793
  167SOPE  C31618876   0.732   3.644   8.282 -0.6136  0.8998  0.2611
  167SOPE  H16X18877   0.749   3.645   8.172 -0.9378  0.7779  0.2078
  167SOPE  H16Y18878   0.642   3.582   8.301 -1.1533  1.8855  0.9868
  167SOPE  C31718879   0.857   3.587   8.348 -0.0799  0.5325  0.6668
  167SOPE  H17X18880   0.931   3.669   8.352 -0.2278  0.7649 -0.8755
  167SOPE  H17Y18881   0.897   3.507   8.282 -2.2657 -0.3636  0.3045
  167SOPE  C31818882   0.826   3.533   8.492 -0.2446 -0.4632  0.3986
  167SOPE  H18X18883   0.741   3.462   8.494  1.8176 -3.0574  0.4940
  167SOPE  H18Y18884   0.796   3.619   8.555 -0.2869  0.7799 -1.2333
  167SOPE  H18Z18885   0.915   3.480   8.529  0.0666 -1.5164 -1.6803
  168SOPE     N18886   2.907   6.700   6.474  0.2931  0.1908  0.1842
  168SOPE   HN118887   3.005   6.721   6.501  0.4109  1.2568 -0.9808
  168SOPE   HN218888   2.880   6.768   6.400 -0.1288  0.8882  0.9670
  168SOPE   HN318889   2.850   6.724   6.558  0.0152 -0.1869  0.1074
  168SOPE   C1218890   2.881   6.558   6.423  0.6202  0.9052 -0.1342
  168SOPE  H12A18891   2.871   6.489   6.509  2.5881  1.7988  0.8789
  168SOPE  H12B18892   2.960   6.533   6.349 -2.3161 -2.4009 -2.4764
  168SOPE   C1118893   2.765   6.563   6.334  0.5441 -0.1240  0.3571
  168SOPE  H11A18894   2.742   6.469   6.280 -2.1807  0.4743  0.3215
  168SOPE  H11B18895   2.777   6.639   6.253  0.4804 -0.6581 -0.1633
  168SOPE     P18896   2.504   6.581   6.377  0.0500  0.3419 -0.4297
  168SOPE   O1318897   2.476   6.619   6.237 -0.3647 -0.0123 -0.1714
  168SOPE   O1418898   2.426   6.657   6.476 -0.2852  0.2697 -0.2284
  168SOPE   O1218899   2.656   6.598   6.416  0.2653 -0.1119  0.2362
  168SOPE   O1118900   2.465   6.431   6.393 -0.3547  0.5028  0.1823
  168SOPE    C118901   2.551   6.320   6.421 -0.4979  0.5447 -0.1894
  168SOPE    HA18902   2.630   6.355   6.491  1.6219 -1.9741 -1.1426
  168SOPE    HB18903   2.603   6.269   6.336 -1.0327 -1.3363  0.5720
  168SOPE    C218904   2.479   6.214   6.504  0.7545 -0.1358 -0.4528
  168SOPE    HS18905   2.402   6.161   6.444  0.0008 -0.1277  0.4911
  168SOPE   O2118906   2.421   6.278   6.621  0.1423 -0.0092  0.1514
  168SOPE   C2118907   2.290   6.248   6.645  0.4059  0.2831  0.6541
  168SOPE   O2218908   2.222   6.166   6.580 -0.0182  0.0420 -0.1550
  168SOPE   C2218909   2.247   6.314   6.769 -0.0409 -0.3227 -0.3049
  168SOPE   H2R18910   2.143   6.277   6.788 -0.7891  0.1412 -3.1421
  168SOPE   H2S18911   2.228   6.420   6.740  2.8016  0.8098  1.5979
  168SOPE    C318912   2.585   6.103   6.553 -0.3948  0.5889 -0.9499
  168SOPE    HX18913   2.658   6.161   6.613  0.4823 -0.5990 -0.8368
  168SOPE    HY18914   2.643   6.059   6.469 -1.3472  0.1762 -1.4078
  168SOPE   O3118915   2.529   6.002   6.638 -0.5403  0.1345 -0.4878
  168SOPE   C3118916   2.456   5.917   6.567 -0.1322 -0.3506  0.1644
  168SOPE   O3218917   2.447   5.922   6.443  0.1605 -0.0513  0.1385
  168SOPE   C3218918   2.396   5.814   6.663  0.2392  0.3917  0.4800
  168SOPE   H2X18919   2.382   5.719   6.608  1.1267 -0.3110  1.4358
  168SOPE   H2Y18920   2.294   5.850   6.686 -0.4209  0.0623 -1.6430
  168SOPE   C2318921   2.352   6.302   6.884 -0.2648  0.2450 -0.0125
  168SOPE   H3R18922   2.318   6.365   6.969 -1.7189  0.1399 -0.4820
  168SOPE   H3S18923   2.443   6.356   6.849 -1.0101  1.1018 -0.6842
  168SOPE   C2418924   2.372   6.158   6.939  0.4295 -0.0395 -0.6309
  168SOPE   H4R18925   2.385   6.091   6.851 -0.1358  2.0647 -2.4025
  168SOPE   H4S18926   2.466   6.166   6.997  0.8721  0.7107 -1.4301
  168SOPE   C2518927   2.258   6.105   7.026  0.2139  0.0333  0.1405
  168SOPE   H5R18928   2.240   6.181   7.105  1.0578  0.1121  0.2591
  168SOPE   H5S18929   2.160   6.101   6.973  0.2376  0.2908  0.0781
  168SOPE   C2618930   2.285   5.972   7.097  0.3827 -0.1175 -0.0516
  168SOPE   H6R18931   2.187   5.932   7.132  1.1235 -0.5794  1.6097
  168SOPE   H6S18932   2.335   5.893   7.038 -0.1310 -2.2951  2.2381
  168SOPE   C2718933   2.379   5.983   7.218  1.2047 -0.2371  0.5834
  168SOPE   H7R18934   2.480   6.016   7.187  0.3331  1.8609 -0.1966
  168SOPE   H7S18935   2.343   6.060   7.290 -0.2152  0.0144 -0.3585
  168SOPE   C2818936   2.403   5.852   7.287  0.2138 -0.4180  0.2903
  168SOPE   H8R18937   2.436   5.778   7.211 -0.9877  0.5095 -1.1882
  168SOPE   H8S18938   2.476   5.876   7.367 -0.0333  0.4326  0.2657
  168SOPE   C2918939   2.265   5.808   7.349 -0.2631 -0.3280  0.8579
  168SOPE   H9118940   2.182   5.797   7.278 -0.4233  2.2668  0.5559
  168SOPE  C21018941   2.242   5.795   7.475  0.1049  0.3987 -0.1720
  168SOPE  H10118942   2.134   5.787   7.496 -0.1000 -0.3960 -1.4195
  168SOPE  C21118943   2.329   5.815   7.599 -0.0096  0.5665  0.0007
  168SOPE  H11R18944   2.295   5.907   7.651 -0.1374  0.0916  0.7713
  168SOPE  H11S18945   2.429   5.841   7.557  0.9484 -0.4946  1.5177
  168SOPE  C21218946   2.335   5.685   7.686  0.3297 -0.3469 -0.0434
  168SOPE  H12R18947   2.432   5.631   7.674  0.2764 -0.1476 -1.4806
  168SOPE  H12S18948   2.255   5.611   7.667  0.5077 -1.0498  1.6979
  168SOPE  C21318949   2.328   5.734   7.828 -0.2198 -0.3914  0.2479
  168SOPE  H13R18950   2.245   5.804   7.850  0.3156  0.6913 -1.0143
  168SOPE  H13S18951   2.421   5.794   7.830 -0.7254  0.6088 -2.3562
  168SOPE  C21418952   2.348   5.622   7.941 -0.6052  0.3539  0.5235
  168SOPE  H14R18953   2.444   5.566   7.937 -0.2877  0.8547  0.9448
  168SOPE  H14S18954   2.261   5.554   7.931  0.6777 -1.2673  0.0160
  168SOPE  C21518955   2.346   5.696   8.081  0.0459  0.4843 -0.0393
  168SOPE  H15R18956   2.240   5.729   8.091  0.6739  2.0417  2.1866
  168SOPE  H15S18957   2.413   5.784   8.076  0.4733  0.4892  3.3084
  168SOPE  C21618958   2.384   5.608   8.204 -0.3294 -0.3254 -0.0391
  168SOPE  H16R18959   2.490   5.575   8.209 -0.3356 -0.9215 -2.6440
  168SOPE  H16S18960   2.322   5.518   8.184 -2.5967  1.0944  0.2148
  168SOPE  C21718961   2.341   5.691   8.323 -0.4754  0.2260 -0.0698
  168SOPE  H17R18962   2.235   5.720   8.309 -0.4499  0.0650 -0.6253
  168SOPE  H17S18963   2.405   5.782   8.322 -0.5081  0.2577 -1.8706
  168SOPE  C21818964   2.348   5.632   8.465 -0.4387 -0.5152  0.7067
  168SOPE  H18R18965   2.318   5.709   8.538  0.6960 -0.0972  0.7585
  168SOPE  H18S18966   2.449   5.596   8.494  0.9587  2.9103  0.5615
  168SOPE  H18T18967   2.279   5.545   8.468  2.3247 -3.0410 -1.7483
  168SOPE   C3318968   2.491   5.790   6.778  0.7539 -0.2001  0.9441
  168SOPE   H3X18969   2.483   5.878   6.846  0.1583  0.1203  0.4664
  168SOPE   H3Y18970   2.594   5.774   6.740 -0.2368  0.4084 -2.2358
  168SOPE   C3418971   2.447   5.665   6.860  0.0254 -0.3943 -0.0611
  168SOPE   H4X18972   2.460   5.571   6.801 -1.7545 -0.5476 -0.2541
  168SOPE   H4Y18973   2.341   5.679   6.889  0.6923  4.1119  0.9275
  168SOPE   C3518974   2.538   5.651   6.988  0.1837  0.2834 -0.6155
  168SOPE   H5X18975   2.550   5.747   7.042  1.1737 -0.3340  0.2889
  168SOPE   H5Y18976   2.640   5.628   6.950  0.7296  2.1730 -0.4157
  168SOPE   C3618977   2.490   5.537   7.077  0.6205 -0.7094  0.4218
  168SOPE   H6X18978   2.483   5.449   7.009 -2.0680 -0.7613  0.6382
  168SOPE   H6Y18979   2.391   5.566   7.119  1.1452 -0.8307  1.8117
  168SOPE   C3718980   2.584   5.519   7.195 -0.0709  0.1879 -1.0469
  168SOPE   H7X18981   2.601   5.621   7.235 -1.5330  0.0235  0.1099
  168SOPE   H7Y18982   2.687   5.486   7.170  0.1962 -0.6391  0.9868
  168SOPE   C3818983   2.518   5.425   7.296  0.2058  0.6952  0.3979
  168SOPE   H8X18984   2.518   5.323   7.251 -0.9265  0.8798 -0.0653
  168SOPE   H8Y18985   2.411   5.457   7.299  0.1605  0.7662 -1.1074
  168SOPE   C3918986   2.565   5.449   7.442 -0.3215 -0.0284  0.4381
  168SOPE   H9X18987   2.581   5.556   7.466  1.0103 -0.6934  2.8860
  168SOPE   H9Y18988   2.658   5.390   7.432 -1.0075 -0.9547 -0.6460
  168SOPE  C31018989   2.477   5.373   7.540  0.4067  0.4452 -0.6201
  168SOPE  H10X18990   2.451   5.278   7.489  3.2194  0.2395 -1.8965
  168SOPE  H10Y18991   2.385   5.434   7.554  1.8148  2.2502  1.5675
  168SOPE  C31118992   2.542   5.356   7.677 -0.0305  0.1142 -0.5760
  168SOPE  H11X18993   2.546   5.457   7.721 -0.9923  0.1896 -0.6486
  168SOPE  H11Y18994   2.644   5.311   7.668  0.3342  0.5937  0.8590
  168SOPE  C31218995   2.454   5.278   7.777 -0.7900  0.4022  0.0709
  168SOPE  H12X18996   2.445   5.181   7.722  2.0766  0.5950 -0.8699
  168SOPE  H12Y18997   2.351   5.316   7.797 -0.8100  1.0726 -1.1898
  168SOPE  C31318998   2.522   5.252   7.911  0.0701 -0.6737  0.0061
  168SOPE  H13X18999   2.539   5.350   7.960 -0.3913 -0.3031 -0.5625
  168SOPE  H13Y19000   2.617   5.200   7.886 -0.8527 -1.4987 -2.0593
  168SOPE  C31419001   2.432   5.174   8.011  0.3778 -0.0416 -0.1798
  168SOPE  H14X19002   2.388   5.088   7.955 -0.9002  1.9468 -2.4122
  168SOPE  H14Y19003   2.356   5.248   8.045 -1.0383 -0.2567 -2.6268
  168SOPE  C31519004   2.516   5.118   8.125  0.5675  0.4643  0.0048
  168SOPE  H15X19005   2.593   5.052   8.079  1.6566  1.0984  0.8863
  168SOPE  H15Y19006   2.448   5.064   8.194  1.3984 -0.3836  0.1724
  168SOPE  C31619007   2.584   5.223   8.217 -0.2563  0.4895  0.2356
  168SOPE  H16X19008   2.501   5.280   8.263 -1.2094  0.2688 -1.1523
  168SOPE  H16Y19009   2.651   5.293   8.161  0.3807 -0.5585 -0.3330
  168SOPE  C31719010   2.665   5.166   8.329  0.1684  0.1181 -0.2562
  168SOPE  H17X19011   2.745   5.103   8.284  0.9714  0.8358  0.1287
  168SOPE  H17Y19012   2.602   5.100   8.391 -1.3140  0.1419 -1.6764
  168SOPE  C31819013   2.715   5.276   8.416  0.8451 -0.0718  0.2396
  168SOPE  H18X19014   2.813   5.257   8.466  2.4090 -1.4492 -3.0801
  168SOPE  H18Y19015   2.639   5.301   8.493 -0.5870 -0.5846 -0.9612
  168SOPE  H18Z19016   2.737   5.363   8.350  0.2720  0.7995  1.1701
  169SOPE     N19017   0.981   1.573   6.546  0.1819 -0.0521  0.0414
  169SOPE   HN119018   0.912   1.556   6.469 -1.3564 -1.2755  1.6028
  169SOPE   HN219019   1.078   1.562   6.511 -0.3152 -4.1918 -0.5041
  169SOPE   HN319020   0.961   1.496   6.613  1.0184 -0.1041  0.2375
  169SOPE   C1219021   0.942   1.702   6.602 -0.0687 -0.1385 -0.8829
  169SOPE  H12A19022   1.025   1.745   6.661 -0.2097  0.2420 -0.9615
  169SOPE  H12B19023   0.858   1.685   6.674  0.6718  0.0940  0.0634
  169SOPE   C1119024   0.900   1.809   6.503 -0.2340  0.4915 -0.4460
  169SOPE  H11A19025   0.825   1.873   6.554  0.2083  1.3939 -0.9079
  169SOPE  H11B19026   0.845   1.768   6.416  0.8928  0.6788 -1.2691
  169SOPE     P19027   1.098   1.994   6.531  0.1517  0.0109 -0.0651
  169SOPE   O1319028   1.095   2.124   6.454 -0.4338  0.0018  0.1024
  169SOPE   O1419029   1.233   1.941   6.545  0.2195  0.1760  0.7172
  169SOPE   O1219030   1.009   1.886   6.455 -0.2610  0.4042 -0.9790
  169SOPE   O1119031   1.019   1.994   6.665  0.1191 -0.9163 -0.2269
  169SOPE    C119032   0.928   2.095   6.709 -0.1666  0.2914 -0.2978
  169SOPE    HA19033   0.832   2.057   6.750 -0.5146  1.6763  0.2471
  169SOPE    HB19034   0.897   2.156   6.622 -2.4206  0.1580  0.3373
  169SOPE    C219035   1.001   2.188   6.815 -0.1200  0.7212 -0.0349
  169SOPE    HS19036   1.095   2.219   6.765  1.2601 -3.6553 -0.5760
  169SOPE   O2119037   1.039   2.103   6.929 -0.1247 -0.2484  0.0701
  169SOPE   C2119038   1.116   2.161   7.018 -0.0502 -0.2794 -0.6446
  169SOPE   O2219039   1.173   2.266   7.001 -0.9598  0.1416 -0.2844
  169SOPE   C2219040   1.085   2.090   7.152 -0.0669 -0.0719  0.4778
  169SOPE   H2R19041   1.089   1.981   7.127 -0.2420  0.5097 -2.4459
  169SOPE   H2S19042   0.977   2.106   7.173 -0.4010 -1.8976  0.3824
  169SOPE    C319043   0.913   2.306   6.853 -0.5329  0.1050  0.1004
  169SOPE    HX19044   0.892   2.356   6.756  1.4594  0.8410  0.0040
  169SOPE    HY19045   0.953   2.381   6.925 -0.9093  0.3516  0.0579
  169SOPE   O3119046   0.794   2.256   6.913 -0.0734  0.1020 -0.5624
  169SOPE   C3119047   0.694   2.341   6.901  0.1183 -0.0059  0.1128
  169SOPE   O3219048   0.690   2.439   6.829  0.2666  0.1304 -0.3509
  169SOPE   C3219049   0.580   2.307   6.993  0.4582 -0.7844  0.2055
  169SOPE   H2X19050   0.506   2.237   6.949 -0.9794  1.3999 -1.0637
  169SOPE   H2Y19051   0.525   2.398   7.025  3.7043  0.8537  1.6285
  169SOPE   C2319052   1.188   2.115   7.264  0.8419  0.2537  0.0110
  169SOPE   H3R19053   1.222   2.221   7.254 -2.5376  1.4349 -0.3424
  169SOPE   H3S19054   1.282   2.058   7.245  1.0748  0.6035  0.0867
  169SOPE   C2419055   1.141   2.093   7.402  0.6589  0.4166  0.4389
  169SOPE   H4R19056   1.079   2.180   7.431 -0.7520 -0.8187  1.2499
  169SOPE   H4S19057   1.063   2.015   7.410  0.5300  0.0913 -2.7135
  169SOPE   C2519058   1.251   2.050   7.506  0.2651 -0.1257 -0.7964
  169SOPE   H5R19059   1.323   1.984   7.453  0.7489 -0.6816  0.5202
  169SOPE   H5S19060   1.292   2.144   7.549  0.7334 -0.6824 -0.0006
  169SOPE   C2619061   1.186   1.964   7.619  0.4737  0.1130  0.5136
  169SOPE   H6R19062   1.136   1.873   7.578 -1.3950  0.1214  2.5818
  169SOPE   H6S19063   1.270   1.918   7.676  0.7628  0.2837  0.2266
  169SOPE   C2719064   1.097   2.027   7.728 -0.3902  0.0766 -0.2092
  169SOPE   H7R19065   1.135   2.128   7.753  2.2667 -0.8168 -0.3203
  169SOPE   H7S19066   0.993   2.024   7.690 -0.3350  1.6899 -0.5546
  169SOPE   C2819067   1.090   1.952   7.862  0.4149  0.7597 -0.5952
  169SOPE   H8R19068   1.186   1.947   7.916 -0.8310 -1.1903  1.5944
  169SOPE   H8S19069   1.025   2.005   7.935 -0.7604 -0.1240 -0.9580
  169SOPE   C2919070   1.029   1.812   7.840  0.5826  0.3055  0.2301
  169SOPE   H9119071   1.089   1.756   7.767 -2.3767 -2.4039 -0.3208
  169SOPE  C21019072   0.907   1.764   7.863 -0.4357 -1.0102  0.3457
  169SOPE  H10119073   0.873   1.676   7.807  0.2328 -0.6190 -0.6919
  169SOPE  C21119074   0.803   1.838   7.939  0.3651 -0.2617 -0.1062
  169SOPE  H11R19075   0.705   1.829   7.888  1.0821  3.2630 -2.4389
  169SOPE  H11S19076   0.821   1.948   7.945  1.0856 -0.3285 -0.9060
  169SOPE  C21219077   0.795   1.791   8.087 -0.1249  0.3324 -0.2442
  169SOPE  H12R19078   0.723   1.859   8.137 -0.3341 -0.6912  0.9097
  169SOPE  H12S19079   0.888   1.801   8.147 -0.3346 -1.7294  0.5132
  169SOPE  C21319080   0.746   1.645   8.101 -0.6259 -0.4923 -0.7130
  169SOPE  H13R19081   0.700   1.617   8.004 -0.6437  0.5810 -1.0236
  169SOPE  H13S19082   0.671   1.639   8.182 -0.2911  1.6825 -0.1991
  169SOPE  C21419083   0.857   1.542   8.131 -0.3641 -0.1685  0.4479
  169SOPE  H14R19084   0.894   1.565   8.233 -0.5846  2.1292  0.0490
  169SOPE  H14S19085   0.938   1.556   8.056  1.4360 -1.7063  1.9793
  169SOPE  C21519086   0.817   1.395   8.135 -0.0576  0.3625  0.1951
  169SOPE  H15R19087   0.722   1.385   8.191 -0.5558  0.0194 -0.7020
  169SOPE  H15S19088   0.893   1.330   8.183 -0.2880 -0.1392 -0.1198
  169SOPE  C21619089   0.793   1.350   7.987 -0.8813  0.5505 -0.0502
  169SOPE  H16R19090   0.894   1.367   7.943  0.0421 -2.0172  0.9041
  169SOPE  H16S19091   0.722   1.424   7.943 -0.6476  0.6330 -0.2944
  169SOPE  C21719092   0.739   1.205   7.973 -0.2377 -0.7769  0.0920
  169SOPE  H17R19093   0.643   1.200   8.029 -1.1906 -2.5574 -1.5764
  169SOPE  H17S19094   0.816   1.131   8.006  1.6785  1.0085 -0.1824
  169SOPE  C21819095   0.707   1.175   7.827 -0.2002 -0.8893  0.8004
  169SOPE  H18R19096   0.702   1.066   7.810  3.2187 -1.0217 -0.0895
  169SOPE  H18S19097   0.789   1.215   7.763  0.2728 -4.0451 -0.7499
  169SOPE  H18T19098   0.626   1.242   7.792  1.7426 -0.0818 -2.6695
  169SOPE   C3319099   0.632   2.251   7.126  0.3956  0.0415 -0.8187
  169SOPE   H3X19100   0.691   2.159   7.107 -0.2321 -0.2222 -1.5467
  169SOPE   H3Y19101   0.535   2.213   7.166 -1.1062  1.9152 -2.5044
  169SOPE   C3419102   0.687   2.356   7.228  0.4807 -0.1504  0.7824
  169SOPE   H4X19103   0.633   2.451   7.247 -0.0958 -0.5267  1.0337
  169SOPE   H4Y19104   0.789   2.372   7.186  0.4554  1.8658  1.3590
  169SOPE   C3519105   0.709   2.300   7.371  0.4065 -0.0927 -0.3407
  169SOPE   H5X19106   0.765   2.205   7.359 -1.0895 -1.2254  1.0895
  169SOPE   H5Y19107   0.614   2.273   7.422  0.9814  3.0843  2.7722
  169SOPE   C3619108   0.787   2.404   7.439 -0.0959 -0.8085  0.5488
  169SOPE   H6X19109   0.726   2.497   7.439  0.0999 -0.6674  1.4197
  169SOPE   H6Y19110   0.876   2.420   7.375  0.1021 -1.2072  0.7227
  169SOPE   C3719111   0.840   2.392   7.583  0.0696  0.0819 -0.7002
  169SOPE   H7X19112   0.887   2.487   7.617 -3.1606  1.6449 -0.1839
  169SOPE   H7Y19113   0.909   2.306   7.572  0.9596  0.9114 -1.9105
  169SOPE   C3819114   0.724   2.360   7.680 -0.7523 -0.0297  0.6680
  169SOPE   H8X19115   0.641   2.430   7.657 -0.5908 -0.8262 -2.7482
  169SOPE   H8Y19116   0.693   2.254   7.670 -0.0266 -0.4964  2.7496
  169SOPE   C3919117   0.750   2.391   7.827 -0.5124 -0.9025 -0.4101
  169SOPE   H9X19118   0.660   2.441   7.870  1.2781  1.1601  1.1509
  169SOPE   H9Y19119   0.826   2.471   7.828 -2.4566  1.1076  2.0249
  169SOPE  C31019120   0.811   2.277   7.915 -0.0530  0.3774  0.4124
  169SOPE  H10X19121   0.851   2.207   7.839 -3.4548  0.6159 -1.8361
  169SOPE  H10Y19122   0.727   2.222   7.964 -0.2867 -0.0790 -0.4906
  169SOPE  C31119123   0.908   2.326   8.024 -0.6435 -0.1344  0.4991
  169SOPE  H11X19124   0.873   2.424   8.063  0.5750 -0.1046  1.5597
  169SOPE  H11Y19125   1.004   2.358   7.978 -1.1090  0.1153 -0.3242
  169SOPE  C31219126   0.939   2.227   8.135  0.2490 -0.6244  0.2526
  169SOPE  H12X19127   0.975   2.125   8.110 -2.4245 -2.8229  4.2194
  169SOPE  H12Y19128   0.842   2.208   8.187 -0.5609  2.0053 -0.1441
  169SOPE  C31319129   1.044   2.293   8.234 -0.0018  1.1506  0.0244
  169SOPE  H13X19130   1.009   2.397   8.252 -0.3900  0.6515  2.6840
  169SOPE  H13Y19131   1.145   2.293   8.189  0.2082  0.2766  0.4606
  169SOPE  C31419132   1.054   2.215   8.367 -0.0475 -0.3440 -0.0188
  169SOPE  H14X19133   1.136   2.269   8.418  0.9081 -2.3334  0.6363
  169SOPE  H14Y19134   1.085   2.109   8.358  0.7342 -0.3691  2.2942
  169SOPE  C31519135   0.927   2.212   8.447 -0.3902  0.2846 -0.9546
  169SOPE  H15X19136   0.860   2.132   8.408  0.1358 -1.0384  0.7025
  169SOPE  H15Y19137   0.883   2.313   8.455  0.3759  0.4849  1.6943
  169SOPE  C31619138   0.962   2.168   8.600 -0.4415  0.1374  0.6435
  169SOPE  H16X19139   0.861   2.160   8.646  0.1596  1.7134  2.3761
  169SOPE  H16Y19140   1.019   2.249   8.651 -1.3408  0.2514  1.4849
  169SOPE  C31719141   1.046   2.043   8.624 -0.1852 -0.5236  0.0331
  169SOPE  H17X19142   1.055   2.041   8.734 -1.1948 -1.1633  0.1132
  169SOPE  H17Y19143   1.147   2.061   8.582 -0.5716 -0.6814 -0.9993
  169SOPE  C31819144   1.006   1.913   8.562 -0.0113  0.3223 -0.1782
  169SOPE  H18X19145   0.900   1.889   8.585 -0.1598  2.6636  2.0295
  169SOPE  H18Y19146   1.050   1.826   8.616 -0.1357  1.4216  1.7855
  169SOPE  H18Z19147   1.028   1.905   8.454 -0.8090 -0.7945 -0.2737
  170SOPE     N19148   6.510   0.814   6.297  0.1400 -0.0028 -0.0737
  170SOPE   HN119149   6.590   0.749   6.287 -0.8320 -1.1816 -0.4995
  170SOPE   HN219150   6.520   0.863   6.389  2.1276 -0.1417 -0.1768
  170SOPE   HN319151   6.421   0.761   6.303 -0.2537  0.7933  1.9305
  170SOPE   C1219152   6.516   0.922   6.189  0.2962 -0.3815  0.1366
  170SOPE  H12A19153   6.453   0.891   6.103 -1.7782  3.0243  0.2518
  170SOPE  H12B19154   6.623   0.933   6.159  1.6614 -1.9608  3.8220
  170SOPE   C1119155   6.467   1.058   6.241 -0.0191 -0.4376  0.1227
  170SOPE  H11A19156   6.361   1.057   6.276  0.0493 -0.6771  0.3257
  170SOPE  H11B19157   6.482   1.132   6.160 -3.6203  0.5393  0.1567
  170SOPE     P19158   6.527   1.214   6.456  0.7790 -0.1687  0.1632
  170SOPE   O1319159   6.433   1.308   6.400 -0.2735 -0.6992 -0.0449
  170SOPE   O1419160   6.656   1.274   6.497 -0.3046  0.2612 -0.0881
  170SOPE   O1219161   6.551   1.095   6.347  0.3629  0.1626 -0.2531
  170SOPE   O1119162   6.460   1.133   6.570 -0.1263 -0.2614  0.5800
  170SOPE    C119163   6.325   1.170   6.615  1.1514  0.1833 -0.7235
  170SOPE    HA19164   6.256   1.093   6.575 -1.3957  0.3392  2.9182
  170SOPE    HB19165   6.289   1.269   6.579  1.9043 -0.1896 -2.6280
  170SOPE    C219166   6.322   1.170   6.770  0.1544 -0.3105 -0.3074
  170SOPE    HS19167   6.392   1.248   6.807 -1.4140  2.1541 -2.2878
  170SOPE   O2119168   6.360   1.036   6.809  0.4447  0.1516  0.3408
  170SOPE   C2119169   6.429   1.030   6.918 -0.5731 -0.6907 -0.4948
  170SOPE   O2219170   6.469   1.124   6.986  0.0985 -0.0653  0.3490
  170SOPE   C2219171   6.463   0.889   6.955 -0.7707 -0.0795  0.1329
  170SOPE   H2R19172   6.506   0.843   6.864  0.0076  1.6224 -0.3940
  170SOPE   H2S19173   6.371   0.839   6.991 -0.4571  0.0056  1.0895
  170SOPE    C319174   6.180   1.206   6.822  0.4503 -0.1979  0.2676
  170SOPE    HX19175   6.094   1.146   6.784 -1.0262  0.9929  1.5999
  170SOPE    HY19176   6.158   1.306   6.779  0.1781  0.2272  1.3613
  170SOPE   O3119177   6.174   1.207   6.963  0.1133 -0.1257 -0.0345
  170SOPE   C3119178   6.201   1.326   7.018  0.7746 -0.7972 -0.1385
  170SOPE   O3219179   6.244   1.423   6.960  0.4187  0.0963 -0.1875
  170SOPE   C3219180   6.189   1.321   7.168  0.4268 -0.2493 -0.1754
  170SOPE   H2X19181   6.146   1.224   7.202 -0.7434 -0.4952 -2.1826
  170SOPE   H2Y19182   6.122   1.403   7.202  4.2414  2.3550  1.7955
  170SOPE   C2319183   6.574   0.875   7.065 -0.2123 -0.4333 -0.0591
  170SOPE   H3R19184   6.663   0.939   7.050 -1.2023  1.0729  0.2441
  170SOPE   H3S19185   6.606   0.768   7.060  1.1339 -0.2173  2.4140
  170SOPE   C2419186   6.528   0.890   7.215 -0.2622 -0.2292 -0.0663
  170SOPE   H4R19187   6.623   0.882   7.273 -0.4652  0.0233  0.3007
  170SOPE   H4S19188   6.481   0.988   7.237  0.7917  0.4761 -0.8431
  170SOPE   C2519189   6.444   0.760   7.259  0.2981 -0.0968  0.3640
  170SOPE   H5R19190   6.345   0.765   7.209 -0.6096 -0.9815  1.9909
  170SOPE   H5S19191   6.506   0.672   7.231  1.6562  0.6188  0.9658
  170SOPE   C2619192   6.418   0.766   7.410  0.3111 -0.2296  0.0275
  170SOPE   H6R19193   6.388   0.662   7.437  0.6733 -0.8168 -1.6623
  170SOPE   H6S19194   6.521   0.781   7.450  1.8956 -1.8019 -3.0642
  170SOPE   C2719195   6.313   0.868   7.449 -0.1343 -0.4632  0.0003
  170SOPE   H7R19196   6.339   0.972   7.419 -0.0005  0.4612  2.9688
  170SOPE   H7S19197   6.216   0.848   7.399  0.1720  2.0273 -1.7844
  170SOPE   C2819198   6.298   0.877   7.602  1.4681  0.0170  0.1187
  170SOPE   H8R19199   6.218   0.954   7.606 -0.6853 -2.1052  0.2609
  170SOPE   H8S19200   6.264   0.781   7.646 -0.8056  0.8678  0.3738
  170SOPE   C2919201   6.429   0.918   7.654  0.2583 -0.8188  0.4243
  170SOPE   H9119202   6.472   0.979   7.573 -1.7645  0.9384  0.5862
  170SOPE  C21019203   6.495   0.901   7.766 -0.8054  0.4660 -0.2058
  170SOPE  H10119204   6.603   0.925   7.761 -0.5870  0.3313  2.4661
  170SOPE  C21119205   6.447   0.834   7.888 -0.4119  0.2251 -0.6223
  170SOPE  H11R19206   6.479   0.728   7.896 -3.8540 -0.8205  0.7725
  170SOPE  H11S19207   6.339   0.811   7.880 -0.6330  1.4101 -1.2369
  170SOPE  C21219208   6.466   0.930   8.013  0.2175 -0.8794  0.0006
  170SOPE  H12R19209   6.398   0.898   8.096 -0.8764  1.0639 -0.0833
  170SOPE  H12S19210   6.425   1.031   7.992 -0.5502 -0.7333  1.9839
  170SOPE  C21319211   6.608   0.938   8.062  0.2062 -0.6461  0.5306
  170SOPE  H13R19212   6.671   0.963   7.975 -0.9964 -0.1987 -0.2399
  170SOPE  H13S19213   6.657   0.848   8.105 -1.2981 -1.8711 -0.1940
  170SOPE  C21419214   6.627   1.033   8.184  0.9314  0.0383  0.1561
  170SOPE  H14R19215   6.734   1.034   8.213  0.5109  1.7238  1.8300
  170SOPE  H14S19216   6.567   1.000   8.272 -0.1146  1.8078  0.1562
  170SOPE  C21519217   6.581   1.178   8.168 -0.9348  0.2100  0.7417
  170SOPE  H15R19218   6.607   1.241   8.255 -0.3966  0.7619  0.1910
  170SOPE  H15S19219   6.471   1.179   8.153 -0.5306 -0.5303 -3.7502
  170SOPE  C21619220   6.636   1.247   8.036  0.0608  0.1966 -0.4896
  170SOPE  H16R19221   6.610   1.181   7.951 -0.4890  0.0984 -0.2508
  170SOPE  H16S19222   6.746   1.263   8.042 -0.0981  1.3739 -0.3600
  170SOPE  C21719223   6.579   1.384   8.014  0.1604 -0.8510 -0.4347
  170SOPE  H17R19224   6.612   1.461   8.087 -2.1604  0.3445 -0.5355
  170SOPE  H17S19225   6.470   1.369   8.028 -0.5442  1.9279 -2.1017
  170SOPE  C21819226   6.587   1.413   7.867  0.4137  0.2311 -0.5390
  170SOPE  H18R19227   6.573   1.523   7.857 -1.2940  0.0962  0.1168
  170SOPE  H18S19228   6.512   1.355   7.809 -2.4412  0.4903  2.5766
  170SOPE  H18T19229   6.686   1.389   7.823  0.2545 -3.1023  0.6083
  170SOPE   C3319230   6.323   1.340   7.239  0.8532 -0.0315 -0.1791
  170SOPE   H3X19231   6.366   1.438   7.206  0.1414 -0.2560 -1.8845
  170SOPE   H3Y19232   6.394   1.263   7.201  1.7634  0.2393  0.9360
  170SOPE   C3419233   6.319   1.311   7.381  0.4361 -0.6485  0.3915
  170SOPE   H4X19234   6.422   1.285   7.416  1.5407  0.6159 -1.7375
  170SOPE   H4Y19235   6.253   1.224   7.403  0.3993 -0.3229  1.6287
  170SOPE   C3519236   6.268   1.419   7.467 -0.3538  0.3123  0.5159
  170SOPE   H5X19237   6.169   1.453   7.431  0.3731  1.2403 -0.6763
  170SOPE   H5Y19238   6.335   1.508   7.466  1.3654 -0.9474  0.1654
  170SOPE   C3619239   6.255   1.369   7.614 -0.7677  0.2793  0.4991
  170SOPE   H6X19240   6.225   1.459   7.670  1.3997 -1.1920  4.3721
  170SOPE   H6Y19241   6.360   1.343   7.639  0.5949  2.9373 -1.8853
  170SOPE   C3719242   6.134   1.270   7.635 -0.8839 -0.5098  0.1636
  170SOPE   H7X19243   6.176   1.168   7.629  2.8731  0.6386  2.8631
  170SOPE   H7Y19244   6.046   1.292   7.572 -0.7447  3.0252  0.9551
  170SOPE   C3819245   6.083   1.268   7.785 -0.1720  0.5586 -0.2517
  170SOPE   H8X19246   5.976   1.239   7.789 -0.1212  0.3397 -0.4933
  170SOPE   H8Y19247   6.077   1.368   7.834 -0.2996 -0.3148  1.5741
  170SOPE   C3919248   6.180   1.184   7.877  0.1385  0.0950  0.0974
  170SOPE   H9X19249   6.270   1.249   7.877  0.2756 -0.0952  0.2925
  170SOPE   H9Y19250   6.209   1.085   7.834 -1.9704 -0.6767  0.3288
  170SOPE  C31019251   6.127   1.163   8.019 -0.5462  0.0008  0.7647
  170SOPE  H10X19252   6.108   1.264   8.060 -0.9144 -0.2779  1.2991
  170SOPE  H10Y19253   6.210   1.128   8.084  1.7614 -1.5274 -2.7255
  170SOPE  C31119254   6.024   1.063   8.048 -0.1049 -0.0840 -0.1151
  170SOPE  H11X19255   6.077   0.970   8.019  3.1151  1.9743 -1.4149
  170SOPE  H11Y19256   5.945   1.081   7.972  0.8818  0.8010 -0.9593
  170SOPE  C31219257   5.958   1.069   8.187  0.1386 -0.8243 -0.4188
  170SOPE  H12X19258   5.902   1.165   8.193 -1.7302 -1.9475  2.0706
  170SOPE  H12Y19259   6.032   1.058   8.270 -0.8239 -1.0928  0.4215
  170SOPE  C31319260   5.848   0.968   8.208  0.3241  0.1992 -0.3396
  170SOPE  H13X19261   5.881   0.878   8.151 -0.3576 -0.8238  0.8252
  170SOPE  H13Y19262   5.753   0.985   8.153 -0.1976 -0.7602  0.2284
  170SOPE  C31419263   5.820   0.918   8.348  0.1701 -0.9138  0.2494
  170SOPE  H14X19264   5.903   0.854   8.386 -0.9515 -1.7605  1.3647
  170SOPE  H14Y19265   5.727   0.857   8.349  0.7169 -1.7997 -0.8015
  170SOPE  C31519266   5.801   1.039   8.444  0.3869  0.0436 -0.2634
  170SOPE  H15X19267   5.751   1.116   8.382 -0.2767  0.5121  0.8102
  170SOPE  H15Y19268   5.898   1.078   8.483  0.3284 -1.8644  2.0188
  170SOPE  C31619269   5.705   1.006   8.556 -0.5171  0.1241 -0.2741
  170SOPE  H16X19270   5.733   0.905   8.594 -0.9504 -0.3637 -1.2009
  170SOPE  H16Y19271   5.598   1.000   8.527 -1.0664  0.4328  1.5945
  170SOPE  C31719272   5.721   1.107   8.669 -0.4140 -0.0864 -0.2148
  170SOPE  H17X19273   5.687   1.206   8.630 -1.7198 -0.1058  0.7946
  170SOPE  H17Y19274   5.830   1.110   8.694 -1.0511  1.3399  2.8108
  170SOPE  C31819275   5.640   1.096   8.794 -0.3975  0.1601  0.2012
  170SOPE  H18X19276   5.702   1.117   8.884  1.4999 -1.1783 -0.7483
  170SOPE  H18Y19277   5.595   0.995   8.809 -3.5986  1.5650  1.0342
  170SOPE  H18Z19278   5.558   1.171   8.796  0.2480  0.9387 -1.5965
  171SOPE     N19279   2.686   4.103   6.586 -0.5814 -0.3030  0.4035
  171SOPE   HN119280   2.779   4.115   6.632 -0.8336  1.0532  0.6031
  171SOPE   HN219281   2.621   4.177   6.618  0.7605  0.3817  1.6898
  171SOPE   HN319282   2.643   4.009   6.600  0.8914 -0.7923  2.0529
  171SOPE   C1219283   2.690   4.125   6.438 -0.2323 -0.3264 -0.3533
  171SOPE  H12A19284   2.740   4.037   6.393 -0.5245  0.0166 -1.3794
  171SOPE  H12B19285   2.745   4.218   6.417  1.8959 -1.4257  0.0870
  171SOPE   C1119286   2.542   4.135   6.383  0.1520  0.1774 -0.7351
  171SOPE  H11A19287   2.495   4.035   6.394  1.7505 -0.6290 -0.9246
  171SOPE  H11B19288   2.553   4.172   6.278  1.8328 -0.6250 -0.8804
  171SOPE     P19289   2.469   4.381   6.450  0.0904 -0.0872  0.6350
  171SOPE   O1319290   2.353   4.440   6.517  0.3708 -0.1836  0.0355
  171SOPE   O1419291   2.499   4.423   6.310  0.0453  0.2874 -0.6480
  171SOPE   O1219292   2.469   4.225   6.464  0.6900 -0.2324  0.4309
  171SOPE   O1119293   2.593   4.413   6.543 -0.4877 -0.3755 -0.1945
  171SOPE    C119294   2.615   4.547   6.591 -0.4124 -0.2361  0.7695
  171SOPE    HA19295   2.534   4.565   6.666 -2.2987  2.6625 -1.7494
  171SOPE    HB19296   2.602   4.623   6.511  1.2651 -1.5385 -0.8192
  171SOPE    C219297   2.755   4.566   6.654 -0.3577  0.0691  0.2312
  171SOPE    HS19298   2.835   4.558   6.578 -1.3114  0.5032 -0.8595
  171SOPE   O2119299   2.773   4.459   6.748 -0.1410 -0.6185 -0.8539
  171SOPE   C2119300   2.904   4.446   6.784  0.4598  0.1225 -0.8157
  171SOPE   O2219301   3.000   4.492   6.729 -0.0047  0.1017  0.1444
  171SOPE   C2219302   2.892   4.340   6.890  0.4634  0.4881 -0.5198
  171SOPE   H2R19303   2.881   4.243   6.837  0.7684  0.0903  0.1306
  171SOPE   H2S19304   2.807   4.356   6.960  0.5082 -2.2343  0.2700
  171SOPE    C319305   2.758   4.698   6.726 -0.1889  0.1515 -0.0192
  171SOPE    HX19306   2.673   4.696   6.797  1.3777  1.2194  1.9770
  171SOPE    HY19307   2.749   4.780   6.652  2.6093  0.6276  0.0341
  171SOPE   O3119308   2.877   4.718   6.814  0.1924  0.0503 -0.1464
  171SOPE   C3119309   2.977   4.787   6.758 -0.4842 -0.8406 -0.3758
  171SOPE   O3219310   2.976   4.828   6.644 -0.2238 -0.8811  0.8651
  171SOPE   C3219311   3.090   4.796   6.856 -0.5507  0.0517 -0.5145
  171SOPE   H2X19312   3.174   4.852   6.809 -0.4357  1.3484  1.1075
  171SOPE   H2Y19313   3.117   4.690   6.875 -2.4342 -0.2000  1.0907
  171SOPE   C2319314   3.027   4.342   6.971  0.3537  0.5018  0.2549
  171SOPE   H3R19315   3.109   4.378   6.905 -2.0446  0.3867 -3.0404
  171SOPE   H3S19316   3.035   4.236   7.004  0.5764  0.8063  1.1904
  171SOPE   C2419317   3.022   4.439   7.087  0.4119 -0.1396 -0.4775
  171SOPE   H4R19318   3.027   4.537   7.036  0.9833  0.5562  0.8768
  171SOPE   H4S19319   2.934   4.420   7.152  0.8548  2.2014  0.9036
  171SOPE   C2519320   3.147   4.430   7.185  0.2111  0.5125  0.2155
  171SOPE   H5R19321   3.143   4.330   7.231 -3.4185 -0.1577 -1.1738
  171SOPE   H5S19322   3.237   4.438   7.120  0.2866 -0.3003  0.2128
  171SOPE   C2619323   3.153   4.538   7.293  0.4552  0.1248  1.2249
  171SOPE   H6R19324   3.257   4.530   7.332  0.3637  1.0935  1.6876
  171SOPE   H6S19325   3.124   4.641   7.266 -0.2843 -0.7625 -1.7572
  171SOPE   C2719326   3.053   4.491   7.398  0.4970  0.1751  0.0951
  171SOPE   H7R19327   2.950   4.527   7.380 -0.4553 -0.7530  2.9899
  171SOPE   H7S19328   3.040   4.380   7.397  2.6229 -0.1126 -1.2422
  171SOPE   C2819329   3.084   4.534   7.541 -0.5752  0.6167 -0.0976
  171SOPE   H8R19330   3.116   4.639   7.521  0.5624  0.0921 -1.1294
  171SOPE   H8S19331   2.996   4.543   7.609 -0.0528 -1.8267  0.9913
  171SOPE   C2919332   3.191   4.444   7.599  0.7643  0.5445  0.5137
  171SOPE   H9119333   3.230   4.362   7.537 -1.8843 -0.3315 -0.1500
  171SOPE  C21019334   3.216   4.436   7.728 -0.3497  0.6021  0.0111
  171SOPE  H10119335   3.290   4.364   7.766  0.6711  2.2827  1.3267
  171SOPE  C21119336   3.154   4.523   7.836 -0.1505 -0.3499  0.4773
  171SOPE  H11R19337   3.046   4.497   7.844 -0.7397  1.2930 -1.4664
  171SOPE  H11S19338   3.162   4.629   7.805 -0.0026 -0.6141 -0.4095
  171SOPE  C21219339   3.208   4.516   7.975  0.4414  0.1502  0.4159
  171SOPE  H12R19340   3.215   4.622   8.008 -1.3930  0.3879  0.1558
  171SOPE  H12S19341   3.311   4.475   7.971  0.4077  0.1178 -0.4118
  171SOPE  C21319342   3.121   4.418   8.052 -0.1483  0.2434  0.0254
  171SOPE  H13R19343   3.098   4.328   7.991 -1.3861  0.7213 -0.2477
  171SOPE  H13S19344   3.024   4.472   8.060  0.6503  1.7821 -0.1928
  171SOPE  C21419345   3.180   4.365   8.184 -0.0280 -0.3416 -0.7016
  171SOPE  H14R19346   3.217   4.444   8.253 -0.2674 -0.5202 -0.3650
  171SOPE  H14S19347   3.264   4.292   8.171 -0.1229 -0.8548  1.2805
  171SOPE  C21519348   3.078   4.274   8.257  0.1861  0.2912  0.6771
  171SOPE  H15R19349   3.051   4.194   8.186  1.2403  0.9484 -0.4928
  171SOPE  H15S19350   2.980   4.324   8.271 -0.2357 -0.2812 -0.1518
  171SOPE  C21619351   3.133   4.226   8.393  0.7082  0.3116 -0.5758
  171SOPE  H16R19352   3.134   4.312   8.462 -1.6171 -0.6950  0.8390
  171SOPE  H16S19353   3.233   4.182   8.376  0.7449  0.6640 -1.3217
  171SOPE  C21719354   3.045   4.118   8.458  0.2988 -0.6729  0.9761
  171SOPE  H17R19355   3.081   4.082   8.556  0.2722 -1.4125  0.7229
  171SOPE  H17S19356   3.047   4.023   8.399  0.9325 -0.8624  1.2983
  171SOPE  C21819357   2.895   4.152   8.476  0.1141 -0.2662  0.0008
  171SOPE  H18R19358   2.842   4.070   8.531 -0.4415  0.0944  0.0121
  171SOPE  H18S19359   2.847   4.158   8.376  2.9391  0.2286 -1.4226
  171SOPE  H18T19360   2.882   4.252   8.522 -0.0465  0.7505 -2.1485
  171SOPE   C3319361   3.052   4.867   6.995 -0.2605 -0.4606 -0.0944
  171SOPE   H3X19362   2.963   4.816   7.037 -0.5768 -0.5836 -0.8991
  171SOPE   H3Y19363   3.024   4.972   6.973 -1.5590 -0.9298 -0.7561
  171SOPE   C3419364   3.170   4.873   7.091  0.1390  0.2143 -0.0178
  171SOPE   H4X19365   3.245   4.937   7.040  2.8859 -2.7430 -0.0242
  171SOPE   H4Y19366   3.225   4.777   7.105  0.6242  0.7600  2.1834
  171SOPE   C3519367   3.127   4.949   7.219  0.3014  0.3459  0.3881
  171SOPE   H5X19368   3.027   4.909   7.246 -0.1823  0.3407 -1.2907
  171SOPE   H5Y19369   3.115   5.053   7.183 -0.0814 -0.0024 -0.5174
  171SOPE   C3619370   3.239   4.940   7.324  0.1163 -0.5878 -0.0216
  171SOPE   H6X19371   3.325   5.002   7.293  0.0715 -0.2854  0.4423
  171SOPE   H6Y19372   3.278   4.836   7.325  0.0994 -0.6074  1.8170
  171SOPE   C3719373   3.182   4.979   7.466 -0.7878 -0.4547  0.1812
  171SOPE   H7X19374   3.086   4.925   7.477 -0.2438 -1.1178  2.1261
  171SOPE   H7Y19375   3.170   5.089   7.463  0.7335 -0.2367  1.0602
  171SOPE   C3819376   3.286   4.946   7.575 -0.0289 -0.4076 -0.0957
  171SOPE   H8X19377   3.383   5.000   7.573  0.6651 -1.4348  2.3869
  171SOPE   H8Y19378   3.309   4.840   7.552  1.0743 -0.1165 -0.3981
  171SOPE   C3919379   3.223   4.956   7.712  0.0547  0.1356 -0.3306
  171SOPE   H9X19380   3.125   4.904   7.716  0.0024  0.2430 -0.2039
  171SOPE   H9Y19381   3.190   5.059   7.741 -0.3058 -0.6362  2.2544
  171SOPE  C31019382   3.313   4.884   7.817  1.0346 -0.6540 -0.3236
  171SOPE  H10X19383   3.417   4.917   7.798  0.1005  0.8046 -3.8300
  171SOPE  H10Y19384   3.303   4.775   7.802 -1.2758 -0.8533  1.9389
  171SOPE  C31119385   3.258   4.923   7.956 -0.4094  0.4662  0.2400
  171SOPE  H11X19386   3.166   4.863   7.970  0.1912 -0.1591  1.6913
  171SOPE  H11Y19387   3.221   5.027   7.972 -1.8119 -0.2061  1.5645
  171SOPE  C31219388   3.373   4.905   8.056  0.9631  0.3310 -0.9012
  171SOPE  H12X19389   3.440   4.988   8.025 -0.2466  1.9102  0.5072
  171SOPE  H12Y19390   3.422   4.806   8.046 -1.6120 -1.0549 -0.6757
  171SOPE  C31319391   3.329   4.916   8.204  0.1082  0.1595  0.0933
  171SOPE  H13X19392   3.260   4.833   8.228  0.0312 -0.1533 -1.1471
  171SOPE  H13Y19393   3.272   5.009   8.228  1.6064  0.8411  1.1966
  171SOPE  C31419394   3.441   4.918   8.301  0.1124  0.0312 -0.1276
  171SOPE  H14X19395   3.467   5.025   8.317  2.5224 -0.5740  0.4144
  171SOPE  H14Y19396   3.528   4.872   8.250 -0.3922 -0.7621 -0.2795
  171SOPE  C31519397   3.408   4.841   8.427 -0.2929 -0.6315 -1.0719
  171SOPE  H15X19398   3.498   4.830   8.491 -2.1762 -0.1702  1.8505
  171SOPE  H15Y19399   3.370   4.742   8.392 -0.3936 -0.6903 -0.8000
  171SOPE  C31619400   3.298   4.896   8.514  0.3019 -0.2386 -0.3059
  171SOPE  H16X19401   3.201   4.903   8.461 -0.1465  0.0872  0.5436
  171SOPE  H16Y19402   3.332   4.999   8.538  5.1826 -1.3535 -1.3221
  171SOPE  C31719403   3.297   4.823   8.656 -0.2090 -0.6264 -0.2078
  171SOPE  H17X19404   3.197   4.834   8.703  0.2563  1.4708  0.3939
  171SOPE  H17Y19405   3.369   4.878   8.719  0.5665 -2.8389  0.9168
  171SOPE  C31819406   3.343   4.674   8.659  0.1034 -0.6876  0.3473
  171SOPE  H18X19407   3.343   4.641   8.765  0.7937 -0.2438  0.4909
  171SOPE  H18Y19408   3.440   4.653   8.610 -0.9855 -1.7884 -1.4584
  171SOPE  H18Z19409   3.266   4.613   8.607  0.5341 -1.6507  0.8148
  172SOPE     N19410   3.631   6.426   6.368  0.4089  0.2197  0.4340
  172SOPE   HN119411   3.698   6.378   6.305 -1.0022  0.3136 -1.1995
  172SOPE   HN219412   3.593   6.510   6.320  0.2864 -0.7840 -1.3077
  172SOPE   HN319413   3.678   6.460   6.455 -1.0842  2.2332  0.5221
  172SOPE   C1219414   3.538   6.316   6.402 -0.3024  0.3866 -0.3139
  172SOPE  H12A19415   3.495   6.278   6.307 -0.3455  0.8504 -0.4788
  172SOPE  H12B19416   3.457   6.364   6.461 -0.0002  0.7348 -0.1756
  172SOPE   C1119417   3.598   6.203   6.488  1.0206  0.1061 -0.0404
  172SOPE  H11A19418   3.503   6.151   6.515  1.4005 -0.7087 -0.2147
  172SOPE  H11B19419   3.646   6.236   6.582 -0.3184 -0.6215  0.9309
  172SOPE     P19420   3.664   5.956   6.411 -0.0041 -0.0271  0.1606
  172SOPE   O1319421   3.771   5.900   6.329 -0.7646  0.0408 -0.2216
  172SOPE   O1419422   3.526   5.933   6.366 -0.1902  0.3022  0.3298
  172SOPE   O1219423   3.680   6.117   6.409 -0.6641  0.0333 -0.0654
  172SOPE   O1119424   3.678   5.922   6.559  0.3303 -0.9586 -0.2774
  172SOPE    C119425   3.800   5.885   6.612  0.4745 -0.1418 -0.1301
  172SOPE    HA19426   3.883   5.947   6.573  0.6796 -0.0811  0.3913
  172SOPE    HB19427   3.814   5.782   6.573  0.9310  0.1107 -0.6472
  172SOPE    C219428   3.776   5.877   6.769 -0.3925 -0.1424 -0.4980
  172SOPE    HS19429   3.682   5.821   6.786 -0.4194  0.1172  0.2416
  172SOPE   O2119430   3.784   6.008   6.829  0.0356 -0.3906 -0.3756
  172SOPE   C2119431   3.686   6.030   6.917 -1.1629  0.1878 -0.6022
  172SOPE   O2219432   3.595   5.953   6.937  0.2175  0.0649  0.1251
  172SOPE   C2219433   3.707   6.160   6.987 -0.2363 -0.5713 -0.2295
  172SOPE   H2R19434   3.717   6.231   6.902 -1.2356 -0.4723 -0.2700
  172SOPE   H2S19435   3.802   6.151   7.044  0.5653 -1.5386 -1.6502
  172SOPE    C319436   3.887   5.793   6.836 -0.1177 -0.1743  0.7512
  172SOPE    HX19437   3.988   5.829   6.805 -0.0711 -1.0349 -0.1209
  172SOPE    HY19438   3.879   5.692   6.791  0.3607 -0.5383  1.4795
  172SOPE   O3119439   3.869   5.784   6.981  0.0306  0.2742  0.4830
  172SOPE   C3119440   3.978   5.760   7.048 -0.8576 -0.0165  0.0068
  172SOPE   O3219441   4.092   5.739   6.998 -0.5189 -0.0101  0.0062
  172SOPE   C3219442   3.957   5.764   7.203  0.4248  0.1788 -0.4797
  172SOPE   H2X19443   3.967   5.873   7.221  0.3856  0.2645 -0.9621
  172SOPE   H2Y19444   4.052   5.713   7.232  1.0808  1.0010 -1.1319
  172SOPE   C2319445   3.587   6.206   7.067 -0.5182 -0.4790  0.9023
  172SOPE   H3R19446   3.556   6.130   7.141  1.6477 -2.1244  0.2276
  172SOPE   H3S19447   3.498   6.218   7.001  1.7262  0.7556 -2.1576
  172SOPE   C2419448   3.611   6.343   7.146 -0.3017 -0.2306 -0.0522
  172SOPE   H4R19449   3.631   6.426   7.075 -1.2859  0.0548 -0.0074
  172SOPE   H4S19450   3.515   6.368   7.195 -0.1966  1.3098 -0.5799
  172SOPE   C2519451   3.738   6.338   7.240 -0.3629  0.3526  1.2191
  172SOPE   H5R19452   3.828   6.345   7.176 -0.0172  2.4389  1.8522
  172SOPE   H5S19453   3.736   6.426   7.309  1.8173  0.9380  0.6012
  172SOPE   C2619454   3.751   6.219   7.326 -0.3010  0.3246 -0.0293
  172SOPE   H6R19455   3.664   6.212   7.394  0.6329  1.2707  1.3191
  172SOPE   H6S19456   3.759   6.132   7.257 -0.6776  0.5975 -0.4252
  172SOPE   C2719457   3.882   6.215   7.408  0.1136  0.3785 -0.3102
  172SOPE   H7R19458   3.912   6.112   7.436 -0.5468 -0.3278 -2.0823
  172SOPE   H7S19459   3.958   6.247   7.334  1.3444 -0.5627  0.5011
  172SOPE   C2819460   3.882   6.315   7.527 -0.4219  0.3577  0.3606
  172SOPE   H8R19461   3.988   6.340   7.549 -0.0358 -0.2750 -0.6840
  172SOPE   H8S19462   3.834   6.412   7.504  1.2676  2.0113  3.2079
  172SOPE   C2919463   3.808   6.245   7.641  0.1011  0.2746  0.0796
  172SOPE   H9119464   3.700   6.261   7.635  0.1577  0.5024 -0.4460
  172SOPE  C21019465   3.865   6.182   7.752  0.7636 -0.2677  0.2410
  172SOPE  H10119466   3.792   6.148   7.827  0.8539  0.2300  0.5585
  172SOPE  C21119467   4.013   6.157   7.773 -0.0909  0.0911  0.0823
  172SOPE  H11R19468   4.063   6.169   7.674 -1.1034  0.0401 -0.4470
  172SOPE  H11S19469   4.031   6.052   7.803 -1.1725 -0.6476 -1.7066
  172SOPE  C21219470   4.065   6.244   7.883  0.2263  0.3558 -1.1591
  172SOPE  H12R19471   4.029   6.349   7.876  1.0805  0.7614  0.2044
  172SOPE  H12S19472   4.175   6.248   7.877  0.4807 -2.9140 -0.3529
  172SOPE  C21319473   4.034   6.167   8.017 -0.1668 -0.4276  0.2637
  172SOPE  H13R19474   4.082   6.067   8.016  0.2659 -0.2238 -0.5416
  172SOPE  H13S19475   3.925   6.153   8.027 -0.5065  1.8557  0.2177
  172SOPE  C21419476   4.094   6.241   8.144  0.7470 -0.1853  0.2003
  172SOPE  H14R19477   4.064   6.348   8.138  0.7135 -0.1292  1.2625
  172SOPE  H14S19478   4.204   6.246   8.129  0.3863  3.2486 -2.8324
  172SOPE  C21519479   4.054   6.174   8.272 -1.2684  1.0365  0.0618
  172SOPE  H15R19480   4.072   6.065   8.269  2.9485  1.5708 -2.1946
  172SOPE  H15S19481   3.944   6.185   8.273 -1.2821  0.8962  0.0446
  172SOPE  C21619482   4.120   6.249   8.395 -0.0608 -0.4405 -0.6017
  172SOPE  H16R19483   4.223   6.209   8.380  0.5448  0.3474  1.1792
  172SOPE  H16S19484   4.077   6.204   8.487  3.1761 -1.7322  0.4357
  172SOPE  C21719485   4.121   6.396   8.404  0.1991 -0.1392  0.6987
  172SOPE  H17R19486   4.176   6.432   8.315 -1.3772  0.0281 -0.2398
  172SOPE  H17S19487   4.175   6.433   8.494 -0.7146 -0.4094  1.3804
  172SOPE  C21819488   3.982   6.467   8.407  0.1105 -0.1806  0.6363
  172SOPE  H18R19489   3.911   6.411   8.471  0.6364 -2.6324 -0.7953
  172SOPE  H18S19490   3.953   6.472   8.299  3.3751 -0.6829 -0.3691
  172SOPE  H18T19491   3.983   6.570   8.448 -0.0856 -0.5028  1.4675
  172SOPE   C3319492   3.826   5.701   7.270 -0.5170  0.2263 -0.0567
  172SOPE   H3X19493   3.847   5.595   7.295 -0.3745  0.7211  2.0426
  172SOPE   H3Y19494   3.743   5.697   7.196 -1.5206 -2.8634  1.0724
  172SOPE   C3419495   3.771   5.771   7.392 -0.4701  0.1873 -0.0237
  172SOPE   H4X19496   3.666   5.736   7.403 -0.5221  0.0506 -0.9056
  172SOPE   H4Y19497   3.767   5.879   7.365  0.6046  0.2837  0.1881
  172SOPE   C3519498   3.844   5.744   7.525 -0.5044  0.0494 -0.9481
  172SOPE   H5X19499   3.931   5.814   7.524 -0.3495 -0.1400 -0.8153
  172SOPE   H5Y19500   3.876   5.638   7.531  0.7579  0.4771  2.2241
  172SOPE   C3619501   3.772   5.787   7.660 -0.2699  0.3227  0.7556
  172SOPE   H6X19502   3.677   5.730   7.661 -0.4089  0.4774 -0.8989
  172SOPE   H6Y19503   3.736   5.892   7.660 -3.5194 -0.4305 -4.2575
  172SOPE   C3719504   3.854   5.760   7.780  0.1656  0.8313  0.3166
  172SOPE   H7X19505   3.944   5.824   7.772 -1.4824  3.0554 -1.7496
  172SOPE   H7Y19506   3.888   5.656   7.801 -0.0900  0.2149 -1.9959
  172SOPE   C3819507   3.782   5.801   7.909 -0.5397  0.3677 -0.4752
  172SOPE   H8X19508   3.686   5.747   7.924 -1.3601  1.4039 -1.6987
  172SOPE   H8Y19509   3.760   5.908   7.932  1.7430  0.9924 -0.9554
  172SOPE   C3919510   3.872   5.755   8.024 -0.5124  0.3156  0.3844
  172SOPE   H9X19511   3.968   5.811   8.015 -0.0328 -0.4331  0.7733
  172SOPE   H9Y19512   3.898   5.648   8.014 -1.0497  0.0844  1.3881
  172SOPE  C31019513   3.809   5.774   8.156 -0.1938  0.4951 -0.3402
  172SOPE  H10X19514   3.710   5.723   8.152 -0.4339  0.9396 -0.1320
  172SOPE  H10Y19515   3.784   5.881   8.174 -0.8178  0.8376 -2.7840
  172SOPE  C31119516   3.888   5.716   8.271  0.3531 -0.4859  0.1388
  172SOPE  H11X19517   3.976   5.779   8.297  0.1142 -0.6196  1.3509
  172SOPE  H11Y19518   3.932   5.620   8.239  1.3539 -0.7847  2.2206
  172SOPE  C31219519   3.813   5.700   8.405 -0.8040  0.8613  0.4687
  172SOPE  H12X19520   3.892   5.662   8.472 -1.1870  0.9721  0.9914
  172SOPE  H12Y19521   3.727   5.630   8.395 -0.9039  1.0980 -0.4370
  172SOPE  C31319522   3.762   5.832   8.466  0.1747 -0.3271 -0.3622
  172SOPE  H13X19523   3.698   5.884   8.392 -0.2671  1.3406  1.1191
  172SOPE  H13Y19524   3.852   5.890   8.494  0.6571  0.3483 -3.0717
  172SOPE  C31419525   3.665   5.808   8.588  0.2625 -0.4109 -0.0991
  172SOPE  H14X19526   3.694   5.900   8.645 -0.1258  0.5913 -1.4793
  172SOPE  H14Y19527   3.702   5.720   8.645  0.9267  0.0688  0.2383
  172SOPE  C31519528   3.517   5.794   8.560 -0.6945 -0.6445 -0.3075
  172SOPE  H15X19529   3.500   5.723   8.476 -0.8176 -2.3096  1.0646
  172SOPE  H15Y19530   3.483   5.892   8.520  2.5172  1.1409  0.9999
  172SOPE  C31619531   3.438   5.761   8.691 -0.4950  0.4543 -0.0745
  172SOPE  H16X19532   3.429   5.853   8.752  1.2074  0.8171 -0.3205
  172SOPE  H16Y19533   3.489   5.684   8.753  2.2393  1.1984 -1.2207
  172SOPE  C31719534   3.290   5.710   8.655 -0.2215 -0.1444 -0.4160
  172SOPE  H17X19535   3.239   5.668   8.744 -4.4249  1.1210 -1.9717
  172SOPE  H17Y19536   3.308   5.625   8.586 -2.5444 -0.2311 -0.9920
  172SOPE  C31819537   3.198   5.804   8.584  0.0672 -0.4821 -0.0784
  172SOPE  H18X19538   3.249   5.845   8.495 -0.5399 -1.4472 -0.8875
  172SOPE  H18Y19539   3.186   5.893   8.650  1.3201 -1.0230  0.9184
  172SOPE  H18Z19540   3.099   5.756   8.570  0.5136 -1.2945 -0.4870
  173SAPI   C1219541   1.741   3.827  11.177  0.1785  0.3529  0.6087
  173SAPI    H219542   1.832   3.866  11.127  1.1872  0.4119  2.4055
  173SAPI    O219543   1.759   3.686  11.196  0.5071  0.1095 -0.5750
  173SAPI   HO219544   1.833   3.656  11.142  0.3944  1.0118 -1.2581
  173SAPI   C1319545   1.727   3.891  11.312 -0.5660  0.2716 -0.1918
  173SAPI    H319546   1.712   3.999  11.293  1.2511  0.5747 -0.0805
  173SAPI    O319547   1.845   3.891  11.393 -0.0721 -0.1280  0.3436
  173SAPI   HO319548   1.851   3.801  11.425  2.4057 -0.0974  0.1080
  173SAPI   C1419549   1.596   3.847  11.381  0.1361 -0.1305  0.0462
  173SAPI    H419550   1.596   3.736  11.388 -0.9835 -0.2755 -1.5953
  173SAPI    O419551   1.587   3.898  11.516  0.3779 -0.4972 -0.3707
  173SAPI   HO419552   1.503   3.942  11.526  0.7016 -0.1274  1.0110
  173SAPI   C1519553   1.474   3.875  11.303 -0.2055 -0.4117 -0.6729
  173SAPI    H519554   1.464   3.985  11.288 -0.5548  0.1065  2.6472
  173SAPI    O519555   1.354   3.829  11.362 -0.2682  0.1187 -0.0733
  173SAPI   HO519556   1.282   3.879  11.324  1.5944  1.1005 -2.6600
  173SAPI   C1619557   1.489   3.816  11.165  0.4622 -0.0960  0.2077
  173SAPI    H619558   1.492   3.705  11.157  2.5922 -0.1353  0.8843
  173SAPI    O619559   1.382   3.857  11.081  0.3583 -0.5037 -0.2336
  173SAPI   HO619560   1.420   3.822  11.000  0.8989 -2.3609  0.7604
  173SAPI   C1119561   1.615   3.871  11.105 -0.5370  0.4239 -0.1824
  173SAPI    H119562   1.610   3.982  11.106 -1.5831  0.3790  0.7293
  173SAPI     P19563   1.693   3.915  10.852 -0.2012  0.1006 -0.3921
  173SAPI   O1319564   1.679   3.848  10.722  0.2409 -0.5305 -0.1665
  173SAPI   O1419565   1.828   3.957  10.899 -0.0170  0.1335  0.7069
  173SAPI   O1219566   1.625   3.823  10.973 -0.2940  0.0012  0.4480
  173SAPI   O1119567   1.602   4.037  10.856 -0.5517  0.2909 -0.0838
  173SAPI    C119568   1.463   4.018  10.831  0.1808 -0.1254 -0.1941
  173SAPI    HA19569   1.430   3.914  10.854  0.3896  0.1692  1.6018
  173SAPI    HB19570   1.409   4.074  10.911  0.4933 -1.1861  0.7805
  173SAPI    C219571   1.405   4.072  10.695  0.5144 -0.3166  0.0723
  173SAPI    HS19572   1.294   4.078  10.707  0.5040  0.6054 -0.3877
  173SAPI   O2119573   1.448   3.984  10.585  0.2092 -0.6240  0.2627
  173SAPI   C2119574   1.391   3.863  10.577 -0.5456 -0.7848 -0.6058
  173SAPI   O2219575   1.310   3.813  10.650  0.4113  0.6145 -0.5744
  173SAPI   C2219576   1.445   3.799  10.449  0.0551 -0.3170  0.1168
  173SAPI   H2R19577   1.554   3.817  10.436  0.1913 -1.9176 -1.2346
  173SAPI   H2S19578   1.438   3.691  10.472  1.6231 -0.1865  1.3861
  173SAPI    C319579   1.454   4.215  10.665 -0.3486 -0.4681  0.0610
  173SAPI    HX19580   1.564   4.217  10.682 -0.4051 -1.5588  0.6045
  173SAPI    HY19581   1.417   4.280  10.746  0.9083  1.9394 -1.1839
  173SAPI   O3119582   1.404   4.270  10.535  0.0271  0.1956 -0.4746
  173SAPI   C3119583   1.498   4.260  10.443  0.4931 -0.0494 -0.1590
  173SAPI   O3219584   1.609   4.218  10.461  0.1221  0.3476 -0.0970
  173SAPI   C3219585   1.442   4.304  10.309  0.4369 -1.0158 -0.1412
  173SAPI   H2X19586   1.340   4.348  10.317  1.5173  1.6148  0.3724
  173SAPI   H2Y19587   1.416   4.210  10.255 -0.7548 -0.9781  0.3309
  173SAPI   C2319588   1.354   3.823  10.327 -0.0970  0.3039 -0.2518
  173SAPI   H3R19589   1.255   3.781  10.352 -0.0438 -0.0684 -0.6537
  173SAPI   H3S19590   1.391   3.748  10.254 -4.0646  0.1730 -2.4028
  173SAPI   C2419591   1.360   3.961  10.268 -0.5786  0.2646 -0.0127
  173SAPI   H4R19592   1.460   3.969  10.220 -0.5543  1.2933  0.2036
  173SAPI   H4S19593   1.360   4.026  10.358  0.7108 -1.3083  1.1938
  173SAPI   C2519594   1.250   3.999  10.179  0.1012  0.2723  0.4884
  173SAPI   H5R19595   1.156   4.036  10.223  0.3601  0.7014  0.6892
  173SAPI   C2619596   1.259   4.001  10.039  0.7282  0.1804  0.0127
  173SAPI   H6R19597   1.175   4.033   9.976  1.6089  0.7014 -0.9403
  173SAPI   C2719598   1.373   3.971   9.940 -0.4220 -0.3895 -0.5611
  173SAPI   H7R19599   1.374   3.871   9.890  0.1097 -2.7045  3.6273
  173SAPI   H7S19600   1.468   3.954   9.995 -0.5159 -0.5223 -0.4353
  173SAPI   C2819601   1.394   4.089   9.850 -0.5889  0.8254 -0.1436
  173SAPI   H8R19602   1.456   4.170   9.892  0.6203 -0.0386 -0.2164
  173SAPI   C2919603   1.358   4.099   9.719 -0.4657  0.0926 -0.3458
  173SAPI   H9R19604   1.374   4.196   9.672  1.5818 -0.6606 -1.3309
  173SAPI  C21019605   1.276   4.001   9.630 -0.5710 -0.7763 -0.5805
  173SAPI  H10R19606   1.178   4.052   9.617 -0.0245  0.5395  0.2868
  173SAPI  H10S19607   1.266   3.911   9.695  0.3588 -0.5647 -0.1354
  173SAPI  C21119608   1.342   3.965   9.498 -0.2066 -0.0291  0.6145
  173SAPI  H11R19609   1.451   3.957   9.515 -0.3518 -0.5816  1.3339
  173SAPI  C21219610   1.288   3.933   9.372 -0.3775  0.3974 -0.1606
  173SAPI  H12R19611   1.364   3.920   9.294  0.5964 -0.6812  0.9138
  173SAPI  C21319612   1.140   3.910   9.344 -0.4008 -0.3748  0.9977
  173SAPI  H13R19613   1.074   3.962   9.417 -1.3818 -0.9377  0.5402
  173SAPI  H13S19614   1.103   3.805   9.338  2.0954 -1.3038  0.9199
  173SAPI  C21419615   1.119   3.978   9.212  0.2677  0.0388  1.0262
  173SAPI  H14R19616   1.108   4.087   9.219  1.0926  0.1431  0.7135
  173SAPI  C21519617   1.125   3.933   9.082  0.3269  0.7578  0.0297
  173SAPI  H15R19618   1.104   4.006   9.003  0.7855  0.2363 -0.5809
  173SAPI  C21619619   1.159   3.796   9.036 -0.2467  0.5130  0.0026
  173SAPI  H16R19620   1.074   3.759   8.975  0.7358 -0.4178 -0.8385
  173SAPI  H16S19621   1.181   3.728   9.121  0.7493  1.0406  0.1783
  173SAPI  C21719622   1.282   3.788   8.939 -0.1002 -0.2062  0.2004
  173SAPI  H17R19623   1.369   3.850   8.969 -1.2677  0.5997  2.1059
  173SAPI  H17S19624   1.252   3.836   8.843  0.2736 -0.3856 -0.0062
  173SAPI  C21819625   1.317   3.637   8.921  0.5070  0.3228 -0.1335
  173SAPI  H18R19626   1.231   3.579   8.960  0.4017  1.3182  1.1943
  173SAPI  H18S19627   1.396   3.624   8.999  0.1049  1.9291  0.5790
  173SAPI  C21919628   1.371   3.602   8.779 -0.4105 -0.1727 -0.2710
  173SAPI  H19R19629   1.465   3.658   8.757  1.2835 -3.0473 -0.8870
  173SAPI  H19S19630   1.287   3.635   8.714 -0.6718  1.9671  1.0596
  173SAPI  C22019631   1.400   3.457   8.765 -0.1471  0.6427  0.2020
  173SAPI  H20R19632   1.503   3.434   8.802 -0.0697  1.4072  0.4831
  173SAPI  H20S19633   1.415   3.435   8.657  1.8410  0.7033  0.4175
  173SAPI  H20T19634   1.322   3.393   8.810  0.4325 -0.3535 -0.1738
  173SAPI   C3319635   1.524   4.393  10.208  0.1522  0.5269 -0.2855
  173SAPI   H3X19636   1.539   4.496  10.247  2.5753 -0.3412  1.2818
  173SAPI   H3Y19637   1.459   4.408  10.119 -1.4731  3.0057  1.2013
  173SAPI   C3419638   1.658   4.332  10.163 -0.1726 -0.1256 -0.4436
  173SAPI   H4X19639   1.644   4.234  10.111  1.4506 -2.2411  2.7886
  173SAPI   H4Y19640   1.705   4.310  10.261 -1.7905  0.4844  0.4975
  173SAPI   C3519641   1.749   4.426  10.084  0.6689  0.1884  0.3886
  173SAPI   H5X19642   1.833   4.360  10.054  1.5823 -0.0315  3.2109
  173SAPI   H5Y19643   1.804   4.502  10.143  2.1401  0.9950 -1.8527
  173SAPI   C3619644   1.686   4.500   9.967 -0.2059 -0.2183  0.0932
  173SAPI   H6X19645   1.599   4.566   9.990 -0.0719  0.4522 -1.2273
  173SAPI   H6Y19646   1.638   4.418   9.908  0.7358  1.1572 -2.7259
  173SAPI   C3719647   1.788   4.571   9.879 -0.4734 -0.2565 -0.4771
  173SAPI   H7X19648   1.872   4.506   9.847 -0.0712 -0.5452  1.1122
  173SAPI   H7Y19649   1.837   4.660   9.924  1.3884 -0.1601 -2.5599
  173SAPI   C3819650   1.712   4.618   9.754 -0.2961 -0.3473  0.8029
  173SAPI   H8X19651   1.652   4.705   9.788  0.0715  0.3678 -0.3523
  173SAPI   H8Y19652   1.642   4.541   9.715 -0.0127 -1.1385  1.7753
  173SAPI   C3919653   1.813   4.659   9.642  0.1545  0.1895  0.0574
  173SAPI   H9X19654   1.892   4.587   9.613 -0.9154  0.0762 -2.8773
  173SAPI   H9Y19655   1.866   4.751   9.674 -0.8529  1.2436 -1.2390
  173SAPI  C31019656   1.741   4.697   9.519  0.0020 -0.1393 -0.2109
  173SAPI  H10X19657   1.664   4.775   9.538 -1.0431 -1.2196  0.0485
  173SAPI  H10Y19658   1.679   4.608   9.497 -2.2652  1.3164 -0.0669
  173SAPI  C31119659   1.816   4.727   9.390 -0.0769  0.0198  0.1667
  173SAPI  H11X19660   1.896   4.799   9.420  0.8894 -0.4131 -1.2512
  173SAPI  H11Y19661   1.752   4.775   9.313  1.1349  1.8231  0.2244
  173SAPI  C31219662   1.887   4.603   9.329 -0.6573  1.2070  0.2760
  173SAPI  H12X19663   1.808   4.526   9.324  0.1774  0.2474  1.3813
  173SAPI  H12Y19664   1.969   4.560   9.391 -2.2261 -2.0723  0.2818
  173SAPI  C31319665   1.955   4.627   9.193 -0.2419 -0.4005 -0.6354
  173SAPI  H13X19666   2.025   4.713   9.209 -2.5105  1.5634 -0.6790
  173SAPI  H13Y19667   1.877   4.665   9.124  1.0453  0.0982 -1.8581
  173SAPI  C31419668   2.027   4.507   9.124  0.1414  0.3986 -0.1674
  173SAPI  H14X19669   1.956   4.426   9.100  1.9696 -1.4215  0.2180
  173SAPI  H14Y19670   2.101   4.476   9.201  0.0550 -0.2030 -0.3243
  173SAPI  C31519671   2.097   4.563   9.005 -0.3610 -0.0351  0.7577
  173SAPI  H15X19672   2.142   4.658   9.041  0.1582  0.7041 -1.6287
  173SAPI  H15Y19673   2.021   4.590   8.929 -0.3837  0.8356  1.0828
  173SAPI  C31619674   2.191   4.473   8.935 -0.1222  0.9430  0.5368
  173SAPI  H16X19675   2.272   4.439   9.002  0.3185  4.0442  1.7269
  173SAPI  H16Y19676   2.245   4.523   8.852  0.8586  0.4952  0.8967
  173SAPI  C31719677   2.142   4.329   8.897 -0.1318  0.4822 -0.4608
  173SAPI  H17X19678   2.089   4.285   8.984  1.7872 -1.2238 -0.0661
  173SAPI  H17Y19679   2.229   4.267   8.866 -0.8315  0.2563 -2.0388
  173SAPI  C31819680   2.046   4.330   8.776 -0.8835  0.6156  0.2462
  173SAPI  H18X19681   1.951   4.384   8.792 -0.6118  0.8087  1.3225
  173SAPI  H18Y19682   2.037   4.229   8.730  0.8775  0.7575 -0.4988
  173SAPI  H18Z19683   2.092   4.391   8.696 -1.1408  1.5835  0.8181
  174SAPI   C1219684   5.918   3.540  10.985 -0.6714 -0.0642 -0.2770
  174SAPI    H219685   6.016   3.528  10.934  0.1700  0.3114  1.2037
  174SAPI    O219686   5.870   3.672  10.940 -0.2307  0.7868 -0.1936
  174SAPI   HO219687   5.943   3.734  10.943  0.7789 -0.3573 -0.0347
  174SAPI   C1319688   5.834   3.427  10.963 -0.4480  0.3061  0.5101
  174SAPI    H319689   5.882   3.337  11.007  1.0519  1.3384  1.0683
  174SAPI    O319690   5.822   3.405  10.820  0.1286 -0.5233  0.5364
  174SAPI   HO319691   5.822   3.494  10.785  1.5722 -0.6999  0.0011
  174SAPI   C1419692   5.696   3.461  11.036  0.0128 -0.0120  0.7265
  174SAPI    H419693   5.661   3.555  10.988  1.2749  0.1608  0.0796
  174SAPI    O419694   5.600   3.365  10.995 -0.1517  0.6145 -0.1573
  174SAPI   HO419695   5.556   3.389  10.914 -0.9193  1.1306  0.3929
  174SAPI   C1519696   5.721   3.477  11.182 -0.1570 -0.1363 -0.8870
  174SAPI    H519697   5.753   3.375  11.215 -0.5186 -0.5383 -1.7377
  174SAPI    O519698   5.596   3.506  11.235 -0.0167 -0.6297  0.4786
  174SAPI   HO519699   5.576   3.431  11.291 -2.4079 -0.4654 -0.0352
  174SAPI   C1619700   5.831   3.576  11.212 -0.3290 -0.4415 -0.5294
  174SAPI    H619701   5.799   3.679  11.187 -0.3443 -0.4644 -0.6019
  174SAPI    O619702   5.865   3.584  11.349 -0.4355  0.5527  0.0730
  174SAPI   HO619703   5.937   3.647  11.357 -1.4292  1.8219 -0.5833
  174SAPI   C1119704   5.955   3.548  11.132 -0.3308 -0.2504 -0.0710
  174SAPI    H119705   5.987   3.444  11.155 -0.2184 -0.3995 -0.8801
  174SAPI     P19706   6.221   3.600  11.156  0.1778 -0.3259 -0.1266
  174SAPI   O1319707   6.251   3.460  11.207  0.5140 -0.6070 -0.1898
  174SAPI   O1419708   6.304   3.703  11.225  0.5582 -0.3183 -0.2960
  174SAPI   O1219709   6.058   3.639  11.168 -0.0403 -0.5861  0.0292
  174SAPI   O1119710   6.249   3.585  11.002 -0.4007  0.6310  0.3936
  174SAPI    C119711   6.293   3.704  10.929 -0.5556  0.4500  0.4574
  174SAPI    HA19712   6.208   3.774  10.914 -0.9870 -0.0080  0.7262
  174SAPI    HB19713   6.376   3.759  10.978  0.6182  1.9047 -2.8462
  174SAPI    C219714   6.346   3.648  10.795 -0.0913 -0.0032  0.2090
  174SAPI    HS19715   6.371   3.735  10.729  2.8177 -0.9896 -0.1285
  174SAPI   O2119716   6.257   3.552  10.729 -0.0165  0.5573  0.0788
  174SAPI   C2119717   6.153   3.608  10.684  0.5946 -0.2089 -0.0973
  174SAPI   O2219718   6.130   3.729  10.680 -0.2663  0.1473  0.4668
  174SAPI   C2219719   6.058   3.496  10.634  0.0846  0.3717 -0.5003
  174SAPI   H2R19720   6.073   3.409  10.701 -3.0814 -0.7232 -1.0642
  174SAPI   H2S19721   5.955   3.540  10.638  1.3097  3.4523  1.6963
  174SAPI    C319722   6.478   3.576  10.823  0.0984 -0.5401 -0.2691
  174SAPI    HX19723   6.458   3.491  10.891  2.2276  0.5624  1.8770
  174SAPI    HY19724   6.548   3.646  10.872 -1.0038  1.4934 -1.4551
  174SAPI   O3119725   6.528   3.527  10.698  0.1407 -0.3170  0.0289
  174SAPI   C3119726   6.513   3.401  10.661  0.2086  0.0368 -0.1001
  174SAPI   O3219727   6.466   3.315  10.727  0.5361 -0.0295 -0.3589
  174SAPI   C3219728   6.550   3.384  10.520 -0.5321  0.2398 -0.2190
  174SAPI   H2X19729   6.650   3.427  10.497 -0.0363 -0.4692  0.5555
  174SAPI   H2Y19730   6.471   3.438  10.464 -1.1736 -0.3282  0.1276
  174SAPI   C2319731   6.096   3.439  10.500  0.0046  0.0073  0.1368
  174SAPI   H3R19732   6.185   3.376  10.518  1.0658  1.9885  2.4228
  174SAPI   H3S19733   6.119   3.513  10.421  2.5267 -1.8508 -1.0272
  174SAPI   C2419734   5.978   3.360  10.440 -0.5325  1.0345  0.5150
  174SAPI   H4R19735   5.891   3.429  10.434 -0.2431  1.3895  0.3349
  174SAPI   H4S19736   5.952   3.279  10.512  0.4535  0.2082 -0.0313
  174SAPI   C2519737   6.017   3.302  10.301  0.0719  0.3600 -0.0486
  174SAPI   H5R19738   6.066   3.203  10.301  1.1522  0.8846 -0.1975
  174SAPI   C2619739   5.999   3.374  10.191 -0.2373 -0.1314  0.1118
  174SAPI   H6R19740   6.030   3.335  10.093 -0.9606  1.7314 -0.9016
  174SAPI   C2719741   5.927   3.508  10.180  0.5023 -0.1889 -0.2186
  174SAPI   H7R19742   5.931   3.570  10.272 -0.4564  1.4072 -1.2018
  174SAPI   H7S19743   5.819   3.504  10.152  0.2716 -0.3074  0.6461
  174SAPI   C2819744   6.016   3.580  10.086 -0.4858  0.3392  0.4066
  174SAPI   H8R19745   6.115   3.611  10.124 -1.3464  3.3095  0.5069
  174SAPI   C2919746   5.975   3.631   9.961 -0.5675  0.3742 -0.2225
  174SAPI   H9R19747   6.051   3.678   9.897  1.2033 -0.2901  1.2742
  174SAPI  C21019748   5.846   3.616   9.890  0.0906 -0.1344 -0.0477
  174SAPI  H10R19749   5.817   3.715   9.848 -0.1143 -0.4584 -0.6834
  174SAPI  H10S19750   5.761   3.595   9.959 -0.5742  1.8130 -0.2112
  174SAPI  C21119751   5.874   3.518   9.780  0.6363  0.0166 -0.7883
  174SAPI  H11R19752   5.904   3.419   9.817  0.5360  0.5622  0.8101
  174SAPI  C21219753   5.870   3.534   9.643 -0.5583 -0.2508  0.4043
  174SAPI  H12R19754   5.884   3.440   9.588 -1.5543 -1.3015  1.8568
  174SAPI  C21319755   5.842   3.655   9.559  0.1134  0.8871 -0.4025
  174SAPI  H13R19756   5.900   3.630   9.467  1.1475 -0.0739  0.4920
  174SAPI  H13S19757   5.896   3.743   9.600  2.9723 -0.4551 -1.0604
  174SAPI  C21419758   5.697   3.679   9.537 -0.1182 -0.4010 -0.3057
  174SAPI  H14R19759   5.632   3.682   9.625 -0.5047 -1.0549 -0.5690
  174SAPI  C21519760   5.642   3.718   9.424 -0.2067  0.1791 -0.1753
  174SAPI  H15R19761   5.539   3.757   9.435  0.3122  0.8352  3.1681
  174SAPI  C21619762   5.722   3.737   9.294  0.4542 -0.5956 -0.6337
  174SAPI  H16R19763   5.829   3.765   9.309  0.6977 -1.0282 -1.5054
  174SAPI  H16S19764   5.676   3.815   9.229 -1.2428 -1.3492 -0.3885
  174SAPI  C21719765   5.722   3.610   9.207 -0.8663 -0.2282  0.1657
  174SAPI  H17R19766   5.623   3.600   9.159  0.2613 -1.7590 -2.0263
  174SAPI  H17S19767   5.747   3.518   9.264  1.9824  1.3138  1.6317
  174SAPI  C21819768   5.832   3.644   9.097  0.0345 -0.3666 -0.7796
  174SAPI  H18R19769   5.930   3.658   9.147  0.6691  2.5408 -2.6163
  174SAPI  H18S19770   5.813   3.738   9.041 -0.3715 -1.3007 -2.2586
  174SAPI  C21919771   5.841   3.520   9.009 -0.2194 -0.0818  0.6987
  174SAPI  H19R19772   5.754   3.520   8.940 -0.7542  1.2943  1.3289
  174SAPI  H19S19773   5.846   3.424   9.064 -2.8252  0.9636  2.9876
  174SAPI  C22019774   5.972   3.537   8.932 -0.3800  0.8655  0.4032
  174SAPI  H20R19775   5.998   3.450   8.868  0.9735  0.4737  1.4199
  174SAPI  H20S19776   6.055   3.519   9.004 -0.5160  2.5409  1.0282
  174SAPI  H20T19777   5.964   3.635   8.881  0.9417  0.3649 -0.8501
  174SAPI   C3319778   6.556   3.231  10.482 -0.8061 -0.3151  0.1205
  174SAPI   H3X19779   6.461   3.178  10.507  1.5994 -4.0489  2.3721
  174SAPI   H3Y19780   6.615   3.169  10.552  0.8330 -0.4849 -1.3552
  174SAPI   C3419781   6.601   3.212  10.340  0.5015  0.0266 -0.4687
  174SAPI   H4X19782   6.625   3.104  10.327  0.0836  0.1280 -2.2401
  174SAPI   H4Y19783   6.684   3.282  10.317  0.5855 -0.0134 -0.2870
  174SAPI   C3519784   6.495   3.250  10.232 -0.0147 -0.1375 -0.2575
  174SAPI   H5X19785   6.501   3.361  10.233  2.1692 -0.2102  0.4980
  174SAPI   H5Y19786   6.390   3.220  10.252  0.5270 -1.1954  1.1042
  174SAPI   C3619787   6.530   3.215  10.089 -0.5347 -0.3621 -0.1333
  174SAPI   H6X19788   6.512   3.107  10.069  0.8071 -0.3852 -1.2821
  174SAPI   H6Y19789   6.638   3.234  10.076 -0.2756 -2.5443 -1.7823
  174SAPI   C3719790   6.452   3.310   9.995 -0.3485  0.3006  0.7149
  174SAPI   H7X19791   6.472   3.416  10.019 -0.6288  0.5569 -0.1284
  174SAPI   H7Y19792   6.344   3.284  10.008 -0.2781 -0.3747  0.0690
  174SAPI   C3819793   6.480   3.281   9.847  0.5727  0.3199  0.3749
  174SAPI   H8X19794   6.591   3.276   9.845  0.5270 -2.3574  1.0728
  174SAPI   H8Y19795   6.461   3.359   9.770 -0.6928 -0.9753 -0.6835
  174SAPI   C3919796   6.415   3.149   9.790 -0.2124 -0.3145 -0.4809
  174SAPI   H9X19797   6.307   3.166   9.770 -1.1781 -1.8043  2.7619
  174SAPI   H9Y19798   6.417   3.075   9.873 -3.5551  1.1465  1.1117
  174SAPI  C31019799   6.501   3.104   9.663  0.8035 -0.8195 -0.5596
  174SAPI  H10X19800   6.605   3.076   9.689  2.3595  3.1707 -1.7408
  174SAPI  H10Y19801   6.514   3.191   9.595  1.1293 -2.6676 -2.9986
  174SAPI  C31119802   6.419   3.002   9.586  0.0042  0.2915 -0.0673
  174SAPI  H11X19803   6.318   3.043   9.565  1.3103  3.1376 -1.2867
  174SAPI  H11Y19804   6.410   2.917   9.657  1.3040 -0.8192 -1.1817
  174SAPI  C31219805   6.485   2.949   9.457 -0.5535 -0.1251 -0.1188
  174SAPI  H12X19806   6.585   2.920   9.495 -1.1368  1.2507  2.7502
  174SAPI  H12Y19807   6.502   3.020   9.373 -2.3349 -0.0705 -0.4747
  174SAPI  C31319808   6.402   2.830   9.406 -0.2822  0.3717  0.1975
  174SAPI  H13X19809   6.296   2.855   9.385 -0.6390 -2.4741 -2.1952
  174SAPI  H13Y19810   6.383   2.753   9.483 -0.4605  0.4404  0.2232
  174SAPI  C31419811   6.461   2.752   9.288 -0.4743  0.3585 -0.0606
  174SAPI  H14X19812   6.566   2.721   9.303  0.1042  2.3514  0.2489
  174SAPI  H14Y19813   6.466   2.821   9.201 -0.4025  0.5203  0.0702
  174SAPI  C31519814   6.369   2.634   9.268 -0.7300 -0.2179  0.0609
  174SAPI  H15X19815   6.261   2.660   9.280 -1.0682 -1.3124 -0.3979
  174SAPI  H15Y19816   6.385   2.553   9.342 -0.5266  0.1854  0.4617
  174SAPI  C31619817   6.386   2.563   9.121  0.1255 -0.8710 -0.1781
  174SAPI  H16X19818   6.492   2.589   9.103 -0.0559  0.3310  0.3628
  174SAPI  H16Y19819   6.320   2.612   9.046 -1.6244 -0.2825  1.6328
  174SAPI  C31719820   6.358   2.417   9.130  0.4703  0.8237 -0.2536
  174SAPI  H17X19821   6.259   2.391   9.174  1.2632  0.7647  1.5689
  174SAPI  H17Y19822   6.432   2.376   9.201  1.4624  1.9431 -0.6096
  174SAPI  C31819823   6.374   2.348   8.991 -0.5924 -0.2622 -0.0205
  174SAPI  H18X19824   6.339   2.243   8.994  1.0683 -0.8254  1.2403
  174SAPI  H18Y19825   6.479   2.352   8.953 -1.1507 -1.5260 -1.8181
  174SAPI  H18Z19826   6.302   2.403   8.927 -0.1818  2.3102  1.5569
  175SAPI   C1219827   2.933   4.593   6.177 -0.0216  0.1411 -0.3379
  175SAPI    H219828   2.985   4.495   6.174  0.6540  0.4944 -0.5730
  175SAPI    O219829   2.941   4.652   6.048  0.5146 -0.0151 -0.0981
  175SAPI   HO219830   3.011   4.718   6.048 -0.1651  0.7565  0.9424
  175SAPI   C1319831   2.791   4.586   6.229  0.0336 -0.7919 -0.1134
  175SAPI    H319832   2.777   4.546   6.332 -2.4703 -2.3049 -0.9617
  175SAPI    O319833   2.720   4.495   6.148 -0.3742  0.8771 -0.6695
  175SAPI   HO319834   2.639   4.465   6.190 -0.1034  0.5020 -0.4077
  175SAPI   C1419835   2.736   4.729   6.235  0.7258  0.5530  0.0734
  175SAPI    H419836   2.738   4.769   6.131 -0.0260 -1.0085 -0.5881
  175SAPI    O419837   2.597   4.727   6.268  0.2072 -0.0819 -0.4402
  175SAPI   HO419838   2.573   4.808   6.313 -1.9856 -1.3656  0.8831
  175SAPI   C1519839   2.809   4.819   6.330  0.1544 -0.6145 -0.3699
  175SAPI    H519840   2.801   4.788   6.436 -0.6088  3.9901  1.1287
  175SAPI    O519841   2.758   4.953   6.336 -0.3983 -0.1770 -0.3586
  175SAPI   HO519842   2.689   4.960   6.402 -0.6310 -2.0540 -0.3632
  175SAPI   C1619843   2.951   4.821   6.289  0.3259  0.0818 -0.5564
  175SAPI    H619844   2.956   4.874   6.192 -0.1535  0.1795 -0.5333
  175SAPI    O619845   3.019   4.905   6.382 -0.5643 -0.9222 -0.2656
  175SAPI   HO619846   3.022   4.861   6.467 -1.3331  1.0252  0.8280
  175SAPI   C1119847   3.007   4.680   6.283 -0.4423  0.2903  0.3728
  175SAPI    H119848   2.989   4.638   6.385  0.8920 -0.8736  0.1717
  175SAPI     P19849   3.258   4.601   6.350 -0.1009  0.6233 -0.0876
  175SAPI   O1319850   3.387   4.616   6.285 -0.5177 -0.1837  0.2746
  175SAPI   O1419851   3.206   4.462   6.376  0.0063 -0.1680  0.0691
  175SAPI   O1219852   3.146   4.681   6.252 -0.0282 -0.2662  0.4929
  175SAPI   O1119853   3.266   4.677   6.489  0.1549 -0.0313 -0.0731
  175SAPI    C119854   3.299   4.819   6.500 -0.9200 -0.5769 -0.3293
  175SAPI    HA19855   3.309   4.869   6.401 -1.9948 -2.9379 -1.7190
  175SAPI    HB19856   3.222   4.877   6.555 -2.1132  0.4999 -2.9408
  175SAPI    C219857   3.438   4.840   6.570  0.5790 -0.2159 -0.1854
  175SAPI    HS19858   3.513   4.772   6.524 -0.0164  1.0729 -3.3174
  175SAPI   O2119859   3.414   4.802   6.707  0.0883  0.2085 -0.3685
  175SAPI   C2119860   3.520   4.755   6.777  0.6210 -0.1246  0.6843
  175SAPI   O2219861   3.639   4.755   6.739  1.0229  0.0166  0.0279
  175SAPI   C2219862   3.480   4.713   6.920  0.1298 -0.5688 -0.0659
  175SAPI   H2R19863   3.491   4.810   6.974  1.1701  0.1971 -1.5853
  175SAPI   H2S19864   3.371   4.691   6.910 -0.6649  2.6328  0.1471
  175SAPI    C319865   3.503   4.977   6.558 -0.0582  0.3625 -0.2977
  175SAPI    HX19866   3.520   4.983   6.448 -2.5692 -2.5676 -0.9668
  175SAPI    HY19867   3.602   4.993   6.605  0.6219 -1.9113 -0.8499
  175SAPI   O3119868   3.418   5.085   6.603 -0.4634 -0.5501  0.4963
  175SAPI   C3119869   3.413   5.109   6.731 -0.0856 -0.3784 -0.4884
  175SAPI   O3219870   3.485   5.057   6.816  0.0987  0.2056 -0.1196
  175SAPI   C3219871   3.309   5.220   6.763  0.0550  0.0917  0.6628
  175SAPI   H2X19872   3.217   5.210   6.701 -1.2009 -0.4131  2.5271
  175SAPI   H2Y19873   3.356   5.319   6.746  1.1152  0.1075  3.2961
  175SAPI   C2319874   3.569   4.594   6.973 -0.0760 -0.3760 -0.5138
  175SAPI   H3R19875   3.678   4.616   6.972  0.4701 -2.7614  0.1978
  175SAPI   H3S19876   3.560   4.505   6.907 -0.1413 -0.4896 -0.3524
  175SAPI   C2419877   3.530   4.562   7.119 -0.5975 -0.2577 -0.1776
  175SAPI   H4R19878   3.583   4.473   7.160 -1.4223 -1.4066 -1.5340
  175SAPI   H4S19879   3.427   4.521   7.112 -0.7701  0.1941 -0.3359
  175SAPI   C2519880   3.544   4.679   7.208 -0.0627 -0.0512  0.4622
  175SAPI   H5R19881   3.485   4.768   7.183  0.9644  1.7122  3.6768
  175SAPI   C2619882   3.609   4.688   7.329  0.0606  0.2359 -0.3578
  175SAPI   H6R19883   3.609   4.781   7.388  2.8286 -0.4415  0.8458
  175SAPI   C2719884   3.689   4.578   7.401  0.5196  0.1949 -0.0057
  175SAPI   H7R19885   3.772   4.634   7.451 -1.0777  1.6524  1.1239
  175SAPI   H7S19886   3.728   4.511   7.321  3.3879  1.0177  0.5913
  175SAPI   C2819887   3.591   4.513   7.488 -0.6457  0.0966 -0.3416
  175SAPI   H8R19888   3.500   4.485   7.434  0.5401  0.3142 -2.5611
  175SAPI   C2919889   3.607   4.481   7.619 -0.2076  0.1680 -0.6665
  175SAPI   H9R19890   3.522   4.441   7.677 -0.4452  1.7783  0.1611
  175SAPI  C21019891   3.730   4.496   7.708  0.4633  0.3204 -0.3834
  175SAPI  H10R19892   3.824   4.477   7.652  0.7504 -0.2986  0.2819
  175SAPI  H10S19893   3.729   4.430   7.797  1.1697  0.0079 -0.6004
  175SAPI  C21119894   3.739   4.639   7.760 -0.8591 -0.1332  0.4563
  175SAPI  H11R19895   3.740   4.722   7.688 -1.0058  0.4780  1.1453
  175SAPI  C21219896   3.727   4.672   7.888 -0.7294  0.1332  0.5665
  175SAPI  H12R19897   3.751   4.778   7.907  1.0134 -0.4667  2.0122
  175SAPI  C21319898   3.714   4.580   8.005 -0.2804 -0.1613 -0.0293
  175SAPI  H13R19899   3.770   4.622   8.091  0.2114  1.1878 -0.9670
  175SAPI  H13S19900   3.771   4.486   7.988  0.4544 -0.0827  1.7296
  175SAPI  C21419901   3.575   4.559   8.056 -0.0580  0.1323  0.0846
  175SAPI  H14R19902   3.501   4.630   8.016 -0.1334  0.1524  0.2597
  175SAPI  C21519903   3.540   4.457   8.135 -0.2531 -0.0544  0.4745
  175SAPI  H15R19904   3.431   4.452   8.146 -0.5321 -0.3260 -1.8998
  175SAPI  C21619905   3.636   4.353   8.201 -0.4231  0.8564 -0.3897
  175SAPI  H16R19906   3.733   4.406   8.212 -0.7455  1.5814 -0.9293
  175SAPI  H16S19907   3.658   4.263   8.139 -1.2167 -0.2588  0.8958
  175SAPI  C21719908   3.594   4.318   8.347 -0.3040  0.4966  0.4807
  175SAPI  H17R19909   3.516   4.241   8.331  1.6258 -1.8632  1.7186
  175SAPI  H17S19910   3.554   4.411   8.393 -0.6400  0.6272 -0.0694
  175SAPI  C21819911   3.703   4.252   8.437  1.0548 -0.3236 -0.0126
  175SAPI  H18R19912   3.790   4.322   8.437 -0.3476  1.5207 -0.9705
  175SAPI  H18S19913   3.737   4.158   8.389  1.2860  0.1081 -0.7265
  175SAPI  C21919914   3.662   4.223   8.580 -0.6723  0.1385 -0.0000
  175SAPI  H19R19915   3.595   4.135   8.597 -0.5426 -0.0436 -0.4045
  175SAPI  H19S19916   3.593   4.305   8.609 -0.1007  0.9351 -0.8408
  175SAPI  C22019917   3.770   4.241   8.683 -0.5547 -0.0709  0.6991
  175SAPI  H20R19918   3.799   4.349   8.684 -2.6815  0.6216 -1.9179
  175SAPI  H20S19919   3.857   4.173   8.673  1.1894  2.1063  0.0478
  175SAPI  H20T19920   3.729   4.229   8.786 -1.4806  0.9960  0.4734
  175SAPI   C3319921   3.265   5.229   6.917 -0.2461  0.2168  0.5126
  175SAPI   H3X19922   3.359   5.258   6.969 -0.1659  1.0700 -0.0753
  175SAPI   H3Y19923   3.230   5.128   6.947  0.7660 -1.1479 -2.5914
  175SAPI   C3419924   3.165   5.342   6.951  0.6988  0.6982  0.3611
  175SAPI   H4X19925   3.076   5.328   6.886  1.1898  1.3314 -0.4597
  175SAPI   H4Y19926   3.206   5.439   6.916 -0.3193  0.5148 -1.4918
  175SAPI   C3519927   3.111   5.339   7.095  0.2656 -0.1994 -0.3432
  175SAPI   H5X19928   3.195   5.318   7.164 -0.7317  1.7013  1.5779
  175SAPI   H5Y19929   3.031   5.263   7.102 -1.8565  1.8263 -1.0514
  175SAPI   C3619930   3.045   5.468   7.134  0.7096 -0.4723 -0.3580
  175SAPI   H6X19931   2.969   5.499   7.059  0.0292  0.1372  0.5590
  175SAPI   H6Y19932   3.120   5.549   7.120 -0.9829  0.9770 -1.5092
  175SAPI   C3719933   2.976   5.467   7.268 -0.1288  0.0444 -0.4088
  175SAPI   H7X19934   2.897   5.389   7.256  0.2953 -0.4604  0.0400
  175SAPI   H7Y19935   2.917   5.557   7.296 -0.1675  0.0923 -0.6397
  175SAPI   C3819936   3.066   5.437   7.383 -0.2872 -0.4913  0.7655
  175SAPI   H8X19937   3.123   5.526   7.418  2.1181 -1.4866 -0.3860
  175SAPI   H8Y19938   3.149   5.365   7.366  0.3081 -0.1655  2.1221
  175SAPI   C3919939   2.986   5.390   7.504  1.0856 -0.4264 -0.1589
  175SAPI   H9X19940   2.926   5.298   7.485  2.2065 -1.3644  0.7361
  175SAPI   H9Y19941   2.909   5.469   7.519  0.3668 -0.8992 -1.2256
  175SAPI  C31019942   3.075   5.374   7.625 -0.0941  0.6507 -0.0015
  175SAPI  H10X19943   3.145   5.460   7.632 -0.2254  0.6662  1.3843
  175SAPI  H10Y19944   3.126   5.281   7.591 -0.9014  0.6902 -1.4098
  175SAPI  C31119945   2.996   5.351   7.757 -0.0073  0.0617  0.0263
  175SAPI  H11X19946   2.927   5.264   7.755  0.5830 -0.4078 -1.6570
  175SAPI  H11Y19947   2.934   5.441   7.774 -0.2037  0.2816 -1.6305
  175SAPI  C31219948   3.087   5.342   7.882  0.1863  0.2731  0.4558
  175SAPI  H12X19949   3.139   5.438   7.898 -2.5239  1.8241  0.5760
  175SAPI  H12Y19950   3.162   5.260   7.880  0.0767  0.1600  0.8572
  175SAPI  C31319951   2.999   5.324   8.019 -0.2203 -0.5826 -0.4944
  175SAPI  H13X19952   2.943   5.228   8.013  0.0171 -0.6951 -1.0068
  175SAPI  H13Y19953   2.928   5.409   8.034  2.2985  1.4364  0.8772
  175SAPI  C31419954   3.080   5.312   8.145  0.4388  0.3304 -0.0550
  175SAPI  H14X19955   3.148   5.224   8.144  0.0048 -0.0202  0.8766
  175SAPI  H14Y19956   3.009   5.287   8.226 -1.0590 -2.2363 -1.9724
  175SAPI  C31519957   3.169   5.435   8.159  0.3986  0.0552  0.9504
  175SAPI  H15X19958   3.120   5.532   8.139 -0.1097 -0.4799 -0.5184
  175SAPI  H15Y19959   3.256   5.419   8.091  0.2576 -1.5537  1.0938
  175SAPI  C31619960   3.226   5.452   8.299 -0.1960 -0.6680  0.8663
  175SAPI  H16X19961   3.314   5.521   8.301 -0.0364 -0.8801  2.5881
  175SAPI  H16Y19962   3.283   5.361   8.325 -0.3342 -1.0075 -0.0100
  175SAPI  C31719963   3.130   5.472   8.415  0.0891 -1.0538  0.2523
  175SAPI  H17X19964   3.024   5.449   8.392 -0.8344  1.9646  1.1037
  175SAPI  H17Y19965   3.136   5.581   8.433  0.5422 -1.1438  0.6604
  175SAPI  C31819966   3.175   5.404   8.540  0.3794 -0.4236  0.0761
  175SAPI  H18X19967   3.147   5.297   8.528 -2.4848  0.3172 -0.8344
  175SAPI  H18Y19968   3.113   5.443   8.623 -3.4154  0.0467 -2.6673
  175SAPI  H18Z19969   3.283   5.407   8.562  0.8560  0.1539 -2.0459
  176SAPI   C1219970   1.729   2.804   6.480  0.4256  0.2623  0.5811
  176SAPI    H219971   1.686   2.762   6.387  1.4215  0.2731  0.0973
  176SAPI    O219972   1.857   2.850   6.453 -0.1136 -0.1607 -0.5039
  176SAPI   HO219973   1.880   2.793   6.378 -0.7766 -3.3325  1.5021
  176SAPI   C1319974   1.636   2.925   6.522  0.2727  0.0644 -0.3865
  176SAPI    H319975   1.541   2.872   6.546  0.1748  0.6845  0.6739
  176SAPI    O319976   1.627   3.026   6.417 -0.2754  0.9038 -0.5524
  176SAPI   HO319977   1.536   3.051   6.398 -0.5309  0.9281  0.6181
  176SAPI   C1419978   1.687   2.974   6.657  0.4378 -0.0001 -0.7511
  176SAPI    H419979   1.790   3.015   6.649  0.6939  0.0580  1.9448
  176SAPI    O419980   1.607   3.090   6.690 -0.0157  0.0359  0.5977
  176SAPI   HO419981   1.654   3.171   6.669  1.1794 -0.4561  1.2307
  176SAPI   C1519982   1.689   2.871   6.768 -0.2925  0.3422  0.1067
  176SAPI    H519983   1.591   2.820   6.778  0.4156 -1.3268 -0.9983
  176SAPI    O519984   1.731   2.933   6.889  0.0183  0.0766  0.2008
  176SAPI   HO519985   1.661   2.994   6.914  1.4693  0.6379  3.4005
  176SAPI   C1619986   1.784   2.762   6.725  0.0549  0.3161  1.4395
  176SAPI    H619987   1.882   2.806   6.694  0.2266 -1.6740 -1.2645
  176SAPI    O619988   1.805   2.669   6.829  0.0844 -0.4613 -0.0031
  176SAPI   HO619989   1.768   2.588   6.792 -0.0697 -0.9673  1.2115
  176SAPI   C1119990   1.737   2.699   6.597 -0.1542  0.0321  0.3030
  176SAPI    H119991   1.633   2.665   6.618 -1.1201  1.6675 -1.4333
  176SAPI     P19992   1.798   2.440   6.518  0.2978 -0.4850 -0.1167
  176SAPI   O1319993   1.924   2.383   6.468  0.1990  0.4079 -0.2280
  176SAPI   O1419994   1.676   2.425   6.437  0.3843 -0.4764  0.0664
  176SAPI   O1219995   1.824   2.596   6.552 -0.3611 -0.9575 -0.2033
  176SAPI   O1119996   1.768   2.386   6.666 -0.1889  0.9467 -0.2471
  176SAPI    C119997   1.692   2.268   6.690  0.6322 -0.1929 -0.4660
  176SAPI    HA19998   1.663   2.217   6.596 -0.2207 -0.4658 -0.0707
  176SAPI    HB19999   1.738   2.198   6.763  1.9517  2.5466  1.5145
  176SAPI    C220000   1.555   2.301   6.753  0.3885  0.7703 -0.7086
  176SAPI    HS20001   1.494   2.361   6.682 -1.4762  1.1899  1.1404
  176SAPI   O2120002   1.575   2.369   6.875  0.4471 -0.1623  0.6524
  176SAPI   C2120003   1.481   2.466   6.898  0.8007 -0.4171 -0.0538
  176SAPI   O2220004   1.385   2.496   6.826  0.2849  0.7727 -0.6396
  176SAPI   C2220005   1.518   2.539   7.030 -0.0851 -0.3094 -0.1879
  176SAPI   H2R20006   1.627   2.550   7.048 -0.6111  0.7421  3.1111
  176SAPI   H2S20007   1.481   2.644   7.036  2.4187  0.7902 -2.2352
  176SAPI    C320008   1.470   2.167   6.791  0.0226 -0.1075 -0.2237
  176SAPI    HX20009   1.444   2.123   6.692 -2.7476 -0.0314  0.4031
  176SAPI    HY20010   1.375   2.192   6.842 -1.5541 -0.4672 -2.7813
  176SAPI   O3120011   1.553   2.073   6.863 -0.2457  0.1842 -0.0503
  176SAPI   C3120012   1.502   2.006   6.959  0.3886  0.6227 -0.4236
  176SAPI   O3220013   1.380   2.001   6.980 -0.7382  0.7735 -0.1807
  176SAPI   C3220014   1.612   1.954   7.056  0.5352  0.2161 -0.3525
  176SAPI   H2X20015   1.646   2.039   7.119 -0.0177 -0.2641  0.6213
  176SAPI   H2Y20016   1.697   1.924   6.992 -1.4530 -0.7459 -2.7282
  176SAPI   C2320017   1.459   2.453   7.148  0.4028 -0.0380  0.3818
  176SAPI   H3R20018   1.507   2.354   7.138 -0.7580 -0.4052 -2.9269
  176SAPI   H3S20019   1.350   2.445   7.129  0.7903 -2.3926 -1.2450
  176SAPI   C2420020   1.487   2.518   7.287 -0.1850 -0.0668 -0.2852
  176SAPI   H4R20021   1.460   2.625   7.283  1.2572  0.3593  0.6732
  176SAPI   H4S20022   1.598   2.521   7.298 -0.0097  0.3881 -1.9209
  176SAPI   C2520023   1.417   2.435   7.384 -0.4503 -0.1084  0.6916
  176SAPI   H5R20024   1.427   2.325   7.378 -4.4217 -0.5692 -0.5610
  176SAPI   C2620025   1.337   2.487   7.479  0.0266 -0.0340 -0.0992
  176SAPI   H6R20026   1.281   2.414   7.541  0.5961 -1.2066 -0.9161
  176SAPI   C2720027   1.294   2.629   7.516 -0.5015 -0.0571 -0.1484
  176SAPI   H7R20028   1.183   2.631   7.509 -0.6487 -2.0030  0.9976
  176SAPI   H7S20029   1.337   2.696   7.438  0.8094  0.0221  0.6225
  176SAPI   C2820030   1.357   2.673   7.644 -0.0670 -0.9547 -0.7528
  176SAPI   H8R20031   1.450   2.731   7.638 -1.2645  1.1327 -0.4155
  176SAPI   C2920032   1.297   2.661   7.766 -0.1782 -0.7468  0.2707
  176SAPI   H9R20033   1.352   2.686   7.858  0.2419  0.8781 -0.3876
  176SAPI  C21020034   1.165   2.597   7.797  0.2308 -0.1795  0.9562
  176SAPI  H10R20035   1.165   2.488   7.776  0.5192 -0.4086  2.1194
  176SAPI  H10S20036   1.086   2.633   7.727  0.1583 -3.6288 -0.9874
  176SAPI  C21120037   1.120   2.617   7.941 -1.1465  0.4081 -0.1804
  176SAPI  H11R20038   1.133   2.520   7.993 -1.0194 -1.2836 -3.1666
  176SAPI  C21220039   1.075   2.728   8.000  0.2533 -0.6412 -0.5129
  176SAPI  H12R20040   1.034   2.726   8.102  1.6197 -1.6660  0.0522
  176SAPI  C21320041   1.065   2.868   7.940  0.3267 -0.6371  0.0133
  176SAPI  H13R20042   1.081   2.864   7.830 -1.6848  0.4702 -0.3503
  176SAPI  H13S20043   1.148   2.935   7.972 -0.1550  0.2933 -0.6711
  176SAPI  C21420044   0.930   2.932   7.958 -0.5455 -0.0556 -1.0683
  176SAPI  H14R20045   0.852   2.886   7.895 -1.0635 -0.7973  0.0686
  176SAPI  C21520046   0.892   3.027   8.037  0.1189  0.0866  0.0385
  176SAPI  H15R20047   0.785   3.050   8.042 -0.4086 -2.0765 -0.0448
  176SAPI  C21620048   0.982   3.098   8.136 -0.2951 -0.4667  0.5155
  176SAPI  H16R20049   1.021   3.192   8.093  2.5586 -1.5699  0.4394
  176SAPI  H16S20050   1.071   3.035   8.156 -0.2592 -1.4637 -2.2976
  176SAPI  C21720051   0.928   3.126   8.281 -0.5120  0.0575 -0.4765
  176SAPI  H17R20052   0.871   3.037   8.316 -2.0234  2.1014  2.7192
  176SAPI  H17S20053   0.856   3.210   8.277 -0.3444  0.1635 -2.3408
  176SAPI  C21820054   1.042   3.158   8.386 -0.4400 -0.0262  0.1917
  176SAPI  H18R20055   1.095   3.063   8.408  0.0932 -0.2329 -1.8034
  176SAPI  H18S20056   1.001   3.189   8.485 -2.1856 -0.6511 -0.3063
  176SAPI  C21920057   1.145   3.256   8.336 -0.1818  0.0356  0.4618
  176SAPI  H19R20058   1.099   3.354   8.311 -0.5110 -0.6462 -1.9268
  176SAPI  H19S20059   1.182   3.223   8.236  0.5033  0.5930  0.5248
  176SAPI  C22020060   1.257   3.288   8.432 -0.2496  0.5945 -0.6897
  176SAPI  H20R20061   1.216   3.346   8.518  1.2021  1.2103 -0.3817
  176SAPI  H20S20062   1.339   3.340   8.378 -0.0184  1.2184  0.2317
  176SAPI  H20T20063   1.307   3.199   8.477 -1.2435  1.0395  1.4192
  176SAPI   C3320064   1.571   1.834   7.141 -0.0813 -0.2137  0.5261
  176SAPI   H3X20065   1.525   1.748   7.088  1.2661 -1.6782  1.6092
  176SAPI   H3Y20066   1.492   1.870   7.211  2.2367  0.3540  3.0268
  176SAPI   C3420067   1.689   1.778   7.220  0.2389 -0.0226  0.1862
  176SAPI   H4X20068   1.742   1.856   7.280 -1.1762  0.0328  1.4091
  176SAPI   H4Y20069   1.765   1.741   7.148 -1.6570 -0.6341 -1.5882
  176SAPI   C3520070   1.645   1.666   7.312  0.5153 -0.3093  0.0566
  176SAPI   H5X20071   1.588   1.591   7.253 -0.6224 -0.6429  1.5056
  176SAPI   H5Y20072   1.581   1.709   7.393  1.6898  0.0615  0.8121
  176SAPI   C3620073   1.754   1.596   7.382 -0.4982  0.4684 -0.0976
  176SAPI   H6X20074   1.797   1.652   7.467  0.2181  0.6661 -0.5772
  176SAPI   H6Y20075   1.833   1.581   7.305 -0.5210  1.7774 -0.3874
  176SAPI   C3720076   1.718   1.448   7.423 -0.3184 -0.1459 -0.1678
  176SAPI   H7X20077   1.813   1.414   7.469 -0.2759 -0.3831 -0.4321
  176SAPI   H7Y20078   1.690   1.383   7.338  1.6507 -0.7687 -0.3978
  176SAPI   C3820079   1.606   1.437   7.531 -0.1145  0.3991  0.6164
  176SAPI   H8X20080   1.508   1.447   7.480 -0.3643  0.4569  1.0959
  176SAPI   H8Y20081   1.628   1.524   7.597  1.4479  1.2730 -0.9887
  176SAPI   C3920082   1.612   1.316   7.616  0.1479 -0.1799  0.0890
  176SAPI   H9X20083   1.603   1.228   7.548 -0.9370  0.0151 -0.0316
  176SAPI   H9Y20084   1.523   1.324   7.682  0.2686 -1.5485  0.4504
  176SAPI  C31020085   1.732   1.312   7.698 -1.1633 -0.2440 -0.0017
  176SAPI  H10X20086   1.825   1.314   7.636 -1.8614  0.2410 -1.0599
  176SAPI  H10Y20087   1.725   1.216   7.753 -0.7779  0.1162  0.6948
  176SAPI  C31120088   1.749   1.410   7.815 -0.4313 -0.2370  1.4499
  176SAPI  H11X20089   1.644   1.436   7.841 -0.5088  1.7504 -0.5098
  176SAPI  H11Y20090   1.789   1.506   7.776 -0.9260 -0.4230  0.4378
  176SAPI  C31220091   1.831   1.359   7.928 -0.3739  0.6968 -0.2338
  176SAPI  H12X20092   1.935   1.398   7.920 -0.1935  0.0478 -1.2265
  176SAPI  H12Y20093   1.838   1.249   7.909  0.8397  0.0599  3.1878
  176SAPI  C31320094   1.768   1.362   8.070 -0.4943 -0.2228 -0.0958
  176SAPI  H13X20095   1.659   1.348   8.062 -0.4307 -1.6416  1.0329
  176SAPI  H13Y20096   1.774   1.464   8.115  2.3065 -0.9735  1.5582
  176SAPI  C31420097   1.824   1.254   8.159 -0.7304  0.0695 -0.1048
  176SAPI  H14X20098   1.933   1.240   8.145 -0.5143  0.7731  0.7448
  176SAPI  H14Y20099   1.774   1.165   8.115  0.4817  0.1442 -1.7523
  176SAPI  C31520100   1.794   1.277   8.308  0.7329  0.6670 -0.1796
  176SAPI  H15X20101   1.686   1.259   8.327  1.4280 -0.6005  3.1092
  176SAPI  H15Y20102   1.826   1.382   8.327 -0.6950  1.2258 -0.6942
  176SAPI  C31620103   1.874   1.188   8.400  0.1779  0.1979  0.0262
  176SAPI  H16X20104   1.976   1.176   8.357 -0.6421  0.2544 -2.0192
  176SAPI  H16Y20105   1.829   1.087   8.396 -0.1643  0.3386  0.3031
  176SAPI  C31720106   1.881   1.225   8.549 -0.0083  0.2063  0.0991
  176SAPI  H17X20107   1.940   1.319   8.564  2.2767 -0.9132 -1.2718
  176SAPI  H17Y20108   1.944   1.144   8.590  0.3923  0.0411 -0.8196
  176SAPI  C31820109   1.750   1.213   8.630 -0.4185  0.3027  0.3816
  176SAPI  H18X20110   1.697   1.121   8.596 -1.3229  0.7254  0.6262
  176SAPI  H18Y20111   1.689   1.302   8.604 -3.3820 -2.1165 -1.7678
  176SAPI  H18Z20112   1.769   1.204   8.739 -0.8184 -1.5433  0.3409
  177SLPC     N20113   4.096   0.020  10.911 -0.2198 -0.1832  0.2462
  177SLPC   C1320114   4.019   0.141  10.947 -0.3915 -0.1334 -0.1790
  177SLPC  H13A20115   3.951   0.163  10.866 -1.5727 -2.0787  0.2202
  177SLPC  H13B20116   3.964   0.117  11.037  0.7113 -1.6921  0.1201
  177SLPC  H13C20117   4.082   0.225  10.972  1.3926 -1.8667  1.4486
  177SLPC   C1420118   4.155  -0.045  11.033  0.0986 -0.7835  0.5219
  177SLPC  H14A20119   4.076  -0.070  11.103 -1.3390 -0.0757 -0.7718
  177SLPC  H14B20120   4.205  -0.138  11.010  0.0889 -0.4729 -0.8575
  177SLPC  H14C20121   4.220   0.023  11.086 -0.6193  0.3579 -0.0219
  177SLPC   C1520122   4.215   0.064  10.833 -0.6125 -0.7057  0.2309
  177SLPC  H15A20123   4.274  -0.019  10.798  4.1882  3.1006 -1.8902
  177SLPC  H15B20124   4.177   0.121  10.749 -1.3898 -0.7222  0.5608
  177SLPC  H15C20125   4.274   0.126  10.899 -1.1735  1.4802 -1.1749
  177SLPC   C1220126   4.012  -0.084  10.844 -0.2418 -0.7280 -0.2214
  177SLPC  H12A20127   3.951  -0.027  10.775 -0.1490  2.6719  2.2679
  177SLPC  H12B20128   3.938  -0.122  10.913  0.9092  0.3202  1.6871
  177SLPC   C1120129   4.077  -0.209  10.779 -0.3630 -0.4439  0.1536
  177SLPC  H11A20130   4.177  -0.183  10.737 -0.1122 -1.9715 -0.2586
  177SLPC  H11B20131   4.009  -0.246  10.700  0.7138 -2.1271 -0.0336
  177SLPC     P20132   3.994  -0.397  10.934 -0.7002 -0.0987  0.1169
  177SLPC   O1320133   4.023  -0.428  11.077 -0.3972  0.0821  0.3175
  177SLPC   O1420134   3.866  -0.321  10.922 -0.3290 -0.3114  0.8544
  177SLPC   O1220135   4.113  -0.312  10.874  0.0089  0.2502  0.1050
  177SLPC   O1120136   3.981  -0.527  10.854 -0.5915  0.6838  0.2229
  177SLPC    C120137   4.075  -0.619  10.795  0.0297 -0.5070  0.8261
  177SLPC    HA20138   4.127  -0.671  10.878  0.4243 -1.1485  0.1869
  177SLPC    HB20139   4.026  -0.696  10.732 -1.2585  1.3065 -0.4736
  177SLPC    C220140   4.178  -0.555  10.705  0.0022  0.3770  0.6757
  177SLPC    HS20141   4.230  -0.465  10.745  1.2201 -0.0126 -0.0005
  177SLPC   O2120142   4.105  -0.511  10.583  0.3081 -0.0769  0.3133
  177SLPC   C2120143   4.168  -0.430  10.504 -0.1399  0.1341  0.0617
  177SLPC   O2220144   4.288  -0.391  10.523 -0.1275  0.4017 -0.1426
  177SLPC   C2220145   4.075  -0.400  10.390  0.2413  0.1204 -0.5244
  177SLPC   H2R20146   4.029  -0.489  10.342 -1.0488 -0.1248  1.0582
  177SLPC   H2S20147   3.987  -0.352  10.438  0.2240 -0.3725 -0.0448
  177SLPC    C320148   4.291  -0.650  10.660 -0.1367 -0.0307  0.1163
  177SLPC    HX20149   4.354  -0.685  10.745  0.2936  1.5654  0.4881
  177SLPC    HY20150   4.357  -0.585  10.599 -0.0368 -0.7629 -0.5694
  177SLPC   O3120151   4.236  -0.763  10.591  0.2292 -0.3129 -0.1433
  177SLPC   C3120152   4.305  -0.795  10.482 -0.8365  0.2165  0.1888
  177SLPC   O3220153   4.408  -0.743  10.439  0.3374 -0.5268 -0.2659
  177SLPC   C3220154   4.225  -0.904  10.412  0.1210  0.1144  0.2935
  177SLPC   H2X20155   4.213  -0.993  10.476 -0.8200  0.6438  0.8719
  177SLPC   H2Y20156   4.282  -0.932  10.320  2.6348  1.0885  1.4616
  177SLPC   C2320157   4.131  -0.315  10.277  0.2358 -0.6103  0.0189
  177SLPC   H3R20158   4.137  -0.216  10.327 -0.9585  0.0029 -1.0077
  177SLPC   H3S20159   4.046  -0.310  10.207  0.3387  1.3294 -0.0099
  177SLPC   C2420160   4.265  -0.351  10.214  0.0623  0.1475  0.5208
  177SLPC   H4R20161   4.344  -0.341  10.292 -0.6631 -3.0565  1.8525
  177SLPC   H4S20162   4.291  -0.284  10.129 -1.0792 -0.7967 -0.6146
  177SLPC   C2520163   4.276  -0.491  10.162  0.1775  0.3437 -0.6795
  177SLPC   H5R20164   4.184  -0.520  10.107  1.4360 -0.7822 -2.2869
  177SLPC   H5S20165   4.273  -0.571  10.240 -1.5204  0.9878 -0.0223
  177SLPC   C2620166   4.387  -0.507  10.055 -0.1808 -0.7299 -0.5930
  177SLPC   H6R20167   4.485  -0.475  10.096 -0.5797 -0.0256 -0.1774
  177SLPC   H6S20168   4.370  -0.440   9.968 -2.4967  0.5171  0.7128
  177SLPC   C2720169   4.404  -0.652  10.015  0.1395 -1.2528 -0.0188
  177SLPC   H7R20170   4.307  -0.684   9.971 -0.1778  0.2574 -0.4681
  177SLPC   H7S20171   4.424  -0.708  10.109 -0.6827  0.7991  1.4535
  177SLPC   C2820172   4.522  -0.688   9.917 -0.3082 -0.6329  0.0841
  177SLPC   H8R20173   4.538  -0.798   9.918  2.7624 -0.2660  0.8971
  177SLPC   H8S20174   4.611  -0.644   9.967  0.0360 -0.9325 -0.2654
  177SLPC   C2920175   4.505  -0.609   9.783  0.4595 -0.3268 -0.6029
  177SLPC   H9R20176   4.466  -0.508   9.797  0.2938 -0.4559 -0.1275
  177SLPC  C21020177   4.534  -0.658   9.662  0.2465 -0.0878  0.4893
  177SLPC  H10R20178   4.529  -0.583   9.581  1.7541  0.8532  1.2334
  177SLPC  C21120179   4.610  -0.785   9.634 -0.3941  0.5493  0.3278
  177SLPC  H11R20180   4.709  -0.742   9.609 -0.4668  0.9932  0.7979
  177SLPC  H11S20181   4.630  -0.838   9.729  1.4749 -1.2785 -1.0037
  177SLPC  C21220182   4.569  -0.892   9.534 -0.0462  0.4563  0.7359
  177SLPC  H12R20183   4.528  -0.988   9.566  3.0922 -1.0861  0.5139
  177SLPC  C21320184   4.589  -0.881   9.401 -0.2649  0.4991  0.2100
  177SLPC  H13R20185   4.562  -0.957   9.327 -0.4815  3.7685 -3.3717
  177SLPC  C21420186   4.655  -0.766   9.323 -0.1683 -0.1824  0.1533
  177SLPC  H14R20187   4.713  -0.804   9.237 -0.8390 -2.5105  0.6540
  177SLPC  H14S20188   4.723  -0.699   9.380 -1.9874  0.1827  2.0255
  177SLPC  C21520189   4.556  -0.662   9.273  0.0723 -0.0546 -0.0413
  177SLPC  H15R20190   4.522  -0.603   9.361  0.5328  0.1853 -0.0207
  177SLPC  H15S20191   4.470  -0.719   9.230 -0.3901  0.3993  0.2756
  177SLPC  C21620192   4.622  -0.582   9.162 -0.2818 -0.4802 -0.0620
  177SLPC  H16R20193   4.731  -0.573   9.184 -0.3355  0.9926 -0.2967
  177SLPC  H16S20194   4.566  -0.486   9.158 -0.2243 -0.4688 -0.7533
  177SLPC  C21720195   4.609  -0.648   9.018  0.3089  0.1410  0.2919
  177SLPC  H17R20196   4.504  -0.683   9.004  1.4287 -2.7885 -1.7602
  177SLPC  H17S20197   4.678  -0.735   9.014 -0.0119 -0.0865 -0.4657
  177SLPC  C21820198   4.640  -0.559   8.898 -0.2347 -0.2020  0.0649
  177SLPC  H18R20199   4.599  -0.457   8.910 -0.3052  0.3019 -3.4441
  177SLPC  H18S20200   4.591  -0.596   8.805  1.8112 -1.4677 -0.5728
  177SLPC  H18T20201   4.746  -0.558   8.866 -0.8301  1.6156 -2.1161
  177SLPC   C3320202   4.080  -0.851  10.387 -0.6292  0.0651  0.3805
  177SLPC   H3X20203   4.077  -0.784  10.299  1.3306  2.1136  1.7682
  177SLPC   H3Y20204   4.040  -0.793  10.473 -1.3614  0.5100 -0.2446
  177SLPC   C3420205   3.979  -0.971  10.361 -0.3106 -0.2437  0.1381
  177SLPC   H4X20206   3.890  -0.931  10.309  0.9068  0.4268 -1.5297
  177SLPC   H4Y20207   3.943  -1.011  10.458  0.2422  0.0767  0.4831
  177SLPC   C3520208   4.028  -1.097  10.276  0.6956  0.2880  0.4385
  177SLPC   H5X20209   3.949  -1.175  10.271  0.9220 -0.0265  1.4726
  177SLPC   H5Y20210   4.114  -1.133  10.336 -0.2036  0.3515  1.8249
  177SLPC   C3620211   4.089  -1.069  10.142  0.2741  0.0223  0.2076
  177SLPC   H6X20212   4.098  -1.169  10.094  0.4744 -0.4572  1.2115
  177SLPC   H6Y20213   4.185  -1.014  10.137 -0.6494  1.6334 -0.3516
  177SLPC   C3720214   3.986  -0.996  10.058  0.0881 -0.5259  0.2212
  177SLPC   H7X20215   3.958  -0.898  10.102  0.2165 -0.5308  0.3131
  177SLPC   H7Y20216   3.895  -1.061  10.060 -0.5008  0.2965  1.1739
  177SLPC   C3820217   4.021  -0.977   9.912 -0.2834 -0.3291  0.4548
  177SLPC   H8X20218   3.953  -0.895   9.879  1.0284  1.0878  1.1676
  177SLPC   H8Y20219   3.990  -1.066   9.852  0.0215  0.2186 -0.5361
  177SLPC   C3920220   4.167  -0.948   9.867 -0.0269  0.3713  0.3837
  177SLPC   H9X20221   4.239  -1.031   9.885  2.5451  2.2732 -0.4064
  177SLPC   H9Y20222   4.200  -0.863   9.930 -0.6997  1.1456 -0.2849
  177SLPC  C31020223   4.185  -0.889   9.725  0.0987  0.0643  0.3281
  177SLPC  H10X20224   4.295  -0.873   9.730  0.2833 -1.1875  0.4692
  177SLPC  H10Y20225   4.124  -0.796   9.726 -3.5284 -2.1107 -0.2033
  177SLPC  C31120226   4.142  -0.980   9.614 -0.2951  0.4039  0.1200
  177SLPC  H11X20227   4.031  -0.974   9.611 -0.2638  2.0677  0.8562
  177SLPC  H11Y20228   4.168  -1.086   9.635 -2.5750 -0.6036 -1.6979
  177SLPC  C31220229   4.208  -0.946   9.481  0.0487 -0.1447  0.5419
  177SLPC  H12X20230   4.160  -0.994   9.393 -0.8543  0.2842  0.7959
  177SLPC  H12Y20231   4.313  -0.980   9.491  0.2710  0.7656  1.4546
  177SLPC  C31320232   4.224  -0.796   9.438  0.0123  0.4266  0.4113
  177SLPC  H13X20233   4.291  -0.799   9.349  0.8754 -0.9488  1.0674
  177SLPC  H13Y20234   4.277  -0.737   9.516 -1.4500  0.5382  1.3513
  177SLPC  C31420235   4.095  -0.728   9.402  0.6086  0.0447  0.1523
  177SLPC  H14X20236   4.064  -0.668   9.490 -0.8205 -1.3494  0.6382
  177SLPC  H14Y20237   4.013  -0.798   9.376  0.3895 -0.2236  1.4659
  177SLPC  C31520238   4.120  -0.623   9.293 -0.0940 -0.1630 -0.0527
  177SLPC  H15X20239   4.027  -0.587   9.245  0.6633  1.8280 -0.1416
  177SLPC  H15Y20240   4.176  -0.661   9.205 -0.5473 -1.5486  0.2357
  177SLPC  C31620241   4.193  -0.494   9.349 -0.7730  0.0083 -0.2869
  177SLPC  H16X20242   4.294  -0.524   9.383 -0.1248  0.0453 -2.0890
  177SLPC  H16Y20243   4.126  -0.466   9.434  0.9430 -0.9551  1.4379
  177SLPC  C31720244   4.196  -0.365   9.267  0.4179  0.2043 -0.3154
  177SLPC  H17X20245   4.095  -0.325   9.245  1.0514  2.1058  0.0800
  177SLPC  H17Y20246   4.242  -0.385   9.168  0.9385 -1.7211  0.2566
  177SLPC  C31820247   4.271  -0.254   9.341 -1.1157  0.3721  0.2172
  177SLPC  H18X20248   4.284  -0.167   9.274 -4.7376  2.2802  1.7000
  177SLPC  H18Y20249   4.365  -0.292   9.386 -1.5440 -1.4980 -0.3911
  177SLPC  H18Z20250   4.209  -0.217   9.426 -0.1003 -1.2994  1.7762
  178SLPC     N20251   4.804   1.430  11.135  0.9561  0.2733  0.0357
  178SLPC   C1320252   4.753   1.357  11.260  0.2133  0.0470 -0.2392
  178SLPC  H13A20253   4.766   1.432  11.337  1.1846  0.6816 -0.9917
  178SLPC  H13B20254   4.651   1.322  11.263  0.4436 -0.6241 -0.0132
  178SLPC  H13C20255   4.830   1.289  11.293  2.2816  3.0947  1.7289
  178SLPC   C1420256   4.835   1.327  11.030  0.3055  0.1830  0.0207
  178SLPC  H14A20257   4.750   1.266  11.001 -0.4893  0.3370  1.9279
  178SLPC  H14B20258   4.870   1.381  10.943  0.5551  0.8419  0.5297
  178SLPC  H14C20259   4.910   1.255  11.057  0.4992 -0.4398 -2.0152
  178SLPC   C1520260   4.925   1.503  11.175 -0.2006 -0.0664  0.0473
  178SLPC  H15A20261   4.961   1.539  11.080  0.2869 -0.7528 -0.0319
  178SLPC  H15B20262   4.890   1.580  11.241 -3.1599 -1.2975  0.0574
  178SLPC  H15C20263   4.997   1.435  11.218 -0.3572 -0.1960  0.1042
  178SLPC   C1220264   4.689   1.517  11.082  0.2056  0.1871 -0.4391
  178SLPC  H12A20265   4.681   1.586  11.164 -0.8069  0.9634 -1.1527
  178SLPC  H12B20266   4.592   1.469  11.071  0.8234 -1.8344  2.0675
  178SLPC   C1120267   4.710   1.604  10.948  0.5678 -0.1005  0.7014
  178SLPC  H11A20268   4.614   1.636  10.902  0.3634 -1.0632  0.4273
  178SLPC  H11B20269   4.753   1.527  10.880 -0.2326  0.5481 -0.5745
  178SLPC     P20270   4.767   1.830  11.065 -0.0363 -0.1017 -0.0746
  178SLPC   O1320271   4.743   1.771  11.199 -0.2257 -0.5529  0.0467
  178SLPC   O1420272   4.869   1.933  11.040 -0.0148  0.6132  0.1351
  178SLPC   O1220273   4.803   1.714  10.963  0.4563 -0.6177 -0.2940
  178SLPC   O1120274   4.630   1.889  11.022  0.1139 -0.0678 -0.7333
  178SLPC    C120275   4.614   1.987  10.924 -0.3632  0.7064 -0.2033
  178SLPC    HA20276   4.538   2.061  10.957 -0.4268  0.0186  1.2780
  178SLPC    HB20277   4.710   2.038  10.898 -0.6264  0.5197 -1.5999
  178SLPC    C220278   4.559   1.919  10.799 -0.4536 -0.1165  0.2594
  178SLPC    HS20279   4.612   1.821  10.797  0.6722  0.4704  0.3837
  178SLPC   O2120280   4.581   1.989  10.682  0.2340 -0.0765  0.0519
  178SLPC   C2120281   4.702   1.972  10.623 -0.0379 -0.6007  0.9772
  178SLPC   O2220282   4.786   1.898  10.651  0.3982 -0.0498 -0.1018
  178SLPC   C2220283   4.695   2.055  10.489  0.0362  0.2510 -0.5682
  178SLPC   H2R20284   4.635   1.992  10.420 -0.1343 -2.3847  1.8056
  178SLPC   H2S20285   4.639   2.150  10.503 -1.6417 -0.8323  0.5179
  178SLPC    C320286   4.402   1.909  10.819  0.2944  0.0651 -0.1871
  178SLPC    HX20287   4.354   2.009  10.829 -1.5576 -0.8078  0.0909
  178SLPC    HY20288   4.391   1.860  10.918 -0.5520  0.0320 -0.2894
  178SLPC   O3120289   4.335   1.844  10.705 -0.3812  0.1015  1.1860
  178SLPC   C3120290   4.321   1.711  10.709 -0.1671  0.0750  0.1896
  178SLPC   O3220291   4.350   1.645  10.805 -0.5394  0.1469 -0.2336
  178SLPC   C3220292   4.263   1.660  10.581 -0.1281  0.4922  0.3806
  178SLPC   H2X20293   4.170   1.604  10.605 -0.2310  1.4242  2.3770
  178SLPC   H2Y20294   4.325   1.582  10.533 -3.6314 -0.5840 -2.8807
  178SLPC   C2320295   4.827   2.096  10.441 -0.8834 -0.2953 -0.2156
  178SLPC   H3R20296   4.888   2.007  10.419 -1.4209 -0.2975 -1.7703
  178SLPC   H3S20297   4.889   2.140  10.522  0.9430 -2.1249 -0.5482
  178SLPC   C2420298   4.827   2.194  10.320  0.1641 -0.1266 -0.0009
  178SLPC   H4R20299   4.928   2.240  10.318  0.7065 -1.2565  0.4271
  178SLPC   H4S20300   4.757   2.273  10.356 -1.6890 -2.3747  1.7102
  178SLPC   C2520301   4.800   2.126  10.183  0.2382 -0.2553  0.4280
  178SLPC   H5R20302   4.699   2.081  10.193  0.4390 -0.4214  2.0490
  178SLPC   H5S20303   4.863   2.035  10.180  0.5900 -0.0706  1.6259
  178SLPC   C2620304   4.804   2.228  10.065  0.0268 -0.2988  0.4465
  178SLPC   H6R20305   4.905   2.275  10.058  0.6646 -1.4414  1.4345
  178SLPC   H6S20306   4.719   2.298  10.076 -1.3733 -1.8314 -0.3032
  178SLPC   C2720307   4.782   2.154   9.928  0.5707 -0.5669 -0.8769
  178SLPC   H7R20308   4.672   2.137   9.926  0.2840  1.0698 -0.7168
  178SLPC   H7S20309   4.842   2.061   9.921  0.1840 -0.9252  0.3425
  178SLPC   C2820310   4.841   2.243   9.814 -0.1185  0.4574 -0.4957
  178SLPC   H8R20311   4.945   2.278   9.832  0.0466 -0.8916  1.5048
  178SLPC   H8S20312   4.782   2.336   9.800 -0.7773  0.0720 -0.3143
  178SLPC   C2920313   4.830   2.185   9.677 -0.0931 -0.3810  0.2107
  178SLPC   H9R20314   4.727   2.156   9.653 -0.3916 -1.0969  2.1646
  178SLPC  C21020315   4.920   2.185   9.575  0.6130  1.0187  0.6269
  178SLPC  H10R20316   4.895   2.149   9.474  2.1271  2.1571 -0.1978
  178SLPC  C21120317   5.070   2.221   9.586  0.7886  0.4960  0.0758
  178SLPC  H11R20318   5.058   2.326   9.618 -2.0412  0.3089 -0.1354
  178SLPC  H11S20319   5.103   2.236   9.481 -1.3627  1.4870 -0.5093
  178SLPC  C21220320   5.161   2.139   9.671  0.4679 -1.1226 -0.0307
  178SLPC  H12R20321   5.113   2.090   9.757  0.8522  0.1057  0.9203
  178SLPC  C21320322   5.294   2.138   9.669 -0.6254  0.2849  0.2963
  178SLPC  H13R20323   5.345   2.062   9.730  1.3812  0.3235 -1.2049
  178SLPC  C21420324   5.387   2.200   9.566  0.1761  0.1412 -0.4863
  178SLPC  H14R20325   5.471   2.251   9.618 -0.0923 -0.8885  1.0137
  178SLPC  H14S20326   5.327   2.271   9.505  0.4803 -1.2874 -2.5817
  178SLPC  C21520327   5.444   2.108   9.461 -0.5745 -0.0168 -0.7997
  178SLPC  H15R20328   5.495   2.021   9.506 -0.3579 -1.1470 -3.0978
  178SLPC  H15S20329   5.527   2.161   9.410 -1.1563  0.6012 -1.1144
  178SLPC  C21620330   5.347   2.060   9.355  0.2801  0.5327  0.0041
  178SLPC  H16R20331   5.314   2.142   9.288  0.8311 -2.1219 -3.8541
  178SLPC  H16S20332   5.262   2.000   9.395 -0.5261  2.1255  0.7488
  178SLPC  C21720333   5.417   1.953   9.260 -0.7893 -0.5094 -1.0594
  178SLPC  H17R20334   5.457   1.887   9.340  1.3584  0.4430 -1.2887
  178SLPC  H17S20335   5.496   2.010   9.206 -1.2657 -0.7854 -2.0645
  178SLPC  C21820336   5.324   1.877   9.159 -0.0200 -0.3867 -0.0009
  178SLPC  H18R20337   5.223   1.850   9.197 -1.4321  2.6015 -1.2774
  178SLPC  H18S20338   5.379   1.798   9.104 -0.4717  0.8779 -2.4063
  178SLPC  H18T20339   5.298   1.950   9.079  2.6584  0.3463 -0.3118
  178SLPC   C3320340   4.235   1.753  10.470  0.1057 -0.5790 -0.3194
  178SLPC   H3X20341   4.326   1.796  10.424  3.0445 -1.2840  4.1802
  178SLPC   H3Y20342   4.184   1.842  10.513 -1.0914 -0.3441 -2.1184
  178SLPC   C3420343   4.146   1.692  10.368  0.7222  0.1986 -0.0430
  178SLPC   H4X20344   4.044   1.703  10.410  0.6624  0.9626 -0.3683
  178SLPC   H4Y20345   4.166   1.584  10.350  1.0447  0.2002  0.2946
  178SLPC   C3520346   4.150   1.767  10.227  0.1372 -0.7857 -0.5868
  178SLPC   H5X20347   4.247   1.772  10.174 -0.1485  1.0962 -0.9953
  178SLPC   H5Y20348   4.128   1.873  10.249 -2.1997 -1.4816  0.8539
  178SLPC   C3620349   4.054   1.700  10.130 -0.8430  0.3311  0.0831
  178SLPC   H6X20350   3.961   1.691  10.190 -0.9880 -2.6581 -0.4484
  178SLPC   H6Y20351   4.093   1.607  10.083 -2.1885  1.0477 -2.6978
  178SLPC   C3720352   4.025   1.784  10.008  0.3482 -0.1056 -0.0230
  178SLPC   H7X20353   3.994   1.884  10.045  1.1196 -0.1037  0.6606
  178SLPC   H7Y20354   3.935   1.741   9.959 -1.2740  0.1128  2.5548
  178SLPC   C3820355   4.147   1.805   9.909 -0.2408 -0.3300  0.3129
  178SLPC   H8X20356   4.178   1.705   9.872 -0.2249 -1.1682  2.4209
  178SLPC   H8Y20357   4.224   1.845   9.978 -0.6829  0.0076  0.6139
  178SLPC   C3920358   4.126   1.901   9.794  0.0269 -0.6517 -0.1520
  178SLPC   H9X20359   4.224   1.916   9.744  0.4298  0.1725  0.8461
  178SLPC   H9Y20360   4.099   1.999   9.838  0.2657 -0.4929 -0.3556
  178SLPC  C31020361   4.014   1.873   9.697  0.5478 -0.1337 -0.4119
  178SLPC  H10X20362   3.997   1.959   9.628 -0.4766 -0.3217 -0.4006
  178SLPC  H10Y20363   3.928   1.860   9.766  0.7938  1.2144  0.1782
  178SLPC  C31120364   4.044   1.743   9.619 -0.2364 -0.0196 -0.4132
  178SLPC  H11X20365   3.947   1.704   9.581 -0.1752 -2.1090  1.3661
  178SLPC  H11Y20366   4.083   1.664   9.686  0.9773  0.2325 -0.8031
  178SLPC  C31220367   4.139   1.772   9.504 -0.5124  0.3735 -0.5959
  178SLPC  H12X20368   4.243   1.804   9.529  0.2893 -2.1231 -0.4967
  178SLPC  H12Y20369   4.090   1.856   9.450  0.9639 -0.5221 -3.5325
  178SLPC  C31320370   4.139   1.656   9.400 -0.0926 -0.2689 -0.2060
  178SLPC  H13X20371   4.034   1.638   9.368 -0.1885 -0.1467  0.0323
  178SLPC  H13Y20372   4.194   1.572   9.447  1.1355  0.2157 -0.7486
  178SLPC  C31420373   4.230   1.694   9.283  0.0936 -0.5040  0.4430
  178SLPC  H14X20374   4.333   1.708   9.322 -0.2375  2.3685  0.5054
  178SLPC  H14Y20375   4.192   1.795   9.256 -0.8507 -0.6042  1.3192
  178SLPC  C31520376   4.240   1.594   9.168 -0.2519 -0.1275  0.8433
  178SLPC  H15X20377   4.137   1.583   9.129 -1.1417  2.1652  2.3919
  178SLPC  H15Y20378   4.303   1.630   9.084 -0.6923 -2.0246 -0.3748
  178SLPC  C31620379   4.308   1.462   9.208  0.8937 -0.5351 -0.3128
  178SLPC  H16X20380   4.255   1.421   9.297  1.7402 -0.1722  0.3759
  178SLPC  H16Y20381   4.410   1.497   9.234 -0.0325  0.9094  1.6229
  178SLPC  C31720382   4.320   1.367   9.097 -0.1585  0.2422 -0.2585
  178SLPC  H17X20383   4.389   1.284   9.125 -0.7050 -0.1978 -0.1898
  178SLPC  H17Y20384   4.370   1.411   9.008 -0.8399  0.6963 -0.4307
  178SLPC  C31820385   4.185   1.319   9.044 -0.3988  0.0730  0.0848
  178SLPC  H18X20386   4.200   1.224   8.990 -0.4628 -0.3651  0.8213
  178SLPC  H18Y20387   4.142   1.404   8.986 -2.7755  0.6927  2.4764
  178SLPC  H18Z20388   4.117   1.293   9.128  0.1943 -2.9450 -0.2846
  179SLPC     N20389   4.645   4.440  10.849  0.2807 -0.4742  0.2160
  179SLPC   C1320390   4.552   4.550  10.876  0.0891  0.0423 -0.0550
  179SLPC  H13A20391   4.509   4.536  10.975  0.1380  0.6067  0.0494
  179SLPC  H13B20392   4.604   4.644  10.875 -1.3991  0.8968 -0.6547
  179SLPC  H13C20393   4.476   4.557  10.799 -1.4007 -1.6094  1.1823
  179SLPC   C1420394   4.557   4.319  10.839 -0.4588  0.4351  0.6082
  179SLPC  H14A20395   4.503   4.306  10.931  0.8292 -1.2132  1.1758
  179SLPC  H14B20396   4.489   4.326  10.755  1.0887  0.8998 -0.6571
  179SLPC  H14C20397   4.627   4.239  10.822  3.3492  3.2499  1.5458
  179SLPC   C1520398   4.747   4.427  10.953 -0.1602 -0.5820 -0.3472
  179SLPC  H15A20399   4.798   4.332  10.943  0.3867 -0.3783  0.4625
  179SLPC  H15B20400   4.814   4.511  10.946 -1.1499  0.5014  2.1790
  179SLPC  H15C20401   4.706   4.432  11.053 -0.7403 -1.1096 -0.5448
  179SLPC   C1220402   4.703   4.463  10.711 -0.4141 -0.3612 -0.5641
  179SLPC  H12A20403   4.757   4.555  10.725  0.4633 -1.2118  2.3630
  179SLPC  H12B20404   4.624   4.487  10.642 -1.9518  2.0401  1.8383
  179SLPC   C1120405   4.791   4.356  10.642  0.1045  0.3062  0.3859
  179SLPC  H11A20406   4.873   4.327  10.711 -0.9902  0.2336  1.7004
  179SLPC  H11B20407   4.844   4.390  10.551  1.4569  0.9477  1.3772
  179SLPC     P20408   4.641   4.208  10.478  0.0881  0.1294  0.0315
  179SLPC   O1320409   4.617   4.064  10.455 -0.7135  0.0049  0.2918
  179SLPC   O1420410   4.524   4.300  10.468  0.2108 -0.2516 -0.1591
  179SLPC   O1220411   4.720   4.238  10.610  0.0955 -0.1115 -0.1938
  179SLPC   O1120412   4.737   4.249  10.362 -0.2910  0.0954  0.3865
  179SLPC    C120413   4.875   4.192  10.338  0.7401  0.0868 -0.4653
  179SLPC    HA20414   4.948   4.275  10.352 -1.6899  2.4717 -1.0279
  179SLPC    HB20415   4.896   4.117  10.418 -1.1907  0.8014  0.7904
  179SLPC    C220416   4.886   4.133  10.194  0.5870 -0.3663 -0.1585
  179SLPC    HS20417   4.994   4.114  10.177 -0.0644 -2.2786 -2.9105
  179SLPC   O2120418   4.844   4.223  10.088 -0.0867 -0.7688 -0.0102
  179SLPC   C2120419   4.926   4.323  10.066  0.4655  0.5211 -0.1488
  179SLPC   O2220420   5.020   4.355  10.133  0.3464 -0.1925  0.3529
  179SLPC   C2220421   4.870   4.391   9.942 -0.9949 -0.2868  0.3127
  179SLPC   H2R20422   4.849   4.319   9.859 -0.0278  0.6843 -0.8154
  179SLPC   H2S20423   4.770   4.430   9.971 -1.4165 -1.2849  0.2429
  179SLPC    C320424   4.807   4.000  10.177  0.5650  0.5590  0.0527
  179SLPC    HX20425   4.701   4.017  10.207  0.8081 -1.5179  2.4076
  179SLPC    HY20426   4.849   3.925  10.247  0.1410 -0.1627 -0.4518
  179SLPC   O3120427   4.818   3.948  10.043  0.4273 -0.0645 -0.3821
  179SLPC   C3120428   4.933   3.901  10.005  0.7291  0.1960 -0.5305
  179SLPC   O3220429   5.034   3.887  10.076 -0.1625 -0.0146  0.2395
  179SLPC   C3220430   4.925   3.861   9.855  0.8971 -0.2992 -0.7474
  179SLPC   H2X20431   4.887   3.756   9.862 -1.6654  0.6282  1.0997
  179SLPC   H2Y20432   5.027   3.850   9.814  1.3477 -2.6664  0.7804
  179SLPC   C2320433   4.937   4.523   9.885 -0.4721 -0.2238 -0.2679
  179SLPC   H3R20434   5.045   4.494   9.884 -0.4597 -0.2073  0.1268
  179SLPC   H3S20435   4.919   4.602   9.961 -3.5190 -2.2831  1.3821
  179SLPC   C2420436   4.885   4.568   9.748 -0.1010 -0.2644  0.4552
  179SLPC   H4R20437   4.919   4.668   9.715 -2.6465  0.2599 -0.8510
  179SLPC   H4S20438   4.774   4.575   9.758 -0.2698 -3.3014  1.6072
  179SLPC   C2520439   4.933   4.468   9.637  0.1403  0.2351  0.5392
  179SLPC   H5R20440   4.900   4.363   9.654  3.0366 -0.5121  2.2098
  179SLPC   H5S20441   5.043   4.466   9.627  0.2129 -2.9400  1.0081
  179SLPC   C2620442   4.871   4.498   9.492 -0.4516  0.0515  0.0056
  179SLPC   H6R20443   4.762   4.517   9.508  0.3348  3.1417  2.9912
  179SLPC   H6S20444   4.886   4.405   9.434  0.6978  0.7630 -0.8919
  179SLPC   C2720445   4.942   4.621   9.431 -0.4525  0.1588 -0.7678
  179SLPC   H7R20446   5.040   4.581   9.399 -1.0622 -1.7765 -0.3847
  179SLPC   H7S20447   4.965   4.688   9.517  2.1037  0.7527 -1.8260
  179SLPC   C2820448   4.871   4.704   9.320  0.6831  0.2895  0.2473
  179SLPC   H8R20449   4.767   4.726   9.350  0.4180 -1.1088  0.3958
  179SLPC   H8S20450   4.845   4.640   9.233  1.1673 -0.6223  0.7637
  179SLPC   C2920451   4.944   4.833   9.287  0.3402 -0.4619  0.3763
  179SLPC   H9R20452   4.954   4.904   9.371  1.0686  0.7111 -0.6706
  179SLPC  C21020453   4.991   4.871   9.167 -0.0037  0.1298  0.3038
  179SLPC  H10R20454   5.027   4.972   9.143 -1.9122  0.7194 -0.2460
  179SLPC  C21120455   4.977   4.792   9.039 -0.6048 -0.0541  0.5025
  179SLPC  H11R20456   4.998   4.864   8.957  1.4079  0.6309  1.5551
  179SLPC  H11S20457   4.876   4.750   9.019 -0.7879  0.9952 -0.8867
  179SLPC  C21220458   5.082   4.682   9.025  0.6585  0.6514 -0.6413
  179SLPC  H12R20459   5.111   4.626   9.115  0.7852 -1.1749 -1.7584
  179SLPC  C21320460   5.125   4.632   8.907 -0.3809  0.3623  0.1770
  179SLPC  H13R20461   5.201   4.554   8.918  1.6271  2.4377  2.1146
  179SLPC  C21420462   5.086   4.670   8.768 -0.2649 -0.3830  0.3855
  179SLPC  H14R20463   4.991   4.727   8.766  0.3086  0.6617  1.5039
  179SLPC  H14S20464   5.078   4.570   8.720  0.3231 -0.3375  0.1777
  179SLPC  C21520465   5.188   4.753   8.699  0.2490  0.4534 -0.1452
  179SLPC  H15R20466   5.292   4.718   8.715 -0.0104 -0.0877  0.3796
  179SLPC  H15S20467   5.192   4.851   8.751  0.2646 -0.0068  0.7428
  179SLPC  C21620468   5.163   4.783   8.547  0.5068 -0.1198 -0.1781
  179SLPC  H16R20469   5.128   4.693   8.492  1.4751 -0.8024  0.2852
  179SLPC  H16S20470   5.258   4.808   8.495 -0.1197 -2.7361 -2.8499
  179SLPC  C21720471   5.059   4.894   8.519 -1.4880  0.0297 -0.3554
  179SLPC  H17R20472   5.114   4.990   8.512  1.5921 -1.5388  0.9251
  179SLPC  H17S20473   4.987   4.892   8.603  1.8649  0.7762  2.7638
  179SLPC  C21820474   5.002   4.874   8.381  0.1128  0.0223  0.2534
  179SLPC  H18R20475   4.957   4.773   8.389  0.1455  0.0905  1.4190
  179SLPC  H18S20476   5.077   4.893   8.301 -0.3485  1.5540  0.1536
  179SLPC  H18T20477   4.917   4.944   8.365  0.8508  0.9770  0.4190
  179SLPC   C3320478   4.821   3.947   9.779 -0.0618 -0.3379  0.1602
  179SLPC   H3X20479   4.868   4.048   9.769 -2.6553  1.0360  0.8944
  179SLPC   H3Y20480   4.720   3.967   9.820  0.5409  3.7196  0.1091
  179SLPC   C3420481   4.812   3.897   9.634  0.3240  0.2613  0.6892
  179SLPC   H4X20482   4.740   3.813   9.624 -0.1895  0.8303 -0.4770
  179SLPC   H4Y20483   4.915   3.858   9.619  0.8339  1.0578  1.9350
  179SLPC   C3520484   4.786   4.009   9.532  0.0482  0.0745 -0.3375
  179SLPC   H5X20485   4.869   4.081   9.549  1.2895 -1.7027  1.5126
  179SLPC   H5Y20486   4.699   4.070   9.566 -0.4158  0.1179 -1.5411
  179SLPC   C3620487   4.785   3.976   9.381 -1.0344 -0.5857  0.2346
  179SLPC   H6X20488   4.698   3.908   9.374 -1.0083 -0.8715  2.1004
  179SLPC   H6Y20489   4.878   3.931   9.343 -1.6569 -0.1292 -1.9632
  179SLPC   C3720490   4.791   4.109   9.307  0.5851  0.7137 -0.5974
  179SLPC   H7X20491   4.846   4.197   9.348  1.5453  1.6321 -3.5326
  179SLPC   H7Y20492   4.683   4.134   9.298  0.2511 -1.1305 -2.9768
  179SLPC   C3820493   4.858   4.091   9.173  0.4737  0.5419 -0.6361
  179SLPC   H8X20494   4.848   3.982   9.157 -0.7402  0.6856 -0.9655
  179SLPC   H8Y20495   4.966   4.112   9.183  0.6562  1.5736 -3.6005
  179SLPC   C3920496   4.800   4.188   9.074 -0.4634  1.1871 -0.7828
  179SLPC   H9X20497   4.807   4.291   9.113 -0.3330  0.8866  0.0232
  179SLPC   H9Y20498   4.689   4.180   9.068 -0.7945  0.2789  3.4785
  179SLPC  C31020499   4.879   4.187   8.946  0.1455  0.4002  0.4643
  179SLPC  H10X20500   4.983   4.148   8.951  0.2031  0.2103 -1.3518
  179SLPC  H10Y20501   4.887   4.296   8.925 -2.2832  0.1893 -2.1773
  179SLPC  C31120502   4.796   4.115   8.838 -0.0067 -0.7859 -0.5304
  179SLPC  H11X20503   4.825   4.145   8.735 -1.7760  0.6661 -0.6652
  179SLPC  H11Y20504   4.688   4.140   8.845  0.3148  0.4355  0.2111
  179SLPC  C31220505   4.815   3.964   8.847  0.1599  0.0275  0.0282
  179SLPC  H12X20506   4.731   3.916   8.792  0.2139  0.2283 -0.2334
  179SLPC  H12Y20507   4.798   3.935   8.953 -0.2879  1.5512  0.3864
  179SLPC  C31320508   4.945   3.925   8.784  0.4257 -0.1561 -0.0698
  179SLPC  H13X20509   5.029   3.986   8.824  1.6613 -0.9598 -1.3246
  179SLPC  H13Y20510   4.940   3.942   8.674  1.4166 -3.9939 -0.8738
  179SLPC  C31420511   4.989   3.778   8.808 -0.1874 -0.2250  0.1314
  179SLPC  H14X20512   4.962   3.757   8.914  4.2131  0.3710  1.6060
  179SLPC  H14Y20513   5.100   3.778   8.803 -0.1673 -1.3059  0.2856
  179SLPC  C31520514   4.921   3.679   8.711 -0.4161  0.6854 -0.7181
  179SLPC  H15X20515   4.933   3.715   8.607  0.8741 -0.3380 -0.9519
  179SLPC  H15Y20516   4.813   3.693   8.730 -0.8403 -2.2986 -0.4807
  179SLPC  C31620517   4.960   3.531   8.726  0.2901 -0.7815 -0.5455
  179SLPC  H16X20518   5.071   3.524   8.728  0.3861  0.4555 -1.0349
  179SLPC  H16Y20519   4.919   3.471   8.642  0.0699 -1.3067 -0.0656
  179SLPC  C31720520   4.891   3.470   8.842  0.0657  0.2261 -0.1887
  179SLPC  H17X20521   4.784   3.455   8.817  0.1787 -2.7064  0.7205
  179SLPC  H17Y20522   4.905   3.526   8.937  1.5068 -3.7858  2.1939
  179SLPC  C31820523   4.949   3.334   8.894  0.5785  0.0963 -0.1934
  179SLPC  H18X20524   4.924   3.325   9.001  1.4527 -1.5449 -0.0988
  179SLPC  H18Y20525   5.060   3.330   8.883  0.5099 -2.7298 -0.6159
  179SLPC  H18Z20526   4.900   3.256   8.832  0.1396  1.5168 -1.6916
  180SLPC     N20527   0.758   1.855  10.979  0.4676  0.7792  0.5571
  180SLPC   C1320528   0.805   1.747  10.886 -0.6998  0.5690 -0.0886
  180SLPC  H13A20529   0.888   1.695  10.931 -1.5370  0.1274  0.9939
  180SLPC  H13B20530   0.729   1.672  10.867  1.5335 -1.5449 -1.2623
  180SLPC  H13C20531   0.843   1.785  10.792  1.9347 -0.6028  0.4064
  180SLPC   C1420532   0.858   1.958  10.985 -0.1593  0.0592  0.2644
  180SLPC  H14A20533   0.951   1.921  11.025  1.1581  3.9343  1.2041
  180SLPC  H14B20534   0.881   1.999  10.887 -0.9744  1.9191  0.8122
  180SLPC  H14C20535   0.836   2.050  11.037 -0.3776  0.9259 -1.2954
  180SLPC   C1520536   0.725   1.791  11.111 -0.4400 -0.0144  0.7520
  180SLPC  H15A20537   0.676   1.856  11.181 -0.6268  0.9717 -0.2642
  180SLPC  H15B20538   0.662   1.704  11.103  1.5233 -1.4311 -0.3726
  180SLPC  H15C20539   0.821   1.759  11.151  0.2106 -1.0389 -1.4473
  180SLPC   C1220540   0.637   1.924  10.908  0.9647 -0.2508  0.1025
  180SLPC  H12A20541   0.664   1.962  10.810  0.3814  0.9950  0.4071
  180SLPC  H12B20542   0.618   2.010  10.970 -1.7307  0.2143 -1.2229
  180SLPC   C1120543   0.503   1.842  10.895 -0.5554 -0.5318 -0.1154
  180SLPC  H11A20544   0.418   1.912  10.877 -1.7027 -2.2226 -1.5812
  180SLPC  H11B20545   0.486   1.791  10.992 -0.7048 -0.1857  0.0458
  180SLPC     P20546   0.372   1.653  10.772  0.1039  0.3789  0.0645
  180SLPC   O1320547   0.360   1.561  10.892 -0.2059  0.1148 -0.1154
  180SLPC   O1420548   0.254   1.733  10.735 -0.5979 -0.0151  0.3916
  180SLPC   O1220549   0.505   1.741  10.784  0.0636  0.2407  0.3262
  180SLPC   O1120550   0.409   1.566  10.640 -0.0319  0.0560 -0.3410
  180SLPC    C120551   0.540   1.505  10.620 -0.0090  0.0204  0.5861
  180SLPC    HA20552   0.603   1.522  10.710  0.9451  2.6285 -0.4534
  180SLPC    HB20553   0.522   1.398  10.599 -3.6952  0.4411  0.9870
  180SLPC    C220554   0.615   1.575  10.507 -0.5225 -0.0691 -0.4047
  180SLPC    HS20555   0.645   1.677  10.539  2.4713 -0.9316 -0.1859
  180SLPC   O2120556   0.534   1.565  10.389  0.5069 -0.0280 -0.9997
  180SLPC   C2120557   0.500   1.679  10.330 -0.4574  0.7690  0.1529
  180SLPC   O2220558   0.537   1.789  10.363  0.1215  0.2024 -0.4789
  180SLPC   C2220559   0.400   1.657  10.214 -0.0470 -0.3429  0.0077
  180SLPC   H2R20560   0.441   1.581  10.145 -1.2831 -3.1483  2.1428
  180SLPC   H2S20561   0.302   1.628  10.259 -0.1561 -0.6370 -0.4202
  180SLPC    C320562   0.755   1.517  10.471 -0.6524  0.3804  0.6411
  180SLPC    HX20563   0.742   1.410  10.446 -0.0103  0.5634 -0.5688
  180SLPC    HY20564   0.821   1.519  10.561  1.6708  0.7611 -0.9573
  180SLPC   O3120565   0.820   1.569  10.355 -0.1645 -0.1925 -0.4263
  180SLPC   C3120566   0.907   1.668  10.382 -0.4881 -0.1490  0.2814
  180SLPC   O3220567   0.949   1.698  10.495  0.2582  0.4262  0.2266
  180SLPC   C3220568   0.929   1.749  10.242 -0.1556  0.1422  0.2161
  180SLPC   H2X20569   0.904   1.682  10.157  0.2163 -0.3675  0.5015
  180SLPC   H2Y20570   1.039   1.764  10.238 -0.1318  0.2001  0.8851
  180SLPC   C2320571   0.384   1.797  10.149  0.2365  0.2871  0.4171
  180SLPC   H3R20572   0.353   1.869  10.227  1.5073 -0.1022  1.3207
  180SLPC   H3S20573   0.294   1.792  10.085  0.9891  0.9991 -0.7375
  180SLPC   C2420574   0.509   1.856  10.076  0.7075  0.2470 -0.1291
  180SLPC   H4R20575   0.596   1.816  10.132  1.2592 -1.3424 -2.0266
  180SLPC   H4S20576   0.491   1.966  10.075  0.5795  0.3392  2.6732
  180SLPC   C2520577   0.529   1.800   9.937  0.2123 -0.5945 -0.5951
  180SLPC   H5R20578   0.441   1.810   9.871  0.8762  2.4550 -1.1677
  180SLPC   H5S20579   0.550   1.691   9.935 -0.8827 -0.8355 -3.4165
  180SLPC   C2620580   0.634   1.877   9.855  0.1052 -0.1088  0.2368
  180SLPC   H6R20581   0.728   1.869   9.914  0.4222 -3.3012 -0.5199
  180SLPC   H6S20582   0.597   1.982   9.850  1.9774  0.6204  0.6796
  180SLPC   C2720583   0.638   1.814   9.711 -0.4065 -0.2576  0.0360
  180SLPC   H7R20584   0.537   1.833   9.671 -0.5260  1.4059  1.0577
  180SLPC   H7S20585   0.652   1.703   9.715 -0.3102 -0.3286 -1.4624
  180SLPC   C2820586   0.736   1.891   9.618  0.1759  0.8177  0.3885
  180SLPC   H8R20587   0.722   2.000   9.631 -3.6858  0.6597 -1.1459
  180SLPC   H8S20588   0.717   1.851   9.516 -2.9553 -0.5681  1.3722
  180SLPC   C2920589   0.879   1.849   9.655 -0.3294  0.1193 -1.1170
  180SLPC   H9R20590   0.886   1.831   9.764  0.2761  1.9433 -0.8117
  180SLPC  C21020591   0.985   1.830   9.580 -0.7132  0.3549  0.2333
  180SLPC  H10R20592   1.083   1.813   9.626 -1.2004  1.3141  1.6821
  180SLPC  C21120593   0.991   1.857   9.429 -0.2479 -0.3607  0.0021
  180SLPC  H11R20594   0.906   1.800   9.387 -0.6348 -1.2709  1.9132
  180SLPC  H11S20595   1.094   1.833   9.394 -0.2315  0.3278 -0.4435
  180SLPC  C21220596   0.973   1.998   9.396  0.2544 -1.0107 -0.5658
  180SLPC  H12R20597   0.973   2.066   9.482  2.3537 -1.0356 -0.4988
  180SLPC  C21320598   0.967   2.051   9.273 -0.3261  0.8130  0.4223
  180SLPC  H13R20599   0.957   2.160   9.263 -1.9853  0.7565  1.1784
  180SLPC  C21420600   0.963   1.981   9.140 -0.0817 -0.3302  0.3362
  180SLPC  H14R20601   1.043   1.905   9.149  0.2051  0.0914  1.6600
  180SLPC  H14S20602   0.996   2.057   9.066 -2.9745 -0.6168 -1.4119
  180SLPC  C21520603   0.828   1.931   9.109 -0.6158  0.1926 -0.1510
  180SLPC  H15R20604   0.740   1.990   9.141 -1.9054 -1.5850 -0.2592
  180SLPC  H15S20605   0.818   1.836   9.166  0.7362 -0.1862 -0.5019
  180SLPC  C21620606   0.805   1.887   8.963 -0.2293  0.6598 -0.2182
  180SLPC  H16R20607   0.851   1.786   8.958 -1.5809  0.0520 -0.7246
  180SLPC  H16S20608   0.862   1.956   8.897  1.7786  2.3410  2.9982
  180SLPC  C21720609   0.658   1.878   8.927  0.4292 -0.3551  0.9378
  180SLPC  H17R20610   0.612   1.979   8.913  0.4311 -0.4339  0.3332
  180SLPC  H17S20611   0.610   1.819   9.008 -0.1437 -0.3317  0.6151
  180SLPC  C21820612   0.623   1.801   8.800 -0.6242 -0.2244 -0.2600
  180SLPC  H18R20613   0.518   1.808   8.764 -0.5029  0.1665 -0.5477
  180SLPC  H18S20614   0.643   1.693   8.814 -2.5168 -0.3573  2.0068
  180SLPC  H18T20615   0.687   1.833   8.715 -1.4404 -0.7930 -1.1049
  180SLPC   C3320616   0.862   1.889  10.252  0.2344  0.1202 -0.0689
  180SLPC   H3X20617   0.874   1.930  10.354  0.5347 -2.1949  0.8879
  180SLPC   H3Y20618   0.754   1.872  10.232 -0.2246  0.7784  1.7082
  180SLPC   C3420619   0.912   1.987  10.142 -0.0239  0.5350 -0.6640
  180SLPC   H4X20620   0.917   1.927  10.048  0.6562  3.0201 -2.3320
  180SLPC   H4Y20621   1.011   2.027  10.173  0.6660 -1.3562 -0.3406
  180SLPC   C3520622   0.819   2.103  10.113 -0.2906 -0.3073 -0.2214
  180SLPC   H5X20623   0.804   2.171  10.199 -0.1669 -0.4438 -0.0928
  180SLPC   H5Y20624   0.718   2.059  10.096 -0.3461  0.3223 -1.7114
  180SLPC   C3620625   0.865   2.182   9.987  0.7120  0.1577 -1.0137
  180SLPC   H6X20626   0.778   2.250   9.970 -0.2540 -0.5701  0.7675
  180SLPC   H6Y20627   0.881   2.106   9.908 -0.8694 -1.7307  0.3743
  180SLPC   C3720628   0.993   2.265  10.004 -0.0189  0.6329  0.2326
  180SLPC   H7X20629   1.082   2.201   9.985 -0.2561  0.4265 -0.2014
  180SLPC   H7Y20630   0.997   2.311  10.105 -0.0719  1.5455 -0.1666
  180SLPC   C3820631   1.003   2.376   9.896 -0.6945  0.5021 -0.3881
  180SLPC   H8X20632   1.106   2.418   9.900 -0.3805 -0.2643 -0.4269
  180SLPC   H8Y20633   0.943   2.464   9.930  0.5837  0.6805  1.5334
  180SLPC   C3920634   0.971   2.329   9.757  0.1725 -0.4112 -0.1517
  180SLPC   H9X20635   0.866   2.292   9.747  0.7349 -1.8360 -1.1664
  180SLPC   H9Y20636   1.040   2.246   9.728 -1.3579 -1.1119 -2.0462
  180SLPC  C31020637   0.994   2.436   9.644 -0.4873 -0.0346 -0.1687
  180SLPC  H10X20638   1.095   2.480   9.656 -1.1053  1.0044  1.6375
  180SLPC  H10Y20639   0.929   2.526   9.650  1.1505  1.0784  2.9845
  180SLPC  C31120640   0.989   2.377   9.502 -0.1629  1.2222 -0.6903
  180SLPC  H11X20641   0.915   2.295   9.498  0.2817  0.7838 -0.0859
  180SLPC  H11Y20642   1.086   2.326   9.482 -1.7388 -1.9053 -0.8367
  180SLPC  C31220643   0.956   2.477   9.394 -0.2687 -0.3719  0.3751
  180SLPC  H12X20644   1.035   2.555   9.398 -1.6595  1.1693 -0.6626
  180SLPC  H12Y20645   0.857   2.527   9.399 -0.8062 -1.4413  0.5845
  180SLPC  C31320646   0.978   2.423   9.252 -0.0232  0.2829 -0.0283
  180SLPC  H13X20647   0.909   2.338   9.232 -0.2358 -0.3595  3.0048
  180SLPC  H13Y20648   1.082   2.384   9.264 -1.3923 -3.6705  0.6563
  180SLPC  C31420649   0.985   2.521   9.131  0.3624  0.1203 -0.9250
  180SLPC  H14X20650   1.071   2.591   9.141  0.2019  0.9847 -4.3734
  180SLPC  H14Y20651   0.892   2.579   9.117  0.0356 -0.6876 -2.3050
  180SLPC  C31520652   1.021   2.455   9.001  0.1517  0.4268 -0.2452
  180SLPC  H15X20653   0.931   2.403   8.961  0.1679  1.0835 -1.1811
  180SLPC  H15Y20654   1.103   2.384   9.025 -0.4616 -0.2571 -0.1538
  180SLPC  C31620655   1.085   2.549   8.901  0.5325 -0.3935 -0.5363
  180SLPC  H16X20656   1.122   2.639   8.956 -2.1719  1.9536 -2.3025
  180SLPC  H16Y20657   1.023   2.587   8.818  0.5665 -1.1424 -0.9125
  180SLPC  C31720658   1.198   2.486   8.827  0.2449 -0.4899  0.2462
  180SLPC  H17X20659   1.168   2.399   8.765  1.1109 -0.2453 -0.5375
  180SLPC  H17Y20660   1.266   2.435   8.899  0.6267 -1.5125 -0.8067
  180SLPC  C31820661   1.280   2.584   8.743 -0.3624 -0.3279  0.1458
  180SLPC  H18X20662   1.224   2.621   8.654  1.4703  2.7589  0.1483
  180SLPC  H18Y20663   1.370   2.531   8.706 -0.5828  0.0106 -0.9284
  180SLPC  H18Z20664   1.311   2.671   8.804 -0.2129  1.6694 -2.5760
  181SLPC     N20665   4.838   2.465  11.111 -0.7984 -0.2495 -0.2590
  181SLPC   C1320666   4.916   2.362  11.028 -0.1411 -1.0253  0.8237
  181SLPC  H13A20667   4.842   2.298  10.983  0.0795 -0.4753 -0.3570
  181SLPC  H13B20668   4.980   2.412  10.956 -0.3799  1.6563  2.3128
  181SLPC  H13C20669   4.969   2.295  11.094 -0.0312 -0.5728  1.2042
  181SLPC   C1420670   4.761   2.550  11.011 -0.8516  0.5783 -0.5175
  181SLPC  H14A20671   4.728   2.636  11.068 -0.7020  0.4862 -0.2942
  181SLPC  H14B20672   4.822   2.581  10.927  0.0213  0.2762 -0.0062
  181SLPC  H14C20673   4.681   2.486  10.978  1.4586 -1.5171 -2.4619
  181SLPC   C1520674   4.952   2.541  11.174 -0.1320  0.0243 -0.3528
  181SLPC  H15A20675   5.016   2.486  11.241  0.1630 -1.3733 -1.7030
  181SLPC  H15B20676   5.024   2.565  11.097  1.2792  0.0781  0.9433
  181SLPC  H15C20677   4.915   2.631  11.220 -2.5699  0.3288 -2.6553
  181SLPC   C1220678   4.756   2.383  11.213 -0.3240 -0.2925  0.7337
  181SLPC  H12A20679   4.710   2.458  11.275 -0.2780 -1.3374  2.0615
  181SLPC  H12B20680   4.826   2.329  11.274  1.3710 -1.9544 -2.4334
  181SLPC   C1120681   4.643   2.302  11.164  0.1996  0.5790  0.4570
  181SLPC  H11A20682   4.589   2.256  11.249  0.6358 -0.6737  0.0688
  181SLPC  H11B20683   4.680   2.223  11.096 -1.0845  1.3836 -1.2471
  181SLPC     P20684   4.454   2.490  11.149  0.0038 -0.5838  0.2730
  181SLPC   O1320685   4.401   2.444  11.278 -0.2109  0.5499  0.5350
  181SLPC   O1420686   4.516   2.626  11.143 -0.2011 -0.5379  0.6365
  181SLPC   O1220687   4.553   2.385  11.083 -0.7411  0.2988  0.5034
  181SLPC   O1120688   4.331   2.484  11.045 -0.0616  0.0358  0.2117
  181SLPC    C120689   4.306   2.530  10.917 -0.2413 -0.0712  0.1597
  181SLPC    HA20690   4.197   2.541  10.901  0.0650  0.3078 -2.0395
  181SLPC    HB20691   4.349   2.631  10.896 -1.2125  0.0561 -1.2823
  181SLPC    C220692   4.375   2.437  10.811  0.7301 -0.0028  0.1166
  181SLPC    HS20693   4.476   2.415  10.851  0.0910  0.9569  2.3840
  181SLPC   O2120694   4.372   2.490  10.673 -0.6396  0.3671 -0.7376
  181SLPC   C2120695   4.493   2.529  10.634 -0.0407  0.0781 -0.2093
  181SLPC   O2220696   4.597   2.510  10.695  0.0605  0.0589 -0.0748
  181SLPC   C2220697   4.476   2.606  10.509 -0.3736  0.8161 -0.1076
  181SLPC   H2R20698   4.411   2.555  10.436  2.4800 -1.4863 -1.2428
  181SLPC   H2S20699   4.429   2.702  10.542 -2.0357 -0.0200  0.0378
  181SLPC    C320700   4.302   2.298  10.814  0.5852 -0.3996 -0.0904
  181SLPC    HX20701   4.191   2.300  10.809  0.5958 -1.1438 -0.7361
  181SLPC    HY20702   4.326   2.242  10.908  2.7478 -1.4023 -1.1645
  181SLPC   O3120703   4.347   2.223  10.702  0.0206 -0.3166 -0.2879
  181SLPC   C3120704   4.270   2.233  10.589 -0.1694  0.5550  0.0585
  181SLPC   O3220705   4.159   2.283  10.586  0.3107 -0.1041 -0.1622
  181SLPC   C3220706   4.352   2.169  10.469  0.5773 -0.5798 -0.5640
  181SLPC   H2X20707   4.363   2.061  10.492  1.1350 -0.1949  1.0899
  181SLPC   H2Y20708   4.452   2.217  10.469  0.2076  0.2682  1.2444
  181SLPC   C2320709   4.608   2.624  10.434  0.3282 -0.0016  0.4289
  181SLPC   H3R20710   4.647   2.521  10.419 -1.2586 -0.7401  1.1378
  181SLPC   H3S20711   4.685   2.678  10.493  1.0069  0.1665 -0.5786
  181SLPC   C2420712   4.585   2.682  10.296  0.6771  0.2805 -0.0382
  181SLPC   H4R20713   4.681   2.703  10.244  0.6392 -2.0026 -1.1574
  181SLPC   H4S20714   4.526   2.776  10.304  0.4142 -0.0212  2.0777
  181SLPC   C2520715   4.511   2.598  10.193 -0.3325 -0.2353 -0.9921
  181SLPC   H5R20716   4.400   2.596  10.202 -0.3997 -2.5658 -1.8943
  181SLPC   H5S20717   4.537   2.491  10.190 -0.4010 -0.2722 -0.4630
  181SLPC   C2620718   4.541   2.657  10.049 -0.1811  0.0973  0.0607
  181SLPC   H6R20719   4.650   2.674  10.037  0.6821 -4.0762  0.5641
  181SLPC   H6S20720   4.488   2.754  10.034 -0.3060  0.2509  1.4117
  181SLPC   C2720721   4.514   2.552   9.941  0.1551 -0.4025 -0.8536
  181SLPC   H7R20722   4.408   2.518   9.949  0.2696 -1.1794 -2.2349
  181SLPC   H7S20723   4.575   2.461   9.963  0.4657  0.2240  1.0347
  181SLPC   C2820724   4.523   2.606   9.797 -0.3081  0.1599 -0.4671
  181SLPC   H8R20725   4.467   2.701   9.800  0.2739  0.5306  3.0078
  181SLPC   H8S20726   4.482   2.528   9.729  2.6618 -1.1832 -0.8850
  181SLPC   C2920727   4.659   2.641   9.744 -1.1240 -0.5373 -0.3492
  181SLPC   H9R20728   4.722   2.687   9.821 -3.7407 -1.0478  2.2834
  181SLPC  C21020729   4.714   2.615   9.623  0.2856 -0.0525  0.3300
  181SLPC  H10R20730   4.812   2.660   9.602  0.1659 -0.1191 -0.3816
  181SLPC  C21120731   4.644   2.546   9.507 -0.2612  0.4320 -0.3482
  181SLPC  H11R20732   4.536   2.531   9.524 -0.3974  0.4738 -1.1366
  181SLPC  H11S20733   4.686   2.444   9.497  2.3258  1.4965 -1.2932
  181SLPC  C21220734   4.676   2.627   9.384  0.9787 -0.1184  0.6791
  181SLPC  H12R20735   4.783   2.628   9.359  0.4026 -0.6799 -2.1992
  181SLPC  C21320736   4.578   2.680   9.301 -0.6148  0.1379  0.5779
  181SLPC  H13R20737   4.613   2.748   9.222  0.2267 -1.3225 -0.3533
  181SLPC  C21420738   4.432   2.668   9.305  0.4080  0.4171 -0.0206
  181SLPC  H14R20739   4.381   2.766   9.300  0.9655  0.6845 -0.4613
  181SLPC  H14S20740   4.394   2.636   9.405  1.4438 -1.1247 -0.0713
  181SLPC  C21520741   4.381   2.581   9.193  0.3368 -0.1484  0.1696
  181SLPC  H15R20742   4.270   2.579   9.192  0.3072 -0.9859  1.8536
  181SLPC  H15S20743   4.431   2.482   9.193 -0.7767 -0.7376  0.5282
  181SLPC  C21620744   4.414   2.636   9.054 -0.1894  0.0767 -0.4678
  181SLPC  H16R20745   4.514   2.594   9.030  1.8910  2.6791  2.7319
  181SLPC  H16S20746   4.430   2.745   9.068  0.2071  0.0616 -0.7953
  181SLPC  C21720747   4.313   2.612   8.947  0.1991 -0.1460 -0.3180
  181SLPC  H17R20748   4.213   2.660   8.956 -0.7439 -2.0076 -0.3580
  181SLPC  H17S20749   4.294   2.506   8.920 -0.4238  0.2733 -1.6470
  181SLPC  C21820750   4.374   2.662   8.816 -0.1949 -0.1722  0.6106
  181SLPC  H18R20751   4.313   2.748   8.780  0.8625 -0.1390 -1.2123
  181SLPC  H18S20752   4.375   2.580   8.740  0.9625  1.0058 -0.6874
  181SLPC  H18T20753   4.480   2.691   8.823  0.2599 -1.1018 -1.4934
  181SLPC   C3320754   4.299   2.186  10.329  0.3383  0.3708  0.4752
  181SLPC   H3X20755   4.288   2.296  10.315  0.3318  0.5960  2.0911
  181SLPC   H3Y20756   4.206   2.138  10.292 -1.1206  3.3777 -0.0444
  181SLPC   C3420757   4.398   2.125  10.231  0.2822 -0.0969  0.0650
  181SLPC   H4X20758   4.441   2.026  10.255 -0.3745 -1.1151 -2.5424
  181SLPC   H4Y20759   4.482   2.198  10.229  1.5228 -1.4696  0.1234
  181SLPC   C3520760   4.353   2.119  10.081 -0.3737 -0.5099  0.0905
  181SLPC   H5X20761   4.243   2.103  10.076 -0.2559 -1.5382  0.4690
  181SLPC   H5Y20762   4.402   2.032  10.032 -0.7374 -1.1960  0.9230
  181SLPC   C3620763   4.364   2.259  10.011  0.0779 -0.0107  0.2784
  181SLPC   H6X20764   4.462   2.308  10.028 -0.7407  1.5711  0.6351
  181SLPC   H6Y20765   4.300   2.336  10.058  1.2675 -0.6728  3.1852
  181SLPC   C3720766   4.321   2.256   9.863  0.5884 -0.5372 -0.1438
  181SLPC   H7X20767   4.311   2.365   9.842  4.5887  0.0773  0.4623
  181SLPC   H7Y20768   4.221   2.210   9.845  0.1628  0.2893  0.0289
  181SLPC   C3820769   4.414   2.188   9.762 -0.0306 -0.5541  0.2722
  181SLPC   H8X20770   4.411   2.078   9.776 -2.4585 -0.3532  1.9318
  181SLPC   H8Y20771   4.518   2.227   9.756 -0.3360  0.1665 -0.8185
  181SLPC   C3920772   4.360   2.210   9.611 -0.4602  0.5157  0.2412
  181SLPC   H9X20773   4.388   2.311   9.574  0.1728  0.4577  0.5371
  181SLPC   H9Y20774   4.250   2.194   9.618 -0.1684 -2.1221  0.1010
  181SLPC  C31020775   4.425   2.102   9.518 -0.0044 -0.1084  0.5003
  181SLPC  H10X20776   4.404   2.003   9.564  3.3928 -0.1331  2.2974
  181SLPC  H10Y20777   4.534   2.117   9.510 -0.1781  0.6827 -0.5970
  181SLPC  C31120778   4.370   2.100   9.374 -0.7579  0.9032 -0.0553
  181SLPC  H11X20779   4.268   2.055   9.378 -0.4680  0.2905  0.4981
  181SLPC  H11Y20780   4.434   2.033   9.313  0.2698  1.3706  0.4927
  181SLPC  C31220781   4.377   2.237   9.300 -0.4049  0.5003 -0.0499
  181SLPC  H12X20782   4.474   2.285   9.323  0.8031 -2.4796  1.6432
  181SLPC  H12Y20783   4.312   2.304   9.360 -0.4445 -0.2386  0.7550
  181SLPC  C31320784   4.336   2.224   9.152  0.5353  0.7554  0.1324
  181SLPC  H13X20785   4.412   2.165   9.097 -1.6730 -0.1543 -2.1046
  181SLPC  H13Y20786   4.331   2.324   9.104  1.1967  0.5149 -0.4547
  181SLPC  C31420787   4.199   2.159   9.116  0.0312 -0.1125  0.3676
  181SLPC  H14X20788   4.120   2.233   9.145  0.6307  0.5800  0.2670
  181SLPC  H14Y20789   4.183   2.068   9.177  1.2649 -0.5314  0.0936
  181SLPC  C31520790   4.197   2.107   8.970  0.5874  0.1722 -0.1803
  181SLPC  H15X20791   4.270   2.025   8.952 -0.0373 -0.0033 -2.2164
  181SLPC  H15Y20792   4.232   2.180   8.894  0.4786 -0.6445 -1.0336
  181SLPC  C31620793   4.052   2.079   8.920 -0.4189 -0.4383 -0.2226
  181SLPC  H16X20794   4.073   2.054   8.814  1.1488 -0.0538 -0.0325
  181SLPC  H16Y20795   3.983   2.166   8.930 -1.8602 -1.3715 -1.5608
  181SLPC  C31720796   3.989   1.956   8.992  0.0791 -0.0035 -0.8086
  181SLPC  H17X20797   3.936   1.989   9.083 -3.1628 -0.8661 -2.2404
  181SLPC  H17Y20798   4.070   1.882   9.010 -1.2746 -1.5699 -0.9501
  181SLPC  C31820799   3.867   1.905   8.916 -0.4178 -0.1398 -0.5960
  181SLPC  H18X20800   3.792   1.986   8.902  1.5505  1.6353 -1.5275
  181SLPC  H18Y20801   3.818   1.823   8.973  0.2617  0.6197  1.1746
  181SLPC  H18Z20802   3.907   1.870   8.819  0.7606  3.5066 -1.5883
  182SLPC     N20803   1.840   0.201  11.232 -0.2225 -0.3799  0.0001
  182SLPC   C1320804   1.855   0.285  11.359  1.0047  0.0521  1.0177
  182SLPC  H13A20805   1.760   0.308  11.404 -0.0824 -1.8939 -0.1225
  182SLPC  H13B20806   1.898   0.216  11.430  0.6956 -0.9797  0.2391
  182SLPC  H13C20807   1.901   0.380  11.337  0.0188  0.3655  0.2428
  182SLPC   C1420808   1.797   0.062  11.269  0.0861 -0.0552 -0.4001
  182SLPC  H14A20809   1.784   0.014  11.174 -0.1131  0.6531 -0.7343
  182SLPC  H14B20810   1.882   0.014  11.316 -0.3295 -0.6100 -0.1958
  182SLPC  H14C20811   1.710   0.053  11.333 -0.4599  0.7259 -1.0288
  182SLPC   C1520812   1.977   0.190  11.170  0.1663 -0.5946 -0.2200
  182SLPC  H15A20813   2.031   0.126  11.238 -0.6713 -1.9084 -0.7454
  182SLPC  H15B20814   1.974   0.147  11.071 -1.9415 -0.0395 -0.4458
  182SLPC  H15C20815   2.025   0.285  11.156  0.5828 -0.9681 -1.3813
  182SLPC   C1220816   1.742   0.265  11.139 -0.1475 -0.0023 -0.7156
  182SLPC  H12A20817   1.657   0.253  11.204  1.7008 -0.5131  1.7223
  182SLPC  H12B20818   1.735   0.208  11.047 -2.4954  1.1074 -1.2863
  182SLPC   C1120819   1.771   0.404  11.091 -0.6742 -0.6035 -0.5957
  182SLPC  H11A20820   1.870   0.416  11.043 -0.4205  0.8953  0.2361
  182SLPC  H11B20821   1.783   0.469  11.180 -2.6880  0.8740 -1.3185
  182SLPC     P20822   1.633   0.411  10.868 -0.1835 -0.1789 -0.2128
  182SLPC   O1320823   1.608   0.267  10.865 -0.0214  0.1911  0.2821
  182SLPC   O1420824   1.540   0.509  10.805  0.2147 -0.4437 -0.5713
  182SLPC   O1220825   1.661   0.458  11.017  0.4444 -0.1354  0.9773
  182SLPC   O1120826   1.779   0.443  10.811  0.2587 -0.3261  0.0811
  182SLPC    C120827   1.818   0.566  10.748  0.2573 -0.0828  0.1093
  182SLPC    HA20828   1.743   0.595  10.671  0.8947 -2.6962 -1.6480
  182SLPC    HB20829   1.826   0.641  10.829 -1.0789 -2.3870  2.5433
  182SLPC    C220830   1.964   0.553  10.685  0.0910  0.0854 -0.2362
  182SLPC    HS20831   1.976   0.643  10.621 -0.3389 -0.7759 -1.5728
  182SLPC   O2120832   1.959   0.433  10.613 -0.3699 -0.0701 -0.0358
  182SLPC   C2120833   1.893   0.424  10.497 -0.1275  0.6118 -0.1849
  182SLPC   O2220834   1.846   0.520  10.434  0.1357 -0.3128  0.3862
  182SLPC   C2220835   1.871   0.276  10.459 -0.9796 -0.1781 -0.0817
  182SLPC   H2R20836   1.966   0.225  10.485 -0.9760 -1.4039 -2.3145
  182SLPC   H2S20837   1.783   0.243  10.518  0.2663  1.5183  3.0067
  182SLPC    C320838   2.078   0.556  10.787  0.1339  0.3813 -0.6452
  182SLPC    HX20839   2.084   0.463  10.847 -0.3224 -0.8466 -2.4362
  182SLPC    HY20840   2.059   0.641  10.856  1.7712 -0.8971  1.5134
  182SLPC   O3120841   2.202   0.582  10.718  0.3822 -0.1108  0.2614
  182SLPC   C3120842   2.259   0.470  10.676  0.5189  0.0728 -0.5978
  182SLPC   O3220843   2.212   0.362  10.698 -0.1939  0.7336 -0.4143
  182SLPC   C3220844   2.381   0.513  10.599  0.7259 -0.4649  0.0789
  182SLPC   H2X20845   2.441   0.430  10.557 -0.9471 -1.8792  0.3600
  182SLPC   H2Y20846   2.446   0.564  10.674  0.1589 -2.3722  1.9743
  182SLPC   C2320847   1.855   0.267  10.307  0.1928 -0.1232 -0.1542
  182SLPC   H3R20848   1.779   0.339  10.269 -0.3286 -2.3125 -3.6664
  182SLPC   H3S20849   1.806   0.168  10.295  2.6444 -1.2512 -1.6519
  182SLPC   C2420850   1.981   0.267  10.218 -0.1341 -0.8437  0.0026
  182SLPC   H4R20851   2.036   0.171  10.227  0.1110 -0.7398 -0.3730
  182SLPC   H4S20852   2.051   0.347  10.248 -0.9662  0.3272 -1.0543
  182SLPC   C2520853   1.938   0.298  10.071  0.4336  0.1796  0.9179
  182SLPC   H5R20854   2.031   0.315  10.011 -0.0918 -2.7825 -0.9983
  182SLPC   H5S20855   1.871   0.386  10.072  0.2385  0.1291 -1.5364
  182SLPC   C2620856   1.871   0.172  10.006 -0.3554  0.6682  0.0895
  182SLPC   H6R20857   1.803   0.129  10.082  0.3437 -0.7235 -0.0575
  182SLPC   H6S20858   1.952   0.099   9.988  0.1878  0.9822  1.1880
  182SLPC   C2720859   1.789   0.196   9.875 -0.3530  0.0724 -0.3477
  182SLPC   H7R20860   1.707   0.267   9.898 -0.1738 -0.0204  0.6015
  182SLPC   H7S20861   1.736   0.103   9.847  0.3905  0.2988 -2.8000
  182SLPC   C2820862   1.881   0.260   9.773  0.4104 -0.3953  0.4388
  182SLPC   H8R20863   1.979   0.209   9.762  0.8037  0.1090  1.4985
  182SLPC   H8S20864   1.905   0.365   9.799 -2.2858  0.5799 -0.5943
  182SLPC   C2920865   1.822   0.270   9.634 -0.2672  0.4124  0.1385
  182SLPC   H9R20866   1.725   0.322   9.637 -0.1586  0.6814 -0.7850
  182SLPC  C21020867   1.873   0.238   9.509  0.0743 -0.7310 -0.1075
  182SLPC  H10R20868   1.806   0.247   9.423 -0.6567  0.0692  0.5222
  182SLPC  C21120869   2.013   0.183   9.483  0.4048 -0.2998 -0.1646
  182SLPC  H11R20870   1.999   0.086   9.430 -1.9681 -0.8494  1.3095
  182SLPC  H11S20871   2.069   0.169   9.578  0.6934  0.6543 -0.1809
  182SLPC  C21220872   2.084   0.300   9.408  0.1363  0.3812 -0.0591
  182SLPC  H12R20873   2.149   0.367   9.467 -0.3347 -0.7702  1.8540
  182SLPC  C21320874   2.094   0.309   9.274 -0.3211  0.1921  0.7912
  182SLPC  H13R20875   2.135   0.404   9.236  0.0590  0.3934  1.6994
  182SLPC  C21420876   2.035   0.221   9.170 -0.1480  0.7029  0.6033
  182SLPC  H14R20877   1.952   0.277   9.122 -1.5090 -0.1542  1.8721
  182SLPC  H14S20878   1.983   0.131   9.208 -2.3398  1.1298 -1.1959
  182SLPC  C21520879   2.134   0.154   9.066  0.1750  0.7341  1.7394
  182SLPC  H15R20880   2.193   0.069   9.107 -0.0039 -0.0983  0.3260
  182SLPC  H15S20881   2.218   0.219   9.034 -0.0786 -0.0773 -0.8042
  182SLPC  C21620882   2.052   0.115   8.933  1.0815 -0.5080  0.0792
  182SLPC  H16R20883   1.983   0.201   8.918 -0.0335 -1.3464  0.3037
  182SLPC  H16S20884   1.996   0.023   8.958  0.0998  0.0938  0.1467
  182SLPC  C21720885   2.134   0.110   8.806 -0.7583 -0.5883 -0.3189
  182SLPC  H17R20886   2.172   0.210   8.779  0.3593 -0.7445  0.5733
  182SLPC  H17S20887   2.065   0.074   8.727 -0.5330 -0.2047 -0.6946
  182SLPC  C21820888   2.257   0.019   8.813 -0.5972  0.3798 -0.2801
  182SLPC  H18R20889   2.235  -0.089   8.829 -0.1227  0.2398 -0.5501
  182SLPC  H18S20890   2.323   0.062   8.891  2.5309 -1.0658 -1.9533
  182SLPC  H18T20891   2.322   0.029   8.724  0.4419 -0.2427  0.3909
  182SLPC   C3320892   2.356   0.603  10.473 -0.2940 -0.4397 -0.8956
  182SLPC   H3X20893   2.452   0.646  10.439  1.0671 -2.4467  0.1841
  182SLPC   H3Y20894   2.291   0.688  10.503 -0.8121 -1.4357  0.9706
  182SLPC   C3420895   2.301   0.516  10.353 -0.6400 -0.3642  0.0771
  182SLPC   H4X20896   2.202   0.555  10.321  0.4850  2.6308 -0.1456
  182SLPC   H4Y20897   2.300   0.411  10.389  0.6379  0.2071  1.9089
  182SLPC   C3520898   2.399   0.512  10.233  0.1164 -0.3582 -0.5167
  182SLPC   H5X20899   2.488   0.463  10.279 -1.5819 -2.0555  1.1227
  182SLPC   H5Y20900   2.418   0.618  10.205 -1.7658  0.5983  1.4795
  182SLPC   C3620901   2.347   0.431  10.112  0.0049  0.0607 -0.4486
  182SLPC   H6X20902   2.250   0.473  10.080  0.3347  0.4018 -1.0100
  182SLPC   H6Y20903   2.321   0.325  10.132 -0.5561  0.4061  0.7862
  182SLPC   C3720904   2.440   0.452   9.996  0.2044 -0.3934 -0.3432
  182SLPC   H7X20905   2.543   0.422  10.025 -0.5074 -1.6142  1.0631
  182SLPC   H7Y20906   2.452   0.560   9.975 -0.5139 -0.2406  0.0095
  182SLPC   C3820907   2.390   0.390   9.863  0.4047  0.6079 -0.3029
  182SLPC   H8X20908   2.286   0.425   9.844 -0.4460 -0.9014  1.2701
  182SLPC   H8Y20909   2.389   0.281   9.884  0.7452  0.8973  1.3550
  182SLPC   C3920910   2.477   0.432   9.747  0.0691  0.2235  0.4272
  182SLPC   H9X20911   2.585   0.416   9.771  0.1199  0.6638  0.5087
  182SLPC   H9Y20912   2.450   0.537   9.720  1.4591 -0.0088 -2.3213
  182SLPC  C31020913   2.436   0.348   9.618 -1.2543 -0.0231 -0.0647
  182SLPC  H10X20914   2.328   0.353   9.592 -1.4307 -1.5931  0.2747
  182SLPC  H10Y20915   2.465   0.241   9.628 -0.3055  0.2303 -0.0643
  182SLPC  C31120916   2.528   0.390   9.497 -0.3786 -1.2937  0.1979
  182SLPC  H11X20917   2.631   0.368   9.531  0.8407  1.1749 -1.6295
  182SLPC  H11Y20918   2.509   0.499   9.496 -1.8475 -1.5226  0.4063
  182SLPC  C31220919   2.487   0.317   9.371 -0.3730  0.0088 -0.1567
  182SLPC  H12X20920   2.384   0.347   9.343 -0.3096  0.2644 -0.1202
  182SLPC  H12Y20921   2.479   0.207   9.388 -0.0339 -0.1048 -0.7037
  182SLPC  C31320922   2.589   0.332   9.257  0.4849 -0.5781  0.8671
  182SLPC  H13X20923   2.694   0.333   9.293 -0.0980 -0.7626  2.6728
  182SLPC  H13Y20924   2.562   0.431   9.215  1.3893 -0.4871  0.4875
  182SLPC  C31420925   2.561   0.229   9.143 -0.3375  0.0157 -0.6912
  182SLPC  H14X20926   2.451   0.222   9.129 -0.9548 -0.3562  3.3037
  182SLPC  H14Y20927   2.581   0.123   9.169 -0.3838 -0.0650 -0.9782
  182SLPC  C31520928   2.644   0.257   9.017  0.5658 -0.0526  0.1489
  182SLPC  H15X20929   2.750   0.284   9.039  1.7891 -5.0157  1.5274
  182SLPC  H15Y20930   2.603   0.337   8.952 -0.7652  0.4642  1.5647
  182SLPC  C31620931   2.654   0.129   8.936 -0.1384  0.4234  0.0868
  182SLPC  H16X20932   2.555   0.081   8.951 -0.6917  1.3654 -0.4786
  182SLPC  H16Y20933   2.724   0.052   8.975 -0.0304 -0.1679 -1.2217
  182SLPC  C31720934   2.678   0.154   8.792 -0.0449  0.2009 -0.0653
  182SLPC  H17X20935   2.595   0.219   8.758  0.6146  2.1497  1.7730
  182SLPC  H17Y20936   2.670   0.057   8.738  0.1340  2.0002 -3.6110
  182SLPC  C31820937   2.814   0.214   8.764  0.3385 -0.0710  0.4602
  182SLPC  H18X20938   2.823   0.301   8.832  1.9801 -1.1598  1.7016
  182SLPC  H18Y20939   2.829   0.251   8.660 -0.5502  2.2785  1.1241
  182SLPC  H18Z20940   2.889   0.140   8.800 -0.3511 -1.0937 -0.1402
  183SLPC     N20941   3.089   0.298  11.343  0.0476  0.6483 -0.7034
  183SLPC   C1320942   3.102   0.149  11.372 -0.0811  0.2617  0.8174
  183SLPC  H13A20943   3.176   0.103  11.309 -2.8287 -0.9535 -1.7823
  183SLPC  H13B20944   3.120   0.136  11.478  3.6503 -0.0856  0.2546
  183SLPC  H13C20945   3.024   0.080  11.341  0.2005 -0.5541  1.8542
  183SLPC   C1420946   3.219   0.362  11.378  0.5147  0.6625  0.5808
  183SLPC  H14A20947   3.260   0.341  11.476 -2.2246  0.9409  1.8610
  183SLPC  H14B20948   3.297   0.332  11.310 -1.7891 -1.1779 -1.3950
  183SLPC  H14C20949   3.201   0.469  11.382 -0.1772  0.6013 -0.5924
  183SLPC   C1520950   2.997   0.362  11.436  0.1766  0.8022 -0.7074
  183SLPC  H15A20951   2.903   0.311  11.451  0.3709  0.4277 -0.7407
  183SLPC  H15B20952   3.033   0.372  11.537  0.3840  0.4574 -0.7464
  183SLPC  H15C20953   2.975   0.455  11.386 -0.0527  1.1771  0.0635
  183SLPC   C1220954   3.038   0.321  11.208  0.3683 -0.8657  0.2125
  183SLPC  H12A20955   2.959   0.252  11.183 -2.5923  2.0868  0.7909
  183SLPC  H12B20956   3.113   0.287  11.138  0.8561 -0.8105  0.6994
  183SLPC   C1120957   2.977   0.460  11.160  0.4736  0.2217  0.2805
  183SLPC  H11A20958   2.884   0.479  11.217 -0.7119 -1.0647 -1.1292
  183SLPC  H11B20959   2.937   0.454  11.056 -0.7122  1.7480  0.6130
  183SLPC     P20960   3.190   0.588  11.058 -0.5882 -0.0310  0.2643
  183SLPC   O1320961   3.214   0.733  11.045  0.0819 -0.2711 -0.6617
  183SLPC   O1420962   3.303   0.501  11.090 -0.0058 -0.2613 -0.0916
  183SLPC   O1220963   3.071   0.565  11.162  0.7010 -0.1075  0.1511
  183SLPC   O1120964   3.125   0.531  10.928  0.0002  0.0474  0.0947
  183SLPC    C120965   3.025   0.616  10.865 -0.0846  0.2685  0.0837
  183SLPC    HA20966   2.939   0.639  10.930 -0.3981  3.2678 -1.2111
  183SLPC    HB20967   3.055   0.718  10.834 -0.8609 -0.0283 -1.7840
  183SLPC    C220968   2.972   0.554  10.735 -0.3631  0.4208 -0.2533
  183SLPC    HS20969   2.955   0.448  10.764  3.0099  0.1239  1.0770
  183SLPC   O2120970   3.076   0.569  10.639  0.3816  0.3215 -0.0412
  183SLPC   C2120971   3.079   0.477  10.544 -0.6521  0.2629  0.4937
  183SLPC   O2220972   3.015   0.376  10.548 -0.0853  0.4740  0.6865
  183SLPC   C2220973   3.182   0.519  10.438 -0.3999  0.1201  0.0093
  183SLPC   H2R20974   3.149   0.603  10.374 -0.9116 -0.9667 -1.1990
  183SLPC   H2S20975   3.273   0.564  10.484  0.1052  1.1102 -1.8219
  183SLPC    C320976   2.848   0.618  10.680  0.6766  0.4902  0.0786
  183SLPC    HX20977   2.759   0.601  10.744  0.5899  1.7175  0.3023
  183SLPC    HY20978   2.822   0.577  10.580  0.9992 -3.2432  1.3518
  183SLPC   O3120979   2.857   0.762  10.677  0.0763 -0.5663  0.1499
  183SLPC   C3120980   2.863   0.819  10.559  1.0257  0.1908  0.0715
  183SLPC   O3220981   2.861   0.761  10.452 -0.0758  0.1111 -0.2405
  183SLPC   C3220982   2.867   0.971  10.593 -0.1879 -0.3917 -0.4036
  183SLPC   H2X20983   2.908   0.984  10.695 -0.0611  2.0521 -0.7073
  183SLPC   H2Y20984   2.761   1.001  10.609 -0.7205 -1.9676 -0.8337
  183SLPC   C2320985   3.225   0.399  10.344 -0.6027 -0.4559  0.6337
  183SLPC   H3R20986   3.141   0.349  10.290 -1.0184  0.5934  0.2769
  183SLPC   H3S20987   3.274   0.321  10.406 -1.5069 -2.6920 -1.2921
  183SLPC   C2420988   3.336   0.426  10.246 -0.6113 -0.0833 -0.0342
  183SLPC   H4R20989   3.350   0.329  10.193  2.3075 -1.1255  2.3762
  183SLPC   H4S20990   3.434   0.451  10.292 -1.6549  1.5216  1.4366
  183SLPC   C2520991   3.299   0.532  10.139 -0.0799  0.1830 -0.5051
  183SLPC   H5R20992   3.294   0.633  10.183 -1.0639  0.0569 -0.3097
  183SLPC   H5S20993   3.201   0.498  10.100 -1.9398  1.6875  2.5126
  183SLPC   C2620994   3.412   0.553  10.029  0.3844  0.1799  0.0009
  183SLPC   H6R20995   3.438   0.462   9.971 -1.9610  0.1846 -1.1923
  183SLPC   H6S20996   3.506   0.586  10.077 -0.2958 -0.7795  2.1003
  183SLPC   C2720997   3.364   0.654   9.925  0.1232  0.8087 -0.4034
  183SLPC   H7R20998   3.378   0.753   9.973  1.3597  1.6843 -2.4596
  183SLPC   H7S20999   3.258   0.622   9.913  0.1984  0.6966 -0.7602
  183SLPC   C2821000   3.434   0.651   9.792  0.6911 -0.3229  0.6164
  183SLPC   H8R21001   3.457   0.546   9.767 -2.6474 -0.8222 -0.8302
  183SLPC   H8S21002   3.526   0.712   9.786  1.4411 -1.6030 -2.7335
  183SLPC   C2921003   3.347   0.711   9.688 -0.0931  0.6951  0.2398
  183SLPC   H9R21004   3.246   0.740   9.720 -1.0489 -1.5730 -0.4926
  183SLPC  C21021005   3.374   0.700   9.551 -0.4754  0.1249  0.2564
  183SLPC  H10R21006   3.301   0.746   9.482 -1.8693 -2.2502  0.0305
  183SLPC  C21121007   3.498   0.637   9.484  0.1390 -0.1112  0.1642
  183SLPC  H11R21008   3.588   0.665   9.542  0.7284 -1.2381 -0.1871
  183SLPC  H11S21009   3.507   0.681   9.382 -0.5463  0.7586  0.4670
  183SLPC  C21221010   3.482   0.493   9.453  0.6421  0.7912  0.8635
  183SLPC  H12R21011   3.390   0.445   9.490  1.5714 -3.0083 -1.1930
  183SLPC  C21321012   3.548   0.408   9.373 -0.7595 -0.2954 -0.4834
  183SLPC  H13R21013   3.514   0.306   9.350 -1.6085  0.0280 -0.6906
  183SLPC  C21421014   3.673   0.452   9.297 -0.2081 -0.2061 -0.4662
  183SLPC  H14R21015   3.731   0.361   9.275 -0.9823 -1.2520  1.5620
  183SLPC  H14S21016   3.730   0.517   9.367  2.0283 -2.9934  0.4579
  183SLPC  C21521017   3.642   0.525   9.172 -0.0643  0.1782  0.8634
  183SLPC  H15R21018   3.625   0.633   9.190 -1.0383  0.8677 -3.2062
  183SLPC  H15S21019   3.558   0.486   9.110  0.2630  1.4841 -0.4577
  183SLPC  C21621020   3.765   0.527   9.074  0.1243 -0.1574 -0.3245
  183SLPC  H16R21021   3.860   0.537   9.132  1.7239  1.7105 -3.0170
  183SLPC  H16S21022   3.765   0.626   9.024  4.1442  1.2683  1.9858
  183SLPC  C21721023   3.770   0.411   8.975  0.0306  0.2296  0.0522
  183SLPC  H17R21024   3.679   0.412   8.910 -1.4723  0.6513  2.0774
  183SLPC  H17S21025   3.777   0.310   9.019 -0.3437  0.2464  0.1589
  183SLPC  C21821026   3.890   0.427   8.884 -0.0666  0.2921 -0.1182
  183SLPC  H18R21027   3.888   0.353   8.802  1.1287  2.1383 -1.8846
  183SLPC  H18S21028   3.988   0.418   8.936  0.7351  0.4720 -1.5679
  183SLPC  H18T21029   3.884   0.527   8.838 -1.5643 -0.8319 -2.5433
  183SLPC   C3321030   2.933   1.061  10.484  0.3099 -0.6215  0.5865
  183SLPC   H3X21031   3.024   1.016  10.438 -1.3981 -1.0430 -2.6495
  183SLPC   H3Y21032   2.955   1.150  10.547 -5.9408  0.5615  1.7481
  183SLPC   C3421033   2.828   1.119  10.384  0.9776 -0.3275 -0.0163
  183SLPC   H4X21034   2.746   1.177  10.431  2.7064  0.6717  1.9386
  183SLPC   H4Y21035   2.788   1.029  10.334  1.7793  0.0127 -1.3270
  183SLPC   C3521036   2.882   1.204  10.268  0.1791  0.5012  0.0917
  183SLPC   H5X21037   2.980   1.170  10.227  0.4033 -1.4608  2.0598
  183SLPC   H5Y21038   2.882   1.311  10.297 -0.8925  0.3345  0.7619
  183SLPC   C3621039   2.780   1.195  10.151  0.3105 -0.1188  0.3933
  183SLPC   H6X21040   2.678   1.225  10.183  0.7658  0.0369  1.7880
  183SLPC   H6Y21041   2.773   1.090  10.116 -0.4133  0.3448 -0.9096
  183SLPC   C3721042   2.827   1.267  10.026 -0.0744 -0.0362  0.4101
  183SLPC   H7X21043   2.924   1.227   9.989 -0.2834  0.2222 -0.4528
  183SLPC   H7Y21044   2.830   1.377  10.041 -0.0394  0.0228 -0.0207
  183SLPC   C3821045   2.746   1.236   9.898  0.0979 -0.1773  0.4541
  183SLPC   H8X21046   2.644   1.280   9.897  0.3174  0.3905 -1.6449
  183SLPC   H8Y21047   2.739   1.126   9.884 -0.3201 -0.0909 -0.0224
  183SLPC   C3921048   2.804   1.302   9.768  0.4371 -0.2372 -0.5562
  183SLPC   H9X21049   2.911   1.275   9.762  0.6829  0.9331 -4.6910
  183SLPC   H9Y21050   2.805   1.413   9.770  1.0901 -0.1512 -2.6433
  183SLPC  C31021051   2.737   1.258   9.640 -0.4298 -0.4712  1.0462
  183SLPC  H10X21052   2.635   1.302   9.651 -0.9013 -1.5530  1.0400
  183SLPC  H10Y21053   2.743   1.148   9.642  0.8161 -0.4249  0.3376
  183SLPC  C31121054   2.815   1.316   9.523  0.3303 -0.0775  0.2105
  183SLPC  H11X21055   2.920   1.290   9.546  0.0920 -1.4690 -0.2041
  183SLPC  H11Y21056   2.815   1.427   9.526 -0.0770 -0.0870  0.6493
  183SLPC  C31221057   2.767   1.268   9.387 -0.5241  0.6307  0.1672
  183SLPC  H12X21058   2.659   1.293   9.375 -0.1686  1.6444 -1.2518
  183SLPC  H12Y21059   2.775   1.158   9.375 -0.5433  0.7728 -1.2534
  183SLPC  C31321060   2.839   1.338   9.270 -0.9113 -0.5347  0.5234
  183SLPC  H13X21061   2.950   1.331   9.277 -1.0698 -3.0005  1.3499
  183SLPC  H13Y21062   2.810   1.445   9.263  3.0255  0.6734  0.0643
  183SLPC  C31421063   2.817   1.284   9.127  0.4230  0.8119 -0.1667
  183SLPC  H14X21064   2.709   1.284   9.103  0.0804  0.4250  1.2821
  183SLPC  H14Y21065   2.843   1.177   9.117  0.0100  0.7212 -0.2620
  183SLPC  C31521066   2.873   1.371   9.008 -0.3835  0.8660  0.5803
  183SLPC  H15X21067   2.841   1.473   9.037 -0.3476  1.0513 -0.0279
  183SLPC  H15Y21068   2.835   1.345   8.907  2.1461 -0.1061 -0.2009
  183SLPC  C31621069   3.024   1.366   8.998  0.0123 -0.2356 -0.3061
  183SLPC  H16X21070   3.046   1.257   8.995 -2.4398 -0.7723 -1.3652
  183SLPC  H16Y21071   3.070   1.412   9.088 -1.4244 -0.5252  0.6141
  183SLPC  C31721072   3.075   1.429   8.868 -0.7147 -0.3960  0.4225
  183SLPC  H17X21073   3.036   1.532   8.880 -2.6514 -1.2270  1.7122
  183SLPC  H17Y21074   3.035   1.380   8.777  0.9931  3.6451 -2.8691
  183SLPC  C31821075   3.224   1.438   8.868 -0.4503 -0.8821 -0.0428
  183SLPC  H18X21076   3.264   1.509   8.944  2.1375 -3.0261  0.7569
  183SLPC  H18Y21077   3.249   1.480   8.768 -2.0983  1.9673  0.6274
  183SLPC  H18Z21078   3.278   1.342   8.884  2.1924  0.4948 -0.2560
  184SLPC     N21079   3.175   4.178  11.276 -0.6033  0.1154 -0.3602
  184SLPC   C1321080   3.261   4.074  11.346  0.7015 -0.1462  0.0781
  184SLPC  H13A21081   3.260   3.980  11.291 -1.0547  1.3951 -2.7955
  184SLPC  H13B21082   3.357   4.109  11.380  1.1697  0.9620 -2.1547
  184SLPC  H13C21083   3.206   4.053  11.436 -0.4660  1.1667 -0.2944
  184SLPC   C1421084   3.152   4.288  11.368  0.6651  0.1163  0.5589
  184SLPC  H14A21085   3.139   4.252  11.468  0.3578  2.0048  1.2330
  184SLPC  H14B21086   3.238   4.353  11.377  0.3515  0.1809  4.3331
  184SLPC  H14C21087   3.067   4.347  11.337 -0.0379 -1.1270  0.0180
  184SLPC   C1521088   3.045   4.120  11.247 -0.7242 -0.8314  0.6727
  184SLPC  H15A21089   2.995   4.187  11.178 -0.8124 -1.3066  0.2653
  184SLPC  H15B21090   3.041   4.020  11.207  0.9669 -0.7269  0.1969
  184SLPC  H15C21091   2.974   4.119  11.328  1.2188  0.5253  2.4899
  184SLPC   C1221092   3.246   4.219  11.144  0.0115  0.0109 -0.0628
  184SLPC  H12A21093   3.242   4.135  11.075  1.3954  0.1294 -0.3196
  184SLPC  H12B21094   3.351   4.238  11.163 -0.1606  0.4290  0.4770
  184SLPC   C1121095   3.189   4.343  11.070  0.5167  0.7974  0.1286
  184SLPC  H11A21096   3.254   4.364  10.982  0.6275 -1.0815 -0.2810
  184SLPC  H11B21097   3.184   4.438  11.127  0.6615  1.5405 -1.0475
  184SLPC     P21098   2.942   4.418  10.994  0.1289 -0.2901  0.1126
  184SLPC   O1321099   2.854   4.373  10.887  0.5857  0.3003  0.4742
  184SLPC   O1421100   2.892   4.460  11.124 -0.6233  0.6926 -0.1543
  184SLPC   O1221101   3.054   4.310  11.016 -0.2900  0.6165  0.5054
  184SLPC   O1121102   3.021   4.537  10.943  0.1531  0.0783 -0.0600
  184SLPC    C121103   3.105   4.536  10.823 -0.2740  0.2097  0.1596
  184SLPC    HA21104   3.192   4.603  10.841 -0.4217 -0.0237  1.9644
  184SLPC    HB21105   3.139   4.434  10.795  0.2035 -0.4288  2.7946
  184SLPC    C221106   3.033   4.593  10.696  0.2680 -0.6659 -0.6521
  184SLPC    HS21107   2.975   4.508  10.654  2.4226 -1.6301 -1.8480
  184SLPC   O2121108   3.125   4.650  10.604 -0.0096  0.0359  0.4024
  184SLPC   C2121109   3.199   4.562  10.550  0.5775  0.0356 -0.0471
  184SLPC   O2221110   3.200   4.440  10.571 -0.0472 -0.2338 -0.0357
  184SLPC   C2221111   3.305   4.637  10.462 -0.1141  0.0991  0.0422
  184SLPC   H2R21112   3.272   4.743  10.456  0.1639  0.2948  1.5699
  184SLPC   H2S21113   3.400   4.626  10.519 -0.6227 -0.3299  0.8168
  184SLPC    C321114   2.945   4.722  10.739  0.3253  0.0556  0.6436
  184SLPC    HX21115   3.010   4.793  10.795  2.0368  0.3601 -1.5593
  184SLPC    HY21116   2.867   4.684  10.808  1.1295  0.9171  2.0671
  184SLPC   O3121117   2.882   4.787  10.623 -0.2572  0.3330 -0.6011
  184SLPC   C3121118   2.784   4.876  10.660 -0.4043  0.0482  0.5036
  184SLPC   O3221119   2.757   4.916  10.773 -0.2288  0.4549  0.3722
  184SLPC   C3221120   2.706   4.929  10.532 -0.2966  0.1217  0.5712
  184SLPC   H2X21121   2.792   4.956  10.467  0.6110 -2.1171  0.7382
  184SLPC   H2Y21122   2.645   5.021  10.549 -1.4646 -0.1292 -1.8600
  184SLPC   C2321123   3.310   4.582  10.323  0.1477 -0.7887  0.3080
  184SLPC   H3R21124   3.212   4.592  10.270  0.5145  1.2452 -0.0967
  184SLPC   H3S21125   3.340   4.475  10.324 -1.1966 -1.1901  1.9002
  184SLPC   C2421126   3.404   4.667  10.241 -0.7932  0.6366  0.2222
  184SLPC   H4R21127   3.510   4.641  10.261 -0.4020  3.2735  2.1707
  184SLPC   H4S21128   3.395   4.775  10.265 -0.3016  1.1484 -1.6767
  184SLPC   C2521129   3.384   4.636  10.088  0.4403 -0.3670 -1.1099
  184SLPC   H5R21130   3.284   4.677  10.062  0.3276  0.0081 -0.1035
  184SLPC   H5S21131   3.383   4.526  10.094 -0.4329 -0.3212 -0.2554
  184SLPC   C2621132   3.494   4.705  10.000  0.0014 -0.1612  0.7583
  184SLPC   H6R21133   3.595   4.664  10.023  0.3080 -0.3480 -0.8096
  184SLPC   H6S21134   3.491   4.812  10.032  2.1995  0.5226 -1.0642
  184SLPC   C2721135   3.471   4.683   9.856 -0.7610 -0.5094  0.8748
  184SLPC   H7R21136   3.367   4.711   9.828  0.1206  2.3545  0.1555
  184SLPC   H7S21137   3.502   4.578   9.833  1.2453  0.0058  1.0307
  184SLPC   C2821138   3.540   4.797   9.774  0.0016 -0.0803  0.3265
  184SLPC   H8R21139   3.501   4.897   9.802 -2.2431 -0.5327 -1.0021
  184SLPC   H8S21140   3.503   4.774   9.672  2.3140 -2.8221 -0.0153
  184SLPC   C2921141   3.688   4.797   9.765 -0.3228  1.1714  0.5119
  184SLPC   H9R21142   3.744   4.815   9.858  1.1583 -1.5244  0.2511
  184SLPC  C21021143   3.757   4.778   9.651 -0.2826 -0.2403 -0.0944
  184SLPC  H10R21144   3.867   4.769   9.649 -0.0733  1.7504 -0.2429
  184SLPC  C21121145   3.693   4.763   9.514  0.5493  0.4230 -0.4208
  184SLPC  H11R21146   3.595   4.814   9.503 -0.1104 -0.8822 -0.8123
  184SLPC  H11S21147   3.671   4.656   9.496 -0.7656  0.6070 -0.0512
  184SLPC  C21221148   3.803   4.806   9.419  1.0019 -0.5943  0.3553
  184SLPC  H12R21149   3.906   4.772   9.436  0.8624 -2.5663 -2.2028
  184SLPC  C21321150   3.773   4.887   9.314  0.1082  1.1610 -0.4244
  184SLPC  H13R21151   3.857   4.913   9.248  1.9728 -1.9537  0.5142
  184SLPC  C21421152   3.642   4.939   9.261  0.3031 -0.3995 -0.0392
  184SLPC  H14R21153   3.602   5.022   9.322 -0.8522 -2.1359  1.6810
  184SLPC  H14S21154   3.567   4.858   9.273 -0.4679  0.5573  2.0880
  184SLPC  C21521155   3.637   4.977   9.112 -0.5891 -0.2722 -0.3186
  184SLPC  H15R21156   3.714   5.056   9.102 -0.7114  0.0315  1.0327
  184SLPC  H15S21157   3.535   5.019   9.096  0.0275  1.4813  0.2121
  184SLPC  C21621158   3.671   4.867   9.012  0.0815 -0.3503 -0.6265
  184SLPC  H16R21159   3.588   4.794   9.006  1.4503 -2.0150  0.0139
  184SLPC  H16S21160   3.765   4.816   9.042 -1.5098 -1.8785  2.1953
  184SLPC  C21721161   3.689   4.911   8.867  0.2776 -0.0471  0.4383
  184SLPC  H17R21162   3.782   4.971   8.856  0.0806  0.1401 -0.2404
  184SLPC  H17S21163   3.609   4.973   8.822  1.4429 -0.3582 -2.2905
  184SLPC  C21821164   3.713   4.793   8.767  0.1325 -0.5240  0.4286
  184SLPC  H18R21165   3.613   4.758   8.734  0.7110 -4.2904  2.1436
  184SLPC  H18S21166   3.771   4.709   8.812 -3.8843 -3.2170  1.0990
  184SLPC  H18T21167   3.759   4.839   8.677 -2.4186  0.3205 -0.5362
  184SLPC   C3321168   2.620   4.814  10.468 -0.4673  0.2916 -0.6232
  184SLPC   H3X21169   2.530   4.793  10.530 -1.1164 -3.4816 -2.5858
  184SLPC   H3Y21170   2.676   4.719  10.477 -0.7767 -0.0372 -1.9876
  184SLPC   C3421171   2.583   4.826  10.329  0.3180 -0.8058  0.3139
  184SLPC   H4X21172   2.520   4.916  10.314  0.8730 -0.6210 -1.1107
  184SLPC   H4Y21173   2.507   4.750  10.301 -1.8560  1.9803 -2.0052
  184SLPC   C3521174   2.690   4.812  10.224  0.3883 -0.4320  0.1490
  184SLPC   H5X21175   2.725   4.708  10.209  2.1684  0.4448 -2.6120
  184SLPC   H5Y21176   2.783   4.863  10.257  1.0601  0.7854 -3.2212
  184SLPC   C3621177   2.646   4.867  10.089 -0.0074  0.0072  0.3854
  184SLPC   H6X21178   2.653   4.977  10.099 -2.3551  0.1448  1.1905
  184SLPC   H6Y21179   2.542   4.840  10.060 -0.3434  0.6952  0.9293
  184SLPC   C3721180   2.735   4.814   9.972  0.0586  0.1511  0.1030
  184SLPC   H7X21181   2.743   4.704   9.983  2.0911  0.2846  0.4854
  184SLPC   H7Y21182   2.833   4.862   9.996 -0.3332  0.0693  2.0002
  184SLPC   C3821183   2.691   4.853   9.834  0.1846  0.7524 -0.2264
  184SLPC   H8X21184   2.758   4.934   9.799  0.6835  1.2156  1.6731
  184SLPC   H8Y21185   2.583   4.878   9.825  0.1157  0.9108  0.8739
  184SLPC   C3921186   2.724   4.739   9.735 -0.4946 -0.2808 -0.0687
  184SLPC   H9X21187   2.675   4.644   9.765  1.2017 -1.4394 -0.8395
  184SLPC   H9Y21188   2.834   4.723   9.741 -0.7938 -2.0139  2.0267
  184SLPC  C31021189   2.693   4.766   9.591  0.1648 -0.2570  0.1607
  184SLPC  H10X21190   2.595   4.815   9.573  0.1448 -0.2471  0.2952
  184SLPC  H10Y21191   2.688   4.669   9.538  1.5125  0.1474 -0.7672
  184SLPC  C31121192   2.801   4.844   9.514 -0.0527  0.7464  0.4092
  184SLPC  H11X21193   2.901   4.799   9.530 -0.6708 -0.4573  1.1095
  184SLPC  H11Y21194   2.812   4.946   9.557  0.1049  0.2837  1.5003
  184SLPC  C31221195   2.788   4.847   9.367 -0.0890 -1.1422  0.0947
  184SLPC  H12X21196   2.681   4.877   9.359  0.3953  1.0873  1.1504
  184SLPC  H12Y21197   2.804   4.749   9.319 -1.4339 -0.8868 -0.9524
  184SLPC  C31321198   2.876   4.942   9.289 -0.6671 -0.5567  0.3214
  184SLPC  H13X21199   2.977   4.924   9.331 -1.9331 -0.5549  3.6937
  184SLPC  H13Y21200   2.857   5.049   9.310  0.7521 -0.2055 -0.0702
  184SLPC  C31421201   2.853   4.937   9.137  0.0817 -0.2072 -0.7657
  184SLPC  H14X21202   2.748   4.964   9.113 -0.0600  0.0380  0.0989
  184SLPC  H14Y21203   2.869   4.834   9.099  2.8834 -0.1734  0.0446
  184SLPC  C31521204   2.951   5.030   9.066  0.1255 -0.5040 -0.3810
  184SLPC  H15X21205   3.052   5.012   9.110  1.0665  0.9483 -1.8380
  184SLPC  H15Y21206   2.922   5.136   9.083  1.3155 -0.5535  2.7260
  184SLPC  C31621207   2.954   5.017   8.909 -0.3149  0.7383  0.4086
  184SLPC  H16X21208   3.000   4.918   8.890  0.1950  1.0334  0.0894
  184SLPC  H16Y21209   3.020   5.100   8.877 -0.6984  0.6972 -0.5098
  184SLPC  C31721210   2.823   5.030   8.834 -0.3444  0.2711  0.1191
  184SLPC  H17X21211   2.797   5.138   8.844  3.6927  1.4017  0.3856
  184SLPC  H17Y21212   2.748   4.970   8.889  0.1409 -1.1853 -0.7575
  184SLPC  C31821213   2.819   4.989   8.685  0.4662 -0.1394  0.7138
  184SLPC  H18X21214   2.882   4.903   8.652  0.5192 -0.9999  2.8743
  184SLPC  H18Y21215   2.856   5.081   8.635 -1.1918  0.0559 -0.2381
  184SLPC  H18Z21216   2.714   4.978   8.650  0.9846  1.0599 -1.4057
  185SLPC     N21217   2.197   3.453   6.328  0.4100  0.1037 -0.1442
  185SLPC   C1321218   2.141   3.493   6.203  0.4133 -0.0056 -0.8539
  185SLPC  H13A21219   2.121   3.409   6.137  3.2037 -0.3015 -1.4142
  185SLPC  H13B21220   2.042   3.534   6.219  0.1742 -0.4858 -1.0688
  185SLPC  H13C21221   2.196   3.570   6.152  0.0945  1.4148  0.8412
  185SLPC   C1421222   2.317   3.375   6.308 -0.9061 -0.1974 -0.0937
  185SLPC  H14A21223   2.283   3.276   6.282 -1.3252  0.2453 -1.3412
  185SLPC  H14B21224   2.369   3.413   6.221  0.5747  2.3181  1.7646
  185SLPC  H14C21225   2.381   3.371   6.394  0.4955  0.9037 -1.0467
  185SLPC   C1521226   2.108   3.377   6.419 -0.7920 -0.4762  0.1138
  185SLPC  H15A21227   2.157   3.366   6.514  0.0824  1.0497 -0.1243
  185SLPC  H15B21228   2.015   3.429   6.441 -0.5110  0.3948 -0.7007
  185SLPC  H15C21229   2.074   3.287   6.371  1.1306 -1.4569  0.5244
  185SLPC   C1221230   2.235   3.584   6.399 -0.0923  0.3912 -0.2659
  185SLPC  H12A21231   2.265   3.553   6.498 -1.9646  0.2278  0.2925
  185SLPC  H12B21232   2.142   3.634   6.425  0.9250  1.8252  0.8033
  185SLPC   C1121233   2.354   3.673   6.348  0.1328 -0.5856 -0.5339
  185SLPC  H11A21234   2.323   3.733   6.260 -1.6565  0.0354  0.4908
  185SLPC  H11B21235   2.442   3.614   6.313  2.2112  1.8680  0.1958
  185SLPC     P21236   2.519   3.729   6.542 -0.2289  0.1305 -0.5079
  185SLPC   O1321237   2.619   3.642   6.469  0.0720  0.1453  0.0782
  185SLPC   O1421238   2.571   3.856   6.589 -0.5275  0.1627 -0.3119
  185SLPC   O1221239   2.393   3.758   6.455  0.4301  0.2333  0.0538
  185SLPC   O1121240   2.470   3.646   6.673  0.2323  0.3820 -0.3716
  185SLPC    C121241   2.567   3.615   6.782  0.0977  0.1404  0.4157
  185SLPC    HA21242   2.600   3.510   6.772 -2.3227 -0.5624 -1.5343
  185SLPC    HB21243   2.659   3.678   6.782  0.0785  0.1909 -0.5038
  185SLPC    C221244   2.499   3.649   6.919  0.4322 -0.0854 -0.1887
  185SLPC    HS21245   2.578   3.647   6.998 -0.7201  0.2355  1.0073
  185SLPC   O2121246   2.398   3.552   6.952 -0.3299 -0.3110 -0.0438
  185SLPC   C2121247   2.418   3.465   7.048  0.1852  0.6394 -0.0807
  185SLPC   O2221248   2.518   3.464   7.120 -0.3016 -0.1429 -0.1294
  185SLPC   C2221249   2.305   3.365   7.047  0.4038  0.1008  0.0774
  185SLPC   H2R21250   2.206   3.414   7.057 -0.5109 -1.3995 -1.0992
  185SLPC   H2S21251   2.297   3.313   6.949 -2.7321 -0.2801  0.4278
  185SLPC    C321252   2.429   3.782   6.919  0.5028 -0.4226 -0.0093
  185SLPC    HX21253   2.354   3.792   6.838 -0.5693  0.9162  1.1028
  185SLPC    HY21254   2.517   3.846   6.897  3.9592 -4.6369  0.0948
  185SLPC   O3121255   2.376   3.822   7.043 -0.1461 -0.2445 -0.1845
  185SLPC   C3121256   2.264   3.776   7.085  0.4115 -0.0178 -0.3664
  185SLPC   O3221257   2.193   3.695   7.026  0.6128  0.1154  0.3602
  185SLPC   C3221258   2.233   3.842   7.225  0.8067  0.2654  0.5903
  185SLPC   H2X21259   2.123   3.860   7.232  0.3702 -0.3720 -2.7741
  185SLPC   H2Y21260   2.304   3.927   7.219  1.7165 -0.5498 -0.7370
  185SLPC   C2321261   2.312   3.259   7.161  0.4761  0.4406  0.1395
  185SLPC   H3R21262   2.407   3.206   7.140  0.4122  0.6612 -0.7652
  185SLPC   H3S21263   2.225   3.190   7.152  1.3464 -0.9795  1.9345
  185SLPC   C2421264   2.300   3.318   7.299  0.1158 -0.0817 -0.0822
  185SLPC   H4R21265   2.216   3.390   7.286  0.7401  0.6281 -0.2038
  185SLPC   H4S21266   2.399   3.365   7.314  1.8443 -3.5305  0.4702
  185SLPC   C2521267   2.268   3.220   7.405  0.3439  0.1039  0.1372
  185SLPC   H5R21268   2.340   3.136   7.397 -0.6213 -1.0160  2.2623
  185SLPC   H5S21269   2.170   3.171   7.383  0.3426 -0.6221  1.6315
  185SLPC   C2621270   2.278   3.272   7.547 -0.5056 -0.1312  0.3021
  185SLPC   H6R21271   2.214   3.363   7.548  1.8309  1.7822 -3.2351
  185SLPC   H6S21272   2.381   3.304   7.573 -1.0552  1.4112  0.6559
  185SLPC   C2721273   2.232   3.159   7.655 -0.8569  0.0134  0.7639
  185SLPC   H7R21274   2.308   3.078   7.652 -0.8925 -0.0606 -3.6266
  185SLPC   H7S21275   2.135   3.113   7.630  0.5271 -3.9995  1.9437
  185SLPC   C2821276   2.210   3.219   7.793 -0.3349  0.1997 -0.1328
  185SLPC   H8R21277   2.154   3.142   7.851  0.5421  0.0657  0.5820
  185SLPC   H8S21278   2.144   3.308   7.792 -1.2661 -0.4826 -1.0050
  185SLPC   C2921279   2.339   3.241   7.865  0.0590 -0.2806 -0.0634
  185SLPC   H9R21280   2.431   3.240   7.805 -0.1126  0.7846 -0.3615
  185SLPC  C21021281   2.360   3.256   7.998  0.0453  0.7305  0.1492
  185SLPC  H10R21282   2.462   3.255   8.039 -0.8514 -1.9141  2.6280
  185SLPC  C21121283   2.264   3.249   8.117  0.2333 -0.7097  0.4356
  185SLPC  H11R21284   2.164   3.270   8.072 -0.5437 -1.4631  1.7297
  185SLPC  H11S21285   2.272   3.333   8.189 -4.1717  1.7119 -1.4904
  185SLPC  C21221286   2.254   3.113   8.180 -0.2980  0.2354 -0.1158
  185SLPC  H12R21287   2.211   3.031   8.120  0.3208  0.0367 -0.2955
  185SLPC  C21321288   2.277   3.083   8.309  0.0254 -0.4991  0.4686
  185SLPC  H13R21289   2.276   2.979   8.345  0.2952  0.1866  2.6185
  185SLPC  C21421290   2.313   3.182   8.421 -0.1204  0.2318  0.3677
  185SLPC  H14R21291   2.252   3.155   8.509 -0.5217  1.4452  0.4843
  185SLPC  H14S21292   2.273   3.284   8.403 -1.2463 -0.5967 -2.3934
  185SLPC  C21521293   2.465   3.176   8.458  0.7308  0.3333  0.2984
  185SLPC  H15R21294   2.496   3.244   8.540 -0.8598 -2.8307  3.8792
  185SLPC  H15S21295   2.512   3.218   8.367  0.5028 -0.0590 -0.0062
  185SLPC  C21621296   2.529   3.038   8.473 -0.3481  0.0744  0.0538
  185SLPC  H16R21297   2.638   3.053   8.485 -0.5292  3.0555 -1.0916
  185SLPC  H16S21298   2.507   2.992   8.374  0.1057  0.4241 -0.2128
  185SLPC  C21721299   2.477   2.948   8.589  0.2730 -0.4191 -0.6493
  185SLPC  H17R21300   2.517   2.845   8.595  1.4074  0.0732  0.5272
  185SLPC  H17S21301   2.366   2.943   8.578  0.0848 -1.1240  1.2342
  185SLPC  C21821302   2.506   3.003   8.726  0.7230  0.2898 -0.5633
  185SLPC  H18R21303   2.478   2.927   8.802 -0.7489 -2.1371 -3.2845
  185SLPC  H18S21304   2.454   3.100   8.738  1.7234  1.1319 -2.5354
  185SLPC  H18T21305   2.615   3.017   8.740  0.6511 -0.1965  0.5754
  185SLPC   C3321306   2.260   3.739   7.332 -0.0588  0.6247 -0.3364
  185SLPC   H3X21307   2.369   3.753   7.348 -0.2572  1.2459  0.5706
  185SLPC   H3Y21308   2.237   3.635   7.300 -3.3187  1.7983 -2.2880
  185SLPC   C3421309   2.185   3.783   7.461  0.6090  0.1055 -0.4234
  185SLPC   H4X21310   2.078   3.758   7.443 -0.1810  1.1929  2.2523
  185SLPC   H4Y21311   2.184   3.893   7.467 -1.0076  0.2968 -2.7598
  185SLPC   C3521312   2.242   3.718   7.590 -0.2316 -0.3137 -0.1089
  185SLPC   H5X21313   2.352   3.730   7.596 -0.0063 -0.6954 -2.5476
  185SLPC   H5Y21314   2.223   3.609   7.579 -0.2967 -0.5212  1.6851
  185SLPC   C3621315   2.172   3.781   7.714 -0.4619 -0.8267  0.2976
  185SLPC   H6X21316   2.061   3.792   7.707 -0.4823 -1.3376 -0.3282
  185SLPC   H6Y21317   2.195   3.889   7.726  0.8314 -1.1007  0.4282
  185SLPC   C3721318   2.200   3.699   7.842 -0.5302  0.4715 -0.0199
  185SLPC   H7X21319   2.311   3.691   7.848 -0.1195  2.2630 -2.9948
  185SLPC   H7Y21320   2.170   3.592   7.842  0.4459  0.1426  1.9064
  185SLPC   C3821321   2.154   3.757   7.984  0.6598 -0.1269 -0.3250
  185SLPC   H8X21322   2.044   3.759   7.967  0.5665  1.5237  0.2970
  185SLPC   H8Y21323   2.208   3.851   8.007 -0.1759 -0.2820  2.7307
  185SLPC   C3921324   2.181   3.655   8.096  0.5268  0.2262 -0.2372
  185SLPC   H9X21325   2.291   3.664   8.108  0.6307  0.3206 -1.2371
  185SLPC   H9Y21326   2.148   3.550   8.079 -0.2302  0.1069  1.6458
  185SLPC  C31021327   2.119   3.703   8.233  0.1784  0.4229  0.4396
  185SLPC  H10X21328   2.009   3.693   8.228  0.4018 -2.9263 -0.6823
  185SLPC  H10Y21329   2.154   3.808   8.236 -0.1839  0.6033 -0.9768
  185SLPC  C31121330   2.162   3.626   8.355  0.0189  0.5731  0.0408
  185SLPC  H11X21331   2.272   3.622   8.341 -0.1074  1.2198 -1.3115
  185SLPC  H11Y21332   2.115   3.525   8.352 -0.8011  0.9550 -2.1254
  185SLPC  C31221333   2.131   3.699   8.484  0.6891  0.9309  0.4115
  185SLPC  H12X21334   2.023   3.693   8.507  0.3367  0.2834 -1.2796
  185SLPC  H12Y21335   2.150   3.808   8.477 -0.8127  1.1388 -4.7106
  185SLPC  C31321336   2.212   3.646   8.601  0.0189 -0.0861  0.5291
  185SLPC  H13X21337   2.310   3.697   8.585 -0.1778 -0.1141 -0.8144
  185SLPC  H13Y21338   2.216   3.535   8.595 -0.5770 -0.1562  1.2604
  185SLPC  C31421339   2.152   3.686   8.738 -0.3408  0.0667  0.2484
  185SLPC  H14X21340   2.064   3.623   8.760  0.8672 -2.1883 -0.9438
  185SLPC  H14Y21341   2.122   3.793   8.731  1.2144  0.4845 -0.8185
  185SLPC  C31521342   2.242   3.666   8.863 -0.3495  0.4003  0.4991
  185SLPC  H15X21343   2.337   3.708   8.823 -1.7523  2.4097 -0.9059
  185SLPC  H15Y21344   2.252   3.556   8.876 -1.0761  0.2648 -0.0550
  185SLPC  C31621345   2.193   3.743   8.985  0.8771 -0.2686  0.2259
  185SLPC  H16X21346   2.199   3.850   8.954 -0.7097 -0.5414 -1.2348
  185SLPC  H16Y21347   2.261   3.716   9.068  1.0175 -0.9585 -0.1043
  185SLPC  C31721348   2.047   3.709   9.013 -0.5914 -0.0122 -0.2810
  185SLPC  H17X21349   2.040   3.601   9.035 -0.8385  0.2071  0.8264
  185SLPC  H17Y21350   1.983   3.722   8.924 -0.5337 -0.0076 -0.3213
  185SLPC  C31821351   1.980   3.765   9.137 -0.3055  0.1456 -0.3692
  185SLPC  H18X21352   1.875   3.732   9.128  0.2804 -2.2511  0.8337
  185SLPC  H18Y21353   1.981   3.876   9.140  0.8028  0.2194 -1.9155
  185SLPC  H18Z21354   2.033   3.719   9.223 -1.8292  1.0421  1.0936
  186SLPC     N21355   6.125   5.426   6.094  0.1742  0.0367 -0.3667
  186SLPC   C1321356   6.206   5.327   6.019  0.2446 -0.1264 -0.0878
  186SLPC  H13A21357   6.145   5.251   5.973 -2.0256  0.4209  1.8387
  186SLPC  H13B21358   6.269   5.370   5.943  1.8794 -1.7808  0.2706
  186SLPC  H13C21359   6.276   5.270   6.078  0.5649 -0.3363 -0.6609
  186SLPC   C1421360   6.020   5.474   6.015  0.1579  0.2291  0.4270
  186SLPC  H14A21361   6.062   5.479   5.916  1.1347  2.3645  0.8827
  186SLPC  H14B21362   5.935   5.409   6.014 -0.7856  1.3889  1.4694
  186SLPC  H14C21363   5.986   5.572   6.047 -1.0263 -0.3564  0.9858
  186SLPC   C1521364   6.218   5.543   6.130  0.3068  0.2273 -0.4280
  186SLPC  H15A21365   6.165   5.616   6.189  1.5602  0.9701 -0.1977
  186SLPC  H15B21366   6.305   5.520   6.189  1.0410  1.6152 -0.9288
  186SLPC  H15C21367   6.255   5.591   6.040 -0.9753  0.5867 -0.7897
  186SLPC   C1221368   6.070   5.370   6.220 -0.1677 -0.7612  0.2072
  186SLPC  H12A21369   5.992   5.438   6.249  0.4396  0.9903 -1.9834
  186SLPC  H12B21370   6.138   5.363   6.303  0.8747 -3.1034 -0.7326
  186SLPC   C1121371   5.991   5.235   6.198  0.2941 -0.0491  0.1863
  186SLPC  H11A21372   5.910   5.243   6.122  0.1626 -0.8126  0.2443
  186SLPC  H11B21373   5.933   5.216   6.291  1.6401 -0.3341  0.9919
  186SLPC     P21374   6.167   5.055   6.285  0.1765 -0.3606 -0.1647
  186SLPC   O1321375   6.186   4.911   6.267 -0.2007  0.3919  0.2608
  186SLPC   O1421376   6.289   5.136   6.292 -0.0983  0.0696  0.1773
  186SLPC   O1221377   6.081   5.119   6.165  0.3606  0.5162 -0.1206
  186SLPC   O1121378   6.082   5.079   6.422  0.2403  0.0666 -0.6135
  186SLPC    C121379   5.967   5.010   6.454  0.9945  0.0198 -0.5227
  186SLPC    HA21380   5.880   5.072   6.483  2.7104  1.5805  1.6407
  186SLPC    HB21381   5.937   4.942   6.371 -0.1100  0.2263 -0.3095
  186SLPC    C221382   5.978   4.921   6.576 -0.2120  0.5094  0.0197
  186SLPC    HS21383   5.885   4.863   6.592  0.4397 -0.6217 -0.2007
  186SLPC   O2121384   6.010   4.998   6.698 -0.2542  0.8460  0.3760
  186SLPC   C2121385   5.904   5.055   6.757  0.4729 -0.4586  0.3710
  186SLPC   O2221386   5.788   5.044   6.719 -0.0388 -0.4464 -0.5720
  186SLPC   C2221387   5.953   5.140   6.874  0.4364 -0.6954 -0.4331
  186SLPC   H2R21388   5.988   5.242   6.848  0.4331  0.4352  3.3625
  186SLPC   H2S21389   5.866   5.156   6.942  0.3578 -1.6242 -0.3071
  186SLPC    C321390   6.085   4.808   6.564  0.0193 -0.1495  0.5014
  186SLPC    HX21391   6.184   4.859   6.552  0.1970 -0.6977 -0.4102
  186SLPC    HY21392   6.058   4.764   6.466 -3.3512  0.7615  0.9128
  186SLPC   O3121393   6.096   4.723   6.684 -0.6490 -0.2014 -0.6199
  186SLPC   C3121394   6.016   4.626   6.680  0.3936 -0.0089  0.1667
  186SLPC   O3221395   5.937   4.593   6.588 -0.4616  0.4371  0.1025
  186SLPC   C3221396   6.005   4.567   6.816 -0.2913 -0.1135 -0.4184
  186SLPC   H2X21397   5.994   4.649   6.889  0.6644  0.4618 -0.8937
  186SLPC   H2Y21398   6.099   4.510   6.834 -0.7449 -0.7912 -0.1434
  186SLPC   C2321399   6.074   5.071   6.939  0.9238  1.0677 -1.0976
  186SLPC   H3R21400   6.112   5.147   7.010  0.8584  0.7009 -0.6664
  186SLPC   H3S21401   6.157   5.046   6.869  2.1591 -2.3285  1.3244
  186SLPC   C2421402   6.038   4.932   6.999 -0.2310  0.0321 -0.0288
  186SLPC   H4R21403   6.134   4.890   7.036 -0.5791  0.8489  1.9272
  186SLPC   H4S21404   5.991   4.860   6.929 -3.2435  1.0599  0.7687
  186SLPC   C2521405   5.951   4.931   7.131  0.0728 -0.0047 -0.3206
  186SLPC   H5R21406   5.955   4.824   7.162  0.6688 -0.0652 -0.5881
  186SLPC   H5S21407   5.845   4.959   7.114 -0.3263  0.8775  3.0544
  186SLPC   C2621408   5.988   5.028   7.247 -0.3479 -0.3999 -0.9514
  186SLPC   H6R21409   5.983   5.133   7.211  0.1582 -0.3721 -0.9587
  186SLPC   H6S21410   6.094   5.014   7.277 -0.0511  2.7383 -0.1921
  186SLPC   C2721411   5.904   5.031   7.379  0.1978  0.5572 -0.0328
  186SLPC   H7R21412   5.799   5.024   7.347  0.2493 -2.4239  0.1780
  186SLPC   H7S21413   5.911   5.118   7.448  1.8065  0.0920  0.4374
  186SLPC   C2821414   5.933   4.907   7.471 -0.0512  0.2619 -0.4105
  186SLPC   H8R21415   6.032   4.915   7.521 -0.6905  0.8772  0.8034
  186SLPC   H8S21416   5.959   4.827   7.399  0.8118 -1.4397  1.6729
  186SLPC   C2921417   5.822   4.852   7.552 -0.5782 -0.2083  0.5793
  186SLPC   H9R21418   5.743   4.804   7.494 -2.1962  2.5905  0.3043
  186SLPC  C21021419   5.803   4.861   7.684  0.5737 -1.0803  0.5024
  186SLPC  H10R21420   5.711   4.813   7.721  1.1585  0.2027  3.9988
  186SLPC  C21121421   5.892   4.937   7.769 -0.6712 -0.3182  0.8125
  186SLPC  H11R21422   5.931   5.022   7.709  1.1526 -1.8715 -0.3343
  186SLPC  H11S21423   5.982   4.872   7.778  0.4846  0.4735 -2.9690
  186SLPC  C21221424   5.833   4.981   7.896 -0.0247 -0.4793 -0.0927
  186SLPC  H12R21425   5.724   4.973   7.894 -0.0650 -0.0541 -2.3588
  186SLPC  C21321426   5.892   5.018   8.011 -0.2325  0.4815  0.5079
  186SLPC  H13R21427   5.822   5.053   8.088 -2.2046 -0.9679 -0.5473
  186SLPC  C21421428   6.039   5.038   8.044  0.6918  0.2375 -0.0675
  186SLPC  H14R21429   6.096   5.069   7.954  1.3346 -2.9923 -0.8984
  186SLPC  H14S21430   6.083   4.946   8.088  0.7913  1.2700  2.1070
  186SLPC  C21521431   6.035   5.146   8.156  0.4416 -0.1077  0.6361
  186SLPC  H15R21432   5.963   5.228   8.132  0.8933  0.6726  1.8669
  186SLPC  H15S21433   6.128   5.206   8.142  0.8146 -0.1860  2.5331
  186SLPC  C21621434   6.020   5.088   8.296  0.3745  0.5606 -0.3152
  186SLPC  H16R21435   6.115   5.035   8.317 -0.8288 -1.7880 -0.5175
  186SLPC  H16S21436   5.924   5.035   8.315  0.0925  1.1012 -0.1927
  186SLPC  C21721437   6.010   5.202   8.405  0.2605 -0.4961 -0.4949
  186SLPC  H17R21438   5.937   5.275   8.365 -0.6351 -1.5719 -0.8883
  186SLPC  H17S21439   6.106   5.250   8.431 -1.0931  1.5341  1.0971
  186SLPC  C21821440   5.959   5.148   8.535  0.3733 -0.3910  0.1605
  186SLPC  H18R21441   5.857   5.105   8.524  0.8229 -1.7379  0.9371
  186SLPC  H18S21442   5.943   5.228   8.610  0.5507 -0.9219  0.7761
  186SLPC  H18T21443   6.022   5.068   8.580  1.0792  0.2933  0.4140
  186SLPC   C3321444   5.903   4.455   6.829  0.3718  0.0045  0.0758
  186SLPC   H3X21445   5.935   4.376   6.758  0.6836  1.6542 -1.6984
  186SLPC   H3Y21446   5.800   4.491   6.810  0.8077  0.9261 -0.6332
  186SLPC   C3421447   5.885   4.396   6.968 -0.6665  0.1814  0.8165
  186SLPC   H4X21448   5.986   4.354   6.990 -0.1762 -0.6530 -2.4493
  186SLPC   H4Y21449   5.812   4.313   6.964 -1.2997  0.7323  0.8299
  186SLPC   C3521450   5.849   4.489   7.082 -0.0737  0.4095  0.0532
  186SLPC   H5X21451   5.779   4.567   7.045  1.4361  1.2016 -1.2856
  186SLPC   H5Y21452   5.939   4.537   7.125  1.2995 -3.4375  1.9612
  186SLPC   C3621453   5.788   4.400   7.193  0.9868 -0.5162  0.6207
  186SLPC   H6X21454   5.846   4.308   7.214  0.6358 -0.7354  0.6434
  186SLPC   H6Y21455   5.689   4.361   7.160  0.2867  1.0128  0.8072
  186SLPC   C3721456   5.773   4.485   7.317  0.0129 -0.1486  0.2054
  186SLPC   H7X21457   5.688   4.553   7.295 -1.1167 -1.9130 -1.2132
  186SLPC   H7Y21458   5.869   4.536   7.340  0.1768 -0.0219 -0.7220
  186SLPC   C3821459   5.734   4.411   7.449 -0.0446 -0.3176  0.5823
  186SLPC   H8X21460   5.801   4.324   7.467  0.6032 -0.0487 -0.4764
  186SLPC   H8Y21461   5.644   4.347   7.435 -0.5709  0.5513 -0.0832
  186SLPC   C3921462   5.721   4.501   7.572  0.0379  0.3451 -0.1492
  186SLPC   H9X21463   5.628   4.562   7.580 -0.1473  0.2969 -1.7273
  186SLPC   H9Y21464   5.801   4.577   7.569 -0.2916  0.6664 -1.0129
  186SLPC  C31021465   5.733   4.421   7.705  0.3501  0.0192 -0.4248
  186SLPC  H10X21466   5.808   4.340   7.697  1.0527  0.6660 -0.4776
  186SLPC  H10Y21467   5.632   4.380   7.727  0.1427  0.5191 -0.4287
  186SLPC  C31121468   5.768   4.516   7.820 -0.5317 -0.2990  0.7622
  186SLPC  H11X21469   5.694   4.599   7.825  1.2033  1.2583  1.9167
  186SLPC  H11Y21470   5.864   4.564   7.792 -0.6784  0.5423  1.6414
  186SLPC  C31221471   5.792   4.457   7.963  0.0034 -0.7550  0.1876
  186SLPC  H12X21472   5.844   4.359   7.956 -0.3143 -0.7809 -3.0728
  186SLPC  H12Y21473   5.688   4.442   7.998 -0.8767 -0.4654 -2.1745
  186SLPC  C31321474   5.876   4.551   8.060 -0.0323  1.0934 -0.7816
  186SLPC  H13X21475   5.809   4.631   8.097  2.3611  2.1931  1.5064
  186SLPC  H13Y21476   5.967   4.590   8.010  1.6597 -0.0994  1.2159
  186SLPC  C31421477   5.925   4.468   8.183  0.0062 -0.2483  0.3527
  186SLPC  H14X21478   5.978   4.537   8.251  2.5222 -0.2762 -1.4388
  186SLPC  H14Y21479   5.987   4.383   8.147 -3.6976 -3.1822  0.2810
  186SLPC  C31521480   5.811   4.399   8.259  0.0300 -0.0767  0.6682
  186SLPC  H15X21481   5.848   4.343   8.348  0.1098  1.5688  1.7231
  186SLPC  H15Y21482   5.768   4.329   8.184  0.0363  0.0688  0.5288
  186SLPC  C31621483   5.689   4.484   8.312  0.0634 -0.8736  0.5130
  186SLPC  H16X21484   5.665   4.548   8.225 -1.5527 -1.1001  0.7521
  186SLPC  H16Y21485   5.741   4.534   8.396  1.1378 -0.6239 -0.2833
  186SLPC  C31721486   5.569   4.393   8.355 -0.3309  1.0710  0.0034
  186SLPC  H17X21487   5.613   4.321   8.428 -0.1184 -1.3652 -2.3468
  186SLPC  H17Y21488   5.541   4.323   8.273  3.6258 -0.3401 -0.3793
  186SLPC  C31821489   5.449   4.462   8.417  0.0961  0.5559  0.2983
  186SLPC  H18X21490   5.366   4.389   8.435 -0.6099  1.1810 -0.3490
  186SLPC  H18Y21491   5.421   4.542   8.345  0.3438 -0.7304 -1.2888
  186SLPC  H18Z21492   5.475   4.499   8.519  2.1258 -1.2957  0.5150
  187SLPC     N21493   5.260   0.348   6.043  0.5628 -0.4453 -1.2963
  187SLPC   C1321494   5.258   0.266   5.915 -0.1717  0.0210  0.1239
  187SLPC  H13A21495   5.166   0.273   5.858  0.0756  2.5464 -0.1058
  187SLPC  H13B21496   5.323   0.313   5.842  0.6829 -2.4014 -0.7689
  187SLPC  H13C21497   5.301   0.169   5.936 -1.0394  0.3043  3.8135
  187SLPC   C1421498   5.184   0.478   6.012 -0.4330  0.0935 -0.6993
  187SLPC  H14A21499   5.244   0.534   5.941  1.5186 -2.3979 -1.1468
  187SLPC  H14B21500   5.089   0.466   5.963 -1.2777  1.3691  0.5043
  187SLPC  H14C21501   5.174   0.533   6.105 -0.2953 -0.9067 -0.0800
  187SLPC   C1521502   5.400   0.384   6.091  0.0841  0.0250 -0.1943
  187SLPC  H15A21503   5.395   0.431   6.188 -0.0976  1.8431 -1.0591
  187SLPC  H15B21504   5.478   0.310   6.085 -1.5226 -1.7491 -0.4566
  187SLPC  H15C21505   5.435   0.468   6.035  1.4565  1.5278  2.6892
  187SLPC   C1221506   5.191   0.264   6.149 -0.4553 -0.0571  0.3152
  187SLPC  H12A21507   5.240   0.168   6.150 -0.8493 -0.2578  0.5791
  187SLPC  H12B21508   5.087   0.250   6.125 -0.6996 -1.6465  2.0847
  187SLPC   C1121509   5.187   0.319   6.289 -0.6598  0.6812 -0.1023
  187SLPC  H11A21510   5.290   0.345   6.322  0.3559 -1.5879 -1.2912
  187SLPC  H11B21511   5.157   0.228   6.345 -0.4299  0.0555 -0.9722
  187SLPC     P21512   4.938   0.386   6.313 -0.2801  0.0146  0.2865
  187SLPC   O1321513   4.872   0.509   6.268 -0.0038 -0.5895 -0.2428
  187SLPC   O1421514   4.915   0.261   6.238 -0.2333  0.2567  0.3477
  187SLPC   O1221515   5.090   0.418   6.310 -0.3622 -0.1414  0.3894
  187SLPC   O1121516   4.905   0.356   6.467  0.2873  0.2638  0.0457
  187SLPC    C121517   4.935   0.443   6.579  0.2004 -0.5727 -0.1947
  187SLPC    HA21518   5.028   0.499   6.555 -0.8518  1.3641  0.1040
  187SLPC    HB21519   4.849   0.513   6.590 -0.5841 -1.5501  0.0272
  187SLPC    C221520   4.969   0.376   6.713  0.6028 -0.5376  0.0151
  187SLPC    HS21521   4.871   0.324   6.725 -0.9889  2.4181  0.6527
  187SLPC   O2121522   4.997   0.474   6.816 -0.3740  0.1257 -0.1928
  187SLPC   C2121523   4.941   0.456   6.933 -0.3895  0.0834  0.9126
  187SLPC   O2221524   4.859   0.371   6.958  1.0109  0.2299 -0.4312
  187SLPC   C2221525   5.034   0.526   7.034 -0.0836  0.1867 -0.4814
  187SLPC   H2R21526   5.081   0.613   6.984 -1.6109  0.3054 -1.7645
  187SLPC   H2S21527   4.974   0.559   7.121  0.8457 -1.9650  1.0955
  187SLPC    C321528   5.078   0.272   6.704 -0.3123  0.0602  0.5308
  187SLPC    HX21529   5.180   0.313   6.685 -0.3900  0.0190  0.0090
  187SLPC    HY21530   5.072   0.195   6.624 -1.4820  1.0490 -0.3502
  187SLPC   O3121531   5.090   0.204   6.830 -0.9075  0.5199 -0.5337
  187SLPC   C3121532   5.013   0.095   6.849 -0.1765 -0.6126  0.5732
  187SLPC   O3221533   4.948   0.037   6.766  0.5620  0.2783 -0.2875
  187SLPC   C3221534   5.059   0.040   6.989 -0.0312 -0.4414  0.1798
  187SLPC   H2X21535   5.137   0.105   7.034 -1.7194  0.9788  1.2207
  187SLPC   H2Y21536   5.099  -0.059   6.960  0.2986  0.0257 -0.9949
  187SLPC   C2321537   5.144   0.429   7.086  0.8047 -0.2379 -0.1006
  187SLPC   H3R21538   5.215   0.398   7.006 -1.3050 -1.7694 -1.4801
  187SLPC   H3S21539   5.094   0.331   7.099  1.2417 -0.2369  1.9308
  187SLPC   C2421540   5.205   0.485   7.216  0.3058 -0.6359 -0.7893
  187SLPC   H4R21541   5.122   0.529   7.276 -0.2916 -0.8405 -1.4423
  187SLPC   H4S21542   5.279   0.565   7.193  0.1000 -0.5833 -1.2995
  187SLPC   C2521543   5.271   0.373   7.297  0.4112  0.0076  0.0030
  187SLPC   H5R21544   5.360   0.333   7.244 -0.4274 -1.8865 -0.0329
  187SLPC   H5S21545   5.210   0.281   7.289  2.5191 -1.2891 -2.7801
  187SLPC   C2621546   5.298   0.407   7.439 -0.5250 -0.5294  0.1029
  187SLPC   H6R21547   5.204   0.399   7.497  0.2547 -2.2272  1.1879
  187SLPC   H6S21548   5.332   0.513   7.445 -1.6659 -0.1352 -0.2082
  187SLPC   C2721549   5.400   0.305   7.499 -0.5768 -1.0705  0.4938
  187SLPC   H7R21550   5.493   0.300   7.437 -0.9925 -1.2222 -0.1312
  187SLPC   H7S21551   5.351   0.205   7.498 -2.1003 -0.3471  0.8969
  187SLPC   C2821552   5.431   0.326   7.647 -0.0631 -0.2993 -0.8344
  187SLPC   H8R21553   5.471   0.231   7.690 -1.7786 -0.4864  0.4338
  187SLPC   H8S21554   5.330   0.342   7.688  0.5374 -0.5965  0.8318
  187SLPC   C2921555   5.522   0.443   7.671 -0.6002  0.5495 -0.1348
  187SLPC   H9R21556   5.571   0.490   7.585 -0.7544 -0.1563 -0.6221
  187SLPC  C21021557   5.535   0.497   7.795 -0.2420 -0.0974  0.3059
  187SLPC  H10R21558   5.598   0.586   7.810  0.2888 -0.2827 -0.7291
  187SLPC  C21121559   5.472   0.451   7.930  0.8351 -0.0255  0.5834
  187SLPC  H11R21560   5.416   0.355   7.921 -0.6890  0.4967  3.4476
  187SLPC  H11S21561   5.392   0.525   7.949  1.2717  0.2448  1.3761
  187SLPC  C21221562   5.574   0.450   8.040  0.2102 -0.1228  0.0530
  187SLPC  H12R21563   5.611   0.348   8.058 -0.9826 -0.4786  0.6596
  187SLPC  C21321564   5.610   0.552   8.112 -0.3996  0.2650 -0.3809
  187SLPC  H13R21565   5.694   0.536   8.182  0.1071  0.1491 -1.0119
  187SLPC  C21421566   5.561   0.695   8.107 -0.1133 -0.1328 -0.1050
  187SLPC  H14R21567   5.479   0.697   8.033 -3.8736 -0.4430  3.6727
  187SLPC  H14S21568   5.637   0.775   8.090  0.8666 -1.5089 -2.9104
  187SLPC  C21521569   5.479   0.717   8.241 -0.1126 -0.3926  0.0082
  187SLPC  H15R21570   5.547   0.683   8.322  0.0828 -1.4020 -0.5598
  187SLPC  H15S21571   5.385   0.659   8.231  0.6046 -1.4634 -0.9613
  187SLPC  C21621572   5.449   0.867   8.260 -0.4088  0.0400  0.1900
  187SLPC  H16R21573   5.383   0.902   8.178 -1.5770  0.5215  1.2884
  187SLPC  H16S21574   5.547   0.919   8.257  0.3953 -1.4590 -2.2900
  187SLPC  C21721575   5.356   0.896   8.371 -0.6478  0.0998  0.3212
  187SLPC  H17R21576   5.341   1.006   8.374 -0.6501  0.1751 -1.3853
  187SLPC  H17S21577   5.385   0.854   8.469 -1.8853 -0.6510  0.3858
  187SLPC  C21821578   5.209   0.850   8.350 -0.9064 -0.8501  0.4968
  187SLPC  H18R21579   5.144   0.904   8.422 -0.9192  2.8684 -2.0495
  187SLPC  H18S21580   5.205   0.742   8.377 -0.8761 -1.1853 -0.7593
  187SLPC  H18T21581   5.175   0.876   8.247  1.0214  3.5556  0.7554
  187SLPC   C3321582   4.938   0.042   7.090 -0.1768  0.1879 -0.4538
  187SLPC   H3X21583   4.871  -0.034   7.044 -1.2196  1.5179 -1.1868
  187SLPC   H3Y21584   4.899   0.145   7.098  2.9276  1.5140 -1.0190
  187SLPC   C3421585   4.969  -0.013   7.229  0.0431  0.0558 -0.1867
  187SLPC   H4X21586   5.053   0.043   7.273  0.6113 -0.5705 -0.4594
  187SLPC   H4Y21587   4.990  -0.122   7.224 -2.3546 -0.4878  0.1558
  187SLPC   C3521588   4.858   0.003   7.331 -0.8136 -0.4441  0.7596
  187SLPC   H5X21589   4.759  -0.017   7.284 -1.1796 -0.8222  1.6440
  187SLPC   H5Y21590   4.858   0.112   7.350 -1.4968 -0.2110 -0.5139
  187SLPC   C3621591   4.884  -0.067   7.462  0.4972  0.1833 -0.4571
  187SLPC   H6X21592   4.932  -0.167   7.449  0.8098  0.1058  1.0796
  187SLPC   H6Y21593   4.791  -0.083   7.521 -0.1360 -0.1641 -1.5257
  187SLPC   C3721594   4.983   0.010   7.550  0.9013 -0.0305 -0.1724
  187SLPC   H7X21595   5.083   0.008   7.503  0.3497 -1.4497 -1.3623
  187SLPC   H7Y21596   4.934   0.110   7.559 -2.6888 -1.7524  1.3945
  187SLPC   C3821597   4.986  -0.053   7.688 -0.0582  0.4682  0.2048
  187SLPC   H8X21598   5.068  -0.127   7.698  0.5880  1.2364  0.7416
  187SLPC   H8Y21599   4.892  -0.100   7.723 -0.2639  2.5865  2.8291
  187SLPC   C3921600   5.013   0.051   7.795  0.1463  0.0810  0.2942
  187SLPC   H9X21601   4.925   0.109   7.828  0.3010  0.8603 -0.6194
  187SLPC   H9Y21602   5.083   0.130   7.761 -0.4960  1.3599  1.8185
  187SLPC  C31021603   5.072  -0.023   7.924  0.6337  0.5529  0.3190
  187SLPC  H10X21604   5.141  -0.103   7.890  0.6463  0.8430 -0.3680
  187SLPC  H10Y21605   4.991  -0.078   7.975  1.5639  0.3135  1.6092
  187SLPC  C31121606   5.141   0.070   8.023 -0.4215 -0.0919 -0.9543
  187SLPC  H11X21607   5.064   0.145   8.051 -0.1659 -0.1240 -0.1542
  187SLPC  H11Y21608   5.233   0.107   7.972 -0.2355 -0.1004 -0.6284
  187SLPC  C31221609   5.184  -0.005   8.154 -0.1875 -0.3879 -0.7154
  187SLPC  H12X21610   5.241   0.063   8.222  0.1439  0.2046 -1.5619
  187SLPC  H12Y21611   5.249  -0.089   8.123 -0.9156 -0.4691 -2.0934
  187SLPC  C31321612   5.068  -0.040   8.244 -0.0380  0.6989 -0.9124
  187SLPC  H13X21613   5.020  -0.131   8.201 -0.4386 -0.1400  1.2077
  187SLPC  H13Y21614   4.992   0.041   8.239  0.9327  1.7266  0.3631
  187SLPC  C31421615   5.111  -0.074   8.384 -0.5688  0.5841  0.1489
  187SLPC  H14X21616   5.190  -0.001   8.413  1.6460 -2.0869  1.1988
  187SLPC  H14Y21617   5.170  -0.168   8.384  1.4155  1.7165  2.3549
  187SLPC  C31521618   4.996  -0.076   8.492  0.2012 -0.1024 -0.1773
  187SLPC  H15X21619   4.916  -0.132   8.439  0.7692  0.1749 -1.3460
  187SLPC  H15Y21620   4.957   0.026   8.511 -1.8068 -0.3903 -2.3220
  187SLPC  C31621621   5.036  -0.139   8.616  0.0142  0.0533 -0.4989
  187SLPC  H16X21622   5.125  -0.082   8.650 -0.4894  0.1587  0.6983
  187SLPC  H16Y21623   5.084  -0.236   8.593  3.1812  0.8255  2.1495
  187SLPC  C31721624   4.927  -0.144   8.720  0.1384 -0.6117 -0.0197
  187SLPC  H17X21625   4.844  -0.202   8.674 -0.5363  0.6165 -0.4062
  187SLPC  H17Y21626   4.890  -0.040   8.731  0.7937 -0.4720  1.0275
  187SLPC  C31821627   4.977  -0.206   8.854  0.6679  0.1952 -0.4555
  187SLPC  H18X21628   4.901  -0.211   8.934  0.9847 -2.0354 -0.2280
  187SLPC  H18Y21629   5.056  -0.139   8.895 -0.0466 -0.0757  1.4420
  187SLPC  H18Z21630   5.013  -0.308   8.827  1.0573  0.6692 -1.8500
  188SLPC     N21631   4.979   3.643   6.209 -0.3665  0.2372 -0.3996
  188SLPC   C1321632   5.021   3.781   6.166  0.7605 -0.5250  0.0289
  188SLPC  H13A21633   5.120   3.785   6.123  1.9051  0.8690  2.5278
  188SLPC  H13B21634   4.949   3.822   6.097  1.2472 -3.1983 -2.2245
  188SLPC  H13C21635   5.017   3.852   6.248 -0.1771 -1.1858  0.5720
  188SLPC   C1421636   4.958   3.551   6.089 -0.2919  0.2521 -0.7513
  188SLPC  H14A21637   4.945   3.451   6.129  0.6731  1.2948  2.4412
  188SLPC  H14B21638   4.878   3.576   6.021  0.9186 -0.5574 -2.5462
  188SLPC  H14C21639   5.051   3.542   6.033 -0.0120  0.4029 -0.3112
  188SLPC   C1521640   4.846   3.644   6.278  0.3720  0.1161 -1.0958
  188SLPC  H15A21641   4.780   3.684   6.202  1.6607  0.1858 -2.2194
  188SLPC  H15B21642   4.806   3.545   6.294  0.1407  0.3112 -0.4575
  188SLPC  H15C21643   4.847   3.700   6.369  0.6691 -0.8618 -0.4778
  188SLPC   C1221644   5.099   3.589   6.300  0.2268  0.4938  0.1191
  188SLPC  H12A21645   5.117   3.657   6.381 -0.3038 -0.2605  0.8847
  188SLPC  H12B21646   5.191   3.595   6.244 -0.4309  2.2232 -0.8366
  188SLPC   C1121647   5.086   3.442   6.354  0.1124  0.3656  0.2364
  188SLPC  H11A21648   4.984   3.431   6.396  0.4783  1.1619  1.3893
  188SLPC  H11B21649   5.157   3.430   6.438  0.4733 -0.0131 -0.1193
  188SLPC     P21650   5.239   3.280   6.226 -0.3135  0.3483 -0.5925
  188SLPC   O1321651   5.242   3.193   6.107  0.0688 -0.1258 -0.0409
  188SLPC   O1421652   5.346   3.384   6.228 -0.2061 -0.6632 -0.3474
  188SLPC   O1221653   5.101   3.341   6.253  0.5369  0.4664 -1.0108
  188SLPC   O1121654   5.255   3.186   6.352  0.0359  0.2147 -0.5608
  188SLPC    C121655   5.380   3.139   6.406  0.5774  0.3834 -0.1693
  188SLPC    HA21656   5.395   3.035   6.369 -0.2384 -0.3643  1.4905
  188SLPC    HB21657   5.464   3.200   6.367 -0.0006  2.3750  1.5144
  188SLPC    C221658   5.382   3.145   6.566  0.6761 -0.3850  0.4270
  188SLPC    HS21659   5.316   3.064   6.603  2.0964 -0.5185  2.8848
  188SLPC   O2121660   5.332   3.269   6.611 -0.3489 -0.7952  0.1655
  188SLPC   C2121661   5.231   3.273   6.692 -0.8352  0.0919  0.3876
  188SLPC   O2221662   5.170   3.173   6.731  0.0304  0.0354  0.9664
  188SLPC   C2221663   5.215   3.422   6.734  0.5554 -0.0449 -0.2246
  188SLPC   H2R21664   5.311   3.477   6.723  0.0809  0.6122 -1.2487
  188SLPC   H2S21665   5.148   3.463   6.655 -2.4480  1.2482  2.7811
  188SLPC    C321666   5.521   3.122   6.618 -0.1201  0.0880  0.2541
  188SLPC    HX21667   5.588   3.167   6.543 -0.4127  0.5084  0.2426
  188SLPC    HY21668   5.547   3.014   6.624  1.8582  0.5655  1.0978
  188SLPC   O3121669   5.543   3.174   6.751  0.3129  0.3425  0.5542
  188SLPC   C3121670   5.595   3.297   6.757  1.0331  0.5280 -0.1236
  188SLPC   O3221671   5.596   3.378   6.669 -0.2068 -0.6769  0.6239
  188SLPC   C3221672   5.637   3.325   6.909  0.2150  0.2497  0.8723
  188SLPC   H2X21673   5.709   3.245   6.938  0.6937  0.0994 -0.6599
  188SLPC   H2Y21674   5.541   3.306   6.961 -0.1785 -1.4259 -0.3641
  188SLPC   C2321675   5.140   3.436   6.873 -0.6551  0.0865 -0.3424
  188SLPC   H3R21676   5.037   3.393   6.873 -0.8769  0.6086  0.7287
  188SLPC   H3S21677   5.128   3.543   6.900 -0.9292 -0.1196  0.3691
  188SLPC   C2421678   5.220   3.361   6.983 -0.4076 -0.4213  0.2000
  188SLPC   H4R21679   5.329   3.378   6.971 -1.0040  2.3668 -2.6627
  188SLPC   H4S21680   5.207   3.252   6.971  0.6191 -0.5383  0.0970
  188SLPC   C2521681   5.171   3.399   7.121 -0.3417 -0.3832 -0.2740
  188SLPC   H5R21682   5.066   3.366   7.134 -0.7234  0.9025 -0.0092
  188SLPC   H5S21683   5.172   3.508   7.142 -0.5935 -0.3651 -0.3564
  188SLPC   C2621684   5.251   3.347   7.245 -0.2875 -0.7162  0.4205
  188SLPC   H6R21685   5.359   3.369   7.237 -0.7563  2.1817  0.8364
  188SLPC   H6S21686   5.239   3.237   7.254  0.3586 -0.8270 -0.0528
  188SLPC   C2721687   5.214   3.422   7.378 -0.5054  0.7279 -0.3910
  188SLPC   H7R21688   5.104   3.418   7.390 -0.5792  2.1439 -0.4062
  188SLPC   H7S21689   5.249   3.526   7.363  0.7263  0.2622 -0.8478
  188SLPC   C2821690   5.297   3.359   7.496 -1.0427  0.0262 -0.2121
  188SLPC   H8R21691   5.304   3.442   7.569 -2.5239 -1.1699  1.3544
  188SLPC   H8S21692   5.400   3.340   7.459 -0.1562  1.2240  1.4992
  188SLPC   C2921693   5.238   3.239   7.567  0.1326  0.9986 -0.1486
  188SLPC   H9R21694   5.281   3.142   7.536  0.3261  1.1890 -0.4864
  188SLPC  C21021695   5.143   3.232   7.664  0.4012 -0.3422 -0.0782
  188SLPC  H10R21696   5.105   3.129   7.674  3.0132 -1.2931  1.0994
  188SLPC  C21121697   5.072   3.354   7.720 -0.0190 -0.5079  0.1960
  188SLPC  H11R21698   5.021   3.409   7.639  0.3483  0.5229  0.6515
  188SLPC  H11S21699   5.138   3.431   7.764 -0.7782  0.7557 -0.8225
  188SLPC  C21221700   4.966   3.309   7.823  0.1193 -0.2035 -0.6233
  188SLPC  H12R21701   4.860   3.295   7.798 -0.2039 -1.0607  1.0782
  188SLPC  C21321702   4.990   3.298   7.954  0.3326  0.1217 -0.1885
  188SLPC  H13R21703   4.915   3.280   8.033  2.2008 -2.6456  1.1098
  188SLPC  C21421704   5.126   3.315   8.020  0.3018 -0.4205  0.6121
  188SLPC  H14R21705   5.130   3.402   8.089  0.3565 -1.4475  1.9536
  188SLPC  H14S21706   5.208   3.338   7.948 -0.3292  1.2308  0.3850
  188SLPC  C21521707   5.158   3.196   8.110  0.7395  0.4016  1.2040
  188SLPC  H15R21708   5.085   3.192   8.194 -0.4672 -1.2148  0.1395
  188SLPC  H15S21709   5.264   3.215   8.135  1.0781 -0.4193  0.4414
  188SLPC  C21621710   5.144   3.048   8.049 -0.0951  0.0973  0.5226
  188SLPC  H16R21711   5.201   3.035   7.954  1.9505  1.8766  1.4232
  188SLPC  H16S21712   5.038   3.026   8.027  0.0470 -1.6942  1.4439
  188SLPC  C21721713   5.178   2.935   8.151  0.3806  0.0790  0.4447
  188SLPC  H17R21714   5.128   2.943   8.250 -2.4516 -0.4486 -0.8446
  188SLPC  H17S21715   5.286   2.941   8.179  1.1306 -1.4001 -1.8727
  188SLPC  C21821716   5.149   2.802   8.081  0.2997  0.1899 -0.4374
  188SLPC  H18R21717   5.190   2.799   7.978 -0.1902  3.3898 -0.8338
  188SLPC  H18S21718   5.042   2.801   8.053 -0.3223 -0.4893  1.7354
  188SLPC  H18T21719   5.162   2.705   8.134  0.7071  1.0312  1.0848
  188SLPC   C3321720   5.694   3.468   6.917 -0.5234  0.4874 -0.3294
  188SLPC   H3X21721   5.646   3.544   6.852 -2.1524 -2.4510 -2.8118
  188SLPC   H3Y21722   5.791   3.460   6.864  0.6126  0.7209  1.6141
  188SLPC   C3421723   5.720   3.511   7.061  0.0431 -0.0253  0.0246
  188SLPC   H4X21724   5.767   3.612   7.057  3.3851 -1.4204  0.4753
  188SLPC   H4Y21725   5.800   3.455   7.115 -0.2073 -2.6895 -2.1345
  188SLPC   C3521726   5.586   3.535   7.139 -0.0436  0.0320  0.3033
  188SLPC   H5X21727   5.540   3.435   7.154 -1.8673  0.9860  1.4933
  188SLPC   H5Y21728   5.512   3.594   7.080  0.5751  2.2148  1.5730
  188SLPC   C3621729   5.610   3.596   7.276  0.0881 -0.0283  0.3242
  188SLPC   H6X21730   5.506   3.624   7.303 -0.5092 -1.3431 -0.4863
  188SLPC   H6Y21731   5.675   3.686   7.269  2.3141 -1.5690 -0.1682
  188SLPC   C3721732   5.668   3.517   7.388 -1.0569  0.1853 -0.5460
  188SLPC   H7X21733   5.776   3.503   7.365 -0.8147 -0.2949  0.8284
  188SLPC   H7Y21734   5.629   3.413   7.382 -2.6846  0.8343 -1.7519
  188SLPC   C3821735   5.655   3.592   7.518  0.1555  0.0552 -0.3751
  188SLPC   H8X21736   5.557   3.644   7.531  1.1594  1.9358  0.0296
  188SLPC   H8Y21737   5.727   3.675   7.531 -1.2757  1.4024 -0.7357
  188SLPC   C3921738   5.658   3.510   7.651  0.4900  0.5300 -0.5698
  188SLPC   H9X21739   5.759   3.467   7.666  1.5742  3.0548 -0.1309
  188SLPC   H9Y21740   5.577   3.433   7.648  2.7747 -2.0789  0.5876
  188SLPC  C31021741   5.626   3.600   7.770  0.2100  0.2101  0.9045
  188SLPC  H10X21742   5.544   3.672   7.750  2.7263  3.3951  1.1791
  188SLPC  H10Y21743   5.713   3.667   7.782  1.3407 -0.9249 -0.4536
  188SLPC  C31121744   5.588   3.513   7.886 -0.8539 -0.7794 -0.2240
  188SLPC  H11X21745   5.671   3.440   7.901 -0.6610 -0.2124  1.7482
  188SLPC  H11Y21746   5.499   3.455   7.854 -1.5723  0.8082 -1.1872
  188SLPC  C31221747   5.560   3.584   8.018 -0.3956  0.2400  0.0239
  188SLPC  H12X21748   5.471   3.651   8.013 -0.8804 -0.3901  0.0799
  188SLPC  H12Y21749   5.653   3.636   8.048 -0.4895  0.3532  0.1210
  188SLPC  C31321750   5.526   3.476   8.121 -0.3620  0.4196 -0.4180
  188SLPC  H13X21751   5.618   3.423   8.154 -0.2102  0.4538 -0.7704
  188SLPC  H13Y21752   5.458   3.401   8.076 -0.1732  0.1593 -0.2698
  188SLPC  C31421753   5.467   3.537   8.249  0.2489 -0.1015  0.3388
  188SLPC  H14X21754   5.382   3.601   8.218 -0.4325 -0.1018  2.1306
  188SLPC  H14Y21755   5.546   3.603   8.289 -0.2847  1.8381 -1.6018
  188SLPC  C31521756   5.412   3.435   8.351 -0.3738 -0.2280  0.4625
  188SLPC  H15X21757   5.503   3.392   8.396  0.2998 -1.8619 -2.2284
  188SLPC  H15Y21758   5.368   3.350   8.295 -0.3133 -0.4782  0.7976
  188SLPC  C31621759   5.325   3.489   8.465 -0.1704 -0.9750  0.3220
  188SLPC  H16X21760   5.317   3.407   8.539  3.6860 -1.0554  0.8773
  188SLPC  H16Y21761   5.226   3.514   8.421 -0.5911 -2.8919  0.0802
  188SLPC  C31721762   5.398   3.606   8.537  0.1569  0.3312 -0.3286
  188SLPC  H17X21763   5.430   3.683   8.465  0.3775 -0.5382 -1.1769
  188SLPC  H17Y21764   5.487   3.564   8.589  1.8483  0.2671 -3.1168
  188SLPC  C31821765   5.306   3.668   8.645 -0.3441  0.8765 -0.2375
  188SLPC  H18X21766   5.343   3.769   8.675  0.6320  0.1519  1.1125
  188SLPC  H18Y21767   5.300   3.585   8.718  1.8004 -0.2659 -1.2439
  188SLPC  H18Z21768   5.201   3.682   8.612 -1.8233 -1.5627  2.8760
  189SLPC     N21769   0.974   5.998   6.367 -0.3804 -0.0815  0.2663
  189SLPC   C1321770   1.128   6.027   6.351  0.0571  0.1198  0.3672
  189SLPC  H13A21771   1.187   6.003   6.438 -0.6055  1.5220  1.2398
  189SLPC  H13B21772   1.158   5.965   6.268 -1.9121 -0.9461  0.3656
  189SLPC  H13C21773   1.142   6.131   6.328 -0.4486  0.0460 -0.3086
  189SLPC   C1421774   0.964   5.852   6.367  0.1876 -0.2341 -0.8894
  189SLPC  H14A21775   0.867   5.829   6.409  1.1324 -1.4499  0.7335
  189SLPC  H14B21776   0.969   5.810   6.267 -0.1261 -1.5445 -0.3764
  189SLPC  H14C21777   1.035   5.808   6.435 -0.3389 -0.8481 -0.7198
  189SLPC   C1521778   0.900   6.053   6.251  1.2155  0.1029 -0.4735
  189SLPC  H15A21779   0.908   6.161   6.245  1.8731  0.0952  0.0617
  189SLPC  H15B21780   0.935   6.002   6.163  0.8017 -1.7689  0.4105
  189SLPC  H15C21781   0.796   6.029   6.267  1.4159  0.2291  1.3097
  189SLPC   C1221782   0.925   6.048   6.508 -0.1545  0.9194  0.2956
  189SLPC  H12A21783   0.991   6.009   6.584 -0.7771 -0.9082 -0.0538
  189SLPC  H12B21784   0.830   6.004   6.535  0.3431  0.1942  0.8891
  189SLPC   C1121785   0.927   6.203   6.534  0.7488 -0.1426  0.7642
  189SLPC  H11A21786   1.017   6.259   6.499 -0.8062  0.6484 -2.3988
  189SLPC  H11B21787   0.928   6.221   6.643  1.6303 -1.7621  1.0471
  189SLPC     P21788   0.670   6.252   6.527  0.1106  0.4716 -0.2912
  189SLPC   O1321789   0.615   6.378   6.581  0.0652 -0.2245 -0.4380
  189SLPC   O1421790   0.582   6.192   6.425  0.8656  0.2972 -0.0253
  189SLPC   O1221791   0.816   6.267   6.472  0.5552  0.0019 -0.1870
  189SLPC   O1121792   0.680   6.146   6.641 -1.3113 -0.0704  0.2215
  189SLPC    C121793   0.565   6.112   6.719 -0.0825 -0.5771 -0.1751
  189SLPC    HA21794   0.485   6.188   6.716  0.8892  0.4803 -0.0819
  189SLPC    HB21795   0.510   6.018   6.696 -3.8140  1.0281  1.3911
  189SLPC    C221796   0.604   6.094   6.868 -0.0618 -0.0761  0.4824
  189SLPC    HS21797   0.518   6.095   6.939  0.5104 -0.0602  1.1941
  189SLPC   O2121798   0.710   6.189   6.907 -0.0922 -0.0270 -0.0957
  189SLPC   C2121799   0.665   6.314   6.920 -0.3752 -0.3564 -0.6861
  189SLPC   O2221800   0.548   6.352   6.917 -0.3159  0.1349  1.1040
  189SLPC   C2221801   0.791   6.404   6.941 -0.4534 -0.9271  0.3933
  189SLPC   H2R21802   0.869   6.356   6.878  2.0322  0.2502  2.4078
  189SLPC   H2S21803   0.762   6.506   6.911 -1.5273 -1.2348  0.3447
  189SLPC    C321804   0.681   5.950   6.889  0.2893 -0.3375 -0.0617
  189SLPC    HX21805   0.757   5.936   6.809  1.7655 -0.4166  1.2890
  189SLPC    HY21806   0.604   5.871   6.876 -0.2428 -0.0162  1.0356
  189SLPC   O3121807   0.740   5.947   7.018 -0.1036  0.9317 -0.3344
  189SLPC   C3121808   0.868   5.973   7.020 -0.6318  0.3167  0.7479
  189SLPC   O3221809   0.939   5.984   6.921  0.1731  0.0707 -0.0100
  189SLPC   C3221810   0.911   5.960   7.165 -0.3765 -0.6618 -0.1865
  189SLPC   H2X21811   0.921   5.849   7.176  3.3317 -0.3097  1.2747
  189SLPC   H2Y21812   0.827   5.994   7.229 -0.1562 -0.5269  0.0329
  189SLPC   C2321813   0.830   6.404   7.090 -0.0372  0.1657  0.3929
  189SLPC   H3R21814   0.930   6.452   7.102  0.9021 -1.0708 -1.8071
  189SLPC   H3S21815   0.838   6.300   7.128 -0.2419  0.4135  1.1198
  189SLPC   C2421816   0.748   6.481   7.193  0.2611  0.1692 -0.3970
  189SLPC   H4R21817   0.642   6.452   7.177  0.5001  0.2171 -2.3611
  189SLPC   H4S21818   0.751   6.592   7.182  2.9666  0.2691  0.6186
  189SLPC   C2521819   0.791   6.452   7.338 -0.0091  0.0171  0.6069
  189SLPC   H5R21820   0.898   6.481   7.347  0.3305 -0.9860 -0.0332
  189SLPC   H5S21821   0.793   6.343   7.357  1.0301 -0.5051 -2.1223
  189SLPC   C2621822   0.706   6.503   7.448 -0.5811 -0.4128  0.4035
  189SLPC   H6R21823   0.602   6.487   7.412 -0.1989  0.5645 -1.2766
  189SLPC   H6S21824   0.719   6.614   7.447  1.5453 -0.6237  0.7036
  189SLPC   C2721825   0.734   6.445   7.591  0.4086  0.3326 -0.1095
  189SLPC   H7R21826   0.833   6.474   7.632  0.2059  1.0011 -0.0786
  189SLPC   H7S21827   0.736   6.335   7.576  1.5751  0.3958 -0.5231
  189SLPC   C2821828   0.628   6.494   7.699 -0.5541  0.1869  0.3439
  189SLPC   H8R21829   0.526   6.490   7.654 -0.6093 -1.7521  0.5648
  189SLPC   H8S21830   0.649   6.603   7.710  0.2788  0.0278  0.4155
  189SLPC   C2921831   0.633   6.417   7.830 -0.3695 -0.5730  0.0578
  189SLPC   H9R21832   0.611   6.309   7.824 -0.4438 -0.7075  2.0630
  189SLPC  C21021833   0.675   6.480   7.945  0.6746 -0.9149  0.3586
  189SLPC  H10R21834   0.675   6.425   8.040  1.0608 -0.6255  0.5321
  189SLPC  C21121835   0.721   6.622   7.968  0.0695 -0.1731  0.7095
  189SLPC  H11R21836   0.675   6.690   7.893 -1.1003 -1.0537  0.5999
  189SLPC  H11S21837   0.831   6.631   7.956  0.1251 -0.9519  0.6108
  189SLPC  C21221838   0.711   6.669   8.112 -0.2217 -0.5102 -0.6112
  189SLPC  H12R21839   0.699   6.589   8.187 -3.0487  0.6738  0.3616
  189SLPC  C21321840   0.717   6.790   8.165 -0.0521 -0.5643 -0.1761
  189SLPC  H13R21841   0.695   6.792   8.273  0.6445 -0.3838 -0.0361
  189SLPC  C21421842   0.733   6.924   8.091  0.1800 -0.0447 -0.4110
  189SLPC  H14R21843   0.753   6.898   7.985 -0.2196  0.0405 -0.5102
  189SLPC  H14S21844   0.827   6.971   8.128  0.4064  0.3216 -1.4215
  189SLPC  C21521845   0.631   7.042   8.089  0.5154  0.8938 -0.4509
  189SLPC  H15R21846   0.537   7.004   8.043  0.5318  1.0916 -0.6467
  189SLPC  H15S21847   0.671   7.127   8.030  1.8545  0.1935 -0.5814
  189SLPC  C21621848   0.601   7.095   8.232  0.1171  0.3745 -0.7775
  189SLPC  H16R21849   0.702   7.107   8.278  0.5878 -0.1563 -1.6343
  189SLPC  H16S21850   0.557   7.016   8.297 -0.9560  1.2426 -0.4374
  189SLPC  C21721851   0.525   7.232   8.230 -0.9878 -0.1695  1.0064
  189SLPC  H17R21852   0.427   7.229   8.178 -0.0270  1.4943 -1.0402
  189SLPC  H17S21853   0.575   7.300   8.158  2.1640 -4.1401 -0.9059
  189SLPC  C21821854   0.522   7.305   8.368 -0.0922  0.3263 -0.6227
  189SLPC  H18R21855   0.625   7.317   8.407  0.0390 -1.3231 -0.3858
  189SLPC  H18S21856   0.471   7.238   8.441  2.8920 -0.9500  0.4560
  189SLPC  H18T21857   0.469   7.401   8.347 -3.4887 -1.2872 -0.1613
  189SLPC   C3321858   1.054   6.027   7.206  0.7804  0.4392 -0.4849
  189SLPC   H3X21859   1.065   6.130   7.165  2.5444  0.0845 -0.9978
  189SLPC   H3Y21860   1.137   5.968   7.162  1.1436  0.3860  0.2637
  189SLPC   C3421861   1.076   6.016   7.358 -0.1736  0.3630  0.3755
  189SLPC   H4X21862   1.179   6.028   7.397 -0.1569 -1.0247  0.7782
  189SLPC   H4Y21863   1.050   5.912   7.386  0.4609  0.1697  0.2539
  189SLPC   C3521864   0.985   6.109   7.441 -0.4973  0.2014  0.2442
  189SLPC   H5X21865   0.875   6.099   7.426 -0.3791  2.2285 -2.8085
  189SLPC   H5Y21866   1.021   6.209   7.411  3.4151 -0.2960  2.6039
  189SLPC   C3621867   1.018   6.115   7.591 -0.1881 -0.1098  0.5161
  189SLPC   H6X21868   0.958   6.205   7.616 -0.2385  0.2579 -0.8725
  189SLPC   H6Y21869   1.125   6.135   7.613  0.4044  0.5069 -2.5536
  189SLPC   C3721870   0.963   5.998   7.670 -0.3794  0.7022 -0.2573
  189SLPC   H7X21871   0.881   5.942   7.618 -0.4965  1.4069 -0.8413
  189SLPC   H7Y21872   0.920   6.022   7.769  1.0173 -0.2779  0.6265
  189SLPC   C3821873   1.073   5.899   7.711  0.5325  0.0553  0.1033
  189SLPC   H8X21874   1.143   5.955   7.776  0.6925  1.2642 -1.0602
  189SLPC   H8Y21875   1.121   5.875   7.614  0.5493 -2.2314  0.6121
  189SLPC   C3921876   1.030   5.773   7.780  0.3223  0.0277  0.1428
  189SLPC   H9X21877   1.106   5.702   7.741 -0.3752  0.3073 -1.8473
  189SLPC   H9Y21878   0.932   5.729   7.752 -0.3980  1.2117  0.7294
  189SLPC  C31021879   1.036   5.784   7.938  0.3321 -0.2075 -0.2553
  189SLPC  H10X21880   0.989   5.702   7.997  2.0207 -0.5904  0.6422
  189SLPC  H10Y21881   0.973   5.875   7.945 -1.9738 -1.7754  0.3527
  189SLPC  C31121882   1.175   5.812   8.005 -0.4107  0.0682  0.7059
  189SLPC  H11X21883   1.220   5.910   7.981  0.3606 -1.0738 -3.2015
  189SLPC  H11Y21884   1.244   5.742   7.953 -0.5890 -0.3431  1.0095
  189SLPC  C31221885   1.187   5.778   8.153 -0.1369  0.0772 -0.5938
  189SLPC  H12X21886   1.292   5.804   8.179 -0.3885  1.5736 -0.9474
  189SLPC  H12Y21887   1.161   5.672   8.172 -1.1657  0.2847 -0.7379
  189SLPC  C31321888   1.087   5.854   8.237  0.3197  0.1063  0.6218
  189SLPC  H13X21889   0.986   5.823   8.203  1.4582 -1.0612 -1.9966
  189SLPC  H13Y21890   1.108   5.958   8.204 -0.6639 -0.1575 -0.9673
  189SLPC  C31421891   1.105   5.857   8.385  0.0897 -0.3969  0.8377
  189SLPC  H14X21892   1.194   5.905   8.431  0.3598  0.7980 -0.8480
  189SLPC  H14Y21893   1.106   5.753   8.424 -1.1908 -1.6300 -2.0969
  189SLPC  C31521894   0.980   5.925   8.450 -0.4311  0.2605 -0.0002
  189SLPC  H15X21895   0.885   5.883   8.411 -0.7335  0.3869  0.5998
  189SLPC  H15Y21896   0.985   6.032   8.422  0.2107 -0.5209 -3.2977
  189SLPC  C31621897   0.968   5.903   8.601  0.0332  0.8168 -1.0057
  189SLPC  H16X21898   1.047   5.960   8.654  1.0496 -2.7336  1.5881
  189SLPC  H16Y21899   0.986   5.795   8.618 -0.7976  0.4245 -2.4549
  189SLPC  C31721900   0.821   5.933   8.658  0.2210  0.8818  0.7336
  189SLPC  H17X21901   0.747   5.873   8.601  2.2532  0.8381 -2.0871
  189SLPC  H17Y21902   0.797   6.041   8.650 -3.3101  0.2159  0.9603
  189SLPC  C31821903   0.818   5.905   8.805 -0.5509 -0.3085 -1.2315
  189SLPC  H18X21904   0.819   5.796   8.823 -0.3285 -0.2121 -0.6172
  189SLPC  H18Y21905   0.732   5.958   8.852 -0.9383 -2.4635  0.6465
  189SLPC  H18Z21906   0.899   5.958   8.860 -1.2789 -0.8861  0.4656
  190SLPC     N21907   1.713   4.983   6.283  0.5407  0.1954  0.1424
  190SLPC   C1321908   1.627   4.862   6.308  0.2310  0.8040 -0.3072
  190SLPC  H13A21909   1.625   4.841   6.414 -0.0194  0.4459 -0.3803
  190SLPC  H13B21910   1.530   4.860   6.260 -0.7946  0.2006  1.6675
  190SLPC  H13C21911   1.685   4.785   6.260  0.6991  0.6949  0.4214
  190SLPC   C1421912   1.653   5.093   6.364 -0.0440  0.1993 -0.5945
  190SLPC  H14A21913   1.549   5.112   6.343 -0.2218  0.5798  0.5558
  190SLPC  H14B21914   1.671   5.065   6.466  3.7659  3.1228 -0.2343
  190SLPC  H14C21915   1.712   5.181   6.340 -2.0974  1.5016 -1.1388
  190SLPC   C1521916   1.694   5.018   6.137  0.7434 -0.1125 -0.1558
  190SLPC  H15A21917   1.684   4.928   6.078 -0.6078  1.2044 -2.0770
  190SLPC  H15B21918   1.600   5.071   6.125  0.2145 -1.4898 -2.8901
  190SLPC  H15C21919   1.777   5.078   6.104 -0.4208  1.7385  0.1175
  190SLPC   C1221920   1.854   4.961   6.318  0.3205 -0.2063 -0.0572
  190SLPC  H12A21921   1.855   4.937   6.424 -1.8848  0.9249  0.2734
  190SLPC  H12B21922   1.905   5.054   6.300  0.5252 -0.4057 -0.4927
  190SLPC   C1121923   1.932   4.852   6.243 -0.0313  0.1011  0.1552
  190SLPC  H11A21924   2.032   4.857   6.291 -0.6245  2.1628  1.2913
  190SLPC  H11B21925   1.933   4.882   6.137 -1.0107 -1.3686 -0.3078
  190SLPC     P21926   1.927   4.643   6.392  0.0534  0.1810 -0.0806
  190SLPC   O1321927   1.861   4.510   6.404 -0.0175  0.6934  0.5038
  190SLPC   O1421928   2.077   4.648   6.398  0.4122  0.3540  0.1650
  190SLPC   O1221929   1.874   4.724   6.265 -0.1446  0.8071 -0.0594
  190SLPC   O1121930   1.869   4.732   6.499 -0.3422 -0.0691 -0.1680
  190SLPC    C121931   1.747   4.721   6.577  0.5494  0.0606  0.2315
  190SLPC    HA21932   1.692   4.817   6.569  0.6708  0.1054 -0.0500
  190SLPC    HB21933   1.673   4.652   6.531  0.4491  1.0536 -1.1242
  190SLPC    C221934   1.776   4.683   6.723  0.4591  0.0643  0.3182
  190SLPC    HS21935   1.851   4.755   6.763  0.0911  0.4756  0.2779
  190SLPC   O2121936   1.820   4.552   6.724 -0.6145 -0.3128 -0.3248
  190SLPC   C2121937   1.901   4.517   6.819  0.5267  0.5804  0.1438
  190SLPC   O2221938   1.936   4.581   6.914  1.0765  0.4051 -0.2076
  190SLPC   C2221939   1.923   4.365   6.810  0.1440 -0.0122 -0.1236
  190SLPC   H2R21940   1.828   4.307   6.804  0.1222  0.0144 -0.0449
  190SLPC   H2S21941   1.991   4.344   6.725  0.4706 -1.2615  0.4188
  190SLPC    C321942   1.641   4.700   6.796  0.1538 -0.1777  0.1793
  190SLPC    HX21943   1.568   4.628   6.755  1.0267  0.7661 -3.4108
  190SLPC    HY21944   1.598   4.800   6.777  0.5321 -0.1986 -0.8455
  190SLPC   O3121945   1.648   4.675   6.939 -0.3792 -0.5217 -0.5098
  190SLPC   C3121946   1.727   4.756   7.012  0.3066 -0.0208 -1.0311
  190SLPC   O3221947   1.793   4.851   6.970  0.1909 -0.5855  0.2342
  190SLPC   C3221948   1.746   4.702   7.155  0.1280  0.1560  0.1326
  190SLPC   H2X21949   1.839   4.641   7.153  0.0599  0.0219 -3.0412
  190SLPC   H2Y21950   1.663   4.633   7.182  0.3731 -0.4797 -0.6903
  190SLPC   C2321951   2.004   4.316   6.935  0.8035  0.4668  0.3784
  190SLPC   H3R21952   2.105   4.362   6.935  2.0879 -1.7851 -3.7074
  190SLPC   H3S21953   2.027   4.208   6.922  1.3803  0.5483  0.6959
  190SLPC   C2421954   1.943   4.323   7.074 -0.1063  0.0135  0.2596
  190SLPC   H4R21955   1.837   4.289   7.075 -0.6432  1.5445 -1.2797
  190SLPC   H4S21956   1.939   4.427   7.112 -1.1390 -0.1138  0.5163
  190SLPC   C2521957   2.028   4.258   7.179  0.7740 -0.0354  0.1582
  190SLPC   H5R21958   2.129   4.303   7.181  0.3352  0.9860  0.1186
  190SLPC   H5S21959   2.043   4.152   7.151  2.1864  0.0863  0.3738
  190SLPC   C2621960   1.964   4.278   7.317  0.1487 -0.4805  0.1319
  190SLPC   H6R21961   1.870   4.220   7.309  0.0156 -0.3999  0.9874
  190SLPC   H6S21962   1.929   4.382   7.328 -0.6406 -0.7267  0.0027
  190SLPC   C2721963   2.046   4.234   7.431  0.3965  0.6562 -0.6574
  190SLPC   H7R21964   2.142   4.289   7.429  0.0785  1.5524  2.4211
  190SLPC   H7S21965   2.074   4.128   7.412  0.4401 -0.1517  3.0893
  190SLPC   C2821966   1.990   4.243   7.576  0.3145  0.0803  0.4096
  190SLPC   H8R21967   1.885   4.206   7.583 -0.4307  2.0657  0.4246
  190SLPC   H8S21968   1.982   4.353   7.590 -1.0784 -0.1375  1.5492
  190SLPC   C2921969   2.064   4.177   7.683 -0.3843  0.1472 -0.5237
  190SLPC   H9R21970   2.121   4.089   7.650 -1.3137  0.0951 -2.1307
  190SLPC  C21021971   2.080   4.218   7.804  0.4071  0.0583 -0.8374
  190SLPC  H10R21972   2.129   4.150   7.876 -1.5402 -1.5462 -0.9352
  190SLPC  C21121973   2.033   4.357   7.854 -0.1484 -0.4126  0.0588
  190SLPC  H11R21974   2.047   4.441   7.783  0.8964  0.6322  1.4500
  190SLPC  H11S21975   2.091   4.382   7.945 -2.3573  1.7718  0.9690
  190SLPC  C21221976   1.883   4.359   7.894 -0.0000 -0.1285 -0.7551
  190SLPC  H12R21977   1.814   4.303   7.829  0.3905 -1.0297 -0.4079
  190SLPC  C21321978   1.825   4.425   7.999 -0.1952  0.3606 -0.0372
  190SLPC  H13R21979   1.718   4.404   8.013  0.0707  0.3547  2.4921
  190SLPC  C21421980   1.885   4.516   8.099 -0.4511 -0.3074  0.4658
  190SLPC  H14R21981   1.849   4.621   8.094 -3.2892 -1.2569 -0.6574
  190SLPC  H14S21982   1.996   4.508   8.100 -0.4357 -1.1615  4.0502
  190SLPC  C21521983   1.849   4.479   8.246  0.2052  0.9703  0.8778
  190SLPC  H15R21984   1.740   4.469   8.268 -0.0792  1.6325 -0.1561
  190SLPC  H15S21985   1.895   4.557   8.309 -1.2837  3.4349 -0.9053
  190SLPC  C21621986   1.933   4.354   8.296 -0.3106  0.0550 -0.1405
  190SLPC  H16R21987   2.037   4.370   8.259 -0.5808  1.9597 -0.1985
  190SLPC  H16S21988   1.895   4.261   8.248 -3.5771  1.3318 -0.2512
  190SLPC  C21721989   1.930   4.336   8.446  0.4559  0.3692 -0.2339
  190SLPC  H17R21990   1.995   4.415   8.488  0.1027 -0.1229  1.3245
  190SLPC  H17S21991   1.966   4.235   8.476 -1.4254 -0.5678 -0.9382
  190SLPC  C21821992   1.787   4.357   8.492 -0.0594 -0.3016 -0.5888
  190SLPC  H18R21993   1.711   4.310   8.427 -0.1488 -0.3125 -0.4775
  190SLPC  H18S21994   1.766   4.466   8.492  0.9859 -0.0734  0.1921
  190SLPC  H18T21995   1.782   4.316   8.596 -0.5640  2.1128  0.3943
  190SLPC   C3321996   1.766   4.820   7.249 -0.1148  0.3412 -0.4682
  190SLPC   H3X21997   1.685   4.895   7.237 -0.2476  0.2719 -0.0304
  190SLPC   H3Y21998   1.860   4.876   7.232 -0.7611  1.4260 -0.5981
  190SLPC   C3421999   1.777   4.770   7.400 -0.2644  0.0842  0.1881
  190SLPC   H4X22000   1.842   4.835   7.462  0.7984  0.1887 -1.0062
  190SLPC   H4Y22001   1.834   4.675   7.400  1.6735  1.1930  0.2217
  190SLPC   C3522002   1.643   4.757   7.473  0.5585 -0.5327 -0.1497
  190SLPC   H5X22003   1.587   4.673   7.427 -0.6170 -0.1728  0.5672
  190SLPC   H5Y22004   1.580   4.847   7.454 -0.4825 -1.7841 -3.3016
  190SLPC   C3622005   1.667   4.735   7.623 -0.1957  0.5250  0.0292
  190SLPC   H6X22006   1.712   4.829   7.660 -4.2922  1.9876  1.8091
  190SLPC   H6Y22007   1.742   4.653   7.633 -1.4394 -0.4945  1.3096
  190SLPC   C3722008   1.549   4.703   7.721 -0.8351 -0.3996  0.0212
  190SLPC   H7X22009   1.497   4.608   7.695  0.2100 -0.9426 -0.1075
  190SLPC   H7Y22010   1.468   4.778   7.709  0.2232  0.4114 -2.6453
  190SLPC   C3822011   1.592   4.693   7.868  0.2712  0.1441  0.7810
  190SLPC   H8X22012   1.663   4.776   7.887  1.8362 -0.8454 -0.4219
  190SLPC   H8Y22013   1.653   4.600   7.874  0.4179  0.1194 -0.6171
  190SLPC   C3922014   1.472   4.682   7.970 -0.1508 -0.3173 -0.1565
  190SLPC   H9X22015   1.424   4.591   7.928  1.3832 -1.3464  0.2366
  190SLPC   H9Y22016   1.409   4.772   7.953 -0.6272 -0.8382 -1.2725
  190SLPC  C31022017   1.519   4.681   8.119  0.1974  0.3818  0.0514
  190SLPC  H10X22018   1.552   4.783   8.148 -1.0473  1.3262 -1.6660
  190SLPC  H10Y22019   1.600   4.606   8.131 -0.3692 -0.2634 -0.1006
  190SLPC  C31122020   1.402   4.628   8.212 -0.0123  0.1545 -0.8159
  190SLPC  H11X22021   1.371   4.533   8.163 -1.4290  0.3092 -0.2613
  190SLPC  H11Y22022   1.311   4.689   8.197  0.4551  1.5079  1.3969
  190SLPC  C31222023   1.440   4.600   8.361 -0.0485  0.6501  0.4474
  190SLPC  H12X22024   1.516   4.519   8.365  0.9528  1.4993 -0.7017
  190SLPC  H12Y22025   1.346   4.574   8.415 -0.6055  2.2639  0.3067
  190SLPC  C31322026   1.510   4.714   8.432 -0.1082 -0.2729  0.0916
  190SLPC  H13X22027   1.440   4.799   8.423  1.2439  0.7952 -0.7464
  190SLPC  H13Y22028   1.604   4.743   8.381  0.9492 -1.4047  1.2985
  190SLPC  C31422029   1.538   4.676   8.580  0.5913 -0.3240  0.3145
  190SLPC  H14X22030   1.573   4.571   8.578  0.7515 -0.2626 -0.2808
  190SLPC  H14Y22031   1.443   4.680   8.638  0.7539  4.4735  0.7049
  190SLPC  C31522032   1.648   4.764   8.652  0.1194  0.2168  0.0972
  190SLPC  H15X22033   1.608   4.867   8.660 -0.6364  0.0017 -0.8089
  190SLPC  H15Y22034   1.734   4.779   8.584  0.8272 -1.4118  0.5762
  190SLPC  C31622035   1.696   4.702   8.779 -0.4422  0.7439  0.0518
  190SLPC  H16X22036   1.799   4.733   8.805 -0.7356  0.1824  2.1066
  190SLPC  H16Y22037   1.705   4.592   8.764  0.3453  0.8501 -0.2821
  190SLPC  C31722038   1.588   4.731   8.885 -0.5359 -0.5649 -0.1292
  190SLPC  H17X22039   1.585   4.655   8.966  0.0362  0.5199  0.9323
  190SLPC  H17Y22040   1.489   4.731   8.835 -0.1484  1.4369 -0.9781
  190SLPC  C31822041   1.602   4.875   8.947  0.2364  0.3403 -0.5155
  190SLPC  H18X22042   1.586   4.953   8.870 -1.5263  1.1148  0.5657
  190SLPC  H18Y22043   1.705   4.890   8.986  0.4616  0.0882 -1.0056
  190SLPC  H18Z22044   1.530   4.897   9.029 -0.3563  2.3857 -1.5008
  191SLPC     N22045   4.229   5.964   5.964 -0.0810  0.2533  0.1467
  191SLPC   C1322046   4.211   5.818   5.955  0.0962 -0.1532  0.3243
  191SLPC  H13A22047   4.225   5.780   5.854  0.2878 -2.6117  1.1940
  191SLPC  H13B22048   4.279   5.760   6.016  0.8146 -1.0523 -1.2398
  191SLPC  H13C22049   4.109   5.786   5.973  0.2928 -1.1447 -0.2421
  191SLPC   C1422050   4.129   6.035   5.882  0.6056 -0.7857 -0.2077
  191SLPC  H14A22051   4.038   6.059   5.934  1.0779  0.2468  0.1752
  191SLPC  H14B22052   4.155   6.132   5.842 -0.2482 -0.5331 -0.1785
  191SLPC  H14C22053   4.102   5.976   5.795 -0.3691 -1.6890  0.6831
  191SLPC   C1522054   4.370   5.985   5.915 -0.4459 -0.3545 -0.0512
  191SLPC  H15A22055   4.439   5.934   5.981 -0.5804  1.3124  1.4671
  191SLPC  H15B22056   4.378   5.960   5.811  4.3362  2.7781 -0.7694
  191SLPC  H15C22057   4.390   6.092   5.918 -0.1434 -0.3948 -0.4820
  191SLPC   C1222058   4.206   6.017   6.109  1.2867 -0.3468 -0.7794
  191SLPC  H12A22059   4.282   5.974   6.173  1.1833  1.1380  0.3983
  191SLPC  H12B22060   4.103   5.998   6.134  1.4494  0.7293  0.8435
  191SLPC   C1122061   4.206   6.169   6.128 -0.2645 -0.0879  0.9493
  191SLPC  H11A22062   4.167   6.219   6.220 -1.3392  0.7907  0.0549
  191SLPC  H11B22063   4.133   6.204   6.052  1.7448  1.0776 -0.5255
  191SLPC     P22064   4.451   6.272   6.182  0.2033 -0.2278  0.4508
  191SLPC   O1322065   4.570   6.243   6.102 -0.4639 -0.1238  0.0613
  191SLPC   O1422066   4.432   6.411   6.223  0.0448 -0.1036  0.6007
  191SLPC   O1222067   4.325   6.233   6.087 -0.1481 -0.3913  0.8038
  191SLPC   O1122068   4.449   6.185   6.317 -0.1866 -0.8726 -0.0836
  191SLPC    C122069   4.529   6.062   6.326 -0.0839  0.2142  0.3194
  191SLPC    HA22070   4.488   5.988   6.254 -2.8288  1.3418  0.6015
  191SLPC    HB22071   4.634   6.073   6.292 -0.5507 -1.2781 -1.7724
  191SLPC    C222072   4.528   6.004   6.471 -0.2334 -0.2164  0.5203
  191SLPC    HS22073   4.549   5.895   6.457 -0.0540 -0.0522 -0.6609
  191SLPC   O2122074   4.399   6.018   6.529 -0.2190  0.0072  0.2325
  191SLPC   C2122075   4.299   5.946   6.473 -0.2075  0.3142 -0.5515
  191SLPC   O2222076   4.315   5.852   6.393 -0.2240 -0.5687  0.0988
  191SLPC   C2222077   4.165   5.987   6.534  0.3915 -0.6921  0.0784
  191SLPC   H2R22078   4.080   5.951   6.472 -0.3832  3.1337 -1.3560
  191SLPC   H2S22079   4.157   5.948   6.638 -1.0519 -0.8675 -0.0709
  191SLPC    C322080   4.647   6.066   6.544  0.0332 -0.2756  0.1271
  191SLPC    HX22081   4.635   6.176   6.557  0.0240 -0.3133  0.4573
  191SLPC    HY22082   4.735   6.036   6.483 -1.7161  0.3609 -2.8715
  191SLPC   O3122083   4.659   6.005   6.671 -0.0177 -0.4670 -0.5312
  191SLPC   C3122084   4.600   6.060   6.780 -0.2009 -0.3900  0.1131
  191SLPC   O3222085   4.535   6.162   6.780 -0.0507 -0.3436 -0.1377
  191SLPC   C3222086   4.622   5.980   6.905  0.1056  0.1442  0.0170
  191SLPC   H2X22087   4.598   5.877   6.870  0.1200 -0.2401  1.1256
  191SLPC   H2Y22088   4.553   6.007   6.987 -0.8178 -3.1566  0.4759
  191SLPC   C2322089   4.153   6.142   6.540  0.6307 -0.6175  0.0782
  191SLPC   H3R22090   4.138   6.189   6.441 -0.0548  1.6877  1.1948
  191SLPC   H3S22091   4.248   6.180   6.584 -0.5852 -1.3027  3.6845
  191SLPC   C2422092   4.039   6.189   6.629 -0.4115 -0.0805  0.3019
  191SLPC   H4R22093   3.941   6.167   6.582  0.0133 -0.7816 -0.2898
  191SLPC   H4S22094   4.047   6.299   6.627 -1.1934  0.0506  2.2508
  191SLPC   C2522095   4.046   6.139   6.774 -0.5176  0.3248 -0.5813
  191SLPC   H5R22096   4.035   6.029   6.763  3.2008  0.0646 -4.0861
  191SLPC   H5S22097   3.956   6.185   6.820  0.4482  0.1156  1.6623
  191SLPC   C2622098   4.175   6.173   6.846 -0.2768 -0.1173  0.4902
  191SLPC   H6R22099   4.219   6.267   6.807 -1.3706 -0.3958 -1.6028
  191SLPC   H6S22100   4.241   6.085   6.837 -1.1012 -0.8561  1.4790
  191SLPC   C2722101   4.143   6.185   6.999  0.4990 -0.9876  0.0008
  191SLPC   H7R22102   4.096   6.085   7.013 -0.0531 -0.6635  0.4577
  191SLPC   H7S22103   4.063   6.260   7.014  0.5232 -0.6229 -1.5390
  191SLPC   C2822104   4.262   6.221   7.091  0.1485  0.7652 -0.6612
  191SLPC   H8R22105   4.285   6.327   7.069  2.0659  0.3356 -0.9401
  191SLPC   H8S22106   4.348   6.156   7.063  0.5324 -0.2043  2.4099
  191SLPC   C2922107   4.231   6.207   7.241  0.1624 -0.3233  1.1675
  191SLPC   H9R22108   4.140   6.260   7.273  0.2764  0.2811  0.5119
  191SLPC  C21022109   4.284   6.121   7.323 -0.0843  0.3142 -0.3154
  191SLPC  H10R22110   4.251   6.113   7.428  0.9218  0.4704  0.0216
  191SLPC  C21122111   4.402   6.029   7.288  0.6347  0.0162  0.0963
  191SLPC  H11R22112   4.461   6.008   7.380  0.4117  0.1844  0.2796
  191SLPC  H11S22113   4.470   6.082   7.218 -1.3870  1.9409 -0.5465
  191SLPC  C21222114   4.336   5.900   7.246 -0.9582  0.6711  0.4653
  191SLPC  H12R22115   4.274   5.894   7.155 -0.4412  0.1911  0.1401
  191SLPC  C21322116   4.329   5.787   7.321 -0.1014 -0.0218 -0.3600
  191SLPC  H13R22117   4.263   5.706   7.287 -0.7470  0.6413 -0.7255
  191SLPC  C21422118   4.386   5.765   7.458 -0.6562  0.5536  1.0776
  191SLPC  H14R22119   4.490   5.805   7.457 -0.4783  0.0898  0.8059
  191SLPC  H14S22120   4.383   5.655   7.475 -0.5052  0.4337  0.3374
  191SLPC  C21522121   4.317   5.820   7.582 -0.2628 -0.0575  0.8601
  191SLPC  H15R22122   4.215   5.780   7.564  0.0438 -0.1027 -0.9370
  191SLPC  H15S22123   4.314   5.931   7.577  0.6775 -0.0771 -0.6007
  191SLPC  C21622124   4.372   5.764   7.718  0.3124  0.1288  0.2066
  191SLPC  H16R22125   4.479   5.789   7.736  0.1179  1.5870 -0.5745
  191SLPC  H16S22126   4.361   5.653   7.714 -1.1200  0.2730 -3.3697
  191SLPC  C21722127   4.295   5.833   7.836  0.7318  0.3804 -0.1212
  191SLPC  H17R22128   4.190   5.838   7.801  1.3604 -0.4423 -2.2712
  191SLPC  H17S22129   4.328   5.938   7.853  0.2753  0.7924 -1.6509
  191SLPC  C21822130   4.315   5.762   7.971  0.0268 -0.3007 -0.9194
  191SLPC  H18R22131   4.270   5.661   7.976 -0.7490  0.0986  1.5289
  191SLPC  H18S22132   4.256   5.820   8.045 -1.0176 -1.3188 -0.9289
  191SLPC  H18T22133   4.420   5.748   8.005  0.1181  0.8749 -0.6731
  191SLPC   C3322134   4.771   5.970   6.951  0.7282  0.0400 -0.1037
  191SLPC   H3X22135   4.787   6.079   6.965  0.4541 -0.0712  1.2206
  191SLPC   H3Y22136   4.832   5.929   6.868 -0.0406  0.0336 -0.6883
  191SLPC   C3422137   4.789   5.878   7.072 -0.3384  0.2951 -0.1230
  191SLPC   H4X22138   4.876   5.810   7.068  1.9686  3.0354  0.7371
  191SLPC   H4Y22139   4.696   5.817   7.076  0.3014 -0.7977 -1.3795
  191SLPC   C3522140   4.814   5.960   7.199 -0.1353  0.4998 -0.0742
  191SLPC   H5X22141   4.727   6.026   7.222 -1.2372 -1.1567  0.6750
  191SLPC   H5Y22142   4.898   6.031   7.181 -0.4151  1.7815  3.0012
  191SLPC   C3622143   4.838   5.878   7.323 -1.0817  0.3856 -1.0250
  191SLPC   H6X22144   4.928   5.814   7.317 -1.8565 -0.8353  0.0170
  191SLPC   H6Y22145   4.760   5.800   7.337  0.3446 -1.0105 -0.6289
  191SLPC   C3722146   4.853   5.962   7.448 -0.1475  0.2821 -0.1428
  191SLPC   H7X22147   4.796   6.057   7.453 -1.3149 -0.4664  1.1855
  191SLPC   H7Y22148   4.957   5.998   7.461 -0.0624  0.8772 -2.1192
  191SLPC   C3822149   4.817   5.883   7.573 -0.3192  0.1738  0.1879
  191SLPC   H8X22150   4.854   5.779   7.567 -1.0366 -0.0364 -0.9253
  191SLPC   H8Y22151   4.706   5.885   7.580 -0.5051 -1.3606 -1.4316
  191SLPC   C3922152   4.864   5.945   7.703 -0.1073  0.7684  0.8396
  191SLPC   H9X22153   4.793   6.027   7.726  0.1290  0.6060  2.1999
  191SLPC   H9Y22154   4.964   5.990   7.686  1.4668 -2.6891  0.0816
  191SLPC  C31022155   4.878   5.860   7.827  0.2924 -0.3067 -0.2103
  191SLPC  H10X22156   4.914   5.928   7.907  0.1142 -0.4999  0.0393
  191SLPC  H10Y22157   4.963   5.792   7.805 -0.2148 -0.2337 -2.6372
  191SLPC  C31122158   4.747   5.794   7.857 -0.5699  0.4608 -0.1566
  191SLPC  H11X22159   4.738   5.727   7.769  2.7039 -1.7999  1.0672
  191SLPC  H11Y22160   4.669   5.874   7.856  0.9196  1.9666 -0.0873
  191SLPC  C31222161   4.744   5.718   7.991  0.5250  0.2962  0.0362
  191SLPC  H12X22162   4.823   5.640   8.000  0.0716 -0.0532  1.1477
  191SLPC  H12Y22163   4.653   5.659   7.971  0.1292  1.3342 -1.4127
  191SLPC  C31322164   4.719   5.804   8.117  0.3922 -0.1482 -0.1598
  191SLPC  H13X22165   4.616   5.846   8.111  0.6072  0.3770 -0.2886
  191SLPC  H13Y22166   4.781   5.896   8.116  0.5660 -0.2654 -0.4108
  191SLPC  C31422167   4.748   5.733   8.252  0.5169 -0.0507  0.0475
  191SLPC  H14X22168   4.731   5.807   8.333  0.6771 -0.5595  0.5572
  191SLPC  H14Y22169   4.858   5.722   8.262  0.5261  0.5255  0.6283
  191SLPC  C31522170   4.690   5.593   8.275  0.0095  0.5673 -0.0302
  191SLPC  H15X22171   4.711   5.529   8.187 -2.1795 -0.2267 -0.0418
  191SLPC  H15Y22172   4.581   5.582   8.292 -0.0581  0.6150 -0.4168
  191SLPC  C31622173   4.755   5.531   8.399 -0.6565  0.5699  0.1393
  191SLPC  H16X22174   4.861   5.524   8.367 -0.8706  0.5553 -0.5876
  191SLPC  H16Y22175   4.709   5.432   8.417 -1.2532  0.5922 -1.1363
  191SLPC  C31722176   4.736   5.613   8.531  0.0486 -0.3731 -0.2010
  191SLPC  H17X22177   4.629   5.605   8.558  0.2787  0.1460  0.9583
  191SLPC  H17Y22178   4.767   5.719   8.516  0.9865 -0.0258  3.2243
  191SLPC  C31822179   4.824   5.550   8.636  0.9251  0.1093  0.6003
  191SLPC  H18X22180   4.800   5.589   8.738 -0.6769  3.1678 -0.8271
  191SLPC  H18Y22181   4.931   5.568   8.613  0.8009  0.0114 -0.0533
  191SLPC  H18Z22182   4.818   5.439   8.631  0.3839  0.1314  0.7099
  192SLPC     N22183   4.931   6.094   6.079  0.0802  0.0955 -0.6876
  192SLPC   C1322184   4.941   6.188   6.189  0.0428  0.7291  0.7661
  192SLPC  H13A22185   4.924   6.142   6.285 -0.6529  2.4295  1.4984
  192SLPC  H13B22186   5.037   6.235   6.192 -0.0938  1.3441 -1.9152
  192SLPC  H13C22187   4.885   6.279   6.177 -1.1016  0.1564  1.5783
  192SLPC   C1422188   4.983   6.163   5.956 -0.2688  0.0867 -0.1889
  192SLPC  H14A22189   5.070   6.218   5.988 -0.1619 -0.9463  1.4088
  192SLPC  H14B22190   5.015   6.088   5.886 -0.0343 -0.7886  0.8337
  192SLPC  H14C22191   4.913   6.236   5.918  1.5391  1.9417 -0.1421
  192SLPC   C1522192   4.791   6.054   6.043  0.5986 -0.0044 -0.0780
  192SLPC  H15A22193   4.781   6.011   5.945 -0.4205  0.4467 -0.1810
  192SLPC  H15B22194   4.746   5.975   6.101  1.0765  0.1835  0.5648
  192SLPC  H15C22195   4.716   6.131   6.039  0.3902 -0.2398 -0.8866
  192SLPC   C1222196   5.012   5.969   6.106 -0.2467  0.1977  0.0664
  192SLPC  H12A22197   5.115   5.999   6.120 -0.0750 -0.3874  0.0856
  192SLPC  H12B22198   5.005   5.908   6.017  0.0975 -0.6555  0.6167
  192SLPC   C1122199   4.980   5.885   6.228  0.3160 -0.1697  0.0151
  192SLPC  H11A22200   4.982   5.938   6.325  0.8739 -0.2117  0.0288
  192SLPC  H11B22201   5.057   5.805   6.237  1.0227  0.3740 -0.9888
  192SLPC     P22202   4.833   5.678   6.297  0.8681 -0.1105  0.0907
  192SLPC   O1322203   4.686   5.657   6.318  0.1141  0.1089 -0.2724
  192SLPC   O1422204   4.911   5.576   6.217 -0.4160  0.0752 -0.5161
  192SLPC   O1222205   4.853   5.823   6.220 -0.1864  0.0535 -0.6201
  192SLPC   O1122206   4.914   5.705   6.433  0.0411  0.4913 -0.1672
  192SLPC    C122207   4.838   5.764   6.540  0.4099  0.3326  0.0253
  192SLPC    HA22208   4.910   5.832   6.590  1.9918 -1.4458  0.2903
  192SLPC    HB22209   4.759   5.834   6.506  0.0038 -0.5989 -1.0303
  192SLPC    C222210   4.783   5.665   6.654 -0.1789 -0.3165 -0.0765
  192SLPC    HS22211   4.748   5.730   6.738 -2.1341 -0.1070 -1.0015
  192SLPC   O2122212   4.890   5.573   6.689  0.4528  0.5344  0.0279
  192SLPC   C2122213   4.989   5.637   6.758 -0.1749 -0.6518  0.4041
  192SLPC   O2222214   4.979   5.754   6.795 -0.0944 -0.3039  0.1709
  192SLPC   C2222215   5.108   5.550   6.787  0.6657  0.0392 -0.4769
  192SLPC   H2R22216   5.131   5.492   6.694  1.6210 -0.4519  0.0457
  192SLPC   H2S22217   5.194   5.618   6.807  1.5878 -1.4051  0.7149
  192SLPC    C322218   4.663   5.589   6.610 -0.1573  0.1124 -0.1466
  192SLPC    HX22219   4.703   5.540   6.518 -0.5353  0.1362 -0.3239
  192SLPC    HY22220   4.579   5.657   6.585  0.3924  1.2921  1.0892
  192SLPC   O3122221   4.641   5.489   6.709 -0.4229  0.0019 -0.3323
  192SLPC   C3122222   4.543   5.506   6.790 -0.3694  0.1901  0.1133
  192SLPC   O3222223   4.480   5.606   6.799  0.2568 -0.1369 -0.6530
  192SLPC   C3222224   4.501   5.384   6.878  0.0152  0.5153  0.4598
  192SLPC   H2X22225   4.575   5.309   6.842  0.0773  0.5203  0.5761
  192SLPC   H2Y22226   4.398   5.347   6.860  0.1406 -0.5278  1.6700
  192SLPC   C2322227   5.105   5.456   6.906 -0.4307 -0.1571 -0.1522
  192SLPC   H3R22228   5.200   5.398   6.908 -1.3230 -1.6650  0.4067
  192SLPC   H3S22229   5.022   5.383   6.897  0.6736 -1.5559  0.6520
  192SLPC   C2422230   5.106   5.530   7.049 -0.5803  0.5722  1.0185
  192SLPC   H4R22231   5.013   5.590   7.059 -0.1748  1.0712  1.9274
  192SLPC   H4S22232   5.190   5.601   7.038  0.7778 -1.2499 -1.6588
  192SLPC   C2522233   5.119   5.429   7.170  0.0099  0.5652  0.1569
  192SLPC   H5R22234   5.205   5.366   7.140  0.3608  0.7014  0.8450
  192SLPC   H5S22235   5.026   5.369   7.179 -0.6237  1.1689 -1.9922
  192SLPC   C2622236   5.154   5.489   7.305  0.0287 -0.7523 -0.1638
  192SLPC   H6R22237   5.071   5.555   7.340  0.3956 -0.4891  0.2296
  192SLPC   H6S22238   5.248   5.548   7.294  0.1530 -1.1488 -1.2863
  192SLPC   C2722239   5.183   5.380   7.412  0.2211 -0.1832  0.2419
  192SLPC   H7R22240   5.249   5.306   7.362 -2.4449 -1.4893 -1.5563
  192SLPC   H7S22241   5.082   5.342   7.436 -1.3953  3.6972  0.2763
  192SLPC   C2822242   5.232   5.436   7.545  0.3488  0.0391 -0.1949
  192SLPC   H8R22243   5.180   5.527   7.584 -0.0554 -0.1368 -0.3180
  192SLPC   H8S22244   5.338   5.464   7.526  0.9356 -1.9158 -0.0355
  192SLPC   C2922245   5.250   5.324   7.645 -0.2162  0.0959  0.0684
  192SLPC   H9R22246   5.345   5.271   7.629  1.2662  1.9745  2.0746
  192SLPC  C21022247   5.178   5.289   7.751  1.1434 -0.2000 -0.5091
  192SLPC  H10R22248   5.214   5.205   7.813  1.9999  0.6695  0.2059
  192SLPC  C21122249   5.046   5.346   7.812  0.5248 -0.6692  0.4534
  192SLPC  H11R22250   4.984   5.403   7.740 -0.3947 -2.6011 -0.3409
  192SLPC  H11S22251   5.091   5.425   7.877  0.6782  1.4102 -2.0249
  192SLPC  C21222252   4.954   5.255   7.894 -0.9337 -0.1212 -0.2672
  192SLPC  H12R22253   4.861   5.215   7.850 -0.9566 -0.9697  0.5070
  192SLPC  C21322254   4.972   5.200   8.016 -0.3431  0.9621  0.4794
  192SLPC  H13R22255   4.903   5.120   8.046 -1.3196  1.0506 -1.3754
  192SLPC  C21422256   5.091   5.221   8.102 -0.1585 -0.0397  0.3420
  192SLPC  H14R22257   5.175   5.268   8.047  0.2349 -0.7763  0.2992
  192SLPC  H14S22258   5.108   5.119   8.143  2.3009  0.9776  2.0991
  192SLPC  C21522259   5.057   5.315   8.216  0.3905  0.0502 -0.7924
  192SLPC  H15R22260   4.956   5.290   8.255  0.3360 -0.8550 -1.4768
  192SLPC  H15S22261   5.041   5.419   8.178  0.3461  0.4584  0.3274
  192SLPC  C21622262   5.143   5.313   8.341  0.0065 -0.9332 -0.1118
  192SLPC  H16R22263   5.128   5.212   8.385 -0.0848 -0.9289 -0.1316
  192SLPC  H16S22264   5.112   5.390   8.414 -0.5547 -1.1209 -0.1448
  192SLPC  C21722265   5.292   5.331   8.310  0.6647 -0.1767 -0.3173
  192SLPC  H17R22266   5.311   5.332   8.200  1.6327 -0.5800 -0.1617
  192SLPC  H17S22267   5.342   5.421   8.351  3.1378 -2.0593  1.0144
  192SLPC  C21822268   5.381   5.214   8.356 -0.0692 -0.2737  0.5172
  192SLPC  H18R22269   5.378   5.199   8.466 -2.5042  0.5354  0.6333
  192SLPC  H18S22270   5.479   5.245   8.315 -1.0204 -0.9419 -2.4647
  192SLPC  H18T22271   5.352   5.120   8.305  2.0100 -0.4822 -0.3738
  192SLPC   C3322272   4.523   5.404   7.032  1.1171  0.0978  0.0447
  192SLPC   H3X22273   4.476   5.318   7.084  0.3049  0.6848  0.2902
  192SLPC   H3Y22274   4.476   5.498   7.066  0.2877  0.1182 -1.1228
  192SLPC   C3422275   4.670   5.429   7.073  0.5209  0.2875 -0.1624
  192SLPC   H4X22276   4.705   5.534   7.068  1.4505  0.0532  0.8161
  192SLPC   H4Y22277   4.742   5.364   7.018  0.6452  0.0604  0.2582
  192SLPC   C3522278   4.704   5.381   7.215  0.3275 -0.7944 -0.6633
  192SLPC   H5X22279   4.812   5.391   7.238  0.2154 -0.6897 -0.1668
  192SLPC   H5Y22280   4.670   5.275   7.218 -1.8807 -0.1698 -1.3886
  192SLPC   C3622281   4.619   5.452   7.319 -0.1782  0.8162 -0.2790
  192SLPC   H6X22282   4.519   5.405   7.321  0.5344 -0.8014  2.4510
  192SLPC   H6Y22283   4.605   5.558   7.288  0.8844  1.3753  1.0500
  192SLPC   C3722284   4.671   5.469   7.464 -0.0042 -0.5810  0.1575
  192SLPC   H7X22285   4.601   5.539   7.514  1.1172  0.7953 -0.1367
  192SLPC   H7Y22286   4.774   5.510   7.462  0.1612 -0.9537  0.6258
  192SLPC   C3822287   4.666   5.336   7.536  0.1723  0.4273  0.4423
  192SLPC   H8X22288   4.709   5.344   7.638  0.5731 -2.0166  0.5188
  192SLPC   H8Y22289   4.732   5.260   7.489  1.6370  0.0322  2.9423
  192SLPC   C3922290   4.518   5.290   7.562 -0.4778  0.6612 -0.1691
  192SLPC   H9X22291   4.519   5.183   7.530  1.9873  0.1477  1.3846
  192SLPC   H9Y22292   4.435   5.343   7.511 -2.8597  0.4543  3.1300
  192SLPC  C31022293   4.475   5.287   7.705  0.0633 -0.5533  0.3931
  192SLPC  H10X22294   4.371   5.249   7.696 -0.8081  1.6691  0.3779
  192SLPC  H10Y22295   4.469   5.391   7.745 -2.8883 -1.1372  1.7250
  192SLPC  C31122296   4.552   5.208   7.801 -0.2377 -0.6087 -0.2136
  192SLPC  H11X22297   4.643   5.258   7.841 -1.4093  2.0107 -0.6108
  192SLPC  H11Y22298   4.605   5.119   7.761  2.4761  0.8116 -0.0339
  192SLPC  C31222299   4.476   5.175   7.930  0.2522  0.6572  0.9280
  192SLPC  H12X22300   4.385   5.125   7.890  0.2164 -1.0856  3.0277
  192SLPC  H12Y22301   4.458   5.273   7.978  0.6636  0.4848  1.4422
  192SLPC  C31322302   4.564   5.091   8.023 -0.0730 -0.0208 -0.0346
  192SLPC  H13X22303   4.670   5.123   8.027  0.2500 -0.7768 -1.6358
  192SLPC  H13Y22304   4.572   4.989   7.981  0.1411 -0.1543  0.3239
  192SLPC  C31422305   4.512   5.079   8.168  0.7460  0.4566 -0.9305
  192SLPC  H14X22306   4.573   4.993   8.205 -0.1134 -0.0481 -0.6546
  192SLPC  H14Y22307   4.404   5.053   8.168  0.9620 -0.5111 -1.2085
  192SLPC  C31522308   4.527   5.204   8.258 -0.0028  0.1565  0.6263
  192SLPC  H15X22309   4.477   5.287   8.204  1.6576  0.9562  0.2573
  192SLPC  H15Y22310   4.634   5.232   8.265  0.3877 -1.6543  3.0864
  192SLPC  C31622311   4.459   5.173   8.401  0.2773 -0.1050  0.2797
  192SLPC  H16X22312   4.349   5.186   8.395  0.3305 -0.2591 -1.6619
  192SLPC  H16Y22313   4.498   5.253   8.467 -1.3494 -1.0210  2.5036
  192SLPC  C31722314   4.497   5.036   8.462  0.1928  0.3891 -0.1796
  192SLPC  H17X22315   4.446   4.963   8.396 -0.5680  1.5125 -0.8558
  192SLPC  H17Y22316   4.451   5.031   8.563  0.9625 -0.7884  0.1271
  192SLPC  C31822317   4.648   4.993   8.468 -0.7854 -0.7156 -0.3835
  192SLPC  H18X22318   4.711   5.068   8.520 -0.0660 -0.6971 -1.2459
  192SLPC  H18Y22319   4.675   4.989   8.360 -1.1366 -1.0773 -0.4591
  192SLPC  H18Z22320   4.670   4.900   8.525  0.1692  0.9090  2.0548
  193SOD    SOD22321   3.633   5.216   5.017 -0.0665 -0.6496  0.0184
  194SOD    SOD22322   0.662   1.181   2.081 -0.2412 -0.4243  0.2166
  195SOD    SOD22323   5.135   5.306  11.534 -0.0811  0.1773 -0.0416
  196SOD    SOD22324   3.547   5.996  12.661 -0.0593  0.4705 -0.8817
  197SOD    SOD22325   4.506   6.538  17.351  0.4297  0.1780  0.4955
  198SOD    SOD22326   3.060   2.946   6.619  0.4197 -0.0051 -0.1005
  199SOD    SOD22327   1.476   1.051   0.149 -0.0728 -0.3953  0.4706
  200SOD    SOD22328   2.252   1.470  14.723 -0.1361  0.4144 -0.2736
  201SOD    SOD22329   6.521   0.940   3.697 -0.0911  0.5937  0.0896
  202SOD    SOD22330   5.856   3.743   6.540  0.1007  0.0172 -0.3213
  203SOD    SOD22331   1.016   5.121   4.687 -0.1247  0.1525 -0.0480
  204SOD    SOD22332   6.792   3.833   0.050  0.1535 -0.3920  0.2553
  205SOD    SOD22333   3.657   3.364  10.711 -0.2002  0.6270  0.0804
  206SOD    SOD22334   2.862   6.506   3.728 -0.4362  0.2897 -0.3187
  207SOD    SOD22335   4.898   2.944  16.676  0.4555  0.4855 -0.1082
  208SOD    SOD22336   0.848   5.413  10.890 -0.5522 -0.0981 -0.0763
  209SOD    SOD22337   4.541   6.431  15.665 -0.0246  0.0996  0.2305
  210SOD    SOD22338   3.410   2.451  16.630 -0.0702 -0.4825 -0.3393
  211SOD    SOD22339   2.725   0.255  11.920  0.1004  0.4059 -0.6692
  212SOD    SOD22340   1.737   4.179  15.763 -0.4060  0.0145 -0.5604
  213SOD    SOD22341   2.734   4.526  11.506  0.2421  0.2057 -0.1742
  214SOD    SOD22342   6.532   2.015  11.609  0.0275 -0.1054 -0.8510
  215SOD    SOD22343   4.488   3.846  16.605 -0.0802  0.4793 -0.0726
  216SOD    SOD22344   1.564   0.304   5.704 -0.3185  0.5901  0.3953
  217SOD    SOD22345   0.135   5.948   4.787  0.0682  0.0860 -0.1893
  218SOD    SOD22346   6.520   4.634  11.298 -0.0710 -0.2454  0.4868
  219SOD    SOD22347   0.560   2.194   0.615 -0.3236  0.2120 -0.1937
  220SOD    SOD22348   0.791   2.818  10.547 -0.3348 -0.0489 -0.3687
  221SOD    SOD22349   3.860   4.612   1.363  0.2841  0.2336 -0.5772
  222SOD    SOD22350   2.899   3.971  17.087  0.0769  0.2419 -0.6519
  223SOD    SOD22351   3.391   3.416   3.027  0.2989  0.5984  0.2441
  224SOD    SOD22352   2.896   4.009  15.336  0.6795  0.1777 -0.2557
  225SOD    SOD22353   6.618   1.974   3.889 -0.0263 -0.4620  0.2320
  226SOD    SOD22354   2.195   0.986  11.003 -0.3753 -0.4312 -0.1488
  227SOD    SOD22355   6.101   4.201   3.627 -0.1991 -0.8018 -0.1703
  228SOD    SOD22356   4.238   1.278   6.349  0.0645 -0.1743  0.3250
  229SOD    SOD22357   4.199   6.027  15.995  0.3290  0.0412  0.4485
  230SOD    SOD22358   0.634   6.759   6.442 -0.1064  0.0110 -0.2630
  231SOD    SOD22359   1.853   1.637  10.804 -0.1614 -0.1237  0.1535
  232SOD    SOD22360   4.899   5.705  13.180 -0.3541  0.1226  0.1893
  233SOD    SOD22361   2.052   3.214   4.718  0.1416  0.2563  0.3973
  234SOD    SOD22362   0.981   5.870  15.833 -0.2306  0.3417  0.1558
  235SOD    SOD22363   5.964   0.734  16.759 -0.2848  0.0648  0.1962
  236SOD    SOD22364   5.073   6.461  17.195 -0.0830 -0.1473 -0.7672
  237SOD    SOD22365   4.619   5.319   1.932 -0.1514 -0.4062 -0.1800
  238SOD    SOD22366   0.892   0.320   4.419  0.1813 -0.2064  0.1734
  239SOD    SOD22367   1.713   3.493  16.531 -0.7100  0.8881  0.4227
  240SOD    SOD22368   2.450   0.512  15.658 -0.1094 -0.0646 -0.5202
  241SOD    SOD22369   2.247   4.778   3.784 -0.0158 -0.2342 -0.7269
  242SOD    SOD22370   4.177   2.407   5.478  0.0004 -0.0645 -0.0848
  243SOD    SOD22371   4.463   1.912  17.098 -0.2424  0.2003  0.0325
  244SOD    SOD22372   0.766   6.618  16.246  0.1497 -0.5042 -0.1534
  245SOD    SOD22373   4.839   3.165   2.724 -0.4237 -0.1300  0.0802
  246SOD    SOD22374   5.439   2.493   5.456  0.4376 -0.5779 -0.3881
  247SOD    SOD22375   3.740   5.180  17.403 -0.2413 -0.1137  0.3300
  248SOD    SOD22376   4.375   3.815  15.448 -0.1490  0.5278 -0.3450
  249SOD    SOD22377   3.834   0.915  16.443  0.1653  0.0553 -0.0811
  250SOD    SOD22378   2.429   3.613  15.036 -0.1579  0.2801 -0.4427
  251SOD    SOD22379   5.989   4.761   5.568  0.0963 -0.1421 -0.1482
  252SOD    SOD22380   3.235   1.756   2.943 -0.5114  0.1161  0.2900
  253SOD    SOD22381   5.998   3.254   4.819  0.2674  0.3342 -0.1649
  254SOD    SOD22382   0.468   2.818   3.193 -0.2805 -0.0074  0.0336
  255SOD    SOD22383   3.044   5.635  11.195 -0.0168  0.0443  0.1990
  256SOD    SOD22384   5.262   6.485   6.288 -0.3578  0.2395 -0.4347
  257SOD    SOD22385   4.689   2.408   1.553 -0.4353  0.4246  0.8209
  258SOD    SOD22386   2.081   1.007  11.593 -0.2675 -0.2279 -0.1021
  259SOD    SOD22387   2.455   4.831  13.936  0.2232  0.1608 -0.1129
  260SOD    SOD22388   2.399   2.892  14.190  0.7304 -0.2820 -0.0779
  261SOD    SOD22389   1.945   3.224  11.813 -0.0062  0.2788 -0.1286
  262SOD    SOD22390   5.281   4.622   5.888 -0.0800 -0.0560  0.4679
  263SOD    SOD22391   0.923   1.188  14.628  0.1184 -0.4687 -0.2549
  264SOD    SOD22392   4.725   2.104  12.172  0.2420  0.4456  0.1746
  265SOD    SOD22393   0.421   6.660   1.959  0.0507  0.3566  0.3165
  266CLA    CLA22394   6.674   6.649  15.744 -0.0807  0.2542 -0.2568
  267CLA    CLA22395   4.371   6.706  14.333  0.0910  0.3512  0.2295
  268CLA    CLA22396   1.021   3.051  12.828  0.0539  0.4240 -0.0945
  269CLA    CLA22397   4.324   4.396  16.451 -0.1964 -0.6770 -0.1774
  270CLA    CLA22398   5.105   6.668   2.038  0.5209 -0.1880 -0.1543
  271CLA    CLA22399   2.168   4.020  15.865  0.1031 -0.0706 -0.2481
  272CLA    CLA22400   5.341   3.445   2.402 -0.2556  0.2335  0.0112
  273CLA    CLA22401   1.476   0.824  16.741  0.1468  0.1508 -0.3265
  274CLA    CLA22402   0.353   1.554   4.469  0.0155 -0.3532 -0.3992
  275CLA    CLA22403   0.462   2.222  15.596  0.1083 -0.2927 -0.0771
  276CLA    CLA22404   3.689   5.288  16.179 -0.0836  0.0439  0.1170
  277CLA    CLA22405   2.897   2.336  16.589 -0.4999  0.0371  0.0703
  278CLA    CLA22406   5.394   4.569  11.994 -0.1151 -0.1689  0.0522
  279CLA    CLA22407   4.363   1.961   2.598  0.0542  0.4334  0.0718
  280CLA    CLA22408   1.853   0.056   2.499  0.1124  0.2425 -0.4053
  281CLA    CLA22409   5.321   3.840  17.305  0.1345  0.3342 -0.2566
  282CLA    CLA22410   2.673   3.688  15.118 -0.0333  0.1892 -0.1383
  283CLA    CLA22411   2.872   3.682   0.131  0.4636  0.0998 -0.0942
  284CLA    CLA22412   3.110   5.267   0.069 -0.3924 -0.6373 -0.0021
  285CLA    CLA22413   1.534   3.697   3.652 -0.0790 -0.0780  0.1510
  286CLA    CLA22414   2.278   5.470  14.607  0.1623 -0.2884  0.2298
  287CLA    CLA22415   5.890   3.081  13.483  0.2553 -0.1471  0.0365
  288CLA    CLA22416   4.497   0.206   0.561  0.3002  0.3578  0.3330
  289CLA    CLA22417   3.414   6.022  13.562  0.2626  0.0391 -0.0221
  290CLA    CLA22418   2.440   6.541  12.548 -0.1217 -0.2391  0.2469
  291CLA    CLA22419   0.618   6.742   3.021 -0.5052 -0.1349  0.0692
  292CLA    CLA22420   2.194   1.368  13.992  0.2242  0.4388  0.3895
  293CLA    CLA22421   5.183   6.019  15.544 -0.0728  0.1389 -0.0902
  294CLA    CLA22422   5.692   0.744  11.301 -0.0523 -0.3635  0.2308
  295CLA    CLA22423   5.396   1.090   0.806  0.1503 -0.2315 -0.2720
  296CLA    CLA22424   1.137   4.172   4.494  0.2779 -0.6287  0.0964
  297CLA    CLA22425   1.945   0.096  15.802  0.1516  0.1181  0.1373
  298CLA    CLA22426   1.334   6.414  16.110  0.1583 -0.3134 -0.3850
  299CLA    CLA22427   4.625   3.275   3.139 -0.3827  0.0507  0.1653
  300CLA    CLA22428   0.019   1.883   0.484  0.0223  0.1280  0.1275
  301CLA    CLA22429   5.412   1.452  14.633  0.1197  0.0228 -0.2770
  302CLA    CLA22430   4.115   4.780   4.244  0.3261 -0.3448  0.2144
  303CLA    CLA22431   1.796   5.884   4.708  0.0708 -0.1360  0.1027
  304CLA    CLA22432   4.508   2.279  16.661 -0.0895 -0.1732  0.1482
  305CLA    CLA22433   3.086   2.701  15.976  0.3813 -0.0038 -0.0375
  306CLA    CLA22434   3.685   3.331   2.298 -0.2244 -0.1269  0.4204
  307CLA    CLA22435   0.522   2.442   1.056 -0.1747 -0.0179  0.3313
  308CLA    CLA22436   1.572   4.546   2.299  0.0398  0.1043  0.0828
  309CLA    CLA22437   4.505   0.967  16.000 -0.1428  0.1977  0.4058
  310CLA    CLA22438   6.240   6.570   3.443 -0.4970 -0.3387  0.1844
  311CLA    CLA22439   0.148   1.033   2.177  0.3403 -0.1894 -0.0862
  312CLA    CLA22440   3.824   0.642  16.460 -0.1165 -0.2471  0.0226
  313CLA    CLA22441   0.768   3.763   5.218 -0.1832 -0.2044  0.1549
  314CLA    CLA22442   1.446   2.315  15.976 -0.0441 -0.0566 -0.4147
  315CLA    CLA22443   0.204   3.177  16.196  0.1440  0.1402  0.0345
  316CLA    CLA22444   5.278   5.099  15.460  0.3674  0.6664 -0.0204
  317CLA    CLA22445   2.235   1.441   4.471 -0.3319  0.2610 -0.1556
  318CLA    CLA22446   1.815   0.512  11.682  0.6912 -0.3023  0.3940
  319TIP3   OH222447   4.728   1.156  12.142  0.2357  0.3670  0.2409
  319TIP3    H122448   4.800   1.096  12.159 -1.9682 -2.2386  1.0556
  319TIP3    H222449   4.701   1.187  12.229  0.2560  1.2198 -0.0422
  320TIP3   OH222450   1.373   6.663   4.090 -0.5394 -0.2649 -0.5885
  320TIP3    H122451   1.426   6.584   4.086  1.8472  1.2468 -0.9556
  320TIP3    H222452   1.411   6.714   4.161 -1.1908  1.0915 -1.1698
  321TIP3   OH222453   2.877   3.433  12.682  0.4633  0.6780 -0.3980
  321TIP3    H122454   2.837   3.500  12.737 -0.0061  0.2001 -0.1465
  321TIP3    H222455   2.965   3.420  12.719  0.1168  0.2956  0.3093
  322TIP3   OH222456   5.542   5.143  11.357  0.6317  0.3017  0.0995
  322TIP3    H122457   5.521   5.236  11.346 -0.6944 -0.1251 -1.2285
  322TIP3    H222458   5.567   5.135  11.449 -1.1624  1.6216  0.7561
  323TIP3   OH222459   1.999   6.507   6.079 -0.5989 -0.0399  0.6176
  323TIP3    H122460   1.916   6.464   6.096  0.0926 -1.1694  1.2318
  323TIP3    H222461   2.044   6.507   6.163  0.2250  0.1180  0.1918
  324TIP3   OH222462   4.525   6.373  13.545  0.3694  0.3365  0.2421
  324TIP3    H122463   4.511   6.285  13.580 -1.5388  0.5983  0.2122
  324TIP3    H222464   4.582   6.360  13.469 -0.6849 -1.0181 -0.3585
  325TIP3   OH222465   6.232   5.182   4.735 -0.8794 -0.6945  0.3372
  325TIP3    H122466   6.173   5.229   4.794 -0.1917 -0.3486  0.7539
  325TIP3    H222467   6.231   5.092   4.768  0.2584 -0.3121  1.5108
  326TIP3   OH222468   4.650   1.205  14.648  0.4416  0.2844 -0.3445
  326TIP3    H122469   4.704   1.278  14.619 -1.0355  2.0657  1.0963
  326TIP3    H222470   4.615   1.234  14.732  0.6384 -2.5676  0.8211
  327TIP3   OH222471   0.106   3.021  13.840 -0.3595  0.6087  0.5213
  327TIP3    H122472   0.166   2.949  13.861  0.2808  1.3571  1.3454
  327TIP3    H222473   0.157   3.100  13.857 -1.0041  1.2676 -0.5072
  328TIP3   OH222474   1.428   5.573  11.573  0.4517 -0.5543  0.4991
  328TIP3    H122475   1.375   5.570  11.653  0.8262 -0.1796  0.7626
  328TIP3    H222476   1.368   5.544  11.504  0.1730 -1.0335  0.9359
  329TIP3   OH222477   1.965   1.353   3.631  0.1140 -0.4363 -0.1851
  329TIP3    H122478   2.045   1.391   3.668 -0.4428  0.1769  0.4148
  329TIP3    H222479   1.940   1.285   3.694  0.0265 -0.4491 -0.2335
  330TIP3   OH222480   4.725   5.860   5.034  0.1821  0.0760 -0.3640
  330TIP3    H122481   4.692   5.811   5.109 -1.9040  1.0378 -0.5785
  330TIP3    H222482   4.712   5.952   5.058  1.8988  0.4976 -0.8793
  331TIP3   OH222483   5.615   4.405  15.391 -0.2461 -0.0695  0.5230
  331TIP3    H122484   5.708   4.429  15.390  0.0458 -0.9895  2.3219
  331TIP3    H222485   5.610   4.326  15.338 -0.3897  1.0848 -1.2771
  332TIP3   OH222486   5.959   4.207  14.227  0.3824  0.6412  0.3391
  332TIP3    H122487   5.935   4.144  14.295  0.8088  1.1906  1.0047
  332TIP3    H222488   5.942   4.293  14.266  0.2448  0.9543 -0.3949
  333TIP3   OH222489   0.170   0.331  16.393  0.1300 -0.0648  0.0707
  333TIP3    H122490   0.201   0.281  16.468  1.1406  0.6953  0.1844
  333TIP3    H222491   0.247   0.379  16.362 -0.7436  1.2599 -0.1479
  334TIP3   OH222492   2.410   0.834   3.712  0.5486  0.1534 -0.2328
  334TIP3    H122493   2.497   0.835   3.672  0.3614  1.5461 -0.6600
  334TIP3    H222494   2.414   0.899   3.781 -0.0191 -0.1165  0.0605
  335TIP3   OH222495   3.758   6.704   1.871  0.3823  0.2162 -0.0592
  335TIP3    H122496   3.695   6.767   1.906  0.6687 -0.4092  1.6861
  335TIP3    H222497   3.815   6.684   1.945 -0.1352 -2.6106 -0.3035
  336TIP3   OH222498   1.057   3.846   5.071  0.0033  0.1175 -0.0760
  336TIP3    H122499   1.056   3.789   4.994  1.5088 -2.2019  1.5060
  336TIP3    H222500   0.984   3.815   5.124  0.4637  0.0650  0.5327
  337TIP3   OH222501   0.693   5.759  15.422 -0.3892 -0.4259  0.8963
  337TIP3    H122502   0.620   5.787  15.477 -0.5006 -0.2950  0.6820
  337TIP3    H222503   0.658   5.759  15.333 -0.5940 -1.9226  0.9613
  338TIP3   OH222504   2.982   4.545   3.448 -0.1826 -0.6574 -0.2284
  338TIP3    H122505   3.035   4.591   3.383  2.1090 -2.6459  0.0571
  338TIP3    H222506   2.971   4.457   3.412 -0.0136 -1.3965  1.4101
  339TIP3   OH222507   4.649   5.421  14.340 -0.0009 -0.1469  0.7856
  339TIP3    H122508   4.653   5.504  14.389 -0.6959  0.4012 -0.0607
  339TIP3    H222509   4.559   5.416  14.309  0.9880  0.9240 -2.7736
  340TIP3   OH222510   6.399   3.278  16.171 -0.0679 -0.3830  0.2417
  340TIP3    H122511   6.324   3.220  16.155 -0.0426 -0.4226  0.2645
  340TIP3    H222512   6.451   3.272  16.090 -1.2053  1.3623 -0.6687
  341TIP3   OH222513   6.430   6.260  13.789  0.1234 -0.8623 -0.2740
  341TIP3    H122514   6.516   6.240  13.825  0.7885  0.7518 -0.8706
  341TIP3    H222515   6.441   6.250  13.694 -0.3342 -0.5952 -0.3580
  342TIP3   OH222516   2.214   2.436  13.558 -0.1061 -0.3828 -0.2212
  342TIP3    H122517   2.269   2.419  13.482 -0.2278 -1.1346 -0.1423
  342TIP3    H222518   2.188   2.350  13.590  0.0773 -0.0903  0.7721
  343TIP3   OH222519   4.415   3.219   0.170 -0.0028 -0.1798  0.5661
  343TIP3    H122520   4.413   3.311   0.143  1.8221 -0.0238  0.8546
  343TIP3    H222521   4.504   3.205   0.201 -0.0554 -2.2210 -0.0505
  344TIP3   OH222522   0.721   3.536   5.031 -0.1426 -0.5898 -0.3762
  344TIP3    H122523   0.733   3.627   5.057  1.4097 -0.4582 -1.4345
  344TIP3    H222524   0.720   3.487   5.114  0.8140  0.1984  0.1122
  345TIP3   OH222525   5.887   6.505  13.029 -0.0575 -0.4299  0.3822
  345TIP3    H122526   5.898   6.599  13.042 -1.3106  0.0901 -1.9056
  345TIP3    H222527   5.835   6.476  13.104 -1.6775  1.1783 -0.0639
  346TIP3   OH222528   6.710   4.521   5.170  0.2418 -0.6411 -0.1730
  346TIP3    H122529   6.739   4.610   5.152  1.5151 -1.1821 -0.9643
  346TIP3    H222530   6.652   4.529   5.245 -0.1299  0.9196 -0.5945
  347TIP3   OH222531   0.310   4.582  13.330  0.2086  0.0009 -0.3418
  347TIP3    H122532   0.267   4.558  13.412  0.2390  1.2962  0.0741
  347TIP3    H222533   0.401   4.558  13.342  0.1619 -0.0535 -0.0997
  348TIP3   OH222534   6.421   4.173   2.891 -0.5597 -0.1068 -0.1813
  348TIP3    H122535   6.402   4.091   2.847 -0.5237 -0.4953  0.5162
  348TIP3    H222536   6.396   4.241   2.828 -0.7383 -0.6494 -0.6953
  349TIP3   OH222537   4.130   1.535  15.889 -0.3967  0.4192  0.0091
  349TIP3    H122538   4.099   1.473  15.823  1.1637 -0.0377 -0.3209
  349TIP3    H222539   4.069   1.523  15.963 -0.2541 -1.3666 -0.1198
  350TIP3   OH222540   3.050   4.356  15.541  0.0177  0.4639  0.4506
  350TIP3    H122541   3.134   4.399  15.559 -0.6226  1.8227  0.3165
  350TIP3    H222542   2.985   4.414  15.581 -1.0542  0.8815 -1.7767
  351TIP3   OH222543   6.201   5.791   1.192  0.0775 -0.0980  0.4496
  351TIP3    H122544   6.256   5.869   1.192 -0.0292 -0.0218  0.2642
  351TIP3    H222545   6.127   5.813   1.249 -0.1945  0.1093  0.0175
  352TIP3   OH222546   5.297   6.484  13.774  0.0253  0.0851 -0.3894
  352TIP3    H122547   5.218   6.431  13.788  0.9161 -0.8509  1.5989
  352TIP3    H222548   5.273   6.571  13.804 -0.2107 -0.2539  0.4527
  353TIP3   OH222549   5.407   4.745  14.681  0.4461  0.2868  0.2554
  353TIP3    H122550   5.392   4.787  14.596  0.9265  1.0659  0.5405
  353TIP3    H222551   5.494   4.707  14.675  0.3492  0.0546  0.2932
  354TIP3   OH222552   4.072   2.182   5.060 -0.7446 -0.1765 -0.3100
  354TIP3    H122553   4.060   2.117   4.990 -1.6232  0.5132 -0.8225
  354TIP3    H222554   4.080   2.130   5.140  0.3123 -0.9856 -0.9143
  355TIP3   OH222555   3.312   2.419  15.269  0.0525 -0.3724 -0.1567
  355TIP3    H122556   3.281   2.337  15.230 -0.6777  0.2291 -0.8790
  355TIP3    H222557   3.315   2.480  15.195  0.2770  0.3403  0.4377
  356TIP3   OH222558   4.200   2.992   2.734  0.0371  0.0800 -0.6638
  356TIP3    H122559   4.122   3.040   2.761 -0.0058 -1.4300  2.4125
  356TIP3    H222560   4.270   3.058   2.730 -1.1034  1.2471 -2.3005
  357TIP3   OH222561   6.400   2.936  10.235 -0.1100  0.2197 -0.1801
  357TIP3    H122562   6.437   3.024  10.230  0.7001 -0.1589 -1.1343
  357TIP3    H222563   6.350   2.936  10.317  0.1482  1.4546  0.0033
  358TIP3   OH222564   0.196   5.836   2.172 -0.3667 -0.3964 -0.0748
  358TIP3    H122565   0.265   5.771   2.188 -0.5131 -0.6717 -0.5413
  358TIP3    H222566   0.238   5.902   2.118 -0.8184 -1.2342 -1.4847
  359TIP3   OH222567   2.497   1.327  11.583  0.0060  0.2020  0.0502
  359TIP3    H122568   2.462   1.273  11.654 -1.2809  2.0561  0.9042
  359TIP3    H222569   2.555   1.390  11.627 -1.9405  2.3271 -0.2664
  360TIP3   OH222570   6.217   3.318  10.895 -0.5546  0.4249  0.3703
  360TIP3    H122571   6.301   3.315  10.850 -0.3651  1.6181  0.6019
  360TIP3    H222572   6.217   3.403  10.940 -1.7965  0.3529  0.5452
  361TIP3   OH222573   2.422   5.658  12.387 -0.2699 -0.0168  0.6148
  361TIP3    H122574   2.404   5.567  12.410 -1.3148  0.0264  0.0636
  361TIP3    H222575   2.368   5.674  12.309 -0.5678  1.2427  1.0528
  362TIP3   OH222576   5.319   1.375  10.676  0.1893  0.2423 -0.5094
  362TIP3    H122577   5.386   1.307  10.665  0.7538  0.9467 -1.5832
  362TIP3    H222578   5.237   1.330  10.655  0.5890 -0.0604 -1.5459
  363TIP3   OH222579   6.069   2.052  11.235  0.1721 -0.0650  0.2131
  363TIP3    H122580   6.127   2.119  11.197 -0.5229  0.6058  0.3202
  363TIP3    H222581   6.020   2.098  11.303  1.0237 -1.1284  1.6038
  364TIP3   OH222582   4.157   0.237  13.733 -0.0994 -0.6353  0.0488
  364TIP3    H122583   4.150   0.234  13.637  0.0883 -1.0571  0.0467
  364TIP3    H222584   4.126   0.152  13.762 -1.2087 -0.1226  0.4365
  365TIP3   OH222585   2.114   6.416   2.742 -0.2295 -0.2426 -0.6479
  365TIP3    H122586   2.161   6.484   2.790 -0.4571  0.0195 -0.7901
  365TIP3    H222587   2.035   6.460   2.710 -0.6817 -0.7296 -0.2227
  366TIP3   OH222588   4.948   6.273   1.457  0.2925 -0.1182  0.7463
  366TIP3    H122589   4.874   6.213   1.461 -0.2559  0.5225  0.5054
  366TIP3    H222590   4.927   6.331   1.383  0.0276  1.3427  1.9030
  367TIP3   OH222591   2.329   5.132  13.359 -0.0120 -0.0499 -0.0390
  367TIP3    H122592   2.300   5.157  13.271  1.5066  1.4031 -0.1786
  367TIP3    H222593   2.419   5.165  13.365 -0.4646  0.9805  2.4717
  368TIP3   OH222594   1.945   4.811  11.080  0.0289  0.6990  0.3094
  368TIP3    H122595   1.893   4.735  11.057  0.0276  0.0891  2.2156
  368TIP3    H222596   2.028   4.799  11.033 -0.0791 -0.3221  0.3757
  369TIP3   OH222597   4.431   5.690  13.166  0.6175 -0.0240 -0.1884
  369TIP3    H122598   4.354   5.633  13.168 -0.3243  1.2206  1.5556
  369TIP3    H222599   4.485   5.660  13.239 -1.7240  3.5291  3.3947
  370TIP3   OH222600   1.262   2.111  13.573 -0.2325  0.3339 -0.8225
  370TIP3    H122601   1.329   2.049  13.543  0.3783 -0.7194  2.2672
  370TIP3    H222602   1.185   2.056  13.590 -0.2480  0.6645  0.2779
  371TIP3   OH222603   0.202   6.378  15.090  0.0156  0.0184 -0.2484
  371TIP3    H122604   0.234   6.290  15.111  1.2048  0.0664 -1.6864
  371TIP3    H222605   0.111   6.366  15.065 -0.7875 -0.3385  2.5391
  372TIP3   OH222606   5.193   1.984   4.471  0.5001 -0.1461 -0.2030
  372TIP3    H122607   5.146   2.066   4.489  1.3269  0.6529 -1.5350
  372TIP3    H222608   5.123   1.921   4.451 -0.1704  0.0843  1.2779
  373TIP3   OH222609   0.890   5.942   3.293 -0.3624 -0.0052  0.4494
  373TIP3    H122610   0.948   5.868   3.273  0.0375  0.1417  1.0582
  373TIP3    H222611   0.860   5.972   3.207  0.7996  0.1933  0.0921
  374TIP3   OH222612   0.300   6.416   5.424 -0.4299  0.0101  0.5404
  374TIP3    H122613   0.275   6.404   5.516  0.2473 -1.1282  0.5847
  374TIP3    H222614   0.317   6.328   5.391 -0.9706  0.3692 -0.7792
  375TIP3   OH222615   1.186   3.620   4.482  0.0175  0.0473  0.2554
  375TIP3    H122616   1.122   3.690   4.491  0.3314  0.6349 -1.6121
  375TIP3    H222617   1.230   3.639   4.399 -0.0215 -2.4718 -0.4087
  376TIP3   OH222618   0.513   2.919  12.659 -0.0363  0.3103  0.3529
  376TIP3    H122619   0.475   2.974  12.590 -0.7484  0.5735  0.9425
  376TIP3    H222620   0.605   2.912  12.635 -0.1429  0.9172 -0.2921
  377TIP3   OH222621   0.365   3.676  11.106 -0.2676 -0.6090 -0.5049
  377TIP3    H122622   0.415   3.666  11.187 -1.3691  0.0165  0.2862
  377TIP3    H222623   0.290   3.617  11.116 -3.2952  3.0856  1.3787
  378TIP3   OH222624   0.956   4.683  11.061  0.0060  0.1565  0.3794
  378TIP3    H122625   0.976   4.606  11.113 -0.2145 -0.9067 -1.0384
  378TIP3    H222626   0.887   4.655  11.001 -0.2013  1.5043 -0.0573
  379TIP3   OH222627   5.821   0.799   0.275  0.2292 -0.3157 -0.5089
  379TIP3    H122628   5.793   0.747   0.199 -1.1807  0.1989 -0.3784
  379TIP3    H222629   5.798   0.889   0.251 -0.8775 -0.2250  0.7804
  380TIP3   OH222630   6.062   5.584   2.203  0.4001  0.2263 -0.0713
  380TIP3    H122631   6.068   5.679   2.189  0.0378  0.2435 -0.1203
  380TIP3    H222632   6.128   5.548   2.145 -0.3945  0.3704 -1.1074
  381TIP3   OH222633   6.338   3.390   2.539  0.1281 -0.1176  0.3109
  381TIP3    H122634   6.379   3.473   2.565 -0.2460  0.4322 -0.7849
  381TIP3    H222635   6.377   3.325   2.597  0.4267  0.8231  1.2092
  382TIP3   OH222636   1.474   5.593  16.600 -0.0856 -0.3194  0.1329
  382TIP3    H122637   1.414   5.632  16.535  0.3785  1.5557  0.7607
  382TIP3    H222638   1.457   5.643  16.680  2.3987  0.3901  0.2885
  383TIP3   OH222639   2.135   3.332  16.298 -0.5026 -0.1441 -0.2650
  383TIP3    H122640   2.050   3.370  16.321 -0.0630  0.3714  0.5782
  383TIP3    H222641   2.148   3.262  16.362 -0.7838 -0.9647 -1.0903
  384TIP3   OH222642   3.985   2.582  15.247 -0.9770 -1.0056  0.2233
  384TIP3    H122643   4.026   2.496  15.247 -0.5955 -0.8469  1.4813
  384TIP3    H222644   3.891   2.565  15.245 -0.9109 -1.3889 -1.8596
  385TIP3   OH222645   0.896   4.188   4.991  0.0532 -0.1292 -0.1275
  385TIP3    H122646   0.991   4.178   4.992 -0.0845 -1.7840  0.8167
  385TIP3    H222647   0.868   4.154   5.076 -1.4056  0.0129 -0.5275
  386TIP3   OH222648   1.040   3.104   0.653 -0.1752  0.5221 -0.5469
  386TIP3    H122649   0.994   3.041   0.709 -0.5655  1.1700 -0.1241
  386TIP3    H222650   0.978   3.121   0.582 -0.0485  0.4003 -0.6886
  387TIP3   OH222651   5.278   5.780   0.797  0.6470 -0.5143 -0.1573
  387TIP3    H122652   5.204   5.732   0.833  1.1319 -0.9377  0.2772
  387TIP3    H222653   5.303   5.841   0.867  0.5582 -0.1926 -0.3988
  388TIP3   OH222654   1.108   0.027  14.521 -0.6173 -0.4635 -0.0911
  388TIP3    H122655   1.117   0.114  14.483  0.0128 -1.1444 -1.6197
  388TIP3    H222656   1.043   0.037  14.590  0.7698  1.5702  1.0012
  389TIP3   OH222657   3.642   6.610   4.682 -0.4575 -0.2438 -0.0318
  389TIP3    H122658   3.649   6.619   4.587  1.2595  1.7755  0.2173
  389TIP3    H222659   3.653   6.516   4.698  2.4061 -0.3037 -1.6722
  390TIP3   OH222660   6.613   3.421  16.955 -0.0989 -0.1995  0.8337
  390TIP3    H122661   6.651   3.334  16.939 -0.1093  0.1140 -1.1852
  390TIP3    H222662   6.606   3.460  16.868 -0.3364  1.7404  1.6755
  391TIP3   OH222663   0.079   0.543  15.494  0.4176  0.0009 -0.5870
  391TIP3    H122664   0.051   0.629  15.464  1.0407  0.6700  0.6553
  391TIP3    H222665   0.084   0.490  15.415 -0.8138  0.8531 -1.2706
  392TIP3   OH222666   4.862   6.476  16.185  0.3074 -0.0541  0.0448
  392TIP3    H122667   4.891   6.411  16.250 -1.6944 -0.2590  0.8171
  392TIP3    H222668   4.822   6.546  16.238 -2.2399 -0.6644 -0.9185
  393TIP3   OH222669   3.971   0.785  17.005  0.0779 -0.2704 -0.1106
  393TIP3    H122670   4.042   0.846  16.984 -0.9567  0.9717 -0.1526
  393TIP3    H222671   3.892   0.831  16.978 -0.6925 -2.0488 -1.0219
  394TIP3   OH222672   4.035   0.752  12.560 -0.1488  0.7376  0.4104
  394TIP3    H122673   4.010   0.822  12.500 -1.8843 -0.2152 -0.0596
  394TIP3    H222674   3.969   0.684  12.546  1.7512 -1.2212  0.4795
  395TIP3   OH222675   0.346   1.985  17.143  0.0845 -0.0171 -0.1893
  395TIP3    H122676   0.327   2.013  17.054  0.9160  2.1069  0.2297
  395TIP3    H222677   0.336   1.890  17.142 -1.4763  0.1159 -2.1340
  396TIP3   OH222678   2.145   5.071   2.865 -0.4744 -0.5811  0.9017
  396TIP3    H122679   2.118   5.130   2.936  0.6112  1.5787 -0.3693
  396TIP3    H222680   2.103   5.106   2.787  1.4601 -0.5093 -0.1602
  397TIP3   OH222681   6.722   4.139   4.862  0.4025  0.0401  0.2563
  397TIP3    H122682   6.714   4.225   4.904 -0.4820  0.6309 -1.0599
  397TIP3    H222683   6.702   4.156   4.770  0.8256 -1.4838 -0.1330
  398TIP3   OH222684   1.163   2.414   2.467  0.3262  0.8857  0.2010
  398TIP3    H122685   1.108   2.348   2.508  0.6864  1.2602  1.3145
  398TIP3    H222686   1.222   2.365   2.410  0.5062  0.2545  0.9149
  399TIP3   OH222687   5.656   2.304   0.295 -0.3330 -0.6522 -0.3239
  399TIP3    H122688   5.689   2.393   0.290 -1.2885 -0.2936 -0.5192
  399TIP3    H222689   5.580   2.303   0.237 -0.0263 -1.7376 -0.7372
  400TIP3   OH222690   1.646   6.610   3.213  0.0050  0.6398 -0.2911
  400TIP3    H122691   1.610   6.524   3.236 -0.5564  0.5568 -1.4322
  400TIP3    H222692   1.604   6.633   3.131  0.8026  1.6246 -0.4474
  401TIP3   OH222693   2.728   2.649   6.604  0.3669  0.3188 -0.5748
  401TIP3    H122694   2.640   2.628   6.572 -0.6987 -0.5459  2.5313
  401TIP3    H222695   2.780   2.571   6.582 -0.3841 -0.3601 -0.0134
  402TIP3   OH222696   2.107   1.073  11.804 -0.0288 -0.8072  0.1618
  402TIP3    H122697   2.090   1.165  11.826 -0.9982 -1.0204  0.3630
  402TIP3    H222698   2.104   1.028  11.888  2.2064 -0.7999  0.2986
  403TIP3   OH222699   4.887   6.568   2.618 -0.5255  0.1460  0.2713
  403TIP3    H122700   4.970   6.570   2.665 -0.3065  1.7385 -0.1320
  403TIP3    H222701   4.890   6.644   2.560 -1.0906 -1.3117 -1.7946
  404TIP3   OH222702   5.954   3.632  17.055 -0.6021  0.3898 -0.2496
  404TIP3    H122703   5.871   3.612  17.099  0.5788 -1.4838  1.3452
  404TIP3    H222704   5.976   3.551  17.008  1.6312 -0.2890  1.7353
  405TIP3   OH222705   5.467   5.418  13.095  0.3803 -0.1255  0.0861
  405TIP3    H122706   5.562   5.413  13.104  0.6943  0.4517 -2.2291
  405TIP3    H222707   5.453   5.429  13.001 -1.9172  1.2590  0.5360
  406TIP3   OH222708   4.425   2.718   1.474 -0.4016 -0.0152 -0.4538
  406TIP3    H122709   4.416   2.789   1.537 -1.3622 -0.6949  0.2000
  406TIP3    H222710   4.519   2.696   1.476 -0.4110 -0.0121  0.7420
  407TIP3   OH222711   2.368   0.378   2.282  0.2858  0.5058  0.2736
  407TIP3    H122712   2.332   0.443   2.223  1.0600  0.2721 -0.4785
  407TIP3    H222713   2.462   0.397   2.284  0.4158 -0.1345  0.6143
  408TIP3   OH222714   2.386   5.222   2.042 -0.6100  0.3488  0.4179
  408TIP3    H122715   2.413   5.134   2.013 -1.9332 -0.3763  1.3025
  408TIP3    H222716   2.299   5.234   2.005 -0.8975  0.8266  1.2326
  409TIP3   OH222717   0.603   1.341  12.681 -0.7961  0.0598 -0.0973
  409TIP3    H122718   0.590   1.435  12.677  2.2295  0.5610 -0.4258
  409TIP3    H222719   0.641   1.326  12.768  4.0195  0.1038 -1.9131
  410TIP3   OH222720   5.939   6.730   4.312  0.9992  0.5347  0.4904
  410TIP3    H122721   5.895   6.796   4.366  1.1293  1.7223 -0.7845
  410TIP3    H222722   6.031   6.739   4.335  1.0649  1.0974  0.0456
  411TIP3   OH222723   2.038   4.468  13.913  0.4781 -0.1500  0.1987
  411TIP3    H122724   1.996   4.526  13.976 -1.7023  0.6627 -1.8519
  411TIP3    H222725   2.110   4.428  13.962 -1.0057  0.4774  3.1387
  412TIP3   OH222726   2.449   5.626   3.639 -0.1336 -0.0222  0.2181
  412TIP3    H122727   2.512   5.639   3.568 -0.1672  0.2030  0.2299
  412TIP3    H222728   2.503   5.595   3.713 -0.3265 -2.0319 -0.4183
  413TIP3   OH222729   5.897   0.750   4.574 -0.4985  0.0624 -0.5295
  413TIP3    H122730   5.813   0.793   4.556 -0.4765  0.9209  1.1720
  413TIP3    H222731   5.960   0.822   4.578 -0.2370 -0.2228  1.1241
  414TIP3   OH222732   0.829   2.888   0.031 -0.0977  0.1308 -0.2107
  414TIP3    H122733   0.876   2.804   0.023  0.4447  0.3320  0.6981
  414TIP3    H222734   0.803   2.909  -0.059 -0.3622 -1.0733 -0.4432
  415TIP3   OH222735   3.356   4.284   4.370 -0.2604 -0.0051  0.0127
  415TIP3    H122736   3.335   4.200   4.329  1.3517 -0.3557 -0.1667
  415TIP3    H222737   3.311   4.282   4.455  0.7158 -1.5706  0.5218
  416TIP3   OH222738   6.210   4.829   5.587  0.5850 -0.4140  0.4807
  416TIP3    H122739   6.280   4.773   5.619  1.2028  0.2347  0.2950
  416TIP3    H222740   6.254   4.894   5.533 -0.1445  0.1017  0.4895
  417TIP3   OH222741   1.328   4.531   0.884 -0.3081  0.7148  0.3764
  417TIP3    H122742   1.261   4.463   0.889  0.3840 -0.1722 -1.5123
  417TIP3    H222743   1.351   4.536   0.791  1.5896  1.6255  0.8329
  418TIP3   OH222744   1.782   1.827  11.572 -0.1238  0.0461 -0.1606
  418TIP3    H122745   1.793   1.732  11.568 -0.4983  0.0066 -0.2505
  418TIP3    H222746   1.687   1.841  11.573 -0.1147  0.5000 -1.9448
  419TIP3   OH222747   5.056   2.679  15.887  0.0771 -0.4240 -0.1141
  419TIP3    H122748   5.057   2.670  15.791 -0.4184 -1.5729 -0.0274
  419TIP3    H222749   4.967   2.710  15.906 -0.1582 -1.1852  0.0449
  420TIP3   OH222750   4.497   5.926   0.263 -0.1653 -0.1501 -1.2763
  420TIP3    H122751   4.566   5.962   0.207  0.3417  0.4859 -0.2859
  420TIP3    H222752   4.420   5.981   0.244  0.2789  0.7247 -0.6481
  421TIP3   OH222753   3.390   0.322   5.647  0.3917  0.2388 -0.2464
  421TIP3    H122754   3.348   0.244   5.683  0.0543  0.6876  0.3574
  421TIP3    H222755   3.334   0.349   5.574 -0.0632  0.4924  0.1849
  422TIP3   OH222756   6.268   5.967   2.764  0.2068  0.3061 -0.8905
  422TIP3    H122757   6.342   5.933   2.814  1.0524  0.8963 -1.7077
  422TIP3    H222758   6.262   5.908   2.689 -1.8264 -1.3240  0.4409
  423TIP3   OH222759   4.372   5.590  17.158 -0.2304  0.0007 -0.0954
  423TIP3    H122760   4.397   5.607  17.067  0.0201 -1.7277 -0.3837
  423TIP3    H222761   4.436   5.638  17.210 -0.3755  1.0043 -0.8114
  424TIP3   OH222762   0.719   1.251  15.182  0.1727  0.3740 -0.2174
  424TIP3    H122763   0.682   1.336  15.206  0.5530  0.8191 -1.1409
  424TIP3    H222764   0.784   1.233  15.250 -2.1514 -0.7843  1.8844
  425TIP3   OH222765   0.216   0.240   6.150 -0.0767 -0.2522  0.4242
  425TIP3    H122766   0.129   0.199   6.153  0.4489 -1.5694 -0.8960
  425TIP3    H222767   0.276   0.171   6.177  0.7892 -0.2295 -1.2888
  426TIP3   OH222768   3.618   1.862   3.584  0.3471  0.2784 -0.6404
  426TIP3    H122769   3.616   1.768   3.569 -0.1990  0.0332  0.7898
  426TIP3    H222770   3.674   1.874   3.661 -0.2902  1.0277 -0.2728
  427TIP3   OH222771   4.139   2.216   0.554 -0.1244 -0.4481  0.8281
  427TIP3    H122772   4.214   2.266   0.522 -0.9234  1.6503  2.0803
  427TIP3    H222773   4.075   2.281   0.580 -1.7873 -2.1659  1.2826
  428TIP3   OH222774   6.781   6.702  13.490  0.0013  0.1269  0.4080
  428TIP3    H122775   6.858   6.661  13.528  0.8731  1.0079 -0.3684
  428TIP3    H222776   6.798   6.704  13.396 -1.9099 -1.5653 -0.0562
  429TIP3   OH222777   1.209   1.237  11.787  0.1045  0.2981  0.2779
  429TIP3    H122778   1.292   1.284  11.791  1.0764 -1.1526 -1.3618
  429TIP3    H222779   1.219   1.177  11.714 -2.0177 -0.6720  0.7046
  430TIP3   OH222780   0.163   0.741   4.215  0.6561 -0.0643  0.4151
  430TIP3    H122781   0.176   0.699   4.300  3.9250 -0.9445 -0.3775
  430TIP3    H222782   0.200   0.679   4.152 -0.0223  1.3518 -1.4745
  431TIP3   OH222783   5.788   4.470   4.774  0.1765  0.3966 -0.2549
  431TIP3    H122784   5.758   4.443   4.688  1.9763  1.5200 -1.2953
  431TIP3    H222785   5.854   4.405   4.798 -0.6072 -0.1414  0.4713
  432TIP3   OH222786   0.663   6.543  13.354  0.3494  0.3889  0.6680
  432TIP3    H122787   0.629   6.632  13.361  0.9930  0.7773 -0.8605
  432TIP3    H222788   0.758   6.552  13.362  0.6107  0.1417 -1.4945
  433TIP3   OH222789   4.679   6.758  12.446 -0.0498 -0.3221 -0.4579
  433TIP3    H122790   4.665   6.745  12.539  0.5542  2.3057  0.0655
  433TIP3    H222791   4.770   6.734  12.431 -0.1174 -0.6434 -0.3668
  434TIP3   OH222792   0.429   1.800   0.989 -0.1036  0.0589  0.0427
  434TIP3    H122793   0.431   1.769   0.898 -1.2104  1.2130 -0.4190
  434TIP3    H222794   0.426   1.896   0.981 -0.7742  0.1632  1.2734
  435TIP3   OH222795   6.766   0.119   1.397  0.4401 -0.0613 -0.3307
  435TIP3    H122796   6.691   0.164   1.357  0.3536 -1.8976 -2.4600
  435TIP3    H222797   6.842   0.169   1.367  0.2766 -0.5848 -1.7102
  436TIP3   OH222798   5.509   5.323  15.472  0.4170  0.9651 -0.2177
  436TIP3    H122799   5.458   5.243  15.457 -0.5987  1.3090  1.2141
  436TIP3    H222800   5.467   5.388  15.415  0.6292  0.7255 -0.6524
  437TIP3   OH222801   6.110   3.897   2.667 -0.6193  0.1002 -0.6855
  437TIP3    H122802   6.027   3.900   2.714 -0.1425 -0.9746  0.2850
  437TIP3    H222803   6.127   3.803   2.655  0.8021  0.2722 -0.2012
  438TIP3   OH222804   0.483   4.448  13.527 -0.2386  0.0580 -0.0706
  438TIP3    H122805   0.558   4.412  13.574  0.6303 -0.9342 -2.1101
  438TIP3    H222806   0.441   4.372  13.487 -2.2301  0.6270  0.8222
  439TIP3   OH222807   5.723   5.352  14.979 -0.2374 -0.5520 -0.1316
  439TIP3    H122808   5.704   5.291  15.050 -0.3688 -1.5930 -1.0391
  439TIP3    H222809   5.645   5.407  14.972 -0.2228 -0.4412  0.5248
  440TIP3   OH222810   6.695   6.514  14.337 -0.5961  0.3357  0.1171
  440TIP3    H122811   6.669   6.536  14.248 -1.1907  0.5864  0.3508
  440TIP3    H222812   6.751   6.436  14.327  0.3406  1.0773 -0.5730
  441TIP3   OH222813   0.559   6.687  15.071  0.0668  0.1111  0.4622
  441TIP3    H122814   0.494   6.645  15.014  1.0421  0.5641 -1.0419
  441TIP3    H222815   0.563   6.631  15.148 -0.5884 -1.0750 -0.3351
  442TIP3   OH222816   6.347   4.128   5.105 -0.2057  0.2545 -0.2185
  442TIP3    H122817   6.379   4.090   5.187  2.3324  0.6061 -0.9783
  442TIP3    H222818   6.339   4.221   5.124  1.0199  0.4354 -0.5261
  443TIP3   OH222819   5.440   0.703   6.190 -0.2446 -0.1679 -0.2696
  443TIP3    H122820   5.531   0.674   6.180  0.0586  0.2602  1.0344
  443TIP3    H222821   5.447   0.796   6.212 -0.9262 -0.4048  1.0024
  444TIP3   OH222822   1.975   5.539   0.705  0.3529 -0.2061 -1.0084
  444TIP3    H122823   1.998   5.632   0.708  0.5068 -0.2139 -1.6892
  444TIP3    H222824   2.052   5.496   0.668  1.1166 -0.9141  1.2273
  445TIP3   OH222825   3.380   0.324  10.664  0.7130  0.0891  0.0222
  445TIP3    H122826   3.398   0.242  10.618  4.6603 -0.6818  2.5173
  445TIP3    H222827   3.429   0.390  10.615  0.5790  0.2668  0.1276
  446TIP3   OH222828   3.727   2.805  16.952 -0.4193 -0.4236  0.0445
  446TIP3    H122829   3.725   2.768  17.040 -1.4741 -1.0165 -0.2019
  446TIP3    H222830   3.811   2.849  16.946  0.7238 -2.3939  0.5285
  447TIP3   OH222831   1.159   5.026   5.339  0.1087 -0.4070  0.4080
  447TIP3    H122832   1.108   5.107   5.333 -0.6475 -0.9457 -0.7301
  447TIP3    H222833   1.249   5.056   5.348 -0.1169  0.5720 -0.3908
  448TIP3   OH222834   2.888   3.626   2.057  0.2112  0.1015  0.0439
  448TIP3    H122835   2.960   3.564   2.051 -1.1137 -1.3685 -1.8906
  448TIP3    H222836   2.864   3.626   2.150  0.3569 -2.2318  0.1293
  449TIP3   OH222837   1.981   5.020   5.784 -0.1360  0.2887  0.1621
  449TIP3    H122838   1.972   4.974   5.701 -1.2820  0.6002  0.0896
  449TIP3    H222839   2.029   4.960   5.840  0.9601  0.2054 -0.8108
  450TIP3   OH222840   4.409   6.666  13.564 -0.1434  0.1910 -0.1524
  450TIP3    H122841   4.481   6.605  13.571 -0.9498 -0.8588 -0.7126
  450TIP3    H222842   4.406   6.711  13.648 -0.4359 -1.5751  0.8125
  451TIP3   OH222843   1.039   2.091   0.665  0.4370 -0.0049 -0.0597
  451TIP3    H122844   1.013   2.181   0.685  2.7813  0.5107  1.0082
  451TIP3    H222845   1.132   2.097   0.645  0.5658 -2.1679 -0.3694
  452TIP3   OH222846   6.566   2.386  17.407  0.2109  0.1744 -0.0905
  452TIP3    H122847   6.615   2.339  17.475  2.0461 -1.4858 -2.4037
  452TIP3    H222848   6.601   2.475  17.410  1.9436 -0.4621 -0.3072
  453TIP3   OH222849   3.261   2.343   6.665 -0.0630 -0.4232  0.1844
  453TIP3    H122850   3.307   2.275   6.615  0.3080  0.3972 -0.6051
  453TIP3    H222851   3.177   2.352   6.620  0.1155  0.0390 -0.0598
  454TIP3   OH222852   4.890   1.435   2.386  0.0247  0.2617  0.0338
  454TIP3    H122853   4.868   1.502   2.451  0.3984 -0.3031  0.7548
  454TIP3    H222854   4.845   1.356   2.417 -0.0723  0.0672 -0.5837
  455TIP3   OH222855   6.412   1.869   4.916 -0.0590 -0.4856  0.2585
  455TIP3    H122856   6.492   1.829   4.948 -1.3004 -1.5197  2.2671
  455TIP3    H222857   6.370   1.801   4.865 -0.0326 -0.2007 -0.1479
  456TIP3   OH222858   4.638   4.434  17.026 -0.1909 -0.2370  0.0276
  456TIP3    H122859   4.601   4.486  17.096 -0.1797  0.6345 -0.5991
  456TIP3    H222860   4.728   4.466  17.017  0.0424 -0.8495  0.0959
  457TIP3   OH222861   2.395   1.117   1.098 -0.2232 -0.2374 -0.5747
  457TIP3    H122862   2.398   1.027   1.066 -1.0740  0.2308 -2.0727
  457TIP3    H222863   2.302   1.139   1.098 -0.2377 -0.0415  1.8694
  458TIP3   OH222864   2.603   5.347  15.511  0.0524 -0.1216 -0.8554
  458TIP3    H122865   2.524   5.318  15.555 -0.1146 -1.0036 -1.6956
  458TIP3    H222866   2.674   5.321  15.569 -0.1925 -0.7731 -0.8376
  459TIP3   OH222867   5.971   5.932  13.843  0.3351 -0.4672  0.0689
  459TIP3    H122868   5.976   5.998  13.774 -0.3274 -1.4397 -0.9352
  459TIP3    H222869   6.061   5.927  13.877  1.0337 -1.0043 -1.7321
  460TIP3   OH222870   3.496   4.647  11.132  0.6330 -0.2274 -0.2048
  460TIP3    H122871   3.534   4.730  11.161  1.6050 -0.3133 -1.1376
  460TIP3    H222872   3.553   4.580  11.170  0.8497 -0.3980 -0.8164
  461TIP3   OH222873   5.062   3.166   0.863  0.2628 -0.3602 -0.2202
  461TIP3    H122874   5.046   3.107   0.789 -0.3584 -1.0498  0.4534
  461TIP3    H222875   4.976   3.180   0.902  0.1426  2.2162 -1.2483
  462TIP3   OH222876   2.929   3.029  15.207  0.1403  0.0905 -0.3724
  462TIP3    H122877   2.861   3.025  15.275 -0.6127  0.5396 -1.0793
  462TIP3    H222878   3.000   2.974  15.241  0.2395  1.1670  1.2776
  463TIP3   OH222879   1.971   3.767  12.304 -0.1104 -0.1799  0.0182
  463TIP3    H122880   1.893   3.762  12.249  1.2716  0.0702 -2.0898
  463TIP3    H222881   2.034   3.818  12.253  1.1517  0.4375  2.0354
  464TIP3   OH222882   4.974   0.191   1.698  0.4515 -0.2992  0.1270
  464TIP3    H122883   4.957   0.104   1.733  1.9442 -0.4245  0.5994
  464TIP3    H222884   4.941   0.251   1.765  3.6236 -0.5295  2.1055
  465TIP3   OH222885   3.010   0.810   4.097  0.2681  0.3763  0.7704
  465TIP3    H122886   2.968   0.875   4.154 -2.1416 -1.3879  1.1733
  465TIP3    H222887   2.939   0.749   4.074  0.9544  1.0853 -4.4515
  466TIP3   OH222888   0.905   6.542  15.600 -0.0049  0.3920  0.5570
  466TIP3    H122889   0.989   6.588  15.590 -0.1718  0.8223  1.1317
  466TIP3    H222890   0.874   6.531  15.510  0.2769  0.9555  0.3828
  467TIP3   OH222891   3.724   0.958   5.578  0.3621  0.5534  0.6267
  467TIP3    H122892   3.678   0.992   5.501 -0.9289 -2.2690  0.0275
  467TIP3    H222893   3.655   0.922   5.633  1.6438 -2.2690  0.5431
  468TIP3   OH222894   4.850   2.250  13.435 -0.5678  0.5069 -0.3893
  468TIP3    H122895   4.829   2.342  13.420 -0.6268  0.7363  0.9504
  468TIP3    H222896   4.769   2.212  13.468  0.1710  0.6820  1.8184
  469TIP3   OH222897   3.452   2.095   3.257  0.3263 -0.8021 -0.2553
  469TIP3    H122898   3.385   2.071   3.193 -0.0761 -2.0907  0.6017
  469TIP3    H222899   3.423   2.053   3.338  1.5123 -0.3122  0.4415
  470TIP3   OH222900   2.134   0.660   0.585 -0.7536 -0.4157 -0.7432
  470TIP3    H122901   2.194   0.727   0.552 -1.8177  0.8090 -0.2501
  470TIP3    H222902   2.160   0.580   0.538  0.7923  0.2326 -1.0500
  471TIP3   OH222903   6.422   2.736  16.470 -0.0567 -0.1642  0.1899
  471TIP3    H122904   6.356   2.711  16.535  1.0115 -2.3739  0.5321
  471TIP3    H222905   6.380   2.720  16.385 -0.8588  1.0798  0.3226
  472TIP3   OH222906   5.073   1.394  11.490  0.1071 -0.3246 -0.0567
  472TIP3    H122907   4.986   1.397  11.530  0.2867  0.4239  0.2890
  472TIP3    H222908   5.119   1.325  11.539 -1.1935 -2.9026 -2.1783
  473TIP3   OH222909   0.748   5.307  15.475 -0.3331 -0.4154 -0.3286
  473TIP3    H122910   0.727   5.299  15.382  1.4055  1.7486 -1.0070
  473TIP3    H222911   0.683   5.369  15.509  0.2889  0.4223 -0.6327
  474TIP3   OH222912   3.890   0.554  11.900  0.2176 -0.2844 -0.2171
  474TIP3    H122913   3.934   0.506  11.970 -0.3597  0.6399  0.8218
  474TIP3    H222914   3.810   0.587  11.941 -0.1078  0.3270 -1.3031
  475TIP3   OH222915   6.670   5.969   3.031 -0.3567  0.1937 -0.4974
  475TIP3    H122916   6.693   6.036   3.096 -2.6779 -0.3554  0.9844
  475TIP3    H222917   6.753   5.925   3.012  0.6197  1.2711  1.0423
  476TIP3   OH222918   1.393   0.211   6.922 -0.3507 -0.6224 -0.9031
  476TIP3    H122919   1.353   0.175   6.843  0.1418 -0.6728 -1.1376
  476TIP3    H222920   1.464   0.150   6.942 -1.2069 -1.2641  0.2731
  477TIP3   OH222921   3.533   4.483   4.292 -0.1424  0.0449 -0.1852
  477TIP3    H122922   3.623   4.451   4.294  0.0929  0.7512  0.8020
  477TIP3    H222923   3.481   4.408   4.320  0.3344  0.2472  1.3014
  478TIP3   OH222924   5.948   5.105   1.656  0.0929 -0.0299  0.4186
  478TIP3    H122925   6.018   5.105   1.722  0.3489 -0.2551  0.1530
  478TIP3    H222926   5.891   5.177   1.682 -0.6865 -1.1055  1.8013
  479TIP3   OH222927   6.428   4.352   0.905  0.3563 -0.2772 -0.4124
  479TIP3    H122928   6.470   4.347   0.820  1.0710 -0.8598 -0.0307
  479TIP3    H222929   6.438   4.443   0.932  2.1704 -0.5681  0.0525
  480TIP3   OH222930   6.513   0.101   1.998  0.2895  0.0091  0.2308
  480TIP3    H122931   6.523   0.044   1.922 -1.5906 -2.0096  1.3635
  480TIP3    H222932   6.482   0.185   1.962 -2.2713 -1.4165 -1.1998
  481TIP3   OH222933   6.605   1.094  14.955 -0.3571  0.6511  0.2530
  481TIP3    H122934   6.692   1.121  14.986  0.3469 -1.6618  0.4820
  481TIP3    H222935   6.564   1.054  15.031 -0.0256 -1.8182 -0.7747
  482TIP3   OH222936   5.260   5.362  16.367 -0.6302  0.2653 -0.2653
  482TIP3    H122937   5.207   5.306  16.310  0.8296 -1.8953  0.3644
  482TIP3    H222938   5.272   5.311  16.447  2.1292  0.7348 -0.2608
  483TIP3   OH222939   1.197   5.768   5.627  0.0920 -0.0344 -0.0998
  483TIP3    H122940   1.227   5.772   5.536 -0.1441 -1.3655 -0.2496
  483TIP3    H222941   1.213   5.857   5.660 -0.5695  0.7128 -1.6550
  484TIP3   OH222942   0.621   6.571   4.780  0.3690  0.0580 -0.2154
  484TIP3    H122943   0.537   6.614   4.765 -0.4213 -1.8568 -1.6770
  484TIP3    H222944   0.677   6.639   4.818 -0.8971  2.2700 -2.0754
  485TIP3   OH222945   3.157   1.238  16.820 -0.1028  0.2297 -0.4528
  485TIP3    H122946   3.093   1.254  16.889 -0.7368 -1.0233 -0.7203
  485TIP3    H222947   3.241   1.240  16.864 -0.4985 -0.5070  0.3674
  486TIP3   OH222948   6.551   1.284   4.758  0.5720 -0.0812 -0.2445
  486TIP3    H122949   6.493   1.239   4.820  1.6404 -1.0968  0.0501
  486TIP3    H222950   6.492   1.318   4.691 -0.6783  1.4103  1.4804
  487TIP3   OH222951   1.625   4.910   0.763  0.1004  0.2411  0.2300
  487TIP3    H122952   1.555   4.853   0.793 -0.0039  0.1135 -0.2346
  487TIP3    H222953   1.703   4.855   0.762  0.0190  0.1262 -0.1259
  488TIP3   OH222954   5.340   0.629   5.073  0.2866  0.1350  0.5682
  488TIP3    H122955   5.398   0.702   5.054 -0.0788  0.3389  0.2135
  488TIP3    H222956   5.348   0.615   5.167  3.7895 -2.2829  0.1123
  489TIP3   OH222957   4.435   2.724   2.334 -1.0770 -0.0650 -0.4634
  489TIP3    H122958   4.436   2.648   2.392 -1.3657 -0.0673 -0.4601
  489TIP3    H222959   4.348   2.763   2.347 -1.0549  0.0697 -0.7172
  490TIP3   OH222960   3.275   0.007   2.825  0.3467 -0.1285  0.7616
  490TIP3    H122961   3.184  -0.017   2.808 -0.6776  0.2809  4.6987
  490TIP3    H222962   3.305   0.048   2.744 -4.0391  2.7411  0.2555
  491TIP3   OH222963   5.545   6.616  12.396 -0.1920 -0.2550  0.5010
  491TIP3    H122964   5.601   6.552  12.442 -0.4093  1.1478  2.8633
  491TIP3    H222965   5.605   6.662  12.338  0.4956 -0.8332  0.7311
  492TIP3   OH222966   5.933   3.067   2.657 -0.8063  0.3045  0.1047
  492TIP3    H122967   6.001   3.104   2.602  0.6877 -0.9120  1.0326
  492TIP3    H222968   5.857   3.124   2.644  0.3326  1.6289 -1.0666
  493TIP3   OH222969   4.194   2.712   2.723  0.4214 -0.6827 -0.2740
  493TIP3    H122970   4.102   2.692   2.741  0.8614 -2.3296  0.3569
  493TIP3    H222971   4.198   2.808   2.722 -1.5842 -0.5465 -1.9613
  494TIP3   OH222972   3.216   2.330   4.960 -0.1881 -0.2793  0.4070
  494TIP3    H122973   3.276   2.395   4.997 -1.6471  1.3317  0.0818
  494TIP3    H222974   3.215   2.259   5.024  0.2393  0.7395  1.5943
  495TIP3   OH222975   4.756   1.472  14.462  0.0007  0.1285  0.2970
  495TIP3    H122976   4.727   1.473  14.371  0.3014 -1.7489  0.1435
  495TIP3    H222977   4.851   1.486  14.456 -0.1451  1.2518  0.4333
  496TIP3   OH222978   2.748   3.551  12.457  0.4480 -0.1124  1.0940
  496TIP3    H122979   2.809   3.525  12.526  0.5505 -2.1214  0.3042
  496TIP3    H222980   2.681   3.484  12.456  0.4164 -0.1178 -0.7024
  497TIP3   OH222981   6.021   2.372  15.089 -0.1507 -0.0228  0.3814
  497TIP3    H122982   6.041   2.380  15.182  1.9397  0.6037 -0.0673
  497TIP3    H222983   6.036   2.460  15.054  1.1402 -0.7097 -0.8863
  498TIP3   OH222984   3.464   1.944  12.471  0.0819  0.3965 -0.7130
  498TIP3    H122985   3.369   1.934  12.474  0.0320  0.2706 -1.9356
  498TIP3    H222986   3.490   1.961  12.561 -1.1126  0.5534 -0.3850
  499TIP3   OH222987   1.947   1.084  13.310  0.1557 -0.2724  0.1207
  499TIP3    H122988   1.860   1.123  13.300 -1.2142 -1.9668  3.4825
  499TIP3    H222989   1.938   0.995  13.275  0.2365 -0.7383  1.2414
  500TIP3   OH222990   5.380   2.624   1.078  0.1260 -0.2559 -0.2781
  500TIP3    H122991   5.416   2.643   1.165 -0.6943 -0.8892  0.2170
  500TIP3    H222992   5.390   2.706   1.029  0.8859  0.0099  0.3073
  501TIP3   OH222993   6.686   1.089  11.098 -0.4027 -0.5871 -0.3005
  501TIP3    H122994   6.623   1.054  11.036 -0.4678 -1.0935  0.0485
  501TIP3    H222995   6.760   1.028  11.094 -1.0577 -1.5387  1.2823
  502TIP3   OH222996   3.139   0.679  13.979 -0.1304 -0.1552  0.2615
  502TIP3    H122997   3.122   0.719  13.894  0.6679 -3.0142 -1.4023
  502TIP3    H222998   3.062   0.626  13.996  0.7533 -1.5816  0.0056
  503TIP3   OH222999   0.293   4.845  17.113 -0.1363  0.5040 -0.1371
  503TIP3    H123000   0.199   4.848  17.096  0.0979  0.2718 -1.6586
  503TIP3    H223001   0.313   4.752  17.123 -0.3063  0.6480  1.8741
  504TIP3   OH223002   2.673   1.562  16.983  0.7332 -0.1732 -0.4866
  504TIP3    H123003   2.686   1.657  16.986  1.1877 -0.2223 -0.7857
  504TIP3    H223004   2.607   1.544  17.050  0.3586  0.3985 -0.7049
  505TIP3   OH223005   0.172   1.382  11.673 -0.2047 -0.0045 -0.3104
  505TIP3    H123006   0.262   1.414  11.672  0.2872 -0.8962  2.7871
  505TIP3    H223007   0.120   1.459  11.698 -0.1185  0.1761 -0.6770
  506TIP3   OH223008   3.798   3.098  12.654  0.4353 -0.4789  0.5769
  506TIP3    H123009   3.753   3.115  12.737  0.3071  1.0613  0.2141
  506TIP3    H223010   3.844   3.180  12.634 -2.1476  0.3949 -2.5278
  507TIP3   OH223011   5.165   6.661  17.179  0.2717 -0.3655  0.1911
  507TIP3    H123012   5.253   6.695  17.191  0.7029 -1.0652 -0.8095
  507TIP3    H223013   5.114   6.737  17.150 -0.0090  0.5497  2.8416
  508TIP3   OH223014   3.370   5.996  17.358  0.2810 -0.7803 -0.0295
  508TIP3    H123015   3.287   6.029  17.394 -0.9014 -0.7553 -2.5964
  508TIP3    H223016   3.387   5.915  17.406 -1.9582 -1.4920 -0.3474
  509TIP3   OH223017   2.508   2.356   2.842  0.4529 -0.4435  0.1937
  509TIP3    H123018   2.538   2.413   2.913 -1.0777 -0.3192  0.7841
  509TIP3    H223019   2.442   2.300   2.883 -0.7490 -0.1148 -1.1943
  510TIP3   OH223020   0.238   1.213   5.394 -0.2037 -0.3724 -0.3409
  510TIP3    H123021   0.323   1.170   5.393  1.9168  3.3862 -0.8831
  510TIP3    H223022   0.215   1.225   5.302 -1.9340 -2.2098 -0.2232
  511TIP3   OH223023   2.620   2.220  13.608 -0.2913 -0.4673 -0.1605
  511TIP3    H123024   2.638   2.281  13.537  1.7258 -0.1645  0.5484
  511TIP3    H223025   2.672   2.142  13.587  2.6181  0.6404  2.2445
  512TIP3   OH223026   5.553   5.333   3.749 -0.0963 -0.1501  0.3898
  512TIP3    H123027   5.545   5.279   3.827  1.3895  0.6404  1.1234
  512TIP3    H223028   5.546   5.423   3.781  0.1188  0.1728 -0.4510
  513TIP3   OH223029   2.084   6.748  11.446 -0.4666 -0.3565  0.1510
  513TIP3    H123030   2.164   6.701  11.471 -0.1507  0.1861  0.1806
  513TIP3    H223031   2.030   6.682  11.404 -1.1294 -1.3660  2.4527
  514TIP3   OH223032   3.175   4.428  15.044  0.4295  0.8485  0.8748
  514TIP3    H123033   3.210   4.359  15.101  0.6195 -0.4998 -0.8092
  514TIP3    H223034   3.082   4.407  15.035  0.5467  0.6190  0.1225
  515TIP3   OH223035   1.543   0.965   6.771 -0.0331  0.2253  0.6066
  515TIP3    H123036   1.623   0.994   6.726  0.4397 -0.3789  1.0411
  515TIP3    H223037   1.484   1.040   6.764  0.6289  0.7477  0.4248
  516TIP3   OH223038   2.281   6.520  15.004  0.0925 -0.1841 -0.3789
  516TIP3    H123039   2.345   6.467  15.051 -1.2487 -0.2040  1.5371
  516TIP3    H223040   2.322   6.606  14.997  0.6108 -0.3795  0.1962
  517TIP3   OH223041   3.930   5.724   2.339  0.2626 -0.1893  0.0378
  517TIP3    H123042   3.932   5.629   2.343  0.1907 -0.1485  1.3347
  517TIP3    H223043   3.899   5.744   2.250 -3.3033 -1.4446  0.8162
  518TIP3   OH223044   3.738   0.901   0.695  0.2961 -0.2639  0.0922
  518TIP3    H123045   3.646   0.905   0.670  0.8418  1.0391 -1.9161
  518TIP3    H223046   3.766   0.992   0.703  1.4047 -0.6359  0.7632
  519TIP3   OH223047   3.403   1.908  15.587  0.6569  0.0841 -0.2438
  519TIP3    H123048   3.317   1.905  15.628 -0.0336 -1.1377 -1.6922
  519TIP3    H223049   3.402   1.989  15.535 -0.4125 -0.8754 -1.8074
  520TIP3   OH223050   5.122   3.778   0.111  0.3341 -0.2126 -0.7706
  520TIP3    H123051   5.203   3.804   0.067  1.0476  0.2709  0.7909
  520TIP3    H223052   5.057   3.774   0.040  1.1462  1.7848 -1.7062
  521TIP3   OH223053   4.050   0.970  16.493  0.3858 -0.1122  0.5084
  521TIP3    H123054   4.133   0.926  16.479  0.6356  0.5126  0.0210
  521TIP3    H223055   4.067   1.030  16.566  0.7495  0.9884 -0.4499
  522TIP3   OH223056   0.013   3.532   2.987  0.0843 -0.3431 -0.0083
  522TIP3    H123057   0.089   3.582   3.018 -0.6178  1.5801 -1.2370
  522TIP3    H223058  -0.049   3.534   3.060  0.5360 -0.4828  0.3843
  523TIP3   OH223059   1.545   5.367  15.852  0.5234  1.1194  0.6526
  523TIP3    H123060   1.639   5.383  15.847  0.5113  1.0205  0.0471
  523TIP3    H223061   1.537   5.273  15.868  0.5289  1.1313  0.7240
  524TIP3   OH223062   6.716   6.705  10.705  0.7228 -0.7909 -0.4516
  524TIP3    H123063   6.798   6.713  10.658  0.5439 -0.5004 -0.7138
  524TIP3    H223064   6.663   6.779  10.676  0.4549 -0.8439 -0.1109
  525TIP3   OH223065   2.799   2.107  13.068  0.0140  0.3039  0.5785
  525TIP3    H123066   2.832   2.020  13.087  0.6530  0.4233  0.0434
  525TIP3    H223067   2.862   2.145  13.007 -0.0353  1.2967  1.1126
  526TIP3   OH223068   6.387   3.844   3.051  0.5292 -0.3063  0.2690
  526TIP3    H123069   6.376   3.938   3.065  1.6842 -0.2602  0.9662
  526TIP3    H223070   6.378   3.833   2.956  0.0844  0.4636  0.2124
  527TIP3   OH223071   4.496   4.537   5.978  0.5462 -0.0797  0.1696
  527TIP3    H123072   4.411   4.504   5.951  0.6053 -0.4772  0.4638
  527TIP3    H223073   4.525   4.477   6.047  0.9897  0.1484  0.1881
  528TIP3   OH223074   2.415   1.361  16.153  0.0387 -0.1334 -1.0871
  528TIP3    H123075   2.378   1.340  16.068 -0.0038 -1.9447 -0.6480
  528TIP3    H223076   2.436   1.454  16.147  0.9905 -0.4334 -3.4195
  529TIP3   OH223077   3.342   2.198  13.995 -0.0172  0.5233 -0.1829
  529TIP3    H123078   3.294   2.279  13.975 -0.3945  0.8158  1.7152
  529TIP3    H223079   3.372   2.210  14.085  1.5380 -0.7028 -0.5006
  530TIP3   OH223080   2.974   5.876   2.418 -0.5922 -0.5111 -0.1425
  530TIP3    H123081   2.975   5.829   2.501  2.8001  2.1016  1.5361
  530TIP3    H223082   3.057   5.852   2.376 -0.4208  1.2233 -0.8612
  531TIP3   OH223083   0.084   6.066  12.549  0.4118  0.0536 -0.8139
  531TIP3    H123084   0.050   6.064  12.459  0.7118 -0.4787 -0.9236
  531TIP3    H223085   0.118   5.977  12.563  0.5647  0.1982 -0.2482
  532TIP3   OH223086   1.032   5.663  10.490 -0.3532 -0.0033  0.3598
  532TIP3    H123087   1.004   5.674  10.581 -1.2851 -1.0503  0.2245
  532TIP3    H223088   1.026   5.750  10.452 -4.3660 -0.1937  0.1165
  533TIP3   OH223089   4.874   0.779   6.357 -0.0252  0.2331  0.0183
  533TIP3    H123090   4.788   0.768   6.397  0.1277 -1.3024 -0.0320
  533TIP3    H223091   4.899   0.691   6.329  1.0148  0.8568 -1.1004
  534TIP3   OH223092   3.825   6.455   5.220  0.4108  0.3481  0.5069
  534TIP3    H123093   3.744   6.472   5.268 -0.6558 -0.0670 -1.0518
  534TIP3    H223094   3.878   6.533   5.233 -0.0613  0.4738  1.8669
  535TIP3   OH223095   6.278   3.396   5.704  0.4167 -0.1010  0.1505
  535TIP3    H123096   6.208   3.371   5.644  0.7006  0.1237 -0.2766
  535TIP3    H223097   6.358   3.392   5.652  0.8038 -0.9072  0.7854
  536TIP3   OH223098   0.727   3.984   0.060  0.4569  0.5812 -0.2694
  536TIP3    H123099   0.695   4.048  -0.004 -1.5090  0.1613  0.2406
  536TIP3    H223100   0.651   3.962   0.113  1.7490 -0.0573  1.4138
  537TIP3   OH223101   6.674   1.691  12.999 -0.1311  0.5302 -0.3321
  537TIP3    H123102   6.711   1.613  13.040  0.0449  0.3381 -0.8477
  537TIP3    H223103   6.675   1.758  13.068  0.3037  0.2601 -0.0746
  538TIP3   OH223104   4.264   5.000   1.905  0.2921  0.2869 -0.7736
  538TIP3    H123105   4.282   4.907   1.889  0.0347 -0.3756  2.2754
  538TIP3    H223106   4.178   5.015   1.864  0.3958 -0.7551 -1.4118
  539TIP3   OH223107   2.491   6.634   3.139 -0.6707 -0.0661 -0.1513
  539TIP3    H123108   2.479   6.553   3.189  3.6410  0.9729  3.1326
  539TIP3    H223109   2.446   6.701   3.191 -2.5794  0.0913 -1.8595
  540TIP3   OH223110   1.958   3.581   2.067  0.0960  0.2678 -0.4453
  540TIP3    H123111   1.918   3.615   2.147  0.6939 -0.6880  0.2872
  540TIP3    H223112   1.938   3.488   2.068  3.1052 -0.4887  0.4994
  541TIP3   OH223113   6.303   3.712  16.421  0.7117 -0.6311 -0.7168
  541TIP3    H123114   6.346   3.692  16.338 -1.7019 -1.3465 -1.8764
  541TIP3    H223115   6.215   3.675  16.413 -0.1394  0.6583  1.5421
  542TIP3   OH223116   3.307   1.283  12.986 -0.3973  0.1453 -0.1241
  542TIP3    H123117   3.361   1.203  12.984  0.1055  0.4879 -0.4203
  542TIP3    H223118   3.228   1.259  12.938  0.2634  0.1782 -1.2819
  543TIP3   OH223119   4.059   2.886   4.649 -0.8551 -0.0472  0.4548
  543TIP3    H123120   3.988   2.925   4.597  0.4518 -0.1485 -1.5003
  543TIP3    H223121   4.043   2.792   4.644  0.2162 -0.1783 -1.3089
  544TIP3   OH223122   3.506   4.347  17.366  0.3263 -0.0309  0.3971
  544TIP3    H123123   3.426   4.298  17.389 -0.5492  1.2579  0.2246
  544TIP3    H223124   3.473   4.428  17.326  1.6597  1.4155  2.0730
  545TIP3   OH223125   5.850   0.298  11.762 -0.2056 -0.0435  0.0150
  545TIP3    H123126   5.755   0.304  11.765 -0.2641 -0.7337 -0.2330
  545TIP3    H223127   5.868   0.204  11.759  0.4420  0.1013 -1.0775
  546TIP3   OH223128   0.769   1.151  13.749 -0.3341 -0.0156  0.1089
  546TIP3    H123129   0.703   1.192  13.693 -0.6198  0.0051  0.4573
  546TIP3    H223130   0.719   1.110  13.820 -0.1589 -1.7938 -0.7237
  547TIP3   OH223131   1.421   6.294  12.935  0.2292  0.6119  0.4571
  547TIP3    H123132   1.465   6.242  12.868  1.1324 -0.2438  1.6651
  547TIP3    H223133   1.328   6.277  12.921  0.4905 -0.9770  0.5236
  548TIP3   OH223134   3.419   1.517  15.755 -0.2051 -0.0642 -0.0104
  548TIP3    H123135   3.391   1.556  15.838  1.1177  1.5519 -0.2662
  548TIP3    H223136   3.442   1.426  15.778 -0.8401  0.0519  1.1633
  549TIP3   OH223137   4.456   4.369  11.218  0.8293  0.4577  0.4681
  549TIP3    H123138   4.377   4.413  11.186  1.1932  1.6650  1.1536
  549TIP3    H223139   4.424   4.289  11.259  0.1999 -0.2916 -1.3642
  550TIP3   OH223140   2.513   6.150  14.925 -0.1562 -0.2932  0.1229
  550TIP3    H123141   2.484   6.203  14.999 -0.4942  1.6506 -1.3194
  550TIP3    H223142   2.433   6.110  14.891 -0.0646 -0.8308  0.5331
  551TIP3   OH223143   3.499   5.627   3.113 -0.4440  0.4043 -1.0029
  551TIP3    H123144   3.450   5.549   3.090 -1.1976  0.7355 -0.5431
  551TIP3    H223145   3.486   5.686   3.038  0.2845  0.0352 -1.4385
  552TIP3   OH223146   6.243   0.627  17.343 -0.2754 -0.2856  0.8701
  552TIP3    H123147   6.155   0.634  17.306  0.0677 -2.2540 -0.5063
  552TIP3    H223148   6.300   0.611  17.268  0.7499 -2.4213  1.9889
  553TIP3   OH223149   0.095   2.364  11.179  0.1985  0.4485  0.2192
  553TIP3    H123150   0.167   2.425  11.197  1.1026 -0.2724 -0.8745
  553TIP3    H223151   0.130   2.278  11.203 -0.8246  0.2517  1.0726
  554TIP3   OH223152   1.798   4.811   2.508 -0.3308  0.0332 -0.9660
  554TIP3    H123153   1.723   4.868   2.523  0.7686  0.7478  2.9399
  554TIP3    H223154   1.771   4.726   2.542 -0.3867 -0.5967 -2.5056
  555TIP3   OH223155   2.214   6.079  15.078  0.0344 -0.2413  0.0393
  555TIP3    H123156   2.176   6.164  15.055  0.0734 -0.5053 -1.0853
  555TIP3    H223157   2.156   6.015  15.036  0.7840 -0.7062 -0.3084
  556TIP3   OH223158   6.338   1.248  14.072  0.3634  0.4997 -0.0071
  556TIP3    H123159   6.347   1.178  14.137  0.3313  2.3498  2.1042
  556TIP3    H223160   6.284   1.210  14.003 -0.4222 -1.2496  1.4977
  557TIP3   OH223161   5.999   6.061  11.427 -0.1241  0.3091  0.7195
  557TIP3    H123162   6.048   6.137  11.395  0.2006  0.6527  1.9896
  557TIP3    H223163   6.064   5.992  11.438 -0.5992 -0.5924 -1.6102
  558TIP3   OH223164   6.204   2.222  11.779  0.2190  0.1759 -0.3979
  558TIP3    H123165   6.271   2.168  11.736  0.5668  1.2365 -1.2185
  558TIP3    H223166   6.173   2.167  11.852  1.8909 -0.3917 -0.0584
  559TIP3   OH223167   1.356   3.891  15.274  0.2001  0.1979  0.1493
  559TIP3    H123168   1.441   3.901  15.316  1.3328 -0.9318 -1.7219
  559TIP3    H223169   1.322   3.981  15.268 -0.0719  0.4297  3.3453
  560TIP3   OH223170   2.800   1.637   0.791  0.5430  0.6837  0.7080
  560TIP3    H123171   2.725   1.683   0.829 -1.1270  0.0954 -1.6437
  560TIP3    H223172   2.781   1.544   0.805  0.9297  0.5347  0.2421
  561TIP3   OH223173   0.695   5.570   4.400  0.3968 -0.0148  0.1840
  561TIP3    H123174   0.764   5.535   4.344 -0.5259 -1.2429 -0.2291
  561TIP3    H223175   0.696   5.513   4.477  1.2029  1.2443  1.1507
  562TIP3   OH223176   3.885   1.400   1.990  0.4240  0.2948  0.1611
  562TIP3    H123177   3.830   1.338   2.037 -0.4607  0.4460 -0.6537
  562TIP3    H223178   3.947   1.346   1.941 -1.7205 -0.1266 -2.2898
  563TIP3   OH223179   3.629   6.043  14.648  0.2406 -0.1978  0.2869
  563TIP3    H123180   3.628   6.084  14.561  2.0067 -0.6598  0.0161
  563TIP3    H223181   3.570   5.968  14.639  0.3299 -0.1828 -0.4843
  564TIP3   OH223182   0.468   6.312   3.916 -0.2813  0.2061 -0.2272
  564TIP3    H123183   0.513   6.246   3.970 -0.3514  1.4190  1.4057
  564TIP3    H223184   0.538   6.349   3.862  0.4272  1.0397  1.2149
  565TIP3   OH223185   1.382   0.725  15.255 -0.0693  0.4610 -0.5170
  565TIP3    H123186   1.448   0.660  15.278  0.1681  0.5746 -0.8762
  565TIP3    H223187   1.302   0.674  15.242 -0.1954  0.3866  0.4947
  566TIP3   OH223188   4.378   6.141  12.325 -0.1353 -0.0181 -0.6297
  566TIP3    H123189   4.425   6.063  12.353  1.5394  0.3841 -2.1642
  566TIP3    H223190   4.442   6.211  12.329 -1.3796  1.1319 -0.1018
  567TIP3   OH223191   1.256   4.789  11.016  0.3651 -0.2030 -0.6545
  567TIP3    H123192   1.161   4.798  11.003 -0.1052  0.7294  2.6394
  567TIP3    H223193   1.293   4.865  10.971 -0.4719 -0.1992 -1.3785
  568TIP3   OH223194   4.208   3.720   3.400  0.0405 -0.3771 -0.1495
  568TIP3    H123195   4.237   3.773   3.474  0.6265 -0.0284 -0.6155
  568TIP3    H223196   4.184   3.784   3.333  2.6333 -0.6389 -1.4403
  569TIP3   OH223197   0.741   3.409   2.594 -0.5467  0.2526  0.3537
  569TIP3    H123198   0.735   3.503   2.578  2.9143  1.2919  3.7202
  569TIP3    H223199   0.818   3.380   2.545  0.3060 -0.0476  1.8022
  570TIP3   OH223200   4.660   6.717   1.755  0.0846 -0.7982 -0.2050
  570TIP3    H123201   4.742   6.752   1.791 -0.3454 -0.7037  0.7043
  570TIP3    H223202   4.637   6.646   1.814 -0.0536 -1.3898 -0.9493
  571TIP3   OH223203   3.507   0.012  15.085 -0.0292 -0.1552 -0.7512
  571TIP3    H123204   3.543  -0.075  15.069  0.1030 -0.4519  0.9183
  571TIP3    H223205   3.583   0.066  15.105 -0.3029 -0.4836  1.5054
  572TIP3   OH223206   4.793   5.887   2.064 -0.1118 -0.1731  0.5418
  572TIP3    H123207   4.788   5.851   1.976 -1.3975  1.9850 -0.3544
  572TIP3    H223208   4.866   5.841   2.105  2.4679  0.7153 -2.6107
  573TIP3   OH223209   3.084   1.504   3.725  0.5432  0.2586 -0.5441
  573TIP3    H123210   3.171   1.536   3.747  0.0462  0.8384  0.7202
  573TIP3    H223211   3.096   1.451   3.646  1.9009  0.9443 -0.8156
  574TIP3   OH223212   2.923   2.447   3.609  0.1823  0.4047  0.3426
  574TIP3    H123213   2.926   2.532   3.652  0.1666  0.3232  0.5085
  574TIP3    H223214   3.005   2.405   3.633 -0.6737 -0.4450  1.9904
  575TIP3   OH223215   2.723   5.012  12.973 -0.6812 -0.2271 -0.1057
  575TIP3    H123216   2.641   5.008  13.023 -0.2248  1.2590  0.8157
  575TIP3    H223217   2.731   4.925  12.934 -1.9323 -0.8875  1.0247
  576TIP3   OH223218   5.666   1.609   2.482 -0.3460 -0.3036 -0.0146
  576TIP3    H123219   5.750   1.575   2.513  0.8830  2.3665 -0.0852
  576TIP3    H223220   5.630   1.656   2.557 -1.4271 -0.7985 -0.2067
  577TIP3   OH223221   0.731   1.174   4.722 -0.0481  0.2524 -0.0464
  577TIP3    H123222   0.776   1.258   4.732 -0.4058  0.5374 -0.7289
  577TIP3    H223223   0.645   1.188   4.762 -0.1950  0.2898 -0.3727
  578TIP3   OH223224   3.460   3.861  12.888 -0.0717 -0.4847  0.3929
  578TIP3    H123225   3.432   3.785  12.940 -2.6464  1.0715  1.5017
  578TIP3    H223226   3.390   3.873  12.824 -1.2394  2.4762  2.0151
  579TIP3   OH223227   0.705   0.329   3.607 -0.0414 -0.1173  0.5559
  579TIP3    H123228   0.686   0.244   3.567  1.1208 -0.2606  0.2743
  579TIP3    H223229   0.726   0.307   3.698  0.0010 -0.1105  0.5480
  580TIP3   OH223230   4.949   1.150   1.586  0.4240 -0.2803  0.3024
  580TIP3    H123231   4.951   1.244   1.602  2.6240  0.1602 -1.9284
  580TIP3    H223232   4.984   1.111   1.666 -2.0268  0.5846  1.9017
  581TIP3   OH223233   4.687   1.157   4.602  0.2061  0.0276 -0.0239
  581TIP3    H123234   4.759   1.141   4.662 -0.3844  0.3647  0.7994
  581TIP3    H223235   4.610   1.123   4.647 -0.4022  1.2064 -0.1196
  582TIP3   OH223236   4.712   1.391   5.813 -0.0218  0.3377  1.0269
  582TIP3    H123237   4.735   1.324   5.877 -0.1430 -1.6887 -0.9297
  582TIP3    H223238   4.632   1.359   5.772  1.0929  0.5007 -1.4749
  583TIP3   OH223239   4.022   5.071  16.575  0.5106 -0.1749  0.0583
  583TIP3    H123240   3.934   5.099  16.550 -0.2558  0.6923  3.2194
  583TIP3    H223241   4.067   5.152  16.599  0.2763 -0.8980  3.5615
  584TIP3   OH223242   5.314   0.021  14.683  0.7449 -0.4758  0.4056
  584TIP3    H123243   5.375  -0.003  14.613  0.9492 -0.8270  0.7015
  584TIP3    H223244   5.367   0.018  14.763  0.3044 -0.9243  0.6840
  585TIP3   OH223245   4.330   6.689   0.065  0.0068  0.5039 -0.4280
  585TIP3    H123246   4.238   6.689   0.041 -0.0604  0.9730 -0.1852
  585TIP3    H223247   4.336   6.750   0.139  0.4744  0.3182 -0.3066
  586TIP3   OH223248   4.902   2.054  13.673 -0.0229 -0.0289  0.4727
  586TIP3    H123249   4.897   2.113  13.597  1.0458 -1.7548 -0.9894
  586TIP3    H223250   4.852   1.977  13.647 -0.9343 -0.0782  2.1615
  587TIP3   OH223251   1.954   2.518   4.478 -0.3700 -0.0003  0.8387
  587TIP3    H123252   1.940   2.492   4.569 -2.5745  3.1462  1.5807
  587TIP3    H223253   1.874   2.492   4.433 -0.6572  1.2392  0.5901
  588TIP3   OH223254   6.714   4.291   3.754 -0.2280  0.0369  0.0577
  588TIP3    H123255   6.707   4.205   3.714 -2.1057 -0.9761  2.3331
  588TIP3    H223256   6.806   4.300   3.777  0.6539  0.1087 -3.0641
  589TIP3   OH223257   6.649   2.644  15.475  0.1604 -0.7355 -0.2450
  589TIP3    H123258   6.675   2.587  15.547  0.9566  0.4259  0.4227
  589TIP3    H223259   6.731   2.669  15.433  0.0643  1.4956  0.7346
  590TIP3   OH223260   2.150   0.575  12.898 -0.4884  0.0258 -0.2300
  590TIP3    H123261   2.139   0.645  12.963  0.8601 -0.3464  0.4363
  590TIP3    H223262   2.222   0.605  12.843 -0.5672 -0.3937 -0.5585
  591TIP3   OH223263   0.544   3.840  15.814 -0.1095  0.3981 -0.3566
  591TIP3    H123264   0.494   3.776  15.763  1.8765 -0.5629 -1.1974
  591TIP3    H223265   0.481   3.910  15.833 -2.2551 -1.5973  0.2723
  592TIP3   OH223266   2.206   2.902  14.051 -0.3018  0.0426 -0.0247
  592TIP3    H123267   2.123   2.944  14.073  0.0260  0.5727  0.2168
  592TIP3    H223268   2.181   2.829  13.993 -1.1244 -1.1276  1.7222
  593TIP3   OH223269   5.062   2.655  11.644  0.2299 -0.0948  0.1779
  593TIP3    H123270   5.112   2.652  11.563 -1.3752 -0.1027 -0.8638
  593TIP3    H223271   4.990   2.716  11.625  0.0351  0.2028  1.7291
  594TIP3   OH223272   2.968   2.549  11.352 -0.0190 -0.0557 -0.2815
  594TIP3    H123273   2.900   2.615  11.368  1.9859  1.6998  1.6128
  594TIP3    H223274   3.030   2.593  11.294  0.6728 -0.7839 -0.1002
  595TIP3   OH223275   0.904   4.197  15.724  0.9684 -0.2231  0.0713
  595TIP3    H123276   0.948   4.208  15.808  2.4765 -0.7688 -0.6116
  595TIP3    H223277   0.894   4.102  15.715 -0.2683 -0.1118  0.1599
  596TIP3   OH223278   0.137   6.493  13.637  0.0698 -0.4257 -0.1058
  596TIP3    H123279   0.199   6.454  13.699  2.2566  2.5285 -0.2307
  596TIP3    H223280   0.166   6.460  13.551 -0.1642 -1.0130  0.0329
  597TIP3   OH223281   6.601   5.087  15.147 -0.1337  0.0637  0.3025
  597TIP3    H123282   6.588   5.071  15.054  1.4133 -0.5370  0.1506
  597TIP3    H223283   6.515   5.111  15.180 -0.7809 -0.0871 -1.2064
  598TIP3   OH223284   0.503   0.505  12.181 -0.1136  0.3135 -0.1208
  598TIP3    H123285   0.434   0.552  12.135 -0.6246 -0.1909  0.1106
  598TIP3    H223286   0.505   0.545  12.268  0.9304  1.3440 -0.5947
  599TIP3   OH223287   2.029   5.777  15.389 -0.0714 -0.6214 -0.0741
  599TIP3    H123288   1.949   5.829  15.385  0.3227  0.1176  1.2404
  599TIP3    H223289   1.999   5.686  15.387 -1.2524 -0.4530  3.4372
  600TIP3   OH223290   3.511   4.090  11.144  0.1005  0.1652 -0.3490
  600TIP3    H123291   3.560   4.087  11.062  1.2059 -1.8370  0.3175
  600TIP3    H223292   3.531   4.006  11.187 -0.9686  0.8787  1.6638
  601TIP3   OH223293   1.539   4.538  11.359  0.0570 -0.2007  0.3462
  601TIP3    H123294   1.516   4.489  11.280  1.1495  0.0937 -0.1770
  601TIP3    H223295   1.577   4.620  11.327  1.3041 -0.4274  1.1372
  602TIP3   OH223296   0.269   0.878  12.285 -0.5563  0.5660 -0.2887
  602TIP3    H123297   0.287   0.804  12.342 -0.3974  1.3810  0.7443
  602TIP3    H223298   0.353   0.923  12.277 -0.7297  0.8365 -0.6238
  603TIP3   OH223299   5.473   2.577   3.817 -0.1545  0.2699  0.3988
  603TIP3    H123300   5.398   2.528   3.850 -0.1001 -0.9854 -1.1773
  603TIP3    H223301   5.496   2.533   3.735  1.8455  1.0725  0.4598
  604TIP3   OH223302   0.961   5.278   0.687  0.0989  0.0641  0.1464
  604TIP3    H123303   0.918   5.352   0.645  1.9145  1.0951  0.0216
  604TIP3    H223304   1.017   5.317   0.754 -1.6400 -1.4333  2.6973
  605TIP3   OH223305   2.743   2.383  11.262 -0.2665 -0.0227  0.3667
  605TIP3    H123306   2.801   2.450  11.297 -0.4284 -0.2735  1.1407
  605TIP3    H223307   2.658   2.403  11.300 -0.5992  0.0990 -0.4351
  606TIP3   OH223308   6.365   6.764   5.921 -0.2377  0.6663 -0.3521
  606TIP3    H123309   6.380   6.700   5.990 -1.5421  1.3414  0.5956
  606TIP3    H223310   6.364   6.849   5.965 -1.3335  1.0927 -1.1366
  607TIP3   OH223311   1.229   6.371   3.633  0.0561  0.6264  0.0675
  607TIP3    H123312   1.303   6.397   3.688 -0.0892 -0.2642  0.7037
  607TIP3    H223313   1.151   6.390   3.687 -0.3966  3.7720 -1.4523
  608TIP3   OH223314   1.014   2.848   3.827 -0.0608  0.3324 -0.2777
  608TIP3    H123315   1.087   2.865   3.886  1.7675 -2.0299 -1.6402
  608TIP3    H223316   0.956   2.791   3.877 -0.5035  1.4348  0.4918
  609TIP3   OH223317   5.325   2.232   2.823 -0.2229 -0.3118 -0.2544
  609TIP3    H123318   5.310   2.175   2.748  1.5527  0.2866 -1.1299
  609TIP3    H223319   5.379   2.303   2.789  0.0217  0.3768  1.4438
  610TIP3   OH223320   0.740   4.478  12.228 -0.1009 -0.1031  0.0885
  610TIP3    H123321   0.653   4.446  12.207 -0.0147  0.0099 -0.4453
  610TIP3    H223322   0.796   4.401  12.222 -0.3540 -0.4506  1.6963
  611TIP3   OH223323   0.494   1.363   6.055  0.4383 -0.3932  0.4269
  611TIP3    H123324   0.534   1.380   6.141  0.0513 -1.0239  0.7423
  611TIP3    H223325   0.482   1.268   6.053  0.1688 -0.3505 -0.2074
  612TIP3   OH223326   5.881   4.443  15.318 -0.3651  0.1673  0.3245
  612TIP3    H123327   5.976   4.441  15.306 -0.5329  0.8394 -1.3064
  612TIP3    H223328   5.857   4.351  15.331  0.3503 -0.1604 -0.6127
  613TIP3   OH223329   3.092   2.383  12.346  0.2952  0.4049  0.3008
  613TIP3    H123330   3.030   2.453  12.324 -1.2388 -0.6603  1.1224
  613TIP3    H223331   3.071   2.312  12.285 -0.6531 -0.6959  1.8515
  614TIP3   OH223332   1.950   2.087  11.810  0.3841  0.3520 -0.4489
  614TIP3    H123333   1.928   2.167  11.761  0.5729  0.5913 -0.1497
  614TIP3    H223334   1.947   2.114  11.902 -3.0430 -0.8332 -0.0764
  615TIP3   OH223335   5.321   1.667  13.147 -0.5124  0.0688 -0.5000
  615TIP3    H123336   5.349   1.758  13.158  0.1018 -0.3568  2.2336
  615TIP3    H223337   5.372   1.634  13.073 -0.8749  1.9544 -1.6502
  616TIP3   OH223338   3.249   3.372  15.901 -0.4407 -0.1337  0.4515
  616TIP3    H123339   3.166   3.324  15.900 -0.2195 -0.5462  1.1716
  616TIP3    H223340   3.226   3.458  15.937 -1.0151  0.6938 -1.6991
  617TIP3   OH223341   0.909   4.316   0.466 -0.5539 -0.3386  0.0142
  617TIP3    H123342   0.814   4.309   0.465 -0.5178 -2.3752  1.9863
  617TIP3    H223343   0.937   4.265   0.390 -1.0436 -1.7539  0.7308
  618TIP3   OH223344   1.875   2.178   5.849 -0.2477  0.6690  0.0980
  618TIP3    H123345   1.959   2.135   5.867 -0.0104  1.2948  0.4983
  618TIP3    H223346   1.865   2.242   5.919 -1.6132 -0.1891  0.7434
  619TIP3   OH223347   1.609   3.836  14.948  0.2705 -0.0486  0.2019
  619TIP3    H123348   1.539   3.901  14.949  0.3243  0.0025  0.6713
  619TIP3    H223349   1.574   3.764  14.895  0.2257  0.3763 -0.3445
  620TIP3   OH223350   6.433   3.339  15.422  0.1355 -0.1777  0.1565
  620TIP3    H123351   6.394   3.352  15.336 -3.1913 -0.1486  1.5147
  620TIP3    H223352   6.457   3.246  15.424 -0.6730 -0.4085 -0.4603
  621TIP3   OH223353   1.471   2.764   2.671  0.0375  0.2267  0.0251
  621TIP3    H123354   1.490   2.747   2.578  1.0579 -0.6513  0.3707
  621TIP3    H223355   1.380   2.737   2.683  0.3804 -1.1916 -0.3718
  622TIP3   OH223356   1.125   3.522  11.056  0.3547 -0.1466  0.3277
  622TIP3    H123357   1.181   3.480  10.990  0.2645 -0.6557  0.5754
  622TIP3    H223358   1.081   3.593  11.008  3.6578  2.5021  0.8253
  623TIP3   OH223359   1.344   4.527  10.922 -0.2081  0.1087  0.7755
  623TIP3    H123360   1.279   4.458  10.909  0.3543  0.1506 -4.2247
  623TIP3    H223361   1.296   4.598  10.964 -1.9774 -1.6091  1.8377
  624TIP3   OH223362   2.659   1.459   3.006  0.4091  0.5336  0.4362
  624TIP3    H123363   2.676   1.552   2.992  0.2145  0.4021 -0.7778
  624TIP3    H223364   2.670   1.420   2.920 -0.0719 -0.4905  0.8280
  625TIP3   OH223365   4.092   0.489  13.674 -0.1393 -0.0738 -0.1491
  625TIP3    H123366   4.121   0.416  13.729  0.9565  0.2727 -0.2389
  625TIP3    H223367   4.086   0.452  13.586  1.4721  0.1669 -0.3938
  626TIP3   OH223368   1.141   2.504  11.863  0.0615  0.0898 -0.4048
  626TIP3    H123369   1.062   2.530  11.911 -0.4811  0.1293 -1.2935
  626TIP3    H223370   1.206   2.489  11.931 -0.2243  1.6516  0.2695
  627TIP3   OH223371   5.046   3.681   4.082  0.1749 -0.8033  0.0881
  627TIP3    H123372   5.111   3.704   4.148 -0.4580  1.1735  0.0732
  627TIP3    H223373   4.996   3.610   4.122  1.5748 -1.5530  0.5643
  628TIP3   OH223374   5.276   5.646   4.303  0.1671  0.2079 -0.1055
  628TIP3    H123375   5.180   5.647   4.308 -0.2932  2.9544 -4.0367
  628TIP3    H223376   5.296   5.585   4.232  0.8041  2.7411 -2.2644
  629TIP3   OH223377   5.965   2.927   1.643  0.2657 -0.0526  0.2262
  629TIP3    H123378   5.884   2.939   1.692  0.5294 -1.5692  1.1049
  629TIP3    H223379   5.969   3.002   1.584 -2.6064 -0.7644 -1.0406
  630TIP3   OH223380   2.832   1.481   3.821  0.6230  0.1655  0.1620
  630TIP3    H123381   2.770   1.441   3.760 -0.9908 -0.5126  2.0954
  630TIP3    H223382   2.916   1.478   3.776 -0.5169 -0.0393 -2.0855
  631TIP3   OH223383   0.196   0.520  13.259 -0.3323  0.3744 -0.2354
  631TIP3    H123384   0.271   0.465  13.235 -0.5368 -1.2339  2.3424
  631TIP3    H223385   0.142   0.523  13.181  0.7719 -1.3146 -1.1186
  632TIP3   OH223386   4.530   2.556  15.771 -0.1350  0.0445 -0.4720
  632TIP3    H123387   4.551   2.516  15.687  0.2923 -1.7997  0.4464
  632TIP3    H223388   4.544   2.486  15.835  0.7457  1.7109  1.2745
  633TIP3   OH223389   1.585   4.739   3.557 -0.1524 -0.4401 -0.1100
  633TIP3    H123390   1.585   4.656   3.604 -1.1751  0.9230  2.4306
  633TIP3    H223391   1.621   4.717   3.471 -0.5942 -3.5285  0.3884
  634TIP3   OH223392   6.310   3.799   2.287 -0.5342  0.5944 -0.0169
  634TIP3    H123393   6.267   3.842   2.213  1.6697  2.4163 -0.3631
  634TIP3    H223394   6.321   3.708   2.260 -0.1400  1.1395 -1.7874
  635TIP3   OH223395   3.951   1.232  17.301  1.0808  0.3629 -0.9173
  635TIP3    H123396   4.014   1.162  17.318  0.5964  0.0054 -0.5334
  635TIP3    H223397   4.003   1.311  17.292  1.4273  0.7335  2.7057
  636TIP3   OH223398   5.185   4.804   5.762  0.5096  0.6219 -0.4598
  636TIP3    H123399   5.102   4.816   5.808  0.3225 -1.1896 -0.2621
  636TIP3    H223400   5.168   4.837   5.673  0.2894  2.3270  0.1748
  637TIP3   OH223401   4.391   1.532  11.064 -0.2743  0.3374 -0.2433
  637TIP3    H123402   4.402   1.437  11.060 -1.4593  0.1453  0.7352
  637TIP3    H223403   4.373   1.557  10.973  2.2135 -0.0420 -0.9296
  638TIP3   OH223404   4.651   2.424  17.202 -0.5193 -0.3544  0.0197
  638TIP3    H123405   4.718   2.358  17.221  1.2044  1.2657 -0.0690
  638TIP3    H223406   4.631   2.411  17.110  0.0790 -0.5292 -0.0930
  639TIP3   OH223407   1.301   3.100   0.069  0.1029  0.0192  0.2275
  639TIP3    H123408   1.209   3.101   0.098  0.2593 -1.8307  0.9419
  639TIP3    H223409   1.296   3.073  -0.022 -0.0710  0.2971  0.1509
  640TIP3   OH223410   0.915   4.431  13.966 -0.1581 -0.0373  0.4515
  640TIP3    H123411   0.848   4.459  14.029 -0.0169 -2.0363  1.5726
  640TIP3    H223412   0.958   4.357  14.008  0.0487 -1.3805 -1.9521
  641TIP3   OH223413   0.023   3.575  16.124 -1.1417  0.3908  0.4062
  641TIP3    H123414   0.026   3.568  16.219 -2.2307 -0.0349  0.4189
  641TIP3    H223415   0.096   3.633  16.102  0.1983 -0.8765  1.3507
  642TIP3   OH223416   1.153   1.126   6.602  0.2601 -0.5026  0.0663
  642TIP3    H123417   1.081   1.064   6.592  1.2338 -1.5841 -0.5135
  642TIP3    H223418   1.162   1.166   6.515  0.4271 -0.4389  0.1132
  643TIP3   OH223419   0.024   3.058   0.175  0.2851 -0.1624 -0.1358
  643TIP3    H123420   0.071   3.030   0.254 -1.6749 -1.5076  0.6201
  643TIP3    H223421   0.079   3.029   0.102  1.1292 -0.7251  0.7051
  644TIP3   OH223422   4.236   2.440   2.596 -0.0970  0.0373  0.2654
  644TIP3    H123423   4.201   2.513   2.647  1.6674  0.5820  0.7445
  644TIP3    H223424   4.294   2.482   2.532 -1.2818 -0.7349 -1.4094
  645TIP3   OH223425   4.907   5.155   5.589  0.7071  0.4036 -0.4649
  645TIP3    H123426   4.949   5.122   5.668 -0.1844  2.8956  1.1696
  645TIP3    H223427   4.816   5.168   5.614  0.1352  0.1854 -2.2935
  646TIP3   OH223428   1.879   4.008   2.135 -0.1778  0.2347 -0.6244
  646TIP3    H123429   1.822   4.055   2.074  0.4683 -1.2890 -2.4928
  646TIP3    H223430   1.822   3.943   2.176 -1.1328  2.5442  2.1407
  647TIP3   OH223431   1.074   5.892   4.665  0.1267 -0.6135  0.5897
  647TIP3    H123432   1.011   5.837   4.618  0.2998 -2.1267  2.0021
  647TIP3    H223433   1.052   5.981   4.641 -2.4238 -1.1070  0.8413
  648TIP3   OH223434   1.738   0.975  17.134 -0.0649  0.4061  0.0627
  648TIP3    H123435   1.700   1.029  17.064 -0.4446  1.8891  1.3586
  648TIP3    H223436   1.822   1.017  17.153 -1.2983  2.0042  2.5780
  649TIP3   OH223437   1.849   3.950   4.075  0.2979 -0.0684  0.1433
  649TIP3    H123438   1.883   3.951   4.165  0.3333  1.9717  0.1390
  649TIP3    H223439   1.905   4.010   4.027 -1.3958  1.0009 -0.5958
  650TIP3   OH223440   1.062   1.178  16.589  0.1255 -0.2314 -0.4894
  650TIP3    H123441   1.110   1.221  16.518  0.2227  3.0517  1.3527
  650TIP3    H223442   1.127   1.164  16.657 -1.0403  3.6718  1.7830
  651TIP3   OH223443   4.005   5.962   5.396 -0.5710 -0.0421 -0.0606
  651TIP3    H123444   4.045   5.924   5.474  0.1536  2.6430  0.9852
  651TIP3    H223445   4.074   5.960   5.329 -0.6627 -0.8663 -0.1323
  652TIP3   OH223446   0.385   6.520   4.121 -0.1817 -0.3219  0.4392
  652TIP3    H123447   0.410   6.434   4.088  0.0023 -0.6652  1.4328
  652TIP3    H223448   0.307   6.544   4.071  1.3458  0.2093 -1.8363
  653TIP3   OH223449   2.004   1.158   4.664 -0.0476  0.1453  0.0750
  653TIP3    H123450   2.041   1.234   4.709 -0.2943 -0.2631  0.9793
  653TIP3    H223451   2.046   1.160   4.577  1.5375  0.1194  0.8059
  654TIP3   OH223452   0.089   1.532   1.691  0.2662  0.6804 -0.4670
  654TIP3    H123453   0.122   1.615   1.658  3.0102 -0.5019 -0.9373
  654TIP3    H223454   0.141   1.466   1.645 -2.4889 -1.3905 -0.8806
  655TIP3   OH223455   3.290   5.687   0.022  0.9440 -0.4157  0.2601
  655TIP3    H123456   3.236   5.610   0.038  1.2781 -0.7908 -0.3557
  655TIP3    H223457   3.379   5.659   0.045  1.3247 -0.7422 -1.4111
  656TIP3   OH223458   3.154   6.115   2.497 -0.5092  0.1375 -0.3734
  656TIP3    H123459   3.174   6.070   2.415  1.1328  0.8750 -0.4214
  656TIP3    H223460   3.138   6.206   2.472 -2.8878 -0.1645 -0.1732
  657TIP3   OH223461   3.844   4.543  13.367  0.4659  0.0830 -0.1603
  657TIP3    H123462   3.862   4.449  13.375  0.4929  0.2152  2.0796
  657TIP3    H223463   3.930   4.585  13.378  0.3298  0.3870 -0.2535
  658TIP3   OH223464   5.755   2.777  13.538  0.6784  0.3167  0.0077
  658TIP3    H123465   5.802   2.860  13.549 -0.5676  0.8306  1.8731
  658TIP3    H223466   5.762   2.734  13.623 -0.6247 -0.4576 -0.2450
  659TIP3   OH223467   3.832   4.275   3.729 -0.6938  0.1374  0.2380
  659TIP3    H123468   3.860   4.359   3.766 -0.1995 -0.1881  0.6041
  659TIP3    H223469   3.902   4.214   3.751  0.0446  0.0975 -1.9695
  660TIP3   OH223470   3.894   3.124  14.339 -0.3527  0.0031 -0.3253
  660TIP3    H123471   3.962   3.059  14.357 -0.7636 -0.3390  0.0193
  660TIP3    H223472   3.918   3.199  14.394  0.6166  0.4995 -1.3932
  661TIP3   OH223473   3.914   5.139  15.980 -0.0394 -0.5216 -0.4570
  661TIP3    H123474   3.924   5.175  15.892  2.5304  0.7119  0.2260
  661TIP3    H223475   3.863   5.204  16.027  1.0587  0.2691 -0.3219
  662TIP3   OH223476   5.602   3.253   3.303  0.0845 -0.2871  0.5889
  662TIP3    H123477   5.634   3.264   3.393  1.0462 -1.5251  0.4289
  662TIP3    H223478   5.532   3.188   3.310  0.3735 -0.6243  0.4205
  663TIP3   OH223479   2.555   6.480   4.990 -0.3089  0.0262 -0.6328
  663TIP3    H123480   2.631   6.426   5.013 -0.3926 -0.7208 -2.0219
  663TIP3    H223481   2.488   6.417   4.964 -1.7487  0.6241  1.4168
  664TIP3   OH223482   4.414   6.771  13.845  0.0539 -0.1584 -0.7914
  664TIP3    H123483   4.319   6.754  13.846  0.0234 -0.0716  0.5914
  664TIP3    H223484   4.432   6.804  13.933  1.4765 -0.7551 -0.8364
  665TIP3   OH223485   2.083   2.600   2.788  0.3012  0.3555  0.1712
  665TIP3    H123486   2.101   2.692   2.768 -0.0014  0.1339 -1.2100
  665TIP3    H223487   2.131   2.552   2.721 -1.2218 -0.4264 -0.3847
  666TIP3   OH223488   6.476   4.101  14.401  0.5195  0.6736 -0.2530
  666TIP3    H123489   6.484   4.008  14.378 -0.8479  0.3946  0.3305
  666TIP3    H223490   6.549   4.116  14.462  0.2996 -0.2282  0.2589
  667TIP3   OH223491   0.275   3.162  16.535  0.8966 -0.6794 -0.2964
  667TIP3    H123492   0.251   3.101  16.465  2.8620 -0.7070 -1.0023
  667TIP3    H223493   0.247   3.248  16.503  1.8975 -0.6735 -1.2305
  668TIP3   OH223494   2.237   2.235  16.515  0.3078  0.0494 -0.6024
  668TIP3    H123495   2.207   2.243  16.424 -3.4279 -0.2198  0.4138
  668TIP3    H223496   2.293   2.311  16.528  1.2640 -0.1061 -3.1938
  669TIP3   OH223497   0.060   0.030  16.443  0.2772  0.3483 -0.3863
  669TIP3    H123498   0.009   0.106  16.416  1.2733  1.3227  0.3698
  669TIP3    H223499   0.112   0.008  16.366 -1.8458 -1.2250 -1.4801
  670TIP3   OH223500   6.570   4.720  15.935 -0.0446 -0.2811 -0.3992
  670TIP3    H123501   6.583   4.626  15.944  1.0003 -0.3294 -2.0191
  670TIP3    H223502   6.648   4.759  15.976  0.1164 -0.1703 -0.8080
  671TIP3   OH223503   1.903   0.447   1.825  0.4981 -0.0496 -0.1698
  671TIP3    H123504   1.930   0.504   1.897  1.4675 -1.8144  0.9507
  671TIP3    H223505   1.810   0.430   1.842  0.8925 -1.0898  1.2178
  672TIP3   OH223506   3.623   3.439  16.344  0.4922  0.0132  0.1160
  672TIP3    H123507   3.651   3.494  16.271 -0.4685  0.6254  0.1904
  672TIP3    H223508   3.568   3.372  16.304  0.0584  0.2815  0.2564
  673TIP3   OH223509   5.584   2.596   3.057  0.0113 -0.0111 -0.5634
  673TIP3    H123510   5.625   2.578   2.973 -1.6189 -0.6327 -1.2645
  673TIP3    H223511   5.510   2.654   3.036 -0.7948 -0.6871  0.3332
  674TIP3   OH223512   3.606   6.314   5.385  0.4132 -0.6843 -0.0048
  674TIP3    H123513   3.575   6.403   5.371  0.9586 -0.8167 -2.5745
  674TIP3    H223514   3.529   6.266   5.417 -0.2939  0.3716 -0.0786
  675TIP3   OH223515   2.301   2.276  13.871  0.1075 -0.1279  0.0690
  675TIP3    H123516   2.297   2.295  13.778 -0.4288 -2.1319 -0.3824
  675TIP3    H223517   2.389   2.302  13.898  1.1392 -1.6824 -1.5702
  676TIP3   OH223518   5.882   4.198   3.682  0.3766  0.4220 -0.6079
  676TIP3    H123519   5.833   4.126   3.642 -0.0792  1.1037 -1.3033
  676TIP3    H223520   5.825   4.274   3.674  0.4253  0.6761  1.0363
  677TIP3   OH223521   3.159   5.802  11.958 -0.3828 -0.3314 -0.2829
  677TIP3    H123522   3.074   5.846  11.966 -0.3235 -0.0246 -1.2306
  677TIP3    H223523   3.223   5.870  11.979 -0.3493 -0.4656  0.0646
  678TIP3   OH223524   2.198   4.564  14.624  0.5339  0.3625  0.1379
  678TIP3    H123525   2.203   4.640  14.682 -0.0910 -0.2720  1.0498
  678TIP3    H223526   2.284   4.559  14.583  0.5061  1.6954 -0.1108
  679TIP3   OH223527   2.406   6.450  11.401 -0.2607 -0.0019 -0.1464
  679TIP3    H123528   2.393   6.534  11.444 -0.6097  0.3006 -0.8219
  679TIP3    H223529   2.488   6.460  11.353  0.3490 -0.4843  0.7815
  680TIP3   OH223530   0.419   2.837   1.921 -0.2481  0.0162 -0.4116
  680TIP3    H123531   0.396   2.918   1.965 -1.4977 -0.7801  0.4670
  680TIP3    H223532   0.478   2.792   1.982 -0.4081 -0.2101 -0.4216
  681TIP3   OH223533   1.889   4.782   0.595 -0.3582  0.5628 -0.6441
  681TIP3    H123534   1.870   4.688   0.600  0.0319  0.5230  2.9382
  681TIP3    H223535   1.983   4.786   0.577  0.1036  0.1076  1.3900
  682TIP3   OH223536   6.662   2.593   5.576  0.3556 -0.4532  0.4397
  682TIP3    H123537   6.645   2.499   5.572 -1.4234 -0.1914  0.9804
  682TIP3    H223538   6.697   2.615   5.490  2.1380 -1.8132  0.7557
  683TIP3   OH223539   0.406   0.653  14.761 -0.0157  0.5818  0.2431
  683TIP3    H123540   0.453   0.660  14.677  1.2453  0.4125  0.9009
  683TIP3    H223541   0.424   0.736  14.805  0.5788  0.0942  0.9472
  684TIP3   OH223542   0.807   4.138   3.884  0.3638  0.1423 -0.4428
  684TIP3    H123543   0.801   4.054   3.839  0.0907  0.7776 -1.6483
  684TIP3    H223544   0.768   4.201   3.823  3.3475  1.6571 -0.9782
  685TIP3   OH223545   0.556   1.819   6.630 -0.1480  0.0705  0.1115
  685TIP3    H123546   0.580   1.794   6.540 -0.3479  0.8668 -0.1737
  685TIP3    H223547   0.463   1.841   6.624  0.1561  1.4311  0.2132
  686TIP3   OH223548   3.969   2.761  14.092 -0.1350 -0.2454  0.2525
  686TIP3    H123549   3.989   2.744  14.000  0.5581 -0.0586  0.3629
  686TIP3    H223550   3.874   2.762  14.096 -0.1696 -0.5026 -0.4176
  687TIP3   OH223551   1.057   6.019   4.955 -0.0477  0.1175 -0.4472
  687TIP3    H123552   1.032   5.947   5.012  2.0178 -0.4251 -0.1358
  687TIP3    H223553   0.999   6.011   4.879 -1.3285 -0.5003  0.5672
  688TIP3   OH223554   3.684   4.780  13.213 -0.4963 -0.2802 -0.7575
  688TIP3    H123555   3.769   4.818  13.189 -0.7866  0.2791 -0.9332
  688TIP3    H223556   3.705   4.705  13.268  0.0865  0.3408 -0.1209
  689TIP3   OH223557   5.902   1.294  16.459 -0.1931  0.0385  0.0595
  689TIP3    H123558   5.810   1.270  16.449 -0.1914 -0.4055  1.0075
  689TIP3    H223559   5.899   1.381  16.501 -0.1849 -0.0451  0.2357
  690TIP3   OH223560   5.280   6.312   3.433  0.7262 -0.0179 -0.0859
  690TIP3    H123561   5.350   6.270   3.384  2.3303  1.8584  0.4741
  690TIP3    H223562   5.290   6.280   3.522  0.3516 -0.3257 -0.1474
  691TIP3   OH223563   1.267   5.247   5.838 -0.5144 -0.0177  0.2008
  691TIP3    H123564   1.350   5.283   5.807 -0.8612  1.1274  0.5607
  691TIP3    H223565   1.220   5.322   5.874 -1.7451 -0.6286 -0.0733
  692TIP3   OH223566   0.641   1.595  16.961 -0.0839  0.0721  0.1581
  692TIP3    H123567   0.710   1.530  16.977 -0.0024 -0.3648 -1.6894
  692TIP3    H223568   0.581   1.552  16.901 -0.0716  1.6613 -1.0711
  693TIP3   OH223569   3.258   6.167   6.012 -0.4445 -0.1009  0.8620
  693TIP3    H123570   3.177   6.182   6.062  0.8562  0.7040  2.8331
  693TIP3    H223571   3.296   6.088   6.051 -0.9051 -1.3498 -1.0217
  694TIP3   OH223572   3.882   1.826  13.573 -0.2772  0.0166 -0.4555
  694TIP3    H123573   3.790   1.805  13.586 -0.1150  0.6198  2.4341
  694TIP3    H223574   3.924   1.742  13.556 -1.2070 -0.4203 -0.6244
  695TIP3   OH223575   3.429   3.413   1.887 -0.5242 -0.1710 -0.9438
  695TIP3    H123576   3.447   3.504   1.862 -1.0995  0.0456 -0.5912
  695TIP3    H223577   3.374   3.379   1.817 -0.1763 -0.3043 -1.1578
  696TIP3   OH223578   0.523   2.358   4.642  0.0308 -0.3662  0.6662
  696TIP3    H123579   0.488   2.344   4.730  1.5087  1.6962  1.6497
  696TIP3    H223580   0.617   2.343   4.650  0.4136  1.4074 -0.1644
  697TIP3   OH223581   0.117   4.461   5.587  0.4311 -0.1222 -0.2139
  697TIP3    H123582   0.097   4.511   5.666 -0.2258 -0.6650 -0.0287
  697TIP3    H223583   0.208   4.434   5.599  1.3259  2.3105 -1.0350
  698TIP3   OH223584   0.912   2.804   4.888 -0.2197 -0.0854 -0.4697
  698TIP3    H123585   0.925   2.883   4.834 -0.5052 -0.1409 -0.6202
  698TIP3    H223586   0.818   2.802   4.905 -0.3547 -0.8889 -1.2243
  699TIP3   OH223587   3.965   1.509  11.892 -0.3318 -0.3794  0.4449
  699TIP3    H123588   4.016   1.430  11.874  0.6877  0.6711 -1.6127
  699TIP3    H223589   3.876   1.476  11.908 -0.0552 -1.9295 -0.8829
  700TIP3   OH223590   4.132   5.452  13.583 -0.7918  0.2781 -0.2550
  700TIP3    H123591   4.174   5.366  13.593  2.8742  1.4683 -3.0366
  700TIP3    H223592   4.127   5.487  13.672 -0.7002 -2.0773  0.7357
  701TIP3   OH223593   0.938   0.336  12.627 -0.1366  0.3232  0.0479
  701TIP3    H123594   0.904   0.383  12.703  0.0903  0.0752  0.3051
  701TIP3    H223595   0.959   0.404  12.564 -1.8009  0.4542 -0.4068
  702TIP3   OH223596   6.554   3.564  16.513 -0.1079 -0.1180 -0.2593
  702TIP3    H123597   6.528   3.474  16.533 -1.0081  0.4805  1.4275
  702TIP3    H223598   6.472   3.613  16.511  0.5282  1.0900  1.2321
  703TIP3   OH223599   6.185   5.855  10.878 -0.4242 -0.5099  0.0696
  703TIP3    H123600   6.153   5.902  10.801  0.7644 -0.0768 -0.1833
  703TIP3    H223601   6.128   5.884  10.949 -0.0751  0.8965 -0.2003
  704TIP3   OH223602   3.588   6.385   3.269 -1.0750 -0.0646  0.0792
  704TIP3    H123603   3.591   6.359   3.177 -0.4717  1.4460 -0.3565
  704TIP3    H223604   3.673   6.359   3.304 -0.4238  1.3458 -0.3865
  705TIP3   OH223605   6.571   6.290   6.409  0.8566 -0.7739  1.0117
  705TIP3    H123606   6.596   6.369   6.457 -0.5699  1.0345 -1.0093
  705TIP3    H223607   6.504   6.249   6.463 -1.8156  2.0153  0.1202
  706TIP3   OH223608   3.704   4.835   6.337  0.2463  0.3731  0.1139
  706TIP3    H123609   3.796   4.839   6.363 -0.3267  2.9184  2.1128
  706TIP3    H223610   3.681   4.742   6.345  2.2379 -0.0982  1.0246
  707TIP3   OH223611   3.363   0.932  11.094 -0.1482  0.2592  0.0970
  707TIP3    H123612   3.309   0.857  11.069  0.7388 -0.4448  0.2424
  707TIP3    H223613   3.306   0.986  11.148 -0.5164 -0.7941  0.7772
  708TIP3   OH223614   5.203   4.933  17.279  0.6329  0.5606 -0.2301
  708TIP3    H123615   5.294   4.960  17.262 -0.2005  3.4622 -0.5914
  708TIP3    H223616   5.186   4.964  17.368 -0.8978  2.9702 -1.2672
  709TIP3   OH223617   0.233   5.410  16.121  0.2127 -0.4104 -0.1719
  709TIP3    H123618   0.148   5.453  16.113 -0.7015 -2.1187  0.0224
  709TIP3    H223619   0.292   5.465  16.069 -1.2450  0.1743 -1.2864
  710TIP3   OH223620   2.627   4.405  12.807 -0.0160  0.1187 -0.1491
  710TIP3    H123621   2.538   4.374  12.824  0.3548 -1.0979 -0.3432
  710TIP3    H223622   2.641   4.474  12.872 -1.8012  1.7709 -1.4000
  711TIP3   OH223623   1.948   0.511  12.087  0.2536  0.1799  0.4038
  711TIP3    H123624   1.903   0.593  12.069  0.7012  0.7771  1.8719
  711TIP3    H223625   1.909   0.448  12.026 -2.0967  0.8239  1.1693
  712TIP3   OH223626   3.706   6.250  16.041 -0.4809  0.5397  0.1250
  712TIP3    H123627   3.621   6.250  16.084 -0.4094 -0.8701  0.3104
  712TIP3    H223628   3.692   6.296  15.958 -1.3903  0.4122  0.2017
  713TIP3   OH223629   3.514   6.110   1.182 -0.3363  0.7402 -0.0144
  713TIP3    H123630   3.514   6.035   1.242 -0.5689  0.1641 -0.7191
  713TIP3    H223631   3.592   6.096   1.128  0.6219  1.9607  1.0012
  714TIP3   OH223632   5.604   1.502  16.721  0.5796  0.3523 -0.4250
  714TIP3    H123633   5.557   1.429  16.682  0.8879  1.0007 -2.1070
  714TIP3    H223634   5.612   1.480  16.813 -1.2334 -0.7137 -0.4855
  715TIP3   OH223635   4.065   4.037   1.303  0.4014  0.1677  0.1622
  715TIP3    H123636   4.117   4.106   1.263 -1.0359  1.1239 -0.1200
  715TIP3    H223637   4.036   3.983   1.229 -3.3912  2.6980 -0.5246
  716TIP3   OH223638   0.648   4.990  11.232 -0.2102 -0.0691 -0.4583
  716TIP3    H123639   0.738   4.976  11.260  0.0048  0.8345 -0.6734
  716TIP3    H223640   0.611   5.049  11.298 -0.7795 -0.7620 -0.1409
  717TIP3   OH223641   3.176   1.010   1.783  0.5054 -0.1575  0.2496
  717TIP3    H123642   3.228   1.070   1.730 -0.1323  2.1406  2.0627
  717TIP3    H223643   3.194   0.923   1.746  4.4850  0.6422 -0.1306
  718TIP3   OH223644   1.278   0.792  13.674  0.5345 -0.0030 -0.0437
  718TIP3    H123645   1.304   0.779  13.765  1.5608 -0.8566 -0.4367
  718TIP3    H223646   1.286   0.705  13.634 -1.6402 -0.0200 -0.5370
  719TIP3   OH223647   0.153   0.968   6.109  0.1096  0.0418 -0.2411
  719TIP3    H123648   0.175   0.902   6.175 -1.6163 -1.1882 -0.8243
  719TIP3    H223649   0.082   1.019   6.148  0.3266  0.5131 -0.4450
  720TIP3   OH223650   0.250   6.452  15.759  0.3666 -0.3012  0.3312
  720TIP3    H123651   0.277   6.366  15.726  2.3955  0.4126  0.0313
  720TIP3    H223652   0.167   6.469  15.715  1.6073 -0.6188 -2.3370
  721TIP3   OH223653   2.813   4.950   2.044  0.5349  0.0487  0.2252
  721TIP3    H123654   2.896   4.949   2.090  0.6239 -1.2833  0.0723
  721TIP3    H223655   2.747   4.963   2.113  0.8051  0.2928  0.4401
  722TIP3   OH223656   5.717   1.297  11.313  0.2898  0.3398 -0.5169
  722TIP3    H123657   5.711   1.278  11.407  0.0813 -1.0004 -0.7696
  722TIP3    H223658   5.798   1.253  11.285  0.0036  0.1562 -1.0746
  723TIP3   OH223659   1.661   1.285  12.967 -0.2360 -0.0603  0.3320
  723TIP3    H123660   1.670   1.369  13.012 -0.4044  0.0182  0.2181
  723TIP3    H223661   1.578   1.291  12.921  0.0843 -0.0277 -0.2437
  724TIP3   OH223662   5.821   2.208  12.625  0.4233 -0.9136  0.1158
  724TIP3    H123663   5.776   2.288  12.652 -0.0560  0.0646 -3.1472
  724TIP3    H223664   5.911   2.236  12.609  0.4402 -1.1844 -0.2909
  725TIP3   OH223665   0.212   3.262   1.803  0.3541  0.5046  0.1445
  725TIP3    H123666   0.117   3.245   1.805  0.4758 -0.1555  0.6186
  725TIP3    H223667   0.226   3.308   1.721 -0.9680  4.1595  1.7715
  726TIP3   OH223668   6.063   6.669   0.571  0.2846  0.7061  0.8275
  726TIP3    H123669   5.985   6.702   0.528  0.6971  1.3753  0.5819
  726TIP3    H223670   6.129   6.737   0.557  1.7916 -1.0488 -1.5157
  727TIP3   OH223671   4.051   0.573   1.034  0.0567 -0.4006 -0.1574
  727TIP3    H123672   3.990   0.529   1.092  0.5932  0.5329  1.1743
  727TIP3    H223673   4.029   0.541   0.947 -1.0740 -1.4980  0.5000
  728TIP3   OH223674   3.770   4.862  11.721  0.5703  0.0224 -0.2933
  728TIP3    H123675   3.770   4.789  11.660 -1.1734  0.1683 -0.5249
  728TIP3    H223676   3.853   4.907  11.705  0.7490 -0.7179 -1.5903
  729TIP3   OH223677   1.130   1.328   0.752  0.1365 -0.5068  0.2710
  729TIP3    H123678   1.071   1.401   0.733  0.4197 -0.5302 -0.7283
  729TIP3    H223679   1.075   1.251   0.750 -0.1333 -0.3472  1.1616
  730TIP3   OH223680   0.306   2.757   3.972 -0.4672 -0.3327 -0.4685
  730TIP3    H123681   0.337   2.680   4.020  0.6283  1.4323  1.8630
  730TIP3    H223682   0.364   2.764   3.897 -0.6523 -1.7893 -0.7861
  731TIP3   OH223683   2.294   4.773  10.566 -0.1211  0.3714  0.0500
  731TIP3    H123684   2.353   4.709  10.605  0.2999  0.8124  0.1391
  731TIP3    H223685   2.220   4.721  10.534 -0.4916 -0.0182  1.4452
  732TIP3   OH223686   1.659   0.502   4.956 -0.5294  0.0369 -0.7263
  732TIP3    H123687   1.671   0.584   4.907  1.3493  1.6396  2.1419
  732TIP3    H223688   1.587   0.520   5.016  0.2810 -0.1499  0.3395
  733TIP3   OH223689   5.976   3.212  17.408 -0.7083  0.2405  0.1022
  733TIP3    H123690   6.069   3.220  17.392 -0.5638  0.1433  0.8382
  733TIP3    H223691   5.961   3.261  17.489 -1.5251  1.3480 -0.7067
  734TIP3   OH223692   2.952   6.126   0.236 -0.6028  0.1762  0.1978
  734TIP3    H123693   3.007   6.058   0.275 -0.2752 -0.5876 -1.4775
  734TIP3    H223694   2.952   6.197   0.299  2.0886  0.0830  0.3914
  735TIP3   OH223695   5.297   4.435  15.828  0.1238  0.3741  0.4974
  735TIP3    H123696   5.253   4.381  15.762  0.0046  0.7365  0.2799
  735TIP3    H223697   5.357   4.375  15.871  1.8815  0.6097 -1.4429
  736TIP3   OH223698   1.084   6.689   2.046 -0.1525 -0.5697 -0.1608
  736TIP3    H123699   1.115   6.759   1.989  0.9568 -0.5294  0.4616
  736TIP3    H223700   1.143   6.615   2.027 -0.0464 -0.6906  0.6041
  737TIP3   OH223701   2.251   0.817   1.287  0.0445  0.1566 -0.3854
  737TIP3    H123702   2.173   0.871   1.280  0.0139  0.0365 -1.0309
  737TIP3    H223703   2.303   0.858   1.356 -0.4661  0.3873 -0.1406
  738TIP3   OH223704   6.396   1.925   2.640 -0.4781 -1.0062  0.1858
  738TIP3    H123705   6.385   1.938   2.734  0.9938  0.5593  0.1967
  738TIP3    H223706   6.395   1.830   2.628  0.3646 -1.2769  1.9281
  739TIP3   OH223707   2.859   1.647  15.597  0.3605  0.0290 -0.6815
  739TIP3    H123708   2.954   1.647  15.594  0.4374  0.2134  0.9908
  739TIP3    H223709   2.836   1.733  15.632 -0.3510 -0.5785  0.3683
  740TIP3   OH223710   2.217   2.747  12.200 -0.4288 -0.2770  0.1539
  740TIP3    H123711   2.131   2.751  12.158 -0.9365  0.4354  1.2115
  740TIP3    H223712   2.279   2.741  12.127 -1.3343 -0.2051 -0.6471
  741TIP3   OH223713   2.446   2.541  13.117  0.4896 -0.7481  0.6223
  741TIP3    H123714   2.522   2.597  13.105  0.6320 -1.2052 -0.7432
  741TIP3    H223715   2.453   2.474  13.049 -0.8387 -1.1360  0.8197
  742TIP3   OH223716   0.411   0.609  11.722  0.7285  0.2913 -0.0520
  742TIP3    H123717   0.356   0.541  11.761  1.0685  0.0709  0.0525
  742TIP3    H223718   0.482   0.620  11.785  0.4038  1.1114  0.1789
  743TIP3   OH223719   4.072   3.802   2.816  0.1544 -0.2958  0.4483
  743TIP3    H123720   4.055   3.710   2.793 -1.3144 -0.3302  1.5466
  743TIP3    H223721   4.061   3.805   2.911  3.2919  0.4092  0.8901
  744TIP3   OH223722   1.612   3.085   3.607 -0.2511  0.2285  0.4409
  744TIP3    H123723   1.564   3.159   3.642  1.2936  1.0716  0.8449
  744TIP3    H223724   1.675   3.062   3.675  0.5287 -0.2684 -0.4287
  745TIP3   OH223725   1.440   1.091  13.101 -0.3549  0.4656  0.7010
  745TIP3    H123726   1.493   1.014  13.121 -2.0474 -0.6847  1.0276
  745TIP3    H223727   1.452   1.149  13.177  1.9073  1.1553 -0.1050
  746TIP3   OH223728   2.391   5.020  14.466 -0.4153  0.0092  0.4511
  746TIP3    H123729   2.323   4.954  14.467 -0.1091 -0.3308 -0.2862
  746TIP3    H223730   2.359   5.089  14.524 -1.6801  0.1419 -0.3690
  747TIP3   OH223731   4.868   5.051  14.589 -0.3777  0.0588  0.2390
  747TIP3    H123732   4.842   4.960  14.605 -2.4453  0.6733  0.7597
  747TIP3    H223733   4.963   5.049  14.583 -0.2148 -1.8042  2.4381
  748TIP3   OH223734   3.820   3.041   6.566  0.0971 -0.1709 -0.3493
  748TIP3    H123735   3.758   2.983   6.610  0.6867  0.0014  0.7383
  748TIP3    H223736   3.904   2.996   6.570  0.6327  0.8491  0.8033
  749TIP3   OH223737   1.731   0.965   3.957  0.0980 -0.0057  0.7828
  749TIP3    H123738   1.653   0.910   3.950  0.2800 -0.5299  2.3778
  749TIP3    H223739   1.751   0.990   3.867 -2.4232  0.9033  0.3707
  750TIP3   OH223740   0.648   0.648  13.768  0.4250  0.5339  0.0427
  750TIP3    H123741   0.671   0.591  13.842 -3.1463  0.1770  1.0558
  750TIP3    H223742   0.715   0.629  13.702  2.3886 -0.9144  2.2490
  751TIP3   OH223743   0.955   1.695  14.726 -0.0273  0.1000  0.2652
  751TIP3    H123744   0.860   1.687  14.740  0.0991  2.3176  3.3810
  751TIP3    H223745   0.971   1.647  14.645 -3.4240 -2.4272  0.8676
  752TIP3   OH223746   5.675   2.399  11.895  0.0602  0.5499  0.6291
  752TIP3    H123747   5.616   2.349  11.952  0.4171  0.5247  0.9845
  752TIP3    H223748   5.617   2.444  11.834 -0.2149 -1.2850 -0.5308
  753TIP3   OH223749   6.185   4.400  17.221 -0.5574  0.3995  0.4717
  753TIP3    H123750   6.269   4.437  17.252 -0.5466  2.7929 -2.0149
  753TIP3    H223751   6.130   4.398  17.299  1.1396  0.8182  1.7461
  754TIP3   OH223752   2.526   3.844   1.216  0.2471  0.8133  0.0516
  754TIP3    H123753   2.622   3.837   1.221  0.4485  0.4413 -2.5348
  754TIP3    H223754   2.505   3.808   1.130 -2.5366 -1.8662  1.6608
  755TIP3   OH223755   4.813   5.553  12.424 -0.0724  0.8840 -0.0036
  755TIP3    H123756   4.904   5.577  12.436 -0.1065 -0.0380  2.9451
  755TIP3    H223757   4.806   5.466  12.463 -2.4276  1.4351  1.0002
  756TIP3   OH223758   4.030   4.121   3.473  0.5946 -0.4501 -0.6266
  756TIP3    H123759   4.069   4.186   3.531  1.3353 -1.8153  0.4775
  756TIP3    H223760   3.964   4.077   3.526 -1.9821  1.2290 -2.2160
  757TIP3   OH223761   2.377   2.879   3.097  0.1068 -0.1996  0.2949
  757TIP3    H123762   2.315   2.822   3.052  0.0448 -0.6760  0.9687
  757TIP3    H223763   2.407   2.828   3.172  0.0899  0.6252  0.8864
  758TIP3   OH223764   3.372   3.494  11.185  0.5128  0.0170 -0.5746
  758TIP3    H123765   3.460   3.465  11.209 -0.3121 -1.2862  1.1140
  758TIP3    H223766   3.367   3.479  11.091  1.3629 -2.0800 -0.3371
  759TIP3   OH223767   0.489   1.364  12.097  0.0660 -0.6964 -0.8471
  759TIP3    H123768   0.500   1.276  12.061 -0.2207 -2.0807  2.0838
  759TIP3    H223769   0.494   1.351  12.192 -2.9204  1.9990 -0.1609
  760TIP3   OH223770   4.310   0.814  16.468 -0.2288  0.4153 -0.2565
  760TIP3    H123771   4.387   0.769  16.434 -0.4205 -0.4549  0.4221
  760TIP3    H223772   4.345   0.882  16.525  0.0629  0.9897 -1.1172
  761TIP3   OH223773   6.159   3.297  14.868 -0.4113  0.3503  0.2453
  761TIP3    H123774   6.093   3.233  14.893 -0.4982  0.6947  0.9014
  761TIP3    H223775   6.137   3.319  14.777 -1.5093  0.8360  0.6110
  762TIP3   OH223776   2.388   6.384  14.240  0.3727  0.1707 -0.1792
  762TIP3    H123777   2.316   6.437  14.274  0.9349  1.8712 -1.5318
  762TIP3    H223778   2.461   6.402  14.299  0.7984  1.5958 -1.1135
  763TIP3   OH223779   6.019   3.344   0.566 -0.1626  0.5062  0.0503
  763TIP3    H123780   5.968   3.366   0.644  0.1874 -0.9180  0.7210
  763TIP3    H223781   6.109   3.362   0.591 -0.2120  2.0362 -0.7786
  764TIP3   OH223782   0.172   3.640   1.516  0.0978 -0.5915  0.3922
  764TIP3    H123783   0.077   3.641   1.531 -0.0399 -1.0493 -0.3878
  764TIP3    H223784   0.197   3.548   1.521  0.1729 -0.6878 -1.2621
  765TIP3   OH223785   4.235   5.195  16.373 -0.5329  0.4991  0.2564
  765TIP3    H123786   4.148   5.235  16.370 -1.3015 -1.1421 -0.3897
  765TIP3    H223787   4.219   5.101  16.363  1.3741  0.2382 -0.9650
  766TIP3   OH223788   1.050   1.588  13.172  0.4042 -0.8430  0.0198
  766TIP3    H123789   1.047   1.676  13.211 -0.3833 -0.6246 -0.5090
  766TIP3    H223790   1.059   1.529  13.247  1.1277 -0.3083  0.3714
  767TIP3   OH223791   5.001   4.907  14.207 -0.3616  0.1262  0.2020
  767TIP3    H123792   5.060   4.848  14.162 -1.7117 -0.4024 -0.9311
  767TIP3    H223793   5.058   4.959  14.265  1.2507 -0.0264 -1.1879
  768TIP3   OH223794   2.726   3.058   6.086 -0.4095  0.1869  0.5797
  768TIP3    H123795   2.649   3.044   6.140 -0.7425 -1.5483 -0.2563
  768TIP3    H223796   2.692   3.088   6.002 -0.1054  0.4230  0.5399
  769TIP3   OH223797   5.320   0.461  11.587 -0.3693  0.4460 -0.5641
  769TIP3    H123798   5.314   0.551  11.619 -1.8371  0.3740 -0.5595
  769TIP3    H223799   5.308   0.469  11.492  0.5818  0.3377 -0.7077
  770TIP3   OH223800   2.933   3.050   4.988 -0.0041 -0.2813  0.1569
  770TIP3    H123801   3.002   3.116   5.000 -0.0604  0.2331 -1.9852
  770TIP3    H223802   2.854   3.092   5.023  0.6417 -0.7445  2.3093
  771TIP3   OH223803   4.817   4.104  13.847  0.3502  0.5171  1.0927
  771TIP3    H123804   4.770   4.148  13.918 -0.9987  1.5575 -0.3824
  771TIP3    H223805   4.766   4.124  13.769  1.2571 -1.4069 -0.0522
  772TIP3   OH223806   0.231   2.914  13.591 -0.4119  0.3539 -0.4723
  772TIP3    H123807   0.142   2.945  13.582 -0.3585  0.6366 -0.0113
  772TIP3    H223808   0.247   2.863  13.510 -1.2342 -0.3292 -0.2176
  773TIP3   OH223809   3.252   4.052   4.241 -0.3801 -0.1765 -0.3534
  773TIP3    H123810   3.182   4.038   4.305 -0.9295 -0.8923 -1.0775
  773TIP3    H223811   3.225   4.000   4.165  0.8350 -0.2990 -0.7294
  774TIP3   OH223812   1.919   2.180  14.681 -0.5372  0.1032  0.0692
  774TIP3    H123813   1.908   2.204  14.773  2.0144  0.0816  0.4738
  774TIP3    H223814   1.920   2.263  14.634 -1.1864  0.1549  0.1423
  775TIP3   OH223815   2.628   2.419  15.706  0.8133  0.5375  0.7526
  775TIP3    H123816   2.658   2.464  15.784  0.9059  2.2144 -0.2048
  775TIP3    H223817   2.648   2.479  15.634 -0.3549 -0.4240 -0.4364
  776TIP3   OH223818   3.961   1.760   4.142  0.6262 -0.4835  0.1532
  776TIP3    H123819   3.980   1.854   4.132 -2.9253  0.5133  1.1986
  776TIP3    H223820   3.949   1.729   4.052 -0.4554  0.7053 -0.1527
  777TIP3   OH223821   1.130   6.524  11.582  0.1983  0.2005 -0.0846
  777TIP3    H123822   1.069   6.466  11.627 -0.8799  0.2600 -1.4025
  777TIP3    H223823   1.174   6.572  11.653 -1.4529  0.3308  0.9127
  778TIP3   OH223824   2.711   3.267   3.974  0.1596  0.6446  0.5552
  778TIP3    H123825   2.767   3.319   4.031  0.5174  0.0232  0.7831
  778TIP3    H223826   2.770   3.230   3.909  0.0483 -0.1067  0.8645
  779TIP3   OH223827   6.617   0.204   6.430 -0.2300  0.8811 -0.3677
  779TIP3    H123828   6.606   0.182   6.523 -0.4216  0.7289 -0.4263
  779TIP3    H223829   6.540   0.257   6.409  0.7718  2.6039  0.0677
  780TIP3   OH223830   2.861   2.295  11.633 -0.1750 -0.3971 -0.0646
  780TIP3    H123831   2.780   2.345  11.645 -0.0865 -0.2930  0.1153
  780TIP3    H223832   2.833   2.204  11.635 -0.0442 -0.4313  2.0872
  781TIP3   OH223833   3.741   3.513  14.028 -0.5056 -0.6514  0.0236
  781TIP3    H123834   3.704   3.429  14.055 -0.5745 -0.5708  0.1798
  781TIP3    H223835   3.698   3.531  13.944 -1.9565  0.1496  0.8837
  782TIP3   OH223836   4.428   1.857  15.409  0.2998 -0.5774  0.4279
  782TIP3    H123837   4.413   1.875  15.316  1.1771  0.8521  0.5399
  782TIP3    H223838   4.498   1.916  15.434 -0.9493  0.1812  2.3755
  783TIP3   OH223839   3.035   2.418  13.737 -0.2619  0.0778  0.5505
  783TIP3    H123840   3.009   2.326  13.727 -0.6213  0.2153  0.2107
  783TIP3    H223841   2.953   2.467  13.736 -0.0441  0.4443  0.2881
  784TIP3   OH223842   4.175   6.105   4.965  0.7223  1.0177 -0.5281
  784TIP3    H123843   4.267   6.133   4.970  0.5285  1.5433  0.3243
  784TIP3    H223844   4.127   6.187   4.952  0.2227  0.9752  0.9836
  785TIP3   OH223845   1.806   4.358   2.402  0.0961 -0.1046  0.1591
  785TIP3    H123846   1.784   4.433   2.347  0.1922  1.3640  2.0385
  785TIP3    H223847   1.726   4.306   2.404 -1.5472  2.2339  2.2884
  786TIP3   OH223848   0.749   5.088   5.665 -0.6361 -0.3458 -0.4681
  786TIP3    H123849   0.805   5.086   5.743  0.0095  0.6744 -0.8797
  786TIP3    H223850   0.755   5.000   5.629  0.4547 -0.3516 -0.3157
  787TIP3   OH223851   5.413   2.945  15.261 -0.2288  0.0881  0.5242
  787TIP3    H123852   5.408   3.040  15.272 -0.8085  0.1059  0.1059
  787TIP3    H223853   5.346   2.924  15.196 -0.3414 -0.6492  0.8680
  788TIP3   OH223854   4.968   2.577   3.450 -0.0803  0.5477 -0.7714
  788TIP3    H123855   4.904   2.645   3.431 -1.3463 -0.2460  0.3775
  788TIP3    H223856   4.975   2.527   3.369  1.0722  2.1429 -1.7179
  789TIP3   OH223857   6.568   3.256   2.221  0.2692 -0.1250  0.0033
  789TIP3    H123858   6.529   3.201   2.289 -0.3762  0.9872  0.5714
  789TIP3    H223859   6.514   3.335   2.221 -0.5785 -0.5992 -2.7039
  790TIP3   OH223860   6.416   4.393  13.681 -1.1094  0.5863 -0.7394
  790TIP3    H123861   6.435   4.300  13.681 -2.1417  0.3604  0.0358
  790TIP3    H223862   6.492   4.433  13.723 -0.8605  0.0480 -0.6744
  791TIP3   OH223863   3.121   0.573   1.206 -0.5315  0.5800 -0.1663
  791TIP3    H123864   3.185   0.601   1.273 -1.6860  1.1349  0.7349
  791TIP3    H223865   3.128   0.477   1.206 -1.2615  0.4790  1.5715
  792TIP3   OH223866   6.005   1.649   3.709  0.6526  0.6052  0.1504
  792TIP3    H123867   6.032   1.741   3.714 -0.6474  1.2154 -2.3552
  792TIP3    H223868   6.086   1.601   3.697  1.3001  1.4975  0.8365
  793TIP3   OH223869   1.123   5.152   3.159 -0.5016 -0.3975 -0.1344
  793TIP3    H123870   1.216   5.132   3.149 -0.8785 -2.9461  0.5259
  793TIP3    H223871   1.119   5.218   3.228  0.7860 -1.6292  1.2045
  794TIP3   OH223872   0.683   4.429   5.699  0.4698 -0.4087 -0.1845
  794TIP3    H123873   0.636   4.346   5.695  1.1495 -0.7926 -0.4705
  794TIP3    H223874   0.705   4.448   5.608 -0.2973  0.4529 -0.1993
  795TIP3   OH223875   3.398   5.161   0.102 -0.1093 -0.2642 -0.1701
  795TIP3    H123876   3.307   5.188   0.095  0.3897  1.3422 -0.8551
  795TIP3    H223877   3.403   5.079   0.052 -1.2207 -0.5022  0.0991
  796TIP3   OH223878   2.241   5.902  15.872 -0.4761  0.1432 -0.6627
  796TIP3    H123879   2.164   5.940  15.915 -0.9773  1.3330 -2.5149
  796TIP3    H223880   2.209   5.875  15.786  1.0247  0.0243 -1.2057
  797TIP3   OH223881   6.685   6.733  11.880  0.2585 -0.1097 -0.1696
  797TIP3    H123882   6.757   6.792  11.902  0.8553 -1.2672  1.2080
  797TIP3    H223883   6.625   6.741  11.954 -0.4260 -0.0738 -0.7233
  798TIP3   OH223884   0.814   3.673  12.763 -0.3351  0.0901 -0.6059
  798TIP3    H123885   0.883   3.619  12.802 -0.0808 -0.9999 -2.4876
  798TIP3    H223886   0.733   3.643  12.805  0.1057  0.2214  0.3859
  799TIP3   OH223887   5.423   1.999   4.840  0.1764  0.8058 -0.0977
  799TIP3    H123888   5.395   1.930   4.780  1.9433  0.1344 -0.1992
  799TIP3    H223889   5.397   2.080   4.796  0.7215  0.3023 -1.4190
  800TIP3   OH223890   6.092   0.234  13.984 -0.2262 -0.0203  0.3363
  800TIP3    H123891   6.140   0.169  13.932 -1.0778 -1.0610  0.8186
  800TIP3    H223892   6.059   0.297  13.920 -1.2737 -1.2913 -0.4269
  801TIP3   OH223893   0.017   4.149   1.653  0.5346  0.2620  0.0996
  801TIP3    H123894   0.106   4.142   1.619  0.0232 -2.7088 -0.9959
  801TIP3    H223895  -0.018   4.060   1.645 -2.5030  1.3018  0.5789
  802TIP3   OH223896   3.564   6.084   5.630  0.1072  0.4266  0.2565
  802TIP3    H123897   3.561   6.171   5.672  0.5590  0.4703  0.2008
  802TIP3    H223898   3.564   6.022   5.703 -1.7822  0.4034  0.2978
  803TIP3   OH223899   4.884   6.436  12.285  0.6649  0.2031 -0.3065
  803TIP3    H123900   4.870   6.471  12.373  1.5524 -1.2030  0.4326
  803TIP3    H223901   4.830   6.491  12.228  0.2626  1.2923  1.0783
  804TIP3   OH223902   4.087   1.279  16.251 -0.3040  0.0185 -0.2095
  804TIP3    H123903   4.029   1.348  16.220 -1.6421 -1.3695 -0.9318
  804TIP3    H223904   4.093   1.218  16.177  0.6482 -0.7624  0.4860
  805TIP3   OH223905   0.550   1.806  16.185  0.2050  0.4265  0.1760
  805TIP3    H123906   0.500   1.830  16.107  1.4624  2.4083 -0.0939
  805TIP3    H223907   0.637   1.843  16.170  1.1521 -1.1090  1.5417
  806TIP3   OH223908   3.377   5.037  12.194  0.7107 -0.3954 -0.6125
  806TIP3    H123909   3.459   5.072  12.158 -0.3183 -0.3610 -3.1774
  806TIP3    H223910   3.327   5.114  12.220  0.6354 -0.2616 -1.1337
  807TIP3   OH223911   4.973   2.300  11.438 -0.3104  0.0150  0.3373
  807TIP3    H123912   4.951   2.212  11.466  2.7921 -1.6819 -1.9775
  807TIP3    H223913   4.976   2.296  11.342  1.3578  2.2141  0.2052
  808TIP3   OH223914   1.165   0.493  15.944 -0.1720  0.1573  0.3553
  808TIP3    H123915   1.129   0.538  15.868  0.4622 -0.6903 -0.4617
  808TIP3    H223916   1.114   0.413  15.952  1.2717 -0.9206 -0.6492
  809TIP3   OH223917   3.286   5.675   5.304 -0.2841 -0.2987 -0.0999
  809TIP3    H123918   3.261   5.749   5.249  0.0379 -0.3215 -0.2805
  809TIP3    H223919   3.282   5.710   5.393 -0.4432 -0.1554 -0.1617
  810TIP3   OH223920   4.383   0.664   2.155 -0.3814  0.4466 -0.0870
  810TIP3    H123921   4.431   0.723   2.213  0.1365  0.0233 -0.0724
  810TIP3    H223922   4.450   0.629   2.096 -0.6487 -0.2259 -0.0049
  811TIP3   OH223923   4.897   0.315   4.030 -0.2594  0.0214  0.1278
  811TIP3    H123924   4.864   0.285   3.945  0.3854  1.1208 -0.5326
  811TIP3    H223925   4.988   0.340   4.012 -0.5387  1.5885  0.8248
  812TIP3   OH223926   5.024   4.866   1.103 -0.3318  0.3107  0.8968
  812TIP3    H123927   4.934   4.896   1.084 -0.8606 -2.0251 -0.7271
  812TIP3    H223928   5.079   4.918   1.044 -0.6729  1.2166  1.3536
  813TIP3   OH223929   3.125   1.718  15.484 -0.6673  0.9776  0.1793
  813TIP3    H123930   3.171   1.634  15.495 -2.5269  0.0396  1.4704
  813TIP3    H223931   3.141   1.764  15.566 -2.1263  0.5357  0.7492
  814TIP3   OH223932   2.172   1.978  15.334  0.1206  0.6807 -0.5418
  814TIP3    H123933   2.175   2.047  15.267 -2.4572 -0.6035 -2.1332
  814TIP3    H223934   2.125   2.019  15.407 -1.4848  0.6565 -1.5123
  815TIP3   OH223935   1.986   1.596  14.164  0.0341  0.1462  0.0231
  815TIP3    H123936   1.960   1.669  14.109  2.3855  1.4166  0.4658
  815TIP3    H223937   2.051   1.549  14.112  0.2324 -0.2823  0.6466
  816TIP3   OH223938   1.673   1.339   6.505 -0.2649 -0.3244  0.4997
  816TIP3    H123939   1.586   1.343   6.465 -0.2043 -0.1091  0.3884
  816TIP3    H223940   1.669   1.399   6.579  0.3246  1.0572 -0.5533
  817TIP3   OH223941   3.248   5.433  14.958 -0.4020  0.3939 -0.6178
  817TIP3    H123942   3.303   5.411  15.033 -0.8218 -2.5524 -1.0300
  817TIP3    H223943   3.180   5.489  14.994 -0.7295 -1.1070  1.3305
  818TIP3   OH223944   5.215   1.352  11.795 -0.7829 -0.0166 -0.3375
  818TIP3    H123945   5.133   1.327  11.835 -0.0568 -0.3977  0.9638
  818TIP3    H223946   5.246   1.274  11.750  0.2592 -0.7844  1.6183
  819TIP3   OH223947   3.656   6.644  11.835 -0.1024 -0.5113  0.8403
  819TIP3    H123948   3.696   6.592  11.765 -0.1246 -0.7541  1.0078
  819TIP3    H223949   3.697   6.730  11.826 -0.5073 -0.3765  0.1829
  820TIP3   OH223950   5.089   4.202  13.296  0.6000 -0.1690 -0.5574
  820TIP3    H123951   5.009   4.187  13.245 -0.4371 -2.1576  1.4629
  820TIP3    H223952   5.160   4.182  13.234 -0.4729  0.2246 -1.9858
  821TIP3   OH223953   4.944   3.411   4.180 -0.3444  0.3897  0.0120
  821TIP3    H123954   5.026   3.431   4.223 -0.5887  0.2324  0.5549
  821TIP3    H223955   4.915   3.328   4.219 -0.7010  0.3819 -0.2585
  822TIP3   OH223956   5.104   3.975  15.227  0.0178 -0.2397  0.2110
  822TIP3    H123957   5.064   3.906  15.280 -2.0174  1.0049  0.3909
  822TIP3    H223958   5.152   3.928  15.159 -0.5542 -1.8296  0.8637
  823TIP3   OH223959   6.697   3.980   0.205  0.0743  0.6328 -0.3335
  823TIP3    H123960   6.677   3.923   0.279 -0.2077 -0.1696 -1.0098
  823TIP3    H223961   6.611   4.001   0.167  0.2782 -0.0503 -1.2133
  824TIP3   OH223962   0.640   3.833  11.141  0.4985  0.3948  0.1121
  824TIP3    H123963   0.598   3.873  11.065  0.4453  0.3757  0.1314
  824TIP3    H223964   0.670   3.748  11.111  0.9239  0.5894 -0.0287
  825TIP3   OH223965   4.061   1.384   2.361 -0.8566 -0.1938  0.0370
  825TIP3    H123966   4.091   1.336   2.283 -0.8025 -0.8077  0.4251
  825TIP3    H223967   4.016   1.461   2.326 -0.1394 -0.0398 -0.5873
  826TIP3   OH223968   4.160   5.265   5.761 -0.1651 -0.5057  0.2074
  826TIP3    H123969   4.088   5.269   5.824 -0.9308  2.8201 -0.6977
  826TIP3    H223970   4.118   5.242   5.678  0.3079 -1.4512  0.2171
  827TIP3   OH223971   0.135   4.166  15.633  0.1627  0.2363 -0.1638
  827TIP3    H123972   0.102   4.255  15.624 -0.1360  0.0244 -1.2588
  827TIP3    H223973   0.230   4.174  15.621  0.0380  0.2924 -1.1455
  828TIP3   OH223974   5.545   6.077   0.283  0.4379  0.1403  0.1191
  828TIP3    H123975   5.492   6.071   0.362  1.8382  1.6731  1.2703
  828TIP3    H223976   5.615   6.013   0.296  0.9601  0.7480  0.4105
  829TIP3   OH223977   3.498   1.115  12.917  0.1617  0.4307 -0.2098
  829TIP3    H123978   3.449   1.038  12.944 -2.5203  2.4590  1.2420
  829TIP3    H223979   3.543   1.144  12.996 -0.3891  1.3489 -0.2104
  830TIP3   OH223980   5.156   3.642  11.031  0.5285  0.2199 -0.0869
  830TIP3    H123981   5.130   3.730  11.004 -0.1828 -0.5248 -2.0339
  830TIP3    H223982   5.251   3.641  11.020  0.5151  0.6819 -0.2950
  831TIP3   OH223983   0.694   6.517  15.757 -0.1718  0.0113 -0.2138
  831TIP3    H123984   0.626   6.493  15.695  0.1205 -2.5470  0.3313
  831TIP3    H223985   0.773   6.526  15.704 -0.1788 -0.8871 -0.3913
  832TIP3   OH223986   2.802   5.760  13.480 -0.3205  0.1378  0.2710
  832TIP3    H123987   2.883   5.708  13.482 -0.6663 -0.4074  2.2994
  832TIP3    H223988   2.742   5.708  13.426  0.9950  1.1656 -2.3842
  833TIP3   OH223989   5.829   3.757   3.619 -0.4896  0.5542 -0.1385
  833TIP3    H123990   5.915   3.739   3.581 -0.8783 -0.6595 -0.4710
  833TIP3    H223991   5.797   3.833   3.570 -0.8199 -0.7441 -2.0407
  834TIP3   OH223992   4.867   3.273   5.806 -0.0034 -0.2127 -0.3979
  834TIP3    H123993   4.877   3.366   5.789 -0.2736 -0.1476 -0.2165
  834TIP3    H223994   4.885   3.264   5.900  4.2335 -0.9511 -1.0812
  835TIP3   OH223995   4.133   2.623   0.618  0.4290 -0.0593 -0.1905
  835TIP3    H123996   4.209   2.658   0.664  0.9517 -1.6548  0.2179
  835TIP3    H223997   4.074   2.593   0.687  0.3934 -0.7695 -0.5171
  836TIP3   OH223998   6.040   0.135  15.611 -0.8291  0.1707  0.2130
  836TIP3    H123999   6.107   0.163  15.548 -0.5816 -0.2233  0.2958
  836TIP3    H224000   6.080   0.061  15.656 -1.1081  0.2886  0.6543
  837TIP3   OH224001   1.112   0.085  13.341  0.2663 -0.4147  0.2244
  837TIP3    H124002   1.166   0.161  13.318  0.3016 -0.7890 -0.9675
  837TIP3    H224003   1.045   0.121  13.399  2.1846 -0.0767  2.3736
  838TIP3   OH224004   4.487   1.678   2.920  0.0526 -0.1075 -0.5877
  838TIP3    H124005   4.415   1.621   2.948  0.6720 -0.1793  0.9600
  838TIP3    H224006   4.523   1.713   3.002  2.2503 -0.6430 -1.2532
  839TIP3   OH224007   4.362   0.046  13.211  0.2128 -0.3350 -0.3954
  839TIP3    H124008   4.350  -0.043  13.179 -2.2218 -0.8770  1.7503
  839TIP3    H224009   4.429   0.038  13.279  0.7277 -0.3034 -0.8858
  840TIP3   OH224010   3.869   5.311  14.934  0.2065 -0.5247 -0.1798
  840TIP3    H124011   3.931   5.368  14.889  0.9738  2.0518  3.6534
  840TIP3    H224012   3.924   5.243  14.974  0.3663  0.4607  1.3588
  841TIP3   OH224013   3.911   4.994   2.443 -0.1071 -0.3259  0.0412
  841TIP3    H124014   3.840   5.030   2.391 -0.9292 -2.4999 -0.4451
  841TIP3    H224015   3.964   4.945   2.381  0.1843 -1.0697  0.8500
  842TIP3   OH224016   1.008   2.353  13.429 -0.3472  0.7297  0.2053
  842TIP3    H124017   1.007   2.402  13.346 -2.1403 -0.2623 -0.4103
  842TIP3    H224018   1.090   2.380  13.471  1.7366 -0.3495 -2.8227
  843TIP3   OH224019   0.461   2.293   1.344  0.1972  0.1482 -0.6191
  843TIP3    H124020   0.537   2.303   1.286 -0.2221  2.0586 -0.9090
  843TIP3    H224021   0.394   2.347   1.304  0.4347  3.1254  2.5470
  844TIP3   OH224022   3.302   5.629   3.826 -0.6056  0.2974 -0.2710
  844TIP3    H124023   3.361   5.684   3.879 -2.5688  1.4249  0.8824
  844TIP3    H224024   3.338   5.541   3.834  0.0263  0.6774  1.7184
  845TIP3   OH224025   6.421   4.585  12.544  0.1101  0.0589  0.4265
  845TIP3    H124026   6.490   4.639  12.505 -0.1383  0.0506 -0.0320
  845TIP3    H224027   6.357   4.573  12.473  1.1699 -2.6463 -0.1944
  846TIP3   OH224028   5.928   1.733  12.402 -0.1388  0.0232 -0.6303
  846TIP3    H124029   6.014   1.770  12.383  0.8073 -1.4614  0.5116
  846TIP3    H224030   5.866   1.802  12.378  1.3964  1.3478 -0.9397
  847TIP3   OH224031   3.709   2.668   5.969 -0.1435  0.4053  0.0432
  847TIP3    H124032   3.629   2.617   5.960  0.8565 -0.9540 -2.1270
  847TIP3    H224033   3.752   2.632   6.047 -0.2156 -1.0441 -0.5440
  848TIP3   OH224034   2.898   2.334  15.906 -0.0471 -0.0394 -0.3226
  848TIP3    H124035   2.888   2.318  16.000  0.0094  0.2452 -0.2661
  848TIP3    H224036   2.845   2.267  15.864 -1.2524  0.7162 -0.0524
  849TIP3   OH224037   3.669   5.822  15.472 -0.3502 -0.9868  0.0778
  849TIP3    H124038   3.760   5.848  15.486 -0.5821 -0.3103  0.3417
  849TIP3    H224039   3.643   5.865  15.391  0.0113 -2.3754 -0.8121
  850TIP3   OH224040   4.371   1.853   0.167 -0.2473  0.2440 -0.2539
  850TIP3    H124041   4.309   1.907   0.118  0.1386  0.5942 -0.3573
  850TIP3    H224042   4.372   1.891   0.255 -0.1751  0.2402 -0.2529
  851TIP3   OH224043   6.399   1.769  14.094  0.0377 -0.3336 -0.5124
  851TIP3    H124044   6.389   1.680  14.058  0.1188 -0.3764 -0.4289
  851TIP3    H224045   6.369   1.826  14.023  0.1754 -0.4192 -0.6422
  852TIP3   OH224046   1.126   4.565  12.266 -0.1982  0.2960  0.2583
  852TIP3    H124047   1.142   4.481  12.223  1.3360  0.6534  0.0707
  852TIP3    H224048   1.173   4.558  12.350  0.1061  1.0316  0.1562
  853TIP3   OH224049   6.362   2.534  12.032 -0.6394  0.0042 -0.2477
  853TIP3    H124050   6.393   2.611  11.985 -0.1272 -0.0381  0.0050
  853TIP3    H224051   6.443   2.492  12.063 -0.9765  0.2121  0.9537
  854TIP3   OH224052   0.113   3.624  15.125  0.4279 -0.4345  0.2779
  854TIP3    H124053   0.042   3.580  15.171 -0.0831  0.1497  0.0657
  854TIP3    H224054   0.137   3.698  15.181 -0.6851  0.7040 -0.6883
  855TIP3   OH224055   0.192   0.130  14.227  0.7159 -0.1962  0.0435
  855TIP3    H124056   0.107   0.171  14.246  0.1227 -0.9137 -0.9799
  855TIP3    H224057   0.251   0.204  14.211 -0.0194  0.2921 -0.4843
  856TIP3   OH224058   2.082   3.219  16.563  0.0647  0.3067 -0.2396
  856TIP3    H124059   2.064   3.254  16.650  2.4431 -1.1800  0.9709
  856TIP3    H224060   2.041   3.133  16.563  1.9700 -0.6566  0.3572
  857TIP3   OH224061   1.413   4.293  12.022 -0.4148  0.5576 -0.3284
  857TIP3    H124062   1.340   4.337  11.978  0.4403  0.5253 -1.8546
  857TIP3    H224063   1.480   4.361  12.030  0.1381  0.0834 -0.8115
  858TIP3   OH224064   0.303   4.950   4.169 -0.8278  0.3125  0.3889
  858TIP3    H124065   0.232   4.926   4.228  0.0769 -1.1828  0.9202
  858TIP3    H224066   0.303   4.882   4.101 -0.1870  0.5267  0.1574
  859TIP3   OH224067   0.862   0.594  11.562  0.0657  0.0201  0.3473
  859TIP3    H124068   0.873   0.555  11.649  0.0496  1.3144  0.9488
  859TIP3    H224069   0.943   0.572  11.516  0.3116 -0.2077  0.8809
  860TIP3   OH224070   2.038   1.861   1.163  0.4841 -0.4748 -0.4952
  860TIP3    H124071   2.097   1.936   1.151  0.7451 -0.7668 -1.0692
  860TIP3    H224072   1.966   1.878   1.102 -0.1189 -0.0437  0.3097
  861TIP3   OH224073   3.025   5.646   3.762  0.4242  0.8448 -0.2279
  861TIP3    H124074   3.118   5.668   3.765  1.0523 -1.3260 -1.4826
  861TIP3    H224075   3.019   5.562   3.809 -0.9402  1.0348 -0.0141
  862TIP3   OH224076   2.058   4.551  13.305  0.8057  0.2441  0.5969
  862TIP3    H124077   2.073   4.503  13.223 -0.9362  1.1987 -0.3275
  862TIP3    H224078   1.994   4.499  13.352 -0.5332  1.2202 -0.0790
  863TIP3   OH224079   3.537   1.007   4.491 -0.6465  0.3098 -0.5971
  863TIP3    H124080   3.462   1.055   4.455 -1.3338  0.3005  0.7351
  863TIP3    H224081   3.512   0.915   4.484 -0.9707  0.3229  0.2386
  864TIP3   OH224082   0.132   2.141  17.268  0.4081  0.9195  0.7539
  864TIP3    H124083   0.198   2.072  17.253  0.5892  1.4273 -0.9718
  864TIP3    H224084   0.171   2.195  17.337  1.8455  1.2281 -0.2486
  865TIP3   OH224085   0.750   3.215  15.376  0.3634 -0.8909 -0.0146
  865TIP3    H124086   0.701   3.240  15.297  0.3016  0.2436  0.3687
  865TIP3    H224087   0.831   3.176  15.343  0.9499  0.7908 -0.6614
  866TIP3   OH224088   3.473   3.450   0.141 -0.1622  0.0953  0.3641
  866TIP3    H124089   3.448   3.361   0.167 -0.0994  0.2977  1.1394
  866TIP3    H224090   3.498   3.442   0.049  0.7544 -0.8876  0.6765
  867TIP3   OH224091   1.645   5.222   2.250 -0.1468 -0.7562 -0.7775
  867TIP3    H124092   1.724   5.168   2.256 -0.0415 -0.5069  0.1412
  867TIP3    H224093   1.582   5.165   2.206  1.0933 -0.3000 -3.3688
  868TIP3   OH224094   1.788   6.655   2.246 -0.4251 -0.5026  0.0946
  868TIP3    H124095   1.847   6.703   2.305  0.2804 -0.0665 -0.9470
  868TIP3    H224096   1.702   6.663   2.287 -0.1055  0.5584  0.6024
  869TIP3   OH224097   0.985   5.214   1.399  0.0000  0.8710 -0.3424
  869TIP3    H124098   1.048   5.225   1.471 -1.4952  1.2085  0.9784
  869TIP3    H224099   1.026   5.151   1.340  0.7040 -0.5340  1.5446
  870TIP3   OH224100   0.809   4.389  17.208 -0.2890  0.3398  0.1255
  870TIP3    H124101   0.853   4.318  17.255  0.1975  0.9227  0.5810
  870TIP3    H224102   0.719   4.359  17.196 -0.7294  0.5824  2.3799
  871TIP3   OH224103   4.141   5.876  15.820 -0.0646 -0.1952 -0.1123
  871TIP3    H124104   4.145   5.780  15.815 -0.5277 -0.1793 -0.7931
  871TIP3    H224105   4.187   5.906  15.742 -0.3129  0.1315 -0.1308
  872TIP3   OH224106   3.728   3.572   6.603 -0.5510 -0.5881  0.0984
  872TIP3    H124107   3.738   3.520   6.682 -1.8474 -0.6974  0.2143
  872TIP3    H224108   3.761   3.659   6.627  1.0558 -1.1630  0.0843
  873TIP3   OH224109   3.833   6.337   3.411  0.4306 -0.3723 -0.1039
  873TIP3    H124110   3.838   6.248   3.375 -0.4182 -0.3525 -0.2817
  873TIP3    H224111   3.889   6.334   3.489 -0.0688 -1.2346  0.2318
  874TIP3   OH224112   6.733   3.814   2.072 -0.4750  0.4373 -0.5104
  874TIP3    H124113   6.812   3.788   2.120 -0.7889  0.3981 -0.0119
  874TIP3    H224114   6.665   3.820   2.139 -0.4333  2.5243 -0.5901
  875TIP3   OH224115   4.953   2.971   3.184 -0.9044  0.1175  0.0229
  875TIP3    H124116   4.993   2.900   3.134 -0.1631  0.5455 -0.0038
  875TIP3    H224117   4.925   2.930   3.265  2.0179  0.2746  1.2396
  876TIP3   OH224118   5.210   4.668  13.204 -0.1461 -0.1612 -0.3203
  876TIP3    H124119   5.168   4.752  13.192 -1.5464 -0.3304  2.5507
  876TIP3    H224120   5.298   4.679  13.168 -1.0019  1.7669 -1.9907
  877TIP3   OH224121   2.052   0.044   1.296 -0.3343  0.1583 -0.0663
  877TIP3    H124122   2.126   0.095   1.328  1.3064 -1.9259 -0.2986
  877TIP3    H224123   2.029  -0.013   1.369 -0.5950 -0.3781 -0.5655
  878TIP3   OH224124   3.511   0.524  11.265 -0.5980  0.0858 -0.3479
  878TIP3    H124125   3.445   0.535  11.197 -0.2954  1.8138 -0.4026
  878TIP3    H224126   3.471   0.560  11.344 -0.7284 -1.3751  0.2782
  879TIP3   OH224127   3.322   4.857  13.942 -0.1665  0.7414 -0.0510
  879TIP3    H124128   3.275   4.932  13.978 -0.3421  0.7213 -0.2354
  879TIP3    H224129   3.355   4.887  13.857  0.5265  0.8926  0.2639
  880TIP3   OH224130   6.062   2.211   2.095  0.9328  0.0578 -0.6920
  880TIP3    H124131   6.157   2.204   2.105  1.0014  1.0853 -0.4574
  880TIP3    H224132   6.033   2.123   2.073  1.9163 -0.3132 -0.5425
  881TIP3   OH224133   1.241   4.702  14.143  0.8439 -0.2385  0.4570
  881TIP3    H124134   1.263   4.747  14.061  1.9200 -0.9467  0.3298
  881TIP3    H224135   1.285   4.754  14.211 -1.3025  1.2516  0.8243
  882TIP3   OH224136   1.408   5.356  14.122  0.4396 -0.0756 -0.2229
  882TIP3    H124137   1.407   5.433  14.065 -0.9267  0.0369 -0.0695
  882TIP3    H224138   1.319   5.321  14.117  0.2368  0.0015  1.9203
  883TIP3   OH224139   4.605   0.821  12.331  0.1610 -0.1827  0.0353
  883TIP3    H124140   4.692   0.851  12.356 -0.4359  0.9323  0.9349
  883TIP3    H224141   4.618   0.772  12.251  1.9191 -2.0951  1.3990
  884TIP3   OH224142   2.340   0.853   2.143 -0.1995  0.7314  0.0665
  884TIP3    H124143   2.361   0.760   2.150  0.4049  0.9612  2.4966
  884TIP3    H224144   2.302   0.875   2.228  0.2388  2.8356 -0.2220
  885TIP3   OH224145   1.314   3.194   3.231  0.2034  0.4653  0.0605
  885TIP3    H124146   1.361   3.130   3.178 -1.3721  0.1732 -1.0828
  885TIP3    H224147   1.251   3.142   3.281 -0.9528  1.0621 -0.7303
  886TIP3   OH224148   2.644   4.721  11.864  0.2473  0.9121 -0.4373
  886TIP3    H124149   2.607   4.791  11.918  1.3039  1.7876 -0.8176
  886TIP3    H224150   2.738   4.730  11.873  0.4531  1.0289 -2.3250
  887TIP3   OH224151   5.013   3.908   2.110  0.0604 -0.4950 -0.6193
  887TIP3    H124152   4.994   3.996   2.076  0.0634  0.0810  0.7914
  887TIP3    H224153   5.107   3.906   2.122 -0.1761  0.4315  2.1015
  888TIP3   OH224154   1.611   0.579   5.326 -0.0640 -0.0664 -0.2364
  888TIP3    H124155   1.540   0.631   5.363  0.4406  1.5540 -1.4308
  888TIP3    H224156   1.568   0.502   5.288 -0.9724  0.0877  0.4523
  889TIP3   OH224157   1.079   1.342  15.940 -0.1507  0.1128  0.3509
  889TIP3    H124158   1.135   1.305  15.871  3.8404  0.6788  2.9826
  889TIP3    H224159   1.053   1.266  15.992 -1.5777 -0.1010 -0.6272
  890TIP3   OH224160   0.957   4.331   1.499  0.1506 -0.1476  0.1372
  890TIP3    H124161   0.873   4.327   1.546 -0.0001 -2.5907 -0.2312
  890TIP3    H224162   1.023   4.313   1.566  0.2067 -0.3476  0.0278
  891TIP3   OH224163   5.915   2.604  16.282 -0.2380 -0.8217  0.2718
  891TIP3    H124164   5.979   2.549  16.327 -1.5495 -2.8475 -0.2171
  891TIP3    H224165   5.918   2.576  16.191 -1.8765 -1.0466  0.2542
  892TIP3   OH224166   6.251   5.837  13.361 -0.4718  0.0734 -0.0479
  892TIP3    H124167   6.344   5.836  13.336 -0.6250  1.2354 -0.7348
  892TIP3    H224168   6.223   5.927  13.346 -2.1216 -0.6024 -1.3777
  893TIP3   OH224169   4.042   5.975  15.246 -0.1295 -0.5331 -0.1852
  893TIP3    H124170   4.058   6.045  15.310 -1.4344 -1.9335  1.8021
  893TIP3    H224171   4.130   5.952  15.214  0.3654  1.6988 -0.6398
  894TIP3   OH224172   6.450   5.610   0.298 -0.0013 -0.2641  0.8037
  894TIP3    H124173   6.522   5.648   0.247 -1.6330  2.4242  0.2874
  894TIP3    H224174   6.453   5.517   0.278  1.0350  0.3055 -2.1956
  895TIP3   OH224175   3.960   4.550   4.360  0.3595  0.9663 -0.2225
  895TIP3    H124176   3.887   4.597   4.399  1.1774  1.9847  0.1078
  895TIP3    H224177   4.008   4.616   4.309  0.5793  0.1350 -1.1326
  896TIP3   OH224178   1.409   5.393   4.904  0.3198  0.6967 -0.0501
  896TIP3    H124179   1.400   5.475   4.854 -0.8078  1.1066  0.7881
  896TIP3    H224180   1.321   5.355   4.904  0.5521  0.1442  0.6851
  897TIP3   OH224181   2.553   2.539   0.728 -0.3424  0.2012  0.7883
  897TIP3    H124182   2.572   2.445   0.724  0.8822  0.4661 -1.2838
  897TIP3    H224183   2.477   2.546   0.786 -0.2020 -2.0090  1.3389
  898TIP3   OH224184   6.461   2.083  13.398 -0.2089 -0.4315  0.2109
  898TIP3    H124185   6.518   2.032  13.455 -1.8510 -0.4782  1.8815
  898TIP3    H224186   6.486   2.057  13.309  1.4299 -1.4217  0.9283
  899TIP3   OH224187   6.720   3.584  16.710 -0.1483  0.2854  0.6606
  899TIP3    H124188   6.654   3.616  16.649  1.5393  0.6437 -1.0781
  899TIP3    H224189   6.754   3.664  16.752  0.6498  0.3216 -0.0390
  900TIP3   OH224190   6.126   3.036  13.082  0.2619 -0.3899 -0.2667
  900TIP3    H124191   6.110   2.975  13.011 -1.0077 -0.2125 -0.1583
  900TIP3    H224192   6.059   3.104  13.071 -0.5072 -0.7929  1.5553
  901TIP3   OH224193   0.758   2.288   1.431  0.2305 -0.1388  0.1007
  901TIP3    H124194   0.846   2.310   1.399 -0.4263  0.4936 -1.3928
  901TIP3    H224195   0.746   2.342   1.509  0.7667  0.6048 -0.3140
  902TIP3   OH224196   3.990   5.506   3.291 -0.3263 -0.4087  0.5134
  902TIP3    H124197   3.924   5.549   3.236 -0.2776  0.5143  1.1462
  902TIP3    H224198   4.072   5.519   3.243 -0.6215 -1.8650 -0.4500
  903TIP3   OH224199   1.533   5.740  15.467 -0.1350  0.5388 -0.5706
  903TIP3    H124200   1.506   5.767  15.555 -0.5191  1.3786 -0.9435
  903TIP3    H224201   1.533   5.644  15.471 -0.8901  0.5590  0.1275
  904TIP3   OH224202   3.452   4.258  14.773  0.8992  0.0087 -0.0426
  904TIP3    H124203   3.456   4.280  14.680  0.1618 -0.6481 -0.2431
  904TIP3    H224204   3.420   4.337  14.815 -0.8636 -0.3404 -0.6423
  905TIP3   OH224205   0.758   3.039  16.683 -0.1100 -0.2376 -0.5181
  905TIP3    H124206   0.742   2.959  16.634 -1.0294  0.8554 -2.1004
  905TIP3    H224207   0.670   3.070  16.707  0.2717 -0.1440  0.8371
  906TIP3   OH224208   2.030   4.887   3.073  0.2730  0.2791 -0.4621
  906TIP3    H124209   2.086   4.906   2.998  1.1134  1.5177  0.4497
  906TIP3    H224210   1.960   4.952   3.068  0.8775  1.0163  0.3557
  907TIP3   OH224211   5.256   1.632  11.626 -0.4859 -0.2729  0.4840
  907TIP3    H124212   5.256   1.543  11.662  0.6001 -0.7734 -0.6676
  907TIP3    H224213   5.295   1.622  11.539 -2.0865  1.0348 -0.4388
  908TIP3   OH224214   4.748   0.858   3.523  0.0580  0.1497 -0.1814
  908TIP3    H124215   4.812   0.830   3.588  0.6338 -1.2138 -1.2923
  908TIP3    H224216   4.800   0.905   3.457  0.3131 -2.6041 -2.0747
  909TIP3   OH224217   5.924   3.977  16.612  0.0379  0.2898  0.0476
  909TIP3    H124218   6.004   3.924  16.605 -0.5500 -0.3740 -2.7688
  909TIP3    H224219   5.950   4.053  16.665  1.5685 -1.5326  2.0826
  910TIP3   OH224220   1.491   4.693  15.617  0.3276 -0.4654  0.0742
  910TIP3    H124221   1.509   4.613  15.667  2.6007 -0.1111 -0.0661
  910TIP3    H224222   1.466   4.661  15.530 -4.2531 -1.1092  1.3806
  911TIP3   OH224223   2.683   1.480   2.730 -0.1149  0.4324  0.2357
  911TIP3    H124224   2.653   1.570   2.720 -3.1673 -0.5482 -0.6652
  911TIP3    H224225   2.628   1.430   2.671  1.4486 -2.0737  0.7379
  912TIP3   OH224226   0.012   4.765  13.743  0.2644  0.1837  0.5422
  912TIP3    H124227   0.007   4.696  13.810  0.0167  0.0608  0.4037
  912TIP3    H224228  -0.065   4.820  13.761 -0.5900 -0.6313 -0.4688
  913TIP3   OH224229   3.149   4.033  13.041 -0.3589 -0.5075  0.5747
  913TIP3    H124230   3.162   3.964  12.976 -0.1218 -1.5426  1.6608
  913TIP3    H224231   3.238   4.060  13.065 -0.4461 -0.0512  0.3810
  914TIP3   OH224232   1.408   3.871   2.445 -0.5521 -0.4609 -0.0350
  914TIP3    H124233   1.381   3.952   2.401 -1.0822  0.0326  1.1514
  914TIP3    H224234   1.392   3.888   2.538 -1.5721 -2.2717  0.1578
  915TIP3   OH224235   6.717   5.033   3.409  0.2622  0.4920  0.4526
  915TIP3    H124236   6.729   4.959   3.349  0.6539  0.0808  1.0146
  915TIP3    H224237   6.799   5.035   3.460  0.7738  2.0958 -0.3874
  916TIP3   OH224238   2.029   0.226   3.019  0.4858  0.0839 -0.0655
  916TIP3    H124239   2.011   0.210   3.112 -1.7061  0.6505 -0.3282
  916TIP3    H224240   1.988   0.311   3.002  1.3954  0.2752 -1.4188
  917TIP3   OH224241   0.840   2.771   1.618  0.1271 -0.0712 -0.0816
  917TIP3    H124242   0.879   2.687   1.643 -1.3392 -0.3876  1.3693
  917TIP3    H224243   0.787   2.796   1.694 -0.6833  1.4139 -1.0812
  918TIP3   OH224244   1.657   6.732   2.736  0.4835  0.1099 -0.9773
  918TIP3    H124245   1.661   6.777   2.821 -1.8101 -0.4895 -0.4910
  918TIP3    H224246   1.716   6.783   2.680  1.1512  1.2270  0.6418
  919TIP3   OH224247   3.545   4.627  10.763  0.0262  0.0627  0.1123
  919TIP3    H124248   3.529   4.715  10.728 -0.3627  0.1641  0.5481
  919TIP3    H224249   3.627   4.636  10.812  0.7020 -0.1323 -0.9347
  920TIP3   OH224250   1.688   2.918  15.793  0.7698  0.2049 -0.7033
  920TIP3    H124251   1.624   2.964  15.847  1.0512 -2.5233  2.2883
  920TIP3    H224252   1.749   2.986  15.764 -0.9066  2.2131  0.1983
  921TIP3   OH224253   2.661   5.526  16.186  0.2892 -0.2042 -0.5489
  921TIP3    H124254   2.570   5.552  16.173  0.3408  0.5552  0.4880
  921TIP3    H224255   2.666   5.501  16.279  0.4979 -2.9320 -1.2210
  922TIP3   OH224256   6.620   2.833   6.359 -0.1670 -0.1782  0.4194
  922TIP3    H124257   6.601   2.748   6.320 -0.6347  0.2552 -0.3269
  922TIP3    H224258   6.715   2.833   6.373 -0.0483 -0.5009 -0.3591
  923TIP3   OH224259   2.180   1.460   4.153 -0.7023 -0.0790  0.1648
  923TIP3    H124260   2.187   1.468   4.248  0.7942  0.6794  0.0137
  923TIP3    H224261   2.233   1.384   4.131 -0.0057  0.4992 -0.1778
  924TIP3   OH224262   4.711   3.798   2.441 -0.0921 -0.4782  0.1172
  924TIP3    H124263   4.683   3.714   2.477  1.2281 -1.8422 -1.8688
  924TIP3    H224264   4.646   3.860   2.474 -1.4312 -2.3446  1.2078
  925TIP3   OH224265   5.424   2.589  17.339 -0.4737  0.0117 -0.3059
  925TIP3    H124266   5.374   2.508  17.347  1.1228 -0.8794  1.6008
  925TIP3    H224267   5.475   2.594  17.421  0.4680  2.2639 -0.9396
  926TIP3   OH224268   3.140   5.332  11.894 -0.2802 -0.3409  0.0256
  926TIP3    H124269   3.182   5.418  11.895 -3.0007  1.1837 -2.1733
  926TIP3    H224270   3.189   5.282  11.829 -0.5171  0.6420 -0.9307
  927TIP3   OH224271   6.673   1.662  14.127 -0.0947 -0.1930 -0.0775
  927TIP3    H124272   6.617   1.732  14.093  0.4826  0.2909 -0.0540
  927TIP3    H224273   6.694   1.609  14.050 -0.2427 -0.1280 -0.1624
  928TIP3   OH224274   4.035   5.617  12.445 -0.5102  0.4969 -0.5783
  928TIP3    H124275   4.118   5.571  12.464  0.2362  1.7153 -0.8082
  928TIP3    H224276   3.993   5.563  12.379  1.2159  1.0452 -2.2097
  929TIP3   OH224277   3.689   4.510  11.760  0.3572  0.3016 -0.1441
  929TIP3    H124278   3.651   4.548  11.681  2.2025  0.7526 -0.8756
  929TIP3    H224279   3.641   4.551  11.832 -0.4495  0.9219 -1.0135
  930TIP3   OH224280   6.027   2.577  12.791 -0.1808  0.6437 -0.8928
  930TIP3    H124281   6.066   2.517  12.728 -1.9244 -2.0399  0.4120
  930TIP3    H224282   6.002   2.522  12.865  0.9079  3.4898  1.8226
  931TIP3   OH224283   5.060   3.914  11.719  0.1172 -0.7232  0.2587
  931TIP3    H124284   5.052   4.002  11.756 -1.3103 -0.0335 -1.5752
  931TIP3    H224285   5.132   3.921  11.657  0.7786 -1.1920  0.9530
  932TIP3   OH224286   5.752   0.348  14.170  0.1650 -0.1941  0.3028
  932TIP3    H124287   5.782   0.429  14.212  0.7371  0.3694 -1.1342
  932TIP3    H224288   5.662   0.337  14.201  0.4141  0.4480  1.2901
  933TIP3   OH224289   0.278   1.881  15.013 -0.1972 -0.3794  0.2515
  933TIP3    H124290   0.261   1.931  15.093  2.6562 -1.0964  1.4151
  933TIP3    H224291   0.360   1.917  14.979 -1.9049  0.7243 -3.1321
  934TIP3   OH224292   0.328   1.763   4.842 -0.3775 -0.2798  0.4399
  934TIP3    H124293   0.329   1.840   4.785  0.4230 -1.6025 -1.4336
  934TIP3    H224294   0.260   1.782   4.906  0.5337  2.4269  0.7142
  935TIP3   OH224295   0.032   5.530  13.464  0.2275 -0.0286  0.0155
  935TIP3    H124296  -0.049   5.482  13.455  0.8749 -1.4554  1.3558
  935TIP3    H224297   0.037   5.553  13.557  1.3324  0.0608 -0.0425
  936TIP3   OH224298   2.352   4.244   0.831 -0.2420 -0.5422 -0.0563
  936TIP3    H124299   2.332   4.179   0.898 -1.4944 -0.9565 -0.8057
  936TIP3    H224300   2.372   4.324   0.880 -0.9082 -0.9057  0.8212
  937TIP3   OH224301   4.595   6.060  16.644 -0.1578  0.0070 -0.1707
  937TIP3    H124302   4.568   6.011  16.567  0.3842 -0.2606 -0.1935
  937TIP3    H224303   4.691   6.061  16.640 -0.1655  1.2945 -0.3083
  938TIP3   OH224304   3.730   4.414   2.631 -0.2251 -0.4911 -0.2405
  938TIP3    H124305   3.726   4.499   2.674  0.6579 -0.1598 -0.8009
  938TIP3    H224306   3.717   4.351   2.702 -0.9250  0.0998  0.1705
  939TIP3   OH224307   6.445   5.960  12.967 -0.1794 -0.2359 -0.1512
  939TIP3    H124308   6.454   6.036  12.910 -0.4465 -0.6600 -0.7591
  939TIP3    H224309   6.352   5.940  12.967 -0.2716  0.1132  0.9017
  940TIP3   OH224310   4.584   2.876  13.606 -0.6067  0.6741  0.4237
  940TIP3    H124311   4.643   2.952  13.601  1.9290 -1.1753  0.2291
  940TIP3    H224312   4.567   2.866  13.700 -0.4444  1.0967  0.5036
  941TIP3   OH224313   5.684   3.310  13.600  0.0539  0.9052 -0.2353
  941TIP3    H124314   5.752   3.283  13.538 -0.4217  0.7123 -0.6835
  941TIP3    H224315   5.626   3.234  13.607  0.1596  0.8873  0.5361
  942TIP3   OH224316   4.700   3.516   5.299  0.2070 -0.5444  0.3261
  942TIP3    H124317   4.743   3.592   5.338  0.5662 -0.4737 -0.1951
  942TIP3    H224318   4.639   3.553   5.235 -0.8100 -0.6357  1.2228
  943TIP3   OH224319   0.629   3.083   4.904 -0.0960 -0.3362  0.1615
  943TIP3    H124320   0.571   3.026   4.953  1.4124 -1.0366  1.2190
  943TIP3    H224321   0.702   3.100   4.964  0.6907  0.6764 -1.0250
  944TIP3   OH224322   2.073   2.216  12.346  0.3845 -0.3237  0.4536
  944TIP3    H124323   2.117   2.300  12.360 -1.2944  0.2142  3.1074
  944TIP3    H224324   2.128   2.153  12.393 -1.5248  0.3785  3.9407
  945TIP3   OH224325   2.453   3.368  15.032 -0.3503 -0.2761  0.0120
  945TIP3    H124326   2.525   3.381  14.969  1.4095 -2.7139  1.3462
  945TIP3    H224327   2.444   3.273  15.039  0.3276 -0.2274  4.1512
  946TIP3   OH224328   4.731   2.404  14.194 -0.4880  0.3350 -0.3752
  946TIP3    H124329   4.769   2.463  14.128 -0.5308  0.0022 -0.6991
  946TIP3    H224330   4.794   2.333  14.203  0.8462  1.7066  1.9325
  947TIP3   OH224331   5.530   4.530  10.905  1.0480 -0.3567  0.4037
  947TIP3    H124332   5.441   4.523  10.939  0.1262 -0.8379 -1.9019
  947TIP3    H224333   5.545   4.624  10.894 -0.6762 -0.3209 -2.6166
  948TIP3   OH224334   4.512   0.114   1.600  0.4344  0.0495 -0.3268
  948TIP3    H124335   4.497   0.056   1.526 -0.0971  0.1754 -0.3272
  948TIP3    H224336   4.550   0.058   1.668  2.0585  0.1865 -1.0964
  949TIP3   OH224337   4.762   2.753  15.877  0.5216  0.6044 -0.2683
  949TIP3    H124338   4.674   2.717  15.887  0.4600  0.3000 -1.6669
  949TIP3    H224339   4.755   2.816  15.806  1.3890  0.7216 -0.2691
  950TIP3   OH224340   0.023   4.560   0.671  0.8429  0.1971 -0.1610
  950TIP3    H124341  -0.059   4.551   0.623  0.7715 -0.5526  0.0859
  950TIP3    H224342   0.061   4.641   0.639  0.0785  0.4729 -0.3894
  951TIP3   OH224343   2.303   4.035   6.083 -0.0648  0.3562  0.4123
  951TIP3    H124344   2.241   4.066   6.017 -0.9585  1.4836  1.7353
  951TIP3    H224345   2.284   3.942   6.093 -0.7160  0.4337 -0.0662
  952TIP3   OH224346   0.875   3.251  13.364 -0.1560 -0.0719  0.3477
  952TIP3    H124347   0.945   3.315  13.372 -1.2475  1.4514 -1.4111
  952TIP3    H224348   0.901   3.196  13.290 -0.7777  0.5341 -0.3485
  953TIP3   OH224349   5.099   0.727  11.955 -0.6062 -0.6209  0.2282
  953TIP3    H124350   5.141   0.709  12.039  0.2149 -0.3604 -0.1155
  953TIP3    H224351   5.106   0.645  11.907  0.5988 -0.2359 -0.2772
  954TIP3   OH224352   1.076   6.398   0.507  0.2502  0.6131  0.4245
  954TIP3    H124353   1.103   6.482   0.546  0.4604  0.0768  1.4585
  954TIP3    H224354   1.140   6.335   0.539 -1.4668 -0.4641  1.9164
  955TIP3   OH224355   0.625   4.956  16.648 -0.2558  0.3580  0.3362
  955TIP3    H124356   0.533   4.978  16.660 -0.1914  0.6538  0.3046
  955TIP3    H224357   0.624   4.873  16.600 -0.5064  0.7904 -0.4345
  956TIP3   OH224358   3.537   0.989  11.609  0.8908 -0.4727 -0.5561
  956TIP3    H124359   3.578   1.068  11.574  1.5599 -0.6686 -0.2436
  956TIP3    H224360   3.589   0.917  11.573  0.2963 -0.7747 -0.8275
  957TIP3   OH224361   3.613   4.895   0.758 -0.0311  0.2839 -0.5194
  957TIP3    H124362   3.568   4.979   0.765  1.8735  1.3465 -0.3112
  957TIP3    H224363   3.689   4.914   0.703  0.0453 -1.4987 -1.0820
  958TIP3   OH224364   3.942   2.714  11.179 -0.3402  0.2757  0.3500
  958TIP3    H124365   4.005   2.781  11.153 -0.8501  0.8713  0.6440
  958TIP3    H224366   3.984   2.631  11.155  1.0656  0.5935  1.5570
  959TIP3   OH224367   5.733   6.091   1.053 -0.0775 -0.6278 -0.0613
  959TIP3    H124368   5.796   6.070   1.122  0.8428 -0.2888 -0.7770
  959TIP3    H224369   5.696   6.175   1.080 -1.4404 -1.5726  1.1820
  960TIP3   OH224370   6.390   5.253   1.806 -0.6276 -0.3024  0.5661
  960TIP3    H124371   6.403   5.319   1.738 -0.4044  0.7438  1.6097
  960TIP3    H224372   6.324   5.194   1.769  0.2213 -0.3449 -0.9729
  961TIP3   OH224373   1.235   0.129  16.276 -0.4445  0.2176  0.5730
  961TIP3    H124374   1.229   0.081  16.193  0.6183  2.0739 -0.6622
  961TIP3    H224375   1.170   0.198  16.269 -1.0726 -0.2207  1.7765
  962TIP3   OH224376   0.843   5.764  11.569  0.0010 -0.3052  0.2049
  962TIP3    H124377   0.936   5.773  11.588  0.1828 -2.4088  0.4945
  962TIP3    H224378   0.802   5.836  11.618  1.3109 -0.4282  1.5675
  963TIP3   OH224379   4.841   0.922   5.892  0.3312 -0.7945 -0.2869
  963TIP3    H124380   4.833   0.858   5.963 -0.9312  0.0566  0.3777
  963TIP3    H224381   4.761   0.974   5.898  1.0795  0.5013 -1.1573
  964TIP3   OH224382   5.231   3.926  13.850 -0.4275  0.0499  0.3108
  964TIP3    H124383   5.326   3.914  13.844 -0.3908  0.6582 -0.5307
  964TIP3    H224384   5.200   3.853  13.904  0.6449  0.4277  1.4968
  965TIP3   OH224385   1.422   4.645  15.337 -0.1972  0.2790 -0.2344
  965TIP3    H124386   1.421   4.550  15.330 -1.5816  0.1485  1.0889
  965TIP3    H224387   1.354   4.674  15.276 -1.3587  0.2343  1.0035
  966TIP3   OH224388   6.050   1.934   2.342 -0.1857  0.2228  0.2105
  966TIP3    H124389   6.074   1.913   2.251  0.7091  0.5474  0.3544
  966TIP3    H224390   5.955   1.941   2.341 -0.4104 -2.0653 -0.2055
  967TIP3   OH224391   4.958   2.145   5.469 -0.1018 -0.2192  0.0280
  967TIP3    H124392   5.003   2.081   5.525  1.7424  0.7655 -0.2902
  967TIP3    H224393   5.013   2.153   5.391 -1.3164  0.3374 -0.8074
  968TIP3   OH224394   0.282   4.799  12.575 -0.2911  0.1448  0.5392
  968TIP3    H124395   0.322   4.816  12.489 -2.5591 -1.0130 -0.8160
  968TIP3    H224396   0.254   4.885  12.605  1.3956  0.7026  0.6263
  969TIP3   OH224397   4.174   3.863   6.215  0.2774  0.0014  0.7467
  969TIP3    H124398   4.085   3.894   6.229 -0.1374 -0.4011 -0.7848
  969TIP3    H224399   4.179   3.781   6.264 -0.5299 -0.4608  0.0879
  970TIP3   OH224400   5.251   1.897   2.470 -0.0806 -0.0883 -0.0590
  970TIP3    H124401   5.256   1.919   2.563  1.6789 -0.2735 -0.0860
  970TIP3    H224402   5.170   1.846   2.462 -0.9476  1.0371  1.1084
  971TIP3   OH224403   0.967   0.893   5.056 -0.1696 -0.7448 -0.2742
  971TIP3    H124404   1.053   0.919   5.088 -0.5447  0.5680 -0.2569
  971TIP3    H224405   0.912   0.890   5.134 -0.2976 -0.8924 -0.3700
  972TIP3   OH224406   2.838   3.464  13.903  0.0039  0.2388  0.3533
  972TIP3    H124407   2.820   3.371  13.916  1.1205 -0.1601 -0.7646
  972TIP3    H224408   2.762   3.496  13.854 -0.1457 -0.1907  0.2994
  973TIP3   OH224409   4.933   0.062  14.225 -0.5564 -0.0998 -0.5711
  973TIP3    H124410   4.846   0.100  14.217 -0.7422 -0.3648  0.1373
  973TIP3    H224411   4.926  -0.024  14.183 -0.6780 -0.1845 -0.3783
  974TIP3   OH224412   4.268   0.161  16.114  0.3129  0.0770 -0.0487
  974TIP3    H124413   4.248   0.145  16.022  0.5450 -2.4473  0.2782
  974TIP3    H224414   4.295   0.076  16.148 -0.2712  0.8239  2.5021
  975TIP3   OH224415   2.049   6.075   6.039 -0.3116  0.0308 -0.1145
  975TIP3    H124416   2.028   6.020   6.115 -0.9845  2.1246  1.2954
  975TIP3    H224417   2.082   6.013   5.973  0.8656 -1.8061  2.0569
  976TIP3   OH224418   2.272   1.050   2.434  0.3422  0.5503  0.4791
  976TIP3    H124419   2.273   0.955   2.447 -0.0181  0.2095 -1.6173
  976TIP3    H224420   2.206   1.082   2.495  1.9384 -0.2222  2.7566
  977TIP3   OH224421   1.580   2.112  12.305  0.0820  0.3620  1.1050
  977TIP3    H124422   1.655   2.164  12.333  0.8861 -0.1329 -0.0266
  977TIP3    H224423   1.504   2.165  12.326  0.8219  1.4227  1.1545
  978TIP3   OH224424   0.957   5.374  14.815  0.5949  0.2147 -0.2073
  978TIP3    H124425   1.031   5.317  14.838  1.1264  0.7665 -0.5075
  978TIP3    H224426   0.939   5.353  14.723  2.6728  2.4720 -1.2721
  979TIP3   OH224427   2.502   6.102  15.748  0.4488 -0.5875 -1.1775
  979TIP3    H124428   2.557   6.156  15.692 -0.2252  0.6663 -0.6647
  979TIP3    H224429   2.499   6.017  15.705  0.5677  0.1254 -2.6237
  980TIP3   OH224430   2.234   4.038  13.544 -0.3912  0.5128  0.1260
  980TIP3    H124431   2.223   4.124  13.583 -0.6522  0.6500 -0.2544
  980TIP3    H224432   2.159   3.987  13.575 -0.4549  0.5421  0.0192
  981TIP3   OH224433   0.578   2.782   2.777  0.2620 -0.1483 -0.0252
  981TIP3    H124434   0.669   2.762   2.798 -0.0510 -2.0037 -0.2732
  981TIP3    H224435   0.553   2.715   2.714 -1.6599 -0.4392  0.9855
  982TIP3   OH224436   1.460   5.514  17.389  0.1406 -0.6084 -0.6008
  982TIP3    H124437   1.523   5.524  17.461 -0.3896 -2.3221  0.1709
  982TIP3    H224438   1.376   5.500  17.433 -0.2123 -1.5803 -1.5420
  983TIP3   OH224439   1.357   3.287   4.771 -0.1366 -0.6083 -0.0285
  983TIP3    H124440   1.414   3.223   4.728 -0.9661 -0.6454 -1.1106
  983TIP3    H224441   1.381   3.370   4.731 -0.6791 -0.5941 -0.3336
  984TIP3   OH224442   6.208   0.696   3.676 -0.3402  0.0504 -0.1238
  984TIP3    H124443   6.295   0.685   3.715 -1.6236 -1.6741  2.5364
  984TIP3    H224444   6.214   0.652   3.591  1.1396 -0.8772  0.4158
  985TIP3   OH224445   5.229   0.459   2.295  0.1976  0.0923 -0.3523
  985TIP3    H124446   5.263   0.518   2.228 -1.3274  1.4129 -0.0200
  985TIP3    H224447   5.157   0.413   2.252 -0.5606  0.6913  0.2430
  986TIP3   OH224448   3.783   0.730  14.778 -0.3268  0.5212 -0.2647
  986TIP3    H124449   3.816   0.812  14.741 -1.8403  1.0293 -0.5810
  986TIP3    H224450   3.825   0.662  14.726  1.7638  1.0158  0.6738
  987TIP3   OH224451   3.050   5.484  14.692  0.3307  0.1172  0.2153
  987TIP3    H124452   2.972   5.533  14.666  0.0542  0.1607  1.0884
  987TIP3    H224453   3.123   5.543  14.674  0.1200  0.2815 -0.1067
  988TIP3   OH224454   3.967   0.685  11.684 -0.2427  0.3827 -0.1849
  988TIP3    H124455   4.055   0.684  11.647 -0.7806 -1.3227 -1.5509
  988TIP3    H224456   3.962   0.606  11.738  0.1326  2.2250  2.7955
  989TIP3   OH224457   4.091   4.570   1.385  0.3884  0.0476  0.1260
  989TIP3    H124458   4.101   4.478   1.409  1.1576  0.0930  0.0016
  989TIP3    H224459   4.159   4.616   1.435 -1.4299  0.8865  1.9865
  990TIP3   OH224460   2.274   2.816   1.264  0.1406  0.5268 -0.7227
  990TIP3    H124461   2.313   2.867   1.334  1.2649 -3.0039  1.5052
  990TIP3    H224462   2.349   2.781   1.215 -0.4153 -0.9058 -0.6178
  991TIP3   OH224463   0.909   2.258  14.754 -0.7331 -0.0045 -0.4068
  991TIP3    H124464   0.919   2.287  14.845  0.1151 -0.9670 -0.1694
  991TIP3    H224465   0.815   2.243  14.744 -0.7982 -0.1964  0.4078
  992TIP3   OH224466   0.121   2.572   4.539  0.0174 -0.6818  0.0836
  992TIP3    H124467   0.176   2.495   4.552 -0.9662 -1.4292 -0.0618
  992TIP3    H224468   0.160   2.616   4.463  1.8314  0.1420  1.3973
  993TIP3   OH224469   6.722   0.788  17.204  0.2548  0.1002 -0.1581
  993TIP3    H124470   6.727   0.725  17.276  1.8217  2.0848  1.6135
  993TIP3    H224471   6.780   0.753  17.137  1.5604 -0.1028  1.0384
  994TIP3   OH224472   0.103   0.360   1.858 -0.4883  0.0763  0.2035
  994TIP3    H124473   0.017   0.390   1.828 -0.2769  0.9779  0.4832
  994TIP3    H224474   0.102   0.374   1.953 -0.0789 -0.0332  0.2267
  995TIP3   OH224475   4.929   3.474  14.242  0.1765 -1.0795  0.4794
  995TIP3    H124476   4.921   3.569  14.255 -1.5333 -1.1214  0.0204
  995TIP3    H224477   4.909   3.461  14.149 -1.0076 -1.9976  0.8329
  996TIP3   OH224478   0.258   5.489   0.442  0.0963 -0.0322  0.4032
  996TIP3    H124479   0.240   5.554   0.375  0.1897 -1.5922 -1.1977
  996TIP3    H224480   0.176   5.481   0.491 -0.7344 -0.5430 -1.0337
  997TIP3   OH224481   2.948   5.944  14.002 -0.3675  0.0557 -0.1585
  997TIP3    H124482   2.946   5.981  13.913  1.6994  0.6133 -0.0475
  997TIP3    H224483   2.949   6.021  14.059 -2.1385 -0.3076  0.3915
  998TIP3   OH224484   5.951   3.691   0.181 -0.0884  0.4499  0.3184
  998TIP3    H124485   5.968   3.677   0.275 -0.7534  0.7495  0.4895
  998TIP3    H224486   5.856   3.704   0.176  0.0884  1.6477 -0.2407
  999TIP3   OH224487   2.288   1.912  13.787 -0.5317 -0.5318  0.6384
  999TIP3    H124488   2.286   2.006  13.805 -2.1263 -0.5507  0.7136
  999TIP3    H224489   2.250   1.872  13.864 -2.2156 -1.0245 -0.3898
 1000TIP3   OH224490   6.653   6.742  11.590 -0.7526  0.3036 -0.6170
 1000TIP3    H124491   6.736   6.770  11.552 -1.1195 -1.6891 -3.1726
 1000TIP3    H224492   6.665   6.751  11.685  1.6987  1.7161 -0.9955
 1001TIP3   OH224493   0.831   4.085   5.227  0.0624  0.6137 -0.1858
 1001TIP3    H124494   0.903   4.045   5.276 -1.0193 -0.0050  0.9589
 1001TIP3    H224495   0.789   4.012   5.181 -1.1350  0.5710  0.8943
 1002TIP3   OH224496   3.567   5.605  14.190  0.2024 -0.0979 -0.3938
 1002TIP3    H124497   3.539   5.529  14.242  0.1179 -0.6237 -1.1997
 1002TIP3    H224498   3.656   5.624  14.222  1.2826 -2.1700 -1.9454
 1003TIP3   OH224499   6.118   3.349   5.455  0.3623 -0.0571  0.1412
 1003TIP3    H124500   6.055   3.320   5.520 -0.7229  0.5462 -0.6194
 1003TIP3    H224501   6.153   3.269   5.416  0.7646 -0.4103  1.2063
 1004TIP3   OH224502   3.504   4.040   5.544  0.5528  0.1385 -0.4475
 1004TIP3    H124503   3.596   4.014   5.546  0.1571 -1.2999  1.1597
 1004TIP3    H224504   3.505   4.134   5.561  1.7110  0.0768 -0.1409
 1005TIP3   OH224505   3.518   1.018   2.825  0.0724  0.0142  0.1014
 1005TIP3    H124506   3.442   0.960   2.825  0.2538 -0.2922  2.1260
 1005TIP3    H224507   3.576   0.982   2.758 -1.3447 -0.0037 -1.1589
 1006TIP3   OH224508   1.617   1.598  10.711  0.2172  0.2934  0.8660
 1006TIP3    H124509   1.619   1.583  10.616 -1.1828 -1.0502  1.0190
 1006TIP3    H224510   1.527   1.579  10.737  0.1270  2.3048  2.2404
 1007TIP3   OH224511   6.474   5.904   0.114  0.1553  0.4376  0.1842
 1007TIP3    H124512   6.525   5.979   0.143 -1.6688  0.8327  2.6513
 1007TIP3    H224513   6.523   5.870   0.038  2.6989  2.1972  0.8987
 1008TIP3   OH224514   3.410   6.531  14.871 -0.0488  0.1956  0.1446
 1008TIP3    H124515   3.413   6.494  14.783  2.1105  1.2723 -0.3291
 1008TIP3    H224516   3.493   6.579  14.879 -0.2084  0.1864  2.7517
 1009TIP3   OH224517   0.395   2.280  14.528 -0.3991 -0.6483 -0.6906
 1009TIP3    H124518   0.343   2.358  14.510  1.4345  0.5651 -0.9934
 1009TIP3    H224519   0.334   2.220  14.571 -2.3564  0.1764 -2.1791
 1010TIP3   OH224520   2.252   4.344  14.037 -0.0382  0.0371 -0.1234
 1010TIP3    H124521   2.222   4.255  14.054  0.3147  0.1963  1.4142
 1010TIP3    H224522   2.341   4.334  14.005 -0.8833 -0.2947 -2.6043
 1011TIP3   OH224523   0.124   2.436  16.035  0.3285 -0.2219 -0.5551
 1011TIP3    H124524   0.198   2.385  16.069 -0.9873 -1.4362  0.6193
 1011TIP3    H224525   0.063   2.371  16.001 -1.3486  0.5268  0.8749
 1012TIP3   OH224526   1.105   1.759   1.412  0.4647  0.0956 -0.5151
 1012TIP3    H124527   1.059   1.763   1.496  0.1765  0.0043 -0.6705
 1012TIP3    H224528   1.060   1.691   1.362  0.5409  0.2541 -0.8026
 1013TIP3   OH224529   0.058   1.019   0.193 -0.6177  0.0131  0.4333
 1013TIP3    H124530  -0.034   1.043   0.211 -0.6885 -1.0152  1.5951
 1013TIP3    H224531   0.093   0.996   0.279  0.7431  0.3625 -0.0048
 1014TIP3   OH224532   3.209   0.140  12.317 -0.3839 -0.1596 -0.2307
 1014TIP3    H124533   3.185   0.049  12.299 -1.3476 -0.2426  1.3396
 1014TIP3    H224534   3.173   0.158  12.404 -1.6903  2.2698 -1.1889
 1015TIP3   OH224535   4.955   1.482  13.669 -0.1090 -0.3044 -0.1672
 1015TIP3    H124536   4.938   1.567  13.711 -2.8217 -0.8920  0.1151
 1015TIP3    H224537   4.943   1.418  13.739 -1.2910 -1.0838 -1.0387
 1016TIP3   OH224538   0.518   5.576   1.002  0.3743 -0.1511 -0.2648
 1016TIP3    H124539   0.425   5.596   1.013  0.2724 -0.7517  0.0084
 1016TIP3    H224540   0.563   5.655   1.033  0.0021 -0.5786  1.4660
 1017TIP3   OH224541   6.709   1.771   3.788  0.1824 -0.2719 -0.7285
 1017TIP3    H124542   6.761   1.796   3.712  2.5261  2.0587  1.4216
 1017TIP3    H224543   6.773   1.738   3.851 -1.2418  0.4466  1.1973
 1018TIP3   OH224544   4.494   6.392   6.617 -0.0493 -0.7464 -0.4500
 1018TIP3    H124545   4.486   6.305   6.655  2.1338  0.6998  3.9881
 1018TIP3    H224546   4.578   6.390   6.570  0.8920 -0.6329  1.1675
 1019TIP3   OH224547   5.797   5.087  16.209 -0.1991 -0.1553  0.0154
 1019TIP3    H124548   5.745   5.034  16.148 -0.5082  0.8914 -0.6623
 1019TIP3    H224549   5.733   5.119  16.273  0.1107 -1.1857  0.8734
 1020TIP3   OH224550   1.476   1.971   6.449  0.1843  0.3195 -0.5186
 1020TIP3    H124551   1.397   1.971   6.503  0.0291 -0.6248 -0.7287
 1020TIP3    H224552   1.544   1.937   6.507 -0.1248 -1.3446 -1.0868
 1021TIP3   OH224553   6.765   5.872   3.885  0.1453  0.3729  0.4479
 1021TIP3    H124554   6.744   5.922   3.964 -0.4668  0.5888  0.1503
 1021TIP3    H224555   6.815   5.934   3.831  3.0529 -0.6090  1.8219
 1022TIP3   OH224556   5.851   0.970  12.306  0.5314  0.0560  0.4520
 1022TIP3    H124557   5.774   1.027  12.304  1.5373  1.4703  0.1169
 1022TIP3    H224558   5.863   0.948  12.398  2.1745  3.4107  1.1966
 1023TIP3   OH224559   4.776   6.428  13.123 -0.1330 -0.3289  0.0006
 1023TIP3    H124560   4.755   6.341  13.158 -1.1906 -0.5526 -1.1189
 1023TIP3    H224561   4.842   6.411  13.055  0.7563 -0.0737  0.7826
 1024TIP3   OH224562   5.040   5.240  15.165  0.5927 -0.0249 -0.5197
 1024TIP3    H124563   5.016   5.263  15.255 -0.4803 -1.8055 -0.2885
 1024TIP3    H224564   5.135   5.230  15.167  0.6095  0.2136  0.3695
 1025TIP3   OH224565   4.393   2.084   0.352  0.4038  0.5133  0.0979
 1025TIP3    H124566   4.342   2.121   0.279  0.2116 -0.3264 -0.1989
 1025TIP3    H224567   4.380   2.146   0.424 -2.1930 -0.3451  0.4780
 1026TIP3   OH224568   6.788   1.193  12.680  0.1395 -0.1814  0.0542
 1026TIP3    H124569   6.792   1.239  12.764  0.7620  0.0845 -0.1195
 1026TIP3    H224570   6.721   1.240  12.630 -0.3066 -0.4036  0.4305
 1027TIP3   OH224571   4.254   3.626   6.034  0.3711 -0.2809 -0.4297
 1027TIP3    H124572   4.234   3.710   6.075 -0.2219  0.0384 -1.3378
 1027TIP3    H224573   4.248   3.562   6.105 -0.2944  0.2979  0.0445
 1028TIP3   OH224574   3.182   4.840   1.376 -0.6037 -0.3131  0.0284
 1028TIP3    H124575   3.262   4.788   1.382 -1.3258 -1.4124  0.4612
 1028TIP3    H224576   3.138   4.807   1.297 -0.2542  0.8423 -0.6634
 1029TIP3   OH224577   1.647   2.162  16.391 -0.2060 -0.0313  0.4640
 1029TIP3    H124578   1.606   2.075  16.399  0.8053 -0.5384  0.2871
 1029TIP3    H224579   1.630   2.204  16.475 -0.7409 -0.3813  0.5398
 1030TIP3   OH224580   2.050   5.845   3.200 -0.0580 -0.1071  0.3014
 1030TIP3    H124581   2.029   5.915   3.138 -0.2428  0.0378  0.5236
 1030TIP3    H224582   2.020   5.765   3.157  1.8855 -0.2945 -0.7856
 1031TIP3   OH224583   1.494   6.309  15.629  0.5828 -0.0511  0.2028
 1031TIP3    H124584   1.523   6.308  15.720  1.1080  1.6118  0.0871
 1031TIP3    H224585   1.553   6.248  15.585  2.7177  1.7805  0.3534
 1032TIP3   OH224586   5.522   4.440   2.559 -0.6058  0.6680  0.7837
 1032TIP3    H124587   5.515   4.535   2.569 -1.7252  0.6299  0.4826
 1032TIP3    H224588   5.514   4.406   2.648  1.0591  0.8960  1.0568
 1033TIP3   OH224589   1.297   6.619   1.686  0.0569  0.1507 -0.1046
 1033TIP3    H124590   1.371   6.680   1.691 -0.9888  1.4125  0.4996
 1033TIP3    H224591   1.222   6.674   1.663 -0.8667 -0.9620  0.1471
 1034TIP3   OH224592   3.105   2.792   5.148  0.0761  0.5428  0.0859
 1034TIP3    H124593   3.017   2.753   5.143  0.8157 -1.1167 -1.3862
 1034TIP3    H224594   3.097   2.874   5.100 -0.5607  0.1287 -0.5419
 1035TIP3   OH224595   0.326   2.949   3.337  0.1440 -0.0451 -0.5578
 1035TIP3    H124596   0.283   3.033   3.348 -1.1689 -0.5882 -1.2486
 1035TIP3    H224597   0.270   2.887   3.384  0.8870 -0.5889 -0.3689
 1036TIP3   OH224598   0.355   3.959  12.095  0.6837  0.4305  0.4876
 1036TIP3    H124599   0.261   3.943  12.086  0.9335 -0.6968 -0.3839
 1036TIP3    H224600   0.367   4.049  12.063 -0.2281  0.9923  1.6612
 1037TIP3   OH224601   5.592   4.400  14.155  0.3200 -0.2524  0.1237
 1037TIP3    H124602   5.648   4.434  14.084 -0.6604 -1.6356 -1.3868
 1037TIP3    H224603   5.601   4.305  14.150  2.9031 -0.4598  4.1817
 1038TIP3   OH224604   4.994   3.673   4.985  0.1892 -0.1598 -0.1656
 1038TIP3    H124605   5.076   3.668   5.034 -0.1494  0.3269  0.4817
 1038TIP3    H224606   4.949   3.750   5.022 -0.7155 -0.6312 -0.2472
 1039TIP3   OH224607   1.720   3.845  15.199  0.5818 -0.1035 -0.1007
 1039TIP3    H124608   1.684   3.828  15.113 -1.4060 -2.9383  1.1490
 1039TIP3    H224609   1.807   3.804  15.198  0.1769 -0.9617 -0.4663
 1040TIP3   OH224610   2.737   3.367   0.074  0.2121 -0.0979 -0.4562
 1040TIP3    H124611   2.772   3.456   0.082 -0.0791  0.0671 -1.0123
 1040TIP3    H224612   2.663   3.366   0.135 -0.8429  0.5827 -1.6723
 1041TIP3   OH224613   5.890   4.380  11.971 -0.1820  0.7218 -0.1434
 1041TIP3    H124614   5.907   4.473  11.955  0.0108  0.8747  0.9006
 1041TIP3    H224615   5.796   4.374  11.984 -0.1492  0.8308  0.1505
 1042TIP3   OH224616   6.120   6.287  15.099 -0.0161 -0.2589  0.2875
 1042TIP3    H124617   6.153   6.199  15.116 -0.5047 -0.2763  1.2133
 1042TIP3    H224618   6.025   6.278  15.097 -0.0481  0.0998 -0.5446
 1043TIP3   OH224619   3.629   2.009   4.692  0.1534  0.7928 -0.6370
 1043TIP3    H124620   3.633   2.092   4.645  0.7178  1.0497 -0.1483
 1043TIP3    H224621   3.651   1.943   4.626  1.4933  1.2010 -0.6344
 1044TIP3   OH224622   6.107   2.513   2.459 -0.1694 -0.2207  0.1896
 1044TIP3    H124623   6.188   2.462   2.465  0.0674  0.0421 -0.5692
 1044TIP3    H224624   6.053   2.466   2.395 -0.1367  0.2160 -0.1681
 1045TIP3   OH224625   2.404   2.384   5.553 -0.2152  0.1291  0.1552
 1045TIP3    H124626   2.347   2.441   5.603  1.3232  1.1886  0.7793
 1045TIP3    H224627   2.406   2.422   5.465  0.2956  0.6828  0.3991
 1046TIP3   OH224628   5.859   6.377  11.161 -0.0871  0.0969 -0.0875
 1046TIP3    H124629   5.856   6.411  11.250 -0.2424 -2.8205  1.1358
 1046TIP3    H224630   5.952   6.373  11.140 -0.0438  0.6833 -0.0159
 1047TIP3   OH224631   5.732   2.905  14.467 -0.2983 -0.3328 -0.1190
 1047TIP3    H124632   5.735   2.868  14.379 -0.6247 -2.2195  0.6219
 1047TIP3    H224633   5.641   2.894  14.494 -0.3709  0.9054  0.2127
 1048TIP3   OH224634   0.300   4.197  12.992 -0.6100  0.2835  0.5200
 1048TIP3    H124635   0.344   4.282  12.992 -0.2853  0.2107 -2.3848
 1048TIP3    H224636   0.269   4.186  12.902 -1.9717 -2.0318  1.1865
 1049TIP3   OH224637   6.320   6.541  16.769 -0.0173  0.2997 -0.1419
 1049TIP3    H124638   6.388   6.474  16.762 -1.8923 -1.7302 -0.2238
 1049TIP3    H224639   6.334   6.598  16.694  0.7274 -0.9226 -0.9681
 1050TIP3   OH224640   1.908   0.094  11.604  0.4626 -0.3312 -0.3255
 1050TIP3    H124641   1.971   0.039  11.557 -0.0407 -1.4718  0.2878
 1050TIP3    H224642   1.862   0.034  11.662  0.1344  0.8145  0.6493
 1051TIP3   OH224643   1.945   0.510   3.088  1.4747 -0.0595 -0.5282
 1051TIP3    H124644   1.892   0.589   3.080 -0.1229 -1.0424 -0.0538
 1051TIP3    H224645   2.026   0.531   3.041  0.2260  1.0974 -2.3073
 1052TIP3   OH224646   3.407   2.987  16.300  0.4920 -0.1259 -0.5214
 1052TIP3    H124647   3.342   3.036  16.250 -0.2160 -0.3281  0.1813
 1052TIP3    H224648   3.466   2.950  16.233  0.9628  1.5293 -1.0726
 1053TIP3   OH224649   3.578   2.139  15.303  0.3879 -0.2916 -0.1852
 1053TIP3    H124650   3.496   2.160  15.349  0.2996 -0.2354 -0.3690
 1053TIP3    H224651   3.643   2.198  15.342  0.6819 -1.3569  1.0286
 1054TIP3   OH224652   2.204   6.386   6.305  0.5241  0.1731  0.8180
 1054TIP3    H124653   2.157   6.464   6.337  0.8243  0.1762  1.2668
 1054TIP3    H224654   2.296   6.404   6.325  0.7684  0.3145 -0.3611
 1055TIP3   OH224655   4.209   1.106  15.808  0.4448 -0.3839 -0.8491
 1055TIP3    H124656   4.239   1.117  15.899  2.5576 -0.3224 -1.4929
 1055TIP3    H224657   4.191   1.195  15.778  0.4197 -0.3389 -0.7024
 1056TIP3   OH224658   6.605   3.201  11.690  0.2809 -0.3128  0.7239
 1056TIP3    H124659   6.572   3.211  11.780  1.5084  0.8004  1.0753
 1056TIP3    H224660   6.605   3.289  11.654 -0.4454 -0.7778 -0.4995
 1057TIP3   OH224661   3.329   6.741  16.934  0.1955 -0.2340 -0.3427
 1057TIP3    H124662   3.385   6.806  16.977 -0.8172  1.5378 -1.5414
 1057TIP3    H224663   3.375   6.658  16.944  0.5590  0.2249  3.1316
 1058TIP3   OH224664   6.238   4.961   1.726  0.2836  0.6594  0.4965
 1058TIP3    H124665   6.149   4.924   1.730  1.4573 -2.5817 -0.3151
 1058TIP3    H224666   6.249   4.985   1.634  0.0329  1.8005  0.7468
 1059TIP3   OH224667   4.665   6.269  12.282  0.3649  0.5190 -0.3033
 1059TIP3    H124668   4.750   6.313  12.292 -0.4261  2.1868 -0.6450
 1059TIP3    H224669   4.685   6.176  12.296  2.1549  0.9234  0.1209
 1060TIP3   OH224670   0.847   2.884   3.376  0.2247 -0.6921 -0.2188
 1060TIP3    H124671   0.833   2.789   3.381  1.4625 -0.9513 -1.3160
 1060TIP3    H224672   0.939   2.894   3.352 -0.2481  0.7539 -1.6366
 1061TIP3   OH224673   1.795   4.495   3.828  0.2753 -0.3289  0.1368
 1061TIP3    H124674   1.715   4.480   3.877 -0.1641 -0.8594 -0.7071
 1061TIP3    H224675   1.843   4.561   3.878 -0.6387 -0.0775  0.6969
 1062TIP3   OH224676   3.847   0.770   5.406 -0.1401 -0.2803  0.5107
 1062TIP3    H124677   3.815   0.859   5.422 -2.0783 -0.6038 -1.2418
 1062TIP3    H224678   3.940   0.782   5.384  0.0960  1.0869  2.0013
 1063TIP3   OH224679   4.108   1.811  16.707  0.0008 -0.5887  0.0833
 1063TIP3    H124680   4.093   1.905  16.701 -0.3509 -0.3919  2.7632
 1063TIP3    H224681   4.042   1.773  16.649 -0.3315  0.7870 -0.4820
 1064TIP3   OH224682   4.650   2.805   2.840  0.7276 -0.5979 -0.3783
 1064TIP3    H124683   4.686   2.890   2.865  0.4593 -1.0519  1.7142
 1064TIP3    H224684   4.609   2.821   2.755  0.8428  1.3132 -0.1206
 1065TIP3   OH224685   1.512   4.775  16.454  0.4613 -0.4948  0.3087
 1065TIP3    H124686   1.586   4.714  16.459 -0.7698 -2.1744 -1.0280
 1065TIP3    H224687   1.436   4.724  16.480 -0.2458  1.3036  2.0323
 1066TIP3   OH224688   1.156   0.980   2.580  0.1931 -0.3600  0.0073
 1066TIP3    H124689   1.074   0.935   2.562  0.0353 -0.3703  0.7004
 1066TIP3    H224690   1.190   0.936   2.659  0.8238 -0.3067 -0.2276
 1067TIP3   OH224691   2.567   4.251   2.958 -0.1528  1.2938 -0.3216
 1067TIP3    H124692   2.575   4.174   2.902  0.6841  1.7222 -0.8167
 1067TIP3    H224693   2.610   4.227   3.039 -2.1039  0.3710  0.5071
 1068TIP3   OH224694   2.002   1.654   3.380  0.2875  0.4922  0.1126
 1068TIP3    H124695   2.052   1.675   3.460 -0.3013 -0.7354  0.8313
 1068TIP3    H224696   1.935   1.594   3.410  0.4223 -0.4565 -1.4333
 1069TIP3   OH224697   5.571   6.762   2.228 -0.2526  0.4053  0.2514
 1069TIP3    H124698   5.529   6.768   2.142  2.0596 -0.0396 -1.0172
 1069TIP3    H224699   5.600   6.671   2.234  1.3529  0.9046  0.5783
 1070TIP3   OH224700   0.694   5.803   1.033  0.2158 -0.0712  0.6132
 1070TIP3    H124701   0.636   5.852   1.091  0.3705 -0.4870  1.1307
 1070TIP3    H224702   0.776   5.854   1.031 -0.2774  0.7279 -0.4352
 1071TIP3   OH224703   3.847   2.465   6.779  0.0781 -0.3738  0.5234
 1071TIP3    H124704   3.881   2.435   6.695 -0.2003  0.6138  0.0423
 1071TIP3    H224705   3.779   2.402   6.802  0.7558 -1.1436  0.4413
 1072TIP3   OH224706   5.754   4.398   5.771 -0.2414  0.1767 -0.2711
 1072TIP3    H124707   5.759   4.321   5.827  1.2602 -0.8969 -1.7872
 1072TIP3    H224708   5.716   4.366   5.689 -0.4979  1.2702 -0.6005
 1073TIP3   OH224709   1.485   0.782  11.531 -0.2289  0.4990 -0.1960
 1073TIP3    H124710   1.569   0.749  11.497 -1.0507 -0.7829 -1.0863
 1073TIP3    H224711   1.462   0.854  11.472  0.1379  0.7154 -0.0795
 1074TIP3   OH224712   0.549   2.400  15.899  0.0954 -0.3679 -0.0375
 1074TIP3    H124713   0.577   2.332  15.838  2.6743  0.5760 -0.0311
 1074TIP3    H224714   0.529   2.475  15.844  2.4272  0.4856  0.1812
 1075TIP3   OH224715   5.538   0.258  12.410 -0.1523  0.6509 -0.5032
 1075TIP3    H124716   5.473   0.249  12.480 -0.0049  0.5526 -0.3761
 1075TIP3    H224717   5.490   0.240  12.330  0.3667 -2.7045 -0.2122
 1076TIP3   OH224718   2.738   0.850   4.500  0.2295 -0.0511  1.2540
 1076TIP3    H124719   2.690   0.902   4.435  0.6846  2.8348  3.0770
 1076TIP3    H224720   2.795   0.793   4.448  0.2218  1.7666 -0.8864
 1077TIP3   OH224721   4.203   0.102   1.868 -0.2841 -0.1901 -0.0955
 1077TIP3    H124722   4.147   0.152   1.927 -1.2127  1.3457 -2.1381
 1077TIP3    H224723   4.191   0.144   1.782  0.4936 -2.6801 -1.5307
 1078TIP3   OH224724   0.717   0.417  12.021 -0.5534 -0.2853 -0.0561
 1078TIP3    H124725   0.641   0.463  12.057  1.6485  1.8754  2.2659
 1078TIP3    H224726   0.757   0.479  11.960  1.9950  0.8266  2.4938
 1079TIP3   OH224727   4.043   2.021   5.277 -0.1512  0.2517  0.4026
 1079TIP3    H124728   4.074   2.002   5.365  1.5331 -0.5492 -0.3256
 1079TIP3    H224729   4.077   1.950   5.223 -1.0255  0.7959 -0.9215
 1080TIP3   OH224730   3.758   5.096  16.414  0.4768  0.7712 -0.8095
 1080TIP3    H124731   3.720   5.148  16.342 -0.1065  1.7015  0.1420
 1080TIP3    H224732   3.777   5.011  16.374  0.2758  1.2969 -2.0966
 1081TIP3   OH224733   6.636   2.447  16.180  0.1756  0.0592  0.3117
 1081TIP3    H124734   6.703   2.382  16.202 -0.2053 -0.6132 -0.4559
 1081TIP3    H224735   6.598   2.416  16.098  0.6359  1.7624 -0.5957
 1082TIP3   OH224736   5.541   6.317  13.869  0.3285 -0.6016  0.0032
 1082TIP3    H124737   5.613   6.380  13.867  0.5014 -0.7969  0.0343
 1082TIP3    H224738   5.463   6.369  13.851  0.4161 -0.3090  0.4504
 1083TIP3   OH224739   2.166   6.189   0.716  0.0797  0.1833 -0.3083
 1083TIP3    H124740   2.248   6.232   0.694 -0.4527  1.5767  0.2751
 1083TIP3    H224741   2.132   6.238   0.791 -0.0494 -1.9621  1.1435
 1084TIP3   OH224742   6.470   1.701  13.467 -0.0546 -0.0822 -0.1091
 1084TIP3    H124743   6.463   1.732  13.557  0.9280  0.9713 -0.3693
 1084TIP3    H224744   6.551   1.651  13.464  0.4356  0.7043 -0.6062
 1085TIP3   OH224745   3.732   4.354  14.612 -0.1621 -0.0894 -0.2122
 1085TIP3    H124746   3.712   4.428  14.554 -1.4819  0.0386  0.3707
 1085TIP3    H224747   3.721   4.390  14.700 -1.5032 -1.1494  0.0704
 1086TIP3   OH224748   1.620   4.064   5.832  0.3157 -0.6667  0.1244
 1086TIP3    H124749   1.550   4.077   5.896  0.0708 -0.4684 -0.1728
 1086TIP3    H224750   1.576   4.073   5.747  0.3772 -2.2721 -0.0983
 1087TIP3   OH224751   1.994   3.460  12.436 -0.3033 -0.2930  0.4503
 1087TIP3    H124752   2.064   3.513  12.398  1.9515 -1.8855  2.1680
 1087TIP3    H224753   1.946   3.521  12.493 -1.0605  1.0527 -1.5019
 1088TIP3   OH224754   1.192   2.201  15.152  0.3658 -0.2015  0.0596
 1088TIP3    H124755   1.106   2.181  15.114  1.6414 -0.8935 -2.7633
 1088TIP3    H224756   1.172   2.251  15.231 -2.6437  1.5520 -1.5906
 1089TIP3   OH224757   5.178   4.949  15.136  0.3919 -0.2592 -0.4870
 1089TIP3    H124758   5.177   5.043  15.152 -0.6829  0.0490 -2.0837
 1089TIP3    H224759   5.254   4.935  15.080  0.3714 -0.2722 -0.5122
 1090TIP3   OH224760   4.740   4.062   4.818  0.3030 -0.3119  0.1377
 1090TIP3    H124761   4.651   4.028   4.833  0.6722 -2.1333 -1.3918
 1090TIP3    H224762   4.729   4.157   4.816 -1.2603 -0.3782  1.9420
 1091TIP3   OH224763   0.852   4.049  13.395 -0.5758  0.7178 -0.0062
 1091TIP3    H124764   0.778   4.011  13.347  0.7892 -2.0870 -0.0828
 1091TIP3    H224765   0.851   4.005  13.480  0.2714  1.5897  0.4800
 1092TIP3   OH224766   5.091   0.943  15.226  0.1937 -0.2837  0.0198
 1092TIP3    H124767   5.153   0.944  15.299  0.6827 -0.6023 -0.3850
 1092TIP3    H224768   5.144   0.966  15.149 -0.2533 -0.2540 -0.2831
 1093TIP3   OH224769   1.315   4.658   5.524  0.4108  0.4450 -0.0453
 1093TIP3    H124770   1.249   4.590   5.516  0.2264  0.8149 -2.6699
 1093TIP3    H224771   1.267   4.740   5.510  1.1004  0.8809  0.0849
 1094TIP3   OH224772   2.612   1.081   6.458  0.0516  0.4760 -0.5712
 1094TIP3    H124773   2.643   1.158   6.410 -0.1200  0.9181  0.0009
 1094TIP3    H224774   2.560   1.118   6.530 -0.1941 -0.1865 -0.4031
 1095TIP3   OH224775   2.193   5.279   5.152  0.0072  0.5742  0.5626
 1095TIP3    H124776   2.183   5.251   5.061  2.7375 -0.2029  0.4160
 1095TIP3    H224777   2.267   5.227   5.185 -0.4625  1.3357  3.0264
 1096TIP3   OH224778   0.064   5.940   2.624  0.0382  0.5028 -0.0634
 1096TIP3    H124779   0.098   6.024   2.655  2.5621  1.4021 -4.3055
 1096TIP3    H224780   0.126   5.876   2.658 -1.4040  0.3435  2.4762
 1097TIP3   OH224781   1.572   3.989   3.707 -0.0544  0.5301  0.6334
 1097TIP3    H124782   1.498   4.003   3.648 -1.4668 -1.6004  1.7265
 1097TIP3    H224783   1.582   3.894   3.710  1.8742  0.7169  1.5848
 1098TIP3   OH224784   6.264   4.350  10.989 -0.1641  0.7208  0.5272
 1098TIP3    H124785   6.176   4.381  10.967 -0.5097 -1.4314 -1.5691
 1098TIP3    H224786   6.249   4.274  11.046  0.3960  0.9160  0.9440
 1099TIP3   OH224787   4.171   6.476   5.374  0.8170 -0.8247  0.5264
 1099TIP3    H124788   4.179   6.553   5.317  2.8114 -2.6554 -1.8978
 1099TIP3    H224789   4.193   6.509   5.461  0.5249  1.5436 -0.2201
 1100TIP3   OH224790   1.346   4.003  14.702 -0.6997 -0.6291  0.4965
 1100TIP3    H124791   1.354   3.936  14.634 -1.0252  0.5061 -0.6894
 1100TIP3    H224792   1.264   4.047  14.683  0.7094  1.7971 -0.3614
 1101TIP3   OH224793   3.662   2.456  14.040 -0.1273  0.6899  0.1530
 1101TIP3    H124794   3.653   2.369  14.003 -1.0436 -0.1759  2.2417
 1101TIP3    H224795   3.752   2.482  14.019 -0.2789 -0.1195 -1.6889
 1102TIP3   OH224796   0.729   6.609  14.636  0.1926  0.2237 -0.3639
 1102TIP3    H124797   0.705   6.584  14.547 -1.7472  1.4097 -0.2436
 1102TIP3    H224798   0.748   6.527  14.680 -0.2680 -0.5136 -1.4830
 1103TIP3   OH224799   1.247   0.097  15.316  0.3283 -0.1193 -0.0797
 1103TIP3    H124800   1.335   0.067  15.341  0.1547  1.0680  2.2914
 1103TIP3    H224801   1.200   0.018  15.291  2.2622 -0.6879 -2.1759
 1104TIP3   OH224802   4.308   4.654   0.183  0.0338  0.1174  0.2231
 1104TIP3    H124803   4.395   4.659   0.222 -0.8274 -0.7418  2.4529
 1104TIP3    H224804   4.282   4.563   0.193 -0.8528  0.1912 -1.1111
 1105TIP3   OH224805   1.198   4.090  12.623  0.1905  0.0169 -0.1776
 1105TIP3    H124806   1.267   4.032  12.656 -1.7524 -2.3718 -0.0174
 1105TIP3    H224807   1.212   4.093  12.528  1.5076  0.9683  0.0350
 1106TIP3   OH224808   3.103   2.829  16.724 -0.0949  0.1668 -0.4556
 1106TIP3    H124809   3.076   2.739  16.705  0.3744  0.1678 -1.1679
 1106TIP3    H224810   3.123   2.866  16.638 -0.5199  1.0290 -0.1893
 1107TIP3   OH224811   3.941   6.170   5.141 -0.9875  0.4050  0.1138
 1107TIP3    H124812   3.936   6.226   5.218  0.5033  1.3550 -0.4269
 1107TIP3    H224813   4.034   6.149   5.132 -0.9638  1.1363 -1.9546
 1108TIP3   OH224814   6.523   5.401  15.262  0.2250  0.3281  0.3773
 1108TIP3    H124815   6.548   5.322  15.215 -1.6694  0.3921 -0.8698
 1108TIP3    H224816   6.484   5.369  15.343  0.5583  0.0402  0.4242
 1109TIP3   OH224817   5.243   2.336   3.556  0.4293  0.3569  0.1892
 1109TIP3    H124818   5.338   2.346   3.568  0.7124 -0.4303 -1.2207
 1109TIP3    H224819   5.231   2.332   3.461 -0.9650 -0.0938  0.3662
 1110TIP3   OH224820   3.235   6.130  17.046 -0.8229 -0.3295 -0.8184
 1110TIP3    H124821   3.222   6.213  17.091 -1.5526 -0.1314 -1.3837
 1110TIP3    H224822   3.152   6.083  17.058 -0.2635 -1.1718 -0.1176
 1111TIP3   OH224823   4.069   5.650   6.570  0.2643  0.1114  0.4195
 1111TIP3    H124824   4.094   5.564   6.604 -0.6924 -0.4145 -0.1560
 1111TIP3    H224825   4.147   5.704   6.581  1.6868 -1.4586 -1.2838
 1112TIP3   OH224826   2.004   2.590   2.016 -0.8174 -0.5698 -0.0793
 1112TIP3    H124827   2.056   2.515   1.986 -2.1836 -1.2632 -0.8305
 1112TIP3    H224828   1.969   2.629   1.936  0.0473  1.0439  0.2908
 1113TIP3   OH224829   4.930   4.462   3.361  0.7127 -0.3485 -0.6179
 1113TIP3    H124830   4.984   4.500   3.291  0.3142  2.1021  0.3391
 1113TIP3    H224831   4.850   4.434   3.316  1.6487 -1.5699 -1.6010
 1114TIP3   OH224832   1.982   6.113   4.613 -0.7227 -0.3645 -0.0409
 1114TIP3    H124833   1.950   6.166   4.685 -0.4941 -0.2500 -0.0224
 1114TIP3    H224834   1.938   6.029   4.623  0.3925 -0.8508  1.0890
 1115TIP3   OH224835   6.590   4.632   0.554 -0.2419  0.1296 -0.2576
 1115TIP3    H124836   6.658   4.699   0.549 -1.1992  1.4195  2.4130
 1115TIP3    H224837   6.535   4.648   0.478  1.2858  0.3416 -1.3591
 1116TIP3   OH224838   1.571   5.183   3.570  0.6033 -1.0888  0.3480
 1116TIP3    H124839   1.510   5.112   3.586 -0.3352 -0.2231  0.7068
 1116TIP3    H224840   1.630   5.181   3.646 -0.5265 -0.3794  1.2882
 1117TIP3   OH224841   6.781   4.191  12.529 -0.2381  0.0096 -0.0284
 1117TIP3    H124842   6.764   4.180  12.623  0.5981  1.3568  0.3045
 1117TIP3    H224843   6.847   4.125  12.509  0.9630  0.9242  0.7750
 1118TIP3   OH224844   4.789   5.052  13.013  0.1488  0.6857 -0.1491
 1118TIP3    H124845   4.799   4.993  12.938  0.8079  1.9143 -1.0731
 1118TIP3    H224846   4.798   4.996  13.089  0.2143 -0.4890 -0.9908
 1119TIP3   OH224847   0.278   3.756   4.711  0.6563  0.1807 -0.3901
 1119TIP3    H124848   0.277   3.703   4.791  1.6024 -0.4431 -0.7718
 1119TIP3    H224849   0.243   3.697   4.643 -0.3439  0.7735 -0.4159
 1120TIP3   OH224850   1.990   2.508   0.961  0.4625 -0.0210 -0.6782
 1120TIP3    H124851   1.972   2.436   1.021 -0.7940 -0.1054 -1.1259
 1120TIP3    H224852   1.907   2.525   0.918  0.2855  2.7817  0.5678
 1121TIP3   OH224853   6.629   1.957   1.726 -0.1141  0.5232 -0.1386
 1121TIP3    H124854   6.580   1.926   1.649 -0.7049 -0.0542  0.4626
 1121TIP3    H224855   6.666   1.877   1.764 -0.1013  0.7730  0.3695
 1122TIP3   OH224856   4.740   1.454  14.752 -0.1282 -0.1491  0.2199
 1122TIP3    H124857   4.749   1.513  14.677 -0.3904  0.1357  0.4134
 1122TIP3    H224858   4.663   1.486  14.799 -0.8764 -1.2643 -0.2259
 1123TIP3   OH224859   1.815   3.536  16.763  0.6011  0.1675  0.4761
 1123TIP3    H124860   1.781   3.615  16.807 -2.8507 -0.8781 -0.0386
 1123TIP3    H224861   1.790   3.464  16.821  0.9601 -0.7932 -0.5337
 1124TIP3   OH224862   5.636   6.332  15.990 -0.9533  0.0612  0.6736
 1124TIP3    H124863   5.653   6.239  16.005 -0.2662  0.0790  0.0824
 1124TIP3    H224864   5.666   6.376  16.070 -1.4585 -0.2361  1.0321
 1125TIP3   OH224865   2.567   1.738  12.984 -0.2886 -0.3040  0.0270
 1125TIP3    H124866   2.534   1.807  12.926  0.0390 -0.5259 -0.4307
 1125TIP3    H224867   2.531   1.657  12.947 -1.4694 -0.3104  1.1175
 1126TIP3   OH224868   3.668   0.105   0.357 -0.6608 -0.1576  0.1364
 1126TIP3    H124869   3.635   0.105   0.267 -1.2977  0.1163  0.3589
 1126TIP3    H224870   3.762   0.089   0.349 -0.9121 -1.4251 -0.4991
 1127TIP3   OH224871   6.123   1.159  13.926  0.2660 -0.6930 -0.6651
 1127TIP3    H124872   6.073   1.078  13.912 -0.8137 -0.1832  0.1838
 1127TIP3    H224873   6.077   1.205  13.995  0.4049  1.0427 -1.6662
 1128TIP3   OH224874   1.664   5.128   5.808 -0.5163  0.3126 -0.2360
 1128TIP3    H124875   1.611   5.056   5.842  0.1759  0.9068  2.3484
 1128TIP3    H224876   1.747   5.087   5.783  0.5621  0.2874  2.8977
 1129TIP3   OH224877   2.378   1.249  15.079 -0.4799 -0.5484 -0.1364
 1129TIP3    H124878   2.469   1.220  15.076 -0.3794 -0.1896 -0.9953
 1129TIP3    H224879   2.339   1.199  15.151  0.5716 -0.1690  0.7285
 1130TIP3   OH224880   3.415   4.582  16.395  0.3593  0.2556  0.5876
 1130TIP3    H124881   3.465   4.659  16.368 -0.9675  0.9715  0.0553
 1130TIP3    H224882   3.481   4.518  16.421  1.6084  0.7420 -1.1541
 1131TIP3   OH224883   3.114   5.679  13.167  0.4668  0.4020 -0.6298
 1131TIP3    H124884   3.196   5.642  13.133 -0.3115 -0.8749 -1.2013
 1131TIP3    H224885   3.137   5.767  13.195  2.0378  0.0644 -0.7761
 1132TIP3   OH224886   1.850   4.161  15.179 -0.5275 -0.5717 -0.1601
 1132TIP3    H124887   1.826   4.073  15.149  1.4963 -1.1156 -0.2900
 1132TIP3    H224888   1.944   4.156  15.197 -0.3906  1.5332 -0.0404
 1133TIP3   OH224889   4.254   2.003  13.259  0.3699  0.0998 -0.1480
 1133TIP3    H124890   4.245   2.071  13.191 -0.4200  0.0671 -0.0913
 1133TIP3    H224891   4.342   1.968  13.247  0.5935  0.7774 -0.5186
 1134TIP3   OH224892   1.146   1.226   5.877 -0.0766 -0.2439  0.4157
 1134TIP3    H124893   1.208   1.156   5.896 -0.0246  0.0666  1.4686
 1134TIP3    H224894   1.185   1.274   5.804  0.4019 -0.6829  0.3807
 1135TIP3   OH224895   3.173   0.033   4.750 -0.3438  0.7059  0.4380
 1135TIP3    H124896   3.152  -0.047   4.798 -0.6420  1.8892  2.3874
 1135TIP3    H224897   3.258   0.015   4.709 -1.5011 -1.4183 -1.1949
 1136TIP3   OH224898   1.445   3.867  15.661 -0.5865  0.3854 -0.3209
 1136TIP3    H124899   1.424   3.784  15.618  0.2376  0.5596 -1.0959
 1136TIP3    H224900   1.509   3.908  15.603 -0.4150  1.2178  0.4395
 1137TIP3   OH224901   4.932   3.669   2.620 -0.1582  0.1410 -0.0708
 1137TIP3    H124902   4.896   3.745   2.665  0.6724  0.9139 -0.6681
 1137TIP3    H224903   4.885   3.594   2.657  0.4282  0.7471  1.9788
 1138TIP3   OH224904   5.828   1.024  13.228  0.1091 -0.1523  0.1635
 1138TIP3    H124905   5.905   1.077  13.248 -0.2923  0.0519  1.2402
 1138TIP3    H224906   5.764   1.086  13.194  0.0253 -0.1275  0.3645
 1139TIP3   OH224907   5.403   1.063   5.530  0.5517 -0.2629  0.2703
 1139TIP3    H124908   5.323   1.032   5.572  1.2466 -2.5323  0.1017
 1139TIP3    H224909   5.471   1.054   5.598  1.2914 -1.9238 -0.6325
 1140TIP3   OH224910   3.693   5.987  12.249  0.3085 -0.3064  0.2143
 1140TIP3    H124911   3.755   6.018  12.183  0.0622  0.6749  0.4286
 1140TIP3    H224912   3.733   5.908  12.285  0.4142 -0.9181 -1.1639
 1141TIP3   OH224913   2.052   1.779  15.760 -0.1307 -0.1525 -0.3932
 1141TIP3    H124914   2.131   1.732  15.734 -0.2693  0.6436 -2.4408
 1141TIP3    H224915   2.054   1.779  15.856  2.8662  0.6859 -0.3710
 1142TIP3   OH224916   6.117   2.400   4.753  0.4249  0.1462 -0.1843
 1142TIP3    H124917   6.158   2.315   4.768  0.9982  0.6479  1.2531
 1142TIP3    H224918   6.191   2.461   4.747  0.0325  0.5241 -1.4572
 1143TIP3   OH224919   4.553   0.436   3.005  0.3704 -0.3275 -0.2712
 1143TIP3    H124920   4.512   0.399   2.927  2.8201 -0.1262 -1.7351
 1143TIP3    H224921   4.503   0.399   3.078 -0.6817 -2.1945 -1.8474
 1144TIP3   OH224922   2.424   6.371  12.058  0.6787 -0.4019 -0.3415
 1144TIP3    H124923   2.367   6.294  12.058 -0.4551  0.3877  0.7118
 1144TIP3    H224924   2.398   6.420  12.136  2.0626  0.5595 -0.4395
 1145TIP3   OH224925   6.203   4.847   0.730  0.2433 -0.0232  1.0858
 1145TIP3    H124926   6.121   4.806   0.703 -0.0150 -0.1437  2.0413
 1145TIP3    H224927   6.271   4.782   0.711  0.5901  1.1747 -2.6360
 1146TIP3   OH224928   0.195   5.079   1.351 -0.1628 -0.3325 -0.4215
 1146TIP3    H124929   0.279   5.048   1.318 -0.0818 -0.1640 -0.3749
 1146TIP3    H224930   0.150   5.114   1.274  0.1574  0.3563 -0.3051
 1147TIP3   OH224931   5.864   4.224  11.230 -0.3830  0.4384  0.2463
 1147TIP3    H124932   5.862   4.289  11.300  0.1203 -1.5995  2.2601
 1147TIP3    H224933   5.949   4.180  11.240  0.8168  1.6129 -3.2067
 1148TIP3   OH224934   3.597   0.147  16.427  0.2899 -0.2248  0.9307
 1148TIP3    H124935   3.659   0.102  16.484  0.6991  0.2739  0.8900
 1148TIP3    H224936   3.651   0.180  16.354 -0.1156 -0.2838  0.5989
 1149TIP3   OH224937   3.695   5.886  11.531 -0.1518  0.2067  0.0640
 1149TIP3    H124938   3.772   5.904  11.585  0.7865  0.1342 -1.2294
 1149TIP3    H224939   3.720   5.812  11.476 -1.7697 -0.9907  0.8373
 1150TIP3   OH224940   6.378   1.535  11.759  0.0174 -0.1878  0.4757
 1150TIP3    H124941   6.431   1.554  11.681 -0.1393 -3.7735 -0.6932
 1150TIP3    H224942   6.288   1.532  11.726 -0.2585 -0.0308  1.1910
 1151TIP3   OH224943   3.927   4.255  13.089  0.4190  0.1418 -0.4739
 1151TIP3    H124944   4.001   4.201  13.116 -0.5021 -1.1571 -0.4425
 1151TIP3    H224945   3.940   4.269  12.995 -0.9427 -2.9620 -1.2764
 1152TIP3   OH224946   0.207   3.060  11.113  0.3399  0.0247 -0.4607
 1152TIP3    H124947   0.165   3.039  11.029 -0.8516  0.1000  0.0997
 1152TIP3    H224948   0.231   2.975  11.150  0.5519 -0.0260 -0.7097
 1153TIP3   OH224949   2.281   2.467  15.052 -0.1986 -0.1375  0.5653
 1153TIP3    H124950   2.329   2.439  14.974 -0.7617  0.5619 -0.0498
 1153TIP3    H224951   2.331   2.541  15.086  0.4061 -0.8484  1.2626
 1154TIP3   OH224952   0.037   1.547  10.690  0.0828  0.6265  0.0336
 1154TIP3    H124953   0.037   1.533  10.596  1.6833 -0.5149  0.1728
 1154TIP3    H224954  -0.048   1.587  10.708  0.4553  2.5907 -2.1134
 1155TIP3   OH224955   5.416   6.720  14.437 -1.1113 -0.3552 -0.3523
 1155TIP3    H124956   5.450   6.806  14.462  0.0866 -1.1320  0.8369
 1155TIP3    H224957   5.492   6.672  14.405 -1.8834 -0.7909 -1.6275
 1156TIP3   OH224958   2.423   4.331  13.339 -0.3392  0.2443  0.0199
 1156TIP3    H124959   2.497   4.368  13.388 -1.4790  0.7052  1.4683
 1156TIP3    H224960   2.430   4.237  13.353  1.7541 -0.0907 -2.5003
 1157TIP3   OH224961   4.907   4.335   5.625 -0.1091 -0.6779  0.7696
 1157TIP3    H124962   4.844   4.353   5.556 -0.2784 -0.5419  0.9597
 1157TIP3    H224963   4.904   4.240   5.636 -0.9004 -0.5922  1.3601
 1158TIP3   OH224964   6.084   2.736  12.533  0.0037 -0.6580 -0.1409
 1158TIP3    H124965   6.010   2.749  12.594  0.7210 -4.8738  1.9879
 1158TIP3    H224966   6.064   2.654  12.489  1.9417 -0.2104 -1.9849
 1159TIP3   OH224967   2.926   3.560  16.282 -0.0397  0.4884 -0.1675
 1159TIP3    H124968   2.837   3.549  16.315  0.0931  0.1538  0.0894
 1159TIP3    H224969   2.982   3.529  16.353  0.2545 -0.0918 -0.6380
 1160TIP3   OH224970   5.703   0.349   4.545 -0.0419 -0.0919  0.1263
 1160TIP3    H124971   5.659   0.433   4.533 -1.8067 -0.9891 -0.0248
 1160TIP3    H224972   5.718   0.344   4.640 -0.4613  0.1369  0.2082
 1161TIP3   OH224973   2.892   0.326   1.151  0.2767  0.1209 -0.1666
 1161TIP3    H124974   2.958   0.306   1.218 -0.1399  0.7534  0.4406
 1161TIP3    H224975   2.913   0.266   1.079  0.2647 -1.1143  0.8180
 1162TIP3   OH224976   3.066   2.658   6.581  0.0504  0.2144  0.3855
 1162TIP3    H124977   3.055   2.566   6.556  0.9997 -0.0083  0.7304
 1162TIP3    H224978   3.125   2.655   6.656 -2.7808  0.8492  2.8166
 1163TIP3   OH224979   0.392   4.923  14.326 -0.4692 -0.1763  0.1749
 1163TIP3    H124980   0.483   4.937  14.353  0.1793  1.6376 -2.5408
 1163TIP3    H224981   0.346   4.899  14.406  2.4133 -1.3370  1.6182
 1164TIP3   OH224982   2.255   1.891  14.763 -1.1845  0.3032 -0.0159
 1164TIP3    H124983   2.199   1.966  14.782 -1.7341 -0.4184  1.3889
 1164TIP3    H224984   2.342   1.918  14.792 -1.1802  0.7291 -0.4080
 1165TIP3   OH224985   1.209   5.901  16.959  0.1920 -0.2017 -0.2075
 1165TIP3    H124986   1.189   5.988  16.925  0.2808 -0.8487 -2.0176
 1165TIP3    H224987   1.300   5.907  16.990 -0.2182  0.6703  0.8755
 1166TIP3   OH224988   3.892   2.002   2.949 -0.3857 -0.0579  0.3781
 1166TIP3    H124989   3.799   2.009   2.972 -0.5418 -0.6069 -0.0602
 1166TIP3    H224990   3.896   1.926   2.891  0.3726 -0.1594  0.5621
 1167TIP3   OH224991   6.690   0.914  12.683 -0.1236 -0.1626  0.4015
 1167TIP3    H124992   6.701   1.005  12.710  0.5322 -0.1622  0.1518
 1167TIP3    H224993   6.777   0.887  12.652 -0.2628 -0.9294  0.6471
 1168TIP3   OH224994   1.900   2.122   1.323 -0.8398 -0.1131 -0.4440
 1168TIP3    H124995   1.964   2.067   1.369 -1.2155 -1.6019 -1.6181
 1168TIP3    H224996   1.886   2.196   1.381  2.1733  0.4368 -0.2506
 1169TIP3   OH224997   5.528   3.920  13.873  0.2522  0.0659  0.6549
 1169TIP3    H124998   5.622   3.927  13.893  0.5956 -0.8900 -0.4984
 1169TIP3    H224999   5.490   3.880  13.951  0.8449  0.2728  1.0583
 1170TIP3   OH225000   6.022   0.082   2.732 -0.1458  0.3327 -0.3131
 1170TIP3    H125001   5.953   0.028   2.695  0.2509 -0.5536  0.2257
 1170TIP3    H225002   6.071   0.024   2.790  0.4036  1.2178  0.1389
 1171TIP3   OH225003   2.907   4.194  12.137  0.4722  0.0761 -0.1991
 1171TIP3    H125004   2.870   4.155  12.217 -0.9458 -0.3319 -1.0239
 1171TIP3    H225005   3.001   4.201  12.155  0.0925  0.7321  1.8115
 1172TIP3   OH225006   0.223   4.198  12.740  0.2116 -0.0118 -0.3925
 1172TIP3    H125007   0.278   4.226  12.667  0.9284  0.2428  0.2284
 1172TIP3    H225008   0.145   4.253  12.735  1.2018  1.5193  0.2777
 1173TIP3   OH225009   4.498   3.237   5.222  0.2531 -0.3818  0.0655
 1173TIP3    H125010   4.564   3.207   5.160 -0.1676 -0.2745 -0.4440
 1173TIP3    H225011   4.433   3.282   5.168 -0.1556 -0.3481  0.5743
 1174TIP3   OH225012   3.619   4.622   5.910  0.3817  0.7769 -0.3543
 1174TIP3    H125013   3.540   4.661   5.947 -1.0109 -3.0198  1.1693
 1174TIP3    H225014   3.588   4.567   5.839  2.1610  1.7126 -1.9590
 1175TIP3   OH225015   3.070   1.147   5.028 -0.9619  0.2528 -0.4393
 1175TIP3    H125016   3.004   1.083   5.003  0.6677 -0.9803 -1.8285
 1175TIP3    H225017   3.098   1.186   4.945  0.8784 -0.1140 -0.0389
 1176TIP3   OH225018   4.191   0.275   5.310 -0.0097 -0.2155 -0.4112
 1176TIP3    H125019   4.103   0.311   5.297  0.8681  2.3634  0.1338
 1176TIP3    H225020   4.250   0.350   5.297  1.9895 -1.3701  1.2785
 1177TIP3   OH225021   3.168   4.876   4.678  0.3354  0.2400  0.3311
 1177TIP3    H125022   3.238   4.815   4.654  2.1779  1.6231  1.9172
 1177TIP3    H225023   3.092   4.820   4.695  0.8059 -1.2599 -2.0062
 1178TIP3   OH225024   2.490   0.985  13.885 -0.4359 -0.3303  0.8716
 1178TIP3    H125025   2.577   0.946  13.890 -0.1688  0.1974  0.5267
 1178TIP3    H225026   2.439   0.940  13.952 -0.0287 -0.9743  0.7522
 1179TIP3   OH225027   6.365   6.126  11.862  0.1006  0.4095  0.3487
 1179TIP3    H125028   6.329   6.056  11.807 -1.0228 -0.6726  2.3558
 1179TIP3    H225029   6.448   6.150  11.819 -1.1220  0.2645 -2.2669
 1180TIP3   OH225030   6.525   6.055   3.418  0.2007  0.1786 -0.1547
 1180TIP3    H125031   6.493   6.075   3.330 -0.9628 -1.8908 -0.2529
 1180TIP3    H225032   6.468   6.106   3.476 -2.0718 -1.8216 -0.4453
 1181TIP3   OH225033   4.933   1.888  16.720 -0.2333  0.9721  0.1964
 1181TIP3    H125034   4.893   1.830  16.655  0.1010  1.8218 -0.7973
 1181TIP3    H225035   4.948   1.832  16.796 -1.0627  0.0650 -0.2830
 1182TIP3   OH225036   6.320   3.178  13.206 -0.3439 -0.0804 -0.5693
 1182TIP3    H125037   6.404   3.152  13.170 -0.5430  0.5655 -1.5559
 1182TIP3    H225038   6.255   3.133  13.152 -0.6792 -2.1274  1.3767
 1183TIP3   OH225039   5.631   0.222  15.570 -0.3224  0.1843 -0.2111
 1183TIP3    H125040   5.581   0.142  15.553  1.5338 -1.6103  2.1193
 1183TIP3    H225041   5.675   0.241  15.487 -1.6763 -0.5090 -1.1258
 1184TIP3   OH225042   2.760   6.509  15.413  0.5553 -0.5340  0.5004
 1184TIP3    H125043   2.789   6.553  15.493 -0.1537 -2.2980  1.7894
 1184TIP3    H225044   2.787   6.567  15.342  2.2604  0.5172  1.9455
 1185TIP3   OH225045   0.855   0.840   5.321 -0.8431 -0.3381  0.3930
 1185TIP3    H125046   0.944   0.855   5.354 -1.0289 -0.4836  0.9645
 1185TIP3    H225047   0.816   0.779   5.383 -0.8256 -1.5195 -0.7235
 1186TIP3   OH225048   6.396   2.560  15.092 -0.7807 -0.4091  0.1954
 1186TIP3    H125049   6.382   2.530  15.003 -0.2063 -0.7851  0.2276
 1186TIP3    H225050   6.452   2.493  15.132 -1.0551 -0.2588  0.8448
 1187TIP3   OH225051   3.724   4.605   4.832  0.0012 -0.4040  0.0092
 1187TIP3    H125052   3.772   4.667   4.886  1.3392 -0.3054 -1.2490
 1187TIP3    H225053   3.632   4.621   4.853  0.4536 -0.2202  2.0574
 1188TIP3   OH225054   1.336   5.684  17.191 -0.2996  0.3449  0.4592
 1188TIP3    H125055   1.382   5.623  17.250  0.9130  1.4095  0.6511
 1188TIP3    H225056   1.263   5.718  17.244 -1.3957 -1.3725  0.1453
 1189TIP3   OH225057   1.653   0.057  13.552 -0.3108  0.2999 -0.4643
 1189TIP3    H125058   1.702   0.020  13.479  0.8159  1.1696 -0.1787
 1189TIP3    H225059   1.699   0.026  13.630 -1.0401  0.0099 -0.1452
 1190TIP3   OH225060   0.641   6.263  14.720 -0.0854 -0.4259  0.0128
 1190TIP3    H125061   0.670   6.345  14.761 -1.6176 -0.1629  0.6434
 1190TIP3    H225062   0.546   6.263  14.731 -0.2786 -1.5472 -1.3927
 1191TIP3   OH225063   6.109   6.150  12.942  0.0999  0.4733  0.5388
 1191TIP3    H125064   6.013   6.155  12.939  0.1870  2.3776 -0.0180
 1191TIP3    H225065   6.129   6.066  12.901 -1.2546  1.1209 -1.6380
 1192TIP3   OH225066   2.435   1.588  11.916 -0.4295  0.1176  0.2126
 1192TIP3    H125067   2.445   1.630  12.002  0.1922  0.6134 -0.1034
 1192TIP3    H225068   2.514   1.536  11.906 -0.2457  0.4945 -0.3026
 1193TIP3   OH225069   5.007   2.848  14.901 -0.3365  0.4178  0.1453
 1193TIP3    H125070   4.927   2.796  14.892 -0.3057  0.6352 -1.8649
 1193TIP3    H225071   5.077   2.787  14.880 -0.1861  0.8618 -0.6726
 1194TIP3   OH225072   1.768   6.777  12.649  0.0275 -0.4771  0.0264
 1194TIP3    H125073   1.754   6.810  12.738  0.7983  0.2553 -0.1096
 1194TIP3    H225074   1.681   6.755  12.618 -0.4540  0.9352  0.3305
 1195TIP3   OH225075   0.723   5.316   2.957  0.0674 -0.1896 -0.0869
 1195TIP3    H125076   0.744   5.226   2.930 -0.5247 -0.5773  0.6844
 1195TIP3    H225077   0.632   5.311   2.986 -0.1733  0.8130 -0.6516
 1196TIP3   OH225078   0.992   6.713  16.301 -0.0824 -0.1068 -0.1462
 1196TIP3    H125079   1.052   6.761  16.244  1.9845 -0.0303  1.9297
 1196TIP3    H225080   0.989   6.765  16.381 -1.4002 -1.1392  0.5072
 1197TIP3   OH225081   0.820   4.445   5.170  0.0220  0.3002  0.1360
 1197TIP3    H125082   0.771   4.421   5.249 -2.1650 -0.9625 -1.4936
 1197TIP3    H225083   0.886   4.376   5.161  0.9331  0.9781  1.3273
 1198TIP3   OH225084   3.470   5.051  14.219 -0.7380 -0.1477  0.3589
 1198TIP3    H125085   3.444   5.022  14.306  1.1396 -1.7120  0.4713
 1198TIP3    H225086   3.493   4.970  14.173  1.8467  0.9048 -0.3444
 1199TIP3   OH225087   1.610   0.077   5.632  0.5284 -0.0746  0.6614
 1199TIP3    H125088   1.678   0.080   5.565  0.5730  2.0006  0.7260
 1199TIP3    H225089   1.563  -0.004   5.616  0.5944  0.3117 -1.8492
 1200TIP3   OH225090   5.069   5.059  15.967  0.2706  0.1844  0.1837
 1200TIP3    H125091   5.026   4.976  15.947  2.3526 -0.7590 -0.6358
 1200TIP3    H225092   5.026   5.123  15.911  0.1083 -0.7718 -0.8084
 1201TIP3   OH225093   3.643   1.745  13.908 -0.2025 -0.2891  0.0799
 1201TIP3    H125094   3.684   1.828  13.933  0.3149 -0.6162  0.3121
 1201TIP3    H225095   3.578   1.770  13.842  0.8821  0.1498 -0.8500
 1202TIP3   OH225096   3.273   4.588   4.067 -0.0317 -0.5108 -0.1473
 1202TIP3    H125097   3.279   4.548   3.980 -1.4264  0.3946 -0.6844
 1202TIP3    H225098   3.272   4.682   4.051  3.4003 -0.1106  1.1091
 1203TIP3   OH225099   6.791   4.068   6.116 -0.2527 -0.2622 -0.1090
 1203TIP3    H125100   6.796   3.991   6.171 -1.3461  0.1292  0.5611
 1203TIP3    H225101   6.857   4.053   6.048  0.7134 -1.0113  0.9611
 1204TIP3   OH225102   0.536   5.206   2.653 -0.7227  0.2815  0.1624
 1204TIP3    H125103   0.497   5.291   2.673  1.6237  1.3567  0.5440
 1204TIP3    H225104   0.571   5.175   2.737 -1.7863 -1.2325  0.0871
 1205TIP3   OH225105   1.529   3.556   5.414 -0.0399 -0.3838 -0.2634
 1205TIP3    H125106   1.450   3.513   5.447 -0.2042 -0.2665 -0.5005
 1205TIP3    H225107   1.514   3.649   5.432  0.4631 -0.4542  0.5647
 1206TIP3   OH225108   0.078   1.996  16.479  0.1644 -0.9208  0.4314
 1206TIP3    H125109   0.123   2.080  16.475 -2.5521  0.6094 -0.8273
 1206TIP3    H225110   0.047   1.989  16.569  0.4531 -0.6051  0.5531
 1207TIP3   OH225111   3.716   3.631  12.906 -1.0221  0.1049  0.0716
 1207TIP3    H125112   3.755   3.620  12.820 -1.5087 -1.7425  0.0391
 1207TIP3    H225113   3.671   3.716  12.902 -0.2670  0.4698 -1.1580
 1208TIP3   OH225114   3.752   6.499  13.905  0.4769  0.4810  0.2870
 1208TIP3    H125115   3.825   6.523  13.847  0.9551  1.0275  1.0963
 1208TIP3    H225116   3.696   6.576  13.906 -1.0917 -0.5390 -1.7315
 1209TIP3   OH225117   6.347   5.092  13.573  0.1348  0.6776 -0.5156
 1209TIP3    H125118   6.433   5.134  13.561  0.3664  0.5667  0.6728
 1209TIP3    H225119   6.284   5.157  13.541  0.5855  1.2706 -0.2116
 1210TIP3   OH225120   5.593   1.558   1.627 -0.0500 -0.0959 -0.2577
 1210TIP3    H125121   5.656   1.488   1.607 -1.2623 -1.4090  0.3579
 1210TIP3    H225122   5.634   1.608   1.698  0.8215 -0.1805 -0.6872
 1211TIP3   OH225123   2.928   5.455   5.830 -0.0833 -0.2140  0.5495
 1211TIP3    H125124   2.852   5.396   5.833 -0.6577  0.4610 -0.2067
 1211TIP3    H225125   3.003   5.398   5.844 -0.6793 -1.0209  0.5270
 1212TIP3   OH225126   1.595   0.633  16.369  0.3482 -0.5458  0.4784
 1212TIP3    H125127   1.622   0.722  16.394  0.0639 -0.0200 -1.0234
 1212TIP3    H225128   1.672   0.596  16.325 -0.7256  0.3984 -2.4047
 1213TIP3   OH225129   2.472   5.125  17.252 -0.4817 -0.0967  0.1804
 1213TIP3    H125130   2.535   5.070  17.205 -0.6539 -0.1696  0.0364
 1213TIP3    H225131   2.522   5.205  17.273 -0.4675  0.0301 -0.3205
 1214TIP3   OH225132   5.815   6.488   0.847  0.3559  0.1329  0.8373
 1214TIP3    H125133   5.836   6.492   0.940  1.0000  1.6864  0.6582
 1214TIP3    H225134   5.899   6.473   0.803  0.2983  0.8908  0.4380
 1215TIP3   OH225135   0.112   4.557   0.940  0.5926  0.2183  0.5469
 1215TIP3    H125136   0.082   4.642   0.969  1.5800  0.5177  0.7299
 1215TIP3    H225137   0.092   4.555   0.846  1.8537  1.2408  0.2349
 1216TIP3   OH225138   4.925   6.761  14.992  0.0433  0.6534 -0.9343
 1216TIP3    H125139   5.015   6.758  14.961  0.5332  0.2514  0.4370
 1216TIP3    H225140   4.932   6.752  15.087 -1.4616  0.3523 -0.8230
 1217TIP3   OH225141   5.017   6.234   3.553  0.1239 -0.1520 -0.5913
 1217TIP3    H125142   4.999   6.141   3.563  1.1200 -0.4300 -1.2356
 1217TIP3    H225143   5.068   6.240   3.472  0.7911  0.8534 -0.1217
 1218TIP3   OH225144   0.813   5.285   5.872 -0.2818  0.0365 -0.2599
 1218TIP3    H125145   0.810   5.362   5.816  0.4386 -1.1279 -1.9845
 1218TIP3    H225146   0.721   5.257   5.879 -0.3311 -0.1333 -1.3742
 1219TIP3   OH225147   0.104   4.900  11.556 -0.1394  0.6223  0.0949
 1219TIP3    H125148   0.199   4.892  11.569 -0.1975  0.3969  0.3955
 1219TIP3    H225149   0.090   4.993  11.536  0.2586  0.4755 -0.9316
 1220TIP3   OH225150   3.463   6.664   1.287  0.7924 -0.0564  0.0701
 1220TIP3    H125151   3.453   6.619   1.370 -0.2656  0.2108  0.0947
 1220TIP3    H225152   3.418   6.748   1.299 -0.0901 -0.3546 -1.0300
 1221TIP3   OH225153   6.336   5.027   4.447 -0.7132 -0.0274 -0.2824
 1221TIP3    H125154   6.338   5.098   4.382  0.2573 -1.2548 -1.6505
 1221TIP3    H225155   6.377   5.066   4.525 -0.4427  0.9965 -0.9124
 1222TIP3   OH225156   1.724   6.500   5.845  0.6512 -0.4636 -0.2647
 1222TIP3    H125157   1.639   6.473   5.810  0.4599 -0.7662  0.4063
 1222TIP3    H225158   1.788   6.449   5.795  0.4699  0.1570 -1.1291
 1223TIP3   OH225159   1.507   1.211  13.332 -0.4078 -0.8164 -0.1028
 1223TIP3    H125160   1.589   1.258  13.348 -1.2718  0.8878 -0.3801
 1223TIP3    H225161   1.452   1.232  13.408 -0.4582 -2.2960  0.2898
 1224TIP3   OH225162   4.623   5.169   3.769 -0.2855  0.1088  0.5265
 1224TIP3    H125163   4.718   5.178   3.773 -0.0936 -1.0913 -0.7309
 1224TIP3    H225164   4.591   5.258   3.755  0.8918  0.1913 -2.3372
 1225TIP3   OH225165   4.432   2.123  13.828  0.3664 -0.4487 -0.2121
 1225TIP3    H125166   4.418   2.064  13.903 -1.9371  1.8165  1.2873
 1225TIP3    H225167   4.506   2.178  13.855  0.5013 -0.5960 -0.2750
 1226TIP3   OH225168   2.928   2.984   1.719  0.2881 -0.5570  0.0240
 1226TIP3    H125169   2.891   2.955   1.636 -0.7533  1.3350 -0.2304
 1226TIP3    H225170   2.932   3.080   1.711  0.0046 -0.3152  2.2128
 1227TIP3   OH225171   2.457   6.037  13.979  0.4239  0.0579 -0.0310
 1227TIP3    H125172   2.517   6.094  13.931  0.5373  0.0376  0.0898
 1227TIP3    H225173   2.479   5.948  13.949 -1.5970  0.2403 -2.3726
 1228TIP3   OH225174   6.236   0.626   3.398 -0.7885  0.8227  0.4611
 1228TIP3    H125175   6.266   0.717   3.393  1.2277  0.1809  0.0045
 1228TIP3    H225176   6.178   0.616   3.322  0.9538  1.0822 -0.9689
 1229TIP3   OH225177   3.691   1.635  15.130  0.1690 -1.0173 -0.3261
 1229TIP3    H125178   3.661   1.716  15.172 -0.6387 -1.3526 -0.2305
 1229TIP3    H225179   3.623   1.571  15.151  0.5676 -1.6037 -0.7912
 1230TIP3   OH225180   2.053   1.452  14.600  0.2333 -0.1889 -0.3817
 1230TIP3    H125181   1.981   1.474  14.658 -0.4105  1.8842 -1.8435
 1230TIP3    H225182   2.051   1.357  14.593  1.2811 -0.7670  4.0504
 1231TIP3   OH225183   3.009   0.674  13.702  0.1071 -0.5638  0.7034
 1231TIP3    H125184   2.993   0.768  13.696  1.7509 -0.0940  2.6054
 1231TIP3    H225185   3.026   0.647  13.612  2.8478  1.6516  0.4340
 1232TIP3   OH225186   4.017   5.978   3.788  0.1448  0.1523 -0.1803
 1232TIP3    H125187   3.939   5.946   3.834 -0.1585  1.0310 -0.0551
 1232TIP3    H225188   4.053   5.901   3.746  0.2853 -0.6343  1.3148
 1233TIP3   OH225189   2.200   6.727   0.403  0.6318  0.2644 -0.3148
 1233TIP3    H125190   2.186   6.809   0.356 -1.2903  1.1306  1.6029
 1233TIP3    H225191   2.241   6.752   0.485  0.7169 -0.7802 -0.0160
 1234TIP3   OH225192   2.816   3.476   2.476 -0.5554  0.0540 -0.1811
 1234TIP3    H125193   2.754   3.461   2.548 -0.3041 -1.0220 -0.1719
 1234TIP3    H225194   2.902   3.461   2.514 -0.3404  0.6117 -0.4309
 1235TIP3   OH225195   3.424   3.670  16.035 -0.0426 -0.4178 -0.5328
 1235TIP3    H125196   3.482   3.610  15.988  1.5460  0.9821 -0.4625
 1235TIP3    H225197   3.403   3.624  16.116  3.0990  0.0110  0.6280
 1236TIP3   OH225198   3.518   5.976   4.267 -0.0009 -0.0810  0.8460
 1236TIP3    H125199   3.537   5.891   4.226 -0.7764  0.9486 -1.8807
 1236TIP3    H225200   3.598   6.027   4.254 -0.3597  0.3556  0.3241
 1237TIP3   OH225201   1.176   0.242  15.615 -0.0003  0.2620 -0.5386
 1237TIP3    H125202   1.120   0.219  15.541  0.1305  1.7597 -1.1284
 1237TIP3    H225203   1.221   0.322  15.588  1.7270 -0.3843  0.2956
 1238TIP3   OH225204   4.203   2.851  15.382  0.1714 -0.1533  0.4799
 1238TIP3    H125205   4.166   2.895  15.458  1.3229 -0.3369  1.1664
 1238TIP3    H225206   4.222   2.762  15.413  1.6071  0.0689  0.3008
 1239TIP3   OH225207   1.372   5.553  15.247  0.2352  0.3370 -0.3845
 1239TIP3    H125208   1.436   5.541  15.316  0.7075  0.1604 -0.8449
 1239TIP3    H225209   1.308   5.615  15.283  1.2625  1.3868 -0.3100
 1240TIP3   OH225210   3.987   4.331   0.263  0.3827 -0.1920 -0.2140
 1240TIP3    H125211   4.063   4.383   0.287 -0.0658 -0.2668  1.5243
 1240TIP3    H225212   3.912   4.384   0.289 -0.0845 -1.5358  1.3858
 1241TIP3   OH225213   1.261   4.949  11.790  0.1123 -0.0045  0.3368
 1241TIP3    H125214   1.299   4.882  11.733 -0.1739 -0.5599  0.7940
 1241TIP3    H225215   1.190   4.904  11.835 -1.5637  1.1751 -0.9955
 1242TIP3   OH225216   0.951   3.918   1.945 -0.4267 -0.3911 -0.4932
 1242TIP3    H125217   0.868   3.873   1.961 -0.6906  0.3240  0.2650
 1242TIP3    H225218   1.003   3.857   1.893 -0.7117 -1.6217  0.6344
 1243TIP3   OH225219   0.144   5.578  16.635 -0.2428  0.0364 -1.0613
 1243TIP3    H125220   0.161   5.588  16.541 -0.5356 -0.6010 -1.1869
 1243TIP3    H225221   0.073   5.639  16.653  1.5126  2.0908 -0.7063
 1244TIP3   OH225222   1.781   2.834  16.035  0.2584 -0.0803 -0.1582
 1244TIP3    H125223   1.876   2.831  16.021  0.1977 -0.1151 -0.5583
 1244TIP3    H225224   1.744   2.844  15.948 -0.2092 -2.1304 -0.2467
 1245TIP3   OH225225   3.802   3.605  11.285  0.0498 -0.0681 -0.2609
 1245TIP3    H125226   3.737   3.609  11.215 -2.1093  1.7410  1.6567
 1245TIP3    H225227   3.751   3.594  11.365  2.1888  0.3288  1.2741
 1246TIP3   OH225228   0.049   0.026  11.353  0.0011  0.3115 -0.0065
 1246TIP3    H125229   0.115   0.016  11.422  0.3324  2.8720  0.1586
 1246TIP3    H225230   0.099   0.044  11.274 -0.4597  0.6575 -0.2200
 1247TIP3   OH225231   1.919   1.878  15.037  0.1744  0.2782 -0.3653
 1247TIP3    H125232   1.890   1.787  15.046  0.5164  0.3676  2.2067
 1247TIP3    H225233   1.846   1.930  15.069  0.1073  0.9261 -1.5177
 1248TIP3   OH225234   2.588   3.408   0.304 -0.0849  0.1364  0.2676
 1248TIP3    H125235   2.597   3.496   0.269 -1.1402  0.5914  1.0874
 1248TIP3    H225236   2.494   3.399   0.322  0.1370 -0.8229  1.0327
 1249TIP3   OH225237   1.860   6.457  14.906 -0.7226  0.3433  0.1725
 1249TIP3    H125238   1.798   6.411  14.963  1.0678 -1.5112  0.7707
 1249TIP3    H225239   1.864   6.403  14.827  0.5822  0.0712  0.4103
 1250TIP3   OH225240   1.155   3.762   3.053  0.5606 -0.9779  0.7022
 1250TIP3    H125241   1.102   3.745   2.974  1.9815 -1.2553 -0.2164
 1250TIP3    H225242   1.194   3.677   3.074  1.8836 -0.4569  0.4262
 1251TIP3   OH225243   1.441   2.025   2.796  0.9982 -0.0806 -0.7114
 1251TIP3    H125244   1.387   1.955   2.831  1.6948 -1.2555 -1.8992
 1251TIP3    H225245   1.501   2.048   2.867 -0.5172  0.7385  0.3671
 1252TIP3   OH225246   2.323   2.766   3.996  0.0816 -0.3952  0.0594
 1252TIP3    H125247   2.234   2.737   4.017 -0.1575 -0.7293 -1.3060
 1252TIP3    H225248   2.375   2.738   4.071 -0.6502 -1.8563  0.0596
 1253TIP3   OH225249   3.238   6.442   5.402  0.2475 -0.6522 -0.2448
 1253TIP3    H125250   3.291   6.369   5.433  0.1801 -1.1305 -1.2164
 1253TIP3    H225251   3.199   6.479   5.481  0.1674 -1.7551  0.2450
 1254TIP3   OH225252   2.184   5.591   0.164  0.1287 -0.2395  0.2455
 1254TIP3    H125253   2.257   5.608   0.223 -1.0588  0.4396  1.5637
 1254TIP3    H225254   2.119   5.546   0.217 -1.7001  1.9263  0.0202
 1255TIP3   OH225255   6.648   5.320   0.466 -0.3629  0.2403  0.1083
 1255TIP3    H125256   6.639   5.226   0.455 -2.6986  0.3142  0.8900
 1255TIP3    H225257   6.710   5.346   0.398 -0.6630 -1.6803 -0.9759
 1256TIP3   OH225258   0.014   0.778  14.080  0.0148  1.3880  0.0634
 1256TIP3    H125259   0.014   0.730  14.162 -0.1128  2.2736  0.5988
 1256TIP3    H225260   0.028   0.711  14.013 -0.3340  0.5953  0.7631
 1257TIP3   OH225261   2.587   0.988   4.277 -0.0505 -0.7380 -0.1398
 1257TIP3    H125262   2.578   1.027   4.190  2.5556  1.5581  0.4752
 1257TIP3    H225263   2.531   1.041   4.333  0.7284 -0.1532  0.0960
 1258TIP3   OH225264   3.730   4.521   2.087  0.0589  0.3305 -0.1011
 1258TIP3    H125265   3.673   4.597   2.075  0.0644  0.3453 -0.0354
 1258TIP3    H225266   3.711   4.491   2.176 -0.4284 -0.1425 -0.3584
 1259TIP3   OH225267   2.104   0.822  13.043 -0.0404  0.1004  0.0729
 1259TIP3    H125268   2.081   0.868  12.963 -2.9264 -0.4083  0.5067
 1259TIP3    H225269   2.141   0.889  13.100 -1.2448  1.2296 -0.4312
 1260TIP3   OH225270   2.572   0.845   0.088 -0.5911  0.7558  1.1251
 1260TIP3    H125271   2.565   0.796   0.006 -2.5207 -0.5295  1.9975
 1260TIP3    H225272   2.646   0.905   0.073  1.2258 -1.6544 -0.3802
 1261TIP3   OH225273   1.756   5.913  14.762  0.2793 -0.5982  0.8774
 1261TIP3    H125274   1.819   5.862  14.711  0.3758 -1.1615  1.5475
 1261TIP3    H225275   1.708   5.848  14.814 -0.2000 -0.0864  1.0865
 1262TIP3   OH225276   2.979   1.410   3.173  0.2121  0.0443 -0.0155
 1262TIP3    H125277   2.976   1.501   3.145 -0.2044 -0.2252 -0.9182
 1262TIP3    H225278   3.040   1.368   3.112 -0.6082 -0.5323 -0.4636
 1263TIP3   OH225279   1.332   5.132  16.047  0.3884  1.0659 -0.2003
 1263TIP3    H125280   1.248   5.110  16.088  1.1425 -0.1099  0.7962
 1263TIP3    H225281   1.311   5.142  15.954 -0.9709  1.5365  0.1221
 1264TIP3   OH225282   6.560   4.300   5.849  0.1821  0.7062  0.3246
 1264TIP3    H125283   6.498   4.340   5.788 -1.6816 -2.1185  0.1661
 1264TIP3    H225284   6.510   4.232   5.893  2.7177 -0.4863  1.6062
 1265TIP3   OH225285   2.667   4.355  15.365  0.1604 -0.1546  0.5625
 1265TIP3    H125286   2.634   4.425  15.309 -0.0889  0.3116  1.2733
 1265TIP3    H225287   2.734   4.312  15.313 -1.7704 -1.3714 -1.0840
 1266TIP3   OH225288   4.504   1.626  16.330  0.2490  0.0980 -0.0335
 1266TIP3    H125289   4.452   1.706  16.318 -1.1648 -0.2969  2.7700
 1266TIP3    H225290   4.593   1.658  16.347 -0.0295  1.0215 -0.2654
 1267TIP3   OH225291   2.397   1.008  14.605  0.3003  0.0550 -0.3003
 1267TIP3    H125292   2.410   0.917  14.577  0.5651 -0.1010  0.3049
 1267TIP3    H225293   2.321   1.038  14.555  1.3890  0.1438 -1.9816
 1268TIP3   OH225294   2.414   1.180   6.078  0.1291  0.5078 -0.4705
 1268TIP3    H125295   2.398   1.167   6.171  1.7659 -0.1813 -0.2428
 1268TIP3    H225296   2.412   1.275   6.066  1.9523  0.7374  0.7116
 1269TIP3   OH225297   6.745   1.996   3.552 -0.0608 -0.4269  0.0768
 1269TIP3    H125298   6.762   2.042   3.634 -0.3468 -1.0282  0.4843
 1269TIP3    H225299   6.666   2.037   3.517 -1.2473 -1.5866  1.2240
 1270TIP3   OH225300   1.377   1.316  13.807 -0.0724 -0.2195  0.6302
 1270TIP3    H125301   1.373   1.237  13.861 -0.1566 -0.6685 -0.0159
 1270TIP3    H225302   1.470   1.341  13.809  0.2875 -1.3357 -0.5356
 1271TIP3   OH225303   1.505   0.059  15.687 -0.5376  0.8820 -0.5486
 1271TIP3    H125304   1.482  -0.018  15.739  0.2297  2.1187  1.7665
 1271TIP3    H225305   1.454   0.130  15.726  0.9691  2.0862 -0.6830
 1272TIP3   OH225306   6.715   3.769   0.969  0.1424 -0.1374  0.2920
 1272TIP3    H125307   6.689   3.851   0.926  1.6231  0.8182  1.1183
 1272TIP3    H225308   6.753   3.797   1.052  0.2864 -1.7171  0.7870
 1273TIP3   OH225309   4.074   0.034  15.650 -0.6162  0.2370 -0.1727
 1273TIP3    H125310   4.159  -0.010  15.650 -0.9807 -0.4882  0.4132
 1273TIP3    H225311   4.094   0.124  15.625  0.1972 -0.1520 -0.9875
 1274TIP3   OH225312   2.067   2.543  16.669 -0.2055 -0.5086  0.0117
 1274TIP3    H125313   2.142   2.510  16.620 -0.2516 -0.6680  0.0482
 1274TIP3    H225314   2.090   2.634  16.690  0.5260 -0.9113  1.0799
 1275TIP3   OH225315   4.809   3.981  11.341  0.5334 -0.2193 -0.3427
 1275TIP3    H125316   4.785   3.901  11.388 -1.5518 -0.5300 -1.8052
 1275TIP3    H225317   4.761   4.050  11.387  0.8069 -0.0929 -0.2475
 1276TIP3   OH225318   3.352   1.440  13.706 -0.8325  0.2464 -0.3430
 1276TIP3    H125319   3.320   1.351  13.723  0.1717 -0.4485 -1.8675
 1276TIP3    H225320   3.413   1.458  13.777 -0.5518 -0.5619 -0.3662
 1277TIP3   OH225321   3.245   2.885  16.498  0.9167  0.3460 -0.2810
 1277TIP3    H125322   3.318   2.924  16.450  1.7300  0.6678  1.1390
 1277TIP3    H225323   3.168   2.904  16.445  1.5397  2.2298 -0.5876
 1278TIP3   OH225324   4.625   1.066   5.801 -0.0131  0.1410 -0.0919
 1278TIP3    H125325   4.534   1.087   5.821 -0.2858  0.4296 -1.5125
 1278TIP3    H225326   4.676   1.117   5.864 -0.7634  2.3974 -1.1714
 1279TIP3   OH225327   6.583   2.312  11.345 -0.4143  0.7575 -0.2914
 1279TIP3    H125328   6.661   2.279  11.388 -0.5573  1.1011  0.2545
 1279TIP3    H225329   6.542   2.236  11.305 -1.4299 -0.0155  2.0178
 1280TIP3   OH225330   3.443   2.665   6.623 -0.1737  0.2097  0.6287
 1280TIP3    H125331   3.440   2.637   6.715 -1.9184  1.4927  1.0229
 1280TIP3    H225332   3.406   2.592   6.574 -1.3006  0.3596  1.2223
 1281TIP3   OH225333   4.098   5.276   2.498 -0.5038 -0.3284 -0.5459
 1281TIP3    H125334   4.139   5.248   2.416  0.7703 -2.6445  0.7548
 1281TIP3    H225335   4.034   5.207   2.517 -0.5402 -0.0174  0.5305
 1282TIP3   OH225336   1.271   5.607  10.625  0.8208 -0.6631  0.3322
 1282TIP3    H125337   1.277   5.676  10.691  3.6594  0.7042 -1.1448
 1282TIP3    H225338   1.203   5.637  10.565  0.6988 -0.1223  0.7313
 1283TIP3   OH225339   3.346   2.452   4.016  0.4843 -0.0218  0.7265
 1283TIP3    H125340   3.399   2.375   4.034  1.6875  1.2036  2.8411
 1283TIP3    H225341   3.272   2.445   4.077  0.9588  0.7943  1.4184
 1284TIP3   OH225342   4.524   6.776  14.701 -0.0591 -0.0751 -0.0345
 1284TIP3    H125343   4.481   6.847  14.747  0.2046  0.8356 -1.1423
 1284TIP3    H225344   4.617   6.792  14.713  0.0013 -0.4901  0.0765
 1285TIP3   OH225345   4.804   0.936  16.005 -0.2610 -0.4554  0.2432
 1285TIP3    H125346   4.816   0.958  15.913 -1.2836  4.0683  0.9480
 1285TIP3    H225347   4.712   0.957  16.023 -0.6013 -2.9515  2.0104
 1286TIP3   OH225348   3.797   2.100   4.885  0.3181  0.3435  0.0863
 1286TIP3    H125349   3.747   2.064   4.811 -0.0725  2.3074 -0.6681
 1286TIP3    H225350   3.795   2.031   4.951 -3.4590  0.3002  0.1402
 1287TIP3   OH225351   1.531   6.372   3.284 -0.2242  0.4507  0.3051
 1287TIP3    H125352   1.519   6.308   3.214 -0.5848  0.2344  0.5621
 1287TIP3    H225353   1.619   6.353   3.318 -0.7290 -0.6141  1.0774
 1288TIP3   OH225354   1.055   0.621  11.027  0.2982  0.3554  0.9168
 1288TIP3    H125355   1.142   0.582  11.030  0.6475  1.1320  1.1382
 1288TIP3    H225356   1.061   0.690  10.961 -1.1000 -1.7537 -1.6504
 1289TIP3   OH225357   2.877   4.451  12.208  0.0570 -0.3336 -0.5852
 1289TIP3    H125358   2.814   4.418  12.272 -2.4359  0.8032 -2.2947
 1289TIP3    H225359   2.880   4.383  12.140  0.6412 -0.3502 -0.5497
 1290TIP3   OH225360   2.985   4.627   4.031  0.7751  0.6735 -0.1076
 1290TIP3    H125361   3.062   4.570   4.029  0.7031  0.3096  3.0715
 1290TIP3    H225362   3.020   4.715   4.017  1.4506  0.3028 -0.8326
 1291TIP3   OH225363   1.717   2.687  14.313 -0.0757 -0.3073  0.3243
 1291TIP3    H125364   1.687   2.652  14.229 -0.3744  0.3535  0.1443
 1291TIP3    H225365   1.806   2.716  14.297 -0.5600  0.9968 -0.1351
 1292TIP3   OH225366   2.863   1.135  14.524  0.0344  0.8903  0.7324
 1292TIP3    H125367   2.918   1.086  14.586 -0.4264  0.6817  0.9801
 1292TIP3    H225368   2.925   1.187  14.473  0.5192  0.1582  0.5591
 1293TIP3   OH225369   4.069   2.831   1.214 -1.0143 -0.3701  0.2092
 1293TIP3    H125370   4.079   2.809   1.306 -0.9676  1.3506  0.6407
 1293TIP3    H225371   4.140   2.783   1.170 -0.0490  0.0384  1.2753
 1294TIP3   OH225372   4.492   6.315   4.846 -0.3960 -0.2141 -0.3109
 1294TIP3    H125373   4.427   6.306   4.776 -0.5071 -3.2656  0.0220
 1294TIP3    H225374   4.441   6.341   4.923 -0.8204 -0.1829 -0.5981
 1295TIP3   OH225375   6.720   1.576   1.008  0.3188  0.6094  0.4923
 1295TIP3    H125376   6.634   1.535   1.001  0.1303  0.7988  1.5660
 1295TIP3    H225377   6.770   1.538   0.935 -0.2948 -0.4193  0.5749
 1296TIP3   OH225378   5.446   3.766   2.694 -0.5223 -0.3964 -0.5251
 1296TIP3    H125379   5.498   3.736   2.619 -1.3590 -3.7410  0.0846
 1296TIP3    H225380   5.357   3.775   2.659 -0.3665  1.0999 -0.5887
 1297TIP3   OH225381   5.219   1.512  13.527  0.0252  0.4062 -0.1924
 1297TIP3    H125382   5.285   1.514  13.597  0.2543 -0.2965 -0.3768
 1297TIP3    H225383   5.175   1.597  13.533  1.3742  1.1580 -0.4714
 1298TIP3   OH225384   2.441   5.619   5.280 -0.3953 -0.5211  0.8476
 1298TIP3    H125385   2.356   5.613   5.235 -1.0576 -1.1521  2.1406
 1298TIP3    H225386   2.505   5.610   5.209 -1.4008 -1.2494 -0.0126
 1299TIP3   OH225387   3.185   5.099   0.408 -0.3351 -0.0939  0.1536
 1299TIP3    H125388   3.104   5.144   0.386  0.8114  1.8722 -0.2860
 1299TIP3    H225389   3.197   5.035   0.337  0.7673  2.7582 -2.4653
 1300TIP3   OH225390   6.149   1.389  16.867  0.3692  0.0277 -0.1465
 1300TIP3    H125391   6.083   1.327  16.836  0.6355 -0.3186 -0.0350
 1300TIP3    H225392   6.223   1.376  16.808  1.0309 -0.9219  0.8610
 1301TIP3   OH225393   1.642   5.770   6.014 -0.3396  0.0669 -0.2444
 1301TIP3    H125394   1.715   5.776   5.953 -2.1986  3.7543 -2.4055
 1301TIP3    H225395   1.564   5.768   5.959 -2.0391 -1.0267  2.0242
 1302TIP3   OH225396   0.982   0.151  13.623 -0.2646 -0.0427  0.1169
 1302TIP3    H125397   1.071   0.182  13.638  0.7471  0.2050 -4.7215
 1302TIP3    H225398   0.929   0.231  13.618 -0.1622  0.0281  0.1842
 1303TIP3   OH225399   2.741   4.558   4.233 -0.1935  0.7860 -0.2475
 1303TIP3    H125400   2.825   4.596   4.261  0.2107  0.6948 -1.2959
 1303TIP3    H225401   2.763   4.505   4.157 -1.4434  2.0789 -1.5690
 1304TIP3   OH225402   4.391   5.555   2.850  0.2646  0.0379  0.1642
 1304TIP3    H125403   4.324   5.611   2.889 -0.4086 -1.1015  0.6928
 1304TIP3    H225404   4.345   5.505   2.783  0.2417 -1.6580  1.3721
 1305TIP3   OH225405   5.596   6.195   4.864 -0.2312  0.1358 -0.0173
 1305TIP3    H125406   5.512   6.238   4.848  0.0021  0.1523 -1.2874
 1305TIP3    H225407   5.573   6.115   4.911 -0.9652  0.0928 -0.4313
 1306TIP3   OH225408   3.061   4.128   4.934  0.3580  0.5752  0.2070
 1306TIP3    H125409   3.016   4.138   4.850  0.5141 -0.3187  0.0036
 1306TIP3    H225410   2.993   4.097   4.994  0.2122  1.3599  0.4538
 1307TIP3   OH225411   3.022   5.995  12.697 -0.1977  0.4630 -0.8742
 1307TIP3    H125412   3.074   5.952  12.764  0.5719  1.1315 -1.0223
 1307TIP3    H225413   2.952   5.933  12.677  0.3124 -0.2846 -0.3874
 1308TIP3   OH225414   6.328   3.275  14.626 -1.0312  0.4986  0.8459
 1308TIP3    H125415   6.394   3.343  14.626  1.4835 -1.6890 -1.9728
 1308TIP3    H225416   6.341   3.229  14.709  0.9871  0.1695  0.3866
 1309TIP3   OH225417   4.433   0.119  11.148  1.0823 -0.1209 -0.3270
 1309TIP3    H125418   4.439   0.131  11.243  2.0564 -0.8755 -0.2814
 1309TIP3    H225419   4.523   0.124  11.117  0.8928 -0.9961 -1.0734
 1310TIP3   OH225420   2.418   2.295  15.989 -0.4575 -0.8727  0.1185
 1310TIP3    H125421   2.497   2.348  15.996 -1.9005  1.3526  0.3322
 1310TIP3    H225422   2.371   2.332  15.914 -3.1700  0.5414  2.3834
 1311TIP3   OH225423   4.532   4.494  11.786 -0.2361 -0.7362  0.3783
 1311TIP3    H125424   4.517   4.579  11.828 -0.0093  0.0697 -1.0950
 1311TIP3    H225425   4.450   4.446  11.800 -0.4929 -0.1483  0.9475
 1312TIP3   OH225426   4.690   6.478   4.725  0.1347 -0.4457  0.3106
 1312TIP3    H125427   4.619   6.425   4.761 -0.3305 -0.6032 -0.8217
 1312TIP3    H225428   4.660   6.503   4.638  1.0326  0.3488  0.2152
 1313TIP3   OH225429   4.430   3.204   4.209  0.4706 -0.4284  0.0386
 1313TIP3    H125430   4.439   3.120   4.254 -1.4540 -2.1226 -2.4753
 1313TIP3    H225431   4.481   3.194   4.128 -2.3837 -0.5167 -1.8776
 1314TIP3   OH225432   5.774   1.318  15.997 -0.3054 -0.2453 -0.5631
 1314TIP3    H125433   5.707   1.317  16.064 -0.5045  1.8359 -0.6453
 1314TIP3    H225434   5.809   1.229  15.995 -1.2764 -0.7055  1.2761
 1315TIP3   OH225435   2.770   3.604  12.868 -0.0145 -0.5477 -0.5311
 1315TIP3    H125436   2.704   3.630  12.804 -0.5673 -0.6620 -0.0157
 1315TIP3    H225437   2.769   3.674  12.934  1.8175  0.5140 -1.5290
 1316TIP3   OH225438   2.837   0.750  16.124  0.3707 -0.3737  0.0189
 1316TIP3    H125439   2.916   0.722  16.171 -0.3114 -2.6035 -0.0597
 1316TIP3    H225440   2.765   0.709  16.171 -0.9752  2.8477  1.0023
 1317TIP3   OH225441   5.179   0.208  13.123 -0.4301  0.1698  0.4952
 1317TIP3    H125442   5.092   0.190  13.086 -0.2490  0.4143 -0.0544
 1317TIP3    H225443   5.236   0.218  13.047  0.4496 -1.7575  0.8404
 1318TIP3   OH225444   3.364   0.513  14.939 -1.2298 -0.3070  0.3524
 1318TIP3    H125445   3.279   0.557  14.940 -2.5405 -2.6289  0.4678
 1318TIP3    H225446   3.352   0.440  14.878  0.9523 -0.2734 -0.1951
 1319TIP3   OH225447   5.578   3.945  14.410 -0.1993  0.1786 -0.3144
 1319TIP3    H125448   5.511   4.002  14.447  0.6877  1.3552 -0.4409
 1319TIP3    H225449   5.630   3.917  14.485 -0.0880  0.2812 -0.3528
 1320TIP3   OH225450   0.370   1.138  15.069  0.1998  0.1936 -0.0547
 1320TIP3    H125451   0.449   1.085  15.079  0.9724  0.8638 -2.0983
 1320TIP3    H225452   0.355   1.142  14.974 -1.6836  0.9757  0.2246
 1321TIP3   OH225453   1.287   4.547  16.097 -0.0455 -0.1488  0.1591
 1321TIP3    H125454   1.212   4.606  16.090 -1.4420 -1.7506  0.8439
 1321TIP3    H225455   1.359   4.602  16.127 -1.0929  1.3253  0.0478
 1322TIP3   OH225456   3.179   5.360   4.358 -0.0874  0.2107 -0.1462
 1322TIP3    H125457   3.100   5.385   4.406 -0.1486  1.3931 -0.8383
 1322TIP3    H225458   3.250   5.371   4.422 -0.3935 -0.1316  0.2554
 1323TIP3   OH225459   2.593   2.051   0.301  0.3223 -0.9904  0.3220
 1323TIP3    H125460   2.533   1.983   0.330  2.7875 -2.5224  2.2484
 1323TIP3    H225461   2.554   2.133   0.333 -0.8444 -1.8951  1.3099
 1324TIP3   OH225462   2.161   1.350   5.492  0.2361  0.1500 -0.3427
 1324TIP3    H125463   2.151   1.419   5.558  0.1431  0.6401 -0.8672
 1324TIP3    H225464   2.167   1.396   5.409 -0.8723 -0.5057 -0.8183
 1325TIP3   OH225465   3.983   0.503   4.781 -0.3105  0.2332  0.2035
 1325TIP3    H125466   3.983   0.508   4.877  0.1882 -2.2217  0.4116
 1325TIP3    H225467   4.076   0.500   4.758 -0.4117 -1.2002 -0.1426
 1326TIP3   OH225468   1.001   2.990   1.318  0.3702 -0.5559 -0.0961
 1326TIP3    H125469   1.034   3.078   1.299  3.1561 -1.3418  0.7126
 1326TIP3    H225470   0.911   2.991   1.285  0.5250  2.3694 -0.6978
 1327TIP3   OH225471   0.588   4.739  13.239 -0.0033 -0.0006  0.5713
 1327TIP3    H125472   0.557   4.760  13.151 -0.6327  0.1828  0.8338
 1327TIP3    H225473   0.602   4.824  13.281  0.8922 -0.0771  0.4517
 1328TIP3   OH225474   5.954   5.895   1.941  0.5487  0.0163 -0.0923
 1328TIP3    H125475   5.978   5.813   1.897 -0.2581 -0.1133 -0.3063
 1328TIP3    H225476   6.012   5.898   2.018 -0.8262 -1.8492  1.1167
 1329TIP3   OH225477   4.192   5.635   3.501  0.2168 -0.1386 -0.3678
 1329TIP3    H125478   4.192   5.697   3.574 -0.0974  0.3185 -0.7485
 1329TIP3    H225479   4.137   5.563   3.531  1.6968 -0.9089  0.6207
 1330TIP3   OH225480   5.077   5.902   0.285 -0.3807  0.2766  0.8620
 1330TIP3    H125481   5.094   5.860   0.370  0.1781  1.7583  1.5054
 1330TIP3    H225482   5.137   5.858   0.224 -0.2792 -0.3057  1.3687
 1331TIP3   OH225483   3.390   2.568  12.242  0.3100 -0.1145 -0.5631
 1331TIP3    H125484   3.350   2.518  12.171 -0.1131 -2.2118  1.0526
 1331TIP3    H225485   3.319   2.623  12.276  0.1686 -0.0809 -0.9083
 1332TIP3   OH225486   6.053   5.724  16.344 -0.0438  0.0853 -0.2754
 1332TIP3    H125487   6.114   5.707  16.416 -0.4097  0.2284  0.0756
 1332TIP3    H225488   6.031   5.638  16.310 -0.7481 -0.0672  0.5337
 1333TIP3   OH225489   5.822   4.198  13.637 -0.2621 -0.7568 -0.0509
 1333TIP3    H125490   5.813   4.191  13.542 -0.5449  0.8191 -0.1616
 1333TIP3    H225491   5.750   4.254  13.665 -0.6150 -1.7740  1.2116
 1334TIP3   OH225492   3.757   5.348   0.355  0.5551  0.2789  0.5184
 1334TIP3    H125493   3.789   5.414   0.416  2.1682 -0.8049  0.9182
 1334TIP3    H225494   3.683   5.307   0.401  0.1502  1.1603  0.6643
 1335TIP3   OH225495   5.688   5.753  14.641  0.3071  0.2171 -0.3397
 1335TIP3    H125496   5.679   5.848  14.643 -0.7958  0.1155  0.3117
 1335TIP3    H225497   5.642   5.726  14.562  0.1563  0.1821 -0.2402
 1336TIP3   OH225498   2.388   6.793   5.819  0.1550 -0.5019  0.0593
 1336TIP3    H125499   2.442   6.779   5.896 -1.1356 -1.8158  0.7593
 1336TIP3    H225500   2.322   6.725   5.822 -1.3714  0.8412 -0.9336
 1337TIP3   OH225501   1.936   2.258  10.912  0.0701 -0.0836  0.5835
 1337TIP3    H125502   1.998   2.318  10.952 -0.4737  1.9642 -1.3856
 1337TIP3    H225503   1.989   2.198  10.860  0.4913  0.8447 -0.0765
 1338TIP3   OH225504   3.284   1.921  13.246  0.6270 -0.0863 -0.2075
 1338TIP3    H125505   3.194   1.926  13.215  0.2089  2.4449  1.1093
 1338TIP3    H225506   3.283   1.854  13.314 -0.5193  0.5113  0.3982
 1339TIP3   OH225507   5.497   4.513  16.931 -0.5351  0.1104  0.4069
 1339TIP3    H125508   5.487   4.418  16.923  1.2334 -0.1680  0.9965
 1339TIP3    H225509   5.417   4.549  16.892 -1.3343 -1.6133  0.3597
 1340TIP3   OH225510   5.310   5.848  13.874  0.0795 -0.6889 -0.4710
 1340TIP3    H125511   5.316   5.774  13.934 -0.3444 -0.3560 -0.0012
 1340TIP3    H225512   5.216   5.870  13.873  0.1194 -0.5189 -1.0478
 1341TIP3   OH225513   4.292   6.596  16.553 -0.6756  0.0649  0.2681
 1341TIP3    H125514   4.307   6.515  16.505 -0.9023  0.5393 -0.6279
 1341TIP3    H225515   4.210   6.630  16.517 -0.9276  0.3533  1.1025
 1342TIP3   OH225516   0.217   1.932   0.716 -0.5250 -0.1006 -0.4389
 1342TIP3    H125517   0.273   1.857   0.699 -1.6895 -0.9674 -0.5579
 1342TIP3    H225518   0.149   1.928   0.649 -1.9567 -0.3246  0.9606
 1343TIP3   OH225519   4.141   4.745   5.193 -0.1874  0.4922  0.0473
 1343TIP3    H125520   4.184   4.811   5.138 -0.0495 -0.6109 -1.2174
 1343TIP3    H225521   4.212   4.687   5.220 -0.1821  1.2517  1.7900
 1344TIP3   OH225522   2.321   1.795  14.166  0.7143 -0.0800 -0.0506
 1344TIP3    H125523   2.253   1.766  14.105  1.0646  0.8306 -0.9072
 1344TIP3    H225524   2.314   1.736  14.240 -1.7667  0.6683  0.4072
 1345TIP3   OH225525   0.997   4.680  14.263  0.7203  0.0171 -0.9697
 1345TIP3    H125526   1.016   4.710  14.352 -0.1852 -1.8370 -0.0806
 1345TIP3    H225527   1.075   4.703  14.213  1.3180  0.9769  0.3293
 1346TIP3   OH225528   0.145   2.603  13.125 -0.4787 -0.5492 -0.3383
 1346TIP3    H125529   0.080   2.592  13.195 -0.3555 -0.7166 -0.2495
 1346TIP3    H225530   0.115   2.680  13.077  0.4136  0.6784  0.9868
 1347TIP3   OH225531   4.216   4.056  12.721  0.2392  0.0531  0.0159
 1347TIP3    H125532   4.293   4.007  12.690  0.2169 -0.0371  0.1035
 1347TIP3    H225533   4.200   4.022  12.809  0.3787  0.3989  0.1784
 1348TIP3   OH225534   6.058   1.085   3.906 -0.0677  0.3832 -0.4188
 1348TIP3    H125535   6.037   1.000   3.868  1.8883 -0.0916 -0.5515
 1348TIP3    H225536   5.976   1.135   3.901 -1.8945 -2.1705  1.6232
 1349TIP3   OH225537   0.262   1.523   4.757 -0.7052  0.3422  0.3179
 1349TIP3    H125538   0.282   1.512   4.664  0.2506 -0.8352  0.6328
 1349TIP3    H225539   0.257   1.618   4.769 -0.9374  0.5115 -0.9452
 1350TIP3   OH225540   0.675   4.267  16.816  0.1809  0.3828  0.1173
 1350TIP3    H125541   0.603   4.214  16.782  0.9758 -1.9965  1.8661
 1350TIP3    H225542   0.725   4.292  16.739 -1.5336  0.6251 -0.9676
 1351TIP3   OH225543   4.314   6.032  15.169 -0.8581  0.4723 -0.3182
 1351TIP3    H125544   4.328   5.979  15.091  0.2815 -1.0549  0.8523
 1351TIP3    H225545   4.326   6.123  15.139 -0.1435 -0.0935 -1.8445
 1352TIP3   OH225546   6.412   5.486   5.781  0.5187 -0.3811 -0.5842
 1352TIP3    H125547   6.454   5.571   5.765  1.2892  0.5027  4.3227
 1352TIP3    H225548   6.481   5.422   5.768  2.2422  0.6050  2.4877
 1353TIP3   OH225549   2.583   5.220  13.300  0.4820  0.0494  0.5857
 1353TIP3    H125550   2.659   5.226  13.358  0.2440 -0.4458  0.9632
 1353TIP3    H225551   2.588   5.131  13.265 -0.3691 -0.2697  1.2480
 1354TIP3   OH225552   4.856   4.235  15.885 -0.1040 -0.9707  0.0025
 1354TIP3    H125553   4.848   4.271  15.796 -1.0812 -2.4377 -0.5275
 1354TIP3    H225554   4.766   4.220  15.913  0.0700  1.0704  1.9733
 1355TIP3   OH225555   6.421   3.519   4.736  0.5844 -0.1719 -0.3055
 1355TIP3    H125556   6.381   3.541   4.652 -2.2483 -0.6594  0.7892
 1355TIP3    H225557   6.403   3.594   4.792  1.4289 -0.3180  0.1729
 1356TIP3   OH225558   3.041   2.331  10.659  0.0215  0.1084  0.0268
 1356TIP3    H125559   3.005   2.243  10.644  0.4983 -0.1408  0.3217
 1356TIP3    H225560   2.972   2.390  10.629  0.0079 -0.3659 -0.9063
 1357TIP3   OH225561   4.246   3.629  15.527  0.4638 -0.3903  0.5766
 1357TIP3    H125562   4.193   3.564  15.482  0.8759 -1.3325  1.4170
 1357TIP3    H225563   4.294   3.579  15.594  0.7789  0.7767  1.2477
 1358TIP3   OH225564   5.486   0.891  12.435 -0.6083  0.0262 -0.0359
 1358TIP3    H125565   5.519   0.960  12.379  0.2095 -0.8175 -0.6360
 1358TIP3    H225566   5.564   0.842  12.461 -1.3571 -2.4353 -2.0063
 1359TIP3   OH225567   6.648   4.560   1.952 -0.2547  0.0457  0.7010
 1359TIP3    H125568   6.654   4.486   1.891  1.4950  1.2371 -0.6793
 1359TIP3    H225569   6.554   4.578   1.958 -0.5578 -0.8677 -0.6976
 1360TIP3   OH225570   1.948   1.974   1.995  0.0562 -0.1341  0.1303
 1360TIP3    H125571   1.856   1.948   1.999  0.6695 -3.5293 -2.6926
 1360TIP3    H225572   1.980   1.967   2.085 -2.4269  1.5079  1.2361
 1361TIP3   OH225573   4.958   4.192   6.171 -0.0176  0.1898 -0.3942
 1361TIP3    H125574   5.026   4.143   6.217  0.0012 -0.4701 -1.1085
 1361TIP3    H225575   4.883   4.191   6.231 -0.0720 -0.8574 -0.4672
 1362TIP3   OH225576   2.502   2.900  14.904  0.3171  0.2240 -0.0418
 1362TIP3    H125577   2.563   2.952  14.955  0.0716  2.4802 -1.8932
 1362TIP3    H225578   2.556   2.832  14.863  0.8143 -0.4227  1.6348
 1363TIP3   OH225579   0.263   5.699   5.586  0.0915  0.2679 -0.3416
 1363TIP3    H125580   0.221   5.728   5.668  0.0497  3.8338 -1.4498
 1363TIP3    H225581   0.339   5.756   5.577  0.7410 -0.8291 -2.2344
 1364TIP3   OH225582   1.566   3.570  14.853 -0.1660  0.7290  0.2496
 1364TIP3    H125583   1.642   3.551  14.908  1.0493  0.3359 -1.4877
 1364TIP3    H225584   1.506   3.498  14.869 -0.0242  0.8413  1.3547
 1365TIP3   OH225585   2.842   1.863  15.909  0.0792 -0.5929  0.2095
 1365TIP3    H125586   2.931   1.895  15.924 -0.2036  0.2622  0.0865
 1365TIP3    H225587   2.850   1.767  15.916  1.0225 -0.5342  0.1065
 1366TIP3   OH225588   2.241   4.074  13.998 -0.1048  0.1160 -1.1715
 1366TIP3    H125589   2.304   4.041  14.062 -0.9001  1.1839  0.2349
 1366TIP3    H225590   2.287   4.071  13.914  1.3105 -0.4400 -0.4014
 1367TIP3   OH225591   4.500   4.966  13.061 -0.5795  0.5773 -0.7376
 1367TIP3    H125592   4.595   4.964  13.045 -0.5408 -1.4801 -0.5298
 1367TIP3    H225593   4.492   4.956  13.156 -0.9829 -2.1221 -0.9766
 1368TIP3   OH225594   3.141   2.514   4.184  0.2383  0.4167 -0.2599
 1368TIP3    H125595   3.051   2.500   4.155  0.2261 -0.9262  0.3488
 1368TIP3    H225596   3.140   2.495   4.277  1.5046 -1.6451 -0.5880
 1369TIP3   OH225597   1.679   5.044  12.085  0.4519  0.2857  0.4458
 1369TIP3    H125598   1.691   5.121  12.028 -0.5679 -0.3901 -0.7462
 1369TIP3    H225599   1.585   5.041  12.100  0.2334 -1.6459 -0.9299
 1370TIP3   OH225600   1.708   1.431   4.762  0.6080 -0.2714 -0.1956
 1370TIP3    H125601   1.673   1.515   4.793  0.3927 -0.4698  0.1007
 1370TIP3    H225602   1.797   1.453   4.733  0.9295 -0.1232  0.8408
 1371TIP3   OH225603   5.898   3.821  13.573  0.1328  0.2446 -0.1550
 1371TIP3    H125604   5.949   3.805  13.493  0.6732 -0.6886  0.3472
 1371TIP3    H225605   5.963   3.853  13.636  0.1980 -1.2114  0.5739
 1372TIP3   OH225606   5.788   2.599  14.374  0.7146  0.0047 -0.2701
 1372TIP3    H125607   5.710   2.585  14.427  0.3262  1.2495 -0.4813
 1372TIP3    H225608   5.805   2.515  14.332 -0.6074 -0.2376 -0.3420
 1373TIP3   OH225609   3.066   3.557  16.946  0.5937  0.0495  0.4233
 1373TIP3    H125610   3.141   3.559  17.006  1.2000 -0.6212 -0.2809
 1373TIP3    H225611   3.085   3.484  16.887 -0.5338 -0.0107  0.1128
 1374TIP3   OH225612   0.578   6.480  13.932 -0.2277  0.2509 -0.1865
 1374TIP3    H125613   0.621   6.534  13.865 -1.0271  0.4781 -0.5236
 1374TIP3    H225614   0.571   6.538  14.008  1.1268 -0.1604  0.2788
 1375TIP3   OH225615   2.609   1.445   6.373  0.1059 -0.4084 -0.6379
 1375TIP3    H125616   2.555   1.418   6.447  1.0041 -1.9891 -0.5163
 1375TIP3    H225617   2.547   1.462   6.302 -0.6219 -1.0804 -0.1720
 1376TIP3   OH225618   2.154   0.231   3.622  0.2284  0.1717 -0.3924
 1376TIP3    H125619   2.091   0.159   3.629  0.4595  0.0843  1.1639
 1376TIP3    H225620   2.104   0.302   3.579 -0.5271 -0.3309 -0.3691
 1377TIP3   OH225621   5.798   4.427  10.765 -0.2154 -0.0461  0.1324
 1377TIP3    H125622   5.762   4.411  10.677 -0.1242  0.4898 -0.0050
 1377TIP3    H225623   5.740   4.493  10.803  1.2635  1.7273 -0.5290
 1378TIP3   OH225624   2.109   0.140   6.197 -0.2606  0.0120 -0.1435
 1378TIP3    H125625   2.161   0.221   6.202 -0.2967 -0.0405  1.9421
 1378TIP3    H225626   2.174   0.071   6.187 -0.2493  0.2497 -2.4898
 1379TIP3   OH225627   1.138   5.818   1.150  0.2933  0.1901 -0.1640
 1379TIP3    H125628   1.056   5.858   1.181 -1.0965 -0.4362 -2.7872
 1379TIP3    H225629   1.126   5.724   1.165  0.7824  0.1379 -0.0807
 1380TIP3   OH225630   3.225   0.483   5.945  0.3711  0.0660  0.1488
 1380TIP3    H125631   3.137   0.448   5.963  1.3288 -1.8159  1.4899
 1380TIP3    H225632   3.230   0.562   5.999  0.1151 -0.8168  1.5377
 1381TIP3   OH225633   2.718   0.077  12.799  0.2379 -0.1348  0.3521
 1381TIP3    H125634   2.808   0.077  12.767  0.4079  0.7650  0.7856
 1381TIP3    H225635   2.723   0.035  12.885  0.2627 -0.0058  0.4140
 1382TIP3   OH225636   0.214   0.062   0.955  0.4333 -0.3531  0.2439
 1382TIP3    H125637   0.133   0.024   0.921  0.9043 -0.8399 -0.3643
 1382TIP3    H225638   0.284   0.015   0.909  1.0642  0.0316  0.7852
 1383TIP3   OH225639   1.956   4.147  14.109 -0.1199 -0.2680  0.1296
 1383TIP3    H125640   1.861   4.153  14.117 -0.0622  0.6459  0.2800
 1383TIP3    H225641   1.971   4.105  14.024 -0.6487  0.0354 -0.1165
 1384TIP3   OH225642   4.286   4.215   1.210  0.1904  0.1965  0.0736
 1384TIP3    H125643   4.327   4.302   1.216 -0.2218  0.4746 -0.9255
 1384TIP3    H225644   4.359   4.156   1.192  0.3081  0.5343 -0.5971
 1385TIP3   OH225645   2.927   0.951   3.606  0.0399  0.3027 -0.4258
 1385TIP3    H125646   3.018   0.944   3.578  0.3410  0.6850  0.4084
 1385TIP3    H225647   2.919   1.041   3.639 -0.7195  0.3636 -0.7654
 1386TIP3   OH225648   2.524   6.014  17.143 -0.9788  0.5302 -0.2506
 1386TIP3    H125649   2.495   5.979  17.059 -0.5434 -0.3839 -0.0426
 1386TIP3    H225650   2.456   5.987  17.205  0.9952 -3.3114  0.6061
 1387TIP3   OH225651   4.150   3.679  15.833  0.9632 -0.2694  0.1705
 1387TIP3    H125652   4.151   3.760  15.782  0.4669 -1.0129 -1.0905
 1387TIP3    H225653   4.072   3.633  15.802  0.4839 -0.6270  1.8468
 1388TIP3   OH225654   4.884   1.868  16.046 -0.3251 -0.1490 -0.4332
 1388TIP3    H125655   4.943   1.928  16.090 -0.4934  0.5964 -1.1825
 1388TIP3    H225656   4.930   1.842  15.966 -1.0800  0.6198 -1.1379
 1389TIP3   OH225657   0.507   2.248   6.166  0.0719 -0.1085 -0.0635
 1389TIP3    H125658   0.506   2.248   6.071  0.0261  2.3569 -0.1177
 1389TIP3    H225659   0.447   2.319   6.191 -0.7682 -1.4005  1.8339
 1390TIP3   OH225660   2.988   2.203  12.169  0.1470 -0.2501 -0.5651
 1390TIP3    H125661   2.976   2.210  12.074 -0.7209 -0.7526 -0.5022
 1390TIP3    H225662   2.903   2.174  12.202  0.6440 -0.7888  0.2840
 1391TIP3   OH225663   5.818   6.310   0.465  0.2762  0.9462  0.9674
 1391TIP3    H125664   5.862   6.385   0.425 -0.5324  1.1531  0.4408
 1391TIP3    H225665   5.821   6.242   0.398  4.1553 -0.8015  2.6371
 1392TIP3   OH225666   1.581   4.438  11.607 -0.2408  0.1171 -0.4991
 1392TIP3    H125667   1.575   4.508  11.671  0.7278 -1.4937  1.4549
 1392TIP3    H225668   1.557   4.480  11.524  0.8595  2.8833  0.4549
 1393TIP3   OH225669   2.854   0.329   2.346  0.7575 -0.0664  0.2113
 1393TIP3    H125670   2.885   0.401   2.401  2.0467 -0.4997  0.0859
 1393TIP3    H225671   2.861   0.251   2.402 -4.7550  0.2733  1.9652
 1394TIP3   OH225672   3.100   4.456  13.515 -0.2551 -0.4257 -0.2089
 1394TIP3    H125673   3.043   4.524  13.481  0.0301  0.6432  1.3320
 1394TIP3    H225674   3.189   4.489  13.500 -0.1190 -0.1133  1.1119
 1395TIP3   OH225675   6.555   0.717  14.418 -0.2663 -0.3827 -0.4576
 1395TIP3    H125676   6.617   0.788  14.409  1.1170 -0.9356  3.0446
 1395TIP3    H225677   6.492   0.748  14.484 -0.7833 -1.6508 -0.3186
 1396TIP3   OH225678   0.065   2.042   5.305 -0.2731  0.2013 -0.7198
 1396TIP3    H125679   0.043   2.125   5.347 -0.2716 -0.7468  1.2336
 1396TIP3    H225680   0.157   2.052   5.280 -0.3251  0.8460 -0.6653
 1397TIP3   OH225681   4.829   0.514  11.050 -0.4169 -0.1526 -0.0679
 1397TIP3    H125682   4.796   0.603  11.040  0.9525  0.4689  0.6716
 1397TIP3    H225683   4.825   0.477  10.961  0.9096  1.3615 -0.8067
 1398TIP3   OH225684   2.423   6.281  17.042  0.3673  0.7773  0.5291
 1398TIP3    H125685   2.421   6.267  16.947 -0.8260  0.0947  0.6439
 1398TIP3    H225686   2.363   6.216  17.077  0.6914  1.1248  1.7529
 1399TIP3   OH225687   6.455   6.172   0.260 -0.3361 -0.0584 -0.3700
 1399TIP3    H125688   6.389   6.238   0.239  0.7971  1.9009  1.6683
 1399TIP3    H225689   6.408   6.105   0.309 -0.8342  1.5996  1.5948
 1400TIP3   OH225690   0.521   0.843   4.115 -0.5238 -0.0165 -0.4560
 1400TIP3    H125691   0.577   0.768   4.133 -0.4977  0.0025 -0.4579
 1400TIP3    H225692   0.444   0.806   4.072 -1.2337 -0.2412  0.9707
 1401TIP3   OH225693   2.548   5.989   3.038  0.2917  0.2019  0.6484
 1401TIP3    H125694   2.558   5.928   2.964  0.0360 -0.1725  0.9164
 1401TIP3    H225695   2.491   5.942   3.099  2.4873 -0.5296  2.2336
 1402TIP3   OH225696   1.340   0.894   4.644  0.2182  0.0098  0.3591
 1402TIP3    H125697   1.337   0.835   4.569 -0.6807  2.0054 -1.2711
 1402TIP3    H225698   1.251   0.892   4.680  0.0749  0.6530  0.0511
 1403TIP3   OH225699   4.214   6.646  15.275 -0.4656 -0.2547 -0.6137
 1403TIP3    H125700   4.186   6.738  15.275 -0.7812 -0.3497 -0.5500
 1403TIP3    H225701   4.299   6.647  15.231  0.7246  0.4275  1.5618
 1404TIP3   OH225702   0.952   4.518   3.967 -0.4346  0.5677 -0.2522
 1404TIP3    H125703   1.045   4.514   3.989 -0.5102  2.8097  0.7225
 1404TIP3    H225704   0.949   4.497   3.874  1.0457  0.3374 -0.2696
 1405TIP3   OH225705   3.303   2.916   6.277 -0.7536 -0.2780 -0.7933
 1405TIP3    H125706   3.244   2.952   6.343  1.2646  0.1969  0.8702
 1405TIP3    H225707   3.340   2.993   6.234  1.2916 -0.3487  0.6835
 1406TIP3   OH225708   0.069   0.262  14.878 -0.1852  0.2932  0.2607
 1406TIP3    H125709   0.153   0.280  14.836 -0.7036  2.1900 -0.0353
 1406TIP3    H225710   0.017   0.341  14.866 -1.5469 -0.3114  1.6339
 1407TIP3   OH225711   1.582   3.940  15.419 -0.5507  0.6110 -0.2820
 1407TIP3    H125712   1.570   4.034  15.407  0.1527  0.9107  1.2018
 1407TIP3    H225713   1.626   3.911  15.339 -1.3707  1.4023 -1.0437
 1408TIP3   OH225714   5.997   5.433  13.440  0.3482 -0.2020  0.1273
 1408TIP3    H125715   5.956   5.462  13.521  1.1825 -1.7599  1.1586
 1408TIP3    H225716   6.013   5.513  13.391 -0.3494  0.7572  1.4124
 1409TIP3   OH225717   5.003   1.222  15.847  0.5306 -0.4954  0.2809
 1409TIP3    H125718   5.032   1.245  15.759  0.0300  2.1952  0.7227
 1409TIP3    H225719   4.907   1.227  15.843  0.4549 -1.5176  0.6958
 1410TIP3   OH225720   4.850   4.746  10.730 -0.4594 -0.4711 -0.1752
 1410TIP3    H125721   4.860   4.746  10.634  0.2325  2.0144 -0.1631
 1410TIP3    H225722   4.925   4.696  10.762  0.5477  0.5280 -0.8908
 1411TIP3   OH225723   6.660   5.388   3.695 -0.3927  0.2666 -0.1303
 1411TIP3    H125724   6.632   5.316   3.639  2.0223 -1.9715  1.3465
 1411TIP3    H225725   6.749   5.408   3.669  0.1911  0.3410  1.7331
 1412TIP3   OH225726   0.168   0.725  15.945  0.1135  0.1301 -0.1175
 1412TIP3    H125727   0.116   0.730  16.025  0.5548 -1.0223  0.2659
 1412TIP3    H225728   0.107   0.693  15.878 -0.1393  0.6503 -0.1406
 1413TIP3   OH225729   4.968   0.563  16.547  0.1567 -0.5556  0.4620
 1413TIP3    H125730   5.025   0.558  16.471 -1.3664  0.0252 -0.7657
 1413TIP3    H225731   4.884   0.529  16.516 -0.4775 -0.3991  1.9253
 1414TIP3   OH225732   1.317   0.941   5.696 -0.2163 -0.7764  0.0323
 1414TIP3    H125733   1.235   0.904   5.727 -0.1569  0.4268  1.8082
 1414TIP3    H225734   1.292   1.000   5.625 -1.1815  0.8848  1.6457
 1415TIP3   OH225735   2.965   3.367  14.874  0.1003  0.4990 -0.5720
 1415TIP3    H125736   3.015   3.353  14.793  0.6528  0.4691 -0.2263
 1415TIP3    H225737   3.025   3.340  14.944 -0.5456  0.0634 -0.1778
 1416TIP3   OH225738   4.870   3.358   3.308  0.7245  0.4959  0.0749
 1416TIP3    H125739   4.938   3.318   3.254  1.0610  1.9559 -0.6539
 1416TIP3    H225740   4.792   3.356   3.254  1.3410  3.0507 -1.0641
 1417TIP3   OH225741   1.181   5.047   3.919 -0.0382  0.3427  0.1047
 1417TIP3    H125742   1.267   5.033   3.879 -0.1088 -1.4001  0.4846
 1417TIP3    H225743   1.119   5.018   3.852 -0.3491  1.5449 -0.1483
 1418TIP3   OH225744   1.398   3.545   4.671 -0.3118 -1.0044 -0.1294
 1418TIP3    H125745   1.335   3.569   4.603  0.5368 -1.1082 -0.9765
 1418TIP3    H225746   1.385   3.610   4.740 -1.9901 -1.5771  0.1481
 1419TIP3   OH225747   6.100   2.567   4.988  0.5913 -0.0230  0.0753
 1419TIP3    H125748   6.093   2.531   4.900  0.4983  2.0074 -0.7972
 1419TIP3    H225749   6.133   2.495   5.041  2.1233 -0.8655 -1.9088
 1420TIP3   OH225750   0.800   6.004   5.159 -0.3456 -0.0105 -0.3773
 1420TIP3    H125751   0.808   5.952   5.080 -0.6327 -0.3207 -0.2044
 1420TIP3    H225752   0.891   6.021   5.186 -0.2206  1.0435 -1.3757
 1421TIP3   OH225753   2.690   5.236  12.072 -0.6139  0.5106 -0.0730
 1421TIP3    H125754   2.656   5.323  12.093 -1.3450  0.2670 -0.2361
 1421TIP3    H225755   2.770   5.253  12.023  1.1580  1.1249  2.7925
 1422TIP3   OH225756   0.058   2.920   1.911 -0.4195  0.2277  0.3235
 1422TIP3    H125757  -0.002   2.994   1.920  1.1072  1.4804  0.6483
 1422TIP3    H225758   0.056   2.877   1.997 -1.0075  0.1002  0.2544
 1423TIP3   OH225759   4.362   5.125   6.623 -0.5985 -0.0808  0.1356
 1423TIP3    H125760   4.360   5.196   6.559 -0.3666  0.0929  0.3212
 1423TIP3    H225761   4.272   5.092   6.626 -0.3324 -1.0830 -1.4019
 1424TIP3   OH225762   1.851   5.637   5.227 -0.0866  0.0797 -0.6730
 1424TIP3    H125763   1.888   5.679   5.150  0.4686  1.0391  0.0895
 1424TIP3    H225764   1.825   5.550   5.197 -1.2414  0.9433 -2.2777
 1425TIP3   OH225765   3.103   2.211  13.443 -0.2896 -0.6035 -0.3488
 1425TIP3    H125766   3.058   2.149  13.500 -2.2050  1.1334  0.1623
 1425TIP3    H225767   3.034   2.244  13.385  1.5139 -2.1802 -3.7137
 1426TIP3   OH225768   1.864   0.377   2.467  0.2923 -0.4854 -0.3161
 1426TIP3    H125769   1.840   0.391   2.376 -0.0099 -1.5940 -0.4159
 1426TIP3    H225770   1.844   0.285   2.484 -0.5482 -0.0693  1.1452
 1427TIP3   OH225771   6.138   0.992   4.230 -0.6001 -0.5652 -0.1707
 1427TIP3    H125772   6.083   0.948   4.164  1.5244 -0.9289 -1.8157
 1427TIP3    H225773   6.167   1.072   4.187 -2.4432  1.3244  1.9078
 1428TIP3   OH225774   0.053   6.083  16.862 -0.2326 -0.0658 -0.4306
 1428TIP3    H125775   0.095   6.037  16.789  3.0892 -0.6188  1.6163
 1428TIP3    H225776   0.047   6.174  16.833  0.8645 -0.2958 -1.4992
 1429TIP3   OH225777   1.494   1.283  17.158  0.1804  0.1708  0.0495
 1429TIP3    H125778   1.432   1.219  17.125  0.9484  0.4624 -2.1407
 1429TIP3    H225779   1.533   1.321  17.079  1.2532  1.8397  1.3130
 1430TIP3   OH225780   4.449   0.717   1.179 -0.4491  0.2966  0.4995
 1430TIP3    H125781   4.432   0.752   1.092 -0.1188 -0.7880 -0.0174
 1430TIP3    H225782   4.466   0.794   1.233 -0.8105  0.9903 -0.3582
 1431TIP3   OH225783   2.298   2.091  13.269 -0.2379 -0.3799 -0.2518
 1431TIP3    H125784   2.348   2.157  13.220 -1.7605  0.9704 -0.0878
 1431TIP3    H225785   2.352   2.071  13.345 -0.9762  3.0851  1.4068
 1432TIP3   OH225786   6.571   1.561  12.225  0.4372 -0.5666 -0.5397
 1432TIP3    H125787   6.532   1.478  12.195  1.6705 -1.4526  0.2079
 1432TIP3    H225788   6.560   1.620  12.151 -3.6747 -0.2256  0.1151
 1433TIP3   OH225789   1.743   4.279   6.463  0.1595 -0.6167 -0.0112
 1433TIP3    H125790   1.655   4.266   6.429 -0.1417  0.4589  0.3389
 1433TIP3    H225791   1.753   4.374   6.471  0.6889 -0.7776  1.6668
 1434TIP3   OH225792   0.636   2.355   2.438 -0.1808 -0.2031  0.2504
 1434TIP3    H125793   0.708   2.387   2.383 -0.7746 -0.5106 -0.7267
 1434TIP3    H225794   0.645   2.260   2.437  0.4867 -0.1728  1.6471
 1435TIP3   OH225795   6.505   4.993   2.911 -0.1953  0.1098  0.0720
 1435TIP3    H125796   6.512   5.045   2.831 -0.6088  0.2816  0.1441
 1435TIP3    H225797   6.582   5.017   2.962  0.2578 -0.2628 -0.4249
 1436TIP3   OH225798   4.540   0.805  15.372 -0.0024 -0.0660 -0.4769
 1436TIP3    H125799   4.563   0.750  15.446 -0.5720 -1.5637 -1.3818
 1436TIP3    H225800   4.625   0.829  15.334  0.3442  1.4536  1.1192
 1437TIP3   OH225801   4.793   2.937  11.312  0.6312  0.1161  0.4757
 1437TIP3    H125802   4.792   3.029  11.286 -0.0816 -0.0615 -0.1651
 1437TIP3    H225803   4.836   2.891  11.240  1.9249  0.0532  1.2474
 1438TIP3   OH225804   6.373   0.800   4.311  0.4220  0.6835 -0.0880
 1438TIP3    H125805   6.319   0.779   4.234  0.5023 -3.5811  0.7786
 1438TIP3    H225806   6.316   0.854   4.366 -1.3217  0.0121 -1.1543
 1439TIP3   OH225807   1.175   6.522  11.138  0.2028  0.4197  0.3667
 1439TIP3    H125808   1.097   6.562  11.100  1.0223  2.0097  0.2364
 1439TIP3    H225809   1.208   6.464  11.070 -0.5635  0.1415  0.2209
 1440TIP3   OH225810   3.105   3.390   4.762 -0.1344 -0.0805  0.7035
 1440TIP3    H125811   3.160   3.458   4.723  2.4315 -3.0975 -1.4184
 1440TIP3    H225812   3.103   3.411   4.855  1.2155  2.4148  0.2540
 1441TIP3   OH225813   0.729   3.647   2.484  0.4400 -0.2906 -0.1353
 1441TIP3    H125814   0.781   3.643   2.403  1.2148 -0.4169  0.3633
 1441TIP3    H225815   0.638   3.648   2.453  0.7382  1.3606 -1.0636
 1442TIP3   OH225816   5.031   0.815   0.320  0.1392 -0.2063 -0.2836
 1442TIP3    H125817   5.062   0.905   0.316  2.6696 -0.9617  0.6203
 1442TIP3    H225818   5.004   0.803   0.411  3.4330 -1.3472  0.6839
 1443TIP3   OH225819   0.605   2.369   0.763  0.4739  0.4212  0.3134
 1443TIP3    H125820   0.599   2.461   0.737 -0.5529  0.6761  1.3731
 1443TIP3    H225821   0.608   2.370   0.858 -0.8983 -0.6843  0.4068
 1444TIP3   OH225822   1.153   4.243  15.545 -0.0294 -0.0622 -0.5178
 1444TIP3    H125823   1.076   4.216  15.594 -0.5739  1.7922 -0.2752
 1444TIP3    H225824   1.139   4.336  15.527  1.5161 -0.0021 -1.6678
 1445TIP3   OH225825   4.743   2.019  12.995 -0.1977  0.2374 -0.3559
 1445TIP3    H125826   4.807   1.964  13.039 -1.1807 -0.0368  0.7888
 1445TIP3    H225827   4.794   2.070  12.932  0.8186 -1.4842 -0.9846
 1446TIP3   OH225828   0.257   4.430   2.799  0.0369  0.2453  0.2928
 1446TIP3    H125829   0.219   4.448   2.713 -0.3878  0.6443  0.5562
 1446TIP3    H225830   0.288   4.339   2.793 -1.2781 -0.2183  0.1707
 1447TIP3   OH225831   3.132   3.238   5.054 -0.0771 -0.2943  0.0603
 1447TIP3    H125832   3.146   3.165   5.115  0.6893  1.4501  2.0817
 1447TIP3    H225833   3.219   3.274   5.040 -0.5608  0.8043 -0.1622
 1448TIP3   OH225834   0.153   2.758   0.752 -0.1856  0.0046 -0.3735
 1448TIP3    H125835   0.200   2.840   0.735  1.3713 -0.4884  1.2958
 1448TIP3    H225836   0.218   2.700   0.791 -2.1305 -0.7751  1.9221
 1449TIP3   OH225837   6.303   1.522  15.220 -0.1050 -0.6101  0.1954
 1449TIP3    H125838   6.381   1.470  15.201 -1.5794 -1.9102 -3.1088
 1449TIP3    H225839   6.325   1.610  15.191  0.7030 -0.5539  0.9554
 1450TIP3   OH225840   3.284   1.951   6.683  0.2370  0.5211 -0.3860
 1450TIP3    H125841   3.249   1.943   6.594 -1.1361 -0.8268  0.2184
 1450TIP3    H225842   3.234   1.887   6.733  1.7149  0.5286  1.1516
 1451TIP3   OH225843   0.670   4.353  14.289  0.3434  0.7373 -0.3950
 1451TIP3    H125844   0.697   4.285  14.351  1.6633  2.7193  1.2961
 1451TIP3    H225845   0.607   4.308  14.231  0.6492 -1.7274  1.0366
 1452TIP3   OH225846   0.263   2.634   0.492 -0.0878 -0.2076 -0.4778
 1452TIP3    H125847   0.352   2.659   0.469 -0.4406  0.3074 -1.3405
 1452TIP3    H225848   0.221   2.716   0.518 -0.1644 -0.5304  0.4386
 1453TIP3   OH225849   0.498   0.086   1.439  0.1605 -0.0554  0.1017
 1453TIP3    H125850   0.473   0.077   1.347 -2.4952  2.2871  0.4421
 1453TIP3    H225851   0.574   0.145   1.437  0.0392  0.0886 -0.5621
 1454TIP3   OH225852   3.813   2.251  11.270 -0.2913 -0.2238  0.4898
 1454TIP3    H125853   3.798   2.338  11.233 -0.0197  0.2304  1.4287
 1454TIP3    H225854   3.908   2.244  11.277 -0.2757 -0.8967 -0.2711
 1455TIP3   OH225855   2.319   0.585  16.706  0.2210  0.2247  0.1899
 1455TIP3    H125856   2.242   0.541  16.672  0.4629 -0.4926  0.5534
 1455TIP3    H225857   2.322   0.561  16.798  0.6230  0.6203  0.2834
 1456TIP3   OH225858   3.390   2.466   2.910  0.4162  0.2313  0.4732
 1456TIP3    H125859   3.433   2.439   2.991 -0.3779 -0.0726  0.7985
 1456TIP3    H225860   3.313   2.410   2.903  0.4812  0.2436 -0.5041
 1457TIP3   OH225861   0.694   3.428   4.673  0.2389 -0.1225  0.1832
 1457TIP3    H125862   0.650   3.511   4.653  1.5121  1.1243  2.1170
 1457TIP3    H225863   0.783   3.454   4.698  0.7127 -2.0952  0.6972
 1458TIP3   OH225864   2.046   6.114   5.337  0.1205 -0.4442 -0.4223
 1458TIP3    H125865   2.048   6.199   5.293  0.4592 -0.6979 -0.8955
 1458TIP3    H225866   2.111   6.121   5.406  0.1177 -0.3052 -0.4339
 1459TIP3   OH225867   5.767   5.149  13.385 -1.0274 -0.0957 -0.3607
 1459TIP3    H125868   5.829   5.135  13.456  1.2819 -3.7970 -2.7309
 1459TIP3    H225869   5.689   5.100  13.411  0.0160 -1.9335 -0.4977
 1460TIP3   OH225870   1.181   2.457   6.654 -0.2010 -0.5463 -0.6908
 1460TIP3    H125871   1.214   2.483   6.740 -1.6347  0.5377 -0.4149
 1460TIP3    H225872   1.252   2.475   6.594  0.2317  0.3102  0.0542
 1461TIP3   OH225873   6.528   5.430   6.128 -0.1506 -0.1361 -0.1464
 1461TIP3    H125874   6.606   5.409   6.179 -1.8274 -0.0699  2.6648
 1461TIP3    H225875   6.498   5.346   6.093  0.4198 -0.3549 -0.1184
 1462TIP3   OH225876   1.707   0.888  14.914  0.1206 -0.1413 -0.5958
 1462TIP3    H125877   1.650   0.813  14.899  1.9431 -1.5748 -0.6925
 1462TIP3    H225878   1.743   0.874  15.002  0.4982  0.6239 -0.6170
 1463TIP3   OH225879   6.049   1.817   5.108 -0.4943  0.3917 -0.3722
 1463TIP3    H125880   6.007   1.823   5.022  0.3639  1.1092 -0.7420
 1463TIP3    H225881   5.988   1.862   5.168  0.2901  2.5449 -1.1131
 1464TIP3   OH225882   0.204   1.236   3.304 -0.5671  0.4370  0.0179
 1464TIP3    H125883   0.251   1.162   3.266 -2.6174 -0.6198 -0.5832
 1464TIP3    H225884   0.203   1.302   3.234 -2.1197 -0.5212 -0.9138
 1465TIP3   OH225885   2.261   1.728  17.182  0.5646  0.0022 -0.3319
 1465TIP3    H125886   2.289   1.791  17.116 -0.3279  0.8498  0.0749
 1465TIP3    H225887   2.328   1.659  17.179  1.1624  0.5933 -1.2944
 1466TIP3   OH225888   5.736   6.337  15.345 -0.4272  0.2676 -0.3164
 1466TIP3    H125889   5.686   6.283  15.406 -1.6601 -0.5940 -1.9899
 1466TIP3    H225890   5.815   6.360  15.393 -0.9413 -1.0639  1.2976
 1467TIP3   OH225891   1.665   2.619  15.490  0.6211  0.3604 -0.0252
 1467TIP3    H125892   1.753   2.613  15.526  0.4649  0.7383  0.4274
 1467TIP3    H225893   1.608   2.587  15.560  0.3671  0.4796 -0.1752
 1468TIP3   OH225894   4.073   5.785  12.994  0.1625  0.1209 -0.7422
 1468TIP3    H125895   4.103   5.866  13.034 -0.1921  0.6353 -1.4937
 1468TIP3    H225896   4.022   5.741  13.062  0.5415  0.4181 -0.2609
 1469TIP3   OH225897   5.659   2.028   5.731 -0.3802 -0.2736 -0.3945
 1469TIP3    H125898   5.612   2.039   5.649 -0.5786 -1.2294 -0.4258
 1469TIP3    H225899   5.616   2.087   5.792 -1.0886 -0.5260 -0.6431
 1470TIP3   OH225900   0.439   4.658   4.172 -0.3365 -0.2213  0.0257
 1470TIP3    H125901   0.378   4.675   4.101 -0.8060  0.6787  0.6231
 1470TIP3    H225902   0.464   4.567   4.161 -1.2492 -0.4059 -0.6420
 1471TIP3   OH225903   2.484   3.791   2.961  0.4500  0.7806 -0.3816
 1471TIP3    H125904   2.531   3.710   2.941  0.9651  1.2443 -1.1303
 1471TIP3    H225905   2.502   3.808   3.053  0.0896 -0.1056 -0.1382
 1472TIP3   OH225906   2.890   4.182   4.733 -0.1796  0.6112  0.0159
 1472TIP3    H125907   2.800   4.213   4.747 -0.7862 -0.1072 -1.9676
 1472TIP3    H225908   2.919   4.228   4.655  0.8105  0.0681  0.0528
 1473TIP3   OH225909   6.452   1.685  12.003 -1.1630 -0.4821  0.3692
 1473TIP3    H125910   6.397   1.763  12.007  1.2629  1.3694 -0.0055
 1473TIP3    H225911   6.435   1.648  11.916  0.1169  1.6677 -0.8972
 1474TIP3   OH225912   6.167   2.387  12.152  0.2944 -0.1494  0.7909
 1474TIP3    H125913   6.237   2.444  12.119  1.1786 -0.8895  1.3276
 1474TIP3    H225914   6.097   2.396  12.088  2.0841 -1.8339 -1.5867
 1475TIP3   OH225915   0.749   5.040  13.025 -0.0298  0.0623 -0.6867
 1475TIP3    H125916   0.821   5.101  13.008 -0.1586 -0.0406 -1.6783
 1475TIP3    H225917   0.773   4.961  12.978 -0.9288  0.1379 -1.3028
 1476TIP3   OH225918   6.188   1.947  10.970  0.1399  0.2730 -0.4318
 1476TIP3    H125919   6.161   1.969  11.059  2.3779 -1.2673  0.7352
 1476TIP3    H225920   6.174   2.028  10.920 -2.3688  0.8061  0.9491
 1477TIP3   OH225921   0.687   5.454  16.703  0.4235 -0.1051 -0.2814
 1477TIP3    H125922   0.637   5.386  16.657 -0.1365 -0.0166  0.1754
 1477TIP3    H225923   0.629   5.531  16.701  1.1272  0.4236 -0.9595
 1478TIP3   OH225924   2.461   1.561   6.167 -0.0604 -0.5641  0.0091
 1478TIP3    H125925   2.400   1.554   6.093  1.0770  0.9549 -1.1393
 1478TIP3    H225926   2.435   1.641   6.212  1.9862  1.0237 -1.4514
 1479TIP3   OH225927   5.189   6.695  14.993 -0.2832  0.5594  0.7271
 1479TIP3    H125928   5.266   6.750  14.981  0.4708 -0.2510  1.6362
 1479TIP3    H225929   5.223   6.605  14.990 -1.5246  0.1148 -1.0104
 1480TIP3   OH225930   0.036   5.982   1.205  0.1275 -0.0591 -0.3074
 1480TIP3    H125931   0.041   5.986   1.300 -1.9693  0.1770 -0.1611
 1480TIP3    H225932  -0.051   5.946   1.187  0.2112  0.5431 -2.1365
 1481TIP3   OH225933   4.408   3.008  17.402  0.1080 -0.5253  0.1582
 1481TIP3    H125934   4.502   3.006  17.421 -0.2178 -1.0973  1.9538
 1481TIP3    H225935   4.375   3.082  17.454 -0.3082  0.3633 -1.3016
 1482TIP3   OH225936   3.647   4.594   1.249 -0.4706  0.2172  0.4378
 1482TIP3    H125937   3.670   4.640   1.168  0.2316  1.0514  1.0984
 1482TIP3    H225938   3.620   4.507   1.219 -0.9920  0.7596 -0.7580
 1483TIP3   OH225939   4.427   4.681  13.808  0.2439 -0.2631 -0.3223
 1483TIP3    H125940   4.398   4.694  13.717  2.9034 -0.2979 -1.2607
 1483TIP3    H225941   4.512   4.726  13.813  0.3650 -0.6134  2.0556
 1484TIP3   OH225942   2.626   3.681   0.832 -0.3890 -0.1478  0.5496
 1484TIP3    H125943   2.574   3.755   0.863 -1.5733 -0.6857 -0.1135
 1484TIP3    H225944   2.593   3.663   0.745  1.2096 -0.2508 -0.0783
 1485TIP3   OH225945   4.821   5.275   0.716  0.5147  0.0826  0.0887
 1485TIP3    H125946   4.876   5.351   0.737  0.4780 -0.2434  1.4927
 1485TIP3    H225947   4.836   5.214   0.789 -0.0023 -0.9560 -0.6498
 1486TIP3   OH225948   0.392   5.445  14.048  0.0207  0.3971 -0.2938
 1486TIP3    H125949   0.476   5.487  14.065  1.6275 -1.9095 -1.8655
 1486TIP3    H225950   0.389   5.435  13.953 -3.0385  2.2013 -0.5007
 1487TIP3   OH225951   3.499   5.215   0.389  0.3259 -0.4990 -0.3147
 1487TIP3    H125952   3.447   5.203   0.309  2.0970 -3.5237 -1.1404
 1487TIP3    H225953   3.438   5.194   0.460 -0.7574  0.3994 -0.9306
 1488TIP3   OH225954   6.025   0.449  13.794  0.0185 -0.0850  0.4262
 1488TIP3    H125955   6.095   0.511  13.772 -0.7825  0.2993 -1.1192
 1488TIP3    H225956   5.972   0.442  13.715 -1.2029 -1.0515  1.2831
 1489TIP3   OH225957   4.585   3.943  13.377 -0.0098  0.0162 -1.2800
 1489TIP3    H125958   4.534   3.988  13.446  0.5483 -1.0681 -0.1261
 1489TIP3    H225959   4.630   4.014  13.332  1.4972  0.6444  1.0195
 1490TIP3   OH225960   1.577   0.708  11.783 -0.5498  0.0480 -0.0684
 1490TIP3    H125961   1.657   0.657  11.771 -0.5667 -0.0049  0.0510
 1490TIP3    H225962   1.549   0.729  11.694 -1.0876 -0.9870 -0.1653
 1491TIP3   OH225963   4.387   6.304   0.909 -0.2791 -0.4846 -0.3375
 1491TIP3    H125964   4.430   6.378   0.866 -1.2943  0.4714  0.2387
 1491TIP3    H225965   4.426   6.300   0.996  1.5921 -2.2599 -1.1759
 1492TIP3   OH225966   0.870   6.162  10.490 -0.4452 -0.3121  0.3837
 1492TIP3    H125967   0.819   6.194  10.564 -0.6898  1.6583 -0.5847
 1492TIP3    H225968   0.905   6.241  10.448 -0.0327 -1.3835 -1.4042
 1493TIP3   OH225969   4.552   1.145  11.922  0.1212 -0.4213 -0.3100
 1493TIP3    H125970   4.593   1.150  11.835  0.6196 -2.1853 -0.2280
 1493TIP3    H225971   4.625   1.155  11.983  0.0003 -0.7305 -0.1154
 1494TIP3   OH225972   1.131   4.068  13.266  0.4330 -0.8397  0.1074
 1494TIP3    H125973   1.042   4.068  13.302  0.5391  0.0729  0.4052
 1494TIP3    H225974   1.153   3.975  13.257 -0.1406 -1.0855  1.0675
 1495TIP3   OH225975   3.865   3.254   4.232 -0.2436  0.3403 -0.0215
 1495TIP3    H125976   3.889   3.346   4.218 -1.3044  0.5701 -0.4242
 1495TIP3    H225977   3.830   3.253   4.321 -3.2480  1.0399 -1.0642
 1496TIP3   OH225978   3.885   3.883  16.688  0.2727  0.0776 -0.4984
 1496TIP3    H125979   3.860   3.870  16.597  1.7173 -2.6222 -0.6217
 1496TIP3    H225980   3.829   3.823  16.737  0.0255  0.9607  0.3295
 1497TIP3   OH225981   3.359   1.198   4.371 -0.1655  0.0363  0.2496
 1497TIP3    H125982   3.394   1.265   4.313  0.0906 -0.1837  0.1474
 1497TIP3    H225983   3.264   1.200   4.357 -0.0735 -0.2530 -0.4329
 1498TIP3   OH225984   2.661   5.536   2.903 -0.1166  0.3656  0.4325
 1498TIP3    H125985   2.736   5.537   2.963 -0.4520  0.2190  0.8595
 1498TIP3    H225986   2.697   5.502   2.821  0.4030  0.7925  0.4716
 1499TIP3   OH225987   3.172   2.576   6.831  0.1785 -0.4761  0.0850
 1499TIP3    H125988   3.252   2.526   6.817  0.8732  1.0344 -1.6504
 1499TIP3    H225989   3.103   2.510   6.838  1.0775 -1.7314 -2.0109
 1500TIP3   OH225990   4.259   4.963  13.924 -0.2751  0.0122  0.2566
 1500TIP3    H125991   4.165   4.977  13.910 -0.4001  0.3709  1.3469
 1500TIP3    H225992   4.299   4.988  13.841 -1.1329 -0.0866 -0.2066
 1501TIP3   OH225993   3.821   6.209  16.360  0.0484  0.1666  0.2480
 1501TIP3    H125994   3.802   6.158  16.282  1.4117 -1.6991  1.0661
 1501TIP3    H225995   3.734   6.227  16.398 -0.5057 -3.8808  1.3033
 1502TIP3   OH225996   2.108   2.436   0.331  0.5215 -0.0866 -0.3313
 1502TIP3    H125997   2.024   2.477   0.352  0.7584  0.6115 -0.7034
 1502TIP3    H225998   2.099   2.408   0.240  0.8417  0.4017 -0.5199
 1503TIP3   OH225999   4.118   1.183  16.707 -0.2452  0.6878  0.0519
 1503TIP3    H126000   4.158   1.191  16.620 -0.7114 -1.8278 -0.4671
 1503TIP3    H226001   4.044   1.243  16.705 -1.1859 -0.4468 -1.9038
 1504TIP3   OH226002   0.798   4.224   1.205 -0.2175 -0.2527  0.5916
 1504TIP3    H126003   0.802   4.172   1.285 -0.6529  0.7607  1.2986
 1504TIP3    H226004   0.758   4.307   1.232  1.3037  0.8154 -0.2957
 1505TIP3   OH226005   2.101   0.728  15.564  0.0659 -0.0266  0.0611
 1505TIP3    H126006   2.031   0.708  15.626 -2.1733  0.1092 -2.2610
 1505TIP3    H226007   2.070   0.692  15.481  2.4463  0.7019 -1.2363
 1506TIP3   OH226008   1.525   5.833   1.386 -0.7952  0.0770  0.2165
 1506TIP3    H126009   1.540   5.742   1.362  1.5657  0.2520  0.8353
 1506TIP3    H226010   1.479   5.871   1.311  0.8613 -0.8938 -1.3699
 1507TIP3   OH226011   4.931   2.317   6.577 -0.1397  0.6492 -0.4971
 1507TIP3    H126012   5.019   2.296   6.608 -1.2760  1.0027  3.4182
 1507TIP3    H226013   4.882   2.235   6.587 -0.8693  1.1192 -0.1762
 1508TIP3   OH226014   5.667   6.778  13.420 -0.3943  0.5323 -0.5714
 1508TIP3    H126015   5.678   6.709  13.486  1.5102  1.8006  0.5445
 1508TIP3    H226016   5.594   6.831  13.453  0.0449  0.7127  0.1331
 1509TIP3   OH226017   6.089   1.515  15.002  0.5573  0.2121 -0.7311
 1509TIP3    H126018   6.075   1.608  14.990 -1.7787 -0.0124 -0.3379
 1509TIP3    H226019   6.140   1.508  15.082 -1.4703  1.1586  0.7391
 1510TIP3   OH226020   5.099   2.897   4.239 -0.2695 -0.2863  0.3080
 1510TIP3    H126021   5.112   2.979   4.191 -0.8692 -0.1211  0.4241
 1510TIP3    H226022   5.015   2.864   4.207 -0.2300 -0.6456  0.5730
 1511TIP3   OH226023   2.217   2.093   2.729 -0.2501 -0.1094 -0.1722
 1511TIP3    H126024   2.298   2.049   2.754 -1.1005  0.0396  3.4006
 1511TIP3    H226025   2.199   2.153   2.802 -3.3670  0.1197 -0.9758
 1512TIP3   OH226026   5.621   1.837   5.975 -0.1925  0.3985  0.6098
 1512TIP3    H126027   5.611   1.878   5.889 -1.7107  0.3027  0.7137
 1512TIP3    H226028   5.605   1.744   5.959 -0.9190  0.4386  1.0567
 1513TIP3   OH226029   5.884   6.486   1.121 -0.1950 -0.4421  0.8847
 1513TIP3    H126030   5.947   6.427   1.079  1.0999  0.1143  1.9735
 1513TIP3    H226031   5.860   6.441   1.202  0.2648  0.1793  1.3777
 1514TIP3   OH226032   3.402   4.217  13.282 -0.9415  0.2179  0.4446
 1514TIP3    H126033   3.444   4.281  13.340 -1.3353  1.1362 -0.2717
 1514TIP3    H226034   3.389   4.140  13.338  2.2018 -0.3450  0.5888
 1515TIP3   OH226035   1.064   1.805  13.337 -0.1037  0.3122  0.0081
 1515TIP3    H126036   1.013   1.886  13.342  0.0694  0.3895  0.7047
 1515TIP3    H226037   1.155   1.833  13.347 -0.0798 -0.0097  0.7558
 1516TIP3   OH226038   2.987   1.493   2.455  0.7701  0.4315 -0.3746
 1516TIP3    H126039   3.055   1.543   2.411  0.3736  0.4872 -0.9354
 1516TIP3    H226040   3.013   1.401   2.443  1.3352  0.4771  0.3931
 1517TIP3   OH226041   0.021   5.634  16.165 -0.4239  0.3931 -0.2076
 1517TIP3    H126042  -0.062   5.586  16.170 -1.5829  2.3320 -0.1869
 1517TIP3    H226043   0.037   5.665  16.254  0.6626 -0.4461 -0.0836
 1518TIP3   OH226044   6.026   1.702   6.110 -0.0455 -0.4038 -0.0756
 1518TIP3    H126045   6.000   1.794   6.116 -0.4221 -0.5146  0.0203
 1518TIP3    H226046   6.121   1.704   6.108 -0.0552 -0.0058 -0.1597
 1519TIP3   OH226047   6.223   5.102   2.379 -0.1361 -0.0634 -0.3674
 1519TIP3    H126048   6.150   5.133   2.433  0.0308  0.8657 -0.6571
 1519TIP3    H226049   6.222   5.159   2.303 -0.9903 -1.9826 -1.8713
 1520TIP3   OH226050   0.124   3.815  14.627 -0.0134 -0.5501 -0.0369
 1520TIP3    H126051   0.196   3.873  14.601 -0.5712  0.2906  0.2422
 1520TIP3    H226052   0.090   3.781  14.545  1.2573 -1.6542 -0.1263
 1521TIP3   OH226053   2.165   0.418  12.509 -0.0786 -0.3720  0.1421
 1521TIP3    H126054   2.093   0.446  12.566  1.3151  0.2860  1.6851
 1521TIP3    H226055   2.153   0.467  12.428 -1.5527 -0.5555  0.2232
 1522TIP3   OH226056   5.808   3.855   2.465  0.1420  0.3348  0.4117
 1522TIP3    H126057   5.804   3.787   2.399  0.3432  0.5055  0.2195
 1522TIP3    H226058   5.735   3.914   2.444  0.4793  0.6364  0.0604
 1523TIP3   OH226059   4.798   1.396   5.163  0.2450 -0.5834  0.2514
 1523TIP3    H126060   4.752   1.403   5.079  1.4515  2.8141 -0.2509
 1523TIP3    H226061   4.886   1.368   5.140 -0.1992 -2.6948  0.8067
 1524TIP3   OH226062   0.641   2.947  10.669  0.6152 -0.9074  0.2361
 1524TIP3    H126063   0.556   2.975  10.638  1.1646  0.5858 -0.0270
 1524TIP3    H226064   0.622   2.895  10.748 -0.6880 -3.4866 -1.6458
 1525TIP3   OH226065   0.944   4.722  13.452  0.0509 -0.1351  0.1070
 1525TIP3    H126066   0.935   4.727  13.357 -1.6733  1.7312  0.3090
 1525TIP3    H226067   1.038   4.730  13.468  0.5293 -1.8588 -1.4471
 1526TIP3   OH226068   1.030   5.253  15.121 -1.2308 -0.5296  0.0163
 1526TIP3    H126069   1.078   5.227  15.042 -0.8451  1.8280 -0.6016
 1526TIP3    H226070   0.962   5.187  15.130  0.4739 -2.5021 -0.5858
 1527TIP3   OH226071   3.548   2.270   5.661 -0.0760 -0.1845 -0.4349
 1527TIP3    H126072   3.484   2.340   5.674 -0.3936 -0.4883 -0.3207
 1527TIP3    H226073   3.620   2.311   5.614 -1.1905 -0.2452 -2.3244
 1528TIP3   OH226074   1.382   4.676   6.553  0.2633 -0.2559 -0.0005
 1528TIP3    H126075   1.374   4.747   6.617  2.1671  0.0756 -0.0788
 1528TIP3    H226076   1.349   4.713   6.471 -0.2548 -0.0079  0.3112
 1529TIP3   OH226077   3.836   2.749  15.717  0.2119 -0.0567 -0.1360
 1529TIP3    H126078   3.901   2.683  15.738 -1.0353 -1.4635 -0.5591
 1529TIP3    H226079   3.762   2.729  15.774  0.6022  2.3789  1.3813
 1530TIP3   OH226080   3.638   5.625   1.657 -0.1122  0.0969  0.6798
 1530TIP3    H126081   3.567   5.563   1.673  1.1201 -1.1073  1.6518
 1530TIP3    H226082   3.625   5.652   1.566 -1.1399 -0.9734  0.4773
 1531TIP3   OH226083   6.299   1.121  16.213 -0.3819  0.0112 -0.0606
 1531TIP3    H126084   6.392   1.119  16.233 -0.3541 -1.0315 -0.2556
 1531TIP3    H226085   6.257   1.147  16.295  0.1794  2.5670 -0.4775
 1532TIP3   OH226086   3.348   1.149   3.155  0.5134  0.0678  0.0963
 1532TIP3    H126087   3.389   1.224   3.199 -1.8467  1.3187  0.3021
 1532TIP3    H226088   3.352   1.171   3.062  1.2770 -0.3603  0.0159
 1533TIP3   OH226089   1.360   1.797   3.850 -0.2579  0.0522  0.0105
 1533TIP3    H126090   1.411   1.760   3.778  0.7612 -3.7600  2.3980
 1533TIP3    H226091   1.418   1.793   3.925 -1.8615  2.1848  1.4727
 1534TIP3   OH226092   3.340   2.748   0.408 -0.0716  0.3512 -0.5043
 1534TIP3    H126093   3.359   2.757   0.501 -0.8724 -0.6888 -0.2168
 1534TIP3    H226094   3.294   2.664   0.401  1.5006 -0.4701 -2.0566
 1535TIP3   OH226095   0.261   2.765  12.022 -0.0274  0.1881  0.2117
 1535TIP3    H126096   0.267   2.860  12.022  1.8950  0.1745  2.9824
 1535TIP3    H226097   0.169   2.747  12.003 -0.6218  2.6038  0.4683
 1536TIP3   OH226098   1.625   0.959   3.446  0.0554  0.0764 -0.1685
 1536TIP3    H126099   1.682   0.952   3.370 -0.5132  0.2612 -0.6224
 1536TIP3    H226100   1.633   1.049   3.475  0.0164  0.0964 -0.2193
 1537TIP3   OH226101   2.626   6.633   0.277 -0.1598  1.0558 -0.1031
 1537TIP3    H126102   2.630   6.618   0.183  1.0782 -0.6284  0.1663
 1537TIP3    H226103   2.536   6.612   0.301 -0.3243  0.9093 -0.8224
 1538TIP3   OH226104   4.809   3.326   3.853 -0.3251  0.1048  0.2905
 1538TIP3    H126105   4.791   3.232   3.859 -1.2696  0.1787 -0.9831
 1538TIP3    H226106   4.902   3.331   3.832 -0.6092 -0.6294 -1.3106
 1539TIP3   OH226107   0.351   4.183  17.242 -0.0977 -0.6046 -0.3040
 1539TIP3    H126108   0.331   4.259  17.187  3.7892  1.1429  0.3606
 1539TIP3    H226109   0.340   4.215  17.332 -1.1071 -1.7441  0.0005
 1540TIP3   OH226110   0.635   2.145   4.376 -0.0347  0.2170 -0.3565
 1540TIP3    H126111   0.634   2.121   4.469  2.7852 -1.3480 -0.6303
 1540TIP3    H226112   0.622   2.062   4.330 -0.1879  0.7943 -1.3836
 1541TIP3   OH226113   0.925   5.562   0.281 -0.0935  0.8517  0.2007
 1541TIP3    H126114   0.876   5.585   0.201  1.1893  1.5209 -0.4238
 1541TIP3    H226115   0.980   5.489   0.255  0.1944  0.9556  0.5159
 1542TIP3   OH226116   2.739   4.348  14.447 -0.1610  0.0531 -0.1739
 1542TIP3    H126117   2.681   4.408  14.493 -1.0273 -0.8416 -0.0459
 1542TIP3    H226118   2.775   4.399  14.374 -0.5554  0.8257  0.1654
 1543TIP3   OH226119   1.631   2.113   6.236 -0.4074 -0.1396 -0.0389
 1543TIP3    H126120   1.581   2.107   6.317 -0.5241  0.4179 -0.0644
 1543TIP3    H226121   1.720   2.086   6.260 -1.0200 -2.7001 -0.3236
 1544TIP3   OH226122   0.956   0.282   2.426  0.2824 -0.2474 -0.3188
 1544TIP3    H126123   0.869   0.256   2.397 -0.1299  0.1063  0.5576
 1544TIP3    H226124   0.984   0.211   2.484  0.4264 -0.1849 -0.3094
 1545TIP3   OH226125   5.627   4.963   6.204 -0.2414  0.3071 -0.0864
 1545TIP3    H126126   5.644   5.008   6.286  0.9080  1.2663 -0.8256
 1545TIP3    H226127   5.570   5.022   6.155 -0.7155 -0.1482 -0.1059
 1546TIP3   OH226128   2.967   2.192  11.897  0.2541  0.5931  0.1389
 1546TIP3    H126129   2.945   2.136  11.823  0.3413  1.4112 -0.5169
 1546TIP3    H226130   3.052   2.230  11.873 -0.1657  1.6020  0.2163
 1547TIP3   OH226131   3.342   1.464   6.840  0.1786  0.1796 -0.0564
 1547TIP3    H126132   3.349   1.368   6.834 -2.5685 -0.1254  0.1293
 1547TIP3    H226133   3.255   1.483   6.805 -0.3084  2.3602  2.1088
 1548TIP3   OH226134   6.555   4.078   0.927  0.4861 -0.3370  0.6764
 1548TIP3    H126135   6.636   4.072   0.877 -0.0773 -0.2513 -0.2812
 1548TIP3    H226136   6.534   4.171   0.930  0.4604 -0.3507  0.9872
 1549TIP3   OH226137   3.083   2.423  15.078 -0.0992  0.2697  0.4798
 1549TIP3    H126138   3.157   2.477  15.049  0.7287 -2.0454 -2.2513
 1549TIP3    H226139   3.025   2.421  15.002 -1.0182 -1.1114  1.1874
 1550TIP3   OH226140   0.629   4.296  15.232  0.2047 -0.4498  0.0659
 1550TIP3    H126141   0.709   4.320  15.184 -0.1300  1.9774  0.6068
 1550TIP3    H226142   0.558   4.313  15.171 -0.0410 -0.5053  0.3344
 1551TIP3   OH226143   1.579   1.503   1.453  0.2174  0.5059  0.2050
 1551TIP3    H126144   1.527   1.571   1.410  0.4509  1.2712  1.1056
 1551TIP3    H226145   1.573   1.428   1.394  1.6281  1.9036 -1.8328
 1552TIP3   OH226146   2.493   4.269   3.405  0.7739 -0.1800 -0.0101
 1552TIP3    H126147   2.533   4.269   3.318 -1.6137  1.9580 -1.2480
 1552TIP3    H226148   2.443   4.187   3.409  0.3148  0.0422 -0.9684
 1553TIP3   OH226149   3.576   2.524   0.887 -0.4526 -0.3208  0.3237
 1553TIP3    H126150   3.561   2.586   0.959 -0.9966 -0.7255  0.5620
 1553TIP3    H226151   3.671   2.507   0.890 -0.6056 -1.1480  1.6370
 1554TIP3   OH226152   4.255   0.355  11.709 -0.1105  0.5433  0.2294
 1554TIP3    H126153   4.315   0.430  11.707 -0.2844  0.6911 -1.7847
 1554TIP3    H226154   4.307   0.282  11.677 -0.7147  0.4614 -0.6038
 1555TIP3   OH226155   1.327   3.365   0.012 -0.3854 -0.1874 -0.6266
 1555TIP3    H126156   1.407   3.411  -0.013 -1.1188  1.5292  0.0510
 1555TIP3    H226157   1.359   3.286   0.057  0.9407  0.7915  0.2302
 1556TIP3   OH226158   0.834   5.864  16.296  0.2489  0.3011 -0.1071
 1556TIP3    H126159   0.757   5.911  16.263  0.2121  0.8168  0.6859
 1556TIP3    H226160   0.882   5.929  16.346  0.2395 -0.4740  0.9509
 1557TIP3   OH226161   5.862   2.110  11.814  0.3523 -0.3179 -0.3582
 1557TIP3    H126162   5.787   2.095  11.871  0.4288 -0.1631 -0.2171
 1557TIP3    H226163   5.874   2.205  11.814 -1.1403 -0.0487 -2.5047
 1558TIP3   OH226164   3.158   1.880   0.342  0.1409 -0.2720 -0.1194
 1558TIP3    H126165   3.175   1.840   0.257  0.3185 -1.3693  0.4109
 1558TIP3    H226166   3.178   1.811   0.406  2.3694  1.2426  0.9537
 1559TIP3   OH226167   1.428   0.946  13.490  0.7561 -0.3775 -0.5630
 1559TIP3    H126168   1.413   0.885  13.563  1.5400 -0.1479 -0.2035
 1559TIP3    H226169   1.377   0.908  13.417  1.0309 -1.3312 -0.2782
 1560TIP3   OH226170   2.402   0.971  17.197 -0.3126 -1.0355 -0.3406
 1560TIP3    H126171   2.385   1.061  17.172  0.8425  0.2620  2.9314
 1560TIP3    H226172   2.465   0.939  17.133  2.3486  1.9160  0.5317
 1561TIP3   OH226173   2.421   0.919   6.322  0.2550 -0.2509 -0.2282
 1561TIP3    H126174   2.336   0.932   6.364 -0.0707  0.4378 -1.0668
 1561TIP3    H226175   2.481   0.976   6.370  0.1801 -0.5081  0.1725
 1562TIP3   OH226176   6.427   1.645   4.202 -0.3725 -0.5993  0.1741
 1562TIP3    H126177   6.401   1.593   4.126  1.7368  1.7116 -2.3583
 1562TIP3    H226178   6.494   1.592   4.245 -0.3126 -1.2047 -0.6328
 1563TIP3   OH226179   3.605   2.054  12.011 -0.5940 -0.4919  0.0314
 1563TIP3    H126180   3.658   1.974  12.009  0.5788  0.2463  0.0807
 1563TIP3    H226181   3.567   2.056  12.098 -1.1342 -1.2934 -0.1749
 1564TIP3   OH226182   1.406   2.251  10.583 -0.1653  0.9067 -0.0749
 1564TIP3    H126183   1.310   2.244  10.583 -0.0715 -0.8130  0.5930
 1564TIP3    H226184   1.428   2.265  10.675  0.2396  1.1116 -0.2039
 1565TIP3   OH226185   2.927   3.272   3.099 -0.0714  0.6273 -0.1295
 1565TIP3    H126186   2.965   3.281   3.186 -0.4916  0.2214  0.1011
 1565TIP3    H226187   2.917   3.362   3.067 -0.9925  0.8417  0.7166
 1566TIP3   OH226188   5.999   4.551   1.786 -0.1344  0.0705  0.1331
 1566TIP3    H126189   6.038   4.594   1.710 -0.2109 -2.0788 -1.2210
 1566TIP3    H226190   6.064   4.563   1.856  2.2149 -1.7980 -1.5536
 1567TIP3   OH226191   0.527   1.376   1.088 -0.1536  0.3000 -0.3730
 1567TIP3    H126192   0.511   1.282   1.083 -1.8443  0.5527 -0.0763
 1567TIP3    H226193   0.593   1.392   1.020  3.4723 -1.7128  2.2544
 1568TIP3   OH226194   0.828   1.155   0.373  0.3622  0.0758  0.1144
 1568TIP3    H126195   0.783   1.096   0.313  1.2565 -0.6119  0.0888
 1568TIP3    H226196   0.807   1.243   0.341 -0.2950 -0.2508 -0.3659
 1569TIP3   OH226197   2.943   5.060   0.210  0.1586  0.0239 -0.6378
 1569TIP3    H126198   2.985   5.125   0.154  0.5983 -0.6808 -1.1365
 1569TIP3    H226199   2.998   4.982   0.202 -0.2569 -0.3565  0.0980
 1570TIP3   OH226200   5.580   2.613   0.197  1.0509 -0.0510  0.5137
 1570TIP3    H126201   5.564   2.695   0.243  1.0498  1.3484 -1.8012
 1570TIP3    H226202   5.674   2.597   0.208  1.3921  1.1856 -0.3580
 1571TIP3   OH226203   4.060   3.937  15.742 -0.2895 -0.3980  0.0752
 1571TIP3    H126204   4.081   4.021  15.782 -0.3713 -0.0332 -0.6516
 1571TIP3    H226205   3.980   3.952  15.693 -1.2536 -1.3168  1.2893
 1572TIP3   OH226206   1.562   1.791  14.056  0.4891 -0.8526 -0.4038
 1572TIP3    H126207   1.548   1.697  14.062  0.1767 -0.8900 -1.5469
 1572TIP3    H226208   1.486   1.824  14.009 -1.6644  0.6151  3.6696
 1573TIP3   OH226209   3.771   1.155   2.507  0.1548  0.2312  0.1471
 1573TIP3    H126210   3.708   1.201   2.451  0.4526 -0.0041 -0.3900
 1573TIP3    H226211   3.735   1.067   2.517 -0.5850  0.6509  1.4476
 1574TIP3   OH226212   0.408   5.935  16.594 -0.3539 -0.0487 -0.7617
 1574TIP3    H126213   0.471   5.863  16.600  0.6116  0.8619  0.4110
 1574TIP3    H226214   0.405   5.973  16.682 -0.4089  1.6999 -1.4752
 1575TIP3   OH226215   3.754   3.295  16.976 -0.0803  0.1570  0.0887
 1575TIP3    H126216   3.775   3.222  16.919 -0.0968 -0.4219  0.8105
 1575TIP3    H226217   3.838   3.322  17.013 -0.3024 -0.8744  1.4413
 1576TIP3   OH226218   5.745   3.844   1.761 -0.2344 -0.2238  0.4510
 1576TIP3    H126219   5.700   3.761   1.742 -0.9762  0.1866  0.3563
 1576TIP3    H226220   5.737   3.894   1.680  0.4206 -0.1461  0.4333
 1577TIP3   OH226221   2.537   4.530   1.874 -0.1665 -0.4567 -0.0860
 1577TIP3    H126222   2.500   4.549   1.788 -0.6074  0.1601  0.2305
 1577TIP3    H226223   2.606   4.595   1.885  0.9031 -1.4756 -0.5884
 1578TIP3   OH226224   2.767   2.848  16.301 -0.3929 -0.1868  0.1845
 1578TIP3    H126225   2.764   2.863  16.207  0.4602 -2.9519 -0.3650
 1578TIP3    H226226   2.844   2.895  16.331 -1.3561  1.7580 -0.2056
 1579TIP3   OH226227   2.211   3.720  11.199 -0.1334  0.7277  0.0054
 1579TIP3    H126228   2.187   3.655  11.133  0.6180 -0.0115  0.4357
 1579TIP3    H226229   2.305   3.706  11.213  0.0938  2.0481 -0.0396
 1580TIP3   OH226230   2.598   5.655   4.750 -0.1365  0.0343  0.3192
 1580TIP3    H126231   2.551   5.580   4.715  0.1221  0.5321 -1.1985
 1580TIP3    H226232   2.573   5.728   4.693  0.9909  0.7093  0.6387
 1581TIP3   OH226233   3.983   5.537   0.476 -0.0481  0.2701  0.1588
 1581TIP3    H126234   4.023   5.588   0.405  0.1768 -0.6707 -0.4017
 1581TIP3    H226235   3.970   5.601   0.546 -1.1164  1.4365 -1.0397
 1582TIP3   OH226236   1.049   6.345  11.322  0.1968  0.5256 -0.6492
 1582TIP3    H126237   1.089   6.399  11.254 -1.4811  2.1981 -0.3919
 1582TIP3    H226238   1.055   6.399  11.401  0.9612 -0.8607  0.2865
 1583TIP3   OH226239   1.548   4.790   3.179  0.2238  0.1667 -0.0992
 1583TIP3    H126240   1.614   4.763   3.115 -0.0510  0.5762 -0.5656
 1583TIP3    H226241   1.559   4.729   3.252 -0.4543 -1.2760 -1.1543
 1584TIP3   OH226242   0.864   6.441  16.153  0.0474  0.3617 -0.1138
 1584TIP3    H126243   0.898   6.352  16.163 -1.4580 -0.3715 -1.1477
 1584TIP3    H226244   0.932   6.488  16.105  0.1690 -0.7129 -1.0185
 1585TIP3   OH226245   1.248   1.630  11.493 -0.5975 -0.2265 -0.0827
 1585TIP3    H126246   1.212   1.667  11.573  0.3985 -0.1026  0.3292
 1585TIP3    H226247   1.343   1.638  11.504 -0.4332 -0.7662 -1.0089
 1586TIP3   OH226248   3.888   0.472   5.720  1.0287  0.4295  0.1278
 1586TIP3    H126249   3.801   0.444   5.694  1.3872 -0.9471  0.3162
 1586TIP3    H226250   3.878   0.565   5.742 -0.1991  0.4957 -0.6279
 1587TIP3   OH226251   3.818   2.988   0.311  0.0638  0.2830 -0.2071
 1587TIP3    H126252   3.781   2.922   0.370  0.2851  0.9367  0.6865
 1587TIP3    H226253   3.822   2.945   0.225 -0.3240 -0.6629  0.2411
 1588TIP3   OH226254   4.618   1.829  15.988  0.1216 -0.4095  0.1769
 1588TIP3    H126255   4.709   1.856  15.995  0.2348 -0.7624  0.0806
 1588TIP3    H226256   4.621   1.733  15.983 -0.3232 -0.5055  1.3191
 1589TIP3   OH226257   3.184   6.369  17.172  0.2798  0.5933  0.8796
 1589TIP3    H126258   3.107   6.338  17.220  0.7221  1.7776  2.4734
 1589TIP3    H226259   3.153   6.444  17.121  0.3057  0.9795  1.4102
 1590TIP3   OH226260   1.433   4.182  13.716  0.1052  0.6351  0.6094
 1590TIP3    H126261   1.357   4.208  13.663  0.6582  1.4225  0.1660
 1590TIP3    H226262   1.401   4.110  13.770 -0.7035  0.3415 -0.2206
 1591TIP3   OH226263   3.141   4.436  13.844  0.7628 -0.3520 -0.2619
 1591TIP3    H126264   3.207   4.367  13.849  1.0083 -0.1522 -0.6636
 1591TIP3    H226265   3.124   4.445  13.750  0.0250 -0.5317 -0.1548
 1592TIP3   OH226266   5.307   6.563   3.845 -0.4648  0.1154  0.1998
 1592TIP3    H126267   5.226   6.574   3.795 -0.7499 -1.0541  0.3874
 1592TIP3    H226268   5.299   6.477   3.887  0.6539  0.1985  0.6318
 1593TIP3   OH226269   3.764   6.139   3.636  0.0449  0.1738  0.0308
 1593TIP3    H126270   3.800   6.136   3.724 -1.3836 -0.4288  0.6194
 1593TIP3    H226271   3.769   6.049   3.604  0.6787  0.4120 -0.5682
 1594TIP3   OH226272   1.868   3.407   3.891  0.1755  0.2839 -0.2284
 1594TIP3    H126273   1.947   3.380   3.939  0.4680  0.6426 -0.5005
 1594TIP3    H226274   1.851   3.496   3.923 -0.0669  0.2432 -0.2424
 1595TIP3   OH226275   3.910   5.217  15.321 -0.3651  0.3788  0.5639
 1595TIP3    H126276   3.868   5.300  15.298 -1.2210  0.0255  0.8156
 1595TIP3    H226277   3.842   5.167  15.365 -0.1703 -0.8568 -0.4707
 1596TIP3   OH226278   0.732   5.561   5.810  0.0357 -0.1786  0.5114
 1596TIP3    H126279   0.728   5.652   5.839  0.8032 -0.4283  1.4432
 1596TIP3    H226280   0.641   5.539   5.790 -0.4706  0.1952  2.1898
 1597TIP3   OH226281   2.879   4.065   0.635 -0.4982 -0.7018  0.3500
 1597TIP3    H126282   2.841   3.978   0.621 -2.2253  0.1352 -0.4986
 1597TIP3    H226283   2.959   4.048   0.684  0.0378 -2.9093 -1.1265
 1598TIP3   OH226284   4.650   5.253   5.664  0.3608  0.2687  0.1857
 1598TIP3    H126285   4.576   5.260   5.604  0.7480  0.8639 -0.2367
 1598TIP3    H226286   4.631   5.175   5.716 -0.9722  0.8689  0.6553
 1599TIP3   OH226287   1.045   4.013   4.759 -0.7109  0.1083 -0.4729
 1599TIP3    H126288   1.071   4.058   4.679 -0.3344  1.6905  0.4954
 1599TIP3    H226289   0.953   4.036   4.770 -0.2550  1.5866  0.5732
 1600TIP3   OH226290   6.608   2.333   5.555 -0.0502 -0.3712  0.4604
 1600TIP3    H126291   6.594   2.267   5.623  0.6111  1.7476  2.8241
 1600TIP3    H226292   6.520   2.355   5.524 -0.2683 -2.5313 -0.6898
 1601TIP3   OH226293   4.445   5.364   3.683 -0.2862  0.0889 -0.1585
 1601TIP3    H126294   4.476   5.343   3.595 -0.7659  0.1853 -0.3558
 1601TIP3    H226295   4.351   5.348   3.679 -0.2413 -0.3809  0.4789
 1602TIP3   OH226296   1.826   5.359   3.253 -0.1989 -0.0005 -0.1840
 1602TIP3    H126297   1.876   5.335   3.175 -1.5302  0.5217 -1.2453
 1602TIP3    H226298   1.742   5.315   3.242 -1.1406  1.7003 -0.0719
 1603TIP3   OH226299   3.538   2.448   6.251  0.0603 -0.3129 -0.1420
 1603TIP3    H126300   3.580   2.526   6.289  1.0674 -0.0318 -1.7305
 1603TIP3    H226301   3.477   2.483   6.187 -0.8229 -0.7991  0.4258
 1604TIP3   OH226302   5.944   0.821  14.383 -0.2051  0.0950  0.4011
 1604TIP3    H126303   5.967   0.729  14.396  1.9299  0.4070 -0.7797
 1604TIP3    H226304   5.969   0.840  14.293 -0.0379  2.0025  0.8055
 1605TIP3   OH226305   6.669   3.584   1.310  0.4275 -0.3097  0.2373
 1605TIP3    H126306   6.597   3.588   1.247 -1.1065 -3.0033  1.6431
 1605TIP3    H226307   6.729   3.519   1.274  0.1767 -0.9250  0.9013
 1606TIP3   OH226308   3.359   4.608   1.405  0.3623  0.5294  0.6274
 1606TIP3    H126309   3.397   4.626   1.320 -0.6168 -0.1275  0.0260
 1606TIP3    H226310   3.432   4.579   1.460  0.7200 -0.9203 -0.5500
 1607TIP3   OH226311   0.624   4.769   0.957 -0.0096 -0.2159  1.2013
 1607TIP3    H126312   0.691   4.837   0.945  0.2050 -0.4327  1.1805
 1607TIP3    H226313   0.672   4.694   0.990 -0.1495 -0.5709  0.6088
 1608TIP3   OH226314   4.645   6.233  15.344  0.5534  0.1357  0.0489
 1608TIP3    H126315   4.598   6.290  15.282  0.6099  1.2073  0.9684
 1608TIP3    H226316   4.614   6.145  15.323 -0.1422  0.5829 -0.8777
 1609TIP3   OH226317   1.504   4.995   6.621  0.0242 -0.4583  0.4827
 1609TIP3    H126318   1.475   5.036   6.703 -1.0531 -0.2079 -0.0067
 1609TIP3    H226319   1.464   5.047   6.552 -1.3715 -2.2623 -0.1634
 1610TIP3   OH226320   2.218   4.429   5.403 -0.2640 -0.7483 -0.4612
 1610TIP3    H126321   2.270   4.400   5.327  0.5787 -0.1167 -0.1342
 1610TIP3    H226322   2.137   4.379   5.395  0.3330 -1.6827 -1.0477
 1611TIP3   OH226323   3.672   1.556   3.647  0.1911  0.5265 -0.1789
 1611TIP3    H126324   3.714   1.511   3.573  2.0519 -0.4561  1.3929
 1611TIP3    H226325   3.721   1.527   3.724 -3.3900 -0.6681  1.8674
 1612TIP3   OH226326   2.765   1.357   0.820 -0.2598 -0.2269 -0.2564
 1612TIP3    H126327   2.854   1.333   0.846 -0.2474  1.7739  1.9139
 1612TIP3    H226328   2.709   1.290   0.860  0.1203  0.2076  1.0762
 1613TIP3   OH226329   2.375   0.914   2.902 -0.6015 -0.2143 -0.1672
 1613TIP3    H126330   2.454   0.964   2.882 -1.6279  1.2257 -0.8673
 1613TIP3    H226331   2.404   0.846   2.962  1.0923  0.5168 -0.0908
 1614TIP3   OH226332   3.551   6.536  15.318 -0.3197 -0.1095  0.0908
 1614TIP3    H126333   3.633   6.496  15.290 -0.4742  0.5753 -1.4524
 1614TIP3    H226334   3.489   6.516  15.247 -0.7246  1.7259 -0.1358
 1615TIP3   OH226335   0.721   0.943   1.401  0.0119  0.2776  0.5254
 1615TIP3    H126336   0.712   1.030   1.360 -0.0269 -0.2602 -0.6586
 1615TIP3    H226337   0.774   0.893   1.339 -0.1558 -0.6215  1.0901
 1616TIP3   OH226338   0.074   3.325   2.394 -0.0862 -0.4657 -0.0218
 1616TIP3    H126339   0.042   3.236   2.408 -2.5621  0.4579  0.6270
 1616TIP3    H226340   0.052   3.345   2.303 -1.0351  0.0344  0.3085
 1617TIP3   OH226341   3.643   3.800   2.031 -0.1496 -0.7715 -0.1999
 1617TIP3    H126342   3.722   3.814   2.083 -0.3341 -0.6710  0.0531
 1617TIP3    H226343   3.617   3.710   2.051  0.4881 -1.1741 -1.0855
 1618TIP3   OH226344   3.550   2.945   0.668 -0.4548 -0.2276 -0.3058
 1618TIP3    H126345   3.522   3.023   0.621  1.0148  1.2709  1.1738
 1618TIP3    H226346   3.469   2.904   0.697 -1.2521  0.7593 -1.0769
 1619TIP3   OH226347   2.878   0.527  15.669  0.7244  0.3994  0.6218
 1619TIP3    H126348   2.884   0.519  15.764 -2.4060  0.1822  0.9132
 1619TIP3    H226349   2.871   0.437  15.637 -2.0883  0.5098  0.6693
 1620TIP3   OH226350   3.237   4.356   3.402 -0.0175 -0.3888  0.1421
 1620TIP3    H126351   3.166   4.359   3.466 -0.5289 -0.2333 -0.4188
 1620TIP3    H226352   3.282   4.439   3.413  0.5064 -0.7661  0.9650
 1621TIP3   OH226353   6.100   1.934   2.033 -0.5208 -0.2587  0.3022
 1621TIP3    H126354   6.188   1.899   2.020  0.5937  2.3921  0.2039
 1621TIP3    H226355   6.058   1.927   1.947 -0.7579 -2.2449  0.5269
 1622TIP3   OH226356   0.691   2.030   0.734  0.2297  0.1859  0.4592
 1622TIP3    H126357   0.696   1.994   0.822  0.4290 -0.0914  0.3350
 1622TIP3    H226358   0.743   1.971   0.680  0.5566  0.6555  0.2488
 1623TIP3   OH226359   1.735   4.069   1.559  0.0261  0.2519  0.0028
 1623TIP3    H126360   1.824   4.053   1.590 -0.6389  0.1792  1.9832
 1623TIP3    H226361   1.741   4.153   1.512  1.5638 -0.8693 -1.9463
 1624TIP3   OH226362   4.580   2.479   1.268 -0.6266  0.0729  0.0315
 1624TIP3    H126363   4.592   2.409   1.204 -2.2992 -1.6280  1.4698
 1624TIP3    H226364   4.665   2.523   1.271  0.9280 -2.6630 -0.0291
 1625TIP3   OH226365   1.579   2.078   0.027 -0.1296  0.1697  0.0977
 1625TIP3    H126366   1.526   2.155   0.008  0.7283  0.6050 -0.5927
 1625TIP3    H226367   1.669   2.105   0.008  0.4543 -0.3345  1.8862
 1626TIP3   OH226368   3.305   2.452  16.853 -0.2293 -0.0403  0.1016
 1626TIP3    H126369   3.210   2.458  16.839 -0.5978 -0.7514  2.0003
 1626TIP3    H226370   3.325   2.526  16.911  0.3755  0.0970 -0.2785
 1627TIP3   OH226371   4.210   1.958   1.723 -0.6894 -0.6094 -0.1055
 1627TIP3    H126372   4.195   1.996   1.810  1.1785 -2.3051  1.0430
 1627TIP3    H226373   4.132   1.904   1.707 -1.6601  0.7431 -0.1348
 1628TIP3   OH226374   5.445   2.790   6.433 -0.0523 -0.0587 -0.0377
 1628TIP3    H126375   5.386   2.729   6.391 -0.9048  1.2274 -0.7625
 1628TIP3    H226376   5.524   2.789   6.380  0.2595 -1.1225  0.4290
 1629TIP3   OH226377   4.366   0.193  14.508 -0.4358  0.7453 -0.9915
 1629TIP3    H126378   4.380   0.114  14.456  0.1697  1.1656 -1.4789
 1629TIP3    H226379   4.445   0.245  14.496 -0.5800  1.1712 -0.2087
 1630TIP3   OH226380   1.596   5.597   5.648  0.2317 -0.0821 -0.4653
 1630TIP3    H126381   1.683   5.560   5.632 -0.0718 -0.7621 -0.5752
 1630TIP3    H226382   1.613   5.676   5.701  0.9779  0.2774 -1.2117
 1631TIP3   OH226383   6.553   0.365   0.140  0.3989  0.1278  0.5564
 1631TIP3    H126384   6.458   0.365   0.134  0.3362 -1.6286  0.9681
 1631TIP3    H226385   6.575   0.448   0.183 -0.5482  2.7519 -3.4956
 1632TIP3   OH226386   0.559   0.354   5.488 -0.2334 -0.0869 -0.0032
 1632TIP3    H126387   0.608   0.385   5.564 -0.9731 -2.4260  1.5266
 1632TIP3    H226388   0.501   0.427   5.465  1.6511  1.5459  0.1109
 1633TIP3   OH226389   1.269   5.209  15.793  0.1111 -0.5391  0.0049
 1633TIP3    H126390   1.245   5.159  15.715  0.5530 -0.2241 -0.3399
 1633TIP3    H226391   1.224   5.293  15.782  0.0696 -0.5426  0.1525
 1634TIP3   OH226392   5.358   1.987  10.531  0.3231  0.2764 -0.2742
 1634TIP3    H126393   5.404   1.934  10.596 -0.2134 -0.2117 -0.2874
 1634TIP3    H226394   5.410   1.976  10.451  0.8179  0.6448 -0.0121
 1635TIP3   OH226395   6.084   5.862   4.148 -0.4401  0.4930 -0.5092
 1635TIP3    H126396   6.058   5.912   4.225 -1.1814  0.2507 -0.5830
 1635TIP3    H226397   6.106   5.775   4.182  1.6668  1.0662 -0.2731
 1636TIP3   OH226398   2.202   4.596   1.141 -0.6450  0.2727  0.3450
 1636TIP3    H126399   2.223   4.525   1.201  0.3512  0.1131 -0.1548
 1636TIP3    H226400   2.188   4.672   1.197 -2.6143 -0.4715  0.9543
 1637TIP3   OH226401   1.292   5.130   1.829 -0.0463  0.5267  0.2894
 1637TIP3    H126402   1.375   5.148   1.874  1.3495 -0.7828 -1.5857
 1637TIP3    H226403   1.279   5.207   1.773  0.0283  0.6276  0.4100
 1638TIP3   OH226404   1.353   1.510  14.683  0.4949  0.0064 -0.3520
 1638TIP3    H126405   1.426   1.449  14.677  0.0648 -0.4811 -0.7576
 1638TIP3    H226406   1.393   1.594  14.706  0.9929 -0.6329  1.2018
 1639TIP3   OH226407   4.187   6.693   5.191 -0.1996  0.2423  0.1637
 1639TIP3    H126408   4.206   6.648   5.109 -1.1365  0.9763 -0.4857
 1639TIP3    H226409   4.101   6.733   5.177  0.5047  2.0924  0.7495
 1640TIP3   OH226410   2.084   2.064   2.391 -0.1860 -0.0190 -0.1211
 1640TIP3    H126411   2.091   1.978   2.349 -2.0313  0.2837 -1.1673
 1640TIP3    H226412   1.990   2.075   2.407  0.0545  1.6381  0.3718
 1641TIP3   OH226413   3.701   4.762  13.973  0.6767 -0.0988  0.0306
 1641TIP3    H126414   3.769   4.826  13.952  1.8853 -1.4292 -0.3097
 1641TIP3    H226415   3.633   4.777  13.907  0.9283  0.8210 -0.0336
 1642TIP3   OH226416   6.431   4.936   2.110  0.4921 -0.5268  0.3980
 1642TIP3    H126417   6.345   4.966   2.081  0.7924 -0.2443 -0.2239
 1642TIP3    H226418   6.483   4.930   2.029  1.5621  0.9515  0.9307
 1643TIP3   OH226419   1.136   3.367  12.531  0.0100  0.5241  0.6320
 1643TIP3    H126420   1.138   3.309  12.454 -2.7175 -2.0293  2.2815
 1643TIP3    H226421   1.093   3.446  12.500  0.0139  0.0168 -0.7482
 1644TIP3   OH226422   0.094   6.207   2.749 -0.7782 -0.2735  0.7023
 1644TIP3    H126423   0.038   6.238   2.820 -0.2156  2.3623  0.0874
 1644TIP3    H226424   0.183   6.230   2.776 -0.1422 -2.5927  0.7583
 1645TIP3   OH226425   6.167   6.187   2.018 -0.0802 -0.0258 -0.1459
 1645TIP3    H126426   6.188   6.275   1.987  1.5289  0.0387  1.0350
 1645TIP3    H226427   6.208   6.181   2.104 -0.7773 -1.6956  0.1090
 1646TIP3   OH226428   5.442   4.406  13.399 -0.5859 -0.2679  0.2853
 1646TIP3    H126429   5.433   4.422  13.305 -0.0991  1.9768  0.5525
 1646TIP3    H226430   5.495   4.327  13.406 -2.1753 -1.5354 -1.2868
 1647TIP3   OH226431   6.062   6.058   0.075  0.6937 -0.0864 -0.3229
 1647TIP3    H126432   6.103   6.117   0.013 -0.6107  0.2704 -0.8807
 1647TIP3    H226433   5.970   6.056   0.049  0.0206  0.4033  1.8465
 1648TIP3   OH226434   3.122   2.693  16.995  0.0904  0.3491 -0.0797
 1648TIP3    H126435   3.066   2.644  16.934  0.9648  0.5945 -1.1139
 1648TIP3    H226436   3.184   2.739  16.938  0.1984  1.5150  0.9486
 1649TIP3   OH226437   4.962   3.840  13.600 -0.2351  0.7709 -0.2543
 1649TIP3    H126438   4.939   3.930  13.576  1.8952  1.2934 -0.5006
 1649TIP3    H226439   4.963   3.793  13.516 -0.0690  0.8297 -0.2855
 1650TIP3   OH226440   0.710   4.683   4.493 -0.1399  0.1386  0.6835
 1650TIP3    H126441   0.777   4.721   4.437 -0.6767  0.1472  0.0278
 1650TIP3    H226442   0.713   4.589   4.473  1.5115 -0.2953  2.6466
 1651TIP3   OH226443   6.129   4.906  16.298 -0.1457  0.1793  0.1483
 1651TIP3    H126444   6.164   4.842  16.360 -0.8904  0.8392  1.2816
 1651TIP3    H226445   6.119   4.857  16.216 -1.9831 -1.5768  1.3218
 1652TIP3   OH226446   3.564   1.839  14.421  0.0898  0.0241  1.1086
 1652TIP3    H126447   3.507   1.770  14.456  0.2005 -0.9884 -0.5800
 1652TIP3    H226448   3.636   1.791  14.380 -1.1122  0.9602 -2.3761
 1653TIP3   OH226449   0.844   2.244   0.981 -0.2467  0.2870  0.2611
 1653TIP3    H126450   0.765   2.190   0.983  0.6564 -1.0791  1.6975
 1653TIP3    H226451   0.916   2.181   0.974  0.7819  1.4443 -0.0276
 1654TIP3   OH226452   3.891   2.218  16.007 -0.5144  0.0978  0.3426
 1654TIP3    H126453   3.800   2.206  16.036 -1.7427  2.2996 -2.0878
 1654TIP3    H226454   3.910   2.141  15.954 -1.9905  0.7324 -1.2177
 1655TIP3   OH226455   4.940   5.869   2.475  0.3781  0.0349  0.6309
 1655TIP3    H126456   4.884   5.807   2.522  0.4243 -1.5435 -1.2746
 1655TIP3    H226457   4.966   5.933   2.542 -1.0278 -1.0427  2.2969
 1656TIP3   OH226458   6.006   3.900   4.422  0.9014 -0.2292 -0.5828
 1656TIP3    H126459   6.054   3.831   4.467 -0.3208  1.2065  3.3631
 1656TIP3    H226460   6.074   3.952   4.379  2.0390 -2.3601 -1.5337
 1657TIP3   OH226461   5.955   0.272   6.477 -0.3374 -0.0436 -0.3805
 1657TIP3    H126462   5.871   0.241   6.443  0.3154 -2.4562  0.0124
 1657TIP3    H226463   6.009   0.193   6.482  1.2125  1.0596  1.5287
 1658TIP3   OH226464   6.749   4.891   5.914 -0.0281  0.0551 -0.3391
 1658TIP3    H126465   6.820   4.829   5.896 -0.0522  0.6035 -2.5455
 1658TIP3    H226466   6.792   4.965   5.955  0.8219  0.5832 -2.0822
 1659TIP3   OH226467   2.537   4.183  16.701  0.2724  0.3214  0.1562
 1659TIP3    H126468   2.621   4.226  16.717 -0.1636  1.0248  0.6196
 1659TIP3    H226469   2.539   4.161  16.608  0.5593  1.2344 -0.0612
 1660TIP3   OH226470   3.767   3.959  14.304 -0.3366  0.0998  0.2076
 1660TIP3    H126471   3.847   3.907  14.293 -0.7370 -0.2199 -1.3096
 1660TIP3    H226472   3.798   4.040  14.345  0.5163 -0.6567  1.1548
 1661TIP3   OH226473   6.420   3.283  14.096  0.4847  0.2980 -0.3631
 1661TIP3    H126474   6.512   3.302  14.113  0.1238  1.8377  0.0603
 1661TIP3    H226475   6.414   3.278  14.000  1.1579 -0.7653 -0.3644
 1662TIP3   OH226476   2.807   2.990   3.259  0.1341  0.1632  0.4543
 1662TIP3    H126477   2.731   3.042   3.233  1.1143  1.3427 -0.1795
 1662TIP3    H226478   2.859   2.982   3.179  0.3865 -1.1638  0.7277
 1663TIP3   OH226479   5.071   1.947  11.849  0.3660  0.2224  0.5876
 1663TIP3    H126480   5.135   1.943  11.778  1.3677  0.8413  1.4335
 1663TIP3    H226481   5.033   2.034  11.842 -0.7853 -0.3169 -0.2221
 1664TIP3   OH226482   2.216   5.765  12.955 -0.3548  0.1428 -0.3619
 1664TIP3    H126483   2.188   5.760  12.863  1.3425  1.8459 -1.0466
 1664TIP3    H226484   2.168   5.839  12.991 -0.3794  0.0083 -0.1172
 1665TIP3   OH226485   5.104   5.625  15.041 -0.1502  0.3465 -0.2779
 1665TIP3    H126486   5.128   5.565  15.112  2.2434  1.6486  0.1333
 1665TIP3    H226487   5.010   5.639  15.053 -0.5977 -2.4613  0.2099
 1666TIP3   OH226488   2.719   2.347  16.347  0.3034  0.2490  0.0559
 1666TIP3    H126489   2.775   2.355  16.424  1.2959 -2.6800 -0.2535
 1666TIP3    H226490   2.777   2.369  16.273 -0.2983  1.7822 -0.0005
 1667TIP3   OH226491   5.338   4.094  13.155  0.5968 -0.0543  0.1587
 1667TIP3    H126492   5.318   4.003  13.133  0.4308  0.1832 -0.6835
 1667TIP3    H226493   5.415   4.087  13.212  0.5017 -0.7289  0.2210
 1668TIP3   OH226494   5.063   2.459   1.326 -0.3035 -0.3140 -0.5551
 1668TIP3    H126495   5.115   2.535   1.350  0.4532 -1.0237  0.1079
 1668TIP3    H226496   5.124   2.386   1.328 -0.9156 -0.8849 -1.6297
 1669TIP3   OH226497   2.052   5.924  14.951 -0.1887  0.5700  0.2213
 1669TIP3    H126498   2.047   5.829  14.942  2.3691  0.4864 -1.2175
 1669TIP3    H226499   1.970   5.956  14.913 -0.2179 -0.9850 -1.1177
 1670TIP3   OH226500   6.005   1.736   1.599 -0.0090 -0.4320 -0.7040
 1670TIP3    H126501   5.971   1.722   1.510 -0.1791  2.6623 -1.2422
 1670TIP3    H226502   6.098   1.757   1.586 -0.1489  0.5475 -0.2540
 1671TIP3   OH226503   2.605   2.648  12.793  0.1849  0.1668 -0.0238
 1671TIP3    H126504   2.545   2.655  12.719  0.6596  0.3791 -0.3916
 1671TIP3    H226505   2.691   2.661  12.756  0.6582 -1.9081  0.1836
 1672TIP3   OH226506   6.609   3.685   1.828  0.3664  0.1748  0.7098
 1672TIP3    H126507   6.653   3.676   1.743 -0.6519  0.5763  0.1250
 1672TIP3    H226508   6.663   3.750   1.875 -0.3750  1.7941 -0.5676
 1673TIP3   OH226509   0.943   4.429   4.694  0.8892 -0.2155 -0.3856
 1673TIP3    H126510   0.902   4.374   4.761  0.7751  0.0889 -0.2077
 1673TIP3    H226511   0.912   4.393   4.611  0.7385 -0.3593 -0.2660
 1674TIP3   OH226512   4.418   3.379   2.153  0.7812  0.1638 -0.0907
 1674TIP3    H126513   4.328   3.405   2.169  0.2815 -1.1004 -0.7301
 1674TIP3    H226514   4.431   3.392   2.059  0.6963 -1.2621 -0.3240
 1675TIP3   OH226515   6.104   1.339  16.052 -0.3760 -0.3991 -0.3551
 1675TIP3    H126516   6.187   1.367  16.092 -0.8720  0.1212  0.3531
 1675TIP3    H226517   6.080   1.412  15.995 -1.6619  0.6830  1.4782
 1676TIP3   OH226518   1.460   3.082   1.200  0.0111 -0.2717  0.2261
 1676TIP3    H126519   1.534   3.132   1.235 -0.3514 -0.2349  0.9510
 1676TIP3    H226520   1.470   3.088   1.105  2.0410 -1.8592  0.2795
 1677TIP3   OH226521   3.795   2.265  14.964  0.3772 -0.3622 -0.1728
 1677TIP3    H126522   3.799   2.263  14.868  1.5958  2.5446 -0.2640
 1677TIP3    H226523   3.885   2.280  14.992 -0.1799  0.2774  1.3623
 1678TIP3   OH226524   3.158   3.371   0.304 -0.2736 -0.1024  0.2291
 1678TIP3    H126525   3.095   3.340   0.369 -1.7057 -0.5747 -1.3122
 1678TIP3    H226526   3.191   3.292   0.262 -0.6201  0.2507 -0.7337
 1679TIP3   OH226527   4.315   0.348   1.005  0.0488 -0.0360 -0.2226
 1679TIP3    H126528   4.231   0.365   1.047  0.3772  1.0561  0.0336
 1679TIP3    H226529   4.297   0.278   0.943 -1.1888  0.5777 -0.6000
 1680TIP3   OH226530   3.418   0.395   4.805 -0.1528  0.5149 -0.1710
 1680TIP3    H126531   3.441   0.484   4.832  1.4539  0.0845 -0.0318
 1680TIP3    H226532   3.374   0.358   4.882 -0.3368  1.0051 -0.0331
 1681TIP3   OH226533   1.808   1.895  14.312  0.0015 -0.0096  0.5042
 1681TIP3    H126534   1.864   1.839  14.365  1.1120  0.3364 -0.2626
 1681TIP3    H226535   1.783   1.841  14.238  1.1114  0.4938 -0.2605
 1682TIP3   OH226536   1.320   1.579   3.255 -0.1666 -0.3034  0.1654
 1682TIP3    H126537   1.327   1.672   3.237  0.3668 -0.6720 -1.8202
 1682TIP3    H226538   1.226   1.561   3.258 -0.2853  0.4410  1.5818
 1683TIP3   OH226539   5.747   5.809  17.396 -0.4188  0.1049  0.6576
 1683TIP3    H126540   5.811   5.738  17.388  0.2521  0.7710 -0.0721
 1683TIP3    H226541   5.798   5.889  17.387 -1.2141  0.6812  1.1258
 1684TIP3   OH226542   0.170   4.176  12.131 -0.2330 -0.2901  0.5281
 1684TIP3    H126543   0.090   4.159  12.181 -0.8800 -0.7303 -0.6336
 1684TIP3    H226544   0.152   4.142  12.044  0.2267  1.9678 -0.5237
 1685TIP3   OH226545   5.380   6.752  12.951  0.5528  0.5161 -0.4410
 1685TIP3    H126546   5.409   6.742  13.042 -1.4752  0.7162  0.2921
 1685TIP3    H226547   5.460   6.764  12.901  2.0095 -2.6284  0.8725
 1686TIP3   OH226548   4.267   2.317   4.535  0.0359 -0.4011  0.0790
 1686TIP3    H126549   4.344   2.270   4.504  1.0597 -0.3545  2.3352
 1686TIP3    H226550   4.299   2.405   4.554 -0.3944 -0.5477  1.6135
 1687TIP3   OH226551   1.342   3.435  14.941  0.1201  0.1873  0.2840
 1687TIP3    H126552   1.319   3.474  15.025 -0.5309 -0.7015  0.5259
 1687TIP3    H226553   1.335   3.340  14.955  1.8397 -0.0601 -0.2412
 1688TIP3   OH226554   5.820   1.773   4.386  0.1608  0.0465 -0.1462
 1688TIP3    H126555   5.880   1.795   4.457  2.0491 -0.2544 -1.5429
 1688TIP3    H226556   5.869   1.795   4.306 -1.2151 -1.1471 -1.3792
 1689TIP3   OH226557   4.887   3.528  11.430 -0.0048  1.2024 -0.0220
 1689TIP3    H126558   4.930   3.509  11.346  0.7828  1.7869  0.2364
 1689TIP3    H226559   4.899   3.622  11.442 -2.5886  1.6953 -0.5977
 1690TIP3   OH226560   2.328   0.978   4.568 -0.0653 -0.0347  0.1292
 1690TIP3    H126561   2.346   0.894   4.525  0.5441 -0.2687  0.8206
 1690TIP3    H226562   2.252   1.013   4.521 -1.2595 -1.6476  0.7389
 1691TIP3   OH226563   0.154   3.223   2.104 -0.3525 -0.0455 -0.2182
 1691TIP3    H126564   0.224   3.166   2.137  0.7681  1.7492  0.6727
 1691TIP3    H226565   0.186   3.251   2.018 -0.4748 -0.0597 -0.2677
 1692TIP3   OH226566   5.497   6.026   5.696  0.7182  0.0452 -0.0326
 1692TIP3    H126567   5.460   6.114   5.693  0.5826  0.0106  0.4905
 1692TIP3    H226568   5.421   5.968   5.691  0.7717 -0.0350  0.0822
 1693TIP3   OH226569   1.148   0.636   5.570  0.0134 -0.1981 -0.2290
 1693TIP3    H126570   1.092   0.713   5.568 -1.1919 -1.0355 -0.3349
 1693TIP3    H226571   1.087   0.562   5.570  1.1058 -1.1497  0.5883
 1694TIP3   OH226572   2.018   0.578  15.305  0.4612  0.9732  0.1435
 1694TIP3    H126573   2.021   0.529  15.387  0.5224  0.1902 -0.3163
 1694TIP3    H226574   1.965   0.524  15.247  2.3017  0.3802 -1.0605
 1695TIP3   OH226575   4.251   1.123   2.816  0.0993  0.0441 -0.1759
 1695TIP3    H126576   4.316   1.054   2.806 -1.9818 -2.1691  0.4266
 1695TIP3    H226577   4.231   1.151   2.726  0.4618 -0.6618 -0.4815
 1696TIP3   OH226578   0.974   5.698   5.772 -0.5198  0.1001  0.2035
 1696TIP3    H126579   0.941   5.611   5.747 -0.8983  0.5374 -0.8862
 1696TIP3    H226580   1.047   5.714   5.712 -0.6284  0.6472  0.2123
 1697TIP3   OH226581   4.056   5.783  14.214 -0.1529  0.3418 -0.3478
 1697TIP3    H126582   4.018   5.871  14.210 -1.3312 -0.0436  1.3073
 1697TIP3    H226583   4.043   5.756  14.305 -0.8547 -1.9927 -1.0861
 1698TIP3   OH226584   6.351   6.688   0.951 -0.0386 -0.0703  0.0325
 1698TIP3    H126585   6.369   6.603   0.989 -1.5411 -0.0326  0.9274
 1698TIP3    H226586   6.412   6.696   0.878  0.6209 -1.5868  0.3927
 1699TIP3   OH226587   4.804   4.859  15.746 -0.3792 -0.1292  0.0525
 1699TIP3    H126588   4.877   4.845  15.806 -0.1175  2.5113  0.4516
 1699TIP3    H226589   4.845   4.866  15.660 -0.2920  0.1763  0.1187
 1700TIP3   OH226590   4.049   3.447   4.949 -0.0927 -0.4355  0.2057
 1700TIP3    H126591   4.075   3.491   4.868  1.4252 -0.5882  0.5796
 1700TIP3    H226592   3.962   3.481   4.968 -0.6611 -0.6979 -1.7029
 1701TIP3   OH226593   5.115   1.012   4.473 -0.0273  0.2899 -0.5187
 1701TIP3    H126594   5.178   1.059   4.527 -2.4080  2.1927  0.7932
 1701TIP3    H226595   5.064   1.081   4.429 -1.6366 -1.1050 -0.9842
 1702TIP3   OH226596   5.621   6.690  10.974  0.4081 -0.2998  0.0539
 1702TIP3    H126597   5.554   6.648  11.029  0.9515 -0.4647  0.6059
 1702TIP3    H226598   5.594   6.781  10.970  0.7984 -0.0996  1.3233
 1703TIP3   OH226599   0.687   2.832   2.345 -0.3498 -0.4196  0.5080
 1703TIP3    H126600   0.746   2.802   2.277  0.0074  1.2748  0.0378
 1703TIP3    H226601   0.606   2.782   2.331 -0.2632 -0.1291 -1.1296
 1704TIP3   OH226602   5.433   4.185   1.642 -0.5823  0.3980 -0.1394
 1704TIP3    H126603   5.516   4.220   1.611  0.0696 -1.8935 -1.2091
 1704TIP3    H226604   5.443   4.181   1.737  1.0618 -0.9612 -0.3280
 1705TIP3   OH226605   5.553   6.372   6.009  0.1391  0.4800 -0.1488
 1705TIP3    H126606   5.588   6.401   5.924  0.3292  2.0885  0.4335
 1705TIP3    H226607   5.630   6.342   6.057  0.5350  2.3192  0.4726
 1706TIP3   OH226608   5.519   2.719   3.467  0.3822 -0.2100 -0.5325
 1706TIP3    H126609   5.430   2.729   3.500  1.0558  2.7969  0.7354
 1706TIP3    H226610   5.552   2.809   3.461  3.5707 -1.2547 -0.2970
 1707TIP3   OH226611   3.526   1.267   5.210  0.0427 -0.1272 -0.1849
 1707TIP3    H126612   3.454   1.296   5.154 -1.2657 -1.4678  0.7156
 1707TIP3    H226613   3.594   1.239   5.149 -0.3151  0.8510 -1.0635
 1708TIP3   OH226614   3.412   5.098   4.553  0.3899  0.0989  0.0863
 1708TIP3    H126615   3.399   5.193   4.559  0.0274 -0.0173  1.8221
 1708TIP3    H226616   3.327   5.064   4.525 -0.5631  0.0709  2.7218
 1709TIP3   OH226617   5.699   5.875  12.397  0.2182 -0.9376 -0.4212
 1709TIP3    H126618   5.656   5.865  12.311  0.0558  1.5587 -0.7040
 1709TIP3    H226619   5.791   5.891  12.376  0.0574  0.3663 -0.1964
 1710TIP3   OH226620   5.384   2.332  15.026  0.1110 -0.0311  0.2268
 1710TIP3    H126621   5.400   2.329  15.120 -1.2005 -1.5592  0.4311
 1710TIP3    H226622   5.301   2.380  15.017  1.8600  3.1908 -0.4625
 1711TIP3   OH226623   5.810   6.690  17.300  0.4684 -0.1356  0.3896
 1711TIP3    H126624   5.777   6.747  17.231 -0.5644 -1.5020 -0.2894
 1711TIP3    H226625   5.861   6.748  17.357  1.9742  0.9003 -1.8885
 1712TIP3   OH226626   6.159   5.987  15.629 -0.2766  0.1736 -0.0364
 1712TIP3    H126627   6.227   5.922  15.652  1.1058  1.1211 -1.2825
 1712TIP3    H226628   6.124   6.015  15.714  0.7346 -0.4998  0.6305
 1713TIP3   OH226629   3.794   5.902   3.919  0.3489  0.0232 -0.9549
 1713TIP3    H126630   3.863   5.850   3.960  0.6990  0.5104 -0.9130
 1713TIP3    H226631   3.765   5.962   3.987 -0.8367 -0.8585 -0.6644
 1714TIP3   OH226632   3.576   1.989  12.730 -0.4968 -0.4365 -0.1104
 1714TIP3    H126633   3.521   2.068  12.729  0.1349  0.0065 -1.0307
 1714TIP3    H226634   3.568   1.956  12.820 -1.8476 -0.0982 -0.0792
 1715TIP3   OH226635   6.041   5.689  13.345 -0.3725  0.8090 -0.0981
 1715TIP3    H126636   6.126   5.733  13.335 -0.7807  1.8698  0.8631
 1715TIP3    H226637   6.018   5.703  13.436 -0.5853 -1.3728  0.2484
 1716TIP3   OH226638   2.451   1.332  15.662 -0.3926  0.0518  0.0472
 1716TIP3    H126639   2.451   1.255  15.605  1.3151 -0.0073  0.0620
 1716TIP3    H226640   2.540   1.366  15.656 -0.4035  0.5468  2.0021
 1717TIP3   OH226641   4.700   4.317  14.008  0.1032  0.4456 -0.1620
 1717TIP3    H126642   4.776   4.375  14.000  0.4212  0.1809  0.7918
 1717TIP3    H226643   4.625   4.375  14.001  0.4154  0.9623  0.5680
 1718TIP3   OH226644   3.939   5.041   4.684 -0.7464 -0.6724  0.8645
 1718TIP3    H126645   3.997   5.104   4.726 -2.7008  0.5695  1.8193
 1718TIP3    H226646   3.982   4.956   4.698  0.3741  0.0858  2.3264
 1719TIP3   OH226647   2.562   3.515  16.610  0.0262 -0.3069  0.0978
 1719TIP3    H126648   2.496   3.446  16.601  0.0395 -0.1335 -1.5035
 1719TIP3    H226649   2.631   3.489  16.550 -0.1171  1.2770 -0.7854
 1720TIP3   OH226650   1.994   3.589  14.502 -0.0134  0.3005  0.0706
 1720TIP3    H126651   1.938   3.665  14.487 -2.8581 -1.7978 -0.8469
 1720TIP3    H226652   1.944   3.535  14.563  1.7498 -1.0401  0.3989
 1721TIP3   OH226653   6.694   2.472   4.377  0.3532 -0.1667  0.0889
 1721TIP3    H126654   6.739   2.528   4.440  0.3224  1.1249 -1.0123
 1721TIP3    H226655   6.748   2.393   4.372  1.6269  0.6943 -0.0152
 1722TIP3   OH226656   4.666   5.907  11.776  0.3408  0.4794  0.5277
 1722TIP3    H126657   4.686   5.956  11.696  0.2039 -1.2850 -0.6401
 1722TIP3    H226658   4.750   5.871  11.805  0.1455 -0.2127  0.2512
 1723TIP3   OH226659   0.251   3.917   5.191  0.0850 -0.1954  0.1290
 1723TIP3    H126660   0.183   3.936   5.127 -2.0388  0.0892  2.3031
 1723TIP3    H226661   0.271   3.824   5.178 -0.7438 -0.2889 -0.5457
 1724TIP3   OH226662   0.891   5.598  13.019 -0.5870  0.2192  0.0003
 1724TIP3    H126663   0.856   5.663  13.080 -0.6379 -1.0699  1.4121
 1724TIP3    H226664   0.970   5.566  13.061 -0.3968 -0.4092 -0.8226
 1725TIP3   OH226665   6.163   4.124  12.977 -0.4444 -0.3846  0.6428
 1725TIP3    H126666   6.105   4.116  12.901  1.4880  0.6626 -1.0372
 1725TIP3    H226667   6.120   4.072  13.046 -3.4064  0.4329 -0.4350
 1726TIP3   OH226668   3.369   0.609  11.493 -0.2214 -0.2889  0.4824
 1726TIP3    H126669   3.367   0.561  11.575 -3.6061  0.6482  1.1174
 1726TIP3    H226670   3.370   0.702  11.519  3.5123  0.1777 -0.6875
 1727TIP3   OH226671   3.478   5.317   2.364  0.1396  0.0159  0.1309
 1727TIP3    H126672   3.529   5.306   2.284 -0.3711 -2.5158  0.0646
 1727TIP3    H226673   3.503   5.242   2.418 -0.2110  1.1738  1.9847
 1728TIP3   OH226674   2.312   6.369  10.736  0.8653  0.1114  0.2834
 1728TIP3    H126675   2.255   6.431  10.690  0.7958 -1.0252 -1.2491
 1728TIP3    H226676   2.252   6.309  10.780  0.9194  0.5448  0.9511
 1729TIP3   OH226677   3.892   3.342   5.419  0.9120 -0.5291  0.0841
 1729TIP3    H126678   3.984   3.318   5.411  1.1545 -0.0989  1.3389
 1729TIP3    H226679   3.853   3.273   5.473  0.9826  0.3522  1.3105
 1730TIP3   OH226680   0.933   6.511   0.817 -0.0529 -0.4577  0.4380
 1730TIP3    H126681   0.978   6.538   0.897 -0.8528 -2.9023  1.8425
 1730TIP3    H226682   1.003   6.496   0.753  0.5339  2.4918  0.2694
 1731TIP3   OH226683   6.319   4.168   3.492  0.4223 -0.0466  0.2978
 1731TIP3    H126684   6.376   4.091   3.488 -1.3236 -1.4172  0.4507
 1731TIP3    H226685   6.337   4.215   3.411 -0.1224 -1.8810 -0.9651
 1732TIP3   OH226686   6.498   5.243   1.332 -0.5452  0.1497 -0.3364
 1732TIP3    H126687   6.422   5.186   1.317 -0.3589 -0.5031  1.0530
 1732TIP3    H226688   6.572   5.193   1.297 -0.2330 -0.9861  1.8014
 1733TIP3   OH226689   1.467   4.082   3.994 -0.2094 -0.4115 -0.2968
 1733TIP3    H126690   1.524   4.059   3.920  0.8999  1.8451 -0.2539
 1733TIP3    H226691   1.416   4.157   3.962  0.1379  0.4648  1.1173
 1734TIP3   OH226692   5.426   3.487  15.119  0.0092  0.5766  0.5876
 1734TIP3    H126693   5.455   3.419  15.059 -0.5810  1.7080 -1.0315
 1734TIP3    H226694   5.479   3.473  15.198  0.1863 -1.4769  0.1523
 1735TIP3   OH226695   2.012   2.523  15.021  0.1213 -0.0509  0.3717
 1735TIP3    H126696   1.999   2.616  15.039  0.5573 -0.0141  0.4970
 1735TIP3    H226697   2.106   2.512  15.013  0.1765 -0.6967  1.5691
 1736TIP3   OH226698   5.173   5.538  12.824 -0.3610 -0.2482  0.1418
 1736TIP3    H126699   5.255   5.491  12.842  0.0949  0.5312  0.1301
 1736TIP3    H226700   5.200   5.619  12.781 -0.9286  1.1598  2.2703
 1737TIP3   OH226701   2.059   4.723  11.338 -0.0495 -0.3840 -0.3567
 1737TIP3    H126702   2.029   4.742  11.249  1.3218 -1.2461 -1.0351
 1737TIP3    H226703   2.142   4.769  11.346  0.1975 -0.9125  0.2162
 1738TIP3   OH226704   6.145   2.272  11.104  0.3040  0.0338 -0.5994
 1738TIP3    H126705   6.172   2.362  11.124  0.3068 -0.2424  0.7830
 1738TIP3    H226706   6.176   2.257  11.015  1.6244  0.9144 -0.3239
 1739TIP3   OH226707   5.147   1.789  13.599 -0.0832 -0.1994 -0.0043
 1739TIP3    H126708   5.091   1.773  13.674 -0.0769 -0.2683 -0.0147
 1739TIP3    H226709   5.184   1.876  13.615  0.8335 -0.6917  0.6587
 1740TIP3   OH226710   0.890   1.377   0.578  0.5773  0.5199 -0.2215
 1740TIP3    H126711   0.905   1.285   0.599 -0.0555  0.5095  0.2099
 1740TIP3    H226712   0.805   1.378   0.533  0.9558  0.7979 -0.9424
 1741TIP3   OH226713   6.227   0.221  14.639  0.5204 -0.4332  0.4064
 1741TIP3    H126714   6.319   0.213  14.613  0.7136  0.3593  0.8313
 1741TIP3    H226715   6.178   0.196  14.560  1.0956  0.8920 -0.4092
 1742TIP3   OH226716   0.944   3.216  16.083  0.2830 -0.5569  0.5328
 1742TIP3    H126717   0.879   3.220  16.153 -0.3282 -0.0393 -0.0580
 1742TIP3    H226718   0.894   3.230  16.003  0.9372 -1.3945 -0.0376
 1743TIP3   OH226719   6.718   6.276  13.791  0.2568 -0.3871  0.2769
 1743TIP3    H126720   6.771   6.211  13.745 -0.2402 -0.3710 -0.3411
 1743TIP3    H226721   6.678   6.327  13.721 -0.5910 -0.4154  0.7312
 1744TIP3   OH226722   5.338   4.879   4.623  0.0477  0.3749 -0.6386
 1744TIP3    H126723   5.368   4.968   4.643 -1.6871  1.0126 -0.7535
 1744TIP3    H226724   5.331   4.877   4.527  1.0961 -0.2641 -0.7284
 1745TIP3   OH226725   4.250   3.600   1.066 -0.0932 -0.2938  0.0969
 1745TIP3    H126726   4.206   3.617   1.149 -2.5141  1.5985 -1.4372
 1745TIP3    H226727   4.179   3.593   1.002  1.6910 -1.4462 -1.8966
 1746TIP3   OH226728   1.060   3.212   1.935  0.3993  0.1482  0.5202
 1746TIP3    H126729   1.015   3.211   2.019  1.9060 -0.0354  1.3726
 1746TIP3    H226730   1.028   3.135   1.889 -1.6278  1.1011  0.2299
 1747TIP3   OH226731   3.355   6.183   4.146  0.0917 -0.0691 -0.2092
 1747TIP3    H126732   3.295   6.134   4.089 -1.7529 -0.7725  2.1638
 1747TIP3    H226733   3.414   6.116   4.181 -1.1097 -0.3341  1.4317
 1748TIP3   OH226734   6.404   6.322  16.992  0.5656 -0.1268  0.1469
 1748TIP3    H126735   6.443   6.361  16.914  2.1365 -2.4396 -0.3143
 1748TIP3    H226736   6.478   6.302  17.049 -0.4692  0.5223  1.7756
 1749TIP3   OH226737   3.471   6.790   3.040 -0.1335  0.6825  0.6031
 1749TIP3    H126738   3.401   6.791   2.975 -1.2072 -0.4572  1.6771
 1749TIP3    H226739   3.450   6.862   3.099 -1.7874 -1.0004  2.2254
 1750TIP3   OH226740   5.430   2.880   4.104 -0.2782  0.3576  0.6300
 1750TIP3    H126741   5.351   2.829   4.087 -0.5433  1.8049 -3.6161
 1750TIP3    H226742   5.501   2.815   4.101 -0.9343 -0.3450 -0.7593
 1751TIP3   OH226743   3.296   1.055  14.130  0.6597  0.0877 -0.1247
 1751TIP3    H126744   3.361   1.107  14.082 -0.9343  0.2360 -2.2991
 1751TIP3    H226745   3.340   0.973  14.150  1.0844 -0.4763 -3.0096
 1752TIP3   OH226746   5.746   0.531   1.007  0.3464 -0.6496 -0.3360
 1752TIP3    H126747   5.750   0.506   0.915  0.2284 -0.9390 -0.2614
 1752TIP3    H226748   5.689   0.608   1.009  1.3075  0.1001 -0.6640
 1753TIP3   OH226749   3.895   5.691   0.716  0.0352 -0.1976  0.3484
 1753TIP3    H126750   3.882   5.754   0.787 -1.2386 -0.5189  0.4279
 1753TIP3    H226751   3.812   5.692   0.668  0.0296 -1.7200  0.2818
 1754TIP3   OH226752   0.050   0.568   5.394  0.1513  0.2543  0.8244
 1754TIP3    H126753   0.068   0.613   5.476  0.2649 -0.3924  1.1551
 1754TIP3    H226754  -0.031   0.520   5.409  1.2204 -1.5203  1.2587
 1755TIP3   OH226755   3.932   1.501  16.194 -0.0389  0.3393  0.7787
 1755TIP3    H126756   3.837   1.511  16.202 -0.3382  0.2760 -1.9371
 1755TIP3    H226757   3.967   1.588  16.215 -0.8097  0.7418  0.4398
 1756TIP3   OH226758   0.729   0.884  16.323  0.4403  0.2052  0.0983
 1756TIP3    H126759   0.757   0.971  16.294  1.7035  0.8359  2.8884
 1756TIP3    H226760   0.634   0.892  16.334  0.3895  0.8715 -0.7365
 1757TIP3   OH226761   5.431   3.595  15.555  0.6533 -0.6957  0.2608
 1757TIP3    H126762   5.451   3.616  15.646 -3.2163 -0.3800  1.2434
 1757TIP3    H226763   5.363   3.527  15.561 -0.2073 -0.1733 -2.3242
 1758TIP3   OH226764   0.555   5.303   3.319  0.4594  0.7074 -0.3028
 1758TIP3    H126765   0.639   5.276   3.356  0.3159 -0.6276 -0.9051
 1758TIP3    H226766   0.573   5.388   3.279  0.8349  1.7531  1.9534
 1759TIP3   OH226767   0.090   6.707   3.309  0.0980  1.0370 -0.3521
 1759TIP3    H126768   0.053   6.677   3.393 -0.4239  2.9390  0.1486
 1759TIP3    H226769   0.040   6.659   3.243  0.1787 -0.1264  0.3899
 1760TIP3   OH226770   1.870   3.312   2.131 -0.3984 -0.3825 -0.2303
 1760TIP3    H126771   1.902   3.279   2.214 -0.3760  2.0733  0.8434
 1760TIP3    H226772   1.797   3.254   2.108 -0.3889 -1.1327  1.5093
 1761TIP3   OH226773   1.168   5.943   0.522 -0.3546 -0.4929  0.2874
 1761TIP3    H126774   1.178   5.931   0.616 -0.2818  0.0335  0.3525
 1761TIP3    H226775   1.129   5.861   0.491 -0.8361 -0.4812  0.8490
 1762TIP3   OH226776   3.848   4.909   4.169 -0.1880  0.3902  0.2986
 1762TIP3    H126777   3.933   4.884   4.205  0.0002 -0.5766 -0.7682
 1762TIP3    H226778   3.788   4.842   4.201 -0.1259 -0.1571 -0.7054
 1763TIP3   OH226779   6.450   4.810  17.121  0.0978  0.0189 -0.1299
 1763TIP3    H126780   6.419   4.741  17.062 -2.5567  0.9717  0.0285
 1763TIP3    H226781   6.404   4.793  17.203  0.4346  1.2142  0.3176
 1764TIP3   OH226782   6.500   3.901   0.673 -0.2703  0.4626 -0.0393
 1764TIP3    H126783   6.418   3.942   0.643 -1.4583 -0.2685  1.9708
 1764TIP3    H226784   6.533   3.962   0.739  1.1378  0.9985 -1.1838
 1765TIP3   OH226785   1.016   3.940   5.755  0.1518  0.0485  0.0117
 1765TIP3    H126786   0.951   3.921   5.823  0.8330 -0.2981  0.5867
 1765TIP3    H226787   1.014   3.862   5.699 -0.8960  0.6208 -0.7863
 1766TIP3   OH226788   2.819   4.246   0.235  0.0935  0.0241 -0.0716
 1766TIP3    H126789   2.904   4.241   0.191 -0.1282 -1.7379 -0.3921
 1766TIP3    H226790   2.797   4.154   0.253 -0.9321  0.5682  1.5802
 1767TIP3   OH226791   0.714   0.088  15.141 -0.0154  0.3643 -0.1235
 1767TIP3    H126792   0.652   0.027  15.100  1.3766 -1.3384  0.1645
 1767TIP3    H226793   0.711   0.066  15.234  2.2352 -1.0300 -0.2960
 1768TIP3   OH226794   6.629   4.651   5.680  0.0096 -0.3097  0.6782
 1768TIP3    H126795   6.562   4.691   5.736 -1.8380 -2.1303 -0.1110
 1768TIP3    H226796   6.640   4.713   5.608 -0.0295  0.5107  1.3620
 1769TIP3   OH226797   3.381   3.713   6.951 -0.4237 -0.5568  0.5523
 1769TIP3    H126798   3.291   3.734   6.927  0.8160  3.0336 -1.7746
 1769TIP3    H226799   3.384   3.728   7.045 -2.2048 -0.5227  0.6466
 1770TIP3   OH226800   4.856   3.304  15.110  0.0918  0.2243  0.1487
 1770TIP3    H126801   4.874   3.285  15.202 -1.5883  0.9796  0.6720
 1770TIP3    H226802   4.846   3.217  15.069  1.6114 -0.1331  0.4757
 1771TIP3   OH226803   6.674   3.920   1.424 -0.4804  0.0564  0.0374
 1771TIP3    H126804   6.659   4.014   1.420  0.7778  0.2982  0.5742
 1771TIP3    H226805   6.744   3.903   1.361  0.6436 -0.1856  1.2795
 1772TIP3   OH226806   2.832   0.199  11.717  0.0079  0.3845 -0.2026
 1772TIP3    H126807   2.921   0.166  11.724 -0.7586 -1.7111  0.3684
 1772TIP3    H226808   2.809   0.189  11.624  0.0911  0.1842 -0.1996
 1773TIP3   OH226809   4.676   2.468  15.563  0.3041  0.4371  0.5775
 1773TIP3    H126810   4.745   2.419  15.608  0.4173 -0.3784 -0.4343
 1773TIP3    H226811   4.644   2.407  15.496 -0.5046  1.2723  0.1910
 1774TIP3   OH226812   1.271   1.793  14.368  0.8329 -0.2093 -0.2773
 1774TIP3    H126813   1.229   1.708  14.383  0.1803  0.1277 -0.1421
 1774TIP3    H226814   1.233   1.850  14.434 -0.2164  0.6689 -1.5902
 1775TIP3   OH226815   0.233   4.419  14.760  0.5486  0.4620 -0.5533
 1775TIP3    H126816   0.233   4.404  14.855 -1.1751  0.4986 -0.5127
 1775TIP3    H226817   0.280   4.345  14.723  1.6827  0.7066  0.3611
 1776TIP3   OH226818   3.628   5.388  11.197  0.1151 -0.1999  0.1914
 1776TIP3    H126819   3.653   5.446  11.269 -0.1813  0.0376  0.1034
 1776TIP3    H226820   3.637   5.442  11.119  1.9424 -0.8820 -0.1362
 1777TIP3   OH226821   1.756   1.506  15.416  0.2335 -0.3598  0.1808
 1777TIP3    H126822   1.725   1.458  15.339  0.4556  2.3493 -1.7260
 1777TIP3    H226823   1.850   1.520  15.400 -0.0495  1.7051  0.0224
 1778TIP3   OH226824   2.811   0.562   0.139  0.4727 -0.2000 -0.0926
 1778TIP3    H126825   2.739   0.509   0.105  0.2285  1.0574 -1.6605
 1778TIP3    H226826   2.771   0.618   0.206  0.7450 -1.9476  1.6178
 1779TIP3   OH226827   3.587   1.967   0.848 -0.0096  0.2036 -0.3560
 1779TIP3    H126828   3.609   2.055   0.879  1.9616  0.0139 -1.0651
 1779TIP3    H226829   3.554   1.922   0.926 -0.7180  1.4475  0.0881
 1780TIP3   OH226830   4.914   5.515   4.871  0.7026 -0.1437  0.0070
 1780TIP3    H126831   4.881   5.455   4.804  0.6008  0.9658 -0.9799
 1780TIP3    H226832   4.903   5.602   4.832  1.3826  0.4812  1.1583
 1781TIP3   OH226833   2.321   4.705  16.550 -0.6134  0.0708  0.2615
 1781TIP3    H126834   2.322   4.628  16.607 -1.2758  0.9399  1.4930
 1781TIP3    H226835   2.383   4.683  16.480 -1.0516 -1.7129  0.3734
 1782TIP3   OH226836   1.155   6.580   4.233 -0.0872 -0.2461  0.3634
 1782TIP3    H126837   1.193   6.638   4.299 -0.3466  0.0330  0.2708
 1782TIP3    H226838   1.226   6.566   4.170 -0.3865  1.0224 -0.3002
 1783TIP3   OH226839   4.422   5.554  15.561  0.1836  0.3722 -0.3475
 1783TIP3    H126840   4.340   5.561  15.512  0.0827 -1.0817 -0.4557
 1783TIP3    H226841   4.468   5.481  15.518  0.2378 -0.7289  1.4804
 1784TIP3   OH226842   4.757   3.228  11.972 -0.4358 -0.4238  0.1542
 1784TIP3    H126843   4.784   3.149  11.926  1.5336 -0.0264  0.5195
 1784TIP3    H226844   4.806   3.226  12.054  0.4137  1.6311 -0.2417
 1785TIP3   OH226845   4.471   5.599  14.075 -0.0969  0.0824  0.2730
 1785TIP3    H126846   4.417   5.673  14.104  0.1631  0.7550 -0.8791
 1785TIP3    H226847   4.461   5.533  14.144 -2.1225  0.3028  0.2385
 1786TIP3   OH226848   1.851   3.844  17.288  0.1422 -1.1209  0.1638
 1786TIP3    H126849   1.770   3.794  17.296  0.9602 -2.5170  0.0524
 1786TIP3    H226850   1.911   3.803  17.351  1.0127 -0.6433 -0.3355
 1787TIP3   OH226851   0.776   4.990  11.513 -0.2239 -0.3667 -0.4963
 1787TIP3    H126852   0.817   4.942  11.441  1.9993  0.6619 -0.0046
 1787TIP3    H226853   0.788   4.933  11.590  1.0074  0.2418 -0.2140
 1788TIP3   OH226854   0.953   0.675  13.121 -0.1058 -0.0114  0.4097
 1788TIP3    H126855   0.939   0.581  13.105  1.4641 -0.3368  0.7564
 1788TIP3    H226856   1.048   0.687  13.110 -0.4030  1.7400 -0.6124
 1789TIP3   OH226857   2.956   1.969   5.586  0.2106 -0.0344  0.3050
 1789TIP3    H126858   2.921   2.032   5.648  0.9434  2.3657 -1.5308
 1789TIP3    H226859   3.049   1.962   5.609  0.3293  0.3202 -0.0375
 1790TIP3   OH226860   0.503   2.639  12.393  0.3137 -0.0124 -0.2124
 1790TIP3    H126861   0.535   2.723  12.427 -1.9388  1.7825 -2.2369
 1790TIP3    H226862   0.527   2.640  12.300 -1.6647 -0.5726 -0.7616
 1791TIP3   OH226863   0.486   0.740   2.619 -0.1759 -0.0883  0.2819
 1791TIP3    H126864   0.542   0.708   2.689 -2.0376 -1.3387  1.2873
 1791TIP3    H226865   0.547   0.769   2.551  1.6951  1.0300  2.3179
 1792TIP3   OH226866   3.587   2.883   3.476 -0.2758  0.1642 -0.0650
 1792TIP3    H126867   3.605   2.898   3.569  0.8124  2.7559 -0.6153
 1792TIP3    H226868   3.658   2.825   3.447 -0.5834 -0.6058  0.6714
 1793TIP3   OH226869   0.124   1.888   5.659 -0.1950  0.3032  0.2490
 1793TIP3    H126870   0.181   1.812   5.666 -1.7262 -0.7864  1.5732
 1793TIP3    H226871   0.046   1.855   5.615  0.1782  1.7865 -1.6277
 1794TIP3   OH226872   1.222   4.604  11.486  0.0742  0.0978  0.4227
 1794TIP3    H126873   1.278   4.603  11.409 -2.0053 -2.0943 -1.1978
 1794TIP3    H226874   1.184   4.516  11.490 -3.6736  1.5477  1.0404
 1795TIP3   OH226875   5.623   4.735  16.501  0.6050 -0.2376  0.4213
 1795TIP3    H126876   5.595   4.794  16.431  1.9921  0.2954  0.2910
 1795TIP3    H226877   5.695   4.685  16.463 -1.4470 -3.1144  0.0447
 1796TIP3   OH226878   1.606   5.028  16.441  0.6663  0.9873 -0.5959
 1796TIP3    H126879   1.583   4.943  16.479 -0.4586  0.9568 -1.2914
 1796TIP3    H226880   1.643   5.078  16.514 -0.6296  0.6255  0.3510
 1797TIP3   OH226881   4.197   4.648  17.348  0.3069  0.7069  0.8838
 1797TIP3    H126882   4.162   4.560  17.335  1.4842  0.4720 -1.0988
 1797TIP3    H226883   4.224   4.649  17.440  1.2938 -1.4148  0.6792
 1798TIP3   OH226884   1.010   0.721  12.331  0.5083  0.4575 -0.8667
 1798TIP3    H126885   1.096   0.760  12.341  0.3773  0.3264  1.3096
 1798TIP3    H226886   0.949   0.795  12.329  0.5659  0.5008 -1.0244
 1799TIP3   OH226887   1.763   6.475  13.922 -0.1235 -0.0507 -0.0143
 1799TIP3    H126888   1.707   6.402  13.895 -1.5099  0.2004  1.9427
 1799TIP3    H226889   1.850   6.436  13.930 -1.2136 -2.2964  3.3701
 1800TIP3   OH226890   5.803   6.411   4.625  0.1107  0.0679  0.7638
 1800TIP3    H126891   5.720   6.448   4.655 -0.9088 -1.7987  0.4013
 1800TIP3    H226892   5.810   6.439   4.534 -0.1379  0.2081  0.7867
 1801TIP3   OH226893   0.021   6.340   0.138  0.5386 -0.1401  0.6153
 1801TIP3    H126894   0.059   6.258   0.169 -1.5784 -1.0713  0.8703
 1801TIP3    H226895  -0.029   6.316   0.060  0.6365  1.0789  0.1525
 1802TIP3   OH226896   3.979   2.520   1.358 -0.3115  0.0959 -0.5768
 1802TIP3    H126897   3.907   2.498   1.417  1.5161 -0.8210  1.4018
 1802TIP3    H226898   4.003   2.609   1.382  1.0919 -0.6254  0.8595
 1803TIP3   OH226899   5.767   4.835  14.133  0.3968  0.4576  0.2198
 1803TIP3    H126900   5.696   4.874  14.082 -0.6067  1.2626  2.1603
 1803TIP3    H226901   5.723   4.776  14.194  1.6761 -1.5104 -0.6419
 1804TIP3   OH226902   6.641   1.916   4.488  0.1832 -0.1969 -0.5532
 1804TIP3    H126903   6.554   1.922   4.527  0.4383 -1.3412  0.2497
 1804TIP3    H226904   6.692   1.866   4.552  1.0724 -0.6824 -1.6250
 1805TIP3   OH226905   6.252   5.918  16.825 -0.1263 -0.2447 -0.1304
 1805TIP3    H126906   6.178   5.879  16.779  0.4185 -0.8905 -0.4771
 1805TIP3    H226907   6.253   6.009  16.794 -1.9771  0.3806  1.4072
 1806TIP3   OH226908   2.725   4.787   5.660 -0.3693  0.3739 -0.1300
 1806TIP3    H126909   2.632   4.804   5.644 -0.4347 -0.4643 -0.7362
 1806TIP3    H226910   2.770   4.836   5.591 -0.3574  0.7079  0.1103
 1807TIP3   OH226911   2.829   4.556  13.116 -0.2221  0.8205  0.2203
 1807TIP3    H126912   2.860   4.473  13.080  1.4829  1.2719  0.5815
 1807TIP3    H226913   2.735   4.543  13.129  0.0969 -1.2111  0.7177
 1808TIP3   OH226914   0.780   3.092  14.222  0.6466  0.1850  0.4283
 1808TIP3    H126915   0.763   3.142  14.302 -0.6115  0.6856 -0.1119
 1808TIP3    H226916   0.694   3.059  14.196  1.2603 -1.1780  0.0516
 1809TIP3   OH226917   3.192   3.054  16.969 -0.2011  0.3427  0.7545
 1809TIP3    H126918   3.228   3.065  16.881 -2.3462 -0.5580 -0.3132
 1809TIP3    H226919   3.268   3.035  17.024  1.0135 -0.9316 -1.2422
 1810TIP3   OH226920   5.426   0.418  13.991 -0.1323  0.3402 -0.1658
 1810TIP3    H126921   5.516   0.399  13.966 -0.8921 -1.0481 -2.1292
 1810TIP3    H226922   5.433   0.475  14.067  2.4097 -2.2738  1.7615
 1811TIP3   OH226923   6.689   4.940   3.796 -0.0728  0.3307  0.0822
 1811TIP3    H126924   6.602   4.978   3.784 -1.6841 -2.6182  1.3353
 1811TIP3    H226925   6.690   4.864   3.737  1.6668  0.2627  0.1433
 1812TIP3   OH226926   5.553   5.403  16.240 -0.0342  0.7225 -0.3638
 1812TIP3    H126927   5.555   5.322  16.291 -1.6254  1.5029  1.0020
 1812TIP3    H226928   5.580   5.376  16.152  4.0127 -0.4630  1.0038
 1813TIP3   OH226929   3.747   3.488  14.693  0.0176 -0.8124 -0.0809
 1813TIP3    H126930   3.744   3.582  14.713 -3.1259 -0.8621  0.2103
 1813TIP3    H226931   3.807   3.452  14.759  1.3821  0.9563 -0.2712
 1814TIP3   OH226932   3.897   0.288  15.651 -0.1334 -0.0857 -0.1506
 1814TIP3    H126933   3.981   0.294  15.606 -0.4361  0.7498 -0.6396
 1814TIP3    H226934   3.869   0.379  15.660 -1.4047 -0.3854 -0.8127
 1815TIP3   OH226935   0.112   3.154  14.585 -0.0312  1.2428  0.0436
 1815TIP3    H126936   0.033   3.168  14.636 -0.7454  1.2512 -1.0367
 1815TIP3    H226937   0.083   3.152  14.494  0.8776 -0.9356 -0.2838
 1816TIP3   OH226938   1.963   3.221  14.925 -0.5138  0.3820 -0.0610
 1816TIP3    H126939   1.997   3.132  14.933  1.2701  0.8695 -1.5436
 1816TIP3    H226940   2.041   3.277  14.929 -1.3983  1.7392 -1.0795
 1817TIP3   OH226941   5.711   1.309   5.187  0.5195 -0.0344  0.8668
 1817TIP3    H126942   5.619   1.287   5.206  0.4044 -0.5980 -0.2435
 1817TIP3    H226943   5.724   1.395   5.228 -0.4422 -0.0307  1.1981
 1818TIP3   OH226944   6.538   4.635   3.701 -0.4967  0.6087  0.0576
 1818TIP3    H126945   6.531   4.540   3.701 -0.3863  0.3316  5.0709
 1818TIP3    H226946   6.632   4.652   3.694 -0.4272  0.2756  0.1552
 1819TIP3   OH226947   0.925   3.575   3.163 -0.1342 -0.2690  0.1518
 1819TIP3    H126948   0.950   3.568   3.071  0.4636  0.3431  0.2515
 1819TIP3    H226949   0.908   3.669   3.176 -1.2696 -0.5024  0.4068
 1820TIP3   OH226950   4.278   2.711  12.494 -0.4094  0.3564  0.4067
 1820TIP3    H126951   4.298   2.730  12.585 -0.3500  0.4834  0.3669
 1820TIP3    H226952   4.247   2.793  12.457 -0.7839  0.2156  0.4066
 1821TIP3   OH226953   2.157   2.834   1.655 -0.2998 -0.2730 -0.2700
 1821TIP3    H126954   2.171   2.844   1.749  0.5688 -3.3405  0.0165
 1821TIP3    H226955   2.218   2.896   1.615  0.9046 -0.4827  1.1838
 1822TIP3   OH226956   4.930   3.595  15.073 -0.0836 -0.3046 -0.5004
 1822TIP3    H126957   4.872   3.649  15.019  0.8195 -0.8626 -2.0770
 1822TIP3    H226958   4.878   3.518  15.096 -1.1062  0.7918  1.0787
 1823TIP3   OH226959   1.408   2.209   3.552 -0.5246 -0.0281 -0.1784
 1823TIP3    H126960   1.379   2.126   3.590  1.9193 -0.2021  1.5438
 1823TIP3    H226961   1.432   2.263   3.628 -0.1031  1.4917 -1.3485
 1824TIP3   OH226962   6.371   1.886  15.386  0.2638  0.0537  0.7412
 1824TIP3    H126963   6.430   1.948  15.342  0.8060  0.0397  1.4233
 1824TIP3    H226964   6.429   1.816  15.416 -0.2451 -0.4201  0.6073
 1825TIP3   OH226965   2.228   2.737  13.017 -0.2762  0.0726 -0.3890
 1825TIP3    H126966   2.292   2.674  13.049 -0.0531 -0.1024 -1.1669
 1825TIP3    H226967   2.157   2.684  12.982 -0.8074  0.2651  0.3612
 1826TIP3   OH226968   5.334   6.134   5.289 -0.1312 -0.1381  0.0644
 1826TIP3    H126969   5.312   6.076   5.362  1.3672 -0.4807  0.2724
 1826TIP3    H226970   5.384   6.079   5.229  0.5374  0.7044 -0.1662
 1827TIP3   OH226971   0.824   2.455  14.153 -0.8663  0.2518  0.1197
 1827TIP3    H126972   0.854   2.540  14.123 -0.7486 -0.3292 -1.4640
 1827TIP3    H226973   0.813   2.466  14.248 -0.9663  2.0459 -0.0697
 1828TIP3   OH226974   1.443   5.752   5.458  0.3218 -0.0210  0.1190
 1828TIP3    H126975   1.489   5.694   5.519  0.3829  0.3615  0.4327
 1828TIP3    H226976   1.508   5.771   5.390  0.4802  0.1401  0.3156
 1829TIP3   OH226977   2.704   0.928   4.786  0.4969 -0.4488  0.3760
 1829TIP3    H126978   2.742   1.016   4.790 -0.4601 -0.0369  0.9043
 1829TIP3    H226979   2.731   0.894   4.701  1.6229  0.0056  0.5264
 1830TIP3   OH226980   5.307   0.704   0.310  0.3756 -0.6302  0.2471
 1830TIP3    H126981   5.215   0.724   0.291  0.9782  0.5195 -1.7103
 1830TIP3    H226982   5.313   0.708   0.405 -1.6317 -0.9153  0.4365
 1831TIP3   OH226983   6.316   0.805   1.921 -0.0663  0.6115  0.6099
 1831TIP3    H126984   6.297   0.895   1.947  0.4201  0.7372  0.5437
 1831TIP3    H226985   6.408   0.807   1.896 -0.0237  0.0649  0.7257
 1832TIP3   OH226986   3.585   1.251  15.280 -0.9061  0.5138 -0.2167
 1832TIP3    H126987   3.543   1.308  15.215  0.9974 -0.1002 -2.0766
 1832TIP3    H226988   3.651   1.307  15.322 -1.8447  0.7878  0.9664
 1833TIP3   OH226989   0.518   3.211  11.023  0.4602 -0.0232  0.6463
 1833TIP3    H126990   0.436   3.238  11.065  0.3607  2.0807 -0.7667
 1833TIP3    H226991   0.536   3.279  10.959  2.1780 -1.5819 -0.6476
 1834TIP3   OH226992   0.788   2.382  15.555 -0.4741 -0.5999  0.6717
 1834TIP3    H126993   0.856   2.328  15.515 -1.0940 -0.5346 -0.4892
 1834TIP3    H226994   0.751   2.325  15.623 -0.8457 -1.5169 -0.2622
 1835TIP3   OH226995   5.245   3.934   6.008 -0.6204 -0.0948  0.7422
 1835TIP3    H126996   5.160   3.978   6.003 -0.7132 -0.2544  0.8687
 1835TIP3    H226997   5.303   3.997   6.049  0.0728  1.1191 -1.9206
 1836TIP3   OH226998   3.189   5.180  12.777 -0.0840 -0.4905 -0.0183
 1836TIP3    H126999   3.234   5.261  12.801  0.4626  0.3139 -3.2354
 1836TIP3    H227000   3.259   5.115  12.774 -0.5394 -1.2336  2.6717
 1837TIP3   OH227001   1.508   2.068  15.279 -0.1264  0.4808 -0.3230
 1837TIP3    H127002   1.544   2.076  15.368 -0.2543 -1.5070 -0.0415
 1837TIP3    H227003   1.424   2.114  15.283 -0.6172 -0.4655  0.9077
 1838TIP3   OH227004   3.580   3.541   0.507 -0.0498  0.6444 -0.6147
 1838TIP3    H127005   3.496   3.500   0.484 -0.3828  0.6047  0.5973
 1838TIP3    H227006   3.630   3.472   0.550 -0.4446  1.3243  1.0401
 1839TIP3   OH227007   1.991   1.266  15.426 -0.2295  0.0428 -0.2386
 1839TIP3    H127008   2.067   1.217  15.458  0.7246  0.4786 -1.7048
 1839TIP3    H227009   2.019   1.358  15.429 -1.1726  0.3199  0.3767
 1840TIP3   OH227010   1.667   5.678   2.102 -0.4383 -0.2923  0.1813
 1840TIP3    H127011   1.674   5.727   2.020 -1.7672 -1.4540 -0.6770
 1840TIP3    H227012   1.693   5.589   2.079 -0.0704 -0.4609  1.2102
 1841TIP3   OH227013   3.131   2.690  15.677  0.1087  0.8081 -0.1321
 1841TIP3    H127014   3.098   2.682  15.766 -1.3148 -0.8181 -0.7552
 1841TIP3    H227015   3.183   2.771  15.678 -1.4132  1.8386  1.6865
 1842TIP3   OH227016   1.072   6.743  11.965 -0.0634  0.7596  0.2545
 1842TIP3    H127017   1.148   6.727  12.021 -0.3990 -1.0549  0.2470
 1842TIP3    H227018   0.998   6.746  12.026 -0.2354  0.3786  0.0685
 1843TIP3   OH227019   6.608   5.250   1.975  0.0125  0.1917  0.0149
 1843TIP3    H127020   6.521   5.258   1.938 -0.7536 -0.0282  1.6765
 1843TIP3    H227021   6.644   5.171   1.935 -2.4143 -2.5228  2.7096
 1844TIP3   OH227022   3.618   5.001  11.895  0.1180  0.0352  0.3476
 1844TIP3    H127023   3.673   4.971  11.822 -0.0008  0.4373  0.0905
 1844TIP3    H227024   3.679   5.049  11.952 -0.1311  1.3177 -0.4230
 1845TIP3   OH227025   1.094   5.463  10.875  0.4471 -0.2187 -0.1862
 1845TIP3    H127026   1.157   5.407  10.830  1.1242  1.8149 -1.9099
 1845TIP3    H227027   1.148   5.528  10.919 -0.3867  0.0395  0.4855
 1846TIP3   OH227028   5.706   0.141  10.754 -0.4046  0.7859 -0.5338
 1846TIP3    H127029   5.684   0.229  10.725 -0.4194  0.8127 -0.4422
 1846TIP3    H227030   5.802   0.141  10.763 -0.2035  0.2227 -2.3864
 1847TIP3   OH227031   3.583   5.344  17.347 -0.1295  0.5883 -0.8868
 1847TIP3    H127032   3.515   5.317  17.285 -0.8925  0.5430 -0.0648
 1847TIP3    H227033   3.581   5.439  17.345  0.2486  0.5878 -1.3504
 1848TIP3   OH227034   4.374   6.358  14.305  0.8108  0.3946 -0.0802
 1848TIP3    H127035   4.413   6.408  14.233  1.6179  0.6267  0.4970
 1848TIP3    H227036   4.353   6.423  14.371  1.1213  0.0661  0.3478
 1849TIP3   OH227037   1.859   5.297  12.790  0.1207 -0.3006  0.1016
 1849TIP3    H127038   1.941   5.254  12.813  0.6948 -1.7959 -3.9659
 1849TIP3    H227039   1.870   5.324  12.699 -3.5494  0.3208 -0.3275
 1850TIP3   OH227040   3.062   0.309  17.374  0.0571 -0.3446  0.3249
 1850TIP3    H127041   3.056   0.333  17.466 -0.2419 -0.2066  0.2722
 1850TIP3    H227042   2.972   0.316  17.342  0.0305 -1.1221  0.2102
 1851TIP3   OH227043   5.184   2.054   5.652 -1.0277 -0.0056  0.0406
 1851TIP3    H127044   5.212   2.138   5.690 -0.1475 -0.3902  0.2767
 1851TIP3    H227045   5.100   2.036   5.694 -2.6203  2.0385 -1.9852
 1852TIP3   OH227046   3.583   6.281   1.734  0.1586  0.2152 -0.6885
 1852TIP3    H127047   3.612   6.196   1.765 -0.4102  0.2029 -0.1722
 1852TIP3    H227048   3.650   6.343   1.765  0.1562  0.0590 -0.3661
 1853TIP3   OH227049   2.566   1.760   3.796  0.2470 -0.4005 -0.5691
 1853TIP3    H127050   2.615   1.839   3.820  0.7327 -0.9123  0.1349
 1853TIP3    H227051   2.600   1.736   3.710  0.7740 -0.3894 -0.3642
 1854TIP3   OH227052   3.370   6.163  16.134  0.3718 -0.1119 -0.2407
 1854TIP3    H127053   3.372   6.197  16.045  1.9893  1.4105  0.3232
 1854TIP3    H227054   3.358   6.069  16.123  1.1230 -0.0331 -2.0845
 1855TIP3   OH227055   6.616   6.797  11.165  0.1783  0.1827  0.5835
 1855TIP3    H127056   6.668   6.874  11.143  2.5984 -2.0258 -2.0914
 1855TIP3    H227057   6.659   6.760  11.242 -0.0835  0.6364  0.9582
 1856TIP3   OH227058   4.872   0.265   3.734 -0.1342  0.6532 -0.1742
 1856TIP3    H127059   4.779   0.244   3.730 -0.2086  0.6066  1.2119
 1856TIP3    H227060   4.878   0.356   3.705 -0.0859 -0.4169 -4.0429
 1857TIP3   OH227061   4.700   6.649  13.260 -0.0889 -0.4504 -0.7736
 1857TIP3    H127062   4.721   6.564  13.222  2.2138 -0.0330 -0.5807
 1857TIP3    H227063   4.746   6.712  13.204 -0.7264  0.5810 -0.1764
 1858TIP3   OH227064   5.406   3.739   2.279  0.2061 -0.2701 -0.1700
 1858TIP3    H127065   5.366   3.740   2.192 -2.5494 -0.0722  0.9834
 1858TIP3    H227066   5.388   3.652   2.314 -0.7688  0.3569  1.0014
 1859TIP3   OH227067   2.381   3.845  15.028  0.0852  0.0945 -0.7028
 1859TIP3    H127068   2.301   3.896  15.011 -0.6322 -1.0136 -0.7505
 1859TIP3    H227069   2.431   3.900  15.089 -1.6701 -0.0772  0.9885
 1860TIP3   OH227070   0.594   0.485  11.339 -0.1209 -0.7527 -0.2050
 1860TIP3    H127071   0.524   0.545  11.363 -0.1637 -0.5067 -0.9152
 1860TIP3    H227072   0.580   0.469  11.246  1.1453 -0.1919 -0.5075
 1861TIP3   OH227073   3.178   2.869   4.340  0.4318  0.5391 -0.1759
 1861TIP3    H127074   3.148   2.814   4.412  0.0799 -0.9969 -1.4427
 1861TIP3    H227075   3.115   2.940   4.336  0.3328  0.5219  0.8731
 1862TIP3   OH227076   6.027   5.753  11.684  0.3415 -0.0217  0.0432
 1862TIP3    H127077   6.050   5.785  11.771  1.0379  0.2819 -0.2416
 1862TIP3    H227078   6.108   5.714  11.651  0.1169 -0.0164 -0.5171
 1863TIP3   OH227079   4.631   0.465   3.669  0.5731  0.0324 -0.3153
 1863TIP3    H127080   4.660   0.519   3.742 -1.6574  0.0594  0.6488
 1863TIP3    H227081   4.651   0.516   3.591  0.8336  1.0979  0.4290
 1864TIP3   OH227082   1.200   5.868   3.641 -0.5941 -0.1446  0.1738
 1864TIP3    H127083   1.253   5.806   3.591 -2.1622 -1.1824 -0.2827
 1864TIP3    H227084   1.204   5.949   3.590  0.6520 -0.1522  0.2340
 1865TIP3   OH227085   2.874   4.373   0.459  0.4951  0.8838 -0.1258
 1865TIP3    H127086   2.856   4.304   0.523  1.1787  1.8266  1.1515
 1865TIP3    H227087   2.856   4.334   0.374  0.2968 -0.6654  0.6066
 1866TIP3   OH227088   2.125   2.431  13.997  0.5484  0.2340 -0.0744
 1866TIP3    H127089   2.186   2.368  13.958 -0.8068  0.5266 -2.9033
 1866TIP3    H227090   2.172   2.465  14.073  2.3748 -2.2476  0.0381
 1867TIP3   OH227091   2.141   0.544  12.273  0.6745  0.3861 -0.1296
 1867TIP3    H127092   2.221   0.574  12.229  0.4305  1.9037  0.4100
 1867TIP3    H227093   2.077   0.539  12.202  1.2525 -0.9347 -0.5828
 1868TIP3   OH227094   0.604   0.239  16.509 -0.2566 -0.2001 -0.5982
 1868TIP3    H127095   0.599   0.324  16.464  0.5950  0.1680 -0.0166
 1868TIP3    H227096   0.576   0.259  16.598 -1.6393 -0.8661 -0.8572
 1869TIP3   OH227097   3.976   3.488   3.977 -0.1288  0.4407  0.2174
 1869TIP3    H127098   4.070   3.489   3.997  0.1494 -2.7721 -0.3081
 1869TIP3    H227099   3.934   3.515   4.059  1.2280 -0.4803  1.2768
 1870TIP3   OH227100   6.048   4.722  12.454  0.6444 -0.0734  0.3261
 1870TIP3    H127101   6.014   4.803  12.492  0.3454 -0.2181  0.3694
 1870TIP3    H227102   6.024   4.726  12.361  0.5389 -0.1599  0.3496
 1871TIP3   OH227103   5.757   1.274   2.694  0.0296 -0.7137  0.1718
 1871TIP3    H127104   5.707   1.240   2.619  1.7628 -0.3079 -1.2464
 1871TIP3    H227105   5.691   1.313   2.751 -1.1700  1.6107 -2.5529
 1872TIP3   OH227106   5.327   6.737   6.381 -0.4517  0.1072 -0.1354
 1872TIP3    H127107   5.398   6.688   6.340 -1.0226 -2.4367  1.6822
 1872TIP3    H227108   5.371   6.810   6.426  0.5460  0.7334 -2.0177
 1873TIP3   OH227109   1.942   0.130  16.662  0.0480  0.1374 -0.6441
 1873TIP3    H127110   1.852   0.157  16.681 -0.4590 -0.0165 -2.5425
 1873TIP3    H227111   1.987   0.134  16.746 -1.9624 -0.6835  0.5537
 1874TIP3   OH227112   6.149   6.565  13.243  0.6713  0.2843 -0.1137
 1874TIP3    H127113   6.070   6.599  13.199 -0.1757  0.6907  1.6343
 1874TIP3    H227114   6.166   6.482  13.200 -1.7831 -0.6785  0.5727
 1875TIP3   OH227115   4.300   5.854  14.953 -0.0272 -0.2485  0.4277
 1875TIP3    H127116   4.350   5.889  14.880  0.9125 -0.7700  0.8077
 1875TIP3    H227117   4.300   5.759  14.939  2.1792 -0.6047  2.3043
 1876TIP3   OH227118   0.513   2.955  16.270  0.8354  0.4824  0.5016
 1876TIP3    H127119   0.563   2.943  16.189  0.6389  0.1483  0.4285
 1876TIP3    H227120   0.430   2.994  16.242  0.5013 -0.2403  0.4609
 1877TIP3   OH227121   0.883   6.052   1.768 -0.3669  0.0199  0.0762
 1877TIP3    H127122   0.853   5.968   1.802 -0.0659 -0.0227  0.2429
 1877TIP3    H227123   0.869   6.114   1.839  0.3915 -0.0961  0.3378
 1878TIP3   OH227124   3.348   4.014  14.851  0.1772 -0.3892  0.0313
 1878TIP3    H127125   3.381   4.031  14.939 -0.3664  0.9307  0.0062
 1878TIP3    H227126   3.380   4.088  14.799 -1.0643 -0.1583 -0.4477
 1879TIP3   OH227127   1.170   1.212  15.702 -0.5211 -0.0889  0.3116
 1879TIP3    H127128   1.222   1.261  15.638 -1.1317  0.8865  0.5570
 1879TIP3    H227129   1.085   1.200  15.660 -1.1787  1.2224  1.2267
 1880TIP3   OH227130   0.833   3.882  12.926 -0.0023 -0.4135 -0.8900
 1880TIP3    H127131   0.928   3.883  12.941  0.1241  1.8954 -1.5116
 1880TIP3    H227132   0.821   3.818  12.856  1.2321 -0.0427 -1.4766
 1881TIP3   OH227133   5.333   5.921   4.267  0.4727  0.3360  0.5365
 1881TIP3    H127134   5.286   5.839   4.283 -0.0419  0.8000  1.4805
 1881TIP3    H227135   5.389   5.902   4.192 -1.2259 -0.2422 -0.6519
 1882TIP3   OH227136   0.456   0.034   4.222 -0.6536  0.6514 -0.1950
 1882TIP3    H127137   0.458   0.098   4.293 -1.3893  0.3906  0.0678
 1882TIP3    H227138   0.483  -0.048   4.263 -1.5246  0.4040 -0.1093
 1883TIP3   OH227139   3.353   6.176   5.425 -0.2377 -0.0501 -0.1182
 1883TIP3    H127140   3.385   6.111   5.363 -0.1259  0.2060 -0.3359
 1883TIP3    H227141   3.379   6.143   5.510  2.2972  1.0118 -0.3717
 1884TIP3   OH227142   1.659   1.555   1.185  0.3847 -0.1338 -0.1498
 1884TIP3    H127143   1.747   1.526   1.162  0.5899 -0.3908  0.9078
 1884TIP3    H227144   1.602   1.506   1.127  0.7559 -2.2551  1.1468
 1885TIP3   OH227145   5.554   1.570  12.232  0.2571  0.6061 -0.2674
 1885TIP3    H127146   5.475   1.619  12.257  0.0882  1.3008 -2.0348
 1885TIP3    H227147   5.539   1.483  12.268 -2.5669 -0.0592 -2.6297
 1886TIP3   OH227148   0.567   3.708   4.669 -0.0101 -0.2725 -0.2764
 1886TIP3    H127149   0.638   3.748   4.720 -0.2576 -0.1582 -0.0168
 1886TIP3    H227150   0.499   3.690   4.734 -0.7821  0.8860 -0.7222
 1887TIP3   OH227151   5.209   1.907  11.412 -0.1861  0.1994 -0.5048
 1887TIP3    H127152   5.207   1.817  11.444  1.5240  0.6712  1.1292
 1887TIP3    H227153   5.193   1.900  11.318 -0.0685 -1.8125 -0.4128
 1888TIP3   OH227154   5.450   0.480   2.056 -0.2864 -0.0716 -0.5110
 1888TIP3    H127155   5.544   0.464   2.068 -0.0836 -0.5872 -2.3953
 1888TIP3    H227156   5.438   0.479   1.961 -2.3959 -1.0813 -0.2849
 1889TIP3   OH227157   1.297   4.882   4.114  0.2500  0.3908 -0.1175
 1889TIP3    H127158   1.302   4.889   4.209  1.9921  0.8976 -0.2204
 1889TIP3    H227159   1.306   4.973   4.083  4.5682 -0.1088 -0.8755
 1890TIP3   OH227160   1.844   0.561   4.160  0.3078  0.3225 -0.2826
 1890TIP3    H127161   1.781   0.605   4.216  0.3499 -1.9351  1.6967
 1890TIP3    H227162   1.791   0.514   4.095 -0.0373 -0.6131  0.6472
 1891TIP3   OH227163   6.667   5.219  11.571 -0.7701 -0.1233 -0.4280
 1891TIP3    H127164   6.659   5.137  11.619 -1.1277  0.1435 -0.0193
 1891TIP3    H227165   6.758   5.222  11.543 -0.4320 -0.0612  0.6494
 1892TIP3   OH227166   3.855   5.983   4.416 -0.3919 -0.4141 -0.1523
 1892TIP3    H127167   3.928   6.031   4.375  1.1792 -2.4786  0.0350
 1892TIP3    H227168   3.872   5.991   4.510  0.3395 -1.8850 -0.1285
 1893TIP3   OH227169   2.775   6.527   1.103 -0.4514  0.1225 -0.2174
 1893TIP3    H127170   2.796   6.435   1.120  0.2686  0.4911  1.0415
 1893TIP3    H227171   2.859   6.572   1.109 -1.1041  1.1920  1.6861
 1894TIP3   OH227172   3.312   5.174  14.051  0.2705 -0.5999  0.4328
 1894TIP3    H127173   3.360   5.130  14.121 -1.6495 -2.2725  0.7710
 1894TIP3    H227174   3.324   5.267  14.069  0.1812 -0.9793  2.7459
 1895TIP3   OH227175   6.272   2.690  16.249 -0.4640 -0.1719 -0.1743
 1895TIP3    H127176   6.256   2.599  16.222 -1.2630 -0.1313  0.1528
 1895TIP3    H227177   6.185   2.730  16.252 -0.2444  0.2418  1.0057
 1896TIP3   OH227178   1.306   4.359   1.915  0.2723  0.3643  0.0842
 1896TIP3    H127179   1.231   4.378   1.972 -1.3859 -1.0802 -1.4754
 1896TIP3    H227180   1.372   4.322   1.973 -0.8194  0.2296  1.2835
 1897TIP3   OH227181   1.082   5.805  13.578  0.4046  0.4356  0.1997
 1897TIP3    H127182   0.999   5.788  13.624 -0.5515  0.5632 -1.3871
 1897TIP3    H227183   1.080   5.745  13.503  2.3140 -0.3814  0.7434
 1898TIP3   OH227184   1.097   3.695   0.276  0.6175  0.1273  1.2614
 1898TIP3    H127185   1.139   3.771   0.317  1.6789  0.3816 -0.2000
 1898TIP3    H227186   1.117   3.622   0.334  0.0539  0.8363  2.4042
 1899TIP3   OH227187   4.425   0.755  17.186 -0.7387 -0.2089  0.2036
 1899TIP3    H127188   4.381   0.763  17.271  0.5526 -2.0723  1.1259
 1899TIP3    H227189   4.518   0.748  17.208 -0.3269 -0.0681 -1.4154
 1900TIP3   OH227190   3.762   0.597  11.307  0.2320 -0.0157 -0.0006
 1900TIP3    H127191   3.675   0.558  11.303  0.2679 -0.5499  2.6837
 1900TIP3    H227192   3.812   0.551  11.240 -1.0889 -0.9103 -0.4035
 1901TIP3   OH227193   1.681   3.895   4.960 -0.4018  0.0841  0.1336
 1901TIP3    H127194   1.685   3.802   4.981 -0.3111  0.3554  1.3926
 1901TIP3    H227195   1.772   3.921   4.949 -0.2374  0.4738  2.0114
 1902TIP3   OH227196   1.294   6.279  13.425  0.0813  0.0766 -0.3598
 1902TIP3    H127197   1.341   6.290  13.341  2.0092  0.3030  0.6823
 1902TIP3    H227198   1.269   6.368  13.449  1.7755  0.3810  0.4701
 1903TIP3   OH227199   6.682   5.781   1.325  0.0551  0.2990 -0.0905
 1903TIP3    H127200   6.596   5.817   1.346 -0.3263  0.6749 -2.1203
 1903TIP3    H227201   6.730   5.786   1.407 -1.2907  1.7140  0.6656
 1904TIP3   OH227202   2.188   4.867  10.975 -0.1134  0.7513  0.3999
 1904TIP3    H127203   2.192   4.852  10.881 -2.5989  0.5204  0.2732
 1904TIP3    H227204   2.205   4.960  10.986  0.0828  0.7968 -0.2707
 1905TIP3   OH227205   0.021   2.371   2.127  0.2215  0.4139 -0.2183
 1905TIP3    H127206  -0.025   2.319   2.061  0.1026  0.4399 -0.1543
 1905TIP3    H227207   0.052   2.307   2.191  0.3009  0.3933 -0.2765
 1906TIP3   OH227208   6.619   4.022  13.987 -0.2589  0.4230 -0.0036
 1906TIP3    H127209   6.688   4.078  14.023  0.2492 -0.5362  0.5489
 1906TIP3    H227210   6.659   3.935  13.984 -0.6895  0.2496 -1.7853
 1907TIP3   OH227211   4.060   6.576  14.022  0.5678  0.4878 -0.2391
 1907TIP3    H127212   4.068   6.600  14.114  2.7804  0.2641 -0.3108
 1907TIP3    H227213   4.101   6.490  14.015 -1.7879 -0.6685 -1.0618
 1908TIP3   OH227214   4.520   2.938  12.573 -0.2794 -0.1316  0.3731
 1908TIP3    H127215   4.471   3.013  12.605 -0.7113 -1.1477  2.2162
 1908TIP3    H227216   4.490   2.865  12.627 -0.8323 -1.9296 -2.1830
 1909TIP3   OH227217   3.357   0.277  13.571  0.3007 -0.6153 -0.6144
 1909TIP3    H127218   3.341   0.330  13.492 -1.5661  0.4028  0.3856
 1909TIP3    H227219   3.303   0.199  13.558 -0.2682 -0.2956 -0.2298
 1910TIP3   OH227220   2.055   5.387   0.287 -0.0164  0.0578  0.3118
 1910TIP3    H127221   1.998   5.374   0.211  0.2300 -1.4231  0.3551
 1910TIP3    H227222   2.099   5.303   0.299  0.2821  0.3969  1.8250
 1911TIP3   OH227223   3.161   6.749   2.143  0.2862 -0.1661  0.3964
 1911TIP3    H127224   3.137   6.840   2.163  0.4345 -0.1069  0.3096
 1911TIP3    H227225   3.107   6.697   2.201 -0.8620 -0.0840 -0.5560
 1912TIP3   OH227226   6.464   4.674   1.670 -0.2691  0.1895  0.0251
 1912TIP3    H127227   6.384   4.682   1.618 -0.9321  1.6127  1.1936
 1912TIP3    H227228   6.534   4.695   1.608 -0.6771 -1.7716 -1.1994
 1913TIP3   OH227229   4.350   3.020   2.040 -0.0523  0.3490 -0.2963
 1913TIP3    H127230   4.332   3.080   1.968 -1.2706 -0.3017 -0.5804
 1913TIP3    H227231   4.317   3.065   2.118 -2.4332 -0.5273 -0.7176
 1914TIP3   OH227232   2.207   2.383   0.680  0.2426 -0.3929 -0.2020
 1914TIP3    H127233   2.120   2.406   0.646  0.6292  0.9246 -0.3515
 1914TIP3    H227234   2.220   2.443   0.754  0.8598 -0.8491  0.0618
 1915TIP3   OH227235   5.362   1.712  12.622 -0.5058 -0.5088  0.0446
 1915TIP3    H127236   5.270   1.738  12.628 -0.8408 -1.2234 -1.3634
 1915TIP3    H227237   5.359   1.624  12.585  0.7367 -0.8055  0.5909
 1916TIP3   OH227238   0.134   5.483   3.639 -0.6226  0.1869  0.1878
 1916TIP3    H127239   0.149   5.510   3.549  1.5462  1.4132  0.8612
 1916TIP3    H227240   0.157   5.559   3.692 -0.1156 -1.0591  1.8546
 1917TIP3   OH227241   2.742   5.179  11.368  0.5591  0.4897  1.0682
 1917TIP3    H127242   2.835   5.154  11.369  0.5250  0.2415 -0.4272
 1917TIP3    H227243   2.729   5.221  11.283 -0.7586  0.3239  1.1700
 1918TIP3   OH227244   4.429   6.527  14.076 -0.5469  0.0460  0.2611
 1918TIP3    H127245   4.389   6.597  14.128 -0.5261  0.7512 -0.6499
 1918TIP3    H227246   4.515   6.562  14.052 -0.5292 -0.2991 -0.1778
 1919TIP3   OH227247   0.277   3.632   5.205  0.4863  0.0321 -0.5407
 1919TIP3    H127248   0.281   3.540   5.232  0.0317 -0.1163 -0.9636
 1919TIP3    H227249   0.257   3.680   5.285  0.5407 -0.2538 -0.3547
 1920TIP3   OH227250   6.471   3.622   2.636 -0.1842 -0.1559  0.0569
 1920TIP3    H127251   6.540   3.569   2.676 -1.4857 -0.6543  1.7547
 1920TIP3    H227252   6.512   3.707   2.619  1.6947 -1.3607 -1.9145
 1921TIP3   OH227253   5.982   0.813   2.886  0.3078  0.1020  0.3793
 1921TIP3    H127254   6.027   0.764   2.818  1.7230  1.2829  0.4144
 1921TIP3    H227255   6.016   0.902   2.878 -0.3364  0.5221  1.9044
 1922TIP3   OH227256   5.024   2.872  11.847  0.2157 -0.6530  0.3439
 1922TIP3    H127257   5.010   2.796  11.790 -1.4042 -1.1008  1.3018
 1922TIP3    H227258   5.101   2.848  11.899  0.9413 -0.7674 -0.7407
 1923TIP3   OH227259   5.993   5.105  16.428  0.2563  0.1296  0.1519
 1923TIP3    H127260   6.070   5.064  16.389 -0.7269 -1.4380 -0.2488
 1923TIP3    H227261   5.919   5.064  16.384 -0.9117 -1.2385  3.0941
 1924TIP3   OH227262   5.020   6.117  17.356  0.4841 -0.4766 -0.0553
 1924TIP3    H127263   5.107   6.141  17.325  0.8314  0.4206  1.4703
 1924TIP3    H227264   5.006   6.029  17.322  2.6572 -1.2745  0.9010
 1925TIP3   OH227265   2.596   0.931  16.756  0.1442  0.4787  0.1967
 1925TIP3    H127266   2.676   0.974  16.727  0.9092 -1.4762 -0.7858
 1925TIP3    H227267   2.540   0.927  16.679 -0.2665  0.4842  0.4869
 1926TIP3   OH227268   0.901   3.213   2.165  0.2808  0.4151  1.1602
 1926TIP3    H127269   0.813   3.239   2.193  0.8911  1.3538  2.3353
 1926TIP3    H227270   0.922   3.137   2.219  0.5454  0.7881  1.5984
 1927TIP3   OH227271   2.051   2.971   2.915  0.3188 -0.0474 -0.0605
 1927TIP3    H127272   2.024   2.908   2.848  0.4711 -0.0965 -0.0769
 1927TIP3    H227273   1.971   3.015   2.941  0.1800 -0.3735  0.0768
 1928TIP3   OH227274   0.485   0.480   1.536 -0.2348 -0.0791  1.0472
 1928TIP3    H127275   0.409   0.477   1.479  0.8519 -0.1752 -0.4517
 1928TIP3    H227276   0.465   0.419   1.607 -1.4079 -0.3307  0.5107
 1929TIP3   OH227277   2.095   2.518  12.917  0.0179  0.0587 -0.6797
 1929TIP3    H127278   2.085   2.491  13.008  0.4109  3.3863  0.4933
 1929TIP3    H227279   2.006   2.520  12.882 -0.2270 -0.3922 -0.0772
 1930TIP3   OH227280   6.005   0.738  11.366 -0.1553  0.0590  0.1380
 1930TIP3    H127281   6.001   0.703  11.455  1.0800  0.8612  0.5333
 1930TIP3    H227282   5.914   0.760  11.344 -0.4749 -0.1858  1.1740
 1931TIP3   OH227283   2.667   4.056  11.865  0.4498 -0.6767 -0.0762
 1931TIP3    H127284   2.669   4.002  11.944 -1.9806 -1.7418 -0.6606
 1931TIP3    H227285   2.574   4.069  11.846  0.9087  2.5199 -0.8372
 1932TIP3   OH227286   2.322   6.561   3.960 -0.6385 -0.0595 -0.2537
 1932TIP3    H127287   2.401   6.605   3.990 -0.4807  1.1348 -2.2679
 1932TIP3    H227288   2.351   6.474   3.933 -0.0320  0.2997 -0.7848
 1933TIP3   OH227289   1.639   2.423  15.740  0.1363  0.5515 -0.1600
 1933TIP3    H127290   1.584   2.363  15.790 -3.1884  1.3146 -2.5871
 1933TIP3    H227291   1.653   2.497  15.799  1.5333 -1.0744  1.6885
 1934TIP3   OH227292   1.569   1.533   1.805  0.2475 -0.6421  0.2125
 1934TIP3    H127293   1.607   1.613   1.842  0.6987  0.7874 -3.0044
 1934TIP3    H227294   1.592   1.536   1.712 -2.0091 -3.2050 -0.5607
 1935TIP3   OH227295   1.080   0.869  11.195 -0.0611 -0.0915  0.3515
 1935TIP3    H127296   1.006   0.827  11.239 -1.0715  1.4672  0.2364
 1935TIP3    H227297   1.049   0.885  11.106  1.1415 -1.1414 -0.2935
 1936TIP3   OH227298   3.312   4.656  13.530 -0.2930 -0.2890 -0.7208
 1936TIP3    H127299   3.379   4.600  13.569  0.8526  0.6399 -1.2938
 1936TIP3    H227300   3.320   4.640  13.436 -0.8086 -0.0802 -0.8022
 1937TIP3   OH227301   2.774   4.028   5.840 -0.5622 -0.4603 -0.1372
 1937TIP3    H127302   2.703   4.024   5.904 -0.1894  0.3067  0.3517
 1937TIP3    H227303   2.847   4.067   5.889 -1.2144  3.2787 -1.7890
 1938TIP3   OH227304   6.486   4.894   0.916  0.1033  0.4328 -0.4023
 1938TIP3    H127305   6.447   4.981   0.907  2.1319  1.2164 -2.3918
 1938TIP3    H227306   6.571   4.910   0.958 -0.3590 -0.8984  1.1704
 1939TIP3   OH227307   6.223   5.386  12.323  0.2238 -0.1422  0.2936
 1939TIP3    H127308   6.274   5.462  12.293  1.5073 -1.2465 -0.4465
 1939TIP3    H227309   6.274   5.311  12.293 -0.1478 -1.3160  2.4384
 1940TIP3   OH227310   6.742   6.032   5.765  0.1573  0.4975  0.1696
 1940TIP3    H127311   6.817   5.987   5.804  0.2176  0.1238 -0.3678
 1940TIP3    H227312   6.772   6.122   5.752  0.7955  0.1678 -0.7656
 1941TIP3   OH227313   6.181   0.976   0.615  0.4193 -0.0689 -0.2035
 1941TIP3    H127314   6.115   0.983   0.684  0.5294  2.3833 -0.2487
 1941TIP3    H227315   6.134   0.939   0.540 -0.2567 -0.6682  0.5006
 1942TIP3   OH227316   5.143   4.682  15.635  0.2184 -0.3616  1.0115
 1942TIP3    H127317   5.197   4.635  15.572 -1.3931  0.4272 -1.0719
 1942TIP3    H227318   5.093   4.614  15.680  0.0906 -0.8389  0.1599
 1943TIP3   OH227319   5.511   4.533   4.840 -0.3972  0.3268 -0.2716
 1943TIP3    H127320   5.484   4.441   4.841 -0.4048  0.3335  0.9299
 1943TIP3    H227321   5.602   4.530   4.811 -1.1088  0.1754 -2.7254
 1944TIP3   OH227322   1.510   0.635   2.619 -0.3015 -0.0599 -0.7147
 1944TIP3    H127323   1.511   0.573   2.692 -0.5927  0.3294 -0.3778
 1944TIP3    H227324   1.530   0.582   2.542  0.2241 -0.4348 -0.3225
 1945TIP3   OH227325   5.608   3.065  12.620 -0.1369 -0.1718  0.0834
 1945TIP3    H127326   5.564   3.045  12.537  0.3068 -0.6524 -0.0429
 1945TIP3    H227327   5.590   3.158  12.635 -0.5741 -0.1846 -0.3344
 1946TIP3   OH227328   3.965   0.796  15.654 -0.2077  0.0643 -0.4925
 1946TIP3    H127329   3.989   0.829  15.568 -1.3845  2.6475  0.0579
 1946TIP3    H227330   4.045   0.807  15.707  0.3889 -1.1281 -1.1289
 1947TIP3   OH227331   2.590   3.203  11.031  0.1952  0.0661  0.0771
 1947TIP3    H127332   2.541   3.277  10.996  0.3847  0.3043  0.3130
 1947TIP3    H227333   2.584   3.136  10.962 -0.9213 -0.1198  0.3268
 1948TIP3   OH227334   3.829   2.591  12.840  0.0252  0.0219 -0.2499
 1948TIP3    H127335   3.798   2.501  12.829  1.2360 -0.5652  0.8065
 1948TIP3    H227336   3.838   2.624  12.751  1.7246 -1.6959 -0.7953
 1949TIP3   OH227337   4.589   5.650   4.159  0.1481  0.1567  0.3116
 1949TIP3    H127338   4.556   5.720   4.102 -0.3535  0.6939  1.2203
 1949TIP3    H227339   4.510   5.609   4.194  0.4442 -0.7923 -0.1129
 1950TIP3   OH227340   1.867   0.385  13.197 -0.2437 -0.0086  0.5012
 1950TIP3    H127341   1.929   0.390  13.270  1.2886  1.0327 -0.8205
 1950TIP3    H227342   1.914   0.339  13.128 -2.6010 -3.5015  0.9555
 1951TIP3   OH227343   4.973   1.832   4.462 -0.1698 -0.1927 -0.6900
 1951TIP3    H127344   4.892   1.867   4.498  0.5846  1.6850 -0.7326
 1951TIP3    H227345   4.951   1.808   4.372 -0.4899  1.1086 -0.9796
 1952TIP3   OH227346   5.439   5.343  13.592 -0.3964  0.4987  0.1096
 1952TIP3    H127347   5.451   5.380  13.679 -2.8470 -1.6257  1.4793
 1952TIP3    H227348   5.518   5.289  13.578 -1.2802 -1.6177  2.4755
 1953TIP3   OH227349   5.042   4.191  11.852  0.0474  0.1956  0.0768
 1953TIP3    H127350   5.044   4.283  11.878  1.2325  0.6683 -1.4856
 1953TIP3    H227351   4.984   4.149  11.915 -1.5005  2.2386  0.1168
 1954TIP3   OH227352   4.576   2.561  12.338  0.3942  1.0027  0.0013
 1954TIP3    H127353   4.576   2.656  12.332  2.1025  0.9720 -1.0021
 1954TIP3    H227354   4.642   2.532  12.275  0.7690 -0.7869  1.1207
 1955TIP3   OH227355   1.941   1.211  11.570 -0.0938  0.4668  0.4246
 1955TIP3    H127356   2.001   1.280  11.597  1.2439 -0.3888 -0.2185
 1955TIP3    H227357   1.885   1.251  11.503  0.9460  0.8222 -0.2479
 1956TIP3   OH227358   1.759   4.338  11.798 -0.0250  0.0098  0.7893
 1956TIP3    H127359   1.753   4.257  11.848  1.5286 -0.4613  0.2916
 1956TIP3    H227360   1.687   4.333  11.735  0.1133 -1.0548  0.6936
 1957TIP3   OH227361   3.168   1.486   4.586 -0.1650  0.4101  0.0765
 1957TIP3    H127362   3.146   1.477   4.494  0.8220  2.7497 -0.4590
 1957TIP3    H227363   3.173   1.581   4.601 -0.2099  0.0991  2.5094
 1958TIP3   OH227364   3.778   0.621  12.875 -0.1032  0.3970  0.3851
 1958TIP3    H127365   3.797   0.674  12.952  0.8595  0.1153  0.3571
 1958TIP3    H227366   3.864   0.593  12.843 -0.5727 -1.3545  0.5335
 1959TIP3   OH227367   1.745   5.004  12.843 -0.3727 -0.4365  0.2979
 1959TIP3    H127368   1.742   5.084  12.896 -2.1253  0.3116 -0.8509
 1959TIP3    H227369   1.692   4.941  12.892 -1.0887 -0.0839 -0.0083
 1960TIP3   OH227370   3.539   1.515   2.744  0.1611  0.4586  0.4675
 1960TIP3    H127371   3.522   1.428   2.780 -0.3177  0.7703  1.0118
 1960TIP3    H227372   3.609   1.501   2.680  2.5229  0.2207  2.9308
 1961TIP3   OH227373   1.096   5.878  11.204 -0.0379  0.2962 -0.1812
 1961TIP3    H127374   1.189   5.896  11.222  0.4243 -1.4985 -0.5730
 1961TIP3    H227375   1.060   5.962  11.177  2.2728  0.4584 -3.2637
 1962TIP3   OH227376   1.414   0.863  17.184  0.3271  0.8013 -0.0017
 1962TIP3    H127377   1.356   0.930  17.148 -2.1116 -1.1884 -0.0627
 1962TIP3    H227378   1.465   0.833  17.110  0.7012  1.8585 -0.1865
 1963TIP3   OH227379   3.377   3.691   0.038  0.3501  0.1914 -0.7646
 1963TIP3    H127380   3.312   3.740   0.087  0.4586  0.4674 -0.8962
 1963TIP3    H227381   3.410   3.626   0.100 -0.6905 -0.5419 -0.9677
 1964TIP3   OH227382   0.734   5.322   5.565 -0.3595 -0.5698  0.0207
 1964TIP3    H127383   0.820   5.354   5.591 -0.1907 -0.3459 -0.7609
 1964TIP3    H227384   0.726   5.236   5.605 -0.0798 -0.2803  0.7055
 1965TIP3   OH227385   6.413   2.476  17.179 -0.5573 -0.3286  0.6369
 1965TIP3    H127386   6.392   2.561  17.219  0.5922  0.4852 -0.4156
 1965TIP3    H227387   6.458   2.428  17.248 -0.4740  0.2438  0.9909
 1966TIP3   OH227388   2.954   1.036   5.315 -0.5135 -0.1910 -0.1538
 1966TIP3    H127389   3.020   0.976   5.279 -1.6145 -1.2850 -0.4196
 1966TIP3    H227390   2.894   0.979   5.363  0.4586  1.1103  2.8709
 1967TIP3   OH227391   1.558   4.689   2.831  0.4120 -0.1606 -0.2527
 1967TIP3    H127392   1.631   4.668   2.888  1.6755  1.8492 -0.9955
 1967TIP3    H227393   1.589   4.669   2.743 -0.5080 -0.7077 -0.4678
 1968TIP3   OH227394   1.271   0.337  10.710  0.0806 -0.2459  0.0020
 1968TIP3    H127395   1.318   0.264  10.751 -0.3779 -0.0554  0.9000
 1968TIP3    H227396   1.299   0.414  10.758  1.4090  0.3613 -1.6625
 1969TIP3   OH227397   5.343   0.002  11.565 -0.4040  0.0786  0.1671
 1969TIP3    H127398   5.258  -0.016  11.605 -0.7120 -0.4562 -0.7175
 1969TIP3    H227399   5.387  -0.083  11.561  0.0584  0.3067  0.3658
 1970TIP3   OH227400   2.704   1.553   4.360  0.6090  0.6115  0.0848
 1970TIP3    H127401   2.714   1.635   4.406 -1.0401  1.9613 -1.7603
 1970TIP3    H227402   2.609   1.539   4.355  0.8182 -0.9461 -0.4049
 1971TIP3   OH227403   6.716   1.426   1.492  0.4123 -0.4048 -0.1228
 1971TIP3    H127404   6.736   1.470   1.409 -1.2083 -0.2324 -0.4639
 1971TIP3    H227405   6.771   1.472   1.556  0.2434  0.7982 -0.7917
 1972TIP3   OH227406   4.914   6.774   0.105  0.3649  0.2657  0.7067
 1972TIP3    H127407   4.912   6.841   0.036  0.5188  0.2850  0.7209
 1972TIP3    H227408   4.861   6.811   0.176 -0.1627  0.0602  0.4315
 1973TIP3   OH227409   4.978   0.853  17.061 -0.3898  0.1495  0.6147
 1973TIP3    H127410   4.976   0.839  17.156 -1.6789  0.6596  0.6731
 1973TIP3    H227411   5.042   0.924  17.049  0.1279 -0.2328  1.0432
 1974TIP3   OH227412   2.203   6.715  17.262  0.1047 -0.0579  0.1080
 1974TIP3    H127413   2.248   6.683  17.184  1.7503  1.0183  0.5850
 1974TIP3    H227414   2.219   6.648  17.328  0.9243  0.2641  0.2432
 1975TIP3   OH227415   5.897   4.844   2.850  0.1088 -0.4604 -0.1039
 1975TIP3    H127416   5.948   4.830   2.770 -2.1644 -1.8688 -1.4180
 1975TIP3    H227417   5.907   4.762   2.899  0.6462  0.0012  0.5702
 1976TIP3   OH227418   0.505   6.385  14.201 -0.8755  0.5373 -0.3164
 1976TIP3    H127419   0.511   6.298  14.239  1.5610  1.6937  2.3928
 1976TIP3    H227420   0.427   6.424  14.242 -1.4753 -0.0642 -0.8747
 1977TIP3   OH227421   3.977   4.285  10.675  0.5326 -0.5335  0.4561
 1977TIP3    H127422   3.941   4.233  10.746  0.3681 -0.0301  0.7439
 1977TIP3    H227423   3.911   4.280  10.605 -0.4254  0.9023  1.2080
 1978TIP3   OH227424   2.691   6.650  16.224 -0.1828 -0.2109 -0.1085
 1978TIP3    H127425   2.662   6.598  16.299  0.7480  1.2708  1.3400
 1978TIP3    H227426   2.612   6.663  16.172 -0.7103 -1.8289  0.2276
 1979TIP3   OH227427   0.820   2.223   0.010 -0.5705  0.4012  0.1004
 1979TIP3    H127428   0.822   2.277  -0.069 -0.0664 -0.1296 -0.2647
 1979TIP3    H227429   0.890   2.258   0.065  0.0151 -0.1008 -0.3014
 1980TIP3   OH227430   5.098   3.655  16.366 -0.0834 -0.1013  0.3032
 1980TIP3    H127431   5.156   3.613  16.430 -0.1543  0.0686  0.4811
 1980TIP3    H227432   5.053   3.723  16.416  1.1725  1.2459 -0.3265
 1981TIP3   OH227433   0.746   1.229  11.154 -0.3535 -0.6725 -0.3218
 1981TIP3    H127434   0.838   1.236  11.126 -0.2930  0.7467  0.1258
 1981TIP3    H227435   0.696   1.248  11.075 -0.2368 -0.2742 -0.3042
 1982TIP3   OH227436   4.693   0.559   2.498 -0.0963 -0.5291  0.3335
 1982TIP3    H127437   4.697   0.469   2.532  0.7331  0.1495  2.1435
 1982TIP3    H227438   4.664   0.612   2.572  0.2130  0.8207 -0.4709
 1983TIP3   OH227439   1.179   0.435   1.052  0.2461  0.2554  0.0642
 1983TIP3    H127440   1.222   0.391   1.126 -1.1967 -1.4231 -0.0421
 1983TIP3    H227441   1.161   0.523   1.085 -0.7731 -0.5786  1.9221
 1984TIP3   OH227442   5.621   4.112   3.091 -0.0585  0.3188 -0.7261
 1984TIP3    H127443   5.658   4.028   3.118  0.5156  1.0010  0.7114
 1984TIP3    H227444   5.552   4.089   3.029 -1.7066 -1.3937  1.5932
 1985TIP3   OH227445   0.244   4.331  17.048  0.6562 -1.0136  0.1886
 1985TIP3    H127446   0.224   4.242  17.019  0.5064 -0.5642 -1.1245
 1985TIP3    H227447   0.239   4.385  16.969  0.9027  0.1449  0.9292
 1986TIP3   OH227448   1.935   3.154   0.455  0.1323  0.2893  0.4993
 1986TIP3    H127449   1.895   3.241   0.450 -0.1675  0.1680  0.7620
 1986TIP3    H227450   1.861   3.094   0.456  0.3335  0.0438  0.5883
 1987TIP3   OH227451   0.801   0.715  16.528  0.6038 -0.3848 -0.0204
 1987TIP3    H127452   0.843   0.774  16.590 -0.1039  0.0315  0.0673
 1987TIP3    H227453   0.792   0.766  16.448  0.3443 -0.5041 -0.0674
 1988TIP3   OH227454   5.243   5.688   6.074  0.6721 -0.5408  0.4714
 1988TIP3    H127455   5.169   5.693   6.135 -1.2043 -0.0289 -1.7022
 1988TIP3    H227456   5.248   5.596   6.050 -0.0928 -0.3994 -0.2856
 1989TIP3   OH227457   4.503   2.539   3.953  0.2300  0.0894 -0.1305
 1989TIP3    H127458   4.486   2.611   3.892  0.4217  1.1396  1.0028
 1989TIP3    H227459   4.544   2.581   4.029  0.8817 -1.3097  0.3270
 1990TIP3   OH227460   1.664   1.747  15.487 -0.1121  0.2028  0.0357
 1990TIP3    H127461   1.678   1.653  15.485  0.4143  0.2790 -2.2193
 1990TIP3    H227462   1.752   1.785  15.482 -0.3966  0.7762 -0.8401
 1991TIP3   OH227463   1.541   5.018  13.832 -0.3750 -0.5051 -0.2999
 1991TIP3    H127464   1.545   4.922  13.826  1.0518 -0.3822 -2.1473
 1991TIP3    H227465   1.478   5.044  13.765 -1.3725 -0.1325  0.7293
 1992TIP3   OH227466   4.626   6.182  13.363 -0.7334 -0.2051 -0.1338
 1992TIP3    H127467   4.582   6.097  13.372 -0.5183 -0.4343 -1.1710
 1992TIP3    H227468   4.676   6.175  13.282 -1.2454  1.1568 -0.5931
 1993TIP3   OH227469   2.218   1.954   5.290 -0.4664 -0.0117  0.2986
 1993TIP3    H127470   2.275   2.025   5.318 -0.2785  0.2148 -0.6489
 1993TIP3    H227471   2.249   1.930   5.203 -1.1308 -0.6120  0.2126
 1994TIP3   OH227472   0.558   3.183   1.284  0.0186  0.4191  0.2198
 1994TIP3    H127473   0.615   3.227   1.348 -0.2873  0.1130  0.7101
 1994TIP3    H227474   0.500   3.129   1.337  0.3033 -0.4884 -0.3593
 1995TIP3   OH227475   4.665   6.094   0.612 -0.1436  0.0876 -0.3424
 1995TIP3    H127476   4.595   6.106   0.547 -0.3432 -1.1131 -0.3620
 1995TIP3    H227477   4.624   6.118   0.696  0.0492  1.4128 -0.5959
 1996TIP3   OH227478   6.388   0.388  12.924  0.0526 -0.2213 -0.4521
 1996TIP3    H127479   6.423   0.335  12.995  1.8713  1.4089 -0.0539
 1996TIP3    H227480   6.457   0.390  12.858 -0.6280  0.2999 -1.1729
 1997TIP3   OH227481   6.763   2.712  12.104 -0.2538  0.7871 -0.3153
 1997TIP3    H127482   6.716   2.719  12.186 -1.6031  1.5612 -1.1120
 1997TIP3    H227483   6.836   2.652  12.122 -1.4846 -0.3821  0.9852
 1998TIP3   OH227484   6.792   1.416   0.763  0.3136  0.2036 -0.1793
 1998TIP3    H127485   6.736   1.339   0.758 -0.7207  0.8482  0.9404
 1998TIP3    H227486   6.795   1.449   0.673  0.0993 -0.6625 -0.5158
 1999TIP3   OH227487   1.989   2.529  15.860  0.5948  0.1083 -0.4330
 1999TIP3    H127488   2.065   2.494  15.815 -0.4368 -1.9164 -0.7047
 1999TIP3    H227489   1.933   2.564  15.790  0.9756  1.0579 -0.2838
 2000TIP3   OH227490   6.468   5.991  16.653 -0.3710 -0.3079  0.5022
 2000TIP3    H127491   6.391   6.042  16.627  1.7936  2.1590 -1.7689
 2000TIP3    H227492   6.519   6.052  16.706  0.8786 -1.1897  0.3378
 2001TIP3   OH227493   1.265   1.635  17.122  0.2522 -0.8683  0.4986
 2001TIP3    H127494   1.316   1.648  17.202  0.1252 -0.0554  0.4561
 2001TIP3    H227495   1.178   1.669  17.144  0.3706 -0.1311 -0.1634
 2002TIP3   OH227496   4.878   1.928   1.192  0.3215 -0.2250  0.0893
 2002TIP3    H127497   4.924   1.845   1.175  0.6467  0.2308 -1.4286
 2002TIP3    H227498   4.794   1.918   1.148  0.0909  0.0043  0.4729
 2003TIP3   OH227499   5.454   5.456  12.821  0.3331 -0.0850  0.3206
 2003TIP3    H127500   5.507   5.419  12.750 -0.2802  0.5360 -0.4641
 2003TIP3    H227501   5.472   5.550  12.818 -0.1723  0.0220  0.5885
 2004TIP3   OH227502   1.157   1.400  14.970 -0.2518 -0.6122 -0.2648
 2004TIP3    H127503   1.157   1.495  14.983 -1.2506 -0.4840 -1.0916
 2004TIP3    H227504   1.246   1.373  14.992 -0.3236  0.3193  1.3141
 2005TIP3   OH227505   5.578   0.887   5.751 -0.8017  0.1238  1.0457
 2005TIP3    H127506   5.629   0.867   5.673 -0.8019 -0.2893  1.1486
 2005TIP3    H227507   5.632   0.858   5.824  0.0175  2.1980  1.3276
 2006TIP3   OH227508   5.672   0.634  12.485  0.2807 -0.2988  0.4709
 2006TIP3    H127509   5.760   0.608  12.455 -0.1857 -0.7601 -0.5248
 2006TIP3    H227510   5.612   0.589  12.426 -0.6238  0.6102  0.6783
 2007TIP3   OH227511   0.881   0.904   3.118  0.2370 -0.3014  0.3826
 2007TIP3    H127512   0.943   0.895   3.045  0.7027  0.0994  0.7162
 2007TIP3    H227513   0.885   0.819   3.162  0.4611 -0.3206  0.3311
 2008TIP3   OH227514   2.263   0.263  14.506  0.1257  0.3793 -0.0699
 2008TIP3    H127515   2.318   0.324  14.457  1.8004 -0.6811  0.4103
 2008TIP3    H227516   2.233   0.200  14.440 -2.5379  2.2242 -0.7959
 2009TIP3   OH227517   0.093   4.630  15.399 -0.5522 -0.3328  0.0210
 2009TIP3    H127518   0.137   4.650  15.317  2.6498  2.0729  2.0370
 2009TIP3    H227519   0.009   4.676  15.394 -0.4389 -0.2697 -1.8715
 2010TIP3   OH227520   0.985   4.557   1.871 -0.5592  0.2086 -0.4089
 2010TIP3    H127521   1.023   4.477   1.909 -2.2102 -0.7018 -0.5713
 2010TIP3    H227522   1.045   4.580   1.800 -0.9442 -1.9352 -1.5148
 2011TIP3   OH227523   1.591   3.911  13.105  0.2691 -0.3929  0.1301
 2011TIP3    H127524   1.534   3.987  13.092  1.1092 -0.2359 -4.6100
 2011TIP3    H227525   1.532   3.841  13.131 -1.7949  0.3960 -1.9922
 2012TIP3   OH227526   1.588   0.039   4.605 -0.1351  0.4180 -0.1847
 2012TIP3    H127527   1.526  -0.033   4.615  1.8733 -1.3567  0.0747
 2012TIP3    H227528   1.598   0.049   4.511 -1.7033  1.5864 -0.2717
 2013TIP3   OH227529   6.256   4.024  10.853 -0.0579  0.0477 -0.3246
 2013TIP3    H127530   6.339   3.978  10.839 -0.5744 -1.0730  0.1994
 2013TIP3    H227531   6.257   4.095  10.788  1.7811  0.7275  0.3801
 2014TIP3   OH227532   3.420   1.423   0.938  0.1152  0.3713 -0.1264
 2014TIP3    H127533   3.435   1.372   1.018 -1.2269  0.6091  0.3039
 2014TIP3    H227534   3.501   1.471   0.925  0.5386 -0.0544  0.8199
 2015TIP3   OH227535   3.035   0.109  10.596  0.4801 -0.0802 -0.1766
 2015TIP3    H127536   3.047   0.202  10.578  0.7609  0.2193  1.4446
 2015TIP3    H227537   3.116   0.082  10.639 -0.6441 -0.3806  1.8736
 2016TIP3   OH227538   4.884   2.320   3.151 -0.1159  0.7736  0.1876
 2016TIP3    H127539   4.910   2.412   3.152  1.0973  0.4484  1.1228
 2016TIP3    H227540   4.966   2.272   3.162 -0.9449 -0.3524  1.8559
 2017TIP3   OH227541   3.741   6.397  15.784 -0.0144 -0.5064  0.3245
 2017TIP3    H127542   3.649   6.421  15.794 -0.0938  0.5782 -2.2395
 2017TIP3    H227543   3.787   6.481  15.776  0.9618 -1.0619 -0.0816
 2018TIP3   OH227544   4.922   2.536  12.030 -0.3174  0.0492  0.0277
 2018TIP3    H127545   4.826   2.528  12.030 -0.6100  2.6505 -0.8242
 2018TIP3    H227546   4.943   2.566  12.119 -0.0666 -2.0294  0.7192
 2019TIP3   OH227547   2.030   2.381  11.531 -0.1240 -0.5249 -0.4314
 2019TIP3    H127548   2.079   2.379  11.449  1.1527  0.2931  0.2765
 2019TIP3    H227549   2.097   2.379  11.599 -0.8980  2.2244  0.5697
 2020TIP3   OH227550   4.323   6.283  14.575 -0.3668  0.2228  0.2197
 2020TIP3    H127551   4.353   6.368  14.606  0.8424 -1.1648  3.3721
 2020TIP3    H227552   4.394   6.251  14.519 -0.3354  0.8237 -0.0890
 2021TIP3   OH227553   4.006   3.031   2.171 -0.5059  0.1950  0.4619
 2021TIP3    H127554   4.060   3.109   2.185 -0.8819  0.1955  2.0987
 2021TIP3    H227555   4.004   3.020   2.076  1.6684  0.6894  0.3080
 2022TIP3   OH227556   2.986   3.803   3.195 -0.5365 -0.2393  0.8931
 2022TIP3    H127557   2.996   3.737   3.127  0.5409  0.1045  0.7042
 2022TIP3    H227558   2.929   3.762   3.260 -1.2932 -0.7006 -0.0273
 2023TIP3   OH227559   5.798   3.527  15.285  0.1829 -0.4439 -0.1604
 2023TIP3    H127560   5.859   3.529  15.212 -1.0584 -1.6136 -1.2700
 2023TIP3    H227561   5.852   3.544  15.362  1.6856 -0.2495 -1.2312
 2024TIP3   OH227562   2.725   4.154  14.925  0.0907 -0.1894 -0.1201
 2024TIP3    H127563   2.818   4.174  14.934  0.0473 -0.1296  0.2317
 2024TIP3    H227564   2.696   4.137  15.015  0.0563 -1.4983 -0.3580
 2025TIP3   OH227565   5.762   6.190   3.156  0.3452  0.1955  0.6287
 2025TIP3    H127566   5.721   6.250   3.218 -1.5482  0.2310 -0.5818
 2025TIP3    H227567   5.688   6.149   3.110  1.5885 -2.2429  0.6289
 2026TIP3   OH227568   5.345   3.273  14.300  0.4578  0.3589 -0.2971
 2026TIP3    H127569   5.258   3.238  14.317  0.4606  0.3067 -0.3903
 2026TIP3    H227570   5.392   3.264  14.383  0.0763  1.2523  0.0345
 2027TIP3   OH227571   1.164   3.977  16.168 -0.0526 -0.0147 -0.4107
 2027TIP3    H127572   1.240   3.999  16.221  1.9676 -0.0403 -3.0575
 2027TIP3    H227573   1.125   4.061  16.144  1.5250  0.2908 -2.1509
 2028TIP3   OH227574   2.876   6.098   2.002 -0.2838  0.0447  0.5898
 2028TIP3    H127575   2.815   6.024   2.002 -2.3069  1.5971 -0.8956
 2028TIP3    H227576   2.825   6.171   2.037  1.1462  1.1030  0.5384
 2029TIP3   OH227577   0.570   6.741   1.794  0.0399 -0.1934 -0.2982
 2029TIP3    H127578   0.625   6.819   1.785 -0.3984 -0.0440 -2.0487
 2029TIP3    H227579   0.566   6.704   1.706 -0.8717 -1.4379  0.2382
 2030TIP3   OH227580   5.463   2.114  14.882 -0.3180 -0.5349 -0.5728
 2030TIP3    H127581   5.413   2.186  14.919 -1.2998 -1.3736 -0.1946
 2030TIP3    H227582   5.554   2.144  14.883 -0.7188  0.7203 -0.5261
 2031TIP3   OH227583   4.878   2.051  14.448 -0.2343  0.3867  0.1223
 2031TIP3    H127584   4.877   2.124  14.511 -0.4504 -0.5384  1.2302
 2031TIP3    H227585   4.970   2.040  14.426 -0.3806  2.4168 -1.8153
 2032TIP3   OH227586   1.233   0.206  14.173 -0.1409  0.2710  0.2498
 2032TIP3    H127587   1.157   0.173  14.125 -0.2302 -3.3208  2.4544
 2032TIP3    H227588   1.197   0.242  14.254  0.3617  0.9623  0.1772
 2033TIP3   OH227589   3.804   3.332  15.806  0.5225 -0.5781 -0.1026
 2033TIP3    H127590   3.783   3.285  15.726 -0.3819 -0.5419  0.1043
 2033TIP3    H227591   3.734   3.310  15.867  0.7640  0.0325  0.4158
 2034TIP3   OH227592   6.752   2.841   1.681 -0.1494  0.1310  0.2733
 2034TIP3    H127593   6.729   2.755   1.718 -2.0789  0.8797  0.9315
 2034TIP3    H227594   6.786   2.890   1.755 -0.5802  0.4475  0.2652
 2035TIP3   OH227595   4.808   0.584   3.912  0.2272 -0.4047 -0.5224
 2035TIP3    H127596   4.808   0.649   3.983  0.2540 -0.3000 -0.6181
 2035TIP3    H227597   4.859   0.511   3.947 -1.3262 -1.1542  0.2908
 2036TIP3   OH227598   1.822   4.000   2.605 -1.0092 -0.0381  0.7361
 2036TIP3    H127599   1.841   3.944   2.679 -0.9828 -1.4903 -0.3307
 2036TIP3    H227600   1.905   4.005   2.556 -1.3314 -0.0730  0.1750
 2037TIP3   OH227601   5.640   0.308  14.904  0.0164 -0.4390 -0.1282
 2037TIP3    H127602   5.703   0.346  14.966 -0.3212 -0.8380  0.4672
 2037TIP3    H227603   5.694   0.278  14.831  0.4970 -0.5509  0.2667
 2038TIP3   OH227604   4.653   0.520   4.890 -0.3814  0.5762 -0.0631
 2038TIP3    H127605   4.659   0.425   4.901  0.9086  0.8354  2.0894
 2038TIP3    H227606   4.568   0.543   4.928  0.9286  0.6202  3.1298
 2039TIP3   OH227607   0.089   4.590  13.547  0.3426  0.0258 -0.2170
 2039TIP3    H127608   0.111   4.667  13.600  1.1781 -0.4907  0.2162
 2039TIP3    H227609   0.003   4.610  13.510 -0.2976  0.3940  1.3622
 2040TIP3   OH227610   5.949   1.877  13.722  0.1097 -0.4787  0.1816
 2040TIP3    H127611   5.861   1.838  13.728  0.3374 -0.7852  2.6833
 2040TIP3    H227612   5.933   1.969  13.700 -0.8127 -0.5887  0.3628
 2041TIP3   OH227613   1.960   4.441   4.929  0.3107  0.3129 -0.2715
 2041TIP3    H127614   1.978   4.351   4.956 -1.4885  0.0986  0.3657
 2041TIP3    H227615   1.943   4.488   5.010 -1.1663  0.6199 -0.7140
 2042TIP3   OH227616   2.807   6.067   2.350 -0.4696  0.0385  0.7519
 2042TIP3    H127617   2.829   6.116   2.429  0.9950  0.3567  0.1905
 2042TIP3    H227618   2.866   5.992   2.351 -1.5929 -0.8679  0.7920
 2043TIP3   OH227619   4.725   5.894   4.334  0.2829  0.0271  0.1272
 2043TIP3    H127620   4.774   5.814   4.353 -1.1957 -0.8199  0.6355
 2043TIP3    H227621   4.791   5.961   4.322  1.6631 -1.5429 -1.7333
 2044TIP3   OH227622   1.136   6.221  16.598 -0.2786  0.5085 -0.0092
 2044TIP3    H127623   1.152   6.200  16.690 -0.7640  0.5926  0.0993
 2044TIP3    H227624   1.155   6.314  16.591 -2.4663  1.0323  0.5421
 2045TIP3   OH227625   2.661   6.145   0.391 -0.2744 -0.0193 -0.4815
 2045TIP3    H127626   2.747   6.182   0.369 -0.5058  1.3520  0.7557
 2045TIP3    H227627   2.605   6.167   0.317  0.5560 -1.4541 -1.5790
 2046TIP3   OH227628   5.193   2.927   2.826  0.4999  0.0597 -0.0799
 2046TIP3    H127629   5.241   2.994   2.875  0.3647 -0.4658  0.7886
 2046TIP3    H227630   5.146   2.977   2.758 -1.1268  1.1198  1.7186
 2047TIP3   OH227631   1.908   5.761   1.516 -0.2258 -0.2497 -0.2904
 2047TIP3    H127632   2.002   5.776   1.523 -0.4959  1.3143  0.2373
 2047TIP3    H227633   1.897   5.713   1.434  0.7811  1.9427 -1.7672
 2048TIP3   OH227634   1.155   3.225   0.850  0.8624 -0.2562  0.1838
 2048TIP3    H127635   1.123   3.182   0.771  0.3281 -1.5232  1.0443
 2048TIP3    H227636   1.244   3.252   0.829  0.9224 -1.0753 -0.6752
 2049TIP3   OH227637   0.506   4.366  16.010 -0.0049  0.2341  0.0204
 2049TIP3    H127638   0.532   4.418  15.933 -0.3552 -0.3508 -0.5016
 2049TIP3    H227639   0.423   4.404  16.038  0.8251  1.3700  0.9927
 2050TIP3   OH227640   3.734   4.153   4.462 -0.4666  0.4344 -0.7946
 2050TIP3    H127641   3.731   4.068   4.418  1.1509  0.2718 -0.6786
 2050TIP3    H227642   3.681   4.142   4.541  0.0713 -0.6243 -0.5623
 2051TIP3   OH227643   4.255   0.734  13.585 -0.1123  0.6509 -0.3245
 2051TIP3    H127644   4.302   0.722  13.667  0.4258 -0.6991 -0.7935
 2051TIP3    H227645   4.180   0.674  13.591 -0.2419  0.7737 -0.6739
 2052TIP3   OH227646   1.785   3.237   0.093  0.3341  0.2979  0.3503
 2052TIP3    H127647   1.757   3.183   0.020 -3.0585  2.8982 -0.5915
 2052TIP3    H227648   1.790   3.177   0.167 -0.9675 -1.6665 -1.0472
 2053TIP3   OH227649   3.463   2.329  16.015 -0.0073 -0.3137  0.3345
 2053TIP3    H127650   3.545   2.361  16.053  1.6921 -2.4332 -1.2966
 2053TIP3    H227651   3.454   2.240  16.049 -1.7822 -0.0665  0.6135
 2054TIP3   OH227652   3.573   0.451   3.342 -0.1283 -0.3566 -0.1008
 2054TIP3    H127653   3.596   0.476   3.253  0.5539 -0.8679 -0.0733
 2054TIP3    H227654   3.531   0.530   3.379  0.3409  0.1335 -0.5955
 2055TIP3   OH227655   3.256   2.967  12.287  0.4692  0.2242 -0.4023
 2055TIP3    H127656   3.237   2.961  12.193  0.0097 -0.6373 -0.2689
 2055TIP3    H227657   3.351   2.953  12.293  0.6842  1.3984 -0.8180
 2056TIP3   OH227658   1.541   3.399   2.084 -0.2519 -1.3489  0.0277
 2056TIP3    H127659   1.607   3.439   2.026 -1.6720  2.0779  0.5398
 2056TIP3    H227660   1.576   3.412   2.172 -0.0458 -2.7490  0.1754
 2057TIP3   OH227661   1.605   0.691   3.876  0.0527  0.1914  0.4036
 2057TIP3    H127662   1.578   0.750   3.806  1.8527 -1.6871 -2.0707
 2057TIP3    H227663   1.523   0.657   3.913 -1.0262 -0.2372 -2.1987
 2058TIP3   OH227664   4.731   4.407  14.288  0.7329 -0.0665 -0.2526
 2058TIP3    H127665   4.668   4.379  14.354 -0.7560 -1.0210 -1.9632
 2058TIP3    H227666   4.696   4.372  14.206  3.5707 -0.7441 -1.2878
 2059TIP3   OH227667   3.790   5.947   1.288 -0.1538  0.4758 -0.4513
 2059TIP3    H127668   3.794   5.987   1.375 -3.4742  0.2939 -0.0985
 2059TIP3    H227669   3.824   6.015   1.229 -1.3195  2.0766  0.6371
 2060TIP3   OH227670   4.414   2.942   1.170 -0.0296 -0.0432 -0.1770
 2060TIP3    H127671   4.395   2.903   1.084 -0.0757 -0.8952  0.2120
 2060TIP3    H227672   4.330   2.942   1.215  0.0367  0.2157 -0.0503
 2061TIP3   OH227673   5.429   4.830  12.808 -0.2186 -0.1154  0.0119
 2061TIP3    H127674   5.344   4.815  12.767 -0.3805  1.4070 -0.2907
 2061TIP3    H227675   5.434   4.925  12.817  0.8531 -0.2691  1.3290
 2062TIP3   OH227676   1.162   4.939  15.287 -0.3792  0.2845  0.0975
 2062TIP3    H127677   1.182   4.998  15.360 -0.8389  1.4058 -0.6507
 2062TIP3    H227678   1.245   4.929  15.240 -0.1178 -0.3154  0.6770
 2063TIP3   OH227679   1.196   5.686  12.720 -0.5754 -0.3101 -0.1753
 2063TIP3    H127680   1.177   5.610  12.666 -1.3207 -1.8060  2.0389
 2063TIP3    H227681   1.141   5.756  12.684  0.1198 -0.7569 -2.2351
 2064TIP3   OH227682   6.375   1.368   4.576 -0.3082 -0.6446  0.1495
 2064TIP3    H127683   6.302   1.428   4.585  0.5425  0.4221  0.1588
 2064TIP3    H227684   6.368   1.335   4.486 -0.7055 -0.4296  0.1024
 2065TIP3   OH227685   2.102   1.774  12.977  0.0090 -0.4582 -0.7892
 2065TIP3    H127686   2.124   1.681  12.971  0.4346 -0.4041 -0.1845
 2065TIP3    H227687   2.175   1.813  13.025 -0.9638 -0.1099  0.4847
 2066TIP3   OH227688   4.701   2.416   0.687 -0.2640 -0.2885  0.7673
 2066TIP3    H127689   4.745   2.469   0.620 -0.0494 -0.3696  0.8450
 2066TIP3    H227690   4.772   2.375   0.736 -0.4337 -0.8754  0.5241
 2067TIP3   OH227691   1.372   6.371   1.639  0.1439 -0.4359  0.3473
 2067TIP3    H127692   1.346   6.463   1.639 -1.0366 -0.7392  1.7495
 2067TIP3    H227693   1.335   6.335   1.558 -3.2232 -0.6397  1.8121
 2068TIP3   OH227694   0.294   4.968   5.436 -0.2726 -0.3188 -0.5358
 2068TIP3    H127695   0.380   4.969   5.396 -0.3107 -1.7669 -0.7001
 2068TIP3    H227696   0.311   4.957   5.530 -0.2701 -0.0568 -0.5043
 2069TIP3   OH227697   0.955   0.422  12.372  0.5355 -0.6742  0.0658
 2069TIP3    H127698   0.981   0.411  12.281  2.5000  0.3607  0.4466
 2069TIP3    H227699   0.953   0.517  12.385 -0.5265 -0.7887  0.9015
 2070TIP3   OH227700   4.900   3.528  12.669  0.0845 -0.5520 -0.4346
 2070TIP3    H127701   4.923   3.444  12.629  0.4552  0.0796 -1.5945
 2070TIP3    H227702   4.808   3.541  12.646 -0.4005 -1.2841  0.9627
 2071TIP3   OH227703   6.672   6.648   4.340  0.2961 -0.0527 -0.0792
 2071TIP3    H127704   6.631   6.631   4.426  2.5926  0.1471  1.1174
 2071TIP3    H227705   6.704   6.738   4.346  0.9890 -0.2365 -0.9425
 2072TIP3   OH227706   0.760   1.210  12.364  0.5792 -0.1952  0.8257
 2072TIP3    H127707   0.709   1.242  12.438  0.3747 -1.1051  1.0913
 2072TIP3    H227708   0.824   1.280  12.348 -1.1535  1.3001  0.0212
 2073TIP3   OH227709   4.147   5.525  14.144  0.3461  0.5918  0.3297
 2073TIP3    H127710   4.079   5.485  14.199  1.2784  0.8267  1.7204
 2073TIP3    H227711   4.137   5.619  14.159  0.5673  0.6615  0.0445
 2074TIP3   OH227712   4.616   2.925   0.427  0.5776 -0.7724  0.2064
 2074TIP3    H127713   4.531   2.960   0.456 -0.3786 -1.2231 -1.8569
 2074TIP3    H227714   4.649   2.877   0.502 -0.6368  0.0514  1.3099
 2075TIP3   OH227715   5.062   4.691  17.182 -0.6915 -0.2132  0.5710
 2075TIP3    H127716   5.131   4.757  17.172 -0.6975 -0.1184  1.1507
 2075TIP3    H227717   5.016   4.716  17.261  0.7267 -2.1935  2.1404
 2076TIP3   OH227718   5.197   3.584  12.148  0.1592  0.6211 -0.8635
 2076TIP3    H127719   5.236   3.666  12.179  2.6357  0.7874 -3.9295
 2076TIP3    H227720   5.229   3.519  12.210 -1.3212  1.7840  1.2530
 2077TIP3   OH227721   5.039   1.440  14.106  0.1108  0.1556 -0.1658
 2077TIP3    H127722   5.101   1.488  14.051  0.5060 -0.6574 -0.4398
 2077TIP3    H227723   5.007   1.506  14.168  1.8239  0.4513  0.4842
 2078TIP3   OH227724   5.273   2.948  12.221 -0.4352  0.3177 -0.4824
 2078TIP3    H127725   5.329   2.965  12.297  0.9247 -1.5229 -0.9949
 2078TIP3    H227726   5.186   2.975  12.249  0.1814  0.5571  1.3824
 2079TIP3   OH227727   2.933   3.912   3.501 -0.5947 -0.1446  0.0837
 2079TIP3    H127728   2.962   3.838   3.554  2.3623  0.2234 -0.8683
 2079TIP3    H227729   2.908   3.979   3.564  0.3599 -0.6151  0.9777
 2080TIP3   OH227730   1.290   4.688  12.061  0.4330 -0.2251 -0.0386
 2080TIP3    H127731   1.221   4.712  12.000  0.5567 -0.3395 -0.2256
 2080TIP3    H227732   1.246   4.637  12.130  0.5785 -1.6663 -0.9760
 2081TIP3   OH227733   5.228   5.881   1.195  0.2866 -0.1931  0.1936
 2081TIP3    H127734   5.311   5.837   1.177  0.4427 -0.2299  0.9808
 2081TIP3    H227735   5.230   5.959   1.140  0.4262 -0.6681 -0.4929
 2082TIP3   OH227736   3.857   4.366   4.676 -0.0878  0.2406 -0.3400
 2082TIP3    H127737   3.766   4.339   4.681  0.3008 -1.3290 -0.9567
 2082TIP3    H227738   3.864   4.415   4.593 -0.3104  0.0917 -0.4467
 2083TIP3   OH227739   1.608   1.219   3.608 -0.0904 -0.2744 -0.4191
 2083TIP3    H127740   1.559   1.252   3.683  1.4991  0.1137  0.4995
 2083TIP3    H227741   1.684   1.176   3.647 -0.2699 -1.8889 -1.7423
 2084TIP3   OH227742   2.962   1.534   2.718 -0.2993 -0.2525 -0.0274
 2084TIP3    H127743   2.981   1.541   2.625  0.1854 -0.7537  0.0252
 2084TIP3    H227744   2.868   1.517   2.723 -0.1686 -1.1336 -0.4687
 2085TIP3   OH227745   6.094   1.377   3.590  0.0237 -0.1649 -0.1169
 2085TIP3    H127746   6.150   1.388   3.666  1.4206 -2.6526 -0.6807
 2085TIP3    H227747   6.083   1.282   3.581 -1.7362  0.1241 -1.8573
 2086TIP3   OH227748   2.691   1.205   4.963 -0.2376  0.2196 -0.2884
 2086TIP3    H127749   2.760   1.207   4.896  1.2751  1.3378  1.2091
 2086TIP3    H227750   2.692   1.293   5.000 -2.6149  0.2968 -0.2908
 2087TIP3   OH227751   6.229   0.092   2.509  0.0070 -0.3158  0.6825
 2087TIP3    H127752   6.147   0.106   2.556 -0.7454  0.8825 -0.9247
 2087TIP3    H227753   6.278   0.031   2.565 -1.6188 -0.4277  2.0634
 2088TIP3   OH227754   4.791   6.586  14.798 -0.3327 -0.2843 -0.1411
 2088TIP3    H127755   4.832   6.628  14.874  0.5405  0.1039 -0.8069
 2088TIP3    H227756   4.855   6.595  14.728 -0.4961 -1.9640 -0.5548
 2089TIP3   OH227757   4.126   0.707   2.837 -0.4803 -0.2650  0.4409
 2089TIP3    H127758   4.166   0.730   2.753 -1.1112  1.1827  0.5102
 2089TIP3    H227759   4.183   0.749   2.903  0.0350 -1.4266  0.7597
 2090TIP3   OH227760   5.102   4.511  12.286  0.0384  0.3556 -0.0741
 2090TIP3    H127761   5.197   4.513  12.276 -0.1572  0.0308 -2.5715
 2090TIP3    H227762   5.076   4.425  12.253 -1.0925  0.0869  1.3902
 2091TIP3   OH227763   5.935   3.931  11.397  0.0250  0.4903  0.0848
 2091TIP3    H127764   5.897   3.875  11.464 -0.6994  1.7956  0.7980
 2091TIP3    H227765   5.931   4.019  11.434 -1.7489  1.4820 -2.2068
 2092TIP3   OH227766   0.329   5.601  15.707  0.1499 -0.4995  0.4459
 2092TIP3    H127767   0.369   5.653  15.638 -0.3349  0.1139  0.6121
 2092TIP3    H227768   0.321   5.662  15.781 -0.5255 -0.7753  0.6108
 2093TIP3   OH227769   2.357   2.655   4.735 -0.0840  0.2906 -0.2986
 2093TIP3    H127770   2.319   2.716   4.799 -1.8372 -2.3171  1.3540
 2093TIP3    H227771   2.312   2.572   4.751 -0.3258 -0.6956 -4.6690
 2094TIP3   OH227772   4.691   5.772   3.513 -0.0256  0.0170 -0.3657
 2094TIP3    H127773   4.685   5.866   3.493  0.1439  0.5693  1.9074
 2094TIP3    H227774   4.627   5.758   3.583  1.3758 -1.1008  0.7637
 2095TIP3   OH227775   4.950   5.915   4.908  0.2326 -0.2526 -0.0363
 2095TIP3    H127776   4.878   5.882   4.963  0.0857  0.5753  0.2774
 2095TIP3    H227777   4.982   5.993   4.954  1.7403 -0.9413  0.1404
 2096TIP3   OH227778   4.524   1.987  12.544 -0.1334 -0.0883  0.1884
 2096TIP3    H127779   4.526   1.901  12.502  2.4422 -0.0734  0.0955
 2096TIP3    H227780   4.440   2.024  12.519 -0.5816 -1.8857 -1.2053
 2097TIP3   OH227781   5.678   1.692  13.882  0.2004  0.0726 -0.3564
 2097TIP3    H127782   5.721   1.741  13.953  0.1532 -0.7718  0.2724
 2097TIP3    H227783   5.595   1.737  13.869  1.0150  1.4231 -1.2405
 2098TIP3   OH227784   5.267   4.400   3.071 -0.1905 -0.1329  0.4478
 2098TIP3    H127785   5.213   4.325   3.096 -0.3703 -0.3753 -0.6054
 2098TIP3    H227786   5.349   4.361   3.040 -0.0674  0.1347  0.4368
 2099TIP3   OH227787   2.387   0.548   1.508  0.0776  0.4009  0.2103
 2099TIP3    H127788   2.316   0.589   1.557  0.0217 -0.0245  0.4833
 2099TIP3    H227789   2.357   0.549   1.417 -1.3079 -1.8421  0.5624
 2100TIP3   OH227790   2.690   4.282   0.712  0.0207 -0.3605 -0.3783
 2100TIP3    H127791   2.760   4.345   0.731 -0.8200  0.1848  1.0519
 2100TIP3    H227792   2.728   4.197   0.734  0.8874 -0.3106 -1.5482
 2101TIP3   OH227793   1.154   0.008  16.050 -0.0741  0.4742  0.2099
 2101TIP3    H127794   1.124  -0.083  16.046  0.9605  0.1332 -0.5027
 2101TIP3    H227795   1.201   0.021  15.968  2.2362  0.7407  1.4763
 2102TIP3   OH227796   4.889   4.077  13.495 -0.1789 -0.0722  0.1924
 2102TIP3    H127797   4.858   4.165  13.517  1.1871  0.4071  0.2522
 2102TIP3    H227798   4.876   4.070  13.400 -1.7925 -0.4402  0.4023
 2103TIP3   OH227799   0.379   4.198  11.917  0.5639  0.1973  0.0001
 2103TIP3    H127800   0.302   4.151  11.885  0.5431  1.4821 -2.0463
 2103TIP3    H227801   0.409   4.249  11.841  1.4147  2.3687  1.6847
 2104TIP3   OH227802   0.070   2.227  13.380  0.1463  0.4244  0.2392
 2104TIP3    H127803   0.155   2.267  13.401  0.3355 -0.7475  1.9730
 2104TIP3    H227804   0.040   2.191  13.464 -0.1117 -2.7936 -1.0768
 2105TIP3   OH227805   1.828   1.230   6.013  0.2712 -0.7731 -0.0755
 2105TIP3    H127806   1.733   1.231   6.008  0.2488  0.0863  0.3658
 2105TIP3    H227807   1.847   1.203   6.103  0.3393  3.0746  1.2460
 2106TIP3   OH227808   0.428   1.708   2.876  0.2478 -0.7627 -0.4836
 2106TIP3    H127809   0.502   1.648   2.867  0.9275 -0.0564  0.1533
 2106TIP3    H227810   0.364   1.678   2.812  1.8127 -0.3470 -2.3528
 2107TIP3   OH227811   1.046   4.023  14.991  0.9434 -0.2436 -0.2501
 2107TIP3    H127812   1.123   4.045  15.043  2.2974  1.9727 -2.9171
 2107TIP3    H227813   0.996   4.104  14.986  0.0735 -0.8035 -1.1510
 2108TIP3   OH227814   2.404   1.147  13.398  0.0126  0.1333  0.5499
 2108TIP3    H127815   2.409   1.241  13.380  1.7287 -0.2888 -1.7537
 2108TIP3    H227816   2.471   1.132  13.464  2.1805  0.1617 -1.5013
 2109TIP3   OH227817   1.915   0.581  17.216  0.0819 -0.2062  0.4118
 2109TIP3    H127818   1.921   0.663  17.265 -1.0975 -0.4327  0.9853
 2109TIP3    H227819   1.838   0.537  17.253 -0.0028 -1.0312 -0.6926
 2110TIP3   OH227820   3.990   0.797   1.249 -0.1701  0.1945  0.0167
 2110TIP3    H127821   3.916   0.770   1.303 -1.4552  1.6693 -0.9433
 2110TIP3    H227822   3.977   0.754   1.165  1.3131 -1.3173  0.4891
 2111TIP3   OH227823   2.883   6.650  15.883  0.0237  0.2685 -0.4503
 2111TIP3    H127824   2.902   6.560  15.856 -1.9630 -0.2004 -0.4106
 2111TIP3    H227825   2.917   6.656  15.972 -0.8067 -0.8163 -0.0368
 2112TIP3   OH227826   4.452   1.921   2.293 -0.0113  0.7460  0.2590
 2112TIP3    H127827   4.452   1.888   2.383  0.0345  1.6634  0.5987
 2112TIP3    H227828   4.439   2.015   2.301 -2.1604  0.5900 -0.8081
 2113TIP3   OH227829   2.139   5.475  13.396  0.7417 -0.3878 -0.0264
 2113TIP3    H127830   2.106   5.428  13.473  0.9800 -0.9901 -0.2801
 2113TIP3    H227831   2.225   5.436  13.380  1.1957  0.5392  0.0905
 2114TIP3   OH227832   3.030   2.849  11.976  0.0860 -0.5535  0.0556
 2114TIP3    H127833   3.124   2.847  11.962  0.0236  2.7363 -2.0055
 2114TIP3    H227834   2.992   2.847  11.888 -1.7295 -0.8338  0.7955
 2115TIP3   OH227835   2.528   2.066  12.881  0.5453  0.1388 -0.2042
 2115TIP3    H127836   2.554   2.146  12.835  1.2007  0.3282  0.4882
 2115TIP3    H227837   2.548   2.083  12.973 -0.8687 -0.1876  0.1927
 2116TIP3   OH227838   1.191   4.419  16.968  0.3190  0.8479  0.2821
 2116TIP3    H127839   1.205   4.375  17.052  1.3822 -0.1987 -0.4162
 2116TIP3    H227840   1.113   4.376  16.931  1.5455 -0.7543 -0.5485
 2117TIP3   OH227841   2.466   3.293   3.825  0.1700  0.0955  0.3343
 2117TIP3    H127842   2.469   3.387   3.805  0.3059  0.4011  1.7179
 2117TIP3    H227843   2.551   3.274   3.865 -0.5495 -0.1809  1.8158
 2118TIP3   OH227844   3.593   5.578   3.381 -0.1541  0.3167 -0.2132
 2118TIP3    H127845   3.615   5.486   3.367  0.6159  0.4792 -0.0969
 2118TIP3    H227846   3.587   5.615   3.293  1.3041  0.5565 -0.2263
 2119TIP3   OH227847   4.186   2.571  17.258 -0.2496 -0.4660  0.1729
 2119TIP3    H127848   4.216   2.603  17.343 -0.4648  1.5573 -0.4377
 2119TIP3    H227849   4.237   2.492  17.242  0.6934 -0.1900  1.6357
 2120TIP3   OH227850   2.152   4.704   0.898 -0.1693 -0.1748  0.2388
 2120TIP3    H127851   2.176   4.664   0.982 -0.2477  1.1110  0.9116
 2120TIP3    H227852   2.068   4.748   0.916 -0.4123 -0.2582 -0.6433
 2121TIP3   OH227853   2.134   1.135   4.387  0.8705  0.6728 -0.2144
 2121TIP3    H127854   2.047   1.121   4.349  1.0140  0.6924 -0.5524
 2121TIP3    H227855   2.154   1.227   4.369  0.5220  0.9574  0.7833
 2122TIP3   OH227856   1.153   0.179   2.148 -0.2689 -0.4640 -0.6283
 2122TIP3    H127857   1.176   0.118   2.218 -0.2339  2.3541  2.0930
 2122TIP3    H227858   1.100   0.129   2.087 -2.4099 -2.6208  2.7093
 2123TIP3   OH227859   0.951   6.043  16.471  0.4628  0.2789 -0.0794
 2123TIP3    H127860   1.036   6.085  16.481 -0.3893  2.3311 -0.8982
 2123TIP3    H227861   0.910   6.048  16.558  0.7240  0.3205  0.0406
 2124TIP3   OH227862   4.876   6.508  13.776  0.3739  0.2193  0.1258
 2124TIP3    H127863   4.938   6.440  13.748  0.3669 -0.2889  1.3012
 2124TIP3    H227864   4.797   6.460  13.798  0.3287  0.6146  0.8534
 2125TIP3   OH227865   6.611   5.319  16.135 -0.5745 -0.0070  0.1659
 2125TIP3    H127866   6.586   5.355  16.220  0.1239  1.0027 -0.0427
 2125TIP3    H227867   6.595   5.225  16.143  0.2227 -0.0362  1.6734
 2126TIP3   OH227868   6.321   2.818   2.623  0.0307 -0.2400  0.2889
 2126TIP3    H127869   6.228   2.806   2.604  0.2471 -0.6908 -0.5470
 2126TIP3    H227870   6.327   2.904   2.664 -0.9241 -0.7819  1.6139
 2127TIP3   OH227871   0.367   6.644  16.700  0.5193 -0.5992 -0.0126
 2127TIP3    H127872   0.334   6.604  16.619 -1.0991  0.2717  0.1775
 2127TIP3    H227873   0.453   6.679  16.675 -0.3395  0.4835 -1.6376
 2128TIP3   OH227874   5.797   6.280   6.060 -0.2311  0.1802  0.2162
 2128TIP3    H127875   5.820   6.254   5.971  3.8463 -3.0708  1.9024
 2128TIP3    H227876   5.862   6.347   6.083 -0.9117  0.6059  0.9486
 2129TIP3   OH227877   6.248   4.264   0.284  0.1058 -0.2277  0.1120
 2129TIP3    H127878   6.338   4.278   0.313  0.2764 -0.2553 -0.4007
 2129TIP3    H227879   6.244   4.306   0.198 -0.0000 -1.3641 -0.4450
 2130TIP3   OH227880   2.715   3.393  15.799  0.2043 -0.1893 -0.2758
 2130TIP3    H127881   2.781   3.326  15.783  1.3709  1.0350 -0.8035
 2130TIP3    H227882   2.757   3.475  15.773 -1.0724  0.7922  0.6029
 2131TIP3   OH227883   2.163   1.689  16.199  0.5189 -0.2928 -0.0144
 2131TIP3    H127884   2.093   1.755  16.196 -0.3492 -1.2066 -0.2037
 2131TIP3    H227885   2.144   1.631  16.126  1.6840 -0.3632 -0.2755
 2132TIP3   OH227886   1.183   0.556   4.386  0.0212  0.5381  0.1145
 2132TIP3    H127887   1.217   0.484   4.439 -3.2339 -2.0775 -0.9558
 2132TIP3    H227888   1.149   0.619   4.449 -0.2836 -0.6229  1.1446
 2133TIP3   OH227889   1.572   0.209   3.567 -0.2624  0.3466 -0.3792
 2133TIP3    H127890   1.490   0.161   3.553 -0.8472  1.1848  0.0487
 2133TIP3    H227891   1.556   0.295   3.528  0.8679  0.1320 -1.3848
 2134TIP3   OH227892   2.057   4.094   3.606 -0.4073  0.5205  0.0644
 2134TIP3    H127893   2.127   4.143   3.650 -0.0600 -0.4919  0.6746
 2134TIP3    H227894   2.080   4.002   3.620 -0.6255  0.1636 -1.7043
 2135TIP3   OH227895   3.848   2.348   5.723 -0.2251  0.4633 -0.3640
 2135TIP3    H127896   3.888   2.283   5.666  0.3171 -1.9550  2.5419
 2135TIP3    H227897   3.920   2.381   5.776 -1.1522  0.2095  1.1106
 2136TIP3   OH227898   4.033   4.265   2.608  0.2038 -0.1008  0.1283
 2136TIP3    H127899   4.013   4.317   2.686 -0.4534  0.3481 -0.3249
 2136TIP3    H227900   3.949   4.224   2.585  0.2495  0.2297 -0.6707
 2137TIP3   OH227901   5.490   2.251  10.783  0.7702 -0.2772 -0.3907
 2137TIP3    H127902   5.398   2.265  10.761 -0.0775  2.8769  3.8181
 2137TIP3    H227903   5.535   2.258  10.699 -2.5904  1.0430 -2.3107
 2138TIP3   OH227904   0.041   4.906  15.682  0.5721  0.4575  0.1587
 2138TIP3    H127905   0.004   4.941  15.763 -1.0945 -1.0435  0.1042
 2138TIP3    H227906  -0.019   4.837  15.656  1.8850 -0.1073 -1.5713
 2139TIP3   OH227907   1.838   5.605  12.742 -0.4760  0.9089 -0.1199
 2139TIP3    H127908   1.817   5.557  12.822 -0.6120 -0.5987 -1.0150
 2139TIP3    H227909   1.766   5.584  12.682 -1.1893  3.2373 -0.1784
 2140TIP3   OH227910   0.393   0.462  16.321  0.1142  0.5283  0.6326
 2140TIP3    H127911   0.376   0.511  16.241  0.5317  0.7485  0.6767
 2140TIP3    H227912   0.485   0.480  16.341  0.0606  0.3328  1.0629
 2141TIP3   OH227913   5.207   2.957  15.830  0.3639 -0.1428  0.1439
 2141TIP3    H127914   5.191   2.863  15.822 -0.1566 -0.2073  1.6011
 2141TIP3    H227915   5.121   2.997  15.818  0.4405  0.0765  0.3179
 2142TIP3   OH227916   0.659   3.337   2.223 -0.1183  0.2419  0.3803
 2142TIP3    H127917   0.571   3.312   2.250  0.0926  0.7930  1.6530
 2142TIP3    H227918   0.646   3.407   2.160 -0.5809  0.7616  1.0441
 2143TIP3   OH227919   4.817   2.951  16.162 -0.3237  0.1659  0.4277
 2143TIP3    H127920   4.798   2.939  16.069  1.7761  0.9404 -0.1647
 2143TIP3    H227921   4.880   2.882  16.182  0.2111  0.7914  0.9314
 2144TIP3   OH227922   0.320   1.378   1.871  0.0700  0.2958  0.6219
 2144TIP3    H127923   0.351   1.322   1.800  1.7048 -0.8196  2.1413
 2144TIP3    H227924   0.236   1.339   1.897  0.3637 -0.4273  0.5199
 2145TIP3   OH227925   3.273   6.487  15.446 -0.4796  0.3979 -0.3822
 2145TIP3    H127926   3.359   6.496  15.405 -0.3632  0.3435 -0.1501
 2145TIP3    H227927   3.215   6.463  15.374  0.2328 -2.5914 -0.1115
 2146TIP3   OH227928   3.735   6.417   0.743  0.1647  0.2172  0.6986
 2146TIP3    H127929   3.733   6.418   0.839 -2.0322 -0.8928  0.7345
 2146TIP3    H227930   3.764   6.505   0.719 -0.8554  1.0850  2.4040
 2147TIP3   OH227931   4.033   1.683   3.852 -0.4593 -0.1066  0.0594
 2147TIP3    H127932   4.110   1.740   3.861 -1.2246  0.8240  1.0329
 2147TIP3    H227933   4.019   1.677   3.758  0.9788 -0.5684 -0.1619
 2148TIP3   OH227934   1.946   0.017   5.020  0.1009  0.3768 -0.5221
 2148TIP3    H127935   1.888  -0.058   5.034  0.3514  0.1644 -0.6124
 2148TIP3    H227936   1.906   0.088   5.071  1.4257 -0.5815  2.0552
 2149TIP3   OH227937   0.834   2.633   3.905  1.1197 -0.0367  0.5605
 2149TIP3    H127938   0.884   2.612   3.826 -1.2493  1.7205 -1.5737
 2149TIP3    H227939   0.819   2.548   3.946  2.1105 -1.0659 -1.0751
 2150TIP3   OH227940   4.281   4.665   4.933 -0.0898  0.0800 -0.4422
 2150TIP3    H127941   4.196   4.625   4.911  0.1653 -2.0918  2.0354
 2150TIP3    H227942   4.259   4.736   4.992 -0.2295 -0.7596  0.5554
 2151TIP3   OH227943   0.550   3.115  14.634 -0.1350  0.0179  0.1388
 2151TIP3    H127944   0.601   3.065  14.699 -1.1327 -2.2768 -0.7557
 2151TIP3    H227945   0.463   3.124  14.673 -0.6798 -1.1891 -0.7397
 2152TIP3   OH227946   0.585   0.677  14.543 -0.3109 -0.3385  0.4996
 2152TIP3    H127947   0.563   0.766  14.515  3.1910  0.7532  0.6956
 2152TIP3    H227948   0.517   0.622  14.503 -0.1968  1.9475 -3.4311
 2153TIP3   OH227949   5.480   3.195   5.190  0.4051  0.4253  0.5631
 2153TIP3    H127950   5.511   3.185   5.100 -1.4703  1.2734 -0.2310
 2153TIP3    H227951   5.387   3.217   5.181  0.1439  0.4120  2.7181
 2154TIP3   OH227952   1.778   3.260  12.477 -0.3326  0.5874 -0.2108
 2154TIP3    H127953   1.753   3.292  12.564 -0.3710  3.1627 -1.0756
 2154TIP3    H227954   1.853   3.314  12.453  3.0458 -3.4510  0.1727
 2155TIP3   OH227955   5.796   6.173  17.096  0.1210  0.2568  0.3117
 2155TIP3    H127956   5.871   6.181  17.037 -0.7144 -1.3822 -1.0571
 2155TIP3    H227957   5.759   6.261  17.100  0.7733  0.6044 -0.8366
 2156TIP3   OH227958   4.368   5.731   4.924  0.2181  0.0982  0.2293
 2156TIP3    H127959   4.412   5.778   4.995  0.8206 -0.9211  0.5613
 2156TIP3    H227960   4.312   5.796   4.883  1.9325  1.4235 -0.1108
 2157TIP3   OH227961   5.368   4.759  17.035 -0.1377  0.1025  0.2940
 2157TIP3    H127962   5.404   4.677  17.000 -1.6973 -0.5714  0.1947
 2157TIP3    H227963   5.441   4.821  17.030  1.2164 -1.3768  0.7799
 2158TIP3   OH227964   3.438   6.531  11.514  0.6474  0.4815  0.6817
 2158TIP3    H127965   3.480   6.465  11.569 -1.8194 -0.3062  1.8066
 2158TIP3    H227966   3.431   6.490  11.428 -0.4147 -0.6118  1.2454
 2159TIP3   OH227967   5.430   6.596  16.044  0.0750  0.0972  0.2584
 2159TIP3    H127968   5.463   6.566  16.129  0.8428  0.2890  0.0390
 2159TIP3    H227969   5.497   6.568  15.982 -0.7211 -0.4835 -0.3573
 2160TIP3   OH227970   1.343   1.116   3.944  0.3605 -0.4708 -0.7231
 2160TIP3    H127971   1.353   1.051   3.875  0.6021 -1.7221  0.4599
 2160TIP3    H227972   1.253   1.148   3.934  0.1086 -1.2771 -1.0772
 2161TIP3   OH227973   6.434   5.037   5.016  0.0883 -0.2500 -0.3343
 2161TIP3    H127974   6.393   5.122   5.032  0.9149  0.0355  0.3654
 2161TIP3    H227975   6.365   4.983   4.979 -0.7010  0.4490  0.0924
 2162TIP3   OH227976   4.390   4.380   5.030  0.4939 -0.3923  0.8437
 2162TIP3    H127977   4.383   4.333   5.112 -0.1364  1.9778  2.2554
 2162TIP3    H227978   4.482   4.407   5.025  0.1985  0.8496  1.6532
 2163TIP3   OH227979   3.080   6.238  14.992 -0.0752  0.0609 -0.1999
 2163TIP3    H127980   3.094   6.324  14.954 -1.6795 -0.1514 -1.3366
 2163TIP3    H227981   2.999   6.206  14.953  1.0860 -2.4809 -0.7564
 2164TIP3   OH227982   4.921   4.362  17.357 -0.1818 -0.1343  0.2425
 2164TIP3    H127983   4.934   4.267  17.361  1.8489  0.1046  0.5243
 2164TIP3    H227984   4.944   4.393  17.445 -2.0406  0.5345  0.5398
 2165TIP3   OH227985   2.312   1.576  16.818 -0.0191  0.1035  0.2614
 2165TIP3    H127986   2.305   1.619  16.904  0.5259 -1.4378  1.1132
 2165TIP3    H227987   2.364   1.637  16.765  0.3750  0.6890  1.2984
 2166TIP3   OH227988   2.596   4.941   0.233  0.0618 -0.3627 -0.0536
 2166TIP3    H127989   2.619   4.951   0.141 -0.6920 -1.4648 -0.3817
 2166TIP3    H227990   2.674   4.902   0.273  0.0978 -0.6535 -0.4012
 2167TIP3   OH227991   6.728   2.536  11.516 -0.0041  0.0970 -0.1707
 2167TIP3    H127992   6.817   2.572  11.510 -0.6143  1.4568 -2.0532
 2167TIP3    H227993   6.739   2.443  11.493  0.6018  0.9582 -4.1865
 2168TIP3   OH227994   3.294   2.209  16.291  0.3224 -0.2273 -0.6012
 2168TIP3    H127995   3.253   2.127  16.266 -1.0496 -0.0189  0.8019
 2168TIP3    H227996   3.246   2.277  16.243  0.3629 -0.1242 -0.4995
 2169TIP3   OH227997   6.512   2.612  14.136 -0.6547  0.2965 -0.3203
 2169TIP3    H127998   6.581   2.670  14.168 -1.3162  1.5586 -1.0927
 2169TIP3    H227999   6.432   2.665  14.142 -1.5151 -1.0259  0.2583
 2170TIP3   OH228000   3.640   3.066   3.193  0.0777 -0.0092  0.7717
 2170TIP3    H128001   3.589   3.141   3.161  0.2873 -0.3635 -0.4371
 2170TIP3    H228002   3.585   3.028   3.262  0.4703  1.9180  2.2317
 2171TIP3   OH228003   0.959   6.417   1.310  0.4578  0.3263  0.1697
 2171TIP3    H128004   0.927   6.454   1.392  2.1115  0.5345  0.7664
 2171TIP3    H228005   0.967   6.492   1.251 -1.6855  0.0471 -0.5790
 2172TIP3   OH228006   3.089   5.877   2.018 -0.0425 -0.5700 -0.1742
 2172TIP3    H128007   3.015   5.937   2.016 -0.1145 -0.5103  1.7377
 2172TIP3    H228008   3.165   5.933   2.039  0.7583 -0.4995 -2.8847
 2173TIP3   OH228009   6.249   4.182   1.056  0.0378 -0.9613 -0.4890
 2173TIP3    H128010   6.269   4.168   1.148 -2.1284 -0.4958  0.1052
 2173TIP3    H228011   6.321   4.236   1.023  1.1409 -1.6271  0.7498
 2174TIP3   OH228012   0.592   0.860   2.349 -0.1866  0.2610 -0.4365
 2174TIP3    H128013   0.540   0.843   2.271  1.0795  1.3035 -1.5708
 2174TIP3    H228014   0.644   0.938   2.327  0.3000  0.5157  1.4035
 2175TIP3   OH228015   3.720   4.405   0.350  0.3847 -0.2679  0.1892
 2175TIP3    H128016   3.707   4.324   0.301  1.2293  0.8091 -1.9349
 2175TIP3    H228017   3.653   4.465   0.316  3.1975  1.6489 -2.4692
 2176TIP3   OH228018   0.136   2.088   0.283 -0.2120 -0.5989  0.3386
 2176TIP3    H128019   0.219   2.048   0.255 -0.4474 -0.5636 -0.4137
 2176TIP3    H228020   0.082   2.014   0.310  0.3576 -0.5681  1.6839
 2177TIP3   OH228021   1.903   2.901  13.819  0.1259 -0.3146  0.4739
 2177TIP3    H128022   1.979   2.855  13.854  0.6311  1.6785  2.2379
 2177TIP3    H228023   1.941   2.975  13.770 -0.6703  0.1314  0.5206
 2178TIP3   OH228024   3.056   2.791  16.294  0.1500 -0.0070 -0.0623
 2178TIP3    H128025   3.025   2.712  16.338  2.9256 -0.6068  1.0438
 2178TIP3    H228026   3.080   2.763  16.206 -0.5616  0.0247 -0.2689
 2179TIP3   OH228027   6.273   1.100   5.577 -0.2175  0.4642 -0.0404
 2179TIP3    H128028   6.318   1.071   5.498 -1.9983 -0.1317 -0.8863
 2179TIP3    H228029   6.181   1.103   5.553 -0.7121  1.2720  1.7321
 2180TIP3   OH228030   3.119   6.058  15.473 -0.0960 -0.6088  0.2511
 2180TIP3    H128031   3.053   6.069  15.404 -1.7184 -1.5185  1.5984
 2180TIP3    H228032   3.188   6.005  15.431  0.6227  1.6325 -1.6440
 2181TIP3   OH228033   5.507   5.861   4.040  0.0003 -0.0969  0.3475
 2181TIP3    H128034   5.428   5.820   4.005  1.0815 -0.5141 -1.7818
 2181TIP3    H228035   5.551   5.899   3.963  0.8591  1.9345  1.7468
 2182TIP3   OH228036   4.084   6.439  15.194  0.8259 -0.2645 -0.7956
 2182TIP3    H128037   4.142   6.510  15.221 -0.7430  0.8741 -0.2633
 2182TIP3    H228038   4.107   6.366  15.251 -0.6642  1.2891  1.9976
 2183TIP3   OH228039   0.291   1.846   2.401 -0.0617  0.0376 -1.0565
 2183TIP3    H128040   0.238   1.794   2.340  1.9844 -1.1954 -1.8652
 2183TIP3    H228041   0.329   1.916   2.347 -1.1391  1.1838 -0.3912
 2184TIP3   OH228042   2.334   1.352   2.091 -0.1707 -0.2910 -0.1423
 2184TIP3    H128043   2.321   1.314   2.005  0.7982 -1.2880  0.1246
 2184TIP3    H228044   2.417   1.401   2.084  1.4795 -2.7347  0.9235
 2185TIP3   OH228045   4.191   4.187  11.827 -0.3080  0.2401 -0.3183
 2185TIP3    H128046   4.159   4.212  11.914 -1.7407 -1.0164 -0.4311
 2185TIP3    H228047   4.279   4.155  11.843 -0.5982 -0.0964  0.7150
 2186TIP3   OH228048   4.873   5.946  16.421  0.4585  0.2527  0.3854
 2186TIP3    H128049   4.868   5.989  16.507 -0.5563  1.6435 -0.3370
 2186TIP3    H228050   4.964   5.959  16.394  0.1490  2.1759  0.1167
 2187TIP3   OH228051   1.703   2.232  14.476 -0.6029  0.5022 -0.0762
 2187TIP3    H128052   1.781   2.191  14.513 -1.1211 -0.1451  0.3006
 2187TIP3    H228053   1.732   2.265  14.390 -0.4674 -1.7307 -0.9476
 2188TIP3   OH228054   5.403   0.368   1.224 -0.2012 -0.5534 -0.1252
 2188TIP3    H128055   5.496   0.352   1.207 -0.6195 -2.9337 -0.4078
 2188TIP3    H228056   5.377   0.298   1.284 -1.7144  0.3745  0.3630
 2189TIP3   OH228057   0.140   6.467  12.373 -0.0429 -0.4973 -0.1224
 2189TIP3    H128058   0.070   6.427  12.322  0.0866  0.7027 -1.3075
 2189TIP3    H228059   0.195   6.394  12.400 -0.6653 -1.2676 -0.8747
 2190TIP3   OH228060   1.698   6.793  12.298 -0.2760 -0.3380  0.3349
 2190TIP3    H128061   1.643   6.866  12.327  0.1722  0.4573 -0.7360
 2190TIP3    H228062   1.784   6.811  12.334 -0.3762 -0.8260  0.8248
 2191TIP3   OH228063   2.842   4.529  12.678  1.1598  0.3625  0.1442
 2191TIP3    H128064   2.789   4.477  12.738  0.4147  0.0287 -0.7794
 2191TIP3    H228065   2.925   4.482  12.672  1.4511  0.6954  1.3232
 2192TIP3   OH228066   3.879   6.694   2.117 -0.5011  0.2730 -0.4288
 2192TIP3    H128067   3.944   6.653   2.175  0.0802  0.1872 -1.1301
 2192TIP3    H228068   3.803   6.707   2.173  0.6651  1.8791  0.8680
 2193TIP3   OH228069   3.651   0.986  12.003  0.1396  0.2234 -0.1764
 2193TIP3    H128070   3.702   0.940  11.936 -0.8028  0.1609 -0.8846
 2193TIP3    H228071   3.714   1.041  12.048  1.0385 -0.7077 -0.2552
 2194TIP3   OH228072   1.166   2.168   5.902 -0.3633 -0.5020 -0.2191
 2194TIP3    H128073   1.217   2.090   5.923 -0.3733 -1.3071 -2.8598
 2194TIP3    H228074   1.207   2.238   5.953  1.2255 -1.7722  0.3210
 2195TIP3   OH228075   5.013   6.414  16.697  0.3058  0.2394 -0.4147
 2195TIP3    H128076   4.950   6.360  16.745 -0.1318  0.9621 -0.1576
 2195TIP3    H228077   5.065   6.457  16.765  0.3020  0.5528 -0.6081
 2196TIP3   OH228078   5.653   0.550  13.764 -0.3349  0.1704  0.2473
 2196TIP3    H128079   5.609   0.528  13.683 -0.2996  0.3328  0.1827
 2196TIP3    H228080   5.677   0.466  13.802  0.6157  0.1099 -0.4462
 2197TIP3   OH228081   3.174   5.234   2.332  0.5052 -0.1841 -0.0258
 2197TIP3    H128082   3.156   5.144   2.357 -1.3853 -0.2571 -1.3937
 2197TIP3    H228083   3.268   5.244   2.343  0.4532 -1.6178  2.2869
 2198TIP3   OH228084   2.671   0.355  13.413  0.1560 -0.1001  0.1859
 2198TIP3    H128085   2.664   0.354  13.318  0.5348 -1.4339  0.1493
 2198TIP3    H228086   2.677   0.448  13.436  0.4264  0.2239 -1.1119
 2199TIP3   OH228087   0.296   4.343   0.358 -0.2445  0.1621 -0.1966
 2199TIP3    H128088   0.349   4.264   0.372  1.0265  0.9607 -0.3552
 2199TIP3    H228089   0.283   4.379   0.445  0.1557  0.4061 -0.2410
 2200TIP3   OH228090   0.011   5.814   4.994 -0.5638  0.0718 -0.5117
 2200TIP3    H128091  -0.079   5.804   5.026 -0.2887 -1.7339 -0.2125
 2200TIP3    H228092   0.048   5.726   4.998  2.0977  1.1616  1.9785
 2201TIP3   OH228093   5.318   4.115   5.503  0.4229  0.5458  0.2353
 2201TIP3    H128094   5.332   4.209   5.489  0.1198  0.7292  1.1275
 2201TIP3    H228095   5.310   4.079   5.415  1.7146  1.1693 -0.1739
 2202TIP3   OH228096   5.999   1.411  12.071 -0.3117 -0.1947 -0.3289
 2202TIP3    H128097   6.079   1.367  12.099 -0.7282 -1.5589 -1.1896
 2202TIP3    H228098   5.950   1.427  12.153 -0.2677 -1.5994 -0.0019
 2203TIP3   OH228099   0.006   1.746  15.201 -0.0672 -0.0071 -0.0873
 2203TIP3    H128100  -0.088   1.759  15.201  0.0183  0.8698 -2.0929
 2203TIP3    H228101   0.018   1.651  15.189 -0.6927  0.0082 -0.8506
 2204TIP3   OH228102   5.486   4.680   0.751 -0.5251 -0.1938  0.3215
 2204TIP3    H128103   5.501   4.755   0.809 -1.8150  0.8257 -0.5840
 2204TIP3    H228104   5.476   4.606   0.810 -1.3105  0.7190  1.3920
 2205TIP3   OH228105   1.014   4.791  12.568  0.1150 -0.0259 -0.3999
 2205TIP3    H128106   1.093   4.827  12.608  0.2695 -0.4573 -0.3120
 2205TIP3    H228107   1.025   4.697  12.573 -0.1408 -0.0893 -0.9208
 2206TIP3   OH228108   5.763   6.663  10.741  0.3197 -0.0861  0.0224
 2206TIP3    H128109   5.735   6.753  10.726 -1.1131 -0.5848 -0.5141
 2206TIP3    H228110   5.713   6.635  10.818  1.2834 -0.2077  0.6151
 2207TIP3   OH228111   0.993   3.415   4.497  0.1582 -0.0723 -0.3838
 2207TIP3    H128112   0.996   3.385   4.406 -1.7330 -1.5166 -0.0363
 2207TIP3    H228113   1.062   3.481   4.503  1.0395 -0.7146 -2.5715
 2208TIP3   OH228114   0.571   3.449   2.796 -0.1263  0.1269 -0.4925
 2208TIP3    H128115   0.637   3.412   2.737 -0.1562  0.3270 -0.6503
 2208TIP3    H228116   0.516   3.503   2.739 -0.4451 -0.0641 -0.3677
 2209TIP3   OH228117   5.928   4.300   3.271  0.8765  0.1712  0.0028
 2209TIP3    H128118   5.885   4.366   3.326  2.2098  2.0942 -1.1600
 2209TIP3    H228119   6.015   4.337   3.253  1.3684 -1.5497 -1.3800
 2210TIP3   OH228120   5.848   0.918   3.157  0.4657  0.1356  0.2567
 2210TIP3    H128121   5.765   0.879   3.185 -0.1237  2.1760  1.6309
 2210TIP3    H228122   5.866   0.879   3.072 -2.1096 -0.1179 -0.2541
 2211TIP3   OH228123   3.102   1.640  13.358  0.3414  0.1314 -0.5512
 2211TIP3    H128124   3.126   1.563  13.306 -0.7156 -3.8386  4.1440
 2211TIP3    H228125   3.182   1.664  13.405 -0.3978 -1.5406  1.7282
 2212TIP3   OH228126   5.982   6.144   5.209  0.2967 -0.2197  0.2285
 2212TIP3    H128127   6.054   6.202   5.183  1.9690 -2.8666 -1.5192
 2212TIP3    H228128   5.909   6.167   5.152  0.7256  0.5608 -0.0104
 2213TIP3   OH228129   3.141   6.068  16.318 -0.0256 -0.0029  0.4788
 2213TIP3    H128130   3.155   6.152  16.362 -0.9245 -0.4442  1.6415
 2213TIP3    H228131   3.123   6.092  16.227 -0.9713  1.1307  0.9357
 2214TIP3   OH228132   1.676   2.129   3.418  0.5903 -0.0979  0.4689
 2214TIP3    H128133   1.720   2.168   3.493  0.1770 -0.4404  0.8996
 2214TIP3    H228134   1.610   2.072   3.457 -0.7920  1.0225 -0.1505
 2215TIP3   OH228135   0.080   4.919  16.833  0.1970  0.8099 -0.2546
 2215TIP3    H128136   0.031   5.002  16.828  1.1541  1.3742 -0.4581
 2215TIP3    H228137   0.077   4.895  16.926  0.5793  1.4883 -0.0603
 2216TIP3   OH228138   5.170   0.739  12.720 -0.0524  0.3352 -0.1786
 2216TIP3    H128139   5.238   0.695  12.669 -0.5434 -0.8412  0.1522
 2216TIP3    H228140   5.126   0.669  12.767 -1.9802  0.9665 -0.9369
 2217TIP3   OH228141   2.809   2.914   5.303 -0.2527 -0.2647 -0.0232
 2217TIP3    H128142   2.774   2.989   5.257  0.0837 -0.3984 -0.5016
 2217TIP3    H228143   2.763   2.913   5.387 -2.2901 -1.1443 -1.0861
 2218TIP3   OH228144   1.702   0.627  16.760  0.3919  0.5161  0.4500
 2218TIP3    H128145   1.634   0.694  16.756  0.7452  0.8999  0.8279
 2218TIP3    H228146   1.778   0.666  16.716  0.1038 -0.2488 -0.7984
 2219TIP3   OH228147   4.971   3.708  14.525 -0.1566  0.3910 -0.1126
 2219TIP3    H128148   5.037   3.639  14.532 -0.4569  0.0205 -0.8592
 2219TIP3    H228149   4.989   3.751  14.442 -0.4943  0.6770 -0.0411
 2220TIP3   OH228150   3.426   4.728   3.036  0.1671  0.6562 -0.4355
 2220TIP3    H128151   3.347   4.681   3.011 -0.1230  0.6727  0.4309
 2220TIP3    H228152   3.430   4.801   2.974 -0.9239  1.1006 -0.0156
 2221TIP3   OH228153   6.026   1.384   5.635  0.1416 -0.4355 -0.1464
 2221TIP3    H128154   6.052   1.409   5.546 -1.0046  0.6187 -0.2174
 2221TIP3    H228155   6.008   1.467   5.679  0.4859 -0.9567  1.0187
 2222TIP3   OH228156   4.240   5.034  13.032  0.0088 -0.2319 -0.0979
 2222TIP3    H128157   4.334   5.022  13.041  0.0332  0.6839  1.2084
 2222TIP3    H228158   4.207   4.950  13.001  1.4563 -0.0347 -2.3918
 2223TIP3   OH228159   3.600   1.282   2.345  0.0869 -0.2708 -0.5458
 2223TIP3    H128160   3.515   1.264   2.305 -0.3336  1.9955 -0.7991
 2223TIP3    H228161   3.658   1.299   2.271  0.9022 -2.0840 -0.3932
 2224TIP3   OH228162   6.605   2.971  12.845 -0.3232 -0.3612 -0.4381
 2224TIP3    H128163   6.647   3.036  12.790 -0.1615  0.3590  0.5015
 2224TIP3    H228164   6.561   2.912  12.784  2.6288 -1.6072 -1.5289
 2225TIP3   OH228165   5.899   6.692   4.696 -0.2020  0.1118 -0.2884
 2225TIP3    H128166   5.846   6.716   4.772 -1.1975 -0.8023 -0.6710
 2225TIP3    H228167   5.884   6.762   4.633 -0.0395  0.4374  0.0267
 2226TIP3   OH228168   4.707   1.352   1.634  0.2226 -0.7452 -0.0031
 2226TIP3    H128169   4.681   1.434   1.592  1.5808  0.0612  0.6451
 2226TIP3    H228170   4.790   1.373   1.677  0.7238 -2.5309 -0.0167
 2227TIP3   OH228171   0.485   2.627   2.379  0.0572 -0.2429 -0.1109
 2227TIP3    H128172   0.481   2.648   2.473 -1.1921 -0.6979 -0.0493
 2227TIP3    H228173   0.496   2.532   2.377 -0.2936 -0.2764 -0.4269
 2228TIP3   OH228174   2.831   3.512   4.797  0.0596 -0.4511  0.0924
 2228TIP3    H128175   2.756   3.494   4.853  0.3483  1.2504  1.0970
 2228TIP3    H228176   2.907   3.487   4.850  0.3525  1.5148  0.6830
 2229TIP3   OH228177   5.760   2.857  16.184  0.4323 -0.2411  0.2148
 2229TIP3    H128178   5.850   2.839  16.211 -0.7583 -4.0679  2.4269
 2229TIP3    H228179   5.747   2.950  16.201  3.7637  0.3155  0.2683
 2230TIP3   OH228180   4.647   4.300   1.501 -0.3140 -0.2722  0.3535
 2230TIP3    H128181   4.611   4.212   1.489 -0.2364 -0.0769 -1.5531
 2230TIP3    H228182   4.735   4.295   1.465 -0.2463  0.5582  0.3833
 2231TIP3   OH228183   4.693   1.462  14.195  0.0563 -0.8186 -0.3832
 2231TIP3    H128184   4.688   1.481  14.101 -1.0854 -3.3048 -0.8818
 2231TIP3    H228185   4.739   1.379  14.201  1.6983  0.1335  1.4395
 2232TIP3   OH228186   0.411   1.291  13.232 -0.1432 -0.2466 -0.3086
 2232TIP3    H128187   0.421   1.375  13.187 -0.1838  0.3506  0.7712
 2232TIP3    H228188   0.425   1.311  13.324  0.7045 -1.5790 -0.1131
 2233TIP3   OH228189   5.053   2.804   2.998 -0.8142  0.3013 -0.3045
 2233TIP3    H128190   5.113   2.828   2.927 -0.3989 -0.6855 -0.3062
 2233TIP3    H228191   5.029   2.713   2.980 -1.8131  0.4796  0.0578
 2234TIP3   OH228192   0.123   4.024   6.553 -0.1423  0.0284  0.3265
 2234TIP3    H128193   0.182   4.016   6.479  0.6039  0.0890  0.9100
 2234TIP3    H228194   0.045   3.976   6.527  0.7794 -1.4322  0.1840
 2235TIP3   OH228195   6.666   4.752  11.478  0.0739  0.1953 -0.2971
 2235TIP3    H128196   6.742   4.808  11.487 -0.4054  0.9015 -0.5542
 2235TIP3    H228197   6.666   4.698  11.557  1.5746 -0.7533 -0.9026
 2236TIP3   OH228198   5.786   1.559  15.091  0.3582  0.2119  0.7659
 2236TIP3    H128199   5.877   1.566  15.063  0.1531 -0.7196 -0.1968
 2236TIP3    H228200   5.735   1.570  15.011 -0.3314 -0.3635  1.1049
 2237TIP3   OH228201   0.703   5.636   3.692  0.0237 -0.3491  0.3548
 2237TIP3    H128202   0.777   5.697   3.686 -0.5472  0.2921 -0.4451
 2237TIP3    H228203   0.664   5.638   3.604 -0.0613 -1.8111  0.3322
 2238TIP3   OH228204   5.045   2.829  15.347 -0.5087  0.0006  0.3672
 2238TIP3    H128205   4.981   2.875  15.401 -1.0323  1.4905 -1.4321
 2238TIP3    H228206   4.998   2.755  15.311 -0.6906  0.0755  0.4495
 2239TIP3   OH228207   1.239   6.104   4.379  0.1985 -0.3602  0.3767
 2239TIP3    H128208   1.169   6.045   4.352 -0.5786  1.2456 -1.3679
 2239TIP3    H228209   1.204   6.148   4.457 -0.6690  0.2310 -0.3195
 2240TIP3   OH228210   6.676   4.615  16.247  0.5074 -1.0459 -0.0549
 2240TIP3    H128211   6.653   4.580  16.333  0.6485 -2.5466 -0.6144
 2240TIP3    H228212   6.753   4.566  16.220 -0.6259 -1.9690 -1.8509
 2241TIP3   OH228213   3.293   3.816   5.787  0.6969 -0.6317  0.2856
 2241TIP3    H128214   3.260   3.847   5.871  0.1183 -0.9168  0.1693
 2241TIP3    H228215   3.382   3.788   5.804  0.8456  0.0382  0.6358
 2242TIP3   OH228216   3.316   5.285  13.533  0.7053  0.6026 -0.3537
 2242TIP3    H128217   3.300   5.239  13.615  0.7967  1.4469  0.1569
 2242TIP3    H228218   3.313   5.378  13.557 -1.1788  0.9229 -1.6495
 2243TIP3   OH228219   5.063   4.297   5.066  0.6507 -0.0256 -0.4245
 2243TIP3    H128220   5.099   4.313   4.979  0.5147 -1.9287 -0.8581
 2243TIP3    H228221   5.139   4.270   5.118  0.1766 -2.5394 -0.9474
 2244TIP3   OH228222   5.133   6.415  12.499 -0.4691 -0.4248  0.1940
 2244TIP3    H128223   5.061   6.446  12.444 -0.5596 -1.7533 -0.4677
 2244TIP3    H228224   5.212   6.430  12.446 -0.4284 -0.5164  0.2280
 2245TIP3   OH228225   6.134   3.112   5.339 -0.3753  0.3572  0.6843
 2245TIP3    H128226   6.100   3.134   5.252 -1.8831 -2.5236  0.4168
 2245TIP3    H228227   6.212   3.060   5.322 -0.7031 -0.2594  1.0343
 2246TIP3   OH228228   4.577   4.269  14.451 -0.0014 -1.0002 -0.3472
 2246TIP3    H128229   4.482   4.280  14.451  0.1029  0.1968 -1.5998
 2246TIP3    H228230   4.593   4.200  14.515 -1.6289 -0.5846  0.5615
 2247TIP3   OH228231   1.500   1.737  11.867 -0.5430 -0.2093  0.4808
 2247TIP3    H128232   1.518   1.664  11.808 -1.9828  0.3934 -0.7861
 2247TIP3    H228233   1.551   1.718  11.946  1.3905 -1.0736 -0.9158
 2248TIP3   OH228234   3.158   1.182   1.500  0.2277 -0.3144  0.2000
 2248TIP3    H128235   3.075   1.184   1.547 -0.9452  0.4089 -1.8064
 2248TIP3    H228236   3.168   1.270   1.465  0.7382 -0.9771 -1.4019
 2249TIP3   OH228237   5.859   2.406  16.666 -0.0099 -0.1969  0.1076
 2249TIP3    H128238   5.905   2.342  16.611  0.9532  0.8111 -0.2928
 2249TIP3    H228239   5.785   2.357  16.703  1.0186 -1.7036  0.2635
 2250TIP3   OH228240   1.356   0.354   4.515  0.1230  0.5035  0.1624
 2250TIP3    H128241   1.390   0.393   4.595  0.7608 -0.1285  0.2120
 2250TIP3    H228242   1.434   0.325   4.467 -0.2962 -0.1159 -0.1641
 2251TIP3   OH228243   0.891   5.210  10.976 -0.5384 -0.2116 -0.1915
 2251TIP3    H128244   0.822   5.144  10.992 -0.9945  0.5097  0.9451
 2251TIP3    H228245   0.972   5.166  11.001 -0.7687 -0.5432 -0.0208
 2252TIP3   OH228246   2.483   1.252  13.879  0.0696 -0.0767 -0.2568
 2252TIP3    H128247   2.392   1.268  13.905  0.1966  0.5510 -0.1830
 2252TIP3    H228248   2.488   1.157  13.867 -0.8622 -0.0249 -1.2399
 2253TIP3   OH228249   2.668   2.406   4.453 -0.2047  0.4500 -0.8365
 2253TIP3    H128250   2.679   2.375   4.542 -1.6934  0.5549 -0.5923
 2253TIP3    H228251   2.725   2.482   4.447 -1.5374  1.6501  0.6837
 2254TIP3   OH228252   2.431   6.587   2.174  0.1838  0.0665  0.1651
 2254TIP3    H128253   2.365   6.657   2.168  0.2493  0.1209  0.0667
 2254TIP3    H228254   2.400   6.530   2.244  0.1597  0.2282  0.2862
 2255TIP3   OH228255   0.099   2.263   5.699 -0.1037 -0.0097  0.4554
 2255TIP3    H128256   0.109   2.358   5.702  1.1052 -0.1042  0.1142
 2255TIP3    H228257   0.034   2.247   5.630  0.1214  0.5513  0.1103
 2256TIP3   OH228258   5.504   5.627  12.186  0.3901 -0.1146 -0.4424
 2256TIP3    H128259   5.581   5.607  12.240 -1.5568 -0.9527  2.2558
 2256TIP3    H228260   5.499   5.723  12.187 -0.5530 -0.0959  2.5449
 2257TIP3   OH228261   2.391   1.421  13.206  0.0634  0.3895  0.1539
 2257TIP3    H128262   2.359   1.501  13.247 -1.2038 -0.3022  0.5634
 2257TIP3    H228263   2.475   1.446  13.167 -0.7295  2.1517 -0.5306
 2258TIP3   OH228264   4.326   4.112   3.896 -0.3943  0.3130  0.0012
 2258TIP3    H128265   4.383   4.132   3.822  1.3556 -1.8334  0.6760
 2258TIP3    H228266   4.258   4.056   3.860 -0.7248  0.9291 -0.3493
 2259TIP3   OH228267   5.190   2.321  13.950  0.3806 -0.1146 -0.8979
 2259TIP3    H128268   5.175   2.252  13.886 -0.1512  0.9370 -1.9228
 2259TIP3    H228269   5.282   2.344  13.939  0.3140 -0.0011 -1.2080
 2260TIP3   OH228270   5.462   5.386  14.087 -0.4620  0.3191  0.2186
 2260TIP3    H128271   5.544   5.433  14.073 -0.6626  0.5458 -0.2126
 2260TIP3    H228272   5.464   5.362  14.180 -1.2168  2.8783  0.9793
 2261TIP3   OH228273   2.676   1.147  12.541  0.2513 -0.0270 -0.1092
 2261TIP3    H128274   2.727   1.111  12.614 -0.0174 -0.7516 -0.2697
 2261TIP3    H228275   2.738   1.151  12.468  0.3406  0.0493 -0.0289
 2262TIP3   OH228276   5.772   3.968   3.416  0.4693 -0.0085  0.3430
 2262TIP3    H128277   5.703   4.035   3.416 -0.6970 -1.1358 -1.3700
 2262TIP3    H228278   5.772   3.934   3.327  0.1185 -3.2015  1.4249
 2263TIP3   OH228279   6.529   1.206  11.317 -0.0493 -0.7157 -0.3528
 2263TIP3    H128280   6.510   1.113  11.302  0.4996 -0.6899 -1.3136
 2263TIP3    H228281   6.527   1.245  11.230  1.5300 -0.1918 -0.1946
 2264TIP3   OH228282   1.426   3.808  13.699  0.1202 -0.2854  0.1017
 2264TIP3    H128283   1.394   3.816  13.610  0.6716 -0.2130 -0.0960
 2264TIP3    H228284   1.357   3.761  13.746  0.8844 -2.6315 -0.9572
 2265TIP3   OH228285   4.100   1.188  12.057  1.1485 -0.0784 -0.6394
 2265TIP3    H128286   4.181   1.141  12.078  1.0765 -0.5073 -1.2811
 2265TIP3    H228287   4.093   1.256  12.124  0.6308 -1.7212  1.0529
 2266TIP3   OH228288   6.781   1.035  17.326  0.1878  0.5234 -0.5466
 2266TIP3    H128289   6.734   0.956  17.298  1.1718  0.3692 -1.8484
 2266TIP3    H228290   6.857   1.002  17.374  0.3748  0.6852 -0.7295
 2267TIP3   OH228291   0.118   2.726  16.406 -0.2909  0.3203 -0.2598
 2267TIP3    H128292   0.125   2.775  16.325 -1.2837 -2.1094 -1.9499
 2267TIP3    H228293   0.177   2.651  16.394  0.6558  0.6355  1.9138
 2268TIP3   OH228294   5.031   5.424  11.991  0.2499  0.0475  0.8589
 2268TIP3    H128295   5.060   5.505  12.033  0.9092  1.5434 -2.1833
 2268TIP3    H228296   5.112   5.377  11.972  0.3217  1.0279 -1.6233
 2269TIP3   OH228297   4.176   6.752   3.129 -0.2356  0.5299 -0.1673
 2269TIP3    H128298   4.214   6.668   3.103  1.1689  1.3219 -0.7772
 2269TIP3    H228299   4.129   6.783   3.052 -1.5377 -0.0979  0.3486
 2270TIP3   OH228300   0.645   3.620  16.852  0.3486  0.3495  0.1460
 2270TIP3    H128301   0.732   3.603  16.817 -0.1069 -0.7917 -0.5044
 2270TIP3    H228302   0.611   3.533  16.876 -0.0486  0.9072  1.8007
 2271TIP3   OH228303   0.619   4.127  12.115 -0.4705 -0.2680 -0.0196
 2271TIP3    H128304   0.567   4.191  12.067  0.7659 -0.2720 -1.4458
 2271TIP3    H228305   0.561   4.052  12.126 -1.1051  0.1336 -0.5809
 2272TIP3   OH228306   0.512   0.383   0.296  1.1209  0.2506 -0.7305
 2272TIP3    H128307   0.468   0.370   0.212 -0.3014  0.2243 -0.0056
 2272TIP3    H228308   0.448   0.428   0.351  1.9775  0.1516  0.3953
 2273TIP3   OH228309   1.239   2.876   2.329  0.2720  0.0589  0.1285
 2273TIP3    H128310   1.267   2.892   2.239  2.4911  0.2139  0.7801
 2273TIP3    H228311   1.313   2.906   2.382 -1.3033  0.7302  2.0585
 2274TIP3   OH228312   4.203   0.945   3.957 -0.3264 -0.1247  0.0235
 2274TIP3    H128313   4.264   0.877   3.927 -0.5718 -0.0760 -0.5967
 2274TIP3    H228314   4.241   0.975   4.039  0.5881  0.0244 -0.4306
 2275TIP3   OH228315   2.714   1.424  15.662  0.0499 -0.0568 -0.0283
 2275TIP3    H128316   2.676   1.448  15.746  1.0255 -1.7472  0.9625
 2275TIP3    H228317   2.766   1.500  15.636 -0.1817  0.4493  0.9554
 2276TIP3   OH228318   3.056   3.320   4.032  0.5703  0.1982 -0.1652
 2276TIP3    H128319   3.086   3.393   4.086 -0.4033  0.2864  0.2700
 2276TIP3    H228320   3.029   3.253   4.095  1.1257 -0.4168 -0.5586
 2277TIP3   OH228321   2.445   3.738   2.116  0.4230 -0.2252 -0.1292
 2277TIP3    H128322   2.487   3.652   2.115  1.7322  0.3950 -0.4246
 2277TIP3    H228323   2.442   3.765   2.025 -0.5814 -0.2202 -0.1072
 2278TIP3   OH228324   3.388   2.703  15.863 -0.0597 -0.1428  0.0659
 2278TIP3    H128325   3.304   2.666  15.889 -0.7387  0.1988 -1.5321
 2278TIP3    H228326   3.378   2.724  15.770  1.5690  0.5340  0.0004
 2279TIP3   OH228327   3.105   4.036  10.923  0.4033 -0.3941  0.3422
 2279TIP3    H128328   3.081   4.118  10.967 -0.8010 -0.3432 -0.3718
 2279TIP3    H228329   3.167   4.062  10.856 -1.3970  0.2698 -1.1582
 2280TIP3   OH228330   2.694   6.587  15.692 -0.3184 -0.1020 -0.4525
 2280TIP3    H128331   2.601   6.599  15.712  0.0151 -0.0397  1.1968
 2280TIP3    H228332   2.723   6.517  15.750  1.0337  1.0056  0.2853
 2281TIP3   OH228333   2.427   5.376  11.994 -0.2947  0.3817  0.8139
 2281TIP3    H128334   2.511   5.416  12.015  0.1162  1.2122 -1.9882
 2281TIP3    H228335   2.362   5.435  12.032  0.2825 -0.4165  3.2545
 2282TIP3   OH228336   1.821   5.456   1.994 -0.4613  0.0747 -0.3358
 2282TIP3    H128337   1.862   5.514   1.929 -0.4182  0.4254  0.0042
 2282TIP3    H228338   1.893   5.426   2.049 -0.2171 -1.6439 -1.5248
 2283TIP3   OH228339   0.517   3.322   3.487  0.3783  0.0362  0.5157
 2283TIP3    H128340   0.597   3.334   3.437  0.2035 -0.0484  0.2157
 2283TIP3    H228341   0.506   3.228   3.494  0.4373  0.0472  0.7719
 2284TIP3   OH228342   2.142   1.775   3.161 -0.1363  0.2809  0.3860
 2284TIP3    H128343   2.078   1.744   3.224 -1.7007 -0.1311 -1.3192
 2284TIP3    H228344   2.113   1.739   3.077  0.8799  2.1867 -0.8690
 2285TIP3   OH228345   1.141   6.007  12.609 -0.8862  0.6802  0.0625
 2285TIP3    H128346   1.210   6.032  12.548 -1.6740 -0.6935 -1.4748
 2285TIP3    H228347   1.094   6.088  12.628 -0.7319  1.1203 -1.3250
 2286TIP3   OH228348   3.633   4.171   0.230 -0.0834 -0.1717 -0.3721
 2286TIP3    H128349   3.604   4.223   0.156 -1.6985  0.9865  1.0226
 2286TIP3    H228350   3.562   4.110   0.247  0.4309 -0.6846  0.0005
 2287TIP3   OH228351   2.718   4.724   2.449  0.0770  0.0473 -0.0981
 2287TIP3    H128352   2.676   4.680   2.375 -1.3208  0.4701  0.3988
 2287TIP3    H228353   2.669   4.694   2.526  0.4526  0.8436  0.4694
 2288TIP3   OH228354   2.943   2.365   4.915  0.2506 -0.3743 -0.2162
 2288TIP3    H128355   3.034   2.337   4.923  0.2559 -0.4835 -0.6327
 2288TIP3    H228356   2.945   2.459   4.932  0.4389 -0.3803 -0.2077
 2289TIP3   OH228357   4.235   6.519   1.284 -0.1135 -0.3094 -0.2609
 2289TIP3    H128358   4.302   6.570   1.240 -0.0919 -0.1127 -0.0049
 2289TIP3    H228359   4.277   6.490   1.366 -0.5277  0.3067  0.1778
 2290TIP3   OH228360   0.050   5.707   4.330 -0.2144  0.3581  0.4030
 2290TIP3    H128361   0.045   5.615   4.357 -2.6504  0.4938  0.6662
 2290TIP3    H228362  -0.041   5.731   4.313  0.2229  3.0405  1.4370
 2291TIP3   OH228363   0.715   6.426  17.312 -0.0689  0.5280 -0.2759
 2291TIP3    H128364   0.808   6.411  17.292 -0.0107 -1.3591  1.1005
 2291TIP3    H228365   0.716   6.497  17.377  0.5812 -0.5725  0.9643
 2292TIP3   OH228366   6.496   3.940   3.473 -0.0948 -0.3414  0.0191
 2292TIP3    H128367   6.571   3.922   3.416 -0.6680  0.1311 -0.9165
 2292TIP3    H228368   6.449   3.856   3.478 -0.7888 -0.0584 -1.3563
 2293TIP3   OH228369   1.797   4.783  12.013 -0.1665  0.1220 -0.3253
 2293TIP3    H128370   1.779   4.766  11.920  1.8242  1.3557 -0.9946
 2293TIP3    H228371   1.752   4.866  12.031 -1.5157 -0.6884  0.1700
 2294TIP3   OH228372   6.598   0.970   5.867  0.2483 -0.2468  0.2557
 2294TIP3    H128373   6.506   0.942   5.870  0.2319 -0.1636  3.3172
 2294TIP3    H228374   6.593   1.065   5.854 -0.0061 -0.4334 -1.1438
 2295TIP3   OH228375   6.100   2.359   0.553 -0.0447  0.3632 -0.1709
 2295TIP3    H128376   6.145   2.275   0.540 -0.9560  0.0582 -1.7155
 2295TIP3    H228377   6.166   2.425   0.534  1.2927  0.1263  3.1135
 2296TIP3   OH228378   6.470   0.134   4.915  0.3977 -0.7028  0.0336
 2296TIP3    H128379   6.388   0.093   4.942  1.0981 -0.4775  2.8202
 2296TIP3    H228380   6.491   0.094   4.830 -1.7077 -1.9895  0.0664
 2297TIP3   OH228381   5.093   1.526   6.889  0.0880 -0.6609  0.5626
 2297TIP3    H128382   5.099   1.622   6.885  0.5264 -0.6358  1.4564
 2297TIP3    H228383   5.010   1.509   6.934 -0.0377 -0.7017  0.3146
 2298TIP3   OH228384   2.821   3.926  16.052 -0.8301 -0.2834 -0.3224
 2298TIP3    H128385   2.781   3.887  16.130 -0.7365  0.8483  0.3135
 2298TIP3    H228386   2.797   4.019  16.057  2.3554  0.6011  0.4092
 2299TIP3   OH228387   3.579   4.885  11.175  0.1396 -0.1252 -0.3022
 2299TIP3    H128388   3.670   4.896  11.150  0.0556  0.7518 -0.2398
 2299TIP3    H228389   3.533   4.957  11.133 -0.2876  0.3158  0.8864
 2300TIP3   OH228390   5.387   0.369   3.605  0.0865  0.5064 -0.0715
 2300TIP3    H128391   5.406   0.412   3.521 -1.2969 -0.4597 -0.9240
 2300TIP3    H228392   5.305   0.322   3.589  1.0647 -1.7440  1.0649
 2301TIP3   OH228393   6.469   0.604   2.394 -0.3508 -0.4232 -0.5218
 2301TIP3    H128394   6.507   0.678   2.441 -2.2476  0.3188 -0.0572
 2301TIP3    H228395   6.541   0.569   2.342  1.0303  0.6530  0.5834
 2302TIP3   OH228396   3.424   2.082   2.714  0.2628  0.0998 -0.0656
 2302TIP3    H128397   3.426   1.999   2.762 -1.8145 -0.3763 -0.7047
 2302TIP3    H228398   3.504   2.080   2.661  1.1875 -0.6118  1.2954
 2303TIP3   OH228399   4.599   5.417   0.846 -0.1452  0.2342 -0.3759
 2303TIP3    H128400   4.620   5.359   0.773  1.9584 -0.4582  0.6851
 2303TIP3    H228401   4.680   5.422   0.897 -1.3157  1.2425  1.5324
 2304TIP3   OH228402   4.616   0.719  13.833  0.4271  0.6154  0.1807
 2304TIP3    H128403   4.522   0.712  13.850  0.1637  1.3400 -0.8651
 2304TIP3    H228404   4.640   0.633  13.798 -0.2513  0.9723 -1.2617
 2305TIP3   OH228405   4.222   3.042   5.989  0.6128  0.3068  0.9111
 2305TIP3    H128406   4.222   3.119   5.933  0.3831  1.1524  2.0330
 2305TIP3    H228407   4.246   2.970   5.931  0.9249  1.2277 -0.1379
 2306TIP3   OH228408   4.505   6.174  15.672  0.3227 -0.2555 -0.1324
 2306TIP3    H128409   4.553   6.096  15.699 -3.5487 -2.0251  2.5775
 2306TIP3    H228410   4.482   6.158  15.580 -0.1725 -2.2325  0.3064
 2307TIP3   OH228411   1.493   1.811  12.377  0.7007 -0.1583 -0.0707
 2307TIP3    H128412   1.418   1.864  12.349  0.3649 -2.0250 -3.1164
 2307TIP3    H228413   1.549   1.873  12.424 -2.0090  1.6383  1.0212
 2308TIP3   OH228414   2.619   5.962   2.006 -0.0800  0.4701 -0.7130
 2308TIP3    H128415   2.537   5.956   1.957 -0.0399  1.3099 -0.9064
 2308TIP3    H228416   2.593   5.978   2.096 -0.1499 -0.8061 -0.4951
 2309TIP3   OH228417   4.084   0.117  17.066  0.7348  0.1257  0.3988
 2309TIP3    H128418   4.023   0.100  16.994  2.0618  2.3801 -1.4187
 2309TIP3    H228419   4.056   0.201  17.102  1.4939  0.1652  0.9302
 2310TIP3   OH228420   0.426   5.570  16.760 -0.0412  0.4248 -0.4951
 2310TIP3    H128421   0.352   5.599  16.707 -1.3669 -1.3223  0.2766
 2310TIP3    H228422   0.454   5.648  16.807 -0.9647  1.2828 -1.3117
 2311TIP3   OH228423   3.486   6.406   4.873 -0.6851 -0.4098  0.4369
 2311TIP3    H128424   3.532   6.350   4.810 -1.2221 -0.0550 -0.2907
 2311TIP3    H228425   3.490   6.358   4.956  2.6450  0.4664  0.8987
 2312TIP3   OH228426   5.958   6.364  14.772  0.6951  0.1628 -0.1115
 2312TIP3    H128427   5.960   6.459  14.759  1.2466  0.0455 -0.9297
 2312TIP3    H228428   5.961   6.353  14.867  2.3641  0.9343 -0.0442
 2313TIP3   OH228429   2.246   0.239   4.806  0.0536  0.1363  0.7284
 2313TIP3    H128430   2.255   0.156   4.758  2.2419  0.7974 -0.1022
 2313TIP3    H228431   2.247   0.213   4.898  0.4816 -0.7806  0.4775
 2314TIP3   OH228432   1.280   3.401  10.841  0.0605  0.3446 -0.6065
 2314TIP3    H128433   1.329   3.320  10.855  2.4964  1.6846 -0.8601
 2314TIP3    H228434   1.247   3.394  10.751  0.5853 -0.1945 -0.7616
 2315TIP3   OH228435   0.603   3.654  11.904 -0.1179 -0.1900  0.3169
 2315TIP3    H128436   0.532   3.620  11.849 -0.5981 -0.6226  1.1847
 2315TIP3    H228437   0.632   3.733  11.859 -1.4530  0.2436  0.1592
 2316TIP3   OH228438   3.535   4.654  12.489 -0.3093  0.3563 -0.0179
 2316TIP3    H128439   3.555   4.747  12.496 -0.0593  0.2341  1.1557
 2316TIP3    H228440   3.455   4.650  12.437 -0.7827  1.2924  0.6043
 2317TIP3   OH228441   4.096   0.889   2.586 -0.3148  0.0287  0.4049
 2317TIP3    H128442   4.027   0.847   2.535 -0.5866 -1.2191  1.7432
 2317TIP3    H228443   4.091   0.982   2.562 -2.7659  0.0575  0.8129
 2318TIP3   OH228444   6.030   1.959   5.384 -0.5225  0.1151  0.2988
 2318TIP3    H128445   6.103   1.897   5.372  0.6063  1.1306  1.5585
 2318TIP3    H228446   5.952   1.906   5.374  0.2808 -0.6171 -3.3780
 2319TIP3   OH228447   0.671   5.765   1.627 -0.1814  0.0314 -0.5300
 2319TIP3    H128448   0.586   5.736   1.593  0.7618  1.2751 -4.4727
 2319TIP3    H228449   0.649   5.830   1.694 -2.2357 -2.3763  1.2780
 2320TIP3   OH228450   0.255   4.733  15.626 -0.7009 -0.2118  0.1391
 2320TIP3    H128451   0.202   4.702  15.553 -0.4786  0.9468 -0.5445
 2320TIP3    H228452   0.211   4.812  15.657  1.1210  1.4161 -1.1546
 2321TIP3   OH228453   0.267   0.217   5.615  0.5231 -0.1791 -0.0279
 2321TIP3    H128454   0.295   0.264   5.694 -1.3335  0.0776  0.5297
 2321TIP3    H228455   0.300   0.128   5.628  1.2510  0.1495  0.4677
 2322TIP3   OH228456   6.730   2.286  10.887 -0.3222 -0.3949  0.0533
 2322TIP3    H128457   6.782   2.286  10.968 -1.2778  0.6920  0.6925
 2322TIP3    H228458   6.793   2.268  10.818  0.5289 -1.3071  1.0236
 2323TIP3   OH228459   5.724   2.035  15.956 -0.3400 -0.1039 -0.1584
 2323TIP3    H128460   5.659   2.017  16.024  1.2233 -0.4963  1.2927
 2323TIP3    H228461   5.725   1.955  15.903  0.1386 -0.7625  0.8242
 2324TIP3   OH228462   6.080   1.952   5.882  0.2915  0.3067 -0.2702
 2324TIP3    H128463   6.151   1.934   5.944 -1.1782 -1.1745  1.0793
 2324TIP3    H228464   6.114   1.923   5.797  0.8481 -1.6895  0.5811
 2325TIP3   OH228465   5.482   4.733   5.893  0.3001  0.0573  0.5465
 2325TIP3    H128466   5.554   4.725   5.832 -0.9191  2.8440 -1.4364
 2325TIP3    H228467   5.523   4.763   5.975  1.5095  0.4832 -0.1895
 2326TIP3   OH228468   6.760   0.544   4.177  0.2228 -0.0595 -0.3104
 2326TIP3    H128469   6.814   0.507   4.108  1.0422  1.5695 -0.5650
 2326TIP3    H228470   6.671   0.542   4.142  0.8442  2.6009 -2.3306
 2327TIP3   OH228471   5.784   6.566  16.651  0.6228  0.0075 -0.5684
 2327TIP3    H128472   5.776   6.647  16.599  1.4455 -0.4663 -1.4653
 2327TIP3    H228473   5.877   6.562  16.673  0.0895  1.0169  2.3547
 2328TIP3   OH228474   5.307   0.733  15.731  1.2080 -0.1327  0.0159
 2328TIP3    H128475   5.283   0.676  15.658  2.0815 -0.2473 -0.1893
 2328TIP3    H228476   5.311   0.820  15.693  1.2610 -0.1349  0.0166
 2329TIP3   OH228477   1.004   5.658  14.936  0.8710  0.3201  0.1310
 2329TIP3    H128478   1.048   5.589  14.886 -0.7019 -0.8461  0.2739
 2329TIP3    H228479   0.911   5.645  14.918  0.5124  2.4429  0.1565
 2330TIP3   OH228480   5.334   3.821  15.851 -0.1061 -0.5403  0.4446
 2330TIP3    H128481   5.275   3.836  15.777 -0.8420 -0.0820  1.1147
 2330TIP3    H228482   5.384   3.903  15.858 -0.4486 -0.3616  0.8194
 2331TIP3   OH228483   6.603   0.963   4.238 -0.2060 -0.2726 -0.1253
 2331TIP3    H128484   6.522   0.920   4.263  0.4647 -0.8533  1.1507
 2331TIP3    H228485   6.623   1.022   4.311  1.4498 -1.5037  0.4921
 2332TIP3   OH228486   6.726   5.382  14.981 -0.0291 -0.0489  0.2217
 2332TIP3    H128487   6.660   5.339  14.927 -0.6116  1.2900 -0.1775
 2332TIP3    H228488   6.777   5.435  14.919 -1.0742  1.9724  1.0013
 2333TIP3   OH228489   5.771   5.877  11.192  0.3937  0.5334 -0.4421
 2333TIP3    H128490   5.779   5.863  11.098  0.5883 -2.0749 -0.1129
 2333TIP3    H228491   5.696   5.937  11.201 -1.2757 -1.1456 -2.1844
 2334TIP3   OH228492   5.841   4.699   4.598 -0.3450 -0.8128  0.7089
 2334TIP3    H128493   5.749   4.690   4.575 -0.4547 -0.5770  1.0487
 2334TIP3    H228494   5.886   4.705   4.514 -0.8143  0.7490  0.5343
 2335TIP3   OH228495   2.036   3.299   3.655 -0.9180 -0.3144 -0.1272
 2335TIP3    H128496   1.986   3.275   3.733 -1.4824 -1.2311 -0.7404
 2335TIP3    H228497   1.981   3.270   3.582  0.2018 -0.7087 -0.8445
 2336TIP3   OH228498   3.236   2.473  12.573 -0.3490  0.0858 -0.6083
 2336TIP3    H128499   3.196   2.433  12.496 -0.0488 -0.7883 -0.3159
 2336TIP3    H228500   3.295   2.406  12.608  0.9799  1.1599 -0.7237
 2337TIP3   OH228501   1.408   3.007  11.916  0.1516 -0.0593 -0.1250
 2337TIP3    H128502   1.483   2.969  11.961 -1.5261 -2.8061  0.6003
 2337TIP3    H228503   1.382   3.082  11.970  2.2134  0.8591 -0.3279
 2338TIP3   OH228504   5.065   1.931   0.246 -0.3921  0.0751  0.1458
 2338TIP3    H128505   4.975   1.908   0.270 -0.3422 -1.6968 -1.1964
 2338TIP3    H228506   5.071   1.912   0.153  0.5441  3.0290 -0.4847
 2339TIP3   OH228507   5.185   1.035   0.318 -0.1981  0.3743  0.4470
 2339TIP3    H128508   5.209   1.128   0.316  1.6480 -0.0777 -0.2436
 2339TIP3    H228509   5.235   0.999   0.392  0.2629 -0.3481 -0.2069
 2340TIP3   OH228510   2.398   5.428  13.324 -0.1024  0.3554  0.3614
 2340TIP3    H128511   2.465   5.368  13.294 -1.0005 -0.8452  0.7044
 2340TIP3    H228512   2.391   5.494  13.255 -2.5535 -2.6270 -2.5482
 2341TIP3   OH228513   2.556   1.272  17.123 -0.2832 -0.1509 -0.2892
 2341TIP3    H128514   2.620   1.204  17.145  1.3983  1.1590 -0.8480
 2341TIP3    H228515   2.518   1.243  17.041 -1.0980 -1.3828  0.4889
 2342TIP3   OH228516   2.621   0.558   4.844  0.2304  0.2169 -0.1047
 2342TIP3    H128517   2.542   0.558   4.791  0.1158  1.2986  0.0374
 2342TIP3    H228518   2.692   0.570   4.781  0.2273 -0.1508 -0.1755
 2343TIP3   OH228519   3.499   2.649   3.686  0.3551 -0.2478 -0.0906
 2343TIP3    H128520   3.544   2.733   3.674 -0.2215  0.0743 -0.0009
 2343TIP3    H228521   3.549   2.588   3.631  1.1494  0.0136  0.3121
 2344TIP3   OH228522   0.301   4.724   4.700  0.1708  0.0125  0.2688
 2344TIP3    H128523   0.276   4.646   4.749  1.8634 -0.6591  0.1110
 2344TIP3    H228524   0.326   4.692   4.614  0.5726  0.7739  0.0959
 2345TIP3   OH228525   4.955   0.658   3.389  0.1652  0.2938  0.2613
 2345TIP3    H128526   4.935   0.628   3.300  0.3609  0.3803  0.1867
 2345TIP3    H228527   4.938   0.752   3.387 -0.8299  0.1335  0.6056
 2346TIP3   OH228528   2.183   0.034  15.998 -0.0460 -0.1115 -0.0763
 2346TIP3    H128529   2.104   0.052  15.947 -0.0634 -2.8992 -1.2181
 2346TIP3    H228530   2.254   0.032  15.934  0.6189  0.2994  0.6267
 2347TIP3   OH228531   1.322   4.412  14.496  0.4313  0.6602  0.1718
 2347TIP3    H128532   1.328   4.347  14.427 -1.3183 -1.3431  1.7737
 2347TIP3    H228533   1.250   4.470  14.469 -0.8774 -0.6662  0.6440
 2348TIP3   OH228534   6.464   5.414  11.606  0.2844 -0.0815 -0.3134
 2348TIP3    H128535   6.400   5.365  11.554 -0.1896  0.1029  0.0906
 2348TIP3    H228536   6.540   5.355  11.613  0.2951 -0.1694 -1.0753
 2349TIP3   OH228537   1.222   0.355   2.353  0.3015  0.0798 -0.2142
 2349TIP3    H128538   1.230   0.305   2.272  1.3652  0.3208 -0.2794
 2349TIP3    H228539   1.140   0.326   2.391  0.1062 -0.5191 -1.0568
 2350TIP3   OH228540   5.002   1.229   0.950 -0.0568 -0.4955 -0.0020
 2350TIP3    H128541   4.927   1.184   0.989 -0.5042 -0.2085 -0.5174
 2350TIP3    H228542   5.032   1.170   0.881  1.2634 -1.3978  1.2836
 2351TIP3   OH228543   4.459   4.122   5.894  0.0798 -0.2996  0.3425
 2351TIP3    H128544   4.553   4.111   5.906  0.1763  0.0311 -0.0789
 2351TIP3    H228545   4.420   4.084   5.973  0.5690 -0.3448  0.5665
 2352TIP3   OH228546   5.453   6.430   0.575 -0.3714 -0.0933 -0.0003
 2352TIP3    H128547   5.383   6.371   0.602  0.4887 -1.1273 -0.0096
 2352TIP3    H228548   5.533   6.378   0.581  0.5085  1.2719  0.6935
 2353TIP3   OH228549   5.001   2.699   1.570  0.3411 -0.6656  0.8893
 2353TIP3    H128550   5.047   2.712   1.487  0.0608 -1.7796  0.5430
 2353TIP3    H228551   5.046   2.625   1.611 -0.1766 -0.7884  1.2487
 2354TIP3   OH228552   6.342   3.192  17.392  0.1506 -0.3675  0.5431
 2354TIP3    H128553   6.311   3.186  17.301 -0.2412  1.8272  0.4752
 2354TIP3    H228554   6.436   3.174  17.386  0.3895  1.0188 -0.5462
 2355TIP3   OH228555   2.038   5.358   2.116  0.0236  0.1687 -0.5088
 2355TIP3    H128556   2.081   5.310   2.045 -0.9782  0.7552 -1.5442
 2355TIP3    H228557   2.103   5.423   2.143  0.5661 -0.3239 -0.5982
 2356TIP3   OH228558   3.633   1.113   6.110  0.0191  0.2847 -0.3146
 2356TIP3    H128559   3.627   1.026   6.150  0.7837  0.5120  0.3372
 2356TIP3    H228560   3.573   1.167   6.161 -1.1558 -0.0474 -1.3036
 2357TIP3   OH228561   5.027   5.292  11.729 -0.1126  0.3415 -0.3797
 2357TIP3    H128562   5.023   5.353  11.802  1.9879 -0.0483  0.1245
 2357TIP3    H228563   5.042   5.206  11.769  0.2524 -0.0032 -1.2118
 2358TIP3   OH228564   1.516   1.980  14.319  0.4021  0.3942  0.4698
 2358TIP3    H128565   1.598   1.963  14.366  0.1173  0.4074  0.9824
 2358TIP3    H228566   1.508   1.907  14.259 -0.2132 -0.7010  1.8295
 2359TIP3   OH228567   5.435   2.620   1.581  0.3416  0.0529  0.2045
 2359TIP3    H128568   5.382   2.668   1.644  0.3590  0.4760 -0.1025
 2359TIP3    H228569   5.373   2.562   1.537  0.3537 -0.3474  0.7049
 2360TIP3   OH228570   4.480   0.688  16.100  0.0970 -0.1754 -0.7421
 2360TIP3    H128571   4.571   0.669  16.077  0.5556 -0.9001  1.4179
 2360TIP3    H228572   4.464   0.775  16.064  1.2230 -0.5359 -2.2326
 2361TIP3   OH228573   6.534   2.658   5.816  0.5509  0.3910 -0.0603
 2361TIP3    H128574   6.575   2.620   5.894  0.5654  1.1883  0.3386
 2361TIP3    H228575   6.585   2.624   5.743  0.1645 -0.8359  0.2332
 2362TIP3   OH228576   3.974   0.205   0.818 -1.1554  0.7067  0.1790
 2362TIP3    H128577   3.994   0.297   0.796 -0.1218  0.0701 -1.7889
 2362TIP3    H228578   4.042   0.155   0.774 -1.6880 -1.0359  1.2517
 2363TIP3   OH228579   3.422   6.521   1.037 -0.0003 -0.1855  0.0598
 2363TIP3    H128580   3.417   6.568   1.121 -0.3200 -1.5883  0.8551
 2363TIP3    H228581   3.332   6.518   1.006  0.3558  2.2261 -1.4777
 2364TIP3   OH228582   5.971   4.799   4.380  0.0810  0.4665  0.6966
 2364TIP3    H128583   5.978   4.831   4.290 -0.9357 -1.0438  0.0385
 2364TIP3    H228584   6.060   4.807   4.415  0.2887  2.0121 -0.0783
 2365TIP3   OH228585   6.534   5.982  16.382 -0.0846 -0.3658 -0.4753
 2365TIP3    H128586   6.545   5.995  16.476  3.3706  0.4381 -0.8610
 2365TIP3    H228587   6.452   6.027  16.361 -0.1487  0.7899  1.9013
 2366TIP3   OH228588   4.503   1.332   0.500 -0.6846 -0.4206  0.3735
 2366TIP3    H128589   4.553   1.326   0.581 -1.9953 -0.6485  1.1798
 2366TIP3    H228590   4.459   1.248   0.492 -1.1509 -0.1300 -0.1947
 2367TIP3   OH228591   2.077   5.392   4.865 -0.1876  0.1910 -0.0632
 2367TIP3    H128592   2.063   5.484   4.841 -0.2429  0.3357  0.5047
 2367TIP3    H228593   1.988   5.356   4.873 -0.1666  0.1005 -0.2457
 2368TIP3   OH228594   1.371   1.421  12.856 -0.2314 -0.2743  0.0207
 2368TIP3    H128595   1.440   1.480  12.885  0.9110 -1.1139 -0.9298
 2368TIP3    H228596   1.315   1.410  12.933  0.1030  1.2306  0.4991
 2369TIP3   OH228597   3.449   1.118  12.480  0.4268  0.4468  0.0496
 2369TIP3    H128598   3.478   1.125  12.389  0.7646 -0.2880  0.0978
 2369TIP3    H228599   3.526   1.141  12.532  0.1117  1.3095  0.1572
 2370TIP3   OH228600   4.509   2.332  16.963 -0.3672 -0.2071  0.3454
 2370TIP3    H128601   4.564   2.256  16.980 -0.3910 -0.5888 -1.1330
 2370TIP3    H228602   4.513   2.344  16.868  0.2948  2.1566  0.6038
 2371TIP3   OH228603   5.753   0.093   2.359  0.5369  0.6782  0.1298
 2371TIP3    H128604   5.690   0.040   2.310 -0.6146  1.4263  0.7545
 2371TIP3    H228605   5.828   0.102   2.300  0.3340 -0.7466 -0.3910
 2372TIP3   OH228606   5.381   6.782   0.349 -0.1792  0.1166  0.3182
 2372TIP3    H128607   5.414   6.721   0.283  1.1819  2.9382 -1.8618
 2372TIP3    H228608   5.309   6.828   0.306  0.4370  1.7105  0.8809
 2373TIP3   OH228609   3.461   4.663  14.104  0.0638 -0.2386 -0.3699
 2373TIP3    H128610   3.432   4.713  14.027  2.1129 -0.8331 -1.5977
 2373TIP3    H228611   3.450   4.572  14.079  0.3544 -0.4387  0.2182
 2374TIP3   OH228612   4.241   4.525   3.448  0.2032 -0.0238  0.1631
 2374TIP3    H128613   4.313   4.572   3.489  1.1836 -0.5104 -0.9652
 2374TIP3    H228614   4.252   4.540   3.354 -0.8846 -0.5022 -0.0628
 2375TIP3   OH228615   1.493   5.922   6.419 -0.5496 -0.1891 -0.3493
 2375TIP3    H128616   1.478   5.990   6.353  2.8178  0.6988 -0.3908
 2375TIP3    H228617   1.455   5.958   6.499  0.2586  1.3283 -0.6075
 2376TIP3   OH228618   2.182   1.336  14.894 -0.0195  0.1443  0.0124
 2376TIP3    H128619   2.258   1.327  14.951  0.2522 -1.1664 -0.5049
 2376TIP3    H228620   2.107   1.323  14.952  0.0834  2.1485  0.6577
 2377TIP3   OH228621   4.931   3.226   6.069 -0.0844  0.2319  0.2265
 2377TIP3    H128622   5.010   3.233   6.122 -0.4660  0.3702  0.7822
 2377TIP3    H228623   4.859   3.222   6.132 -0.4778 -0.5953 -0.2506
 2378TIP3   OH228624   2.800   3.005   4.551 -0.6022 -0.4501  0.3843
 2378TIP3    H128625   2.841   3.080   4.595 -0.6227  0.6289 -1.3427
 2378TIP3    H228626   2.712   3.036   4.529  0.2119  0.0356 -2.6264
 2379TIP3   OH228627   4.317   0.523  12.788  0.9392 -0.1096 -0.2769
 2379TIP3    H128628   4.323   0.603  12.840  2.7675 -0.1047 -0.4351
 2379TIP3    H228629   4.369   0.541  12.709  0.7925 -1.2035 -0.6447
 2380TIP3   OH228630   2.420   1.310   3.585  0.5674 -0.0149  0.2219
 2380TIP3    H128631   2.481   1.373   3.545  0.4204 -0.3172 -0.5022
 2380TIP3    H228632   2.476   1.238   3.613  0.6299  0.0345  0.2258
 2381TIP3   OH228633   2.192   4.149   2.972 -0.0615 -0.0186  0.1424
 2381TIP3    H128634   2.277   4.173   2.936 -0.5509 -0.4884 -1.4070
 2381TIP3    H228635   2.147   4.105   2.899 -1.3920 -0.3186  1.1162
 2382TIP3   OH228636   4.985   6.350  14.684 -0.8415  0.2451 -0.0927
 2382TIP3    H128637   5.055   6.411  14.709 -1.0273  0.9955 -1.3306
 2382TIP3    H228638   5.007   6.322  14.596 -1.1178 -1.0006  0.2185
 2383TIP3   OH228639   2.570   0.792  11.251 -0.0783  0.4410 -0.1069
 2383TIP3    H128640   2.613   0.715  11.214  1.8304  0.3367  2.0730
 2383TIP3    H228641   2.637   0.860  11.250 -1.6373  2.0797 -1.7175
 2384TIP3   OH228642   1.854   1.971  17.369 -0.3870 -0.4288  0.0164
 2384TIP3    H128643   1.912   1.895  17.371 -2.0290 -1.8086 -1.3962
 2384TIP3    H228644   1.812   1.968  17.283  0.5025  2.9362 -0.6944
 2385TIP3   OH228645   4.112   5.981  15.543  0.3232  0.1593  0.5659
 2385TIP3    H128646   4.203   6.001  15.565  0.9748 -2.3063  0.4011
 2385TIP3    H228647   4.060   6.024  15.611  1.5605  1.9741  0.4104
 2386TIP3   OH228648   4.860   0.691   5.166  0.1196 -0.3386 -0.0847
 2386TIP3    H128649   4.779   0.644   5.186 -0.0052 -0.0773  0.0293
 2386TIP3    H228650   4.904   0.637   5.101 -0.3286 -0.2989 -0.4283
 2387TIP3   OH228651   5.007   6.505   0.010  0.2417 -1.2778  0.0163
 2387TIP3    H128652   4.949   6.463   0.075 -1.1969 -0.4861 -0.7073
 2387TIP3    H228653   5.008   6.597   0.036  2.7643 -1.5506  1.1375
 2388TIP3   OH228654   6.661   5.458   1.747  0.1002 -0.0546 -0.2937
 2388TIP3    H128655   6.624   5.434   1.832 -0.0440 -1.1418 -0.6485
 2388TIP3    H228656   6.600   5.420   1.683  0.9781 -0.5178 -0.8769
 2389TIP3   OH228657   3.877   3.284  13.212  0.2889 -0.3776  0.2832
 2389TIP3    H128658   3.947   3.317  13.155  1.0224  2.3388  2.5617
 2389TIP3    H228659   3.799   3.331  13.182  0.0763 -0.9879 -0.1577
 2390TIP3   OH228660   5.602   3.820  16.189 -0.9084 -0.0784  0.2911
 2390TIP3    H128661   5.674   3.821  16.252 -0.9209 -0.8704  0.3195
 2390TIP3    H228662   5.564   3.908  16.196 -0.6536 -0.0244  1.0899
 2391TIP3   OH228663   2.071   5.903  16.233 -0.4427 -0.0321 -0.0836
 2391TIP3    H128664   2.040   5.909  16.142  0.6619  0.2487 -0.4568
 2391TIP3    H228665   2.020   5.832  16.271  1.7839 -2.9182 -2.0716
 2392TIP3   OH228666   4.032   0.186   5.516  0.3713 -0.0252 -0.2572
 2392TIP3    H128667   4.103   0.173   5.453  0.4506 -2.0432  0.1732
 2392TIP3    H228668   4.078   0.203   5.599  0.3807 -0.9972 -0.0471
 2393TIP3   OH228669   1.236   4.857  13.926 -0.3371  0.0448 -0.1700
 2393TIP3    H128670   1.166   4.819  13.873  0.4657  1.0619 -2.0639
 2393TIP3    H228671   1.288   4.908  13.864  0.8583  1.0506  1.5712
 2394TIP3   OH228672   3.671   0.965   3.602  0.5878  0.3530  0.4239
 2394TIP3    H128673   3.671   1.013   3.685 -0.3332 -0.5153  0.9495
 2394TIP3    H228674   3.693   0.875   3.627  0.6979  0.1607 -0.3354
 2395TIP3   OH228675   2.640   2.766   2.428  0.3251  0.3049 -0.1590
 2395TIP3    H128676   2.573   2.825   2.462 -1.5351 -1.5938 -0.3309
 2395TIP3    H228677   2.668   2.715   2.504  0.1919 -0.2120 -0.4577
 2396TIP3   OH228678   6.380   5.733  14.400  0.5273 -0.4820 -0.6348
 2396TIP3    H128679   6.456   5.706  14.348  0.0264 -0.3718 -1.4389
 2396TIP3    H228680   6.304   5.699  14.352  0.0125  0.3188 -0.4043
 2397TIP3   OH228681   1.728   2.768  17.272 -0.2804 -0.4015  0.1506
 2397TIP3    H128682   1.757   2.847  17.227 -0.0210 -0.7485 -0.3041
 2397TIP3    H228683   1.745   2.697  17.210  1.1885 -1.0523  1.2171
 2398TIP3   OH228684   4.112   0.670   2.208  0.2799  0.2663  0.1532
 2398TIP3    H128685   4.207   0.678   2.193  0.2589  1.1327  0.4256
 2398TIP3    H228686   4.105   0.612   2.284  0.4836 -1.8731 -1.3658
 2399TIP3   OH228687   0.791   0.206   2.986 -0.1981 -0.4553 -0.7636
 2399TIP3    H128688   0.717   0.145   2.984 -1.3624  0.6391  2.2703
 2399TIP3    H228689   0.836   0.186   3.068 -0.1992  2.2066 -0.0282
 2400TIP3   OH228690   6.328   4.996   5.900 -0.3662  0.1587  0.1692
 2400TIP3    H128691   6.378   5.049   5.962 -1.2093  0.6356  0.4572
 2400TIP3    H228692   6.312   5.055   5.826 -1.4750  0.3989  0.5729
 2401TIP3   OH228693   4.938   4.434  11.710 -0.1931 -0.4099  0.2201
 2401TIP3    H128694   5.012   4.415  11.768 -0.9265 -0.4583  1.1651
 2401TIP3    H228695   4.974   4.490  11.642  0.4558  0.5972  1.3592
 2402TIP3   OH228696   4.715   3.498   4.473 -0.5327  0.8382 -0.1326
 2402TIP3    H128697   4.658   3.490   4.397 -0.2263 -2.6599 -0.1624
 2402TIP3    H228698   4.690   3.425   4.529  2.1035  0.7574  1.0804
 2403TIP3   OH228699   3.626   3.020   4.618  0.5152 -0.3494 -0.2911
 2403TIP3    H128700   3.717   2.994   4.603  1.0265  1.6897 -0.9820
 2403TIP3    H228701   3.624   3.053   4.707  0.1496 -1.5212  0.1505
 2404TIP3   OH228702   3.743   0.591  16.163  0.1548 -0.0347 -0.1499
 2404TIP3    H128703   3.649   0.598  16.145  0.4627 -0.3106 -2.0803
 2404TIP3    H228704   3.749   0.592  16.259 -1.5799  2.8023  0.0600
 2405TIP3   OH228705   5.509   1.039  11.689 -0.2333 -0.5458 -0.0499
 2405TIP3    H128706   5.526   0.994  11.606  0.7808 -1.9054  0.8497
 2405TIP3    H228707   5.438   0.989  11.730  0.2226 -0.7458  0.5162
 2406TIP3   OH228708   1.141   3.391  13.997  0.1886 -0.3706  0.1747
 2406TIP3    H128709   1.148   3.396  14.092 -0.1894 -1.0906  0.2418
 2406TIP3    H228710   1.232   3.399  13.966  0.2834  0.1471  0.5784
 2407TIP3   OH228711   4.668   5.363   1.698 -0.2890 -0.3574  0.2579
 2407TIP3    H128712   4.726   5.321   1.634 -0.5445 -0.0044 -0.2088
 2407TIP3    H228713   4.630   5.437   1.651  0.3639  0.5665  1.1480
 2408TIP3   OH228714   2.726   4.763  11.046 -0.5993  0.3859 -0.1371
 2408TIP3    H128715   2.680   4.824  10.990 -2.3655 -1.0385 -0.3261
 2408TIP3    H228716   2.698   4.785  11.135  0.3201  1.0846  0.0001
 2409TIP3   OH228717   5.535   2.707   4.542 -0.1249 -0.3810 -0.1821
 2409TIP3    H128718   5.557   2.614   4.545 -0.8807 -0.5496  0.4732
 2409TIP3    H228719   5.439   2.709   4.539 -0.2170  0.4004  1.8651
 2410TIP3   OH228720   3.216   0.692   6.251 -0.0856 -0.3772 -0.5584
 2410TIP3    H128721   3.131   0.664   6.285  0.1762  0.3438  0.7672
 2410TIP3    H228722   3.207   0.786   6.238  1.1334  0.1469  1.7680
 2411TIP3   OH228723   4.636   1.367   4.117  0.2107  0.6919 -0.0591
 2411TIP3    H128724   4.701   1.412   4.064 -0.1739  0.9729 -0.2912
 2411TIP3    H228725   4.585   1.437   4.158  0.0892  0.4735  0.1697
 2412TIP3   OH228726   1.192   4.843  17.274  0.0725  0.5797 -0.2103
 2412TIP3    H128727   1.237   4.927  17.283 -2.7941  2.6445 -2.8868
 2412TIP3    H228728   1.253   4.789  17.223  0.6705  2.3511 -1.4886
 2413TIP3   OH228729   1.101   4.034   2.941 -0.1817  0.1926  0.0456
 2413TIP3    H128730   1.056   3.966   2.991 -1.0705 -0.2174 -1.2444
 2413TIP3    H228731   1.172   3.989   2.897  1.9054  0.9145  2.4079
 2414TIP3   OH228732   0.809   5.425   0.508  0.4844  0.1901  0.1480
 2414TIP3    H128733   0.859   5.479   0.447  2.0258 -0.0672  1.1139
 2414TIP3    H228734   0.727   5.406   0.462  1.0703  1.0149 -1.3183
 2415TIP3   OH228735   3.145   0.810  17.203 -0.3261 -0.1371  0.1703
 2415TIP3    H128736   3.224   0.761  17.225  1.2092  1.5503 -1.2636
 2415TIP3    H228737   3.075   0.766  17.251  1.6909 -0.7206  2.8057
 2416TIP3   OH228738   3.019   1.296  12.654  0.0311 -0.4790 -0.3447
 2416TIP3    H128739   3.067   1.252  12.584 -0.0133  0.2405 -0.8316
 2416TIP3    H228740   3.003   1.227  12.719  0.9026 -0.9318 -0.5991
 2417TIP3   OH228741   2.337   5.775   5.832 -0.0718 -0.1062 -0.5837
 2417TIP3    H128742   2.286   5.785   5.752 -1.2394  1.0940  0.2709
 2417TIP3    H228743   2.272   5.760   5.900  0.9193 -1.3556  0.1364
 2418TIP3   OH228744   3.883   5.960   4.706 -0.7220 -0.5821 -0.9172
 2418TIP3    H128745   3.854   6.036   4.755  0.9596 -0.0417 -0.7012
 2418TIP3    H228746   3.978   5.956   4.720 -0.5227 -1.7359 -2.2730
 2419TIP3   OH228747   0.730   3.490   0.133 -0.3708 -0.0896 -0.1996
 2419TIP3    H128748   0.691   3.420   0.185 -0.3714  0.6320  0.7979
 2419TIP3    H228749   0.805   3.449   0.089 -1.2133 -1.0566 -0.7781
 2420TIP3   OH228750   5.867   3.172   3.213  0.3901 -0.6740 -0.0779
 2420TIP3    H128751   5.891   3.262   3.193  1.6627 -1.3745 -2.0010
 2420TIP3    H228752   5.785   3.179   3.261 -0.7745  1.4337 -2.1590
 2421TIP3   OH228753   4.394   0.594  13.374 -0.5522  0.3536  0.6240
 2421TIP3    H128754   4.486   0.615  13.390 -0.1627 -0.7033 -0.1670
 2421TIP3    H228755   4.350   0.618  13.456  0.8917 -1.9338  2.1984
 2422TIP3   OH228756   2.935   5.515  15.307  0.2326 -0.1582  0.5150
 2422TIP3    H128757   2.869   5.454  15.339  0.8905 -1.1132  0.1091
 2422TIP3    H228758   2.933   5.587  15.370 -0.5822 -0.5809  0.9952
 2423TIP3   OH228759   2.026   3.873  13.909  0.0751  0.0852 -0.0447
 2423TIP3    H128760   1.956   3.934  13.886 -0.5380  0.0806  1.6979
 2423TIP3    H228761   2.100   3.929  13.932 -0.5273  0.2130  1.6786
 2424TIP3   OH228762   2.506   2.378   3.552 -0.4518 -0.4371 -0.3922
 2424TIP3    H128763   2.412   2.394   3.559 -0.5695 -0.6570 -1.3371
 2424TIP3    H228764   2.516   2.321   3.476  0.5417  0.4787 -0.9817
 2425TIP3   OH228765   2.777   4.076  12.363  0.8575 -0.1027 -0.1020
 2425TIP3    H128766   2.699   4.021  12.366  1.8509 -1.5382  0.1778
 2425TIP3    H228767   2.754   4.154  12.414 -1.5965  1.2102 -2.8951
 2426TIP3   OH228768   0.387   4.692  15.969  0.1128  0.6711  0.7046
 2426TIP3    H128769   0.371   4.623  15.905 -1.4903  0.8087  0.8998
 2426TIP3    H228770   0.377   4.773  15.919 -0.0491  0.7736  0.9028
 2427TIP3   OH228771   1.699   1.575  10.982  0.0237 -0.2271 -0.1074
 2427TIP3    H128772   1.634   1.592  10.914 -0.3599 -0.8155  0.1001
 2427TIP3    H228773   1.660   1.610  11.062 -0.8701 -2.1428  0.3652
 2428TIP3   OH228774   4.333   6.631   4.197  0.3966 -0.0070 -0.2417
 2428TIP3    H128775   4.259   6.663   4.248  0.1689 -0.5338 -0.2390
 2428TIP3    H228776   4.355   6.547   4.236 -0.0370 -0.6068 -1.2480
 2429TIP3   OH228777   6.625   0.772  11.613 -0.2295 -0.4319  0.2319
 2429TIP3    H128778   6.652   0.844  11.556 -0.5778 -1.2884 -1.0681
 2429TIP3    H228779   6.707   0.737  11.649 -0.0021  0.1155  0.2443
 2430TIP3   OH228780   6.415   4.735   5.822 -0.2406  0.4831 -0.4909
 2430TIP3    H128781   6.364   4.658   5.846  0.3531  0.2378  0.0310
 2430TIP3    H228782   6.372   4.807   5.868 -0.4531  0.3701 -0.5110
 2431TIP3   OH228783   5.717   5.584   2.608 -0.0203 -0.3771 -0.0910
 2431TIP3    H128784   5.665   5.663   2.615 -1.0673 -1.0054 -0.6013
 2431TIP3    H228785   5.781   5.604   2.539 -1.2301 -0.4682 -1.2872
 2432TIP3   OH228786   1.311   3.382  11.885  0.0126  0.2058 -0.4077
 2432TIP3    H128787   1.394   3.419  11.857  0.7513  0.4309  1.9619
 2432TIP3    H228788   1.253   3.457  11.896  0.3148  0.2966  0.5648
 2433TIP3   OH228789   0.319   2.231   4.033 -0.4877 -0.4997  0.0903
 2433TIP3    H128790   0.345   2.274   3.951 -0.7657 -0.9122 -0.2173
 2433TIP3    H228791   0.252   2.289   4.069  0.6264  0.4159  0.7401
 2434TIP3   OH228792   3.493   0.117   0.662 -0.3399  0.3137  0.6195
 2434TIP3    H128793   3.466   0.061   0.734 -2.3388  1.2926  0.6878
 2434TIP3    H228794   3.441   0.089   0.587 -0.9187  1.6260  0.4935
 2435TIP3   OH228795   4.979   4.268  12.520 -0.1552  0.2120 -0.6196
 2435TIP3    H128796   4.946   4.265  12.609 -1.0945 -0.5328 -0.9761
 2435TIP3    H228797   4.901   4.282  12.466  0.4374  0.9927 -1.3050
 2436TIP3   OH228798   1.619   6.529  11.649 -0.4850  0.3997 -0.2321
 2436TIP3    H128799   1.556   6.553  11.581 -1.0837 -0.9051 -0.1737
 2436TIP3    H228800   1.642   6.438  11.630  1.7844  0.9616 -0.5396
 2437TIP3   OH228801   1.699   2.592   2.387 -0.5606 -0.4055  0.2753
 2437TIP3    H128802   1.727   2.573   2.297  0.1671  1.5138  0.0498
 2437TIP3    H228803   1.677   2.506   2.423  1.1688 -1.4872 -1.0503
 2438TIP3   OH228804   6.369   4.417  16.514  0.3778  0.1289 -0.3560
 2438TIP3    H128805   6.389   4.339  16.462  0.7631 -0.8072  1.1224
 2438TIP3    H228806   6.422   4.406  16.594 -2.7904 -0.3193  1.8662
 2439TIP3   OH228807   0.249   0.641   2.507  0.2407 -0.6945  0.2848
 2439TIP3    H128808   0.277   0.673   2.421 -1.1434  0.6772  0.3010
 2439TIP3    H228809   0.320   0.666   2.566  0.0145  0.7756 -0.0249
 2440TIP3   OH228810   5.499   4.644   4.108  0.3963  0.2300  0.5543
 2440TIP3    H128811   5.533   4.720   4.156  0.8169  0.2843  0.1743
 2440TIP3    H228812   5.404   4.655   4.110  0.4739  1.0742  0.0155
 2441TIP3   OH228813   3.014   5.058  11.748 -0.0531  0.3714 -0.6295
 2441TIP3    H128814   2.997   5.124  11.816  0.1724  0.5246 -0.7218
 2441TIP3    H228815   3.048   5.108  11.674 -0.4802  0.2285 -0.9277
 2442TIP3   OH228816   2.450   5.493  11.704  0.1671 -0.3809 -0.4432
 2442TIP3    H128817   2.504   5.431  11.753 -1.1369 -0.7839  0.5407
 2442TIP3    H228818   2.488   5.579  11.723 -0.9645 -0.3869  2.2974
 2443TIP3   OH228819   1.476   2.826   1.103 -0.1096 -0.4191 -0.5184
 2443TIP3    H128820   1.473   2.912   1.146 -0.0101  0.5597 -2.3779
 2443TIP3    H228821   1.384   2.807   1.081  0.0751  0.2172 -1.9451
 2444TIP3   OH228822   3.002   4.649   3.721 -0.4072 -0.3165 -0.0989
 2444TIP3    H128823   3.001   4.612   3.632 -0.1319 -0.3547 -0.0893
 2444TIP3    H228824   3.051   4.584   3.772  0.9104  0.5070 -0.2809
 2445TIP3   OH228825   1.847   3.489  13.082  0.1681 -0.3648  0.2452
 2445TIP3    H128826   1.855   3.578  13.117 -2.3149  0.1741 -0.3444
 2445TIP3    H228827   1.763   3.489  13.036  0.4671 -2.8144 -0.4424
 2446TIP3   OH228828   5.829   5.348  11.433  0.5060 -0.1539 -0.4810
 2446TIP3    H128829   5.898   5.403  11.468  1.1442 -1.7676  0.9618
 2446TIP3    H228830   5.868   5.304  11.358  0.9029 -0.7023  0.0421
 2447TIP3   OH228831   0.986   1.540  15.767 -0.0826  0.1468 -0.0028
 2447TIP3    H128832   0.994   1.479  15.841 -0.3938  0.4277  0.2663
 2447TIP3    H228833   0.925   1.497  15.707 -1.9058  1.0628  1.1068
 2448TIP3   OH228834   5.763   0.002   3.016 -0.7673 -0.2624 -0.4778
 2448TIP3    H128835   5.696   0.071   3.018 -0.9960 -0.4840 -0.5756
 2448TIP3    H228836   5.820   0.023   3.091 -1.9967 -1.1337  0.7386
 2449TIP3   OH228837   5.804   6.114  12.875  0.3595 -0.3751 -0.1952
 2449TIP3    H128838   5.713   6.098  12.903  1.4197 -2.4926  2.5502
 2449TIP3    H228839   5.799   6.120  12.780 -2.8030  0.9145 -0.0689
 2450TIP3   OH228840   6.328   4.885  11.838  0.5154  0.2106 -0.0784
 2450TIP3    H128841   6.306   4.812  11.895 -1.3444  0.1904 -0.7406
 2450TIP3    H228842   6.295   4.859  11.752  0.0369  1.6963 -0.3851
 2451TIP3   OH228843   3.969   5.859   1.667  0.7746  0.3888  0.1433
 2451TIP3    H128844   3.958   5.931   1.605 -2.5680 -2.1237 -2.5568
 2451TIP3    H228845   4.043   5.809   1.634  0.1231  0.0452 -0.8377
 2452TIP3   OH228846   0.020   1.040   5.094  0.3941 -0.3291 -0.0356
 2452TIP3    H128847  -0.052   1.037   5.031  0.2805  0.0068  0.0763
 2452TIP3    H228848   0.025   0.951   5.128  0.1300 -0.3927 -0.1571
 2453TIP3   OH228849   1.090   1.197   1.777  0.5510  0.2786  0.1151
 2453TIP3    H128850   1.177   1.175   1.810  1.3227  2.1172 -0.5287
 2453TIP3    H228851   1.094   1.292   1.761 -1.2652  0.2401 -0.8352
 2454TIP3   OH228852   4.811   6.562   5.124  0.4241  0.0636 -0.4993
 2454TIP3    H128853   4.733   6.617   5.127  1.1192  1.0814  1.9827
 2454TIP3    H228854   4.793   6.491   5.186  2.1393  1.4634  1.7912
 2455TIP3   OH228855   2.808   4.681  17.389  0.4005  0.1762 -0.5296
 2455TIP3    H128856   2.886   4.733  17.371  1.7329 -1.7103 -0.4129
 2455TIP3    H228857   2.796   4.688  17.484  0.0560  0.9046 -0.6114
 2456TIP3   OH228858   3.131   3.164   3.796  0.1840  0.8451  0.2399
 2456TIP3    H128859   3.162   3.075   3.810  0.5533  1.0285  0.6609
 2456TIP3    H228860   3.130   3.203   3.884  0.7519  1.4752 -0.0182
 2457TIP3   OH228861   3.255   6.004   4.351  0.6062 -0.2554  0.3023
 2457TIP3    H128862   3.277   6.094   4.374 -0.3383  0.8558 -2.6716
 2457TIP3    H228863   3.339   5.965   4.323  0.5094  0.8834 -1.7441
 2458TIP3   OH228864   6.147   2.881  12.834  0.0560 -0.6358  0.0102
 2458TIP3    H128865   6.149   2.877  12.739 -0.0756 -0.0720 -0.0229
 2458TIP3    H228866   6.183   2.797  12.863  0.9369 -0.4588 -0.5280
 2459TIP3   OH228867   6.085   3.043   3.769 -0.1226 -0.0786  0.5874
 2459TIP3    H128868   6.044   2.979   3.828 -1.9430  1.4908  1.1166
 2459TIP3    H228869   6.030   3.042   3.691  1.0437 -0.5999 -0.2562
 2460TIP3   OH228870   5.885   5.906   2.352  0.2976 -0.0057  0.5621
 2460TIP3    H128871   5.808   5.921   2.297  0.1067 -0.7910  0.6003
 2460TIP3    H228872   5.868   5.956   2.432 -0.5441 -0.8048  0.8954
 2461TIP3   OH228873   2.748   0.419  16.985  0.4119  0.2641 -0.0724
 2461TIP3    H128874   2.740   0.411  17.080  0.7946 -0.1309 -0.0702
 2461TIP3    H228875   2.812   0.489  16.972  1.2905 -0.4923 -0.0084
 2462TIP3   OH228876   6.458   6.531  12.996  0.0212 -0.3256 -0.2492
 2462TIP3    H128877   6.429   6.445  13.026 -0.3313 -0.9026 -2.1578
 2462TIP3    H228878   6.551   6.519  12.976 -0.3739 -0.7041 -1.9676
 2463TIP3   OH228879   5.599   5.035  12.125  0.0101 -0.7579 -0.6066
 2463TIP3    H128880   5.607   4.939  12.128 -2.1257 -0.9665  0.6396
 2463TIP3    H228881   5.505   5.050  12.117  0.2389  1.2607  0.0538
 2464TIP3   OH228882   3.428   3.333  10.652 -0.0026 -0.2168  0.1374
 2464TIP3    H128883   3.400   3.293  10.734 -0.9082 -0.2092 -0.1492
 2464TIP3    H228884   3.405   3.268  10.585  1.1315 -0.4089 -0.0751
 2465TIP3   OH228885   2.187   3.053  14.311 -0.4286  0.1546 -0.3374
 2465TIP3    H128886   2.094   3.075  14.315 -0.2627  0.7090  0.7198
 2465TIP3    H228887   2.223   3.115  14.247 -0.6500  0.4676 -0.1631
 2466TIP3   OH228888   3.360   0.199   1.676 -0.5183 -0.0924 -0.2891
 2466TIP3    H128889   3.301   0.158   1.613  1.0962  2.4221 -3.8014
 2466TIP3    H228890   3.438   0.143   1.678 -0.0933  0.4209 -1.5808
 2467TIP3   OH228891   4.201   4.222   1.809  0.0546 -0.0430  0.2459
 2467TIP3    H128892   4.149   4.172   1.871 -0.2202  0.2972  0.2897
 2467TIP3    H228893   4.285   4.176   1.807 -0.6446 -1.3508 -0.7869
 2468TIP3   OH228894   6.186   6.216   0.562  0.3534 -0.0374  0.1192
 2468TIP3    H128895   6.236   6.148   0.518 -0.3071 -0.7561  0.4627
 2468TIP3    H228896   6.148   6.268   0.490  0.0032 -0.6693 -0.1609
 2469TIP3   OH228897   5.351   6.150  16.374 -0.1590  0.2248  0.0955
 2469TIP3    H128898   5.271   6.170  16.424 -1.3261 -3.6405  0.1467
 2469TIP3    H228899   5.334   6.186  16.287 -2.5119 -1.2895 -0.1814
 2470TIP3   OH228900   5.912   3.741  11.906 -0.2592  0.5266 -0.2047
 2470TIP3    H128901   5.963   3.666  11.877 -0.4443  0.4247 -0.2646
 2470TIP3    H228902   5.869   3.712  11.986 -1.7064 -0.0108 -1.1483
 2471TIP3   OH228903   3.476   0.794   5.345 -0.2779 -0.0238  0.3779
 2471TIP3    H128904   3.449   0.715   5.298 -0.3886 -0.3984  1.0577
 2471TIP3    H228905   3.445   0.780   5.434 -1.3821  1.3176  0.2377
 2472TIP3   OH228906   0.446   0.068  11.807  0.0722 -0.1043  0.2444
 2472TIP3    H128907   0.459   0.037  11.896  0.9387 -2.4173 -0.5918
 2472TIP3    H228908   0.515   0.134  11.794  2.0316 -1.9931  0.3849
 2473TIP3   OH228909   0.625   3.419  12.725 -0.0755 -0.2422 -0.1366
 2473TIP3    H128910   0.653   3.361  12.654  1.9756 -0.7436  0.9930
 2473TIP3    H228911   0.640   3.368  12.805 -3.5161 -0.1885  0.6980
 2474TIP3   OH228912   2.937   5.648  13.960  0.0441  0.2383  0.1684
 2474TIP3    H128913   2.958   5.742  13.962  0.4117  0.1931 -0.7612
 2474TIP3    H228914   2.884   5.638  13.881  0.2619 -0.3855  0.0990
 2475TIP3   OH228915   4.174   0.837   4.402  0.7876  0.3726 -0.1184
 2475TIP3    H128916   4.127   0.910   4.361  0.2425  1.3391  2.1265
 2475TIP3    H228917   4.266   0.857   4.387  0.6563  1.6861  0.6572
 2476TIP3   OH228918   1.474   4.600  11.870  0.4770  0.4288 -0.1297
 2476TIP3    H128919   1.563   4.589  11.904 -0.2057 -2.5631  1.0362
 2476TIP3    H228920   1.420   4.612  11.948 -0.2493  1.8727 -0.8085
 2477TIP3   OH228921   0.055   2.407   1.571 -0.2227 -0.3360  0.3176
 2477TIP3    H128922   0.126   2.460   1.534 -2.0739  1.2855 -1.1751
 2477TIP3    H228923   0.062   2.420   1.665  0.2267  1.5545  0.0749
 2478TIP3   OH228924   1.525   4.129  16.958 -0.1490  0.3896  0.2057
 2478TIP3    H128925   1.557   4.212  16.993 -0.2897  1.3695 -1.8118
 2478TIP3    H228926   1.517   4.145  16.864 -1.2094 -1.5883 -0.0889
 2479TIP3   OH228927   2.974   2.020   2.566 -0.3217 -0.1488  0.6016
 2479TIP3    H128928   2.928   2.005   2.483  0.2594 -0.0106  0.2467
 2479TIP3    H228929   3.017   2.105   2.554  0.4228 -0.4967  0.7308
 2480TIP3   OH228930   1.597   1.663   5.302 -0.1333  0.5522 -0.5463
 2480TIP3    H128931   1.686   1.632   5.319 -0.4483 -0.5276 -0.7860
 2480TIP3    H228932   1.547   1.583   5.282 -0.6439  1.3456 -2.7265
 2481TIP3   OH228933   3.222   3.298   5.401 -0.0051  0.2529  0.3344
 2481TIP3    H128934   3.298   3.353   5.381  0.6997 -0.9542 -0.4284
 2481TIP3    H228935   3.147   3.353   5.382  0.6706  0.6854 -1.2214
 2482TIP3   OH228936   3.009   2.475  16.846 -0.1747 -0.1009 -0.0190
 2482TIP3    H128937   2.992   2.384  16.871 -0.5725 -0.0324 -0.0326
 2482TIP3    H228938   2.959   2.487  16.766  0.5714 -0.1257 -0.5002
 2483TIP3   OH228939   2.476   5.263  12.867  0.1739  0.5117 -0.3333
 2483TIP3    H128940   2.569   5.265  12.847  0.9083 -0.0654  2.5745
 2483TIP3    H228941   2.444   5.349  12.840  1.6683  0.9596 -0.7820
 2484TIP3   OH228942   5.171   1.892   6.007 -0.1423  0.4456  0.5181
 2484TIP3    H128943   5.258   1.924   6.033  0.3959 -0.9369  0.5220
 2484TIP3    H228944   5.127   1.969   5.972  2.6992  0.4431 -3.7556
 2485TIP3   OH228945   1.023   6.388  15.798 -0.2760  0.1174  0.3265
 2485TIP3    H128946   1.118   6.389  15.785 -0.1790  2.0662  0.8532
 2485TIP3    H228947   0.989   6.445  15.730 -1.0238 -0.1007  0.5097
 2486TIP3   OH228948   4.706   2.403   5.376  0.2183  0.4527 -0.1804
 2486TIP3    H128949   4.689   2.314   5.405  2.1841 -0.1238 -0.5914
 2486TIP3    H228950   4.708   2.397   5.280  2.2999  0.4634 -0.1842
 2487TIP3   OH228951   4.904   5.191   0.958 -0.4583 -0.4840 -0.0610
 2487TIP3    H128952   4.851   5.123   0.998 -0.7636  0.7227  1.7656
 2487TIP3    H228953   4.946   5.234   1.033  1.5931 -0.1789 -1.3159
 2488TIP3   OH228954   0.284   3.260  14.225  0.0334 -0.6532 -0.2368
 2488TIP3    H128955   0.307   3.344  14.264  0.6483 -0.8544 -0.1653
 2488TIP3    H228956   0.241   3.283  14.143  1.5187 -0.2926 -0.9339
 2489TIP3   OH228957   6.608   0.751   5.265 -0.4396  0.1412  0.4587
 2489TIP3    H128958   6.693   0.773   5.302 -0.2394  1.8283 -0.8780
 2489TIP3    H228959   6.627   0.692   5.193 -0.6064 -1.0949  1.4006
 2490TIP3   OH228960   2.757   2.197   0.468  0.1744 -0.0606  0.0470
 2490TIP3    H128961   2.845   2.188   0.432  1.0184 -1.8186  2.3682
 2490TIP3    H228962   2.704   2.133   0.420 -0.0057  1.2103 -1.5658
 2491TIP3   OH228963   1.249   1.438   0.089  0.3856  0.0332 -0.4973
 2491TIP3    H128964   1.316   1.499   0.119 -0.8250  0.6090  1.1946
 2491TIP3    H228965   1.167   1.473   0.123 -0.4877 -1.9362 -0.4140
 2492TIP3   OH228966   3.388   4.001   2.203 -0.5550 -0.3703 -0.1173
 2492TIP3    H128967   3.408   4.090   2.174 -0.5990  0.1108  1.2460
 2492TIP3    H228968   3.355   3.958   2.125 -2.5292  1.4347 -0.3832
 2493TIP3   OH228969   0.689   3.908   3.796  0.0945 -0.1229 -0.3690
 2493TIP3    H128970   0.723   3.888   3.709  1.0619 -1.0516  0.1896
 2493TIP3    H228971   0.686   3.823   3.840  2.6760  0.6244  1.5379
 2494TIP3   OH228972   5.468   5.531   3.224 -0.2606  0.1255 -0.2634
 2494TIP3    H128973   5.563   5.535   3.237  0.0601 -3.2841 -0.6025
 2494TIP3    H228974   5.433   5.521   3.313  0.0745 -1.9004 -0.2988
 2495TIP3   OH228975   1.807   2.630  12.745 -0.2531  0.4632  0.1270
 2495TIP3    H128976   1.788   2.543  12.710 -0.6377  0.1173  1.1548
 2495TIP3    H228977   1.743   2.687  12.704 -1.1137 -0.0461  0.7256
 2496TIP3   OH228978   1.384   2.275   5.652 -0.5302  0.2038  0.3689
 2496TIP3    H128979   1.305   2.233   5.686 -0.4722 -1.0509 -0.9233
 2496TIP3    H228980   1.456   2.227   5.694 -0.4692 -0.0513 -0.0157
 2497TIP3   OH228981   4.803   3.805  13.830  0.0070 -0.4187 -0.0102
 2497TIP3    H128982   4.829   3.785  13.740 -1.2734  0.3836 -0.6034
 2497TIP3    H228983   4.821   3.898  13.840 -0.1263 -0.4421  0.4684
 2498TIP3   OH228984   5.578   0.412  17.203 -0.7443  0.0974  0.4009
 2498TIP3    H128985   5.524   0.384  17.277 -2.3215 -0.2278 -0.7990
 2498TIP3    H228986   5.598   0.504  17.219  1.1035 -0.5770  2.4345
 2499TIP3   OH228987   6.306   6.132  16.292 -0.0078  0.5314 -0.6728
 2499TIP3    H128988   6.295   6.227  16.287 -0.2709  0.4270 -2.4951
 2499TIP3    H228989   6.232   6.096  16.243  2.0513 -0.4788 -3.2693
 2500TIP3   OH228990   1.813   1.279  11.349  0.2143  0.0940  0.4777
 2500TIP3    H128991   1.822   1.310  11.259  1.3657 -1.6152 -0.0510
 2500TIP3    H228992   1.799   1.185  11.341  0.2621 -0.0808  2.0869
 2501TIP3   OH228993   4.753   4.558   3.596 -0.8784  0.0061  0.3551
 2501TIP3    H128994   4.828   4.528   3.545 -0.1673  0.0739  1.3277
 2501TIP3    H228995   4.723   4.636   3.551  0.5194  0.7877  0.7154
 2502TIP3   OH228996   1.012   1.757  14.997  0.0294  0.6492 -0.1464
 2502TIP3    H128997   1.015   1.722  14.907  0.6670  0.5844 -0.1062
 2502TIP3    H228998   1.097   1.734  15.034 -1.0529 -1.4703  1.2911
 2503TIP3   OH228999   3.681   3.007  11.028  0.2984 -0.3805  0.0805
 2503TIP3    H129000   3.671   2.960  11.110  0.9085 -0.8990 -0.1399
 2503TIP3    H229001   3.768   3.046  11.032  0.6699 -1.1094 -0.6703
 2504TIP3   OH229002   5.002   4.526   3.107 -1.1272 -0.1481 -0.2936
 2504TIP3    H129003   4.953   4.568   3.036  0.7373  0.8799 -1.0378
 2504TIP3    H229004   5.028   4.441   3.072 -0.8878  0.0321 -0.5527
 2505TIP3   OH229005   2.508   1.854  13.624 -0.0358 -0.6402  0.0579
 2505TIP3    H129006   2.421   1.890  13.642 -0.0586 -0.5639 -0.1956
 2505TIP3    H229007   2.532   1.808  13.704 -0.4821 -1.0011 -0.0098
 2506TIP3   OH229008   0.050   2.246   6.583 -0.5596  0.4660 -0.2928
 2506TIP3    H129009   0.069   2.292   6.665 -2.6028  3.0761 -1.1661
 2506TIP3    H229010   0.074   2.155   6.601 -1.5355  0.7741  3.4596
 2507TIP3   OH229011   2.220   1.113   3.070  0.0992  0.0463  0.2446
 2507TIP3    H129012   2.230   1.137   2.978 -0.1585  1.7193  0.6206
 2507TIP3    H229013   2.267   1.182   3.118 -0.4476 -0.3561  1.3932
 2508TIP3   OH229014   1.740   1.393   5.156  0.1294  0.2543  0.3866
 2508TIP3    H129015   1.718   1.338   5.232 -1.5653  0.0662 -0.2058
 2508TIP3    H229016   1.775   1.331   5.091  1.5513  0.4111  0.9550
 2509TIP3   OH229017   5.900   4.721  14.866  0.3595  0.4623  0.0822
 2509TIP3    H129018   5.960   4.674  14.808  1.2599  0.1716  1.2215
 2509TIP3    H229019   5.947   4.802  14.889 -1.2295  2.0764 -1.9813
 2510TIP3   OH229020   0.574   6.385   5.000  0.9343 -0.0140  0.0744
 2510TIP3    H129021   0.541   6.335   4.926 -3.1177  1.5349  0.5562
 2510TIP3    H229022   0.619   6.459   4.961  1.9599 -1.0172 -0.7092
 2511TIP3   OH229023   1.034   5.187   4.476  0.2524  0.3628  0.2688
 2511TIP3    H129024   1.052   5.281   4.478 -0.0571  0.4416 -0.5037
 2511TIP3    H229025   1.073   5.157   4.394  1.0556 -0.3394  0.8900
 2512TIP3   OH229026   4.251   3.785  14.156  0.8901  0.1756  0.7179
 2512TIP3    H129027   4.242   3.709  14.099  0.9573  1.5541 -1.1980
 2512TIP3    H229028   4.179   3.777  14.219  0.8359 -1.3955  0.4844
 2513TIP3   OH229029   6.531   2.130   3.463 -0.5204 -0.0090 -0.4364
 2513TIP3    H129030   6.540   2.206   3.405  1.8375 -0.7938 -1.1811
 2513TIP3    H229031   6.449   2.088   3.434 -1.1568  1.4689 -0.8934
 2514TIP3   OH229032   1.537   5.572   1.250  0.4340 -0.4192  0.0138
 2514TIP3    H129033   1.481   5.499   1.277  0.6404 -1.0315 -1.1490
 2514TIP3    H229034   1.625   5.535   1.249  0.6023 -0.0137 -0.1114
 2515TIP3   OH229035   5.835   3.597   5.798  0.5223 -0.0718 -0.0314
 2515TIP3    H129036   5.883   3.620   5.877  1.8121  1.5893 -1.2234
 2515TIP3    H229037   5.875   3.650   5.729 -1.0974 -0.8397 -1.6570
 2516TIP3   OH229038   1.726   6.514  17.373 -0.1833  0.0937  0.1739
 2516TIP3    H129039   1.721   6.583  17.307  1.2053  1.9587  1.9095
 2516TIP3    H229040   1.650   6.459  17.355 -0.9367  1.6429 -1.7528
 2517TIP3   OH229041   3.672   3.438  13.111 -0.0726  0.4456 -0.6141
 2517TIP3    H129042   3.682   3.490  13.031  0.1333  0.9350 -0.2772
 2517TIP3    H229043   3.596   3.382  13.095 -1.4434  2.1312 -0.2983
 2518TIP3   OH229044   6.410   2.895  14.899  0.0980  0.1354 -0.2989
 2518TIP3    H129045   6.323   2.879  14.864  0.5929 -0.5864 -1.2453
 2518TIP3    H229046   6.413   2.843  14.980  0.1849 -1.1610 -1.1015
 2519TIP3   OH229047   5.427   5.474   0.831  0.6294  0.4524 -0.8848
 2519TIP3    H129048   5.445   5.456   0.739  1.6447  0.3567 -0.6754
 2519TIP3    H229049   5.423   5.569   0.837  0.6156  0.4603 -1.0199
 2520TIP3   OH229050   1.241   1.101   5.473  0.6024 -0.2051  0.0377
 2520TIP3    H129051   1.178   1.150   5.526  0.4348 -0.2612 -0.1094
 2520TIP3    H229052   1.231   1.137   5.385 -0.2858 -1.2227 -0.3018
 2521TIP3   OH229053   2.528   5.714   2.473 -0.1018 -0.5515  0.2479
 2521TIP3    H129054   2.511   5.620   2.464 -0.5779 -0.3681 -0.9310
 2521TIP3    H229055   2.441   5.754   2.481 -0.0397 -0.0472 -1.2172
 2522TIP3   OH229056   6.291   6.095  14.877 -0.6093 -0.1704 -0.6666
 2522TIP3    H129057   6.292   6.138  14.792 -1.8537 -1.2736 -1.2798
 2522TIP3    H229058   6.359   6.028  14.870  0.3245  0.7040 -0.2292
 2523TIP3   OH229059   5.855   5.272   0.298 -0.8788 -0.2549  0.7039
 2523TIP3    H129060   5.918   5.209   0.334 -0.5166  0.5991  1.6267
 2523TIP3    H229061   5.840   5.243   0.209 -0.0909 -1.1770  0.8547
 2524TIP3   OH229062   1.358   6.196  11.307  0.1558 -0.0476  0.2726
 2524TIP3    H129063   1.393   6.219  11.394  0.9807 -0.5930  0.1002
 2524TIP3    H229064   1.415   6.243  11.246 -1.0195  1.1102  0.0293
 2525TIP3   OH229065   1.753   2.465  13.478  0.4331 -0.3962  0.1369
 2525TIP3    H129066   1.791   2.492  13.562 -0.9757 -0.2897  0.7782
 2525TIP3    H229067   1.811   2.503  13.412  1.3443 -0.1356  1.0564
 2526TIP3   OH229068   3.053   6.669   1.809 -0.1726 -0.3027  0.7939
 2526TIP3    H129069   3.050   6.604   1.740 -0.4977  2.0506 -1.5688
 2526TIP3    H229070   3.018   6.624   1.886  2.2988 -3.7020  0.1288
 2527TIP3   OH229071   6.559   5.119   5.346  0.0176  0.1009 -0.4056
 2527TIP3    H129072   6.607   5.187   5.393 -0.2603  0.2560 -0.3446
 2527TIP3    H229073   6.593   5.123   5.257 -0.3275  0.6348 -0.5142
 2528TIP3   OH229074   0.615   3.319   0.323 -0.4522 -0.1842  0.3038
 2528TIP3    H129075   0.537   3.279   0.360  0.5675 -2.1551  0.4758
 2528TIP3    H229076   0.672   3.336   0.398  0.2328 -1.0163 -0.0029
 2529TIP3   OH229077   1.013   2.345   0.172 -0.1502 -0.2821  0.0165
 2529TIP3    H129078   1.102   2.348   0.136  0.5546  1.0822  1.7226
 2529TIP3    H229079   1.023   2.299   0.256 -0.7546  1.0516  0.8578
 2530TIP3   OH229080   6.685   1.746   0.229 -0.0451 -0.2787  0.7786
 2530TIP3    H129081   6.713   1.816   0.287 -0.0071  0.2032  0.1902
 2530TIP3    H229082   6.704   1.779   0.141  0.2263 -1.1332  0.5055
 2531TIP3   OH229083   2.516   3.133   0.233 -0.2710  0.2267 -0.2501
 2531TIP3    H129084   2.588   3.191   0.258  1.1653 -1.3410 -0.5824
 2531TIP3    H229085   2.544   3.046   0.262 -2.0330 -0.4330 -0.4214
 2532TIP3   OH229086   3.597   3.337  11.644 -0.0844  0.3772  0.6573
 2532TIP3    H129087   3.593   3.432  11.654  1.4961  0.4628  0.6134
 2532TIP3    H229088   3.510   3.314  11.610  0.1373  2.0328 -1.2370
 2533TIP3   OH229089   0.739   6.615   6.280  0.2858  0.5563 -0.2352
 2533TIP3    H129090   0.794   6.538   6.298 -0.6307  0.0869  0.6830
 2533TIP3    H229091   0.680   6.586   6.211 -0.9935 -0.0863  1.0568
 2534TIP3   OH229092   6.488   5.591  10.735  0.0297  0.0020  0.3348
 2534TIP3    H129093   6.480   5.642  10.816  0.3349  2.5968 -1.1691
 2534TIP3    H229094   6.411   5.534  10.735  0.5176 -0.7966  2.8636
 2535TIP3   OH229095   0.130   6.458   4.315  0.1862 -0.7015  0.2416
 2535TIP3    H129096   0.053   6.506   4.345  0.1370 -0.8279  0.3187
 2535TIP3    H229097   0.153   6.499   4.232 -2.3402 -3.1420 -1.8864
 2536TIP3   OH229098   6.503   6.515   3.885 -0.1252  0.0972 -0.3854
 2536TIP3    H129099   6.534   6.454   3.819 -0.4256  0.1930 -0.6188
 2536TIP3    H229100   6.414   6.537   3.857 -0.5756 -0.5122  0.5030
 2537TIP3   OH229101   1.549   6.424   4.866  0.4442  0.1606 -0.2726
 2537TIP3    H129102   1.597   6.498   4.903  0.2198  0.5534 -0.7491
 2537TIP3    H229103   1.598   6.400   4.787 -1.0924  1.7504 -1.8077
 2538TIP3   OH229104   6.753   3.631  14.452 -0.1275 -0.0321 -0.7216
 2538TIP3    H129105   6.678   3.599  14.402 -0.1556 -0.3108 -0.5009
 2538TIP3    H229106   6.821   3.647  14.386 -0.5975  0.8633 -1.0039
 2539TIP3   OH229107   4.942   1.488   5.675 -0.4446 -0.7322 -0.6758
 2539TIP3    H129108   4.877   1.449   5.734 -0.9875 -0.0880 -0.8352
 2539TIP3    H229109   4.949   1.579   5.704  2.4202 -1.4017  1.1222
 2540TIP3   OH229110   6.361   5.512  17.324 -0.5569  0.6750 -0.6423
 2540TIP3    H129111   6.317   5.464  17.394  2.4368  1.0206  1.6417
 2540TIP3    H229112   6.300   5.583  17.302 -1.9965 -0.0150  0.9117
 2541TIP3   OH229113   0.152   1.624   2.993 -1.2368 -0.2176 -0.3530
 2541TIP3    H129114   0.244   1.621   3.022 -1.4902 -0.3829  0.4650
 2541TIP3    H229115   0.109   1.681   3.057 -1.6083  0.2685 -1.0282
 2542TIP3   OH229116   6.071   6.560  17.287  0.1323  0.5293  0.3590
 2542TIP3    H129117   6.068   6.583  17.194  1.4058  0.1939  0.2065
 2542TIP3    H229118   6.023   6.630  17.331 -0.4526  0.7153 -0.5459
 2543TIP3   OH229119   1.046   5.389  11.179  0.5727 -0.7131  0.9651
 2543TIP3    H129120   0.958   5.412  11.209  0.0627  0.3607 -1.1945
 2543TIP3    H229121   1.032   5.322  11.112  1.3529 -0.1428  0.2164
 2544TIP3   OH229122   6.637   6.390   2.092  0.2850  0.4531 -0.4078
 2544TIP3    H129123   6.550   6.388   2.132  0.2324 -1.1853 -0.5532
 2544TIP3    H229124   6.623   6.437   2.009 -0.4227  0.3832 -0.3371
 2545TIP3   OH229125   5.222   2.574  10.972 -0.5586 -0.6321 -0.0947
 2545TIP3    H129126   5.185   2.662  10.978  2.2175  0.5657  1.5353
 2545TIP3    H229127   5.278   2.577  10.895  2.0808  0.2468  1.7049
 2546TIP3   OH229128   3.496   0.811   0.554  0.3292 -0.2975  0.2919
 2546TIP3    H129129   3.429   0.788   0.489 -0.3207 -5.0153  2.2508
 2546TIP3    H229130   3.453   0.874   0.611 -0.9682 -0.1614 -0.7729
 2547TIP3   OH229131   0.716   2.069  12.699  0.1573  0.1172 -0.5283
 2547TIP3    H129132   0.797   2.117  12.717 -0.4196  0.6295  0.7778
 2547TIP3    H229133   0.704   2.079  12.604  1.4064  0.3626 -0.6853
 2548TIP3   OH229134   5.118   3.263  15.455 -0.2929  0.5118 -0.1659
 2548TIP3    H129135   5.198   3.241  15.407  0.2448  2.8363 -0.4679
 2548TIP3    H229136   5.149   3.283  15.544 -1.2622 -3.6544  1.3515
 2549TIP3   OH229137   0.954   3.347  17.404  0.6191 -0.2154 -0.6455
 2549TIP3    H129138   1.032   3.376  17.451  0.0667  0.4428 -0.1122
 2549TIP3    H229139   0.972   3.256  17.381  0.9570 -0.5250  0.7466
 2550TIP3   OH229140   3.071   1.913   1.402 -0.0623  0.0615  0.2593
 2550TIP3    H129141   3.006   1.844   1.415 -0.2198  0.3907  1.2510
 2550TIP3    H229142   3.021   1.989   1.374  0.1932 -0.4194 -1.6618
 2551TIP3   OH229143   4.992   0.321   0.318 -0.1663 -0.2473  0.3195
 2551TIP3    H129144   4.911   0.333   0.269 -0.0602  1.4562  0.5044
 2551TIP3    H229145   4.970   0.256   0.385 -1.1326 -0.4256 -0.1520
 2552TIP3   OH229146   5.302   1.789  12.152 -0.8203 -0.1660  0.2778
 2552TIP3    H129147   5.307   1.869  12.100 -2.0407 -0.0995  0.2437
 2552TIP3    H229148   5.310   1.718  12.088  0.8091 -0.1001  0.3643
 2553TIP3   OH229149   0.424   3.667  15.117 -0.5588 -0.0465 -0.4755
 2553TIP3    H129150   0.336   3.640  15.089 -0.4472 -0.2505 -0.6317
 2553TIP3    H229151   0.412   3.755  15.151 -0.7221  0.1535 -1.0470
 2554TIP3   OH229152   6.594   6.153  16.856 -0.3854  0.0969  0.7687
 2554TIP3    H129153   6.681   6.114  16.849  0.1561  1.1608  1.3048
 2554TIP3    H229154   6.560   6.123  16.940  0.8193  2.2182  2.1038
 2555TIP3   OH229155   1.608   4.299   3.088  0.0494  0.3118 -0.0255
 2555TIP3    H129156   1.540   4.365   3.099  0.0567  0.5402 -1.2929
 2555TIP3    H229157   1.609   4.279   2.995  2.1928  0.8418 -0.1908
 2556TIP3   OH229158   5.306   4.058  14.182 -0.2608  0.1036 -0.2226
 2556TIP3    H129159   5.290   4.119  14.110  0.4211  1.0288  0.3789
 2556TIP3    H229160   5.377   4.002  14.151 -0.5511 -0.0632 -0.5904
 2557TIP3   OH229161   5.961   4.178   0.028 -0.2671  0.7349 -0.0234
 2557TIP3    H129162   6.014   4.253   0.055  0.6460 -0.2818  1.1196
 2557TIP3    H229163   6.025   4.114  -0.003 -0.8647 -0.2878  0.7966
 2558TIP3   OH229164   3.299   1.221  16.140  0.4265  0.4157  0.0986
 2558TIP3    H129165   3.233   1.283  16.111  1.2994  1.7798  0.9080
 2558TIP3    H229166   3.275   1.139  16.097 -3.3636  0.0671  2.4416
 2559TIP3   OH229167   3.583   4.143   3.742 -0.0857 -0.2987  0.2110
 2559TIP3    H129168   3.678   4.147   3.732 -0.1572  1.9228  0.0110
 2559TIP3    H229169   3.552   4.109   3.658  0.4569  0.0436 -0.1326
 2560TIP3   OH229170   2.341   3.868  16.671 -0.0969 -0.1876  0.5457
 2560TIP3    H129171   2.294   3.893  16.591 -0.0833  0.7280  0.8118
 2560TIP3    H229172   2.274   3.864  16.738 -0.3048 -2.1211  0.2814
 2561TIP3   OH229173   1.892   2.128   2.716 -0.2821 -0.4336 -0.1346
 2561TIP3    H129174   1.864   2.045   2.679  1.1921 -0.8964 -0.2713
 2561TIP3    H229175   1.988   2.125   2.714 -0.1177 -0.0584  2.7259
 2562TIP3   OH229176   6.246   4.027  16.603  0.1179 -0.4582  0.2219
 2562TIP3    H129177   6.257   3.979  16.685  1.3373 -0.3156  0.1569
 2562TIP3    H229178   6.334   4.058  16.581 -0.3521  0.3186 -0.6466
 2563TIP3   OH229179   0.105   2.890  15.014  0.1932 -0.1573  0.3274
 2563TIP3    H129180   0.195   2.921  15.025  0.2724  0.7005 -2.0158
 2563TIP3    H229181   0.114   2.799  14.985  0.3701  0.1480 -0.6116
 2564TIP3   OH229182   3.326   2.711   2.783  0.2322 -0.0278 -0.2257
 2564TIP3    H129183   3.335   2.632   2.836 -3.4028  0.6837  1.8081
 2564TIP3    H229184   3.335   2.783   2.845 -1.9208  0.8979 -0.8860
 2565TIP3   OH229185   1.830   4.881  14.086 -0.5290  0.2098  0.5470
 2565TIP3    H129186   1.737   4.878  14.064 -0.3357 -0.8768 -0.1980
 2565TIP3    H229187   1.853   4.973  14.080 -1.4240  0.4188  0.1449
 2566TIP3   OH229188   4.920   1.690  10.731 -0.6629  0.2194  1.0376
 2566TIP3    H129189   4.887   1.692  10.821 -1.9027  0.1936  0.6061
 2566TIP3    H229190   4.899   1.777  10.696  0.2315  0.3922  0.9017
 2567TIP3   OH229191   0.634   0.969   1.644 -0.2249  0.4169  0.2595
 2567TIP3    H129192   0.683   0.974   1.562 -0.8658  1.6192 -0.0773
 2567TIP3    H229193   0.640   0.877   1.671  0.3111  0.0913 -0.9353
 2568TIP3   OH229194   4.213   1.422  17.010 -0.0164  0.0715 -0.0694
 2568TIP3    H129195   4.121   1.432  16.984 -0.5387 -2.1189  0.7331
 2568TIP3    H229196   4.260   1.412  16.928 -0.3820  1.7211 -0.5224
 2569TIP3   OH229197   6.377   0.279   0.939 -0.3858 -0.3524  0.2457
 2569TIP3    H129198   6.293   0.235   0.949 -1.4235  1.3934 -0.2467
 2569TIP3    H229199   6.424   0.228   0.873 -1.2246 -1.1343  0.2449
 2570TIP3   OH229200   4.087   1.131  16.963 -0.1922  0.2526 -0.5401
 2570TIP3    H129201   4.160   1.085  17.003 -0.8891 -0.8165 -0.4551
 2570TIP3    H229202   4.100   1.121  16.869 -1.4090 -1.9208 -0.5221
 2571TIP3   OH229203   5.734   5.659   5.856 -0.2018 -0.3940  0.3891
 2571TIP3    H129204   5.786   5.579   5.850  0.9111  0.1599  2.1853
 2571TIP3    H229205   5.765   5.704   5.934 -3.8371 -0.3407  2.0064
 2572TIP3   OH229206   6.511   1.078   0.963  0.4279 -0.3393 -0.1914
 2572TIP3    H129207   6.450   1.025   1.014  0.6082  0.8408  1.3169
 2572TIP3    H229208   6.470   1.083   0.876 -3.3670  2.8349  1.4367
 2573TIP3   OH229209   3.951   3.099  16.028  0.2359  0.2971 -0.1073
 2573TIP3    H129210   3.929   3.077  15.938  3.1449  3.4888 -1.8444
 2573TIP3    H229211   4.008   3.027  16.057 -1.9548 -1.5417 -0.1399
 2574TIP3   OH229212   6.289   4.889   4.086  0.2391  0.3177  0.5225
 2574TIP3    H129213   6.294   4.828   4.160 -0.7762 -0.4027  0.0240
 2574TIP3    H229214   6.326   4.840   4.013 -1.1426  0.0406 -0.0217
 2575TIP3   OH229215   2.194   0.192  11.387  0.2751  0.1034 -0.2125
 2575TIP3    H129216   2.179   0.104  11.421  0.2062 -0.4652 -1.6125
 2575TIP3    H229217   2.161   0.251  11.455  0.1365 -0.9525  0.6577
 2576TIP3   OH229218   1.501   4.460  13.807 -0.0792  0.4170  0.2918
 2576TIP3    H129219   1.483   4.497  13.721  2.2065  1.1965  0.0675
 2576TIP3    H229220   1.471   4.369  13.801  0.4521  0.3159 -1.4932
 2577TIP3   OH229221   0.209   5.404   0.998 -0.2012 -0.5475  0.4073
 2577TIP3    H129222   0.199   5.488   0.953  0.1423 -1.5730 -1.7720
 2577TIP3    H229223   0.288   5.366   0.959  0.7871 -1.0727  2.7723
 2578TIP3   OH229224   6.569   1.237  16.296  0.3211  0.2898  0.4053
 2578TIP3    H129225   6.531   1.324  16.287  1.3487  0.6578 -0.7482
 2578TIP3    H229226   6.656   1.245  16.255  0.4668 -1.2442  0.3577
 2579TIP3   OH229227   3.311   6.202   1.021 -0.9233  0.3749 -0.4249
 2579TIP3    H129228   3.378   6.175   1.084 -0.3309 -0.8177 -1.5077
 2579TIP3    H229229   3.357   6.258   0.959 -1.3271  0.9154 -0.2463
 2580TIP3   OH229230   1.721   4.763  11.728 -0.0287 -0.2551  0.5146
 2580TIP3    H129231   1.780   4.788  11.658 -0.1384  0.1002  0.5474
 2580TIP3    H229232   1.639   4.808  11.708 -1.1335 -2.6865 -0.9258
 2581TIP3   OH229233   2.980   1.512   0.595 -0.2432  0.0624  0.0583
 2581TIP3    H129234   3.051   1.506   0.659  0.0061  0.7053 -0.1444
 2581TIP3    H229235   2.901   1.525   0.646 -0.1021  0.1656  0.2491
 2582TIP3   OH229236   6.234   2.230  17.212  0.5701  0.5371  0.0853
 2582TIP3    H129237   6.270   2.155  17.259  0.2973  0.9347  0.9342
 2582TIP3    H229238   6.280   2.229  17.128 -0.2028 -1.2135 -0.3603
 2583TIP3   OH229239   4.678   0.248  16.979 -0.5774  0.3036  0.1371
 2583TIP3    H129240   4.712   0.278  16.895 -2.0812  0.8929 -0.2999
 2583TIP3    H229241   4.605   0.190  16.956  0.4679 -1.4609  1.0190
 2584TIP3   OH229242   4.959   4.725  16.198  0.3404 -0.1788 -0.3915
 2584TIP3    H129243   5.015   4.729  16.276  0.2856 -2.2062 -0.1965
 2584TIP3    H229244   4.876   4.691  16.231 -0.1650  0.3648 -1.1018
 2585TIP3   OH229245   1.223   2.757  11.568  0.2982  0.1717 -0.2303
 2585TIP3    H129246   1.219   2.850  11.548  1.1293  0.3038  0.1824
 2585TIP3    H229247   1.240   2.753  11.662 -0.8085 -0.4170 -0.0387
 2586TIP3   OH229248   3.987   0.372  17.129  0.3390 -0.2314  0.3542
 2586TIP3    H129249   3.994   0.432  17.055  0.6283  0.2905  0.8017
 2586TIP3    H229250   4.005   0.426  17.206 -0.5338 -0.6375  0.8634
 2587TIP3   OH229251   1.236   4.518  16.573 -0.5620  0.1525 -0.3038
 2587TIP3    H129252   1.152   4.524  16.618 -0.7355  0.7485 -0.6994
 2587TIP3    H229253   1.298   4.560  16.632  0.2198 -3.5001  1.7399
 2588TIP3   OH229254   4.119   1.850  15.466  0.9187  0.4030 -0.2850
 2588TIP3    H129255   4.209   1.821  15.480 -0.2506 -5.0028 -1.6278
 2588TIP3    H229256   4.113   1.868  15.372  0.2923 -1.0334 -0.5467
 2589TIP3   OH229257   2.378   2.268  15.530 -0.4723  0.0012  0.2035
 2589TIP3    H129258   2.384   2.259  15.435  0.2415 -0.7609  0.3168
 2589TIP3    H229259   2.464   2.243  15.563 -0.4140  1.1457  1.0038
 2590TIP3   OH229260   3.600   5.183   1.614 -0.0445  0.5970 -0.1290
 2590TIP3    H129261   3.586   5.251   1.680  3.6535  1.1447  0.3100
 2590TIP3    H229262   3.579   5.224   1.531 -2.1314  0.7743  0.4411
 2591TIP3   OH229263   4.091   1.042   5.913  0.0909 -1.1061 -0.1974
 2591TIP3    H129264   4.040   1.106   5.863  0.9376  1.1508  1.6351
 2591TIP3    H229265   4.025   0.993   5.962 -0.6658 -2.6565 -2.6210
 2592TIP3   OH229266   1.359   2.483  17.155  0.0454  0.2681 -0.4962
 2592TIP3    H129267   1.356   2.562  17.100  2.3567 -0.3121 -1.5780
 2592TIP3    H229268   1.447   2.449  17.143 -0.7576 -2.2993  0.2451
 2593TIP3   OH229269   1.119   0.307  11.424  0.0558  0.7083  0.2793
 2593TIP3    H129270   1.137   0.253  11.348  1.1353  1.4886 -0.0246
 2593TIP3    H229271   1.094   0.392  11.389  2.3116  1.6405  0.7615
 2594TIP3   OH229272   0.048   5.238  13.121 -0.0380 -0.5007  0.1181
 2594TIP3    H129273  -0.029   5.235  13.063  0.1291 -0.7483 -0.0892
 2594TIP3    H229274   0.012   5.225  13.208 -0.4487  1.0852  0.2188
 2595TIP3   OH229275   2.826   1.940   2.028  0.1519  0.1687  0.1849
 2595TIP3    H129276   2.761   2.002   2.061  1.9725  1.7811  0.9425
 2595TIP3    H229277   2.823   1.867   2.088 -1.5180 -0.1739 -0.2805
 2596TIP3   OH229278   1.473   1.105  12.811 -0.7045  0.3565  0.2496
 2596TIP3    H129279   1.439   1.089  12.900  0.0999  0.4900  0.5910
 2596TIP3    H229280   1.399   1.085  12.754 -1.0926 -0.2237  0.9241
 2597TIP3   OH229281   3.242   1.201  10.516  0.0947 -0.5513  0.8274
 2597TIP3    H129282   3.152   1.212  10.546 -0.7516 -2.8645 -0.5857
 2597TIP3    H229283   3.284   1.149  10.584 -0.7599 -2.6400 -0.1761
 2598TIP3   OH229284   4.426   3.707  11.465  0.4820  0.3306 -0.3946
 2598TIP3    H129285   4.483   3.735  11.394  1.4398 -1.1128 -0.2334
 2598TIP3    H229286   4.339   3.735  11.438  1.2345  2.8774 -0.5105
 2599TIP3   OH229287   3.627   6.781   0.115 -0.5876  0.0046  0.7411
 2599TIP3    H129288   3.699   6.841   0.098 -1.6448  1.4011  0.9844
 2599TIP3    H229289   3.604   6.745   0.029  0.5589 -0.6666  0.7058
 2600TIP3   OH229290   2.755   2.534  13.770  0.5215 -0.5429  0.2299
 2600TIP3    H129291   2.698   2.457  13.776  0.6507 -0.5244  3.5883
 2600TIP3    H229292   2.700   2.603  13.733 -0.3123 -1.6124 -0.5650
 2601TIP3   OH229293   6.081   1.720  13.497  0.3071 -0.0139  0.3005
 2601TIP3    H129294   6.008   1.658  13.497 -1.4499  1.9223 -0.8236
 2601TIP3    H229295   6.048   1.796  13.546  2.1624  0.3166  1.1328
 2602TIP3   OH229296   5.522   2.191   5.932 -0.1164 -0.3519  0.1147
 2602TIP3    H129297   5.437   2.230   5.910  0.1745  0.8184  0.9146
 2602TIP3    H229298   5.545   2.232   6.016  1.7931  0.2777 -0.6680
 2603TIP3   OH229299   1.217   6.013  17.395  0.1945 -0.4936 -0.4871
 2603TIP3    H129300   1.176   6.008  17.482  1.8346 -0.4939  0.3150
 2603TIP3    H229301   1.175   5.944  17.345 -1.9218  0.5082 -0.2250
 2604TIP3   OH229302   0.572   1.274  14.890  0.3564 -0.2958 -0.0851
 2604TIP3    H129303   0.589   1.315  14.974 -1.3443 -2.0868  1.2258
 2604TIP3    H229304   0.479   1.289  14.874 -0.0900 -2.6219 -0.0342
 2605TIP3   OH229305   1.390   4.665   1.894  0.3414 -0.0518 -0.4531
 2605TIP3    H129306   1.328   4.719   1.943 -0.5902 -1.6366  0.2106
 2605TIP3    H229307   1.371   4.575   1.922  2.0224 -0.7193 -1.2797
 2606TIP3   OH229308   2.519   3.475  12.776 -0.7250  0.5623  0.3041
 2606TIP3    H129309   2.498   3.387  12.808 -0.8230  0.1621 -0.8255
 2606TIP3    H229310   2.534   3.463  12.683  0.0365  1.6235  0.2823
 2607TIP3   OH229311   4.937   6.708  12.787  0.6998  0.2620  0.3858
 2607TIP3    H129312   4.945   6.716  12.882  0.7292  0.6039  0.3550
 2607TIP3    H229313   4.957   6.795  12.753 -1.4170  0.7285  0.1929
 2608TIP3   OH229314   1.013   2.504   1.426 -0.8810 -0.1660  0.3311
 2608TIP3    H129315   1.044   2.569   1.489 -0.8570  0.1063  0.0399
 2608TIP3    H229316   1.082   2.500   1.359 -0.1586 -1.5932  1.1226
 2609TIP3   OH229317   5.592   6.547   1.439  0.1938  0.6561  0.0095
 2609TIP3    H129318   5.577   6.588   1.525 -0.8164 -0.1987  0.2680
 2609TIP3    H229319   5.686   6.556   1.424  0.5386  0.0870  1.6053
 2610TIP3   OH229320   0.831   5.843   1.966 -0.1275  0.1932 -0.4895
 2610TIP3    H129321   0.747   5.873   2.000  0.7288  0.9795  1.0667
 2610TIP3    H229322   0.826   5.747   1.970 -0.5801  0.2511  0.5511
 2611TIP3   OH229323   1.946   4.199  15.657 -0.4366 -0.0466 -0.0702
 2611TIP3    H129324   1.962   4.293  15.651 -0.1472 -0.1851 -2.2328
 2611TIP3    H229325   2.009   4.168  15.722 -1.4411  1.3990  1.6794
 2612TIP3   OH229326   0.651   0.254  16.788 -0.4547  0.0110  0.4915
 2612TIP3    H129327   0.736   0.280  16.824 -0.0714 -1.1936  0.4989
 2612TIP3    H229328   0.589   0.316  16.826  0.5235  1.4823 -0.2122
 2613TIP3   OH229329   4.109   1.355   4.397 -0.6066 -0.0299 -0.0592
 2613TIP3    H129330   4.085   1.421   4.462 -1.0204  0.3138 -0.5526
 2613TIP3    H229331   4.106   1.402   4.313 -1.1905 -0.7374 -0.4455
 2614TIP3   OH229332   3.435   5.381  16.463 -0.1620 -0.4286 -0.4338
 2614TIP3    H129333   3.453   5.397  16.371 -1.6112 -1.3817 -0.9232
 2614TIP3    H229334   3.508   5.421  16.510  0.5243  0.1861 -1.9808
 2615TIP3   OH229335   3.891   6.700  12.110 -0.3580  0.3153  0.3877
 2615TIP3    H129336   3.872   6.777  12.165 -1.5401  0.4655 -0.1837
 2615TIP3    H229337   3.806   6.655  12.103 -0.2500  0.3197 -1.3234
 2616TIP3   OH229338   4.257   2.708  14.558 -0.3075  0.0552 -0.1726
 2616TIP3    H129339   4.165   2.714  14.531 -0.0074  0.1917 -1.2089
 2616TIP3    H229340   4.307   2.734  14.480  0.6060  0.2451  0.4600
 2617TIP3   OH229341   1.996   0.154   3.281 -0.4064 -0.8697  0.3687
 2617TIP3    H129342   2.017   0.104   3.359  0.7962  0.2551  0.8078
 2617TIP3    H229343   1.909   0.190   3.298 -0.9487 -2.1595  0.3660
 2618TIP3   OH229344   6.270   5.249  11.496 -0.2019 -0.0098  0.2385
 2618TIP3    H129345   6.273   5.262  11.401 -0.0783  1.4192  0.4028
 2618TIP3    H229346   6.211   5.175  11.509 -1.8444  1.0433 -0.8745
 2619TIP3   OH229347   1.293   1.532   5.326  0.1818  0.5734  0.0275
 2619TIP3    H129348   1.325   1.543   5.415 -1.2650 -2.6241  1.0564
 2619TIP3    H229349   1.334   1.451   5.295 -1.4845  0.1319 -1.1632
 2620TIP3   OH229350   2.436   1.749  15.255 -0.9444 -0.7614  0.5066
 2620TIP3    H129351   2.398   1.807  15.189  2.5595  1.0645 -0.1449
 2620TIP3    H229352   2.465   1.672  15.206  2.6717  1.0588 -0.6111
 2621TIP3   OH229353   5.910   1.092  12.005  0.5649 -0.1775  0.0199
 2621TIP3    H129354   5.874   1.108  12.093  3.6385  0.5733  1.2857
 2621TIP3    H229355   5.913   0.997  11.998 -2.0953 -0.3074 -0.4397
 2622TIP3   OH229356   3.293   2.023   3.765  0.2979  0.0663  0.5131
 2622TIP3    H129357   3.335   1.941   3.790 -1.2220 -1.5291 -1.7010
 2622TIP3    H229358   3.235   2.044   3.839 -2.1196 -3.0200 -0.3200
 2623TIP3   OH229359   3.551   3.828   6.102  0.8721 -0.6285 -0.4905
 2623TIP3    H129360   3.611   3.820   6.176  0.6946  0.0781 -0.2612
 2623TIP3    H229361   3.606   3.819   6.025  1.7039  2.4202 -0.3431
 2624TIP3   OH229362   1.167   4.666   1.141  0.0628 -0.1868  0.5038
 2624TIP3    H129363   1.186   4.587   1.090  1.9966  1.2024 -1.0503
 2624TIP3    H229364   1.121   4.723   1.081  1.6208  1.1462  0.5143
 2625TIP3   OH229365   2.981   5.702  12.682 -0.4293 -0.1714  0.0525
 2625TIP3    H129366   2.936   5.631  12.728  0.0826 -0.3662  0.2652
 2625TIP3    H229367   3.038   5.741  12.748 -0.2218  0.0155 -0.2337
 2626TIP3   OH229368   2.443   6.270   4.556  0.5089  0.2465 -0.0154
 2626TIP3    H129369   2.536   6.266   4.533  0.6106  1.0948  0.2363
 2626TIP3    H229370   2.418   6.361   4.540 -0.1577  0.1396  0.3838
 2627TIP3   OH229371   5.691   1.859   3.188  0.1378  0.4921 -0.4344
 2627TIP3    H129372   5.736   1.939   3.214 -0.7117  0.1311  2.4173
 2627TIP3    H229373   5.700   1.800   3.263 -2.0668 -0.8725 -1.1447
 2628TIP3   OH229374   6.661   3.921   2.879  0.1972 -0.6259 -0.3862
 2628TIP3    H129375   6.630   3.878   2.799 -0.8010  0.7734 -0.7919
 2628TIP3    H229376   6.646   3.856   2.948  1.5339 -2.0478 -1.3568
 2629TIP3   OH229377   3.125   1.525  16.970 -0.3372 -0.2546 -0.2464
 2629TIP3    H129378   3.207   1.507  17.017 -1.3848 -0.0061  1.7635
 2629TIP3    H229379   3.088   1.601  17.014 -1.1058  0.3767 -1.9006
 2630TIP3   OH229380   1.342   5.745  16.389  0.0475  0.7304  0.5025
 2630TIP3    H129381   1.292   5.820  16.422  0.1762  0.9425  0.2167
 2630TIP3    H229382   1.298   5.720  16.308  0.9037  1.4563 -0.1991
 2631TIP3   OH229383   1.962   0.198   5.494 -0.6944 -0.2178  0.2428
 2631TIP3    H129384   1.981   0.264   5.428 -1.0118 -0.3214  0.0458
 2631TIP3    H229385   1.933   0.247   5.571  0.7396 -0.0300  0.6890
 2632TIP3   OH229386   4.836   0.123   6.544  0.1998  0.4118  0.1612
 2632TIP3    H129387   4.876   0.205   6.515 -1.3230  1.2527  0.3228
 2632TIP3    H229388   4.884   0.100   6.624  1.6481  0.3000 -0.7033
 2633TIP3   OH229389   2.333   6.107   4.323  0.2264  0.3282 -0.3463
 2633TIP3    H129390   2.329   6.183   4.382  1.1107  0.1586 -0.0557
 2633TIP3    H229391   2.406   6.125   4.265 -0.0391  0.0417 -0.7800
 2634TIP3   OH229392   1.437   0.165   3.206  0.1544  0.2794  0.3138
 2634TIP3    H129393   1.405   0.252   3.180 -1.5994 -0.9547 -1.9283
 2634TIP3    H229394   1.363   0.126   3.253 -0.0244 -0.9144 -0.9161
 2635TIP3   OH229395   1.318   3.697   0.047 -0.5725  0.2812  0.0617
 2635TIP3    H129396   1.248   3.689   0.112 -0.0071  1.2608  0.8438
 2635TIP3    H229397   1.274   3.693  -0.037 -1.3203 -1.1295  0.4967
 2636TIP3   OH229398   5.500   4.318  15.989 -0.4344  0.2641 -0.1067
 2636TIP3    H129399   5.464   4.313  16.077  0.4033  0.7205  0.2716
 2636TIP3    H229400   5.547   4.401  15.986  1.2409 -0.6261 -0.3001
 2637TIP3   OH229401   6.543   5.782   4.276 -0.5277  0.1498  0.1405
 2637TIP3    H129402   6.561   5.874   4.298  1.0277 -0.0760 -0.1059
 2637TIP3    H229403   6.524   5.741   4.360 -0.0184  0.4448  0.4064
 2638TIP3   OH229404   6.649   5.802  11.116  0.7537 -0.2609  0.6731
 2638TIP3    H129405   6.573   5.798  11.057  0.6816 -1.0039  0.8006
 2638TIP3    H229406   6.723   5.774  11.062  0.6151 -1.3861  1.0256
 2639TIP3   OH229407   3.525   2.110  12.264 -0.8152 -0.1853  0.0141
 2639TIP3    H129408   3.518   2.061  12.345  0.4849  1.3806  1.1197
 2639TIP3    H229409   3.504   2.201  12.288 -0.5480  0.2905 -1.4143
 2640TIP3   OH229410   3.541   5.712  13.230  0.2220 -0.7807 -0.2417
 2640TIP3    H129411   3.581   5.793  13.199 -3.0438  0.7218 -0.8662
 2640TIP3    H229412   3.610   5.671  13.282  2.9804  0.9067 -2.2424
 2641TIP3   OH229413   2.433   1.612   4.919  0.5313 -0.5492 -0.3511
 2641TIP3    H129414   2.525   1.587   4.929  0.1558 -1.8972 -0.1441
 2641TIP3    H229415   2.425   1.638   4.827  1.5646  1.5809  0.1136
 2642TIP3   OH229416   5.393   4.979   4.354 -0.2821 -0.7110 -0.0514
 2642TIP3    H129417   5.481   4.985   4.393 -0.4077 -0.2392  0.1720
 2642TIP3    H229418   5.376   5.067   4.320  0.9764 -1.7371 -3.8163
 2643TIP3   OH229419   0.592   0.742   4.372 -0.3520  0.2168  0.0919
 2643TIP3    H129420   0.523   0.801   4.341 -1.9006 -0.8069  1.4165
 2643TIP3    H229421   0.601   0.763   4.465 -1.4984 -2.0451  0.8027
 2644TIP3   OH229422   2.846   4.248   1.333  0.3060 -0.6516 -0.4319
 2644TIP3    H129423   2.850   4.177   1.397 -2.9089 -0.2452  0.4179
 2644TIP3    H229424   2.891   4.214   1.256  1.3298 -2.4851  0.9016
 2645TIP3   OH229425   4.593   3.184  17.178  0.1293 -0.2340  0.0270
 2645TIP3    H129426   4.556   3.268  17.204 -0.1104  0.1491 -1.4700
 2645TIP3    H229427   4.517   3.126  17.170  0.1847 -0.3126  0.0736
 2646TIP3   OH229428   1.030   6.382  14.990 -0.0675 -0.1371  0.6490
 2646TIP3    H129429   1.098   6.323  14.957  0.5158 -0.2688  2.0035
 2646TIP3    H229430   1.073   6.467  14.995 -0.4553  0.0905  0.1156
 2647TIP3   OH229431   3.690   5.005   1.945  0.2535  0.4649 -0.3157
 2647TIP3    H129432   3.704   5.008   2.039  0.5377 -3.0352 -0.1383
 2647TIP3    H229433   3.631   5.078   1.928 -0.8612  0.4373  2.7807
 2648TIP3   OH229434   6.529   1.975  14.903  0.1867 -0.1761  0.0407
 2648TIP3    H129435   6.621   1.993  14.921  0.4748 -1.0596 -0.4844
 2648TIP3    H229436   6.512   2.019  14.819  0.6695 -1.6004 -0.8326
 2649TIP3   OH229437   6.403   4.827  16.585  0.3809 -0.1064 -0.1502
 2649TIP3    H129438   6.447   4.906  16.617 -0.7364 -0.0117  1.2798
 2649TIP3    H229439   6.395   4.772  16.663 -2.1420 -0.0399 -0.2699
 2650TIP3   OH229440   5.923   3.279  12.020 -0.0870  0.1276 -0.1988
 2650TIP3    H129441   5.953   3.188  12.025  1.7676  0.7203  0.3577
 2650TIP3    H229442   5.972   3.324  12.088  1.2531  2.1321 -2.3517
 2651TIP3   OH229443   3.501   6.362   2.986  0.0567 -0.4345 -0.0764
 2651TIP3    H129444   3.420   6.356   3.037  1.0837 -2.5003  1.4328
 2651TIP3    H229445   3.485   6.306   2.910  0.0826 -0.9171  0.2677
 2652TIP3   OH229446   1.473   2.719  16.707 -0.1168 -0.1273 -0.6446
 2652TIP3    H129447   1.432   2.648  16.658 -1.8491  0.7246 -0.5006
 2652TIP3    H229448   1.401   2.780  16.727 -0.0247 -1.2059  4.4333
 2653TIP3   OH229449   1.164   0.758   0.286 -0.1034  0.1315 -0.3326
 2653TIP3    H129450   1.138   0.698   0.216  1.7504 -1.3401  0.1593
 2653TIP3    H229451   1.118   0.726   0.364  1.7001 -1.4459  0.1727
 2654TIP3   OH229452   0.399   6.778  14.360 -0.3326 -0.1327  0.6056
 2654TIP3    H129453   0.454   6.856  14.353 -0.9543  0.2031 -0.6967
 2654TIP3    H229454   0.317   6.802  14.316  0.3295 -2.2847 -2.0598
 2655TIP3   OH229455   6.450   2.137  11.139  0.4540  0.5038  0.7798
 2655TIP3    H129456   6.496   2.083  11.074  0.3591  1.3542 -0.0245
 2655TIP3    H229457   6.416   2.210  11.088 -0.4163  0.7202  1.6504
 2656TIP3   OH229458   0.483   3.630   2.342  0.6157  0.1294 -1.1749
 2656TIP3    H129459   0.390   3.617   2.327  0.2066 -0.5491  1.4312
 2656TIP3    H229460   0.503   3.714   2.300 -1.0566  0.0968 -2.0996
 2657TIP3   OH229461   3.558   5.494   5.743  0.3743  0.3487  0.3733
 2657TIP3    H129462   3.561   5.554   5.669  2.2712 -0.5117 -0.3039
 2657TIP3    H229463   3.597   5.542   5.815  1.3858  0.1633 -0.0274
 2658TIP3   OH229464   4.914   0.192  12.982  0.0358  0.1226 -0.0729
 2658TIP3    H129465   4.831   0.227  12.950  0.4692  1.5980  0.3353
 2658TIP3    H229466   4.961   0.165  12.903 -0.4704  0.1015 -0.3710
 2659TIP3   OH229467   3.831   5.337   2.837 -0.5712 -0.4111 -0.1623
 2659TIP3    H129468   3.816   5.318   2.745 -0.4523  1.0475 -0.4976
 2659TIP3    H229469   3.926   5.342   2.846 -0.4846 -2.2647  0.4284
 2660TIP3   OH229470   1.890   0.196  16.133 -0.4716 -0.7218  0.4085
 2660TIP3    H129471   1.806   0.238  16.154 -0.7021 -0.5941 -0.7309
 2660TIP3    H229472   1.890   0.188  16.038  1.8251  1.4185  0.1359
 2661TIP3   OH229473   5.730   5.835  12.982  0.0487 -0.7485 -0.0068
 2661TIP3    H129474   5.670   5.908  12.995 -0.5775 -1.3115  0.2944
 2661TIP3    H229475   5.802   5.852  13.043 -0.6213 -0.9480  0.8503
 2662TIP3   OH229476   0.003   4.860  17.093  0.1520 -0.5926  0.6574
 2662TIP3    H129477  -0.033   4.780  17.131 -1.0695 -0.0758  0.6200
 2662TIP3    H229478  -0.063   4.927  17.111  0.6376  0.1701 -0.3119
 2663TIP3   OH229479   1.824   6.736  13.731 -0.1895 -0.5093  0.1102
 2663TIP3    H129480   1.867   6.665  13.778  0.2726 -0.4645 -0.2353
 2663TIP3    H229481   1.790   6.793  13.799  0.6485 -0.3389  0.3929
 2664TIP3   OH229482   0.243   0.054  12.836 -0.3751  0.3584  0.4146
 2664TIP3    H129483   0.188   0.029  12.910  0.7176  1.9331  1.8414
 2664TIP3    H229484   0.244  -0.023  12.780 -2.8851 -0.1915  0.9977
 2665TIP3   OH229485   3.288   2.195   1.374 -0.0195 -0.1608  0.1470
 2665TIP3    H129486   3.306   2.238   1.458 -0.8486 -2.4004  1.5735
 2665TIP3    H229487   3.325   2.107   1.384  0.7585 -0.1588 -2.2598
 2666TIP3   OH229488   6.126   4.794  13.797  0.2380 -0.2014 -0.2304
 2666TIP3    H129489   6.112   4.799  13.702  2.2896 -0.5260 -0.6054
 2666TIP3    H229490   6.072   4.864  13.833  1.8462  2.0801 -1.9662
 2667TIP3   OH229491   3.928   1.046   6.432  0.5845  0.1727  0.1556
 2667TIP3    H129492   3.883   0.964   6.412 -1.4052  1.0761  0.6894
 2667TIP3    H229493   3.866   1.114   6.407  1.1311  1.4588  2.0711
 2668TIP3   OH229494   5.502   2.859   3.814  0.3655 -0.0913 -0.0516
 2668TIP3    H129495   5.494   2.764   3.821 -0.1716  0.0147  0.9542
 2668TIP3    H229496   5.478   2.892   3.901  1.3866  0.9199 -0.1203
 2669TIP3   OH229497   0.053   3.452  11.640 -0.0051 -0.5905 -0.4734
 2669TIP3    H129498   0.075   3.411  11.724  0.1987 -0.8235 -0.6382
 2669TIP3    H229499   0.100   3.400  11.575 -0.0218 -0.3019 -0.7178
 2670TIP3   OH229500   5.858   1.037  14.522 -0.6345 -0.2218  0.6247
 2670TIP3    H129501   5.764   1.036  14.507 -0.5922 -0.2363  0.3396
 2670TIP3    H229502   5.890   0.955  14.482 -0.0930  1.2522 -2.2666
 2671TIP3   OH229503   0.744   5.540  14.828  0.4727  0.3821  0.0634
 2671TIP3    H129504   0.795   5.459  14.821 -0.7825 -0.7284  2.5524
 2671TIP3    H229505   0.713   5.556  14.739  0.1584 -2.3157 -0.4137
 2672TIP3   OH229506   4.485   4.476   1.626 -0.0980  0.5273 -0.1794
 2672TIP3    H129507   4.537   4.416   1.574 -1.6341  0.0570 -1.2558
 2672TIP3    H229508   4.518   4.467   1.715  0.5987 -0.9042 -0.5609
 2673TIP3   OH229509   5.833   5.638   1.433 -0.8212  0.0927  0.3965
 2673TIP3    H129510   5.896   5.566   1.426  0.1486  0.8297  1.1561
 2673TIP3    H229511   5.842   5.667   1.524 -2.7190 -0.1711  0.6975
 2674TIP3   OH229512   0.079   5.670  15.503 -0.6327  0.2040 -0.1618
 2674TIP3    H129513   0.129   5.599  15.543 -1.6675 -1.0102 -0.9455
 2674TIP3    H229514  -0.013   5.647  15.521 -0.9716  1.9051  0.4766
 2675TIP3   OH229515   0.501   4.008   4.553  0.5356  0.2676 -0.7118
 2675TIP3    H129516   0.505   4.053   4.637  0.0530  1.5986 -1.3694
 2675TIP3    H229517   0.469   3.920   4.573 -1.2211  1.0899  0.3058
 2676TIP3   OH229518   5.304   2.777  13.329 -0.3867 -0.2999 -0.2440
 2676TIP3    H129519   5.337   2.853  13.377 -0.8667 -0.5060  0.4310
 2676TIP3    H229520   5.253   2.728  13.394 -4.4937  1.4476 -1.8733
 2677TIP3   OH229521   4.398   4.379  15.717 -0.8031  0.2580  0.1674
 2677TIP3    H129522   4.428   4.430  15.643 -0.4429 -0.2072 -0.0132
 2677TIP3    H229523   4.323   4.428  15.752 -2.4283 -0.6202 -1.8395
 2678TIP3   OH229524   6.723   3.086   6.168 -0.3247 -0.5877  0.6636
 2678TIP3    H129525   6.719   3.040   6.252 -0.3455 -1.6979  0.0681
 2678TIP3    H229526   6.633   3.115   6.153 -0.8436 -2.3906 -0.0347
 2679TIP3   OH229527   6.258   4.474   4.495 -0.1064  0.1602  0.2104
 2679TIP3    H129528   6.307   4.539   4.545 -0.7469  0.4987  0.4041
 2679TIP3    H229529   6.166   4.490   4.517 -0.3940  0.2298 -0.9725
 2680TIP3   OH229530   0.906   2.255  12.728  0.3376  0.1085 -0.4591
 2680TIP3    H129531   0.920   2.344  12.696  1.2611  0.3622  0.5752
 2680TIP3    H229532   0.980   2.239  12.787 -0.9741 -0.5083  1.1011
 2681TIP3   OH229533   2.636   3.145  12.058 -0.0805 -0.1214  0.2935
 2681TIP3    H129534   2.724   3.107  12.063 -0.2056 -0.6873 -1.3614
 2681TIP3    H229535   2.614   3.143  11.965 -2.4191 -1.3233  0.7985
 2682TIP3   OH229536   5.267   1.531  13.974  0.1311  0.4633 -0.2087
 2682TIP3    H129537   5.311   1.537  14.058 -0.8636  0.0532  0.3527
 2682TIP3    H229538   5.301   1.605  13.924  1.8961 -0.1729 -0.0204
 2683TIP3   OH229539   3.297   0.646  17.358  0.3070 -0.0640  0.0357
 2683TIP3    H129540   3.293   0.646  17.453 -0.1167 -0.2751  0.0181
 2683TIP3    H229541   3.383   0.609  17.338  0.7041  0.6717  0.3386
 2684TIP3   OH229542   5.492   5.314   2.006 -0.0385  0.1073  0.7927
 2684TIP3    H129543   5.565   5.264   1.971  0.8919  1.3069  0.9726
 2684TIP3    H229544   5.418   5.252   2.006  0.2167 -0.3002 -2.0548
 2685TIP3   OH229545   5.792   0.153  12.077 -0.1004 -0.5040 -0.4616
 2685TIP3    H129546   5.801   0.242  12.113 -0.1547 -1.6487  2.6833
 2685TIP3    H229547   5.882   0.121  12.071 -0.1956 -0.9972  0.5979
 2686TIP3   OH229548   0.270   2.158  15.179  0.0523  0.3692 -0.4961
 2686TIP3    H129549   0.247   2.169  15.271  0.3419 -1.1539 -0.2108
 2686TIP3    H229550   0.366   2.152  15.179  0.0693  0.6468 -0.9273
 2687TIP3   OH229551   3.664   3.261  14.169 -0.2116 -0.4984 -0.1164
 2687TIP3    H129552   3.582   3.219  14.198 -0.5520 -0.0679 -0.4448
 2687TIP3    H229553   3.732   3.197  14.190 -0.7399 -1.3112 -0.7928
 2688TIP3   OH229554   5.447   2.242  11.941 -0.2124  0.0475  0.4990
 2688TIP3    H129555   5.433   2.256  11.848 -2.5283  1.8774  1.0158
 2688TIP3    H229556   5.374   2.186  11.969  0.8489 -1.0849  1.1319
 2689TIP3   OH229557   3.228   5.257   6.200  0.2055  0.0135  0.3303
 2689TIP3    H129558   3.308   5.301   6.228  0.2363  0.0880  0.1245
 2689TIP3    H229559   3.181   5.239   6.282 -0.6105  1.9253  0.3373
 2690TIP3   OH229560   2.027   0.459   6.755 -0.4998  0.3137  0.5866
 2690TIP3    H129561   2.017   0.541   6.706  2.4012  1.1585  1.2122
 2690TIP3    H229562   1.993   0.479   6.843 -4.5042 -0.8191 -0.4992
 2691TIP3   OH229563   6.489   0.433   3.473 -0.0576  0.0453 -0.0043
 2691TIP3    H129564   6.470   0.356   3.526  0.9886  0.9074  1.6713
 2691TIP3    H229565   6.402   0.466   3.447 -0.5459 -1.0131  0.2540
 2692TIP3   OH229566   3.348   1.283   5.008 -0.1220 -0.0020  0.6643
 2692TIP3    H129567   3.273   1.226   4.990 -0.0301 -0.0998  0.5878
 2692TIP3    H229568   3.425   1.230   4.985 -0.0711  0.4823 -0.3210
 2693TIP3   OH229569   4.116   2.178  15.532 -0.0345  0.5380  0.1095
 2693TIP3    H129570   4.169   2.176  15.611  1.2380  0.6480 -0.6991
 2693TIP3    H229571   4.157   2.113  15.474  0.8541  2.4097 -1.4954
 2694TIP3   OH229572   1.756   4.127   0.730 -0.1159  0.3996 -0.5322
 2694TIP3    H129573   1.802   4.179   0.797 -0.9628  0.4617  0.0150
 2694TIP3    H229574   1.686   4.184   0.700 -1.5403 -0.6710  0.6250
 2695TIP3   OH229575   2.127   3.913   0.351  0.4587  0.7703 -0.7950
 2695TIP3    H129576   2.189   3.985   0.365  1.9897 -0.8307  1.2808
 2695TIP3    H229577   2.136   3.892   0.258  1.1393  2.2252 -1.0799
 2696TIP3   OH229578   5.567   0.614   4.558  0.3407  0.6350 -0.3171
 2696TIP3    H129579   5.542   0.706   4.566  1.7644  0.9261  1.8910
 2696TIP3    H229580   5.523   0.570   4.631  1.2799  0.0013 -0.1030
 2697TIP3   OH229581   3.131   0.608  15.512  0.1382 -0.2962  0.3092
 2697TIP3    H129582   3.069   0.560  15.569  0.3722 -1.0861 -0.0889
 2697TIP3    H229583   3.215   0.602  15.558  0.1922 -0.3707  0.2007
 2698TIP3   OH229584   5.403   4.710  16.655 -0.4952  0.2730 -0.7176
 2698TIP3    H129585   5.480   4.719  16.599  0.8142 -0.6743  0.8581
 2698TIP3    H229586   5.363   4.797  16.656  0.1729  0.6169 -2.0664
 2699TIP3   OH229587   1.433   6.787  16.461 -0.1988  0.5661  0.0995
 2699TIP3    H129588   1.348   6.764  16.423  0.4828 -1.4054 -0.3425
 2699TIP3    H229589   1.450   6.876  16.429 -1.7913  0.7446 -0.3338
 2700TIP3   OH229590   2.153   6.723   2.521 -0.0096  0.5850  0.7096
 2700TIP3    H129591   2.080   6.782   2.501 -1.8607 -2.0849 -0.9637
 2700TIP3    H229592   2.118   6.662   2.586  0.7322 -0.7155 -0.0792
 2701TIP3   OH229593   5.240   6.560  16.790  0.6530 -0.1681 -0.2651
 2701TIP3    H129594   5.330   6.541  16.765 -0.2690 -2.2824 -2.3120
 2701TIP3    H229595   5.216   6.637  16.738  2.0465  2.3134  2.4498
 2702TIP3   OH229596   6.642   3.878   4.098 -0.1646  0.1366 -0.1480
 2702TIP3    H129597   6.724   3.892   4.051  0.2745 -1.5859  0.0486
 2702TIP3    H229598   6.659   3.912   4.186  0.2309  0.0623 -0.1937
 2703TIP3   OH229599   1.773   6.168   6.003 -0.1150  0.2328 -0.0212
 2703TIP3    H129600   1.782   6.232   6.074  1.4274 -0.0804  0.0963
 2703TIP3    H229601   1.857   6.122   6.001 -0.5348 -0.5329 -1.3192
 2704TIP3   OH229602   0.300   1.783   0.327 -0.1516 -0.2455 -0.0819
 2704TIP3    H129603   0.221   1.790   0.379  0.7758 -0.7134  1.4735
 2704TIP3    H229604   0.279   1.825   0.244 -2.5280 -1.7740 -0.3447
 2705TIP3   OH229605   5.272   0.749  15.089 -0.8546  0.5191 -0.2948
 2705TIP3    H129606   5.350   0.726  15.141 -0.5535 -1.0815 -1.3797
 2705TIP3    H229607   5.303   0.817  15.029 -0.9166  1.5520  0.7936
 2706TIP3   OH229608   4.846   5.534  15.121  0.2714  0.5548  0.3937
 2706TIP3    H129609   4.848   5.440  15.100  1.1773  0.6051  0.2053
 2706TIP3    H229610   4.778   5.569  15.064  2.3467  0.6087 -2.2701
 2707TIP3   OH229611   2.379   1.192  16.384 -0.1433  0.5259 -0.1155
 2707TIP3    H129612   2.338   1.271  16.418  0.2709  0.5149  0.4158
 2707TIP3    H229613   2.404   1.215  16.294 -0.5779  0.7909 -0.1734
 2708TIP3   OH229614   5.754   6.605  13.659 -0.2508  0.2532  0.8095
 2708TIP3    H129615   5.841   6.565  13.663  0.2303  1.2266  0.5502
 2708TIP3    H229616   5.708   6.570  13.735  0.0614 -0.9619  0.4516
 2709TIP3   OH229617   5.031   6.598  13.530  0.5258 -0.1146  0.3901
 2709TIP3    H129618   4.972   6.522  13.540  2.1902 -1.4014  0.8135
 2709TIP3    H229619   5.043   6.607  13.436 -1.2733  0.9479  0.2139
 2710TIP3   OH229620   6.053   6.161  14.578  0.6094  0.3838 -0.0737
 2710TIP3    H129621   6.148   6.159  14.566  0.5315  0.7467 -0.8390
 2710TIP3    H229622   6.038   6.233  14.640  0.7436  1.3583 -1.1284
 2711TIP3   OH229623   6.337   4.518   5.980  0.2485  0.1338 -0.0238
 2711TIP3    H129624   6.361   4.589   6.040 -2.4385 -0.3218  1.7678
 2711TIP3    H229625   6.353   4.438   6.030  1.1608 -0.4745 -1.2257
 2712TIP3   OH229626   0.912   6.185  12.671  0.1800  0.1457 -0.3540
 2712TIP3    H129627   0.898   6.249  12.601  0.3791  0.5627 -0.0144
 2712TIP3    H229628   0.835   6.128  12.668 -0.0633  0.4862 -0.5657
 2713TIP3   OH229629   4.255   6.550  12.823  0.0078  0.7101 -0.2181
 2713TIP3    H129630   4.219   6.555  12.734 -2.2954  0.9982  0.6581
 2713TIP3    H229631   4.322   6.619  12.825  1.0307 -0.1677 -2.0824
 2714TIP3   OH229632   4.603   3.909   4.199  0.0256 -0.4604 -0.3984
 2714TIP3    H129633   4.543   3.934   4.269  0.9375 -1.7487  0.8797
 2714TIP3    H229634   4.640   3.992   4.168  0.9369  0.0459  1.8635
 2715TIP3   OH229635   1.562   2.559  12.894  0.4135  0.4277  0.1952
 2715TIP3    H129636   1.622   2.611  12.840 -0.0711  0.3731 -0.4060
 2715TIP3    H229637   1.617   2.489  12.930  0.4825 -0.3224 -1.2975
 2716TIP3   OH229638   6.332   0.013  15.402  0.0939 -0.3036  0.3418
 2716TIP3    H129639   6.411  -0.028  15.439 -0.0725  0.0050  1.0508
 2716TIP3    H229640   6.268  -0.058  15.400  0.0767 -0.3027  0.7377
 2717TIP3   OH229641   0.691   4.450  11.859 -0.5284 -0.0761 -0.4154
 2717TIP3    H129642   0.654   4.512  11.797  1.1005  1.3445 -0.0539
 2717TIP3    H229643   0.646   4.468  11.942  0.4029  1.1513 -0.1455
 2718TIP3   OH229644   2.762   5.987  15.984 -0.3391  0.4383 -0.5641
 2718TIP3    H129645   2.785   5.947  16.068 -0.5902  1.2593 -0.0857
 2718TIP3    H229646   2.770   5.917  15.920 -2.5118 -0.8402  0.4796
 2719TIP3   OH229647   0.882   3.004   4.693 -0.3615  0.5124  0.3228
 2719TIP3    H129648   0.869   3.028   4.601 -1.0147  0.1228  0.3002
 2719TIP3    H229649   0.909   3.085   4.736 -1.0138  0.9320 -0.0348
 2720TIP3   OH229650   4.120   1.653  12.520  0.0612  0.4415 -0.2916
 2720TIP3    H129651   4.044   1.681  12.570  0.7882 -2.2236  2.5935
 2720TIP3    H229652   4.195   1.690  12.567  0.6855  0.0828 -0.9806
 2721TIP3   OH229653   0.053   2.272   1.047 -0.1044 -0.0141 -0.0317
 2721TIP3    H129654  -0.025   2.223   1.073  0.9899 -1.1185  1.3602
 2721TIP3    H229655   0.118   2.205   1.026  0.6954  0.8773 -0.4918
 2722TIP3   OH229656   1.879   0.618   3.856 -0.3845 -0.1934  0.0378
 2722TIP3    H129657   1.926   0.701   3.861 -0.1443 -0.2497 -1.0070
 2722TIP3    H229658   1.787   0.641   3.872 -0.3273  0.2848 -0.3071
 2723TIP3   OH229659   2.589   3.199  11.789  0.6984 -0.7581 -0.1439
 2723TIP3    H129660   2.647   3.270  11.762  0.0341 -0.2563 -0.2897
 2723TIP3    H229661   2.540   3.176  11.710 -0.4951 -0.0077  0.3402
 2724TIP3   OH229662   0.612   0.548  12.828 -0.3467  0.7932 -0.0765
 2724TIP3    H129663   0.616   0.643  12.820  0.1635  1.0694  2.5432
 2724TIP3    H229664   0.541   0.532  12.889  1.4917 -0.2326  1.9417
 2725TIP3   OH229665   4.330   2.668   0.049 -0.3345  0.2620 -0.3471
 2725TIP3    H129666   4.354   2.688   0.139  0.2733 -1.4195 -0.1036
 2725TIP3    H229667   4.413   2.655   0.004 -0.6552  0.0934 -0.9079
 2726TIP3   OH229668   4.346   6.037   5.324  0.0585  0.0040 -0.4093
 2726TIP3    H129669   4.345   6.120   5.276 -1.6454 -0.4632 -1.2855
 2726TIP3    H229670   4.382   6.059   5.410  1.4623  1.2324 -1.2802
 2727TIP3   OH229671   5.082   3.035   5.832 -0.2160 -0.0297  0.1044
 2727TIP3    H129672   5.010   3.072   5.781 -1.8285 -3.4450 -0.3642
 2727TIP3    H229673   5.039   2.985   5.902  1.5971 -2.6210 -0.4929
 2728TIP3   OH229674   3.948   5.007   0.362  0.0738  0.6297 -0.5096
 2728TIP3    H129675   3.972   4.934   0.305  0.6170  1.4174 -1.3125
 2728TIP3    H229676   4.028   5.027   0.410  0.1753  1.2251 -0.9077
 2729TIP3   OH229677   3.312   6.511   2.586 -0.9151 -0.5297 -0.3485
 2729TIP3    H129678   3.252   6.571   2.630 -1.6808 -1.6449  0.1827
 2729TIP3    H229679   3.397   6.526   2.626 -1.2318 -0.2301  0.2105
 2730TIP3   OH229680   5.948   4.774   5.151  0.2992 -0.1065  0.1796
 2730TIP3    H129681   5.894   4.717   5.205  0.3852 -0.6329 -0.2884
 2730TIP3    H229682   5.960   4.726   5.069 -1.2134  1.3874 -0.9710
 2731TIP3   OH229683   1.096   0.922   5.859  0.3202  0.1564  0.2458
 2731TIP3    H129684   1.037   0.978   5.910 -0.4356 -0.2185 -0.1912
 2731TIP3    H229685   1.140   0.868   5.925  0.1141  0.3864  0.5766
 2732TIP3   OH229686   1.285   0.339   4.206 -0.0368 -0.7568  0.4851
 2732TIP3    H129687   1.377   0.358   4.227 -0.4002 -0.7527  2.2659
 2732TIP3    H229688   1.239   0.422   4.221 -0.4612 -0.9863  0.4676
 2733TIP3   OH229689   3.963   2.620  17.119 -0.0841  0.1288 -0.3919
 2733TIP3    H129690   3.940   2.711  17.103 -2.2443 -0.0889  1.0927
 2733TIP3    H229691   4.035   2.624  17.182 -0.6540  0.8281  0.2387
 2734TIP3   OH229692   5.568   5.968   5.329 -0.1085  0.2990 -0.0279
 2734TIP3    H129693   5.611   5.924   5.257  0.2976  1.7824 -0.7386
 2734TIP3    H229694   5.579   5.909   5.404  1.8969 -0.0261 -0.5278
 2735TIP3   OH229695   2.852   2.705   3.703  0.3583 -0.5365  0.2445
 2735TIP3    H129696   2.883   2.750   3.781 -0.9860  0.0130  0.5060
 2735TIP3    H229697   2.827   2.776   3.644 -0.3037 -0.9365  0.0346
 2736TIP3   OH229698   0.560   5.210  13.157  0.4420 -0.0711  0.1001
 2736TIP3    H129699   0.627   5.154  13.117  0.4995 -0.3027  0.5075
 2736TIP3    H229700   0.541   5.167  13.241 -1.9991 -1.3920 -1.0395
 2737TIP3   OH229701   4.504   0.873  11.831 -0.0478  0.2100  0.3028
 2737TIP3    H129702   4.488   0.890  11.739 -0.1419 -1.1469  0.0469
 2737TIP3    H229703   4.494   0.958  11.874  0.7127  0.9905 -1.0190
 2738TIP3   OH229704   1.939   5.644   4.605  0.0112  0.0273 -0.0696
 2738TIP3    H129705   1.935   5.672   4.514  1.3826  0.2435 -0.0784
 2738TIP3    H229706   1.931   5.724   4.656 -0.6314 -0.0804  0.0100
 2739TIP3   OH229707   4.031   1.165   2.535  0.4641  0.2915 -0.0831
 2739TIP3    H129708   4.038   1.241   2.476  0.2971 -0.1173 -0.6320
 2739TIP3    H229709   3.937   1.146   2.539  0.4161  0.6360  0.7364
 2740TIP3   OH229710   1.545   0.562  11.233 -0.5361 -0.1524  0.7157
 2740TIP3    H129711   1.544   0.485  11.290  2.2996 -1.5801 -0.9679
 2740TIP3    H229712   1.572   0.529  11.148  0.2783  2.6464 -0.2284
 2741TIP3   OH229713   6.348   4.131  13.498  1.0811  0.2260 -0.3521
 2741TIP3    H129714   6.382   4.049  13.534  1.9012  0.1776 -1.1985
 2741TIP3    H229715   6.414   4.196  13.522  0.3042  0.6994  0.5436
 2742TIP3   OH229716   2.801   5.100  14.148  0.0278 -0.4090  0.1136
 2742TIP3    H129717   2.720   5.108  14.200  0.1832  2.0266  0.0915
 2742TIP3    H229718   2.871   5.117  14.211  0.2999  1.0295 -0.5382
 2743TIP3   OH229719   5.749   4.504   4.321 -0.2839  0.9434  0.5030
 2743TIP3    H129720   5.718   4.592   4.341 -1.3831  0.6687  0.0911
 2743TIP3    H229721   5.713   4.485   4.234 -0.4974 -0.1043  0.8052
 2744TIP3   OH229722   4.061   5.045  10.636  0.1810 -0.3321  0.2059
 2744TIP3    H129723   4.001   5.106  10.592 -1.9363 -1.4661  1.3610
 2744TIP3    H229724   4.135   5.099  10.663 -2.1244  2.0720  2.2173
 2745TIP3   OH229725   4.066   4.771  14.799 -0.1744  0.3238 -0.1197
 2745TIP3    H129726   4.054   4.743  14.890 -1.4195 -1.7813 -0.8658
 2745TIP3    H229727   4.121   4.704  14.760  1.3476  1.8273 -0.6982
 2746TIP3   OH229728   2.938   5.922  14.956  0.2565 -0.1626 -0.3434
 2746TIP3    H129729   2.933   5.978  14.879  0.9663  0.5349  0.0982
 2746TIP3    H229730   2.850   5.927  14.994  0.0895  0.0172 -0.7478
 2747TIP3   OH229731   4.810   4.104   0.452  0.3981  0.0292  0.0454
 2747TIP3    H129732   4.759   4.158   0.512 -0.2134  1.3970 -1.6271
 2747TIP3    H229733   4.878   4.064   0.508 -1.1845 -0.1872  1.9305
 2748TIP3   OH229734   1.781   5.372   6.246 -0.6844  0.2400 -0.6236
 2748TIP3    H129735   1.756   5.440   6.309 -0.3237  0.5881 -0.8482
 2748TIP3    H229736   1.714   5.377   6.177 -0.1104  1.0485 -1.1360
 2749TIP3   OH229737   1.994   4.231   5.393 -0.8238  0.0618 -0.4739
 2749TIP3    H129738   2.047   4.151   5.396 -0.8603  0.0669  1.1193
 2749TIP3    H229739   1.926   4.218   5.459 -2.6417  0.2178 -2.1966
 2750TIP3   OH229740   1.838   0.623  13.030  0.1698  0.4475 -0.4417
 2750TIP3    H129741   1.866   0.537  13.059 -0.5288  0.0274 -0.9874
 2750TIP3    H229742   1.905   0.683  13.064  0.5679 -0.2832  0.0772
 2751TIP3   OH229743   2.861   6.722  14.376 -0.0457  0.0848 -0.4815
 2751TIP3    H129744   2.924   6.790  14.352  0.2319  0.1067  0.2933
 2751TIP3    H229745   2.869   6.657  14.306  0.4200  0.3687 -0.7004
 2752TIP3   OH229746   4.669   0.975  12.733 -0.6519 -0.1268  0.1911
 2752TIP3    H129747   4.633   1.033  12.800 -1.7221 -0.7553  0.1621
 2752TIP3    H229748   4.764   0.977  12.749 -0.9759 -1.9526  3.1497
 2753TIP3   OH229749   4.744   1.693   5.859 -0.5148  0.0044  0.6701
 2753TIP3    H129750   4.838   1.701   5.878 -0.7701  1.4224  1.4983
 2753TIP3    H229751   4.736   1.609   5.814  1.3007  0.3223 -0.3732
 2754TIP3   OH229752   2.208   5.147  10.939  0.0117  0.2497  0.5220
 2754TIP3    H129753   2.246   5.141  10.852  1.0423  0.0868  0.9718
 2754TIP3    H229754   2.119   5.178  10.924 -1.0776 -3.0726 -0.8942
 2755TIP3   OH229755   5.340   6.098  12.639 -0.0054 -0.0964 -0.0929
 2755TIP3    H129756   5.403   6.135  12.700  0.9210 -1.3892 -0.2210
 2755TIP3    H229757   5.382   6.104  12.554 -0.9717  0.9945 -0.5177
 2756TIP3   OH229758   2.845   6.242   0.959  0.4109 -0.2624  0.1753
 2756TIP3    H129759   2.855   6.148   0.967  0.3830 -0.3046 -0.2652
 2756TIP3    H229760   2.853   6.260   0.865  0.4785  0.1787  0.2591
 2757TIP3   OH229761   2.747   5.688   2.151  0.0955 -0.3221 -0.1860
 2757TIP3    H129762   2.685   5.616   2.139 -0.4184  0.1723 -0.5352
 2757TIP3    H229763   2.692   5.767   2.155  0.7167  0.1545 -0.8241
 2758TIP3   OH229764   0.941   1.081  15.559  0.1685 -0.3286 -0.0391
 2758TIP3    H129765   0.851   1.050  15.566  0.5326 -1.2593  0.8836
 2758TIP3    H229766   0.974   1.042  15.478 -0.8077  1.5826 -1.4199
 2759TIP3   OH229767   1.459   5.064   2.118  0.1315 -0.1883 -0.1327
 2759TIP3    H129768   1.470   4.975   2.085  1.4141 -0.1257  0.0773
 2759TIP3    H229769   1.368   5.085   2.100 -1.0070 -2.5232  2.2307
 2760TIP3   OH229770   5.065   6.744   1.447  0.0264  0.3546  0.0543
 2760TIP3    H129771   5.117   6.794   1.385 -0.2279  0.2449 -0.2507
 2760TIP3    H229772   4.980   6.789   1.449  0.0854  0.4510  0.4416
 2761TIP3   OH229773   0.493   2.600   6.692  0.4443 -0.3982 -0.0750
 2761TIP3    H129774   0.514   2.692   6.679 -1.2075  0.1947  1.1908
 2761TIP3    H229775   0.570   2.564   6.736  0.0902  1.0255  1.8307
 2762TIP3   OH229776   6.163   2.177  16.367  0.5044 -0.4951 -0.5092
 2762TIP3    H129777   6.246   2.212  16.333 -0.3845 -1.0159 -3.5180
 2762TIP3    H229778   6.162   2.086  16.339 -0.6486 -0.7713  0.3728
 2763TIP3   OH229779   1.001   3.377   5.347 -0.0954  0.1426  0.0998
 2763TIP3    H129780   0.927   3.393   5.406 -0.1348 -0.0144  0.0919
 2763TIP3    H229781   0.967   3.314   5.284  0.3967 -0.7848  0.7507
 2764TIP3   OH229782   1.726   5.211  11.594  0.2424  0.2122 -0.2932
 2764TIP3    H129783   1.810   5.210  11.549  0.7021  2.4760  0.3903
 2764TIP3    H229784   1.662   5.190  11.526  1.1807  0.4897 -1.2952
 2765TIP3   OH229785   3.561   3.237  13.332 -0.0772 -0.3539  0.4100
 2765TIP3    H129786   3.493   3.203  13.389 -0.5103 -0.6558 -0.2764
 2765TIP3    H229787   3.556   3.332  13.342 -1.7340 -0.2562 -0.8775
 2766TIP3   OH229788   0.165   2.434   0.664  0.3287  0.5361 -0.6083
 2766TIP3    H129789   0.191   2.500   0.600  1.8224 -1.3843 -2.1145
 2766TIP3    H229790   0.076   2.410   0.638  0.0590  1.3926 -0.5120
 2767TIP3   OH229791   0.815   5.192   0.295  0.4457 -1.0352  0.7372
 2767TIP3    H129792   0.882   5.231   0.350  2.0033 -0.5262 -1.3785
 2767TIP3    H229793   0.863   5.130   0.239 -0.9077 -1.0174 -0.5183
 2768TIP3   OH229794   3.573   2.077  16.611  0.2219 -0.2336  0.0007
 2768TIP3    H129795   3.634   2.147  16.590  0.2042 -0.4895 -0.9626
 2768TIP3    H229796   3.489   2.121  16.624  0.7726  0.2356  2.3355
 2769TIP3   OH229797   0.920   4.283   2.551 -0.2718 -0.8539  0.9562
 2769TIP3    H129798   0.947   4.316   2.636  0.8102  0.0422  0.2971
 2769TIP3    H229799   0.836   4.326   2.534  0.8245  1.1878  0.3811
 2770TIP3   OH229800   6.662   1.456  16.723 -0.0737  0.0909  0.3383
 2770TIP3    H129801   6.740   1.510  16.715  0.7811 -1.3080 -1.6554
 2770TIP3    H229802   6.599   1.495  16.662  0.8032 -1.4480 -1.6754
 2771TIP3   OH229803   3.261   2.382  12.089  0.2789  0.5462 -0.2965
 2771TIP3    H129804   3.238   2.408  12.000 -0.7687  0.5902 -0.0276
 2771TIP3    H229805   3.181   2.394  12.139  0.5536 -0.4776  0.4341
 2772TIP3   OH229806   3.776   6.450   2.277 -0.3993  0.0838 -0.2851
 2772TIP3    H129807   3.828   6.480   2.203 -0.5935  1.0207 -0.0598
 2772TIP3    H229808   3.690   6.430   2.239 -0.2205 -0.3578 -0.4642
 2773TIP3   OH229809   3.441   2.837  14.991 -0.1739  0.3567 -0.2019
 2773TIP3    H129810   3.490   2.839  14.909 -2.2553  1.1069 -1.5158
 2773TIP3    H229811   3.436   2.928  15.018  0.3125  0.1359  0.6648
 2774TIP3   OH229812   5.850   0.450   5.274 -0.1588 -0.0834 -0.1926
 2774TIP3    H129813   5.790   0.524   5.277  1.2969  1.1198 -0.1188
 2774TIP3    H229814   5.929   0.484   5.233  0.5030 -1.6343 -0.2779
 2775TIP3   OH229815   4.427   4.714  14.645  0.2019 -0.1079  1.1081
 2775TIP3    H129816   4.483   4.777  14.689 -1.2393  3.0585 -1.2206
 2775TIP3    H229817   4.466   4.702  14.558  0.4712 -2.5981  1.4834
 2776TIP3   OH229818   5.814   0.848  13.423  0.6595 -0.1973 -0.0500
 2776TIP3    H129819   5.732   0.798  13.422 -0.0434  0.9319 -0.1926
 2776TIP3    H229820   5.806   0.910  13.350  0.5973  1.5276  1.3612
 2777TIP3   OH229821   4.785   0.780  15.009 -0.0351  0.0471 -0.7342
 2777TIP3    H129822   4.834   0.708  15.049  0.5863  0.3001 -1.0427
 2777TIP3    H229823   4.751   0.830  15.083 -4.2393 -2.9577 -0.2668
 2778TIP3   OH229824   5.766   6.301   1.316 -0.0706 -0.0914  0.5068
 2778TIP3    H129825   5.689   6.342   1.278  0.3110  0.3582  0.2030
 2778TIP3    H229826   5.748   6.298   1.410 -0.2315  0.4902  0.4949
 2779TIP3   OH229827   4.880   1.119  16.864 -0.0691 -0.2603  0.5309
 2779TIP3    H129828   4.830   1.037  16.867 -0.2438 -0.2762 -1.6108
 2779TIP3    H229829   4.819   1.183  16.829  1.6056 -0.5692 -3.5157
 2780TIP3   OH229830   5.815   4.821  12.996  0.5357  0.4282  0.1559
 2780TIP3    H129831   5.738   4.873  13.020  0.2255 -0.5440  1.3826
 2780TIP3    H229832   5.818   4.824  12.901 -1.2039  0.2361  0.0682
 2781TIP3   OH229833   0.704   4.981  10.973  0.7098  0.1250 -0.5333
 2781TIP3    H129834   0.656   4.978  11.056  0.0248  1.3876 -0.8595
 2781TIP3    H229835   0.685   4.898  10.930  0.0477 -0.0153  0.0205
 2782TIP3   OH229836   1.181   3.077   4.763 -0.6733 -0.0694 -0.2174
 2782TIP3    H129837   1.097   3.122   4.769 -0.9909 -0.3625 -2.0612
 2782TIP3    H229838   1.246   3.144   4.782 -1.2718  0.3714  0.3162
 2783TIP3   OH229839   4.991   2.967  12.247 -0.1987  0.1741  0.1880
 2783TIP3    H129840   4.934   2.903  12.204  0.7649 -0.4330 -0.2300
 2783TIP3    H229841   4.972   3.049  12.203 -1.6310  0.2418  0.8968
 2784TIP3   OH229842   1.235   3.694   0.920 -0.1871  0.4539  0.2036
 2784TIP3    H129843   1.186   3.627   0.967 -0.0455  0.1311 -0.1101
 2784TIP3    H229844   1.286   3.646   0.855  0.0655  0.8462  0.1084
 2785TIP3   OH229845   4.315   3.184  16.186 -0.1102 -0.0188 -0.0796
 2785TIP3    H129846   4.263   3.250  16.140  0.0006 -0.3820 -0.7458
 2785TIP3    H229847   4.322   3.112  16.123  0.7613 -0.1869  0.1972
 2786TIP3   OH229848   3.484   2.878  16.863 -0.2382  0.4259 -0.6385
 2786TIP3    H129849   3.431   2.902  16.938 -0.2895 -1.1240 -0.1423
 2786TIP3    H229850   3.568   2.851  16.900 -0.3420 -0.5685 -1.0976
 2787TIP3   OH229851   0.120   4.412   1.238  0.0611  0.0082  0.2646
 2787TIP3    H129852   0.042   4.391   1.186 -0.8303 -0.0321  1.5531
 2787TIP3    H229853   0.090   4.481   1.298  1.2018  0.4503  0.3429
 2788TIP3   OH229854   3.507   2.715   1.071 -0.1714 -0.0469 -0.3337
 2788TIP3    H129855   3.424   2.758   1.093  0.1151  1.0931 -1.3417
 2788TIP3    H229856   3.570   2.754   1.132 -0.3255 -0.7614  0.2941
 2789TIP3   OH229857   5.130   4.401   6.144  0.3446  0.0008 -0.0443
 2789TIP3    H129858   5.109   4.309   6.159  0.8156 -0.1197 -0.1047
 2789TIP3    H229859   5.109   4.416   6.052 -1.7965  0.5347  0.4783
 2790TIP3   OH229860   3.275   1.476   1.362 -0.0925  0.5447 -0.5347
 2790TIP3    H129861   3.288   1.565   1.395 -0.5141 -0.1672  1.7458
 2790TIP3    H229862   3.212   1.486   1.291 -0.4692  2.0225 -0.0358
 2791TIP3   OH229863   0.856   5.077  12.041 -0.5889  0.1660 -0.2585
 2791TIP3    H129864   0.843   4.983  12.026  0.0192  0.1114 -0.4354
 2791TIP3    H229865   0.950   5.087  12.054 -0.8794  0.4127  2.1629
 2792TIP3   OH229866   0.335   3.951  16.356  0.3562 -0.5575 -0.1785
 2792TIP3    H129867   0.369   3.991  16.276 -1.0287  0.3589 -0.3406
 2792TIP3    H229868   0.334   3.857  16.337 -2.1418 -0.2547 -2.2121
 2793TIP3   OH229869   4.493   0.266   4.003 -0.2426 -0.5939 -0.4936
 2793TIP3    H129870   4.536   0.183   3.982  0.3594 -0.4074 -0.0211
 2793TIP3    H229871   4.478   0.263   4.097 -0.0088 -0.0757 -0.4343
 2794TIP3   OH229872   2.925   5.217  12.377 -0.0195  0.4061 -0.4710
 2794TIP3    H129873   2.922   5.258  12.290  2.0117  1.4449 -0.1370
 2794TIP3    H229874   2.879   5.134  12.367 -0.2201  0.7088 -2.4319
 2795TIP3   OH229875   1.970   2.595  17.068 -0.3525 -0.3698 -1.0196
 2795TIP3    H129876   2.062   2.570  17.067  0.0797  0.8022  1.5287
 2795TIP3    H229877   1.961   2.659  16.997  1.1014  0.3590 -0.5777
 2796TIP3   OH229878   5.944   4.157  11.586 -0.3216  0.5071  0.0887
 2796TIP3    H129879   5.935   4.086  11.649 -0.1842  0.2273 -0.2032
 2796TIP3    H229880   5.862   4.205  11.591 -0.6675 -0.0416 -0.1581
 2797TIP3   OH229881   1.457   3.937   1.092  0.3258  0.4283 -0.2672
 2797TIP3    H129882   1.476   3.901   1.005 -0.7089  0.4472 -0.5124
 2797TIP3    H229883   1.400   4.013   1.075 -0.5583 -0.0479  0.4624
 2798TIP3   OH229884   0.100   0.114  16.967 -0.8248  0.0198  0.4581
 2798TIP3    H129885   0.101   0.056  16.890 -0.9552  0.4560  0.1244
 2798TIP3    H229886   0.189   0.110  17.001 -0.3132  1.0908 -0.6775
 2799TIP3   OH229887   0.898   0.181  14.151  0.2308  0.6064 -0.1103
 2799TIP3    H129888   0.883   0.257  14.207 -0.3086  0.3932  0.0475
 2799TIP3    H229889   0.837   0.115  14.184 -0.0067  0.4328 -0.8667
 2800TIP3   OH229890   5.387   1.305   4.194  0.0845  0.5466 -0.0164
 2800TIP3    H129891   5.418   1.332   4.107  2.1759  1.6180  0.9744
 2800TIP3    H229892   5.395   1.384   4.247  1.8684 -0.7894  1.8764
 2801TIP3   OH229893   2.822   0.043   5.932  0.2357 -0.1732 -0.4184
 2801TIP3    H129894   2.732   0.015   5.952 -0.3950  2.6189  1.0043
 2801TIP3    H229895   2.877  -0.007   5.992 -0.5423 -0.4348  0.0844
 2802TIP3   OH229896   0.930   5.788  10.706  0.3408  0.0509  0.5528
 2802TIP3    H129897   0.953   5.804  10.798 -1.6957 -0.4030  1.1869
 2802TIP3    H229898   0.905   5.874  10.672  2.3412  0.4720 -0.0250
 2803TIP3   OH229899   6.522   0.855  12.904  0.1603  0.1354  0.0457
 2803TIP3    H129900   6.453   0.868  12.840  0.7013 -1.1231 -0.8345
 2803TIP3    H229901   6.603   0.865  12.854  0.5881 -1.5268  0.3651
 2804TIP3   OH229902   2.002   0.568   4.981 -0.1283 -0.5862  0.0505
 2804TIP3    H129903   1.981   0.477   5.003  0.5660 -0.7784 -0.0432
 2804TIP3    H229904   1.930   0.596   4.924 -0.5914 -0.9210  0.4653
 2805TIP3   OH229905   1.946   6.315   4.812 -0.3774 -0.6984 -0.5695
 2805TIP3    H129906   1.881   6.276   4.870  1.2126 -1.0972  1.0453
 2805TIP3    H229907   1.965   6.401   4.850 -1.5055  0.3891 -2.2843
 2806TIP3   OH229908   4.279   4.614   2.189  0.0139  0.0136 -0.6466
 2806TIP3    H129909   4.265   4.659   2.105  0.1100 -0.0950 -0.7204
 2806TIP3    H229910   4.314   4.682   2.247 -2.7078  0.8607  0.1620
 2807TIP3   OH229911   0.933   3.944  16.893 -0.8812 -0.2017  0.0300
 2807TIP3    H129912   0.839   3.944  16.908 -1.2739 -0.5210 -2.0442
 2807TIP3    H229913   0.946   4.006  16.821  0.8552  1.7406  1.8582
 2808TIP3   OH229914   1.455   0.123   1.808  0.1127  0.4305  0.6564
 2808TIP3    H129915   1.521   0.072   1.762 -1.3910 -0.4956 -0.5155
 2808TIP3    H229916   1.503   0.163   1.881  2.0849  0.2575 -0.4785
 2809TIP3   OH229917   3.941   5.405  12.290  0.0571  0.6852 -0.4280
 2809TIP3    H129918   3.914   5.347  12.361  1.3125 -0.9684 -1.2385
 2809TIP3    H229919   4.032   5.380  12.273 -0.0521  1.4207 -2.2531
 2810TIP3   OH229920   6.281   1.242   4.105 -0.4989 -0.5915  0.1567
 2810TIP3    H129921   6.263   1.233   4.012  2.0298  0.4576 -0.4983
 2810TIP3    H229922   6.311   1.332   4.116 -0.6046 -0.7254  1.9953
 2811TIP3   OH229923   4.289   1.723  11.820  0.3924 -0.1735  0.0963
 2811TIP3    H129924   4.262   1.795  11.763  0.3787 -0.1733  0.1031
 2811TIP3    H229925   4.289   1.646  11.762 -2.9848 -0.8869  0.7938
 2812TIP3   OH229926   5.929   5.637  16.981 -0.2166 -0.0959 -0.2756
 2812TIP3    H129927   5.888   5.689  16.912  0.2150  0.6991  0.0531
 2812TIP3    H229928   5.861   5.626  17.047 -0.2164  0.3461 -0.1981
 2813TIP3   OH229929   1.695   3.299  16.085  0.0486 -0.2410  0.6230
 2813TIP3    H129930   1.660   3.210  16.082  0.0577 -0.2532 -2.1246
 2813TIP3    H229931   1.711   3.321  15.993 -0.3716  2.7717  1.1689
 2814TIP3   OH229932   2.639   4.735  16.821 -0.1479 -0.1384 -0.0951
 2814TIP3    H129933   2.675   4.726  16.732  0.6840  1.4769  0.0371
 2814TIP3    H229934   2.684   4.812  16.857 -3.8564  2.2208  0.0473
 2815TIP3   OH229935   5.004   2.403   5.736 -0.2347 -0.0290 -0.5454
 2815TIP3    H129936   5.053   2.423   5.656  0.5038  1.5978  0.2637
 2815TIP3    H229937   4.918   2.440   5.722  0.0448  0.6818 -0.4143
 2816TIP3   OH229938   2.007   2.426  11.832  0.3200 -0.0842  0.4639
 2816TIP3    H129939   1.982   2.518  11.820 -1.8160 -0.4914  1.3356
 2816TIP3    H229940   2.099   2.423  11.809  0.1099  2.0178 -0.9288
 2817TIP3   OH229941   6.463   2.980  13.513  0.6013  0.2978  0.0969
 2817TIP3    H129942   6.483   3.074  13.507 -0.8375  0.6976  1.0631
 2817TIP3    H229943   6.368   2.975  13.506  0.6288 -1.0748  0.3953
 2818TIP3   OH229944   2.662   3.849   2.586  0.4377 -0.0133  0.6278
 2818TIP3    H129945   2.610   3.816   2.513 -1.0463  1.0329  1.1486
 2818TIP3    H229946   2.732   3.785   2.597 -1.4545 -2.2105  0.6960
 2819TIP3   OH229947   4.102   4.703   5.649  0.4514 -0.3843  0.0342
 2819TIP3    H129948   4.108   4.745   5.563  0.4819 -3.1192 -1.4118
 2819TIP3    H229949   4.009   4.695   5.666  0.4447  0.3774  0.4144
 2820TIP3   OH229950   2.304   4.730   4.020 -0.3818 -0.4506  0.6429
 2820TIP3    H129951   2.378   4.757   4.074 -0.1307  0.4057 -0.0859
 2820TIP3    H229952   2.227   4.742   4.075  0.0457 -1.8349  1.5822
 2821TIP3   OH229953   4.631   3.609  16.072 -0.4150  0.1962  0.0376
 2821TIP3    H129954   4.661   3.551  16.142 -1.0271 -0.7928 -0.4951
 2821TIP3    H229955   4.710   3.628  16.022 -0.2900 -0.6565 -0.1125
 2822TIP3   OH229956   0.877   3.053   4.155 -0.2464 -0.2389 -0.1784
 2822TIP3    H129957   0.895   3.079   4.065  1.2843 -0.5282  0.0193
 2822TIP3    H229958   0.854   2.960   4.150  1.3867 -0.6676 -0.1252
 2823TIP3   OH229959   5.411   1.059  13.768  0.6347 -0.2120  0.0214
 2823TIP3    H129960   5.421   1.120  13.841  0.1078  0.3677 -0.3772
 2823TIP3    H229961   5.321   1.073  13.738  0.5516 -1.0890 -0.1693
 2824TIP3   OH229962   6.480   3.899  16.508 -0.0878 -0.1933  0.1078
 2824TIP3    H129963   6.402   3.847  16.526 -0.8345  0.4838 -1.0693
 2824TIP3    H229964   6.517   3.861  16.428  1.0894 -0.8239  0.9237
 2825TIP3   OH229965   6.688   5.728  14.975 -0.0890 -0.2631  0.3202
 2825TIP3    H129966   6.707   5.730  15.069 -1.6047 -0.9684  0.6722
 2825TIP3    H229967   6.611   5.672  14.968 -0.1464 -0.0049 -1.3277
 2826TIP3   OH229968   3.544   0.993   4.189 -0.8361 -0.0117 -0.1123
 2826TIP3    H129969   3.462   1.042   4.203 -0.6232  0.1719  0.5484
 2826TIP3    H229970   3.607   1.035   4.247 -1.3299 -2.7627  2.7059
 2827TIP3   OH229971   0.297   6.071   2.976 -0.3533  0.1258 -0.0543
 2827TIP3    H129972   0.380   6.028   2.999  0.2929  2.0234  1.4156
 2827TIP3    H229973   0.323   6.145   2.921 -1.2587 -0.1335 -0.8646
 2828TIP3   OH229974   6.710   1.292  17.412  0.2867  0.3068  0.2740
 2828TIP3    H129975   6.707   1.202  17.379  0.8398  0.1897  0.5415
 2828TIP3    H229976   6.803   1.314  17.414  0.1199  1.1169 -0.4031
 2829TIP3   OH229977   3.490   5.780   1.945  0.6441 -0.3426  0.1056
 2829TIP3    H129978   3.431   5.718   1.902  0.8000  1.0811 -2.3355
 2829TIP3    H229979   3.568   5.781   1.891  2.2466 -0.8221  2.2765
 2830TIP3   OH229980   6.149   5.418   0.086  0.1917  0.5839  0.1760
 2830TIP3    H129981   6.118   5.473   0.158  1.4660 -1.1504  2.1847
 2830TIP3    H229982   6.076   5.359   0.067  0.2765  0.1778  1.0296
 2831TIP3   OH229983   4.887   1.715  17.194 -0.1584 -0.2238  0.3834
 2831TIP3    H129984   4.812   1.757  17.153  0.4656 -0.3306 -0.9117
 2831TIP3    H229985   4.927   1.784  17.247 -0.0921  0.3479 -0.4012
 2832TIP3   OH229986   1.338   1.077  13.953 -0.2709 -0.4237 -1.0118
 2832TIP3    H129987   1.250   1.043  13.941  0.0169 -1.6291  0.1305
 2832TIP3    H229988   1.340   1.107  14.044  0.7060 -1.0734 -0.8096
 2833TIP3   OH229989   2.472   1.208   4.442  0.3495 -0.8960 -0.0147
 2833TIP3    H129990   2.431   1.141   4.497  0.9056 -0.8617  0.4479
 2833TIP3    H229991   2.421   1.288   4.460 -0.0656 -1.0974 -0.2717
 2834TIP3   OH229992   1.114   3.844  11.053 -0.1765 -0.3727 -0.1025
 2834TIP3    H129993   1.204   3.810  11.055  0.0472  0.1916 -0.2947
 2834TIP3    H229994   1.069   3.787  10.991  0.1650 -0.3875 -0.3437
 2835TIP3   OH229995   2.637   5.788   0.174  0.0270  0.3499 -0.8166
 2835TIP3    H129996   2.683   5.704   0.165 -0.3789  0.1454 -1.0008
 2835TIP3    H229997   2.615   5.813   0.085 -2.3434 -0.7508 -0.6061
 2836TIP3   OH229998   3.437   1.631   0.104 -0.6416  0.1231 -0.7117
 2836TIP3    H129999   3.396   1.564   0.159 -0.0483  0.0544 -0.3467
 2836TIP3    H230000   3.468   1.583   0.027 -2.3727  0.3766 -1.6232
 2837TIP3   OH230001   2.497   2.996  12.292 -0.3343  0.0270 -0.2310
 2837TIP3    H130002   2.425   3.023  12.349  0.5584  0.1525  0.8704
 2837TIP3    H230003   2.496   3.059  12.221  0.7578  2.1660  1.5087
 2838TIP3   OH230004   6.761   5.161   5.111  0.1545 -0.1261  0.1044
 2838TIP3    H130005   6.812   5.231   5.152  0.1972 -1.0112  1.6452
 2838TIP3    H230006   6.820   5.123   5.047  0.4112  0.7180 -0.1751
 2839TIP3   OH230007   1.597   2.881   4.410  0.1434 -0.1312 -0.2838
 2839TIP3    H130008   1.663   2.823   4.447  0.2791  0.3501  0.2510
 2839TIP3    H230009   1.570   2.936   4.484  0.0292  0.4867 -0.7767
 2840TIP3   OH230010   3.112   6.745  11.098  0.4814 -0.1344  0.0852
 2840TIP3    H130011   3.153   6.677  11.044  0.6718  1.0051 -1.2691
 2840TIP3    H230012   3.031   6.704  11.130 -0.2466 -0.5005 -2.0486
 2841TIP3   OH230013   0.375   0.790  12.806 -0.0128 -0.0591 -0.5336
 2841TIP3    H130014   0.346   0.717  12.860 -0.3739  0.0489 -0.5751
 2841TIP3    H230015   0.464   0.808  12.834 -0.3029  0.2054  0.2470
 2842TIP3   OH230016   2.691   4.602  17.135  0.0247 -0.0818  0.5507
 2842TIP3    H130017   2.706   4.642  17.221 -0.9162  0.5854  0.4141
 2842TIP3    H230018   2.775   4.608  17.090  0.0115  1.3776  0.6903
 2843TIP3   OH230019   1.223   6.779   2.351  0.1013  0.3791 -0.2588
 2843TIP3    H130020   1.239   6.687   2.330 -1.9497  0.1929 -1.2957
 2843TIP3    H230021   1.221   6.782   2.446 -0.9341 -0.9105 -0.2110
 2844TIP3   OH230022   3.676   1.395   4.780 -0.1422 -0.0821  0.3728
 2844TIP3    H130023   3.587   1.426   4.764 -0.3398 -1.6249 -1.9395
 2844TIP3    H230024   3.672   1.353   4.866 -1.7126 -0.3596  0.1913
 2845TIP3   OH230025   4.935   0.367  10.864 -0.3766  0.4696  0.5607
 2845TIP3    H130026   5.030   0.374  10.863 -0.3259 -0.1824 -0.0442
 2845TIP3    H230027   4.917   0.282  10.823 -1.3032  1.7249 -1.8758
 2846TIP3   OH230028   5.075   2.166  12.599  0.0059 -0.5245 -0.2713
 2846TIP3    H130029   5.069   2.100  12.530 -0.8731  1.0427 -1.7516
 2846TIP3    H230030   4.994   2.217  12.592  1.0694  1.3185  0.1808
 2847TIP3   OH230031   4.121   3.766  11.422 -0.1714 -1.0697  1.0109
 2847TIP3    H130032   4.108   3.725  11.507 -1.9760 -1.4141  0.5991
 2847TIP3    H230033   4.061   3.840  11.421  0.8135 -0.2457  0.5329
 2848TIP3   OH230034   0.701   6.009  11.328  0.0385 -0.2661  0.1643
 2848TIP3    H130035   0.747   6.062  11.393  0.0902  0.7115 -0.6475
 2848TIP3    H230036   0.614   6.048  11.322  0.3760  0.3428 -1.1182
 2849TIP3   OH230037   3.616   0.084  14.694 -0.4817  0.0929 -0.2158
 2849TIP3    H130038   3.665   0.005  14.672  2.3531  2.2568 -2.5090
 2849TIP3    H230039   3.534   0.076  14.645  0.3852 -0.8130 -1.5628
 2850TIP3   OH230040   3.203   6.077   3.960 -0.4351 -0.6707 -0.8926
 2850TIP3    H130041   3.162   6.097   3.876 -0.1406  2.6116 -0.3741
 2850TIP3    H230042   3.136   6.098   4.025  0.5636  0.5278 -0.2082
 2851TIP3   OH230043   2.223   1.366   0.422 -0.2229  0.0016  0.3178
 2851TIP3    H130044   2.309   1.409   0.418 -0.5592  0.6704  0.1502
 2851TIP3    H230045   2.236   1.283   0.376 -0.0893  0.8552 -1.2731
 2852TIP3   OH230046   5.891   6.509  11.617  0.4386 -0.2271  0.0899
 2852TIP3    H130047   5.841   6.575  11.570 -0.0523  1.6352  2.9797
 2852TIP3    H230048   5.981   6.541  11.617  0.7734 -1.0935 -0.9387
 2853TIP3   OH230049   3.368   0.011  17.318 -0.1968  0.0993  0.5575
 2853TIP3    H130050   3.319  -0.021  17.394 -0.2543 -0.8405  0.1398
 2853TIP3    H230051   3.302   0.054  17.264 -0.4882 -0.7116  0.2450
 2854TIP3   OH230052   5.309   3.034  13.692  0.1250  1.0680  0.3914
 2854TIP3    H130053   5.313   2.994  13.779  1.1203 -0.0237 -0.1202
 2854TIP3    H230054   5.401   3.046  13.668  0.2361 -3.4048 -2.5528
 2855TIP3   OH230055   6.479   0.527  10.775 -0.2283 -0.5691 -0.4444
 2855TIP3    H130056   6.484   0.621  10.796 -1.8218 -0.6662  0.5643
 2855TIP3    H230057   6.509   0.483  10.855 -0.8069 -0.9134 -0.4111
 2856TIP3   OH230058   6.561   5.534   0.862 -0.6162 -0.0271 -0.4489
 2856TIP3    H130059   6.571   5.574   0.775 -0.1408  0.2341 -0.2739
 2856TIP3    H230060   6.490   5.583   0.903 -1.3263 -0.6133 -0.9565
 2857TIP3   OH230061   2.091   4.747   1.406 -0.6511  0.1932  0.1469
 2857TIP3    H130062   2.035   4.819   1.433  0.0999  0.6177  0.6003
 2857TIP3    H230063   2.137   4.721   1.486 -2.2542 -2.0330  0.4330
 2858TIP3   OH230064   6.687   5.462   5.269  0.2266 -0.5018 -0.4008
 2858TIP3    H130065   6.755   5.508   5.316  0.5504 -1.4988  0.1422
 2858TIP3    H230066   6.612   5.462   5.328 -0.0503  0.0635 -0.7469
 2859TIP3   OH230067   3.167   0.147  17.202  0.5506 -0.5837  0.0406
 2859TIP3    H130068   3.122   0.206  17.142  2.5620 -0.0623 -1.0388
 2859TIP3    H230069   3.160   0.190  17.287  1.2411  0.8141 -0.5782
 2860TIP3   OH230070   3.435   6.726  14.292  0.2703 -0.2515 -0.1333
 2860TIP3    H130071   3.470   6.771  14.215 -1.2874  1.2571 -0.0052
 2860TIP3    H230072   3.432   6.634  14.266  3.2421 -0.3449 -0.5021
 2861TIP3   OH230073   1.192   1.125   4.464  0.3600 -0.4161  0.1815
 2861TIP3    H130074   1.166   1.050   4.411 -1.3349 -0.6214  1.2340
 2861TIP3    H230075   1.135   1.121   4.541  0.7153  1.5355  0.6008
 2862TIP3   OH230076   2.778   4.642  16.409 -0.1774  0.2014 -0.3089
 2862TIP3    H130077   2.788   4.620  16.317  0.9949  0.7737 -0.3473
 2862TIP3    H230078   2.819   4.569  16.456  0.6130  0.6179 -0.3185
 2863TIP3   OH230079   5.848   2.891   2.910 -0.2606  0.1504 -0.3526
 2863TIP3    H130080   5.791   2.815   2.902 -1.3539  1.1075 -2.1861
 2863TIP3    H230081   5.816   2.952   2.845  2.0449  1.2748 -0.5325
 2864TIP3   OH230082   5.667   3.134   0.873 -0.1914  0.0053 -0.4011
 2864TIP3    H130083   5.737   3.072   0.892 -1.5192 -1.7160 -0.8010
 2864TIP3    H230084   5.678   3.204   0.937  2.3008  0.1857 -0.9207
 2865TIP3   OH230085   0.086   4.649  14.706  0.3343  0.5478 -0.0823
 2865TIP3    H130086   0.122   4.574  14.753  0.7016 -0.4694 -1.8770
 2865TIP3    H230087  -0.003   4.623  14.683  0.4031  0.7187 -0.5608
 2866TIP3   OH230088   5.477   6.140   3.283  0.0765  0.3897  0.3252
 2866TIP3    H130089   5.503   6.218   3.234 -1.9667  1.5157  0.9378
 2866TIP3    H230090   5.534   6.139   3.360  0.1494  1.2579  0.2850
 2867TIP3   OH230091   0.689   4.806   2.289 -0.2212  0.2339  0.5289
 2867TIP3    H130092   0.680   4.754   2.209 -0.1329  0.4099  0.4042
 2867TIP3    H230093   0.638   4.759   2.354 -0.6095  0.2959  0.2698
 2868TIP3   OH230094   3.466   1.628   6.670  0.9134 -0.5618  0.6224
 2868TIP3    H130095   3.518   1.666   6.741  0.8413 -2.2495  1.6274
 2868TIP3    H230096   3.395   1.581   6.714 -1.0952  1.0569 -0.6966
 2869TIP3   OH230097   5.763   4.152  15.545 -0.1649 -0.2845 -0.0537
 2869TIP3    H130098   5.723   4.079  15.592 -2.3102  0.2605 -0.9079
 2869TIP3    H230099   5.736   4.229  15.593 -0.3775  0.1227 -0.8107
 2870TIP3   OH230100   0.017   5.978   4.593  0.0275  0.2427 -0.2409
 2870TIP3    H130101   0.041   6.020   4.511 -2.3060  0.7406 -0.7495
 2870TIP3    H230102  -0.065   5.932   4.573 -0.2851 -0.1155  1.6572
 2871TIP3   OH230103   0.761   2.102   2.693 -0.2116  0.0470  0.4554
 2871TIP3    H130104   0.757   2.007   2.706 -0.1587  0.1796  1.5140
 2871TIP3    H230105   0.684   2.122   2.641  0.1244 -0.6618 -0.3318
 2872TIP3   OH230106   5.849   4.808  16.055  0.3941  0.1234  0.3067
 2872TIP3    H130107   5.802   4.769  16.128 -0.1888 -0.6709 -0.4739
 2872TIP3    H230108   5.938   4.821  16.088  0.6396 -1.9414  0.5869
 2873TIP3   OH230109   5.320   1.951   1.250 -0.3827 -1.2278  0.4089
 2873TIP3    H130110   5.324   1.887   1.179  0.3261  1.1416 -1.8260
 2873TIP3    H230111   5.405   1.995   1.249 -1.2810  0.6640  0.9127
 2874TIP3   OH230112   2.869   0.852   2.400 -0.9907  0.2029  0.3101
 2874TIP3    H130113   2.937   0.901   2.353 -0.7471  0.3832  0.8413
 2874TIP3    H230114   2.821   0.806   2.332 -0.5884  0.3961 -0.1083
 2875TIP3   OH230115   6.416   1.367  12.068 -0.1492 -0.5693 -0.6567
 2875TIP3    H130116   6.365   1.298  12.112 -0.2168  0.1011  0.3531
 2875TIP3    H230117   6.400   1.353  11.975 -0.8304 -1.4084 -0.4272
 2876TIP3   OH230118   6.359   6.531   4.784  0.2081 -0.1661 -0.1012
 2876TIP3    H130119   6.364   6.442   4.748  1.3392  0.2310 -0.9919
 2876TIP3    H230120   6.267   6.542   4.807  0.4207 -2.3667  2.1761
 2877TIP3   OH230121   5.878   3.324   1.862 -0.8232 -0.1324 -0.2144
 2877TIP3    H130122   5.867   3.417   1.884 -2.7963 -0.6084  1.0291
 2877TIP3    H230123   5.971   3.307   1.880 -0.5125  1.4908 -0.0895
 2878TIP3   OH230124   3.357   4.395   0.420  0.1585  0.0978 -0.2808
 2878TIP3    H130125   3.434   4.423   0.370 -0.3602 -0.1125 -1.2225
 2878TIP3    H230126   3.392   4.337   0.487  0.8537  0.1974 -0.5474
 2879TIP3   OH230127   6.297   6.076   4.367 -0.0221  0.5540  0.1786
 2879TIP3    H130128   6.319   6.120   4.285  0.7059 -0.3576 -0.1302
 2879TIP3    H230129   6.202   6.061   4.362  0.1652 -0.3567 -0.9409
 2880TIP3   OH230130   2.953   6.310  13.300  0.1057 -0.2472 -0.4194
 2880TIP3    H130131   3.024   6.261  13.342  0.8052  0.4470 -0.7584
 2880TIP3    H230132   2.998   6.364  13.234 -0.6501  0.7448 -0.1436
 2881TIP3   OH230133   2.086   5.491  10.906 -0.1256 -0.2321  0.4272
 2881TIP3    H130134   2.061   5.399  10.913 -1.6174  0.0516 -0.6872
 2881TIP3    H230135   2.176   5.489  10.874 -0.2217 -1.3060  0.1979
 2882TIP3   OH230136   0.361   3.818   1.681 -0.2122 -0.0762 -0.2944
 2882TIP3    H130137   0.324   3.901   1.650 -1.0114 -0.4063 -0.2482
 2882TIP3    H230138   0.380   3.769   1.601  0.0714  0.0611 -0.3153
 2883TIP3   OH230139   0.585   0.932   4.651 -0.1308 -0.2008 -0.1838
 2883TIP3    H130140   0.507   0.968   4.692  0.5897  2.1725 -0.7415
 2883TIP3    H230141   0.655   0.993   4.674  0.9912 -0.7017 -2.0175
 2884TIP3   OH230142   0.935   3.488   3.635  0.2906 -0.3277  0.1803
 2884TIP3    H130143   0.857   3.433   3.627  0.5403 -0.5468 -0.8686
 2884TIP3    H230144   0.985   3.471   3.555  0.9494  0.5358  0.3913
 2885TIP3   OH230145   3.479   1.739  12.907  0.0565  0.1497 -0.5465
 2885TIP3    H130146   3.408   1.796  12.939  0.2368 -0.0253  0.1713
 2885TIP3    H230147   3.454   1.651  12.935  0.9060  0.1773  0.3461
 2886TIP3   OH230148   6.166   6.291  13.818 -0.8702  0.1054  0.6401
 2886TIP3    H130149   6.161   6.243  13.901 -1.0226  2.1861  1.9265
 2886TIP3    H230150   6.255   6.276  13.786 -0.9908 -1.1848  0.8816
 2887TIP3   OH230151   2.041   1.874  11.646 -0.3638  0.1291  0.2062
 2887TIP3    H130152   2.042   1.954  11.698  0.8550  0.1752  0.1241
 2887TIP3    H230153   1.951   1.869  11.613 -0.4912  1.3957  0.3044
 2888TIP3   OH230154   6.784   3.515  14.730 -0.1570  0.0523  0.3873
 2888TIP3    H130155   6.805   3.573  14.657 -0.0449  1.1348  1.2556
 2888TIP3    H230156   6.838   3.548  14.803  1.5692 -2.4636  0.3623
 2889TIP3   OH230157   6.229   2.135   0.488 -0.6036 -0.3856 -0.5087
 2889TIP3    H130158   6.262   2.083   0.562  3.1178  0.6759 -1.2453
 2889TIP3    H230159   6.217   2.071   0.417 -0.8055 -0.8822 -0.0392
 2890TIP3   OH230160   5.743   2.404  13.468  0.2743 -0.4618 -0.1924
 2890TIP3    H130161   5.747   2.477  13.407  1.1392  0.6551  1.1483
 2890TIP3    H230162   5.762   2.327  13.414 -1.5756  0.1343 -1.8059
 2891TIP3   OH230163   0.974   5.430   5.653  0.0541 -0.1820 -0.1115
 2891TIP3    H130164   1.026   5.496   5.609 -0.0438  1.1279  1.6313
 2891TIP3    H230165   1.038   5.368   5.689  0.1634 -0.8491 -1.4102
 2892TIP3   OH230166   4.354   4.825   2.338  0.5092 -0.4593 -0.2035
 2892TIP3    H130167   4.329   4.902   2.286 -1.9246 -0.2124  1.1458
 2892TIP3    H230168   4.328   4.848   2.428 -0.6050 -2.9225  0.1984
 2893TIP3   OH230169   4.098   6.767  12.429  0.1752  0.4269 -0.3968
 2893TIP3    H130170   4.099   6.747  12.336 -0.9414 -0.5087 -0.2341
 2893TIP3    H230171   4.189   6.785  12.452  0.6385 -0.5620 -1.4069
 2894TIP3   OH230172   6.689   0.494   4.443 -0.0307  0.1732 -0.4694
 2894TIP3    H130173   6.718   0.500   4.352  2.1271 -1.7186  0.0079
 2894TIP3    H230174   6.769   0.501   4.495 -0.7723 -1.8569  1.1136
 2895TIP3   OH230175   6.647   4.762  14.990  0.0501  0.0313 -0.0682
 2895TIP3    H130176   6.571   4.798  14.944 -0.4629  1.5168  1.7823
 2895TIP3    H230177   6.721   4.814  14.960  0.5270 -1.7844 -2.2988
 2896TIP3   OH230178   5.363   3.354  10.686 -0.1290  0.6784 -0.1766
 2896TIP3    H130179   5.289   3.357  10.624 -2.8720  0.9669  2.8651
 2896TIP3    H230180   5.368   3.443  10.722  1.6809  0.6250 -0.1928
 2897TIP3   OH230181   4.246   3.618   3.114 -0.2813 -0.3045  0.2575
 2897TIP3    H130182   4.331   3.663   3.114  0.5605 -1.8116  1.2184
 2897TIP3    H230183   4.226   3.606   3.207 -1.1728 -0.6765  0.0255
 2898TIP3   OH230184   2.892   3.255  13.312 -0.0607  0.5931 -0.2213
 2898TIP3    H130185   2.941   3.175  13.331 -0.3823  0.3034 -0.6223
 2898TIP3    H230186   2.859   3.244  13.223 -1.1844  0.6127  0.1719
 2899TIP3   OH230187   2.781   5.873  12.594 -0.0339 -0.0898 -0.0765
 2899TIP3    H130188   2.732   5.861  12.512  1.0911 -0.1103 -0.7713
 2899TIP3    H230189   2.826   5.789  12.607 -1.2046 -0.5364  1.2655
 2900TIP3   OH230190   0.005   2.120  13.977  0.3753  0.0696 -0.0025
 2900TIP3    H130191   0.070   2.053  13.997  0.6349  0.3105 -0.0389
 2900TIP3    H230192  -0.053   2.120  14.053  0.6553  0.1418  0.2104
 2901TIP3   OH230193   2.796   3.512  14.352  0.0413 -0.7168 -0.1170
 2901TIP3    H130194   2.721   3.491  14.297  0.6051 -0.8494 -0.8541
 2901TIP3    H230195   2.769   3.590  14.401 -0.2756 -0.2612 -0.9899
 2902TIP3   OH230196   4.480   5.414  11.060 -0.1049  0.1143  0.1226
 2902TIP3    H130197   4.439   5.501  11.057 -0.5807 -0.0968  0.3122
 2902TIP3    H230198   4.468   5.379  10.972 -0.3417  0.0492  0.1813
 2903TIP3   OH230199   0.349   3.284   1.140  0.5575  0.7056 -0.2731
 2903TIP3    H130200   0.305   3.199   1.137 -0.8031  1.3883 -0.3294
 2903TIP3    H230201   0.428   3.267   1.192  0.0627 -0.4781  0.1459
 2904TIP3   OH230202   2.791   4.797  12.607 -0.1845  0.1777  0.2958
 2904TIP3    H130203   2.801   4.702  12.617  0.9674  0.2069 -0.3553
 2904TIP3    H230204   2.863   4.834  12.657  0.0723  0.6540 -0.4142
 2905TIP3   OH230205   5.559   1.324   0.886  0.1786  0.4526 -0.3270
 2905TIP3    H130206   5.511   1.244   0.865  0.9363  0.1504 -0.9691
 2905TIP3    H230207   5.503   1.370   0.949  0.0932 -0.9395  0.6534
 2906TIP3   OH230208   5.720   6.745   3.459  0.3882  0.2830 -0.1034
 2906TIP3    H130209   5.756   6.673   3.511 -0.8420  0.1037  0.5370
 2906TIP3    H230210   5.787   6.763   3.393  0.1706 -2.3996 -1.1993
 2907TIP3   OH230211   5.128   2.121  17.163  0.4267  0.1388 -0.1235
 2907TIP3    H130212   5.160   2.117  17.073  1.1073 -2.7116  0.1543
 2907TIP3    H230213   5.204   2.149  17.214  1.0156 -1.4033 -0.1010
 2908TIP3   OH230214   6.775   1.412   3.669 -0.2833  0.0502 -0.2833
 2908TIP3    H130215   6.813   1.335   3.711  0.4621  0.9055  0.6658
 2908TIP3    H230216   6.849   1.473   3.659 -0.8653  0.6745 -0.9687
 2909TIP3   OH230217   0.013   0.722   0.936 -0.2302 -0.1824 -0.1471
 2909TIP3    H130218   0.031   0.695   1.026  1.4318  0.0226 -0.3973
 2909TIP3    H230219  -0.028   0.808   0.945 -1.0491 -0.6149  0.4374
 2910TIP3   OH230220   6.033   5.576  12.328 -0.5689 -0.3538 -0.3820
 2910TIP3    H130221   6.081   5.495  12.313  0.8593  0.0504  1.5852
 2910TIP3    H230222   6.052   5.598  12.419 -1.1597  2.0538 -0.7822
 2911TIP3   OH230223   1.568   4.946   2.579 -0.3522  0.2659  0.0811
 2911TIP3    H130224   1.558   5.040   2.590 -0.5154  0.1488  0.9782
 2911TIP3    H230225   1.534   4.908   2.660  3.2103 -0.3872  1.4759
 2912TIP3   OH230226   6.379   4.794   3.846  0.3582 -0.1380  0.0892
 2912TIP3    H130227   6.394   4.883   3.814 -1.5233  0.3787  0.5158
 2912TIP3    H230228   6.439   4.740   3.794  0.3488  1.1635 -1.3695
 2913TIP3   OH230229   1.456   0.890   2.711  0.1474 -0.3800  0.2088
 2913TIP3    H130230   1.516   0.912   2.782  0.8344 -0.6099 -0.2910
 2913TIP3    H230231   1.469   0.796   2.696 -0.0417 -0.3506 -0.1707
 2914TIP3   OH230232   3.847   3.063   5.893 -0.5128  0.1853  0.0062
 2914TIP3    H130233   3.827   3.025   5.978  0.2299 -0.0561  0.0826
 2914TIP3    H230234   3.939   3.091   5.900 -0.4792  0.2701 -0.6681
 2915TIP3   OH230235   5.095   4.820  12.524  0.2794 -0.1608 -0.1335
 2915TIP3    H130236   5.045   4.740  12.511  1.0218 -0.3385 -2.2068
 2915TIP3    H230237   5.061   4.880  12.458 -0.1951  1.2418  1.3209
 2916TIP3   OH230238   1.438   2.338   3.782  0.3236 -0.2050 -0.7388
 2916TIP3    H130239   1.371   2.338   3.850  0.0580  0.8617 -0.9860
 2916TIP3    H230240   1.489   2.258   3.799 -0.7289 -0.8026 -0.2884
 2917TIP3   OH230241   4.626   6.664   2.673  0.7082 -0.6841 -0.2396
 2917TIP3    H130242   4.718   6.641   2.669  1.2941  1.3859  0.3665
 2917TIP3    H230243   4.602   6.684   2.582  1.2106  0.0285 -0.2199
 2918TIP3   OH230244   2.306   3.602   4.794 -0.0362 -0.5211 -0.1749
 2918TIP3    H130245   2.354   3.624   4.714 -1.2335  0.4003 -0.6529
 2918TIP3    H230246   2.357   3.643   4.864  0.4044 -0.3930 -0.5628
 2919TIP3   OH230247   0.169   4.039  11.883 -0.1953 -0.5348 -0.6843
 2919TIP3    H130248   0.107   4.055  11.811  0.4453 -1.6292 -1.5070
 2919TIP3    H230249   0.188   3.945  11.878 -1.4317 -1.0113  1.9918
 2920TIP3   OH230250   6.346   4.103   5.664  0.0356 -0.1636 -0.0555
 2920TIP3    H130251   6.405   4.107   5.589 -0.2410  1.4463 -0.2206
 2920TIP3    H230252   6.265   4.065   5.630 -1.5692  4.1999 -1.6955
 2921TIP3   OH230253   2.732   0.665   6.390  0.3073  0.1693 -0.4841
 2921TIP3    H130254   2.671   0.689   6.460  1.5587  0.3485  0.6041
 2921TIP3    H230255   2.690   0.694   6.310 -2.4530 -2.5014 -0.1710
 2922TIP3   OH230256   6.082   3.659  11.537  0.0089  0.0060  0.5319
 2922TIP3    H130257   6.122   3.584  11.580  1.9432  0.9688  0.5277
 2922TIP3    H230258   6.139   3.733  11.560  0.0849  0.8829 -2.1221
 2923TIP3   OH230259   5.234   3.028   1.349  0.1443 -0.2708  0.2286
 2923TIP3    H130260   5.246   3.050   1.441 -0.3583  1.0625  0.0115
 2923TIP3    H230261   5.300   3.079   1.303 -1.7532  1.8313 -0.3912
 2924TIP3   OH230262   4.285   2.291   0.185  0.1529 -0.0406  0.7430
 2924TIP3    H130263   4.353   2.334   0.133  1.6904 -2.8241  0.2328
 2924TIP3    H230264   4.222   2.360   0.205  1.6255  2.0339 -1.2931
 2925TIP3   OH230265   4.503   1.077   4.049  0.2552  0.1932 -0.6653
 2925TIP3    H130266   4.562   1.151   4.039 -0.7105  0.9412 -1.0029
 2925TIP3    H230267   4.483   1.051   3.959 -2.3820  1.9904 -0.7169
 2926TIP3   OH230268   5.220   4.567  14.930  0.8112 -0.0338 -0.1771
 2926TIP3    H130269   5.172   4.542  15.009 -0.1344 -1.0578 -1.0407
 2926TIP3    H230270   5.157   4.617  14.879  1.8731  1.9102  0.3383
 2927TIP3   OH230271   0.263   4.114   5.637  0.0598  0.0634  0.0608
 2927TIP3    H130272   0.224   4.080   5.557 -2.4044  0.6203  0.9356
 2927TIP3    H230273   0.192   4.162   5.680  1.0884 -0.7219  2.8656
 2928TIP3   OH230274   4.235   6.384  13.695  0.0129 -0.0183 -0.3746
 2928TIP3    H130275   4.328   6.406  13.692  0.2117 -0.0022  2.6312
 2928TIP3    H230276   4.192   6.452  13.642  1.6145  0.6124 -0.9065
 2929TIP3   OH230277   0.114   5.301   0.017  0.1092  0.3474 -0.1908
 2929TIP3    H130278   0.177   5.231   0.001  0.7177  0.9260 -0.3999
 2929TIP3    H230279   0.050   5.293  -0.054  0.7341  0.6085 -0.7996
 2930TIP3   OH230280   4.949   4.567   3.952 -0.0757  0.2539 -0.0803
 2930TIP3    H130281   4.867   4.521   3.936 -0.4842  0.9432 -0.0120
 2930TIP3    H230282   4.991   4.517   4.023 -1.3318  0.9697  1.2326
 2931TIP3   OH230283   4.057   0.294   3.573 -0.8850  0.0757  0.2063
 2931TIP3    H130284   3.976   0.317   3.527 -0.2971 -0.6115 -1.2549
 2931TIP3    H230285   4.113   0.371   3.563 -0.9548  0.1267  0.2127
 2932TIP3   OH230286   1.902   2.245   2.070 -0.4488  0.0901 -0.3028
 2932TIP3    H130287   1.931   2.155   2.055  2.2605  0.6052  1.0859
 2932TIP3    H230288   1.840   2.239   2.143 -0.3930 -0.6665 -0.3113
 2933TIP3   OH230289   4.211   3.293  17.264  0.3066 -0.2629  0.5702
 2933TIP3    H130290   4.168   3.219  17.306 -0.6857 -0.8581 -1.3952
 2933TIP3    H230291   4.140   3.340  17.219  1.5031 -0.7955 -2.0585
 2934TIP3   OH230292   1.111   2.750   0.585  0.2329 -0.2860 -1.0230
 2934TIP3    H130293   1.075   2.678   0.636  0.9981 -0.5205 -0.7926
 2934TIP3    H230294   1.170   2.795   0.646 -0.5651  0.8110 -1.0248
 2935TIP3   OH230295   2.272   4.179  16.765  0.5025  0.0585  0.3103
 2935TIP3    H130296   2.266   4.155  16.858  0.1411  2.1526  0.8819
 2935TIP3    H230297   2.365   4.189  16.749  0.5313  0.2815  0.6104
 2936TIP3   OH230298   5.364   1.008   6.429 -1.1674  0.0638  0.3476
 2936TIP3    H130299   5.343   1.083   6.485 -1.8736 -1.0549  1.6597
 2936TIP3    H230300   5.285   0.995   6.376 -0.9708  0.3613 -0.0212
 2937TIP3   OH230301   3.596   1.484  17.339 -0.2085  0.5304  0.5128
 2937TIP3    H130302   3.577   1.505  17.248  1.0818  0.9211  0.3189
 2937TIP3    H230303   3.612   1.390  17.339  2.0891  0.8574 -0.1308
 2938TIP3   OH230304   5.606   0.979   0.178  0.0417 -0.4349  0.2814
 2938TIP3    H130305   5.694   1.012   0.200 -0.1778  0.5155 -0.1966
 2938TIP3    H230306   5.551   1.057   0.179 -0.6653 -0.9200 -0.1117
 2939TIP3   OH230307   1.369   0.559  13.977 -0.2378 -0.9465  0.2252
 2939TIP3    H130308   1.427   0.566  14.053  2.5031 -0.5146 -1.7467
 2939TIP3    H230309   1.333   0.647  13.967  1.1000 -0.4066 -0.1570
 2940TIP3   OH230310   0.265   1.714  17.145  0.6398 -0.1993  0.2266
 2940TIP3    H130311   0.266   1.640  17.207 -0.3852  1.3935  2.2977
 2940TIP3    H230312   0.179   1.709  17.104 -0.4536  1.1311  2.1782
 2941TIP3   OH230313   4.602   4.005  11.749 -0.3368 -0.6917 -0.1273
 2941TIP3    H130314   4.664   3.943  11.787 -0.9998  0.3447  2.8949
 2941TIP3    H230315   4.656   4.062  11.694  1.6560  0.6369  2.9596
 2942TIP3   OH230316   3.842   4.350  16.621  0.2049 -0.3451  0.4362
 2942TIP3    H130317   3.871   4.316  16.536  0.5194  1.5698 -0.2664
 2942TIP3    H230318   3.922   4.374  16.666 -0.0605  1.1538  0.1538
 2943TIP3   OH230319   2.771   6.085   3.835  0.5140  0.8583  0.7881
 2943TIP3    H130320   2.750   6.008   3.888 -1.3098  2.6992  2.9570
 2943TIP3    H230321   2.726   6.070   3.752 -0.6166 -0.0098  1.5285
 2944TIP3   OH230322   4.386   6.679  12.462  0.4573  0.3057 -0.1117
 2944TIP3    H130323   4.468   6.722  12.484  0.4317  0.9412 -1.1957
 2944TIP3    H230324   4.411   6.607  12.404  0.1054  1.6652 -2.0110
 2945TIP3   OH230325   3.454   5.248  12.761  0.1150  0.2938  0.0309
 2945TIP3    H130326   3.498   5.217  12.682  0.9220 -0.1306  0.6319
 2945TIP3    H230327   3.492   5.334  12.778 -0.8908  0.8998 -0.6734
 2946TIP3   OH230328   3.978   5.733   6.308  0.1544 -0.5302  0.0826
 2946TIP3    H130329   3.907   5.795   6.322  0.1284 -0.1709 -1.4949
 2946TIP3    H230330   4.005   5.706   6.397 -1.2703  0.0726  0.7175
 2947TIP3   OH230331   6.739   1.233   1.231  0.2410  0.8305  0.0444
 2947TIP3    H130332   6.808   1.263   1.172 -0.1897  1.0158 -0.3713
 2947TIP3    H230333   6.659   1.237   1.179  0.3709 -2.9939 -0.7387
 2948TIP3   OH230334   3.578   2.038  14.588  0.7211  0.2015  0.2436
 2948TIP3    H130335   3.554   1.948  14.570 -1.0227  1.0517 -2.2974
 2948TIP3    H230336   3.650   2.056  14.528  2.4135  0.0087  2.1235
 2949TIP3   OH230337   0.198   2.579   3.756 -0.0356 -0.3897  0.3331
 2949TIP3    H130338   0.126   2.602   3.697  0.0796 -0.5201  0.1370
 2949TIP3    H230339   0.161   2.585   3.844 -0.1448  0.0359  0.2561
 2950TIP3   OH230340   4.147   6.068  14.635  0.1408  0.3594 -0.0361
 2950TIP3    H130341   4.099   6.049  14.554 -2.5408  2.1952  0.9841
 2950TIP3    H230342   4.194   6.149  14.615  1.1717 -0.2955 -0.3539
 2951TIP3   OH230343   1.096   3.906  17.267  0.0072 -0.4242  0.2672
 2951TIP3    H130344   1.105   3.971  17.197 -0.3016  0.5295  1.0882
 2951TIP3    H230345   1.047   3.835  17.227  0.7750 -0.3837 -0.7975
 2952TIP3   OH230346   0.642   5.841   4.534 -0.3694  0.3141 -0.2700
 2952TIP3    H130347   0.583   5.775   4.498 -0.0927  0.1102 -0.3508
 2952TIP3    H230348   0.585   5.915   4.555 -0.7972 -0.2310  0.5404
 2953TIP3   OH230349   0.340   2.083   2.178 -0.3095  0.1954 -0.4351
 2953TIP3    H130350   0.316   2.040   2.096  1.5238  0.4266 -1.1474
 2953TIP3    H230351   0.436   2.077   2.181 -0.2528  1.2169  1.1282
 2954TIP3   OH230352   2.191   5.651   2.917  0.3347  0.2308 -0.1792
 2954TIP3    H130353   2.144   5.731   2.894  1.2408  0.9737  0.4417
 2954TIP3    H230354   2.127   5.581   2.909 -0.3737  0.9687 -1.1275
 2955TIP3   OH230355   1.083   1.053  16.054 -0.5556 -0.5831 -0.1489
 2955TIP3    H130356   1.122   1.063  15.967 -0.9172 -1.4394 -0.4238
 2955TIP3    H230357   1.121   0.971  16.087  0.9962  0.6564  1.2774
 2956TIP3   OH230358   0.711   0.869   0.453 -0.3320 -0.1409 -0.5231
 2956TIP3    H130359   0.657   0.917   0.390 -0.9674 -0.5758 -0.3194
 2956TIP3    H230360   0.679   0.779   0.449  0.6870 -0.5175 -0.7249
 2957TIP3   OH230361   0.074   0.083   1.821  0.2758 -0.3732 -0.0834
 2957TIP3    H130362   0.142   0.028   1.860  0.6713  0.4515  0.4176
 2957TIP3    H230363   0.114   0.170   1.815 -0.3024 -0.1575 -0.9532
 2958TIP3   OH230364   1.558   1.667   4.948 -0.4967  0.2418 -0.6190
 2958TIP3    H130365   1.521   1.739   4.999  2.2305  3.0163 -2.2714
 2958TIP3    H230366   1.613   1.620   5.010  0.5715  1.8776 -0.2567
 2959TIP3   OH230367   5.463   0.200  10.935 -0.7376 -0.2550  0.3115
 2959TIP3    H130368   5.493   0.137  10.869  0.2648 -0.6245  1.0913
 2959TIP3    H230369   5.533   0.266  10.938 -0.2336 -0.8133  1.7402
 2960TIP3   OH230370   1.008   2.470  14.588 -0.2495  0.2346 -0.1931
 2960TIP3    H130371   1.091   2.422  14.581  0.4540  1.5414 -1.5051
 2960TIP3    H230372   1.008   2.505  14.677 -0.4874 -1.6081  0.5810
 2961TIP3   OH230373   5.679   3.834  13.030 -0.5285  0.2025  0.1511
 2961TIP3    H130374   5.718   3.755  12.991  0.0168 -0.3645  1.7445
 2961TIP3    H230375   5.612   3.800  13.089  0.5324  0.8040  1.7814
 2962TIP3   OH230376   5.618   6.068  13.938  0.0334  0.2116 -0.0056
 2962TIP3    H130377   5.707   6.074  13.904  0.1660 -1.9984 -0.2227
 2962TIP3    H230378   5.581   6.155  13.926  1.5642  0.6852 -1.6317
 2963TIP3   OH230379   1.223   2.405   0.774 -0.1761  0.4990  0.1180
 2963TIP3    H130380   1.212   2.363   0.859 -1.2096  0.7100  0.1074
 2963TIP3    H230381   1.241   2.496   0.794  0.8906  0.2981  0.1213
 2964TIP3   OH230382   1.936   6.443  12.573  0.5734  0.0216 -0.5741
 2964TIP3    H130383   1.872   6.449  12.644  1.6436  0.1799  0.4019
 2964TIP3    H230384   2.011   6.492  12.605  1.8272 -1.5713 -0.9717
 2965TIP3   OH230385   3.178   0.858   4.955 -0.5800 -0.0799 -0.2574
 2965TIP3    H130386   3.230   0.907   4.892  0.2246 -1.4298 -0.7017
 2965TIP3    H230387   3.087   0.876   4.932 -0.2955  0.5879 -0.8693
 2966TIP3   OH230388   3.981   0.144  16.325 -0.6806  0.0310  0.3875
 2966TIP3    H130389   3.935   0.191  16.394 -0.6801 -1.2937  1.3391
 2966TIP3    H230390   3.971   0.198  16.247 -0.6716  1.5794  1.4286
 2967TIP3   OH230391   1.351   2.331   6.022  0.2320  0.0863  0.0938
 2967TIP3    H130392   1.444   2.352   6.012 -0.3205  3.8913  1.4747
 2967TIP3    H230393   1.339   2.322   6.117 -0.7766 -0.7200 -0.0920
 2968TIP3   OH230394   6.423   5.966  15.870  0.2714 -0.5532  0.1028
 2968TIP3    H130395   6.342   5.922  15.896 -0.0570 -0.1170 -0.1477
 2968TIP3    H230396   6.489   5.934  15.930 -0.2527 -0.3514  0.7974
 2969TIP3   OH230397   4.963   6.355   2.364 -0.4038  0.0826 -0.4964
 2969TIP3    H130398   4.869   6.334   2.363 -0.3934  0.0659 -1.3359
 2969TIP3    H230399   4.967   6.450   2.359 -0.3815  0.1066 -0.0497
 2970TIP3   OH230400   0.850   3.806   2.241  0.0641 -0.1258  0.0899
 2970TIP3    H130401   0.904   3.727   2.246 -0.4141 -0.8053 -3.1545
 2970TIP3    H230402   0.906   3.876   2.274  0.6081 -1.6921  2.7659
 2971TIP3   OH230403   4.959   5.098  15.482 -0.6679 -0.2537  0.1202
 2971TIP3    H130404   5.051   5.107  15.458 -0.7064  0.0692  0.0965
 2971TIP3    H230405   4.948   5.004  15.500 -0.3463 -0.2985  0.0819
 2972TIP3   OH230406   0.980   2.224   3.732 -0.0963 -0.2363  0.8006
 2972TIP3    H130407   1.024   2.141   3.749 -1.0408 -1.0893 -0.6730
 2972TIP3    H230408   1.043   2.274   3.680 -0.6798 -1.3559 -1.0916
 2973TIP3   OH230409   2.624   0.251   3.444 -0.2949 -0.0036 -1.0618
 2973TIP3    H130410   2.651   0.308   3.516 -0.2726 -1.9639  0.5557
 2973TIP3    H230411   2.705   0.230   3.398  0.1746 -1.0990  0.1832
 2974TIP3   OH230412   4.348   6.688   5.406  0.3566  0.2457  0.6684
 2974TIP3    H130413   4.293   6.695   5.328  0.8278  0.9791  0.3917
 2974TIP3    H230414   4.333   6.770   5.453  0.8135  0.2206  0.8565
 2975TIP3   OH230415   0.979   5.406  13.212 -0.4632 -0.1475 -0.3506
 2975TIP3    H130416   0.911   5.388  13.277  1.0882 -0.0560  1.3858
 2975TIP3    H230417   1.000   5.321  13.174  0.3395 -0.6107  1.0870
 2976TIP3   OH230418   3.491   6.070  11.592  0.6791 -0.3260  0.8587
 2976TIP3    H130419   3.535   5.986  11.579  0.1054 -0.6292  0.8451
 2976TIP3    H230420   3.398   6.049  11.592  0.4722  0.4873 -0.4078
 2977TIP3   OH230421   4.671   0.588  14.484  0.3610  0.3214 -0.8017
 2977TIP3    H130422   4.679   0.623  14.573  1.3540  2.1957 -1.5632
 2977TIP3    H230423   4.611   0.649  14.440 -0.5155 -0.8678 -1.3041
 2978TIP3   OH230424   3.765   3.242  10.465 -0.2773 -0.3397  0.2705
 2978TIP3    H130425   3.753   3.152  10.493  0.7631  0.0543  2.2036
 2978TIP3    H230426   3.857   3.261  10.485 -0.3593  1.0088 -0.5045
 2979TIP3   OH230427   6.065   3.176   0.844 -0.1950  0.0311  0.1673
 2979TIP3    H130428   6.120   3.251   0.820 -0.0910 -0.1795 -0.2547
 2979TIP3    H230429   6.125   3.116   0.888  0.1882 -0.7015 -1.2781
 2980TIP3   OH230430   2.384   4.805  12.228  0.1726  0.2445 -0.4504
 2980TIP3    H130431   2.308   4.807  12.170 -0.6370  0.9023  0.6067
 2980TIP3    H230432   2.426   4.890  12.216  1.6751 -0.6657 -2.1799
 2981TIP3   OH230433   2.282   4.165   6.650 -0.1415 -0.0541  0.1006
 2981TIP3    H130434   2.340   4.199   6.582  1.4387 -0.5313  1.1667
 2981TIP3    H230435   2.195   4.197   6.625  0.3887 -0.2217 -2.1146
 2982TIP3   OH230436   1.641   0.548   4.490  0.3619 -0.0758 -0.0827
 2982TIP3    H130437   1.719   0.581   4.534 -0.5699 -0.2666  1.7771
 2982TIP3    H230438   1.582   0.624   4.485  0.2779 -0.1670 -0.6336
 2983TIP3   OH230439   3.423   1.912  14.939  0.4292 -0.1165  0.0979
 2983TIP3    H130440   3.453   1.977  15.002  1.0055  1.1033 -1.3764
 2983TIP3    H230441   3.485   1.919  14.866  0.3207 -2.1203 -0.2349
 2984TIP3   OH230442   4.004   1.054  14.185  0.2123  0.3943 -0.1014
 2984TIP3    H130443   4.029   0.961  14.195 -2.2110 -0.2397  0.6959
 2984TIP3    H230444   4.046   1.081  14.104  1.9972 -1.0122  0.2609
 2985TIP3   OH230445   0.192   4.260   3.453 -0.2522 -0.2767  0.3883
 2985TIP3    H130446   0.168   4.181   3.500 -0.1402  0.5746  1.9339
 2985TIP3    H230447   0.201   4.232   3.362 -0.8346 -1.8946  0.7996
 2986TIP3   OH230448   6.008   1.480   0.400  0.0376 -0.5816 -0.4746
 2986TIP3    H130449   5.944   1.514   0.463 -0.1244  1.6880 -1.7428
 2986TIP3    H230450   6.072   1.435   0.454 -1.1866 -0.5506  1.1110
 2987TIP3   OH230451   3.543   0.478  12.944 -0.5243  0.8286 -0.4972
 2987TIP3    H130452   3.556   0.400  12.891  0.5843 -0.6907  1.8616
 2987TIP3    H230453   3.624   0.528  12.935  0.0434  0.0966  0.4918
 2988TIP3   OH230454   0.418   6.764  13.197  0.3739  0.5789 -0.5060
 2988TIP3    H130455   0.456   6.828  13.256  0.4991  0.4361 -0.4296
 2988TIP3    H230456   0.463   6.779  13.113 -0.3729  1.3050 -0.7800
 2989TIP3   OH230457   3.027   0.639  13.425  0.2041 -0.2677 -0.4387
 2989TIP3    H130458   2.933   0.646  13.407  0.2426 -0.5074 -0.7493
 2989TIP3    H230459   3.064   0.720  13.389 -0.3279  1.6406  2.9344
 2990TIP3   OH230460   1.521   1.405   0.990  0.3962  0.0820  1.1101
 2990TIP3    H130461   1.466   1.474   0.953  0.8830  0.4111  0.9762
 2990TIP3    H230462   1.464   1.330   1.000  0.0850  0.2164  0.3634
 2991TIP3   OH230463   3.956   4.013   0.876  0.6454  0.5031 -0.0641
 2991TIP3    H130464   4.019   3.972   0.816 -3.2215 -1.1255 -3.5390
 2991TIP3    H230465   3.938   3.946   0.942  1.6501  0.5309  0.2509
 2992TIP3   OH230466   0.812   5.577  13.920  0.1893 -0.0935  0.0420
 2992TIP3    H130467   0.868   5.504  13.948  0.9491  1.1321  1.9897
 2992TIP3    H230468   0.749   5.588  13.992  0.0804  1.1243 -0.2042
 2993TIP3   OH230469   2.511   5.445   4.207 -0.9216  0.7276 -0.1248
 2993TIP3    H130470   2.477   5.417   4.122  0.7451 -2.4996  0.1030
 2993TIP3    H230471   2.587   5.499   4.186  1.1220 -2.2118 -0.8969
 2994TIP3   OH230472   0.511   2.124  13.688  0.0046  0.1833  0.4164
 2994TIP3    H130473   0.591   2.078  13.663 -0.6973 -0.9903  0.2473
 2994TIP3    H230474   0.449   2.054  13.712 -1.0913  1.0380  0.1866
 2995TIP3   OH230475   2.208   5.284  15.409 -0.0068 -0.1198  0.3286
 2995TIP3    H130476   2.117   5.254  15.401 -0.8848  2.6158 -0.8522
 2995TIP3    H230477   2.217   5.306  15.502 -0.5290 -0.4580  0.4663
 2996TIP3   OH230478   5.046   1.961  12.947 -0.3099  0.1427 -0.4835
 2996TIP3    H130479   5.029   2.055  12.960  1.6022  0.2961  1.3883
 2996TIP3    H230480   5.133   1.958  12.907 -1.6200 -0.8102 -3.5552
 2997TIP3   OH230481   0.287   1.524  17.356  0.3436 -0.2319 -0.0533
 2997TIP3    H130482   0.369   1.520  17.406 -0.4697 -1.6681  1.2457
 2997TIP3    H230483   0.232   1.456  17.395 -0.9855 -0.2100 -1.7855
 2998TIP3   OH230484   5.325   1.692   1.674 -0.1947  0.3306  0.1804
 2998TIP3    H130485   5.334   1.597   1.663 -0.1263  0.1660  1.4474
 2998TIP3    H230486   5.284   1.722   1.593  2.4946 -0.3320 -1.5718
 2999TIP3   OH230487   1.657   2.093   5.523  0.1222  0.0424  0.1463
 2999TIP3    H130488   1.585   2.041   5.558 -0.5862  1.2590  0.5301
 2999TIP3    H230489   1.694   2.038   5.454 -2.4395  0.1633 -1.4437
 3000TIP3   OH230490   1.674   3.562   4.928  0.3427 -0.7636  0.1101
 3000TIP3    H130491   1.580   3.541   4.926  0.2398 -0.2927 -0.1460
 3000TIP3    H230492   1.705   3.524   5.010  0.1207 -1.7340 -0.2300
 3001TIP3   OH230493   0.993   6.671  11.025  0.0791  0.3059  0.0259
 3001TIP3    H130494   0.967   6.762  11.008  0.8729  0.4878 -0.2670
 3001TIP3    H230495   0.932   6.618  10.975 -0.6789  0.6542  0.5595
 3002TIP3   OH230496   2.472   2.384   2.021  0.3430  0.4442 -0.0052
 3002TIP3    H130497   2.414   2.315   1.989 -1.2434  2.2961 -1.3530
 3002TIP3    H230498   2.555   2.368   1.975 -0.5725  0.4622 -1.7629
 3003TIP3   OH230499   3.534   0.918  14.158  0.2646 -0.4064  0.2594
 3003TIP3    H130500   3.604   0.861  14.128 -0.2365 -0.4581 -0.8771
 3003TIP3    H230501   3.556   1.004  14.121 -0.0274 -0.3209  0.2788
 3004TIP3   OH230502   1.017   5.026  13.507  0.1348  0.0863 -0.9214
 3004TIP3    H130503   0.930   5.037  13.466 -0.3100  0.8974  0.2030
 3004TIP3    H230504   1.041   5.113  13.536 -0.4470 -0.7102  2.2834
 3005TIP3   OH230505   5.625   4.780  11.447 -0.1477 -0.5008 -0.0259
 3005TIP3    H130506   5.618   4.831  11.528  0.4574  0.3773 -0.5036
 3005TIP3    H230507   5.553   4.717  11.452  0.0607 -0.6751  1.3312
 3006TIP3   OH230508   4.212   4.543  12.871 -0.2693 -0.4456 -0.0655
 3006TIP3    H130509   4.147   4.475  12.890 -1.5682  0.5357 -0.8297
 3006TIP3    H230510   4.192   4.571  12.782  1.9805 -0.9166 -0.7915
 3007TIP3   OH230511   4.498   5.710   2.174 -0.2623 -0.3310  0.0509
 3007TIP3    H130512   4.412   5.751   2.175 -0.0558  0.0976  0.5937
 3007TIP3    H230513   4.542   5.744   2.251  1.1323  1.0365 -1.2793
 3008TIP3   OH230514   4.050   4.706   6.661  0.1819  0.2354 -0.9899
 3008TIP3    H130515   3.970   4.657   6.646  0.0167  0.7924 -2.1029
 3008TIP3    H230516   4.109   4.644   6.704  0.1305 -1.1000 -2.7198
 3009TIP3   OH230517   4.215   5.540  13.222 -0.1534  0.3222 -0.3171
 3009TIP3    H130518   4.135   5.583  13.253 -0.0057  0.2351  0.1883
 3009TIP3    H230519   4.186   5.454  13.192 -0.1122 -0.0798  0.7564
 3010TIP3   OH230520   2.128   4.065   0.657  0.3371 -0.5854  0.7449
 3010TIP3    H130521   2.047   4.065   0.606 -0.9206 -1.1739  2.6497
 3010TIP3    H230522   2.193   4.104   0.598 -1.3037 -0.1176 -0.8500
 3011TIP3   OH230523   3.697   6.306   4.648  0.3424 -0.1983  0.3062
 3011TIP3    H130524   3.750   6.267   4.717  2.0145 -1.0410 -1.3623
 3011TIP3    H230525   3.672   6.231   4.593 -1.7987  0.3170  0.4817
 3012TIP3   OH230526   4.196   3.059  13.515  0.1827 -0.3305 -0.6096
 3012TIP3    H130527   4.151   3.139  13.492  1.8537  0.2632 -2.0329
 3012TIP3    H230528   4.163   2.993  13.453 -1.6321 -0.9690  0.9375
 3013TIP3   OH230529   2.899   6.259  11.024 -0.3458  0.5735 -0.3263
 3013TIP3    H130530   2.879   6.352  11.037 -1.3923  0.3955 -0.6174
 3013TIP3    H230531   2.831   6.213  11.073  2.1617 -0.0948  2.8885
 3014TIP3   OH230532   3.683   2.749  11.259 -0.0800 -0.4827  0.0577
 3014TIP3    H130533   3.663   2.678  11.320 -0.2495 -1.2982 -0.9419
 3014TIP3    H230534   3.773   2.732  11.231  0.6305  0.8346  1.3182
 3015TIP3   OH230535   1.981   2.402   2.541 -0.1853 -0.2263  0.1164
 3015TIP3    H130536   1.943   2.336   2.483  0.4774 -0.3995 -0.1309
 3015TIP3    H230537   2.068   2.368   2.563 -0.2268  0.0909  0.7926
 3016TIP3   OH230538   1.593   3.026  16.104 -0.5945 -0.1673 -0.3930
 3016TIP3    H130539   1.516   2.973  16.127 -0.3072 -0.0266  0.9692
 3016TIP3    H230540   1.662   2.961  16.088 -0.0502 -0.2608  1.9712
 3017TIP3   OH230541   4.505   2.606  13.557 -0.7584 -0.0981  0.2187
 3017TIP3    H130542   4.477   2.681  13.504 -0.1592 -1.2917 -1.9134
 3017TIP3    H230543   4.600   2.604  13.547 -0.7714 -1.1589  0.1631
 3018TIP3   OH230544   0.891   1.139   0.708 -0.3029 -0.4719 -0.3734
 3018TIP3    H130545   0.806   1.099   0.725 -0.7304  1.5938  3.4229
 3018TIP3    H230546   0.953   1.066   0.712 -1.6102 -1.6037 -0.1213
 3019TIP3   OH230547   1.915   4.033   5.824 -0.0128 -0.4793 -0.4904
 3019TIP3    H130548   1.980   4.102   5.837  0.7185 -1.6298  2.9727
 3019TIP3    H230549   1.831   4.076   5.842  0.3356 -0.2192  0.5791
 3020TIP3   OH230550   6.196   3.992   2.129 -0.3232 -0.0298 -0.0990
 3020TIP3    H130551   6.164   4.037   2.050  1.7606  0.4143 -0.7643
 3020TIP3    H230552   6.270   4.046   2.158 -0.3595 -0.8065  1.5314
 3021TIP3   OH230553   1.736   2.762   3.083  0.2029 -0.3265  0.3153
 3021TIP3    H130554   1.661   2.706   3.103  1.4799 -1.4655  2.1625
 3021TIP3    H230555   1.711   2.806   3.001 -3.6063  1.4118  2.1370
 3022TIP3   OH230556   1.772   5.766  13.843 -0.0823  0.5297 -0.5104
 3022TIP3    H130557   1.829   5.690  13.829 -0.2055 -0.0968  1.8939
 3022TIP3    H230558   1.789   5.823  13.768 -0.1492 -1.9247 -2.5263
 3023TIP3   OH230559   1.807   5.599  17.005 -0.5185  0.4863 -0.1031
 3023TIP3    H130560   1.759   5.661  16.950 -0.1817 -0.2005 -1.2047
 3023TIP3    H230561   1.860   5.548  16.943  0.1099 -0.1028  0.8924
 3024TIP3   OH230562   5.807   5.227  11.795 -0.1790 -0.5990  0.2822
 3024TIP3    H130563   5.816   5.270  11.881  1.6733  1.3744 -0.8021
 3024TIP3    H230564   5.897   5.207  11.769 -0.5128  0.4913 -1.9420
 3025TIP3   OH230565   1.845   5.840   2.236  0.1650  0.7850  0.1965
 3025TIP3    H130566   1.878   5.877   2.154 -1.4599  2.2773  0.1643
 3025TIP3    H230567   1.762   5.800   2.213 -0.0186  0.6918  0.9986
 3026TIP3   OH230568   0.398   0.461   2.899  0.1667 -0.3408 -0.0686
 3026TIP3    H130569   0.365   0.377   2.931  0.6596 -0.3932  0.3067
 3026TIP3    H230570   0.491   0.462   2.924  0.4974 -0.2494 -1.1993
 3027TIP3   OH230571   0.693   0.163  12.099 -0.3714 -0.3138  0.0198
 3027TIP3    H130572   0.721   0.250  12.072  1.0347 -0.7397  0.0232
 3027TIP3    H230573   0.634   0.179  12.172  1.2449  0.6205  1.2015
 3028TIP3   OH230574   2.650   2.749   2.995  0.2509  0.5742 -0.2084
 3028TIP3    H130575   2.558   2.758   3.019 -0.3539  1.1045 -2.4918
 3028TIP3    H230576   2.674   2.833   2.957  1.1252 -0.1567 -1.3412
 3029TIP3   OH230577   4.963   4.858   1.834  0.7339  0.1022  0.3921
 3029TIP3    H130578   5.010   4.941   1.828 -1.3535  1.3588  0.4604
 3029TIP3    H230579   4.977   4.829   1.924  1.7484  0.1815  0.2744
 3030TIP3   OH230580   5.720   3.590  14.060  0.3366  0.2431  0.0623
 3030TIP3    H130581   5.721   3.577  13.965  1.1943 -0.2120  0.1242
 3030TIP3    H230582   5.739   3.503  14.096  0.1353  0.4398  0.6450
 3031TIP3   OH230583   3.912   4.691  14.351 -0.0711 -0.0402 -0.2106
 3031TIP3    H130584   3.854   4.629  14.308  1.9024 -1.6447 -0.7103
 3031TIP3    H230585   3.940   4.646  14.431  0.5082  0.6873  0.0040
 3032TIP3   OH230586   6.753   5.705   1.071 -0.0572  0.8845  0.0973
 3032TIP3    H130587   6.670   5.674   1.034  0.1484  0.5327 -0.0780
 3032TIP3    H230588   6.734   5.720   1.163 -0.4391  1.2676 -0.0380
 3033TIP3   OH230589   6.487   3.546  13.897 -0.1950  0.4332  0.6913
 3033TIP3    H130590   6.574   3.509  13.884 -0.0567  1.5187 -2.1970
 3033TIP3    H230591   6.428   3.471  13.900  0.4052 -0.2026 -1.8867
 3034TIP3   OH230592   3.552   6.272  12.243 -0.1383 -0.6877 -0.1627
 3034TIP3    H130593   3.579   6.184  12.218  0.1439 -0.1189 -1.9626
 3034TIP3    H230594   3.469   6.285  12.199 -0.5481 -0.3157  0.7071
 3035TIP3   OH230595   5.841   0.467  11.543  0.0373 -0.5414  0.4120
 3035TIP3    H130596   5.781   0.541  11.544  0.8710  0.2150  2.7349
 3035TIP3    H230597   5.849   0.441  11.635  1.2554 -2.2941 -0.1174
 3036TIP3   OH230598   1.533   3.141  16.624 -0.2174 -0.0701  0.1034
 3036TIP3    H130599   1.537   3.233  16.596 -1.3453 -0.4166 -1.3201
 3036TIP3    H230600   1.442   3.129  16.651 -0.7266 -1.3609 -2.0006
 3037TIP3   OH230601   2.329   6.757  17.014 -0.2742 -0.2272  0.4384
 3037TIP3    H130602   2.415   6.785  16.981  0.6193 -1.4437  1.6066
 3037TIP3    H230603   2.266   6.807  16.962  1.1498  1.7639  0.5109
 3038TIP3   OH230604   4.986   1.687  16.909  0.6996 -0.4266  0.6791
 3038TIP3    H130605   4.980   1.671  17.004 -1.1411 -1.4645  0.4317
 3038TIP3    H230606   4.919   1.631  16.871  0.3913  1.0664 -1.1321
 3039TIP3   OH230607   1.931   2.031  16.551  0.0905 -0.6534 -0.5338
 3039TIP3    H130608   1.993   2.088  16.507  0.0859 -0.4401 -0.2657
 3039TIP3    H230609   1.868   2.090  16.592 -0.4268 -0.8770 -1.0041
 3040TIP3   OH230610   3.786   4.858  15.299 -0.5664 -0.2115  0.4977
 3040TIP3    H130611   3.728   4.927  15.266 -1.2446 -0.1210  1.8134
 3040TIP3    H230612   3.871   4.876  15.258 -1.5080 -0.5575 -1.7458
 3041TIP3   OH230613   4.273   3.823   1.681 -0.1886 -0.7773 -0.2565
 3041TIP3    H130614   4.208   3.872   1.630 -0.2898 -0.4940  0.1429
 3041TIP3    H230615   4.229   3.805   1.764  0.7267  0.6145  0.5522
 3042TIP3   OH230616   1.407   4.725   3.918 -0.2202 -0.3776  0.0230
 3042TIP3    H130617   1.432   4.801   3.867 -0.3284 -0.3756 -0.0252
 3042TIP3    H230618   1.340   4.756   3.979 -0.2965 -0.4437 -0.0265
 3043TIP3   OH230619   2.542   0.174   3.903  0.2481 -0.0107 -0.0199
 3043TIP3    H130620   2.538   0.086   3.940 -1.0192  0.3499  0.7639
 3043TIP3    H230621   2.634   0.188   3.884  0.5628 -1.2314  0.5206
 3044TIP3   OH230622   4.731   3.116  13.725  0.4901  0.2693  0.3690
 3044TIP3    H130623   4.797   3.161  13.673 -1.0669  0.4224 -1.5897
 3044TIP3    H230624   4.776   3.092  13.806  2.5577  1.4727 -0.3593
 3045TIP3   OH230625   3.224   3.204   4.405 -0.5429  0.4149 -0.3733
 3045TIP3    H130626   3.287   3.158   4.350 -1.4651 -0.7937 -0.4556
 3045TIP3    H230627   3.140   3.161   4.387 -0.8937  0.0423  1.8909
 3046TIP3   OH230628   0.037   3.489   0.167  0.0109 -0.0119 -0.1114
 3046TIP3    H130629   0.070   3.414   0.117  0.7875 -0.2060  0.6692
 3046TIP3    H230630  -0.026   3.531   0.109 -0.3160 -1.1781 -0.6274
 3047TIP3   OH230631   2.353   3.115  17.396 -0.1121  0.3409  0.1307
 3047TIP3    H130632   2.342   3.080  17.484  1.3468 -1.4209 -0.3017
 3047TIP3    H230633   2.395   3.200  17.408  0.1064  0.1030  1.1313
 3048TIP3   OH230634   5.621   5.829  13.303 -0.0924  0.7443 -0.0330
 3048TIP3    H130635   5.708   5.828  13.264 -0.5467 -0.0665 -1.0715
 3048TIP3    H230636   5.612   5.742  13.343 -0.9098  0.3112 -1.1003
 3049TIP3   OH230637   6.186   1.078   5.109 -0.8858  0.3871 -0.2788
 3049TIP3    H130638   6.110   1.021   5.115 -0.6311  0.0001 -0.6898
 3049TIP3    H230639   6.250   1.040   5.169  0.2193 -1.2438 -2.3514
 3050TIP3   OH230640   0.360   5.662  16.062  0.0796 -0.1079 -0.1680
 3050TIP3    H130641   0.449   5.679  16.032  0.2070 -0.8047 -0.1937
 3050TIP3    H230642   0.338   5.739  16.115  0.3191  0.5405 -0.9892
 3051TIP3   OH230643   4.228   2.732   4.865 -0.1561 -0.8557 -0.4480
 3051TIP3    H130644   4.163   2.737   4.794  0.9391 -1.2296 -1.4986
 3051TIP3    H230645   4.202   2.803   4.924 -0.7869 -0.1741 -1.4898
 3052TIP3   OH230646   6.643   0.629   0.256 -0.6509  0.6130 -0.0296
 3052TIP3    H130647   6.587   0.699   0.222  0.7594  0.9190 -1.8843
 3052TIP3    H230648   6.627   0.630   0.351 -2.3934  1.8759 -0.2837
 3053TIP3   OH230649   5.840   1.522  16.611  0.5110 -0.0248  0.2929
 3053TIP3    H130650   5.750   1.525  16.644 -0.3113  1.9594 -1.9075
 3053TIP3    H230651   5.890   1.575  16.673  0.4755 -2.0087  2.1362
 3054TIP3   OH230652   4.840   1.000  11.687 -0.4057  0.1079 -0.1105
 3054TIP3    H130653   4.776   0.955  11.633 -1.9068 -0.7299  2.2066
 3054TIP3    H230654   4.802   1.085  11.706 -0.1463  0.1897  0.0609
 3055TIP3   OH230655   2.646   6.718   0.926 -0.4347  0.2844  0.1189
 3055TIP3    H130656   2.643   6.657   1.000  0.3555  1.5519  1.2422
 3055TIP3    H230657   2.567   6.698   0.875  0.5761 -2.7558 -0.4857
 3056TIP3   OH230658   2.111   3.860   5.670 -0.2203 -0.3272 -0.2285
 3056TIP3    H130659   2.127   3.895   5.582  1.8780  0.1895  0.3003
 3056TIP3    H230660   2.040   3.915   5.705 -1.1388 -0.5917 -1.5786
 3057TIP3   OH230661   1.815   5.795   3.648 -0.2323 -0.2477  0.0845
 3057TIP3    H130662   1.821   5.889   3.628 -2.8469 -0.1532 -0.5735
 3057TIP3    H230663   1.854   5.752   3.573  0.9652  0.2824  0.3774
 3058TIP3   OH230664   0.379   5.143   4.396  0.1122  0.6674 -0.0771
 3058TIP3    H130665   0.383   5.086   4.319 -0.6957  2.9746 -1.9626
 3058TIP3    H230666   0.328   5.218   4.366  1.4015  2.5413  2.1567
 3059TIP3   OH230667   0.506   2.415  13.003 -0.5939 -0.0809  0.3711
 3059TIP3    H130668   0.541   2.434  13.090  2.3409 -0.2975 -0.6530
 3059TIP3    H230669   0.479   2.500  12.969 -0.7200  0.1634  1.0664
 3060TIP3   OH230670   6.112   4.463   1.422  0.1967  0.1067 -0.2236
 3060TIP3    H130671   6.021   4.434   1.416  0.6954 -1.4939 -0.6357
 3060TIP3    H230672   6.155   4.395   1.476  0.9807  1.2673  0.6681
 3061TIP3   OH230673   5.385   3.813   3.095  0.4089  0.1742 -0.6376
 3061TIP3    H130674   5.448   3.843   3.030  2.5654  0.6757  1.5580
 3061TIP3    H230675   5.428   3.741   3.140 -1.7756 -1.4104 -0.9021
 3062TIP3   OH230676   4.589   1.924   1.154  0.2534  0.0494  0.1793
 3062TIP3    H130677   4.603   1.977   1.232  1.4333 -0.1116  0.1004
 3062TIP3    H230678   4.516   1.866   1.177  0.7292 -0.1481  1.2393
 3063TIP3   OH230679   3.102   6.300  11.903 -0.9375  0.7446  0.2771
 3063TIP3    H130680   3.033   6.335  11.847  0.4789  1.4498 -1.0768
 3063TIP3    H230681   3.095   6.351  11.984 -1.0131  1.8937 -0.4334
 3064TIP3   OH230682   2.623   3.076  14.604 -0.1447  0.1101  0.1822
 3064TIP3    H130683   2.671   3.051  14.683  0.7641 -0.2986 -0.4786
 3064TIP3    H230684   2.534   3.042  14.618 -1.1759  3.3346  2.6860
 3065TIP3   OH230685   1.452   2.856   6.217 -0.3073  0.1502  0.5419
 3065TIP3    H130686   1.472   2.945   6.186  1.3250 -0.2129  0.4541
 3065TIP3    H230687   1.384   2.825   6.157  2.1135 -0.1901 -2.2433
 3066TIP3   OH230688   2.415   3.489  14.313  0.3927 -0.1571  0.4843
 3066TIP3    H130689   2.386   3.434  14.385  0.1290 -0.5784  0.0619
 3066TIP3    H230690   2.342   3.549  14.297  1.3456  1.5473  2.1165
 3067TIP3   OH230691   0.616   5.566  14.138 -0.1422 -0.0011  0.1259
 3067TIP3    H130692   0.552   5.605  14.197  1.3999  1.5909  0.8422
 3067TIP3    H230693   0.665   5.505  14.192 -1.4732 -1.8073 -0.6044
 3068TIP3   OH230694   1.431   5.349   1.379 -0.2281 -0.5284  0.3855
 3068TIP3    H130695   1.492   5.290   1.424 -0.1167 -1.5133 -0.9888
 3068TIP3    H230696   1.366   5.371   1.446  0.6199 -0.9190  1.3746
 3069TIP3   OH230697   2.488   4.577   0.738 -0.3628 -0.3372  0.2978
 3069TIP3    H130698   2.490   4.520   0.814  1.8826 -0.4239  0.2292
 3069TIP3    H230699   2.468   4.519   0.665 -0.2935 -0.6391  0.5184
 3070TIP3   OH230700   5.677   4.883   2.684  0.0600 -0.4659 -0.6860
 3070TIP3    H130701   5.621   4.873   2.761 -2.5730  0.2927 -2.3800
 3070TIP3    H230702   5.766   4.878   2.719 -0.9185  2.2555  2.8115
 3071TIP3   OH230703   1.004   3.677   5.589 -0.4380  0.0782  0.2066
 3071TIP3    H130704   1.068   3.657   5.657  0.2881  2.2056  0.2168
 3071TIP3    H230705   0.919   3.666   5.632 -0.0108  0.1630  1.0948
 3072TIP3   OH230706   0.396   2.065   5.038 -0.2485 -0.2768 -0.1011
 3072TIP3    H130707   0.457   2.008   5.083 -0.6130 -0.0242  0.7266
 3072TIP3    H230708   0.319   2.010   5.021  0.2459 -0.6393 -1.2823
 3073TIP3   OH230709   0.066   5.956   5.258  0.2444  0.0712  0.6401
 3073TIP3    H130710   0.078   5.967   5.164  0.0690 -0.0899  0.5972
 3073TIP3    H230711   0.148   5.918   5.289  0.1727 -0.2100  0.4919
 3074TIP3   OH230712   2.375   6.246  11.573  0.4267  0.2575 -0.3888
 3074TIP3    H130713   2.283   6.241  11.598  0.8956 -0.2475  1.3572
 3074TIP3    H230714   2.384   6.332  11.532 -1.1034 -0.2594 -1.9330
 3075TIP3   OH230715   1.602   0.146  12.909 -0.1300  0.0874 -0.6376
 3075TIP3    H130716   1.599   0.189  12.995 -0.8601  0.5811 -0.9046
 3075TIP3    H230717   1.603   0.052  12.930 -1.0878  0.1820 -0.0839
 3076TIP3   OH230718   5.931   4.734   0.048 -0.3000 -0.3721  0.3023
 3076TIP3    H130719   5.996   4.801   0.029 -2.0142  1.2928  0.0344
 3076TIP3    H230720   5.976   4.673   0.107  0.9165  1.7877  1.7666
 3077TIP3   OH230721   6.577   0.509  15.610 -0.0765 -0.4884 -0.0395
 3077TIP3    H130722   6.481   0.513  15.619  0.0716  0.0582  1.6139
 3077TIP3    H230723   6.594   0.551  15.525 -1.1434  2.3390  1.0072
 3078TIP3   OH230724   2.189   5.503   0.523  0.4053  0.2179 -0.4227
 3078TIP3    H130725   2.169   5.434   0.459 -0.6039  0.8804 -0.8371
 3078TIP3    H230726   2.273   5.476   0.561  0.6187 -0.6161 -1.4334
 3079TIP3   OH230727   0.202   0.957  14.101  0.2278  0.0904  0.0824
 3079TIP3    H130728   0.269   0.894  14.127  0.8892 -0.1050 -1.9173
 3079TIP3    H230729   0.129   0.904  14.070  1.0048  0.2195 -2.1454
 3080TIP3   OH230730   5.177   0.915   1.999  0.2805 -0.1005  0.3253
 3080TIP3    H130731   5.223   0.941   2.079  0.4658  0.4784  0.0359
 3080TIP3    H230732   5.200   0.823   1.987  1.3615  0.1718  0.1899
 3081TIP3   OH230733   1.817   1.132  16.259 -0.2499  0.2980 -0.6010
 3081TIP3    H130734   1.826   1.213  16.208 -0.0066 -0.4212 -1.7486
 3081TIP3    H230735   1.905   1.114  16.292 -0.3515  0.6234 -0.1530
 3082TIP3   OH230736   3.480   6.541   2.296 -0.6094  0.3485  0.2786
 3082TIP3    H130737   3.442   6.560   2.210 -2.2566  1.9221  1.3053
 3082TIP3    H230738   3.483   6.625   2.341  2.3038 -0.0406  1.0350
 3083TIP3   OH230739   5.681   1.510  15.830  0.0373  0.4025 -0.2663
 3083TIP3    H130740   5.724   1.435  15.873  0.1952 -0.3158 -1.6420
 3083TIP3    H230741   5.613   1.536  15.892 -1.0531 -1.8685 -0.4067
 3084TIP3   OH230742   3.120   4.657  16.460 -0.8197  0.0101  0.0260
 3084TIP3    H130743   3.118   4.737  16.407  0.7479  1.5329  2.0853
 3084TIP3    H230744   3.206   4.619  16.443 -1.2974 -0.9094 -0.4261
 3085TIP3   OH230745   6.691   3.565  15.697 -0.2097  0.0217 -0.0787
 3085TIP3    H130746   6.698   3.660  15.690  1.9842 -0.0211  0.6606
 3085TIP3    H230747   6.768   3.532  15.649 -1.4663 -1.4475 -1.1835
 3086TIP3   OH230748   1.467   5.535  16.902  0.0592  0.5160  0.3528
 3086TIP3    H130749   1.376   5.532  16.932 -0.1249 -1.7750 -0.2351
 3086TIP3    H230750   1.513   5.471  16.956  0.8817  0.2384 -0.6367
 3087TIP3   OH230751   4.819   2.787   3.385 -0.2791  0.3643 -0.2096
 3087TIP3    H130752   4.808   2.867   3.435  0.7784 -0.2594  1.1142
 3087TIP3    H230753   4.739   2.737   3.400 -0.1695  0.3929  0.4760
 3088TIP3   OH230754   2.804   4.193   2.139 -0.1892 -0.4702  0.4336
 3088TIP3    H130755   2.714   4.168   2.121 -0.3507 -1.1716  2.0608
 3088TIP3    H230756   2.845   4.114   2.172  1.0902 -0.1992 -0.4040
 3089TIP3   OH230757   5.437   3.918   4.117 -0.6420 -0.0262 -0.1474
 3089TIP3    H130758   5.506   3.982   4.131 -0.8820  0.0901  0.5143
 3089TIP3    H230759   5.448   3.890   4.026  1.1062 -0.9732  0.3070
 3090TIP3   OH230760   5.933   0.350   1.346  0.2531  0.2687  0.5288
 3090TIP3    H130761   5.993   0.278   1.363  1.2322  1.1358  0.8448
 3090TIP3    H230762   5.984   0.429   1.366 -0.1254  1.1601 -1.8005
 3091TIP3   OH230763   4.895   0.185  15.218  0.6572  0.3258  0.7249
 3091TIP3    H130764   4.949   0.106  15.220 -0.8291 -0.7189  0.9250
 3091TIP3    H230765   4.833   0.171  15.147  0.1392  1.1581  0.9945
 3092TIP3   OH230766   1.586   4.588  14.572  0.0263 -0.0872 -0.3794
 3092TIP3    H130767   1.670   4.634  14.573  0.4239 -0.7935 -0.6195
 3092TIP3    H230768   1.537   4.629  14.501 -0.8645  2.0928  1.3717
 3093TIP3   OH230769   6.645   5.707   2.787 -0.3561  0.3203 -0.9044
 3093TIP3    H130770   6.576   5.725   2.852 -0.7437 -1.0526 -0.9101
 3093TIP3    H230771   6.653   5.789   2.738 -0.1221  1.3685  0.7967
 3094TIP3   OH230772   6.549   6.036  17.098  0.1437 -0.1434  0.8490
 3094TIP3    H130773   6.458   6.010  17.108  0.1286 -1.1693 -1.3489
 3094TIP3    H230774   6.599   5.963  17.134  0.2248  1.6037  4.7004
 3095TIP3   OH230775   1.448   2.648  15.673  0.1759 -0.2775 -0.2681
 3095TIP3    H130776   1.408   2.575  15.720  1.6449 -0.3947  0.8998
 3095TIP3    H230777   1.513   2.683  15.735 -0.9493  2.4912 -0.4755
 3096TIP3   OH230778   3.630   0.706   4.262  0.3192 -0.0996 -0.2185
 3096TIP3    H130779   3.639   0.782   4.205  0.0295 -0.3725 -0.6262
 3096TIP3    H230780   3.707   0.652   4.242 -0.1210 -0.5052 -0.8148
 3097TIP3   OH230781   3.653   5.239   5.801  0.1786  0.2718 -0.4796
 3097TIP3    H130782   3.614   5.325   5.784 -1.0668  0.0374  0.9248
 3097TIP3    H230783   3.602   5.204   5.875  2.4161 -0.5111  0.7975
 3098TIP3   OH230784   0.821   0.619   4.895 -0.0793 -0.2942 -0.1957
 3098TIP3    H130785   0.817   0.683   4.966 -1.0985  1.1347 -1.4806
 3098TIP3    H230786   0.902   0.571   4.912  0.7811  1.3895  0.7803
 3099TIP3   OH230787   2.844   3.413   5.609  0.0597  0.5767 -0.1497
 3099TIP3    H130788   2.756   3.445   5.629 -0.3054 -0.9476  0.8476
 3099TIP3    H230789   2.859   3.343   5.673  1.4844 -0.0629 -1.1388
 3100TIP3   OH230790   1.389   2.711   5.895  0.1287 -0.2011 -0.6992
 3100TIP3    H130791   1.303   2.737   5.929 -1.1538 -2.2918 -2.1241
 3100TIP3    H230792   1.442   2.695   5.974 -1.0870  0.1550  0.2281
 3101TIP3   OH230793   1.373   2.900  12.536 -0.5538  0.4003 -0.8030
 3101TIP3    H130794   1.393   2.855  12.454 -2.0141 -1.0782 -0.4129
 3101TIP3    H230795   1.294   2.856  12.568  0.5512  0.2161  1.9311
 3102TIP3   OH230796   4.859   4.464  16.603 -0.2262  0.2643 -0.5057
 3102TIP3    H130797   4.902   4.432  16.682  1.4493 -0.9602 -1.8353
 3102TIP3    H230798   4.771   4.425  16.606  0.4881 -1.4204 -0.1804
 3103TIP3   OH230799   1.660   6.301  15.048  0.3996 -0.4724 -0.0145
 3103TIP3    H130800   1.655   6.291  15.143  0.0208 -0.4948 -0.0344
 3103TIP3    H230801   1.608   6.229  15.014  3.0706 -2.3771 -0.3419
 3104TIP3   OH230802   1.679   3.450   2.325  0.6070 -0.3104 -0.2198
 3104TIP3    H130803   1.612   3.505   2.366 -0.5859 -1.5991 -0.3615
 3104TIP3    H230804   1.758   3.504   2.325  0.1030  0.5110  1.8041
 3105TIP3   OH230805   5.951   4.130  10.665  0.0705 -0.2246  0.5189
 3105TIP3    H130806   5.916   4.088  10.743  0.6723  1.3983  1.7322
 3105TIP3    H230807   5.917   4.219  10.668 -0.1375 -0.1980 -1.2601
 3106TIP3   OH230808   0.012   2.090  13.146  0.0822  0.2800 -0.8375
 3106TIP3    H130809   0.032   2.007  13.190  1.3477  0.1934 -1.5379
 3106TIP3    H230810   0.036   2.157  13.210 -3.3551  0.1914  0.7854
 3107TIP3   OH230811   0.200   3.339  12.431 -0.2869 -0.1756 -0.6837
 3107TIP3    H130812   0.269   3.362  12.494 -1.9280  2.7523  0.2506
 3107TIP3    H230813   0.127   3.309  12.486  0.0548 -3.1197 -1.6476
 3108TIP3   OH230814   6.157   2.126   2.970 -0.2516  0.2373 -0.2746
 3108TIP3    H130815   6.102   2.174   2.907 -0.2847 -0.2987 -0.6578
 3108TIP3    H230816   6.212   2.069   2.916  2.4968  2.4994 -0.1079
 3109TIP3   OH230817   6.545   1.468  15.336  0.1462 -0.2368 -0.3905
 3109TIP3    H130818   6.593   1.476  15.418 -1.4543 -0.2074  0.5714
 3109TIP3    H230819   6.610   1.434  15.274  1.3374 -0.4144  0.9030
 3110TIP3   OH230820   4.694   0.234  14.569  0.2381 -0.2501  0.0235
 3110TIP3    H130821   4.759   0.276  14.626 -1.0603  1.9754 -0.0356
 3110TIP3    H230822   4.735   0.152  14.543  2.1977  0.1663  1.5781
 3111TIP3   OH230823   1.091   4.386   2.072  0.5081  0.5397  0.0184
 3111TIP3    H130824   1.015   4.331   2.052  0.7559  0.2323 -0.0940
 3111TIP3    H230825   1.062   4.442   2.144  1.0362 -1.4725  1.8977
 3112TIP3   OH230826   5.207   0.764  11.070  0.1707  0.1148  0.0379
 3112TIP3    H130827   5.269   0.813  11.124 -0.0010 -1.2535  1.5407
 3112TIP3    H230828   5.191   0.821  10.995  0.4326  2.1017  1.4054
 3113TIP3   OH230829   0.088   1.348   2.968 -0.4427 -0.4085 -0.4445
 3113TIP3    H130830   0.164   1.317   2.919  0.3917  0.9601 -0.0902
 3113TIP3    H230831   0.095   1.444   2.965 -0.7716 -0.2593  1.6655
 3114TIP3   OH230832   3.763   0.157  11.156 -0.2177 -0.4746 -0.1480
 3114TIP3    H130833   3.749   0.064  11.173  0.8755 -0.4993  0.7471
 3114TIP3    H230834   3.690   0.200  11.201 -0.0220 -0.8459  0.5542
 3115TIP3   OH230835   3.437   3.052  11.805 -0.3660  0.2630  0.1491
 3115TIP3    H130836   3.402   2.977  11.757  0.1163  0.4028 -0.4249
 3115TIP3    H230837   3.521   3.022  11.840 -0.1663  0.5374 -0.0896
 3116TIP3   OH230838   3.611   1.251   2.068  0.3636 -0.1544  0.2375
 3116TIP3    H130839   3.520   1.275   2.050  0.6099  0.1958 -0.5419
 3116TIP3    H230840   3.631   1.183   2.004  0.6069 -0.3390  0.5068
 3117TIP3   OH230841   3.700   1.928   3.345 -0.3772  0.1211  0.1014
 3117TIP3    H130842   3.673   1.899   3.432  2.3146 -1.5687  0.4973
 3117TIP3    H230843   3.785   1.969   3.359  1.1718 -2.1688 -1.9386
 3118TIP3   OH230844   2.289   6.038   1.409  0.2601 -0.3934  0.0551
 3118TIP3    H130845   2.356   6.101   1.383  0.7439  0.2657  2.6162
 3118TIP3    H230846   2.213   6.060   1.354  0.4368  2.4300  0.7423
 3119TIP3   OH230847   5.872   5.285  13.915  0.1735  0.3283  0.0849
 3119TIP3    H130848   5.804   5.231  13.874  0.0070  0.5904  0.0126
 3119TIP3    H230849   5.942   5.290  13.849  0.1065  0.3609  0.0161
 3120TIP3   OH230850   4.877   1.463   1.019  0.1279  0.2580  0.1143
 3120TIP3    H130851   4.835   1.431   1.099  0.3277 -1.4985 -0.4365
 3120TIP3    H230852   4.924   1.387   0.985  2.0825  1.6000 -0.3778
 3121TIP3   OH230853   6.571   2.543   4.142  0.0685 -0.2171 -0.6358
 3121TIP3    H130854   6.589   2.489   4.219 -0.4091  1.2517  0.5475
 3121TIP3    H230855   6.575   2.633   4.174  2.0310  0.5712 -2.7701
 3122TIP3   OH230856   4.858   4.814  11.671  0.7731 -0.3130 -0.2753
 3122TIP3    H130857   4.887   4.737  11.622 -0.3538 -0.8339 -0.1382
 3122TIP3    H230858   4.867   4.789  11.763 -0.5308 -0.6667 -0.2249
 3123TIP3   OH230859   0.384   6.026   1.074  0.1396 -0.4488  0.2400
 3123TIP3    H130860   0.320   6.080   1.121  0.7608  0.8872 -0.3962
 3123TIP3    H230861   0.427   6.086   1.013  0.4823 -1.7898 -0.9025
 3124TIP3   OH230862   3.456   4.014   4.798  0.6393 -0.5388  0.0826
 3124TIP3    H130863   3.463   3.949   4.727 -1.8290 -2.6366  1.5794
 3124TIP3    H230864   3.532   3.996   4.854  1.2108 -0.5734 -0.6765
 3125TIP3   OH230865   4.106   5.289  15.503 -0.4738  0.3262  0.0820
 3125TIP3    H130866   4.167   5.216  15.490 -2.3048 -1.5239  1.3004
 3125TIP3    H230867   4.043   5.280  15.432 -0.6204  0.8268  0.1508
 3126TIP3   OH230868   4.218   2.695   3.622 -0.4374 -0.0538 -0.0459
 3126TIP3    H130869   4.283   2.749   3.667  0.4764 -1.5238  0.4621
 3126TIP3    H230870   4.169   2.653   3.693  0.1802 -1.4092 -0.3759
 3127TIP3   OH230871   4.274   3.393   6.218 -0.1172 -0.2426  0.0125
 3127TIP3    H130872   4.364   3.374   6.192  0.6189 -0.6679  2.5388
 3127TIP3    H230873   4.269   3.365   6.310 -2.4040  1.1442  0.4014
 3128TIP3   OH230874   5.048   1.185  16.374  0.2545  0.5469  0.7414
 3128TIP3    H130875   5.030   1.098  16.339 -0.3327  1.0411 -0.2417
 3128TIP3    H230876   5.134   1.177  16.415  1.1681 -0.0108 -1.1448
 3129TIP3   OH230877   4.770   6.048  10.953 -0.0660 -0.7774  0.2319
 3129TIP3    H130878   4.794   6.041  11.046 -0.6705 -2.5854  0.2789
 3129TIP3    H230879   4.687   6.095  10.954 -0.3435 -1.2622  0.6653
 3130TIP3   OH230880   1.932   4.567   3.195 -0.1158  0.3441  0.2091
 3130TIP3    H130881   2.023   4.597   3.196  0.3553 -0.9218 -1.1619
 3130TIP3    H230882   1.935   4.482   3.150 -2.1139  0.7732 -0.8378
 3131TIP3   OH230883   0.192   0.539  12.108 -0.3954  0.0057 -0.0560
 3131TIP3    H130884   0.190   0.585  12.191 -2.5295  0.5228 -0.3502
 3131TIP3    H230885   0.100   0.523  12.086 -0.0515  1.4106 -3.1298
 3132TIP3   OH230886   5.802   1.105   2.177  0.3947  0.4610  0.2536
 3132TIP3    H130887   5.876   1.147   2.219  0.7124 -0.7078  0.9132
 3132TIP3    H230888   5.840   1.032   2.128 -0.4088 -1.3184  2.0802
 3133TIP3   OH230889   2.764   1.969  14.522  0.1364  0.8381 -0.8897
 3133TIP3    H130890   2.777   1.921  14.603 -0.1975  0.7288 -0.8975
 3133TIP3    H230891   2.794   1.909  14.453 -0.3083  0.6305 -0.9016
 3134TIP3   OH230892   6.574   0.672  16.816 -0.3668 -0.5895  0.3177
 3134TIP3    H130893   6.619   0.756  16.830  0.8894 -1.0708 -0.7131
 3134TIP3    H230894   6.482   0.696  16.807 -0.2902  0.4788  1.9247
 3135TIP3   OH230895   1.493   5.389   3.350  0.4613  0.3538  0.3993
 3135TIP3    H130896   1.543   5.371   3.270 -0.9982 -0.5048 -0.3777
 3135TIP3    H230897   1.501   5.308   3.401 -1.2599 -0.3705 -0.3972
 3136TIP3   OH230898   6.204   2.198   3.558 -0.5006  0.0814 -0.6857
 3136TIP3    H130899   6.287   2.224   3.517  0.2045 -0.0920  0.5939
 3136TIP3    H230900   6.175   2.274   3.607 -0.3741 -0.3087  0.0059
 3137TIP3   OH230901   0.994   5.761  14.252  0.7741  0.1942 -0.1003
 3137TIP3    H130902   1.056   5.762  14.325  0.8253  2.1485 -0.1227
 3137TIP3    H230903   1.034   5.701  14.189  1.1150 -0.9206  1.1248
 3138TIP3   OH230904   5.664   5.181   0.931  0.5257  0.6675 -0.1503
 3138TIP3    H130905   5.666   5.273   0.960  2.0525  0.8821 -0.8233
 3138TIP3    H230906   5.742   5.172   0.876  0.1815 -0.9415 -0.4146
 3139TIP3   OH230907   5.470   0.876  15.284 -0.4444 -0.6447  0.5879
 3139TIP3    H130908   5.513   0.812  15.342  0.7473 -0.0202  0.4290
 3139TIP3    H230909   5.531   0.887  15.212 -0.5576  0.7785  0.6875
 3140TIP3   OH230910   1.985   4.418   0.958  0.1754 -0.6173 -0.4108
 3140TIP3    H130911   1.969   4.507   0.988 -0.4936 -0.3373 -1.5390
 3140TIP3    H230912   2.070   4.422   0.914  0.1181 -0.5071 -0.5147
 3141TIP3   OH230913   5.578   6.411   6.542  0.1857  0.3699 -1.0765
 3141TIP3    H130914   5.566   6.324   6.579 -1.3679  0.5351 -1.0851
 3141TIP3    H230915   5.657   6.405   6.490  1.6933 -0.2411  1.1507
 3142TIP3   OH230916   4.514   2.235  12.246 -0.5845  0.5741 -0.7830
 3142TIP3    H130917   4.470   2.150  12.253  0.0208  0.3162  0.1141
 3142TIP3    H230918   4.467   2.280  12.176 -1.3004 -0.2682 -0.8746
 3143TIP3   OH230919   3.608   1.184  17.365  0.1497 -0.2234 -0.0480
 3143TIP3    H130920   3.685   1.144  17.407  0.6424  0.9637  0.2258
 3143TIP3    H230921   3.544   1.193  17.435  0.0343 -0.5344 -0.1119
 3144TIP3   OH230922   6.349   0.914  17.364 -0.0645  0.4849 -0.1966
 3144TIP3    H130923   6.288   0.986  17.348 -0.5283  0.8515  2.7346
 3144TIP3    H230924   6.296   0.845  17.403  0.9312 -0.2486 -0.0976
 3145TIP3   OH230925   0.018   4.687  16.644 -0.3538 -0.2948 -0.2407
 3145TIP3    H130926   0.094   4.684  16.585  0.6393 -0.6105  1.0161
 3145TIP3    H230927   0.041   4.753  16.709 -0.6996 -1.1274  0.7496
 3146TIP3   OH230928   0.305   2.515  14.410  0.0615 -0.1945  0.3604
 3146TIP3    H130929   0.325   2.605  14.436 -1.2108  1.5051 -3.7153
 3146TIP3    H230930   0.375   2.491  14.350 -1.5913 -0.2768 -1.6693
 3147TIP3   OH230931   3.072   6.438   1.636 -0.1316 -0.0028  0.0692
 3147TIP3    H130932   3.073   6.441   1.540 -2.0646  1.9617  0.0296
 3147TIP3    H230933   3.108   6.352   1.658  0.7846 -0.3233 -2.3789
 3148TIP3   OH230934   2.602   5.144  14.333  0.3959  0.2108 -0.2627
 3148TIP3    H130935   2.531   5.083  14.350  1.2075 -0.1376  2.4855
 3148TIP3    H230936   2.570   5.228  14.366  1.3312 -0.0410  1.4124
 3149TIP3   OH230937   4.565   5.767   0.839 -0.6072  0.6304 -0.2907
 3149TIP3    H130938   4.508   5.833   0.799 -0.2481  2.4569  2.0045
 3149TIP3    H230939   4.507   5.694   0.860 -1.2439  0.6652 -1.8114
 3150TIP3   OH230940   3.024   5.512   6.354 -0.8680 -0.0486  0.0351
 3150TIP3    H130941   2.942   5.497   6.400 -0.5139 -0.3203  0.5883
 3150TIP3    H230942   3.069   5.428   6.356  0.4524  0.6225  1.8049
 3151TIP3   OH230943   1.048   0.612   0.469  0.2358  0.5625 -0.2910
 3151TIP3    H130944   1.016   0.527   0.440 -0.1556  0.8055 -0.5764
 3151TIP3    H230945   1.044   0.608   0.564  0.3833  0.2021 -0.2970
 3152TIP3   OH230946   4.980   2.182   1.753  0.0873  0.5145  0.4793
 3152TIP3    H130947   4.960   2.263   1.704 -0.5608 -0.1351 -0.3735
 3152TIP3    H230948   5.042   2.209   1.821  1.1944  1.4272 -0.8335
 3153TIP3   OH230949   4.154   6.692  17.229  0.3483 -0.0163 -0.7700
 3153TIP3    H130950   4.148   6.780  17.193  1.6045  0.9965  1.3398
 3153TIP3    H230951   4.063   6.664  17.238 -0.0418  0.5239 -2.6063
 3154TIP3   OH230952   1.977   2.462   5.721  0.2053 -0.6741 -0.8388
 3154TIP3    H130953   1.926   2.444   5.801  0.7593 -1.7904 -0.7234
 3154TIP3    H230954   1.948   2.394   5.659  1.5450 -1.3343 -0.7650
 3155TIP3   OH230955   3.038   0.431   4.340 -0.5842 -0.9611 -0.6870
 3155TIP3    H130956   3.055   0.471   4.255  1.3587  1.4388  0.6920
 3155TIP3    H230957   3.078   0.344   4.335  2.8664  0.4906 -1.1372
 3156TIP3   OH230958   4.456   4.058  16.706 -0.1358  0.5694 -0.3364
 3156TIP3    H130959   4.519   4.101  16.765 -0.5799  2.3875 -1.1166
 3156TIP3    H230960   4.371   4.093  16.733 -0.4766  0.4824 -1.2747
 3157TIP3   OH230961   0.561   5.790   4.230  0.4066  0.0287  0.2248
 3157TIP3    H130962   0.467   5.773   4.225  0.2204  0.1366  2.3629
 3157TIP3    H230963   0.594   5.723   4.288  1.7822 -0.3288 -0.9299
 3158TIP3   OH230964   5.538   3.155  10.748  0.5390  0.4236  0.0168
 3158TIP3    H130965   5.469   3.220  10.736 -1.9639 -1.7601  1.5174
 3158TIP3    H230966   5.500   3.073  10.715  3.3798 -0.4574 -1.3905
 3159TIP3   OH230967   5.196   6.212   1.279  0.1697 -0.2412 -0.2550
 3159TIP3    H130968   5.181   6.143   1.344 -0.2799 -0.3750 -0.4880
 3159TIP3    H230969   5.128   6.196   1.213 -0.9793  1.3811  0.4628
 3160TIP3   OH230970   2.906   3.203   4.698  0.3137  0.7694  0.0790
 3160TIP3    H130971   2.961   3.264   4.748 -0.0531  0.1333  1.2935
 3160TIP3    H230972   2.834   3.257   4.666  1.5266  1.5925 -1.4389
 3161TIP3   OH230973   5.606   2.932   4.357 -0.8953 -0.6595  0.1680
 3161TIP3    H130974   5.575   2.856   4.307  2.0012 -1.2928 -0.8339
 3161TIP3    H230975   5.634   2.896   4.441  0.1714 -0.6702 -0.1818
 3162TIP3   OH230976   5.654   4.643  14.291 -0.2743  0.2020 -0.0854
 3162TIP3    H130977   5.678   4.567  14.237 -2.2100 -0.4446 -0.1252
 3162TIP3    H230978   5.722   4.647  14.358  0.9897 -0.3005 -1.2857
 3163TIP3   OH230979   5.972   3.984   1.211 -0.7116 -0.0327  0.2598
 3163TIP3    H130980   5.992   4.009   1.120  0.0550 -0.9070  0.1712
 3163TIP3    H230981   6.056   3.955   1.246 -1.2660 -0.9776  0.8403
 3164TIP3   OH230982   3.339   3.700  14.918  0.1143  0.2279 -0.3627
 3164TIP3    H130983   3.275   3.691  14.989 -0.0652  1.0796 -0.4108
 3164TIP3    H230984   3.288   3.686  14.838  0.0090  0.8087 -0.3966
 3165TIP3   OH230985   3.068   4.855   5.068  0.2779 -0.4077  0.1800
 3165TIP3    H130986   2.984   4.899   5.083 -0.6174 -2.3362  1.1365
 3165TIP3    H230987   3.132   4.927   5.066 -1.3488  1.0938 -0.4536
 3166TIP3   OH230988   1.456   0.352  14.605  0.2084 -0.6281 -0.4637
 3166TIP3    H130989   1.503   0.362  14.688 -0.1013  1.2429 -0.4504
 3166TIP3    H230990   1.520   0.314  14.546  1.3710  0.6501 -0.0933
 3167TIP3   OH230991   3.209   1.038  15.976  0.4111  0.3392 -0.2511
 3167TIP3    H130992   3.130   0.997  16.012  0.2744 -0.1194 -1.0559
 3167TIP3    H230993   3.177   1.098  15.909  0.6653  1.1658  0.3573
 3168TIP3   OH230994   2.282   6.515  12.256  0.7929  0.1905  0.2587
 3168TIP3    H130995   2.217   6.584  12.267 -0.8163 -1.4274  1.6049
 3168TIP3    H230996   2.332   6.516  12.337  1.6239  0.5607 -0.2390
 3169TIP3   OH230997   1.316   6.424  16.422 -0.5291  0.1238 -0.2454
 3169TIP3    H130998   1.401   6.465  16.438 -1.4323  1.4238  1.5470
 3169TIP3    H230999   1.319   6.399  16.330  0.9680  2.1250 -0.8082
 3170TIP3   OH231000   5.798   6.375   6.369 -0.0190  0.0652 -0.3610
 3170TIP3    H131001   5.860   6.408   6.304  1.3641  1.7106  1.6691
 3170TIP3    H231002   5.829   6.286   6.389 -0.3879 -0.4096 -1.8120
 3171TIP3   OH231003   1.889   2.139  14.223 -0.3106 -0.2090  1.0274
 3171TIP3    H131004   1.983   2.136  14.206 -0.6727  0.7559 -1.5761
 3171TIP3    H231005   1.864   2.048  14.239  0.9369 -0.5617  1.0158
 3172TIP3   OH231006   0.557   6.561  12.926 -0.4550  0.0528 -0.4828
 3172TIP3    H131007   0.626   6.601  12.872  0.2598 -1.4486 -0.7374
 3172TIP3    H231008   0.520   6.635  12.975  0.7542  1.0412 -0.9760
 3173TIP3   OH231009   2.186   2.806  15.111 -0.0085 -0.4972  0.1941
 3173TIP3    H131010   2.177   2.756  15.193 -2.1936 -0.9927 -0.2720
 3173TIP3    H231011   2.277   2.794  15.086  0.0996 -2.4495  1.2636
 3174TIP3   OH231012   5.067   0.342  16.204 -0.4943 -0.0062  0.0208
 3174TIP3    H131013   5.094   0.413  16.263 -1.3072  0.8080 -0.5453
 3174TIP3    H231014   5.058   0.385  16.119 -2.4769 -0.4415 -0.0371
 3175TIP3   OH231015   5.308   3.697   4.224 -0.4439 -0.5266 -0.0136
 3175TIP3    H131016   5.340   3.619   4.180  1.8296 -0.9460  2.0952
 3175TIP3    H231017   5.360   3.769   4.187 -0.5731 -0.4583 -0.0602
 3176TIP3   OH231018   0.189   3.763  15.996  0.2942 -0.0990 -0.2179
 3176TIP3    H131019   0.272   3.758  15.949  0.2608 -0.3361 -0.2561
 3176TIP3    H231020   0.143   3.837  15.956 -0.3614 -1.1935 -1.6024
 3177TIP3   OH231021   1.717   4.908   4.031 -0.0561  0.3029 -0.5399
 3177TIP3    H131022   1.727   4.916   3.936  0.1583  1.7396 -0.4191
 3177TIP3    H231023   1.691   4.817   4.045 -0.9884  0.3084 -2.0488
 3178TIP3   OH231024   4.971   6.645   5.933  0.0720  0.2045 -0.0254
 3178TIP3    H131025   4.948   6.554   5.914  0.9379  0.2392 -1.3738
 3178TIP3    H231026   4.888   6.690   5.940 -0.3502 -0.5264 -0.1951
 3179TIP3   OH231027   3.887   0.903  13.070  0.3729  0.1203  0.0015
 3179TIP3    H131028   3.891   0.962  13.144  2.0204 -2.9791  2.6492
 3179TIP3    H231029   3.965   0.923  13.018  0.6098  0.6072  0.5412
 3180TIP3   OH231030   2.641   0.106  12.492  0.4750  0.5334 -0.2299
 3180TIP3    H131031   2.655   0.153  12.575  0.4488  0.2239 -0.0499
 3180TIP3    H231032   2.713   0.043  12.487 -0.1770 -0.2472  0.1256
 3181TIP3   OH231033   1.642   6.283   1.195 -0.0205  0.1571 -0.2393
 3181TIP3    H131034   1.592   6.253   1.271 -1.4368  1.2590 -0.6995
 3181TIP3    H231035   1.733   6.266   1.218 -0.4107  0.5334  1.7432
 3182TIP3   OH231036   4.936   0.387  11.633 -0.5076 -0.2038  0.0318
 3182TIP3    H131037   4.842   0.392  11.651 -0.9073 -3.7112 -0.3554
 3182TIP3    H231038   4.952   0.456  11.568 -2.8949  0.2354 -0.1717
 3183TIP3   OH231039   2.447   6.113  12.762  0.2127 -0.8571  0.3623
 3183TIP3    H131040   2.360   6.076  12.751  0.1581 -0.8258  0.7034
 3183TIP3    H231041   2.458   6.170  12.686  0.7117 -2.3639 -0.7445
 3184TIP3   OH231042   3.888   4.342  14.885 -0.1023 -0.1765  0.3912
 3184TIP3    H131043   3.928   4.361  14.969  0.6947 -0.2402  0.0397
 3184TIP3    H231044   3.821   4.408  14.874 -0.2718 -0.2231  1.1155
 3185TIP3   OH231045   1.905   5.024   3.589 -0.2334 -0.0479 -0.2864
 3185TIP3    H131046   1.873   5.097   3.641  1.3863 -0.1964  1.0079
 3185TIP3    H231047   1.958   5.064   3.520 -1.9862  0.1209 -1.6064
 3186TIP3   OH231048   6.375   5.298  13.816 -0.1600 -0.0543 -0.3763
 3186TIP3    H131049   6.377   5.266  13.906 -1.1364  2.1713  0.5095
 3186TIP3    H231050   6.424   5.233  13.766  0.5072 -1.2881  1.7718
 3187TIP3   OH231051   3.947   5.799  14.492 -0.0928  0.3276  0.2864
 3187TIP3    H131052   3.873   5.742  14.470  0.6464 -0.2885 -0.7346
 3187TIP3    H231053   3.910   5.887  14.491 -1.3009 -0.0898  2.0622
 3188TIP3   OH231054   1.550   5.049   4.184  0.6786  0.1122  0.1000
 3188TIP3    H131055   1.597   5.009   4.110 -1.6214 -1.5224 -0.6109
 3188TIP3    H231056   1.565   4.989   4.257 -1.6624 -1.4932 -0.6161
 3189TIP3   OH231057   3.678   4.501  14.837  0.3689 -0.1757  0.8703
 3189TIP3    H131058   3.726   4.583  14.846  0.2228  0.1448 -0.8897
 3189TIP3    H231059   3.586   4.527  14.842  0.3037 -0.0931 -0.4808
 3190TIP3   OH231060   5.775   5.609  11.676 -0.2552 -0.4637 -0.0341
 3190TIP3    H131061   5.852   5.666  11.681 -0.9763  0.4702  0.8105
 3190TIP3    H231062   5.810   5.522  11.657  0.8881  0.2108 -1.1308
 3191TIP3   OH231063   1.254   0.645   5.265  0.5600  0.4075 -0.6044
 3191TIP3    H131064   1.303   0.696   5.330 -1.6809  0.2772  1.3507
 3191TIP3    H231065   1.270   0.553   5.290 -1.7889  0.3722  1.0993
 3192TIP3   OH231066   4.480   3.414  17.281 -0.1993  0.1385 -0.3628
 3192TIP3    H131067   4.391   3.377  17.284 -0.0749 -0.1098  0.5222
 3192TIP3    H231068   4.489   3.462  17.364  0.3047  0.6025 -0.6824
 3193TIP3   OH231069   5.644   1.465  12.561 -0.1286  0.2212 -0.2125
 3193TIP3    H131070   5.624   1.558  12.556  1.2202  0.4379 -2.8491
 3193TIP3    H231071   5.602   1.427  12.484  2.0934 -0.7338 -1.0409
 3194TIP3   OH231072   2.706   2.817  12.315  0.6509  0.1939 -0.5796
 3194TIP3    H131073   2.634   2.880  12.313  0.4408 -0.0166  0.1337
 3194TIP3    H231074   2.678   2.747  12.256 -1.5661 -1.8096  2.5161
 3195TIP3   OH231075   5.323   1.160   4.576 -0.2345 -0.4633  0.0142
 3195TIP3    H131076   5.387   1.176   4.645  1.3557 -1.2996 -1.1946
 3195TIP3    H231077   5.284   1.245   4.560  0.5170  0.0591  0.8465
 3196TIP3   OH231078   5.797   6.355   3.609  0.6823  0.8173 -0.5378
 3196TIP3    H131079   5.826   6.391   3.693 -0.2021 -0.0421  0.1428
 3196TIP3    H231080   5.877   6.353   3.556  0.9233  3.0742 -0.3729
 3197TIP3   OH231081   0.591   0.834  11.895 -0.6559 -0.0992  0.2406
 3197TIP3    H131082   0.665   0.839  11.955 -0.2029  0.1726 -0.3269
 3197TIP3    H231083   0.516   0.811  11.950 -0.1994 -0.1110  0.8623
 3198TIP3   OH231084   1.442   2.808  13.624  0.1115  0.4871 -0.0676
 3198TIP3    H131085   1.460   2.740  13.689 -0.3865  1.4669  1.1308
 3198TIP3    H231086   1.477   2.772  13.542 -0.9645 -1.6301  0.3013
 3199TIP3   OH231087   0.041   1.160   4.192 -0.3075 -0.6707  0.4482
 3199TIP3    H131088   0.103   1.211   4.243  0.0742 -1.4573  0.7824
 3199TIP3    H231089  -0.031   1.142   4.253 -1.8154  1.8168 -0.4377
 3200TIP3   OH231090   2.745   0.513  12.344  0.2184 -0.2542  0.0671
 3200TIP3    H131091   2.722   0.425  12.313  1.0242  0.0634 -1.5701
 3200TIP3    H231092   2.775   0.558  12.265 -0.1977  1.5054  0.8803
 3201TIP3   OH231093   5.180   2.955  15.101 -0.7981  0.2026 -0.0533
 3201TIP3    H131094   5.142   2.954  15.189 -2.2770 -1.8681 -0.6439
 3201TIP3    H231095   5.114   2.914  15.046  1.2057 -1.1284 -1.6254
 3202TIP3   OH231096   6.069   5.299   4.958 -0.5540  0.1808  0.2996
 3202TIP3    H131097   6.061   5.348   5.040  0.8830  2.0976 -0.6178
 3202TIP3    H231098   5.980   5.273   4.937 -1.5112  2.7961  0.6769
 3203TIP3   OH231099   2.552   2.601  12.330  0.1997  0.0387  0.4233
 3203TIP3    H131100   2.549   2.657  12.408  1.2459 -0.8772  1.1596
 3203TIP3    H231101   2.482   2.538  12.343  0.7905 -0.5139  0.9491
 3204TIP3   OH231102   1.114   4.704   6.146  0.5087  0.0618 -0.2487
 3204TIP3    H131103   1.041   4.644   6.164 -0.6762  0.8580 -2.0653
 3204TIP3    H231104   1.123   4.701   6.050  3.2340 -0.3794 -0.0336
 3205TIP3   OH231105   6.732   1.417   4.570  0.7755  1.2022  0.5534
 3205TIP3    H131106   6.639   1.412   4.594  0.7199  0.6190  0.2377
 3205TIP3    H231107   6.760   1.326   4.565  1.6242  1.3858  1.5890
 3206TIP3   OH231108   1.717   0.810   1.814 -0.5313  0.0095  0.3422
 3206TIP3    H131109   1.662   0.743   1.773 -0.3044 -0.2106  0.3943
 3206TIP3    H231110   1.711   0.793   1.908  2.1618 -2.0939  0.2714
 3207TIP3   OH231111   5.015   4.300   0.567  0.0376 -0.3882  0.1830
 3207TIP3    H131112   4.990   4.296   0.474 -3.5574 -1.2729  1.0186
 3207TIP3    H231113   5.022   4.393   0.586 -0.1361 -0.1648 -0.7823
 3208TIP3   OH231114   3.480   5.473   2.610 -0.3124 -0.5113  0.0608
 3208TIP3    H131115   3.423   5.550   2.615  1.1585  0.5843  1.0290
 3208TIP3    H231116   3.470   5.442   2.520 -0.6065  1.1102 -0.5009
 3209TIP3   OH231117   4.306   1.630  15.508 -0.0567 -0.2367  0.3385
 3209TIP3    H131118   4.305   1.666  15.597  0.3718  0.8129 -0.0621
 3209TIP3    H231119   4.377   1.677  15.464 -1.2099  0.3320 -0.9799
 3210TIP3   OH231120   3.071   2.813   0.765  0.0715 -0.2960 -0.5595
 3210TIP3    H131121   3.024   2.897   0.766  0.0380 -0.2297 -2.7048
 3210TIP3    H231122   3.022   2.757   0.825  1.2003  1.6920  2.5183
 3211TIP3   OH231123   3.674   1.559   0.981  0.3746 -0.5019 -0.2096
 3211TIP3    H131124   3.749   1.554   1.039  0.3720  0.3968 -0.1081
 3211TIP3    H231125   3.712   1.566   0.893  0.4013 -0.3894 -0.1889
 3212TIP3   OH231126   3.829   6.443   4.928 -0.1353 -0.2454  0.3723
 3212TIP3    H131127   3.749   6.487   4.900 -1.7250 -2.9654  0.2523
 3212TIP3    H231128   3.830   6.454   5.023  0.7510  1.8873  0.1657
 3213TIP3   OH231129   6.141   0.534   6.170  0.6124 -0.3808 -0.7397
 3213TIP3    H131130   6.222   0.582   6.157  0.2436  0.8039  1.0441
 3213TIP3    H231131   6.073   0.592   6.134  0.1567  0.5426  1.4870
 3214TIP3   OH231132   0.676   4.483  13.174  0.2415 -0.2427  0.2446
 3214TIP3    H131133   0.645   4.568  13.204 -0.3526 -1.0985  2.2389
 3214TIP3    H231134   0.708   4.440  13.254  0.5628 -1.8783 -0.7217
 3215TIP3   OH231135   4.753   4.281   2.508 -0.2786 -0.6838 -0.0168
 3215TIP3    H131136   4.662   4.279   2.477 -0.2612  1.4617 -0.3528
 3215TIP3    H231137   4.805   4.260   2.431 -0.3741  1.7470 -0.8275
 3216TIP3   OH231138   3.415   2.573   2.545 -0.4995  0.1760  0.7409
 3216TIP3    H131139   3.353   2.575   2.618 -0.8795  1.0072  0.4061
 3216TIP3    H231140   3.489   2.625   2.575 -0.1384 -0.4703  0.9810
 3217TIP3   OH231141   3.693   0.176   5.509  0.0603  0.7600 -0.1287
 3217TIP3    H131142   3.670   0.260   5.548 -0.0293  0.9194 -0.5183
 3217TIP3    H231143   3.776   0.151   5.550 -0.5291  0.4427  0.8943
 3218TIP3   OH231144   3.327   2.553   5.076 -0.1814 -0.3515  0.0077
 3218TIP3    H131145   3.401   2.605   5.045 -0.4683  1.0433  1.4955
 3218TIP3    H231146   3.258   2.617   5.093 -1.2582 -1.4590 -0.0158
 3219TIP3   OH231147   2.451   0.934   1.675 -0.0321  0.2440  0.2875
 3219TIP3    H131148   2.448   0.987   1.754  0.8519  0.5719  0.1128
 3219TIP3    H231149   2.476   0.995   1.606  2.5516 -0.6257  0.3289
 3220TIP3   OH231150   6.729   6.009  11.611  0.1006  0.2951 -0.1799
 3220TIP3    H131151   6.709   6.006  11.518 -1.1260  0.1370  0.0680
 3220TIP3    H231152   6.695   5.926  11.646  1.2280  0.0061  0.2990
 3221TIP3   OH231153   6.212   0.385  12.683 -0.6701  0.3194 -0.2256
 3221TIP3    H131154   6.219   0.462  12.626 -2.2616 -0.4844 -1.5844
 3221TIP3    H231155   6.262   0.409  12.761  1.0320  1.7339 -1.6457
 3222TIP3   OH231156   6.749   6.465   1.629 -0.6746  0.3787  0.3599
 3222TIP3    H131157   6.809   6.521   1.679  2.4935 -1.4243 -1.1198
 3222TIP3    H231158   6.717   6.401   1.693  0.2810  0.4113  0.8861
 3223TIP3   OH231159   2.440   6.575  14.067  0.2868 -0.2833  0.0271
 3223TIP3    H131160   2.409   6.485  14.072 -0.3762 -0.0768 -0.3215
 3223TIP3    H231161   2.501   6.576  13.993  2.3457 -1.0350  1.6276
 3224TIP3   OH231162   4.920   1.038   5.307 -0.0464 -0.1220 -0.2335
 3224TIP3    H131163   4.946   1.072   5.393  2.2092 -0.1491 -0.8277
 3224TIP3    H231164   4.923   1.114   5.250 -1.3415 -0.1429 -0.3459
 3225TIP3   OH231165   1.779   3.962  13.386 -0.0412  0.4880 -0.3339
 3225TIP3    H131166   1.787   4.052  13.353  0.1165  0.1439 -1.2569
 3225TIP3    H231167   1.726   3.970  13.465  0.6601  1.5025  0.0640
 3226TIP3   OH231168   2.015   1.658   0.841 -0.5479 -0.1450  0.0476
 3226TIP3    H131169   2.006   1.617   0.755 -4.0192  2.8753 -1.2783
 3226TIP3    H231170   2.093   1.713   0.833  0.3221 -1.4114 -0.4285
 3227TIP3   OH231171   2.737   0.648  13.359  0.3174  0.3077 -0.0065
 3227TIP3    H131172   2.708   0.602  13.280  0.3851  1.2948 -0.6374
 3227TIP3    H231173   2.700   0.736  13.350  3.2693  1.6050 -0.8033
 3228TIP3   OH231174   3.439   5.404   6.316  0.5000 -0.2751 -0.3199
 3228TIP3    H131175   3.447   5.499   6.326  0.3006 -0.4210  1.7933
 3228TIP3    H231176   3.527   5.370   6.332  0.4465 -0.4727 -0.4425
 3229TIP3   OH231177   3.347   5.894  16.415 -0.1349  0.0380  0.0416
 3229TIP3    H131178   3.302   5.970  16.379 -2.6636 -1.9443 -1.2887
 3229TIP3    H231179   3.280   5.848  16.466  0.5653 -2.5426 -1.1973
 3230TIP3   OH231180   2.437   0.196  11.184 -0.2466 -0.5768  0.3664
 3230TIP3    H131181   2.369   0.211  11.250  1.2549  0.9665  1.6599
 3230TIP3    H231182   2.392   0.208  11.100 -1.8527 -0.9854  1.1288
 3231TIP3   OH231183   3.287   5.105  15.642 -0.0381 -0.2188 -0.1190
 3231TIP3    H131184   3.299   5.046  15.568  2.3264 -1.4316  1.1231
 3231TIP3    H231185   3.309   5.192  15.607  0.3943 -0.6643 -0.9836
 3232TIP3   OH231186   5.465   4.223  14.563 -0.2092 -0.1214 -0.0163
 3232TIP3    H131187   5.490   4.162  14.633 -1.5486  1.2431  1.7390
 3232TIP3    H231188   5.393   4.180  14.518 -0.0683 -0.5359  0.1510
 3233TIP3   OH231189   6.639   2.923  15.612 -0.3577 -0.8414 -0.0118
 3233TIP3    H131190   6.598   2.844  15.579 -1.1033 -0.3442 -0.3151
 3233TIP3    H231191   6.728   2.897  15.635  0.0337 -1.3274 -1.9008
 3234TIP3   OH231192   6.709   4.489  16.496 -0.2795  0.0045 -0.4938
 3234TIP3    H131193   6.633   4.459  16.546  0.1074 -0.3971 -0.1371
 3234TIP3    H231194   6.761   4.540  16.559 -0.5327  0.7610 -0.8875
 3235TIP3   OH231195   5.037   5.663   5.069 -0.0256 -0.1684 -0.0592
 3235TIP3    H131196   5.016   5.578   5.031  0.1298 -0.4205  0.4102
 3235TIP3    H231197   5.079   5.712   4.998  0.9619 -0.9032 -0.0048
 3236TIP3   OH231198   5.263   1.277  15.231  0.4056 -0.4573  0.1825
 3236TIP3    H131199   5.206   1.240  15.164  1.1319  1.2788 -1.5011
 3236TIP3    H231200   5.267   1.210  15.299 -1.6372 -1.6326 -0.7679
 3237TIP3   OH231201   3.464   1.463  12.632  0.8442 -0.4201  0.0479
 3237TIP3    H131202   3.386   1.496  12.676  1.1374  0.5729 -0.1483
 3237TIP3    H231203   3.436   1.448  12.542  0.7730 -0.4555  0.0760
 3238TIP3   OH231204   0.996   1.292  13.681 -0.8296  0.0170  0.1623
 3238TIP3    H131205   0.915   1.261  13.721  0.1570 -0.7636  1.6886
 3238TIP3    H231206   1.054   1.216  13.685 -0.3687  0.2026 -1.9817
 3239TIP3   OH231207   6.759   4.416   2.215  0.1912 -0.4393  0.5818
 3239TIP3    H131208   6.719   4.490   2.170 -0.8311 -1.0237  0.4954
 3239TIP3    H231209   6.704   4.402   2.292  0.8734 -0.5767  1.0496
 3240TIP3   OH231210   1.169   5.338   1.578  0.7879  0.8504 -0.2258
 3240TIP3    H131211   1.183   5.418   1.527 -1.6352  1.8039  0.4505
 3240TIP3    H231212   1.140   5.369   1.664  2.6382 -0.7582  1.0629
 3241TIP3   OH231213   5.733   6.030   4.023 -0.3496  0.0054  0.5135
 3241TIP3    H131214   5.775   6.090   4.085  1.5071 -0.8679  0.1571
 3241TIP3    H231215   5.685   5.968   4.078  2.3525 -1.5744  1.2274
 3242TIP3   OH231216   3.985   0.820   6.135 -0.0590 -0.7324 -0.0076
 3242TIP3    H131217   4.070   0.855   6.160 -0.1477 -0.2198 -0.4113
 3242TIP3    H231218   3.939   0.807   6.218  0.2508 -0.6015  0.1855
 3243TIP3   OH231219   0.418   5.399  14.855 -0.6206  0.2588  0.2123
 3243TIP3    H131220   0.388   5.431  14.770 -0.2516  1.4471  0.5025
 3243TIP3    H231221   0.437   5.479  14.905  0.2034 -0.4308  1.0360
 3244TIP3   OH231222   0.341   5.079   5.131  0.1728 -0.1361  0.1275
 3244TIP3    H131223   0.377   5.039   5.211  1.5585 -0.2600 -0.5284
 3244TIP3    H231224   0.418   5.105   5.081 -0.6965  1.3649 -0.4784
 3245TIP3   OH231225   6.488   2.233   6.742 -0.1044 -0.0567  0.3383
 3245TIP3    H131226   6.420   2.297   6.762 -0.8811  0.0281 -2.2263
 3245TIP3    H231227   6.533   2.219   6.825 -1.9453  1.4111  1.6612
 3246TIP3   OH231228   6.775   0.536  16.367  0.3851 -0.3165  0.5390
 3246TIP3    H131229   6.709   0.507  16.431  0.0395 -0.2382  0.2253
 3246TIP3    H231230   6.845   0.471  16.373 -1.2945 -2.5231 -1.6455
 3247TIP3   OH231231   2.504   1.027  14.212 -0.3764  1.0767 -0.2812
 3247TIP3    H131232   2.583   1.019  14.265 -0.5484  2.3604  0.2181
 3247TIP3    H231233   2.446   0.958  14.244  0.2760  0.5819 -0.1570
 3248TIP3   OH231234   1.278   6.264  15.109 -0.3741  0.0189 -0.2499
 3248TIP3    H131235   1.339   6.195  15.087  0.0031 -0.0030  0.7751
 3248TIP3    H231236   1.228   6.229  15.183  0.0560  0.9486  0.5068
 3249TIP3   OH231237   2.660   6.289   6.034  0.3036  0.1716  0.3350
 3249TIP3    H131238   2.724   6.236   6.082  0.9598 -1.1329 -1.8734
 3249TIP3    H231239   2.582   6.234   6.029 -0.1290  0.7216  0.7417
 3250TIP3   OH231240   4.906   0.531   3.631 -0.1361 -0.4136 -0.2368
 3250TIP3    H131241   4.919   0.597   3.699 -2.6482  0.4857 -0.5142
 3250TIP3    H231242   4.937   0.573   3.550  0.3409 -0.4584 -0.0828
 3251TIP3   OH231243   3.373   6.072  15.078  0.0058  0.2488 -0.5877
 3251TIP3    H131244   3.446   6.078  15.017  0.5677 -1.0386 -0.0889
 3251TIP3    H231245   3.328   6.157  15.072  1.8304  1.2575 -0.5413
 3252TIP3   OH231246   6.404   0.905  14.619 -0.0126  0.4046  0.5932
 3252TIP3    H131247   6.339   0.975  14.622  0.6420  0.9773  2.4783
 3252TIP3    H231248   6.483   0.943  14.658  1.1057 -0.6536 -0.5156
 3253TIP3   OH231249   2.280   1.140   5.647  0.2932  0.1576 -0.5604
 3253TIP3    H131250   2.241   1.203   5.586 -0.0463  0.7552  0.2578
 3253TIP3    H231251   2.323   1.076   5.591 -0.6244  0.2971 -1.4583
 3254TIP3   OH231252   2.908   0.189  13.965 -0.8946 -0.0801  0.0227
 3254TIP3    H131253   2.812   0.182  13.969 -0.8823  0.3158  1.7698
 3254TIP3    H231254   2.923   0.268  13.914 -1.4906 -0.2447 -0.4264
 3255TIP3   OH231255   0.114   3.541   0.959  0.5721 -0.5213 -0.0849
 3255TIP3    H131256   0.066   3.624   0.953 -0.6807 -1.0375  1.8294
 3255TIP3    H231257   0.190   3.560   1.014  1.3316 -0.2462 -1.1943
 3256TIP3   OH231258   0.756   3.961   3.076 -0.2035  0.0361 -0.1010
 3256TIP3    H131259   0.663   3.959   3.098 -0.2968  0.8853 -0.3630
 3256TIP3    H231260   0.770   4.049   3.041  0.1908 -0.7954 -2.2362
 3257TIP3   OH231261   3.774   1.290  11.946  0.2394  0.3689  0.0687
 3257TIP3    H131262   3.706   1.324  12.004 -0.4366 -2.3436  1.0105
 3257TIP3    H231263   3.735   1.293  11.859  0.1569  1.7734  0.1335
 3258TIP3   OH231264   5.002   3.260  13.857  0.1442 -0.3983  0.5290
 3258TIP3    H131265   4.934   3.325  13.874 -1.5381 -1.7913 -0.5179
 3258TIP3    H231266   4.978   3.222  13.772  1.1541 -2.2360  1.0071
 3259TIP3   OH231267   4.890   2.924  17.072  0.5067  0.3482  0.6216
 3259TIP3    H131268   4.831   2.867  17.023  0.4358  1.4633 -0.6501
 3259TIP3    H231269   4.872   2.905  17.164  0.2080 -1.3724  0.2502
 3260TIP3   OH231270   6.152   3.385   1.860 -0.2541  0.0576  0.3773
 3260TIP3    H131271   6.178   3.319   1.795 -0.7693  0.8391 -0.6595
 3260TIP3    H231272   6.136   3.464   1.808  1.7241  1.4326  1.7555
 3261TIP3   OH231273   5.582   6.198  15.527 -0.1457  0.5127 -0.5658
 3261TIP3    H131274   5.634   6.152  15.594 -1.8759  0.9397  1.1706
 3261TIP3    H231275   5.549   6.128  15.471 -0.4172 -0.1071  0.3364
 3262TIP3   OH231276   4.583   6.292   2.282  0.1113  0.6499  0.3296
 3262TIP3    H131277   4.624   6.318   2.364  0.8274  1.8185 -0.3861
 3262TIP3    H231278   4.612   6.202   2.268  2.6818  1.4926 -0.2720
 3263TIP3   OH231279   3.940   1.113  11.808 -0.0849 -0.1762 -0.1232
 3263TIP3    H131280   3.915   1.168  11.882  0.2193  0.2058 -0.3005
 3263TIP3    H231281   3.911   1.025  11.833  2.5171 -0.6283  1.7146
 3264TIP3   OH231282   1.289   3.176   3.540 -0.1113  0.3828  0.1946
 3264TIP3    H131283   1.250   3.254   3.501  0.6133  0.4656 -0.3923
 3264TIP3    H231284   1.238   3.161   3.619 -2.0249 -0.1337 -1.0559
 3265TIP3   OH231285   4.700   1.960   4.572 -0.3473 -0.3884 -0.3974
 3265TIP3    H131286   4.607   1.945   4.552 -0.4238 -2.5664  1.2827
 3265TIP3    H231287   4.705   2.053   4.594 -2.0885 -0.1908 -0.6892
 3266TIP3   OH231288   6.393   6.212  11.140 -0.2368  0.5587  0.3414
 3266TIP3    H131289   6.448   6.203  11.062 -0.6880 -1.3542  0.2021
 3266TIP3    H231290   6.455   6.236  11.210  0.6898 -0.7042  0.0072
 3267TIP3   OH231291   4.923   1.634  15.770  0.4178  0.3847  0.2655
 3267TIP3    H131292   4.964   1.581  15.702 -1.5687 -2.1545  0.9083
 3267TIP3    H231293   4.866   1.694  15.722  0.1216 -0.3878 -0.3555
 3268TIP3   OH231294   6.534   0.172  17.358 -0.2730 -0.3616  0.1957
 3268TIP3    H131295   6.564   0.248  17.407  1.1682 -1.8372  1.7101
 3268TIP3    H231296   6.586   0.173  17.277  0.9625 -0.6258  0.9649
 3269TIP3   OH231297   2.365   4.311   4.559  0.0649 -0.9287  0.1594
 3269TIP3    H131298   2.408   4.228   4.539 -1.5487 -2.0351  1.0645
 3269TIP3    H231299   2.363   4.314   4.655 -0.9310 -0.3948  0.1318
 3270TIP3   OH231300   6.242   2.447  14.495 -0.6360  0.3762  0.1578
 3270TIP3    H131301   6.258   2.433  14.402 -0.2677 -1.1405  0.4116
 3270TIP3    H231302   6.291   2.526  14.517  0.1792  0.1307 -0.7157
 3271TIP3   OH231303   3.207   1.355   6.419  0.3109 -0.1580  0.1524
 3271TIP3    H131304   3.174   1.284   6.364 -0.0102  0.2757 -0.2281
 3271TIP3    H231305   3.301   1.359   6.400  0.4048 -0.7568  0.4953
 3272TIP3   OH231306   0.815   1.427  17.118 -0.3758  1.2167  0.3002
 3272TIP3    H131307   0.900   1.459  17.149  0.1610  1.4120 -1.2953
 3272TIP3    H231308   0.819   1.332  17.130  0.9304  0.9709 -1.6735
 3273TIP3   OH231309   4.575   3.481  14.559  0.1725 -0.2734  0.5297
 3273TIP3    H131310   4.581   3.524  14.474 -0.1910  3.1970  2.0643
 3273TIP3    H231311   4.666   3.467  14.586  0.3064 -0.2979  0.0660
 3274TIP3   OH231312   6.740   6.173  16.491 -0.0576 -0.0006 -0.1432
 3274TIP3    H131313   6.755   6.241  16.557 -0.7231 -0.8622  0.9389
 3274TIP3    H231314   6.826   6.136  16.475 -0.0506 -0.6806  1.2831
 3275TIP3   OH231315   2.081   0.991  12.624  0.7520  0.7647  0.2004
 3275TIP3    H131316   2.126   0.985  12.708 -0.8238 -2.3985  0.9953
 3275TIP3    H231317   2.024   1.068  12.633  1.2400  0.9972  1.6734
 3276TIP3   OH231318   3.305   0.198   2.349 -0.3596  0.0075 -0.0336
 3276TIP3    H131319   3.216   0.215   2.317 -0.3746  0.2530  0.1323
 3276TIP3    H231320   3.292   0.167   2.438 -0.1516  5.1624  2.1866
 3277TIP3   OH231321   2.041   4.125  11.703  0.3548  0.1970 -0.4016
 3277TIP3    H131322   2.073   4.128  11.613  0.5917 -2.1352 -0.4560
 3277TIP3    H231323   1.945   4.129  11.695  0.3063 -1.3414 -0.9000
 3278TIP3   OH231324   5.096   5.157  13.341  0.3945 -0.0677 -0.3083
 3278TIP3    H131325   5.107   5.211  13.420 -1.0662  0.0516 -0.1697
 3278TIP3    H231326   5.078   5.069  13.375  2.0210 -0.5334 -0.5390
 3279TIP3   OH231327   0.652   1.703   4.269  0.0545  0.6687 -0.3911
 3279TIP3    H131328   0.600   1.623   4.270 -0.2189  0.8402 -0.7548
 3279TIP3    H231329   0.734   1.678   4.228 -0.2570  0.7099 -1.0514
 3280TIP3   OH231330   0.193   3.288   4.757  0.2812  0.2334  0.0205
 3280TIP3    H131331   0.227   3.214   4.708  1.9115  0.9047  0.0562
 3280TIP3    H231332   0.259   3.304   4.825 -0.7993  0.7541  0.9826
 3281TIP3   OH231333   0.519   5.890   3.748 -0.6155 -0.0141 -0.6293
 3281TIP3    H131334   0.570   5.821   3.706  0.8731  0.0658  0.9540
 3281TIP3    H231335   0.431   5.853   3.757  0.0915 -1.6153 -0.0341
 3282TIP3   OH231336   2.447   3.892  16.239 -0.2535  0.1783  0.2506
 3282TIP3    H131337   2.505   3.822  16.270  0.8985  1.7823  1.9586
 3282TIP3    H231338   2.499   3.939  16.174 -0.8052 -0.1643 -0.4533
 3283TIP3   OH231339   4.541   4.587   2.878 -0.2883  0.3952  0.0939
 3283TIP3    H131340   4.502   4.518   2.825 -1.4817  0.5614  0.7434
 3283TIP3    H231341   4.635   4.569   2.874 -0.4703 -0.4453 -0.8715
 3284TIP3   OH231342   4.877   5.532  15.638  0.2648 -0.1893  0.1237
 3284TIP3    H131343   4.879   5.524  15.734 -2.1848  0.3338  0.2985
 3284TIP3    H231344   4.945   5.595  15.618 -0.2424  0.9556  1.7367
 3285TIP3   OH231345   3.870   1.958   2.320 -0.0628  0.0531  0.3287
 3285TIP3    H131346   3.958   1.921   2.324  0.0180  0.2522  3.7261
 3285TIP3    H231347   3.812   1.882   2.330 -0.2778 -0.0130 -1.2956
 3286TIP3   OH231348   2.786   0.398  15.934  0.3292 -0.0581  0.2736
 3286TIP3    H131349   2.733   0.433  16.005  2.7172  0.9055  1.7378
 3286TIP3    H231350   2.752   0.310  15.919 -2.0156  0.7303  0.6687
 3287TIP3   OH231351   3.435   3.928  16.558  0.2595  0.7933 -0.4891
 3287TIP3    H131352   3.458   3.845  16.515 -2.3488 -0.3663  0.1936
 3287TIP3    H231353   3.482   3.924  16.641  1.2261  0.6495 -1.0225
 3288TIP3   OH231354   0.981   4.645   4.221  0.3130  0.1564  0.3498
 3288TIP3    H131355   0.954   4.596   4.144 -1.0690 -2.1565  2.1726
 3288TIP3    H231356   1.026   4.581   4.276  0.1705  1.4149  2.0148
 3289TIP3   OH231357   3.635   6.734  15.491  0.9663 -0.0627  0.1077
 3289TIP3    H131358   3.589   6.690  15.563  2.1917  0.9771  1.5805
 3289TIP3    H231359   3.605   6.688  15.412 -0.5778 -1.1023  1.2428
 3290TIP3   OH231360   1.310   1.776   4.854  0.7662  0.0093  0.4730
 3290TIP3    H131361   1.305   1.832   4.776  0.7048  0.2988  0.6858
 3290TIP3    H231362   1.399   1.740   4.851  0.2554 -1.2516 -0.6103
 3291TIP3   OH231363   2.047   1.375   0.907 -0.4232 -0.0659  0.1610
 3291TIP3    H131364   2.038   1.421   0.990  0.3366 -0.9997  0.7763
 3291TIP3    H231365   1.976   1.410   0.853  0.0024  1.6616  0.6591
 3292TIP3   OH231366   6.695   2.585  11.170  0.5195  0.4432  0.1002
 3292TIP3    H131367   6.639   2.636  11.228 -0.7723 -2.0487  1.2282
 3292TIP3    H231368   6.746   2.529  11.229 -0.0477 -1.4062 -1.0823
 3293TIP3   OH231369   6.547   3.949   4.917 -0.3328  0.7094  0.4981
 3293TIP3    H131370   6.614   3.997   4.868 -0.3676  1.2064  0.9318
 3293TIP3    H231371   6.507   4.014   4.974  0.0188  0.0483  1.5300
 3294TIP3   OH231372   4.201   1.272   5.518  0.3071 -0.5521  0.0774
 3294TIP3    H131373   4.273   1.282   5.456  0.7458 -1.8191  0.3483
 3294TIP3    H231374   4.127   1.243   5.464 -0.7932  3.0938 -0.6072
 3295TIP3   OH231375   4.975   3.440  17.111 -0.4096 -0.3828  0.1872
 3295TIP3    H131376   5.051   3.492  17.138 -0.8755  0.4301 -0.0350
 3295TIP3    H231377   5.009   3.351  17.105  0.4238 -0.1070  0.5160
 3296TIP3   OH231378   5.831   2.911  12.393 -0.9919 -0.0544  0.5244
 3296TIP3    H131379   5.769   2.878  12.329 -0.2028 -1.2670  0.3456
 3296TIP3    H231380   5.810   2.863  12.474  0.4209 -1.4011  0.1565
 3297TIP3   OH231381   1.802   5.575  15.654  0.6550 -0.2789 -0.3350
 3297TIP3    H131382   1.799   5.512  15.726 -2.5828  1.2646  1.1060
 3297TIP3    H231383   1.829   5.657  15.696  0.4379  0.2566 -1.2120
 3298TIP3   OH231384   5.257   4.535   1.177  0.5250 -0.3237  0.3789
 3298TIP3    H131385   5.212   4.520   1.260 -1.0208  0.8716 -0.1745
 3298TIP3    H231386   5.196   4.501   1.111  1.4107 -0.6145 -0.3021
 3299TIP3   OH231387   4.754   1.787   0.584 -0.1511 -0.8430 -0.2254
 3299TIP3    H131388   4.710   1.818   0.663  0.8194 -1.2991  0.5150
 3299TIP3    H231389   4.741   1.692   0.585  1.1739 -1.0518  0.2504
 3300TIP3   OH231390   0.430   0.292   4.722 -0.1691 -0.1365 -0.4745
 3300TIP3    H131391   0.491   0.249   4.782  0.7185  0.5433 -0.8639
 3300TIP3    H231392   0.344   0.277   4.761  0.3315 -0.2041  0.6570
 3301TIP3   OH231393   1.332   2.391   3.117 -0.3403 -0.3846  0.2573
 3301TIP3    H131394   1.411   2.418   3.070 -0.1924  0.5083  0.9742
 3301TIP3    H231395   1.342   2.297   3.129  1.1147 -0.1447  1.2079
 3302TIP3   OH231396   1.529   1.510  11.628 -0.1954 -0.3224 -0.3983
 3302TIP3    H131397   1.618   1.513  11.662 -0.3880  1.4525  0.0157
 3302TIP3    H231398   1.526   1.579  11.562 -1.8532  1.1749  1.1606
 3303TIP3   OH231399   2.886   3.962   2.222  0.0475 -0.0888 -0.1059
 3303TIP3    H131400   2.848   3.882   2.259  1.0580 -1.8412 -2.5355
 3303TIP3    H231401   2.955   3.987   2.283 -1.1734 -0.2180  1.3902
 3304TIP3   OH231402   5.479   6.593  16.468  0.8256 -0.0749 -0.1485
 3304TIP3    H131403   5.455   6.682  16.443 -1.4934 -0.4375  0.5891
 3304TIP3    H231404   5.549   6.604  16.533 -0.1524  1.2631  0.7073
 3305TIP3   OH231405   0.708   2.746   5.852 -0.1169 -0.4031  0.0097
 3305TIP3    H131406   0.615   2.759   5.869 -0.0980 -0.3605  0.0816
 3305TIP3    H231407   0.745   2.835   5.854 -0.2730 -0.2905 -1.1735
 3306TIP3   OH231408   5.335   6.396   5.349  0.0514  0.0573  0.1281
 3306TIP3    H131409   5.337   6.317   5.295  1.8645 -0.6159  1.1070
 3306TIP3    H231410   5.418   6.440   5.331  0.1536  0.4565  1.4409
 3307TIP3   OH231411   6.077   3.161  16.693 -0.0675  0.4784 -0.2790
 3307TIP3    H131412   5.985   3.184  16.693 -0.2454 -0.2171 -0.5162
 3307TIP3    H231413   6.089   3.104  16.617  0.9856  2.1821 -1.4437
 3308TIP3   OH231414   6.173   1.476  17.402 -0.2228 -0.3527 -0.2001
 3308TIP3    H131415   6.194   1.412  17.334 -0.0303  0.0401 -0.5140
 3308TIP3    H231416   6.258   1.501  17.438 -0.4071 -1.7131  1.2607
 3309TIP3   OH231417   0.597   3.528   3.994 -0.3236  0.6317  0.2866
 3309TIP3    H131418   0.535   3.559   3.928  0.1580  1.3579  0.1625
 3309TIP3    H231419   0.683   3.539   3.953 -0.0469  0.6870  0.8695
 3310TIP3   OH231420   2.893   3.922   6.125 -0.1008 -0.4126 -1.1006
 3310TIP3    H131421   2.802   3.899   6.105 -1.0478 -0.3274  2.4932
 3310TIP3    H231422   2.894   4.017   6.130 -1.2228 -0.3968  3.5357
 3311TIP3   OH231423   3.953   5.777  15.421 -0.0902 -1.0606 -0.3217
 3311TIP3    H131424   3.977   5.838  15.491 -0.3515 -1.6837  0.3118
 3311TIP3    H231425   3.973   5.825  15.340 -2.1051  0.6601  0.1212
 3312TIP3   OH231426   5.368   4.493   0.525  0.2346 -0.0871 -0.6776
 3312TIP3    H131427   5.326   4.410   0.548 -1.9775  0.8290 -1.1338
 3312TIP3    H231428   5.352   4.549   0.601 -0.8827  0.7787 -1.5145
 3313TIP3   OH231429   2.386   4.279  12.838 -0.3825  0.3357  0.3843
 3313TIP3    H131430   2.414   4.212  12.900  0.5152 -0.3083 -0.6782
 3313TIP3    H231431   2.291   4.287  12.853 -0.4302 -0.8639  0.8356
 3314TIP3   OH231432   3.012   0.351   1.631 -0.4944 -0.2320  0.2403
 3314TIP3    H131433   2.936   0.358   1.573 -0.9328 -0.4943  0.7776
 3314TIP3    H231434   3.054   0.438   1.626 -2.1582  0.7115  1.7495
 3315TIP3   OH231435   1.324   0.244  13.283  0.3799 -0.5671 -0.1962
 3315TIP3    H131436   1.398   0.254  13.344  1.3654  0.3392 -1.4838
 3315TIP3    H231437   1.358   0.188  13.213 -0.6327 -1.3214 -0.1079
 3316TIP3   OH231438   0.979   3.829   3.864 -0.5623  0.0659 -0.0899
 3316TIP3    H131439   1.002   3.874   3.946  0.4097  1.0085 -0.8453
 3316TIP3    H231440   1.063   3.822   3.817 -0.9176 -1.4329 -0.5474
 3317TIP3   OH231441   5.933   4.276  13.104 -0.0468 -0.3904 -0.2107
 3317TIP3    H131442   5.861   4.280  13.041  0.7984  0.2086 -1.1734
 3317TIP3    H231443   6.009   4.304  13.055  0.9844 -1.6213  0.6127
 3318TIP3   OH231444   4.719   5.132  10.542  0.0811 -0.2468 -0.1640
 3318TIP3    H131445   4.677   5.207  10.500  0.4033  0.7031  1.1756
 3318TIP3    H231446   4.777   5.170  10.608 -0.5176 -1.7015  1.2696
 3319TIP3   OH231447   6.634   0.727  10.305  0.5862 -0.3666  0.7011
 3319TIP3    H131448   6.664   0.655  10.361 -0.3709 -0.9912  0.4289
 3319TIP3    H231449   6.541   0.711  10.293  0.5639  0.3579 -0.2130
 3320TIP3   OH231450   4.474   1.245  14.864  0.2546 -0.5154 -0.7526
 3320TIP3    H131451   4.469   1.316  14.928 -0.4120  0.1390 -1.5049
 3320TIP3    H231452   4.385   1.211  14.859  0.0407  0.1269 -2.0535
 3321TIP3   OH231453   5.528   3.033  17.185 -0.4735  0.3728  0.5169
 3321TIP3    H131454   5.545   2.940  17.170 -1.0268  0.4421 -0.5984
 3321TIP3    H231455   5.604   3.078  17.147 -0.5229  0.4105  0.4624
 3322TIP3   OH231456   5.143   3.517   1.241  0.0128  0.0136  0.6500
 3322TIP3    H131457   5.150   3.462   1.320 -3.0810 -1.4873  0.0742
 3322TIP3    H231458   5.051   3.508   1.215  1.0107 -0.1010 -3.5077
 3323TIP3   OH231459   6.633   6.558  16.147 -0.0926  0.2224 -0.2076
 3323TIP3    H131460   6.685   6.480  16.168 -1.9318 -0.9124  0.3901
 3323TIP3    H231461   6.669   6.588  16.064  0.8730 -1.0840 -0.3050
 3324TIP3   OH231462   4.307   0.999  17.105  0.1848  0.0854  0.0409
 3324TIP3    H131463   4.347   1.006  17.192  1.0744 -1.7753 -0.1773
 3324TIP3    H231464   4.305   0.905  17.087  0.5877  0.4533 -2.2185
 3325TIP3   OH231465   4.792   3.426  10.737  0.1681 -0.7017  0.5418
 3325TIP3    H131466   4.798   3.498  10.800  2.8080 -0.7296  0.4453
 3325TIP3    H231467   4.836   3.353  10.779  0.3987 -1.2659 -0.6327
 3326TIP3   OH231468   4.079   1.068   3.352 -0.0182  0.4217 -0.3282
 3326TIP3    H131469   4.130   1.149   3.348 -0.6322  0.9569  1.6837
 3326TIP3    H231470   4.011   1.086   3.417  0.6095 -2.1129  1.1680
 3327TIP3   OH231471   5.819   0.899   1.528  0.1814  0.3528 -0.3496
 3327TIP3    H131472   5.878   0.975   1.520  2.3022 -0.8574  2.1890
 3327TIP3    H231473   5.878   0.824   1.531 -1.2366 -0.8623  3.5676
 3328TIP3   OH231474   3.832   0.232  16.861  0.1838 -0.2804  0.3717
 3328TIP3    H131475   3.907   0.281  16.828  0.0552 -1.0591 -1.1729
 3328TIP3    H231476   3.756   0.284  16.835  0.1333 -0.0956  0.8763
 3329TIP3   OH231477   2.826   4.219  15.995 -0.0781 -0.2404  0.4568
 3329TIP3    H131478   2.799   4.309  15.980  0.3880 -0.2343 -0.3953
 3329TIP3    H231479   2.911   4.226  16.038 -0.0899 -0.2692  0.4847
 3330TIP3   OH231480   0.177   1.903   3.653 -0.4697  0.3903  0.2067
 3330TIP3    H131481   0.244   1.956   3.611 -0.3800 -0.4301 -0.7225
 3330TIP3    H231482   0.107   1.897   3.588 -0.6499 -0.2867  0.4558
 3331TIP3   OH231483   5.680   2.860  11.445 -0.7681 -0.4443  0.4806
 3331TIP3    H131484   5.734   2.934  11.472 -0.3673 -0.3217 -0.6100
 3331TIP3    H231485   5.596   2.898  11.422 -0.1659 -0.1136 -1.3283
 3332TIP3   OH231486   3.787   5.150   4.094  0.2754  0.3352  0.4672
 3332TIP3    H131487   3.825   5.179   4.177 -0.3045  0.3385  0.7356
 3332TIP3    H231488   3.784   5.055   4.101  1.8911  0.2013 -0.2883
 3333TIP3   OH231489   3.140   2.894   2.654  0.2465 -0.8484  0.3000
 3333TIP3    H131490   3.214   2.833   2.657  0.5110 -0.5143  0.7044
 3333TIP3    H231491   3.073   2.848   2.603 -0.0583 -2.0425  1.6809
 3334TIP3   OH231492   5.091   4.730   0.380 -0.4348  0.0387 -0.0029
 3334TIP3    H131493   5.049   4.810   0.349  0.3943  0.4445 -0.1277
 3334TIP3    H231494   5.181   4.737   0.347 -0.2375 -0.7334  0.3629
 3335TIP3   OH231495   0.094   4.330  13.610 -0.2928 -0.2339  0.4899
 3335TIP3    H131496   0.178   4.289  13.630  0.5892  0.6756 -1.1708
 3335TIP3    H231497   0.113   4.423  13.605 -1.2843 -0.0665 -0.4398
 3336TIP3   OH231498   4.342   6.425   2.519  0.1488  0.2053 -0.3123
 3336TIP3    H131499   4.352   6.436   2.614 -0.1865 -1.4879 -0.0408
 3336TIP3    H231500   4.321   6.332   2.509 -1.8061  0.7658 -1.9066
 3337TIP3   OH231501   2.505   5.984   3.782 -0.1701 -0.2435  0.3742
 3337TIP3    H131502   2.450   6.028   3.718  1.2139 -1.1758 -1.5582
 3337TIP3    H231503   2.551   5.916   3.732  3.0287  0.7265  1.6875
 3338TIP3   OH231504   0.069   0.426   6.338  0.2356  0.4706  0.1192
 3338TIP3    H131505   0.103   0.336   6.337  0.6708  0.6328 -0.5603
 3338TIP3    H231506   0.047   0.444   6.247 -0.7087  0.7436  0.3933
 3339TIP3   OH231507   2.757   6.512  12.491  0.2691 -0.4002  0.1949
 3339TIP3    H131508   2.662   6.516  12.499  0.0704  0.3077 -1.9685
 3339TIP3    H231509   2.775   6.428  12.450  0.3814  0.2691 -1.1877
 3340TIP3   OH231510   5.468   0.160   0.018  0.6974  0.2783 -0.5941
 3340TIP3    H131511   5.547   0.143   0.069 -0.8720 -0.5920  1.6671
 3340TIP3    H231512   5.458   0.255   0.020  0.4460  0.2285  1.0902
 3341TIP3   OH231513   1.513   6.750  17.356 -0.2515  0.0988 -0.4652
 3341TIP3    H131514   1.552   6.812  17.294  0.6718 -0.9300 -0.9557
 3341TIP3    H231515   1.554   6.772  17.440 -1.4975  1.4886 -0.1893
 3342TIP3   OH231516   0.589   0.363  15.301  0.0441 -0.4169 -0.7928
 3342TIP3    H131517   0.530   0.317  15.241 -1.8209  0.8853 -0.0404
 3342TIP3    H231518   0.556   0.342  15.388  0.6663  0.3903 -0.3466
 3343TIP3   OH231519   4.260   4.690  10.847  0.0515  0.6092  0.0755
 3343TIP3    H131520   4.233   4.778  10.874  0.8659  0.9797 -0.2742
 3343TIP3    H231521   4.187   4.658  10.794 -0.4303  0.9098  0.5388
 3344TIP3   OH231522   1.734   4.975  16.911 -0.4954  0.0115  1.0624
 3344TIP3    H131523   1.755   5.065  16.935 -0.3446 -0.1792  1.6610
 3344TIP3    H231524   1.644   4.963  16.941 -0.5248 -0.0294  0.9571
 3345TIP3   OH231525   5.834   6.120  12.582  0.0642 -0.2583 -0.2685
 3345TIP3    H131526   5.746   6.097  12.554 -0.3750 -0.2385  1.0211
 3345TIP3    H231527   5.871   6.169  12.509 -1.5700  1.1169 -0.2416
 3346TIP3   OH231528   4.666   1.007   6.196  0.0399 -0.4502  0.0989
 3346TIP3    H131529   4.744   1.018   6.251  1.9631 -1.8059 -2.1323
 3346TIP3    H231530   4.636   0.918   6.215 -0.8108 -0.0240  0.7597
 3347TIP3   OH231531   1.587   3.252   5.437 -0.0324  0.3430  0.0735
 3347TIP3    H131532   1.578   3.156   5.433 -2.0200  0.4928  0.1088
 3347TIP3    H231533   1.587   3.279   5.345 -0.1206  0.3554  0.0772
 3348TIP3   OH231534   0.168   6.105  14.941 -0.2301  0.4457  0.5550
 3348TIP3    H131535   0.145   6.163  14.868 -0.0522 -0.0352  0.1035
 3348TIP3    H231536   0.094   6.045  14.947 -0.6948  1.0849  1.4180
 3349TIP3   OH231537   1.877   2.226  16.248  0.9453  0.0131  0.5079
 3349TIP3    H131538   1.812   2.200  16.312  0.9070  0.3719  0.6168
 3349TIP3    H231539   1.846   2.311  16.215  0.1025 -0.8805 -1.1598
 3350TIP3   OH231540   4.077   3.584   6.686  0.0773 -0.4060 -0.4075
 3350TIP3    H131541   4.061   3.491   6.705  1.0374 -0.3427  0.8178
 3350TIP3    H231542   3.997   3.628   6.717  0.3044 -0.6616  0.5794
 3351TIP3   OH231543   0.913   1.349  14.808  0.9279  0.3063  0.2779
 3351TIP3    H131544   0.990   1.370  14.861  0.5847  2.2484  0.0853
 3351TIP3    H231545   0.864   1.431  14.803 -1.0225 -0.8054  0.1440
 3352TIP3   OH231546   6.756   4.300  12.832 -0.1923 -0.3364 -0.4762
 3352TIP3    H131547   6.716   4.362  12.771 -0.6743 -0.6174 -0.4524
 3352TIP3    H231548   6.738   4.336  12.919 -0.3441 -0.4263 -0.4683
 3353TIP3   OH231549   3.256   1.038   5.894 -0.0509  0.0869 -0.1896
 3353TIP3    H131550   3.262   0.995   5.979  2.0562 -1.2711 -0.9499
 3353TIP3    H231551   3.225   1.126   5.914 -2.7576 -1.1660  1.6009
 3354TIP3   OH231552   0.815   5.825  15.671 -0.4464 -0.2568 -0.8743
 3354TIP3    H131553   0.818   5.782  15.585 -0.0559 -0.7827 -0.6050
 3354TIP3    H231554   0.723   5.850  15.682 -0.8604 -1.7067 -0.7191
 3355TIP3   OH231555   0.182   4.299   3.898 -0.5771  0.3247  0.4273
 3355TIP3    H131556   0.202   4.227   3.958  0.3939  1.9409  2.1340
 3355TIP3    H231557   0.245   4.288   3.826 -0.6768 -0.7183  0.4916
 3356TIP3   OH231558   0.586   5.947  15.807  0.8495  0.3662  0.2582
 3356TIP3    H131559   0.655   6.011  15.788 -1.1858  2.6760  0.1338
 3356TIP3    H231560   0.527   5.992  15.868 -1.9285 -0.4313 -1.6315
 3357TIP3   OH231561   5.629   5.141   2.560 -0.4907 -0.0172  0.7078
 3357TIP3    H131562   5.639   5.118   2.467  2.6811  3.2163  0.0132
 3357TIP3    H231563   5.642   5.059   2.606 -0.6039 -1.4763 -1.6588
 3358TIP3   OH231564   3.999   6.362   1.264 -0.4096  0.1840 -0.0837
 3358TIP3    H131565   3.918   6.399   1.298 -1.5390  0.1971 -2.6101
 3358TIP3    H231566   4.068   6.402   1.318 -2.0044  0.4310  1.8923
 3359TIP3   OH231567   4.133   3.155   4.401  0.4246  0.0267  0.3955
 3359TIP3    H131568   4.120   3.070   4.445 -0.4796 -1.3860 -2.3937
 3359TIP3    H231569   4.170   3.132   4.316  1.1372  2.5529 -0.0393
 3360TIP3   OH231570   0.344   3.397  13.036  0.7066  0.2575 -0.2540
 3360TIP3    H131571   0.296   3.412  12.955  1.4923 -1.0714 -1.0033
 3360TIP3    H231572   0.420   3.455  13.030 -0.2074  1.5989  0.4652
 3361TIP3   OH231573   5.153   4.572   3.499  0.3302  0.3183 -0.0436
 3361TIP3    H131574   5.100   4.502   3.461  0.3249  0.2291  0.1270
 3361TIP3    H231575   5.133   4.649   3.445 -0.0429  0.3084  0.0744
 3362TIP3   OH231576   5.988   5.247  16.129 -0.0718 -0.3369  0.2828
 3362TIP3    H131577   5.929   5.181  16.166 -0.3175 -0.2495  0.0452
 3362TIP3    H231578   6.075   5.212  16.145 -0.1934 -0.5804  0.4231
 3363TIP3   OH231579   1.399   1.190   6.717 -0.2046  0.0393 -0.3360
 3363TIP3    H131580   1.326   1.166   6.660 -1.1464  1.8602  0.0500
 3363TIP3    H231581   1.364   1.257   6.775  1.4331  0.0320  0.7376
 3364TIP3   OH231582   5.209   0.259  14.822  0.2289  0.5019  0.0411
 3364TIP3    H131583   5.243   0.201  14.754 -0.5222 -0.3380  0.3556
 3364TIP3    H231584   5.264   0.337  14.817  0.7500  0.0925 -0.9314
 3365TIP3   OH231585   2.908   1.374  17.089  0.0930 -0.0380 -0.5110
 3365TIP3    H131586   2.828   1.422  17.066  1.3240  2.4233 -0.0813
 3365TIP3    H231587   2.978   1.435  17.066  1.7094 -0.8263  2.0136
 3366TIP3   OH231588   1.416   4.385  15.343 -0.0465  0.1209 -0.6141
 3366TIP3    H131589   1.475   4.313  15.319  0.3119  0.6845 -1.4557
 3366TIP3    H231590   1.413   4.382  15.439  0.2763 -0.7627 -0.6239
 3367TIP3   OH231591   3.633   4.638  12.182  0.0451 -0.2916 -0.1777
 3367TIP3    H131592   3.558   4.638  12.241 -0.6651  0.2644 -1.0638
 3367TIP3    H231593   3.596   4.623  12.095  0.8667  0.7729 -0.7352
 3368TIP3   OH231594   3.810   3.426  15.282  0.5575 -0.1137  0.0232
 3368TIP3    H131595   3.737   3.402  15.338 -0.2815  1.1120 -0.4959
 3368TIP3    H231596   3.791   3.383  15.199 -0.0994  0.9250 -0.3983
 3369TIP3   OH231597   0.265   5.047  15.137 -0.2815 -0.3864 -0.0981
 3369TIP3    H131598   0.228   5.112  15.077 -1.5954 -0.9122  0.0996
 3369TIP3    H231599   0.222   4.965  15.113 -0.0503 -0.8074  0.8700
 3370TIP3   OH231600   4.664   2.651  14.590  0.0983 -0.4045 -0.3460
 3370TIP3    H131601   4.701   2.739  14.600 -0.1925 -0.1659 -1.2682
 3370TIP3    H231602   4.739   2.592  14.598  0.0323 -0.2433  2.3973
 3371TIP3   OH231603   1.423   6.044  13.788 -0.0381 -0.2298 -0.7549
 3371TIP3    H131604   1.398   6.040  13.695 -1.5896 -1.3162 -0.3298
 3371TIP3    H231605   1.378   6.122  13.821 -0.6641 -0.6474 -0.6066
 3372TIP3   OH231606   0.310   0.307  15.960 -0.1226 -0.6753  0.2943
 3372TIP3    H131607   0.291   0.284  15.869  0.9574  0.0046 -0.1266
 3372TIP3    H231608   0.224   0.321  16.000 -0.6557 -2.0685 -0.3137
 3373TIP3   OH231609   4.422   0.806  14.558 -0.3589  0.6456 -0.5867
 3373TIP3    H131610   4.335   0.776  14.584  0.1638  0.5002  1.1271
 3373TIP3    H231611   4.429   0.893  14.597 -0.0158  0.9625 -1.3508
 3374TIP3   OH231612   0.241   6.222  14.016  0.2167  0.1069  0.4215
 3374TIP3    H131613   0.280   6.281  13.952  1.0209 -1.2333 -0.3887
 3374TIP3    H231614   0.147   6.227  13.998  0.2793  1.0588  0.3146
 3375TIP3   OH231615   4.230   4.024  13.464  0.2695  0.2111 -0.2885
 3375TIP3    H131616   4.251   3.932  13.450  1.7650  0.7131 -1.6602
 3375TIP3    H231617   4.137   4.025  13.487 -0.0512 -1.5395 -1.3827
 3376TIP3   OH231618   1.514   3.316   2.749 -0.3557 -0.2225 -0.2026
 3376TIP3    H131619   1.529   3.383   2.815  1.9387 -0.3425 -0.5200
 3376TIP3    H231620   1.523   3.233   2.797 -1.0482 -0.3206 -0.2291
 3377TIP3   OH231621   1.380   6.621   0.294 -0.1926  0.3496 -0.1480
 3377TIP3    H131622   1.340   6.616   0.207  0.2244 -0.0193 -0.3230
 3377TIP3    H231623   1.375   6.531   0.327  0.2102  0.3643 -0.0474
 3378TIP3   OH231624   0.976   3.676  10.868 -0.0156 -0.0363  0.0591
 3378TIP3    H131625   0.881   3.676  10.881  0.0940 -0.0961  0.8776
 3378TIP3    H231626   0.989   3.728  10.788 -0.8068 -0.9418 -0.6904
 3379TIP3   OH231627   2.868   3.179  13.049 -0.1123  0.0769  0.3222
 3379TIP3    H131628   2.835   3.108  12.994 -1.3418 -1.4088  2.7930
 3379TIP3    H231629   2.797   3.243  13.052  0.5260  0.8965 -0.9100
 3380TIP3   OH231630   6.697   6.402  12.592  0.3186  0.3573  0.4873
 3380TIP3    H131631   6.630   6.452  12.545  0.3843  0.0538  0.0604
 3380TIP3    H231632   6.717   6.329  12.533 -1.8607 -1.8777  2.2728
 3381TIP3   OH231633   5.189   4.266  12.980 -0.0240 -0.1970 -0.2133
 3381TIP3    H131634   5.255   4.225  13.036 -2.1107 -1.2194  1.7026
 3381TIP3    H231635   5.232   4.344  12.944  1.6163  0.2949  2.5103
 3382TIP3   OH231636   3.446   5.200   1.878 -0.2811 -0.0664 -0.4352
 3382TIP3    H131637   3.363   5.196   1.925 -0.1664 -1.4221 -0.3019
 3382TIP3    H231638   3.422   5.192   1.786 -0.3778  0.7663 -0.4858
 3383TIP3   OH231639   3.987   5.629  15.068  0.1619 -0.6207 -0.4153
 3383TIP3    H131640   3.988   5.559  15.002 -0.1223  1.7772 -3.2078
 3383TIP3    H231641   4.077   5.635  15.097  0.4831 -1.2057 -1.2233
 3384TIP3   OH231642   6.431   0.693  17.111 -0.0515  0.1691 -0.6035
 3384TIP3    H131643   6.519   0.728  17.125  0.3768 -0.9546 -0.4124
 3384TIP3    H231644   6.393   0.751  17.046  0.1431  1.8013  0.6677
 3385TIP3   OH231645   3.172   6.071   2.776  0.7143  0.4452 -0.2185
 3385TIP3    H131646   3.104   6.135   2.799  0.2085 -0.5385  1.1586
 3385TIP3    H231647   3.164   6.060   2.682 -0.1660  1.3289 -0.2583
 3386TIP3   OH231648   1.253   4.193  14.093 -0.3763  0.1961  0.8028
 3386TIP3    H131649   1.276   4.148  14.174  0.6660 -1.6719 -0.4438
 3386TIP3    H231650   1.248   4.285  14.116  1.5911 -0.0960  2.6299
 3387TIP3   OH231651   6.480   6.560  14.953 -0.4838 -0.2719 -0.6536
 3387TIP3    H131652   6.516   6.586  15.037 -0.4117  1.0095 -1.0526
 3387TIP3    H231653   6.385   6.563  14.966 -0.4786 -1.1444 -0.3267
 3388TIP3   OH231654   2.644   3.148  17.116  0.1181  0.3929  0.0079
 3388TIP3    H131655   2.693   3.229  17.127 -0.9292  1.3985 -2.1489
 3388TIP3    H231656   2.579   3.149  17.187 -0.0671  1.5995 -0.1638
 3389TIP3   OH231657   3.843   2.277  11.847 -0.2181 -0.0203 -0.2972
 3389TIP3    H131658   3.859   2.190  11.885 -0.7128 -0.5140 -1.2060
 3389TIP3    H231659   3.907   2.285  11.776 -1.6055 -0.5565 -1.6467
 3390TIP3   OH231660   6.583   1.152  15.412  0.9058 -0.2147  0.7553
 3390TIP3    H131661   6.567   1.212  15.485 -0.3801  0.9494 -0.4259
 3390TIP3    H231662   6.623   1.207  15.344  0.5489 -0.8874 -0.0136
 3391TIP3   OH231663   1.141   4.640   2.374  0.8260 -0.0998 -0.3995
 3391TIP3    H131664   1.119   4.673   2.287  2.0377  0.2111 -0.6141
 3391TIP3    H231665   1.221   4.688   2.398 -0.3795  1.0916  1.6119
 3392TIP3   OH231666   2.057   6.701   1.544 -0.2352 -1.2430  0.4737
 3392TIP3    H131667   2.113   6.629   1.513 -0.9825 -1.4943 -0.3211
 3392TIP3    H231668   1.989   6.657   1.595 -0.9981 -1.1554 -0.4602
 3393TIP3   OH231669   0.838   5.567   1.058 -0.0653  0.7415  0.0827
 3393TIP3    H131670   0.831   5.592   1.150 -1.5845  0.6583  0.0251
 3393TIP3    H231671   0.773   5.622   1.014  0.5673  0.7016 -0.9252
 3394TIP3   OH231672   6.297   0.367  13.585 -0.0041  0.5785  0.0591
 3394TIP3    H131673   6.361   0.437  13.570 -1.0197  1.6498  0.6246
 3394TIP3    H231674   6.223   0.390  13.529 -0.3771 -0.0088  0.3072
 3395TIP3   OH231675   4.346   3.890   4.563 -0.6768 -0.1249 -0.4316
 3395TIP3    H131676   4.418   3.934   4.517 -0.6886 -0.9865 -1.3050
 3395TIP3    H231677   4.345   3.931   4.650  0.6261  0.1582 -0.5256
 3396TIP3   OH231678   0.976   4.921   2.804  0.4888  0.1302 -0.5718
 3396TIP3    H131679   0.986   5.015   2.818 -1.2051  0.5455 -1.7828
 3396TIP3    H231680   0.922   4.891   2.878 -0.6053  0.5102 -1.1954
 3397TIP3   OH231681   6.160   3.465  11.707 -0.3240 -0.1610  0.0645
 3397TIP3    H131682   6.203   3.383  11.683 -1.1820 -0.2475 -1.2788
 3397TIP3    H231683   6.080   3.437  11.753 -0.2543 -0.0598  0.2471
 3398TIP3   OH231684   5.407   4.543   1.891  0.7140  0.2686  0.5520
 3398TIP3    H131685   5.498   4.515   1.902  0.5803 -0.5583 -0.3415
 3398TIP3    H231686   5.358   4.492   1.955  0.3718 -2.2041 -1.5131
 3399TIP3   OH231687   2.623   0.653  15.585  0.5186  0.0735 -0.5630
 3399TIP3    H131688   2.653   0.639  15.496  1.0617  0.9006 -0.5223
 3399TIP3    H231689   2.699   0.633  15.640  0.0495 -0.8988 -0.2485
 3400TIP3   OH231690   1.162   4.325  10.912  0.2038  0.4241  0.1137
 3400TIP3    H131691   1.132   4.235  10.923  0.7208  0.0997 -0.9237
 3400TIP3    H231692   1.118   4.355  10.833  0.1345  1.0389  0.3843
 3401TIP3   OH231693   3.825   6.673   0.736 -0.2010  0.6206  0.3125
 3401TIP3    H131694   3.806   6.726   0.813 -0.9342 -0.5787  0.9787
 3401TIP3    H231695   3.919   6.655   0.742 -0.5873 -1.1258  2.0497
 3402TIP3   OH231696   1.639   5.831   5.284 -1.1179  0.1726  0.0585
 3402TIP3    H131697   1.687   5.793   5.211 -3.3920 -1.1634 -0.8360
 3402TIP3    H231698   1.703   5.887   5.328  0.1087  1.8742 -3.4968
 3403TIP3   OH231699   5.136   6.716  13.827 -0.1130 -0.0775 -0.3461
 3403TIP3    H131700   5.069   6.666  13.781  0.5797 -1.3163 -0.0678
 3403TIP3    H231701   5.132   6.803  13.788 -1.1177 -0.4424 -1.1076
 3404TIP3   OH231702   1.697   0.555  13.319 -0.4774 -0.7094  0.0007
 3404TIP3    H131703   1.620   0.507  13.350 -0.6310 -1.2107 -1.1339
 3404TIP3    H231704   1.751   0.489  13.276 -0.2993 -0.0269 -0.8535
 3405TIP3   OH231705   1.504   2.636   3.951  0.5116  0.2467  0.0605
 3405TIP3    H131706   1.490   2.543   3.968 -1.1749  0.1702 -1.4349
 3405TIP3    H231707   1.583   2.658   4.000  0.4890 -1.7729  1.0988
 3406TIP3   OH231708   3.757   1.945   2.634 -0.0538 -0.6075 -0.3865
 3406TIP3    H131709   3.738   1.877   2.569 -0.6423 -0.1603 -0.6924
 3406TIP3    H231710   3.837   1.915   2.677  1.5290  0.0564 -2.6959
 3407TIP3   OH231711   0.556   6.743  12.024 -0.1924  0.3659  0.1180
 3407TIP3    H131712   0.635   6.794  12.045 -0.6371  0.9050  0.5259
 3407TIP3    H231713   0.549   6.680  12.096  0.7385 -0.7496 -0.7406
 3408TIP3   OH231714   5.060   6.410   2.881 -0.3522 -0.0910 -0.3795
 3408TIP3    H131715   5.082   6.356   2.805  0.3809 -0.1593 -0.1337
 3408TIP3    H231716   5.145   6.432   2.920 -0.6773  0.6806 -0.0874
 3409TIP3   OH231717   4.187   4.196  12.232  0.1057  0.1128  0.2280
 3409TIP3    H131718   4.117   4.241  12.185 -0.2800  0.1294  0.8067
 3409TIP3    H231719   4.171   4.103  12.213  0.2321  0.1479 -0.0543
 3410TIP3   OH231720   5.102   4.920   5.005  0.6237  0.4694  0.0233
 3410TIP3    H131721   5.050   4.941   4.927  0.8129  2.3812  0.3616
 3410TIP3    H231722   5.048   4.857   5.053  0.8980 -1.4471 -2.0324
 3411TIP3   OH231723   3.202   6.438   0.402 -0.1229 -0.1537 -1.1910
 3411TIP3    H131724   3.121   6.413   0.358  0.8350 -4.8740 -0.7798
 3411TIP3    H231725   3.272   6.411   0.342  1.2180  1.4818 -0.4548
 3412TIP3   OH231726   2.611   2.877   3.891 -0.5607  0.0117 -0.0186
 3412TIP3    H131727   2.694   2.885   3.845 -0.2394 -0.8234  0.3911
 3412TIP3    H231728   2.628   2.814   3.961 -1.2117  0.7665  0.8423
 3413TIP3   OH231729   4.322   3.920  11.704  0.3213  0.8942  0.0370
 3413TIP3    H131730   4.319   3.910  11.609  1.2012  0.5711  0.0305
 3413TIP3    H231731   4.411   3.950  11.722  1.3434 -2.3502  1.0424
 3414TIP3   OH231732   4.101   1.175   6.199  0.0556 -0.2078 -0.2314
 3414TIP3    H131733   4.022   1.129   6.227  0.6450 -0.2529  1.4822
 3414TIP3    H231734   4.069   1.244   6.141 -1.0722 -1.1875 -0.8363
 3415TIP3   OH231735   1.714   1.793   4.747  0.7836 -0.5441 -0.3823
 3415TIP3    H131736   1.635   1.793   4.802 -0.8393  2.5280 -2.3982
 3415TIP3    H231737   1.784   1.766   4.806 -1.6578 -3.0802  1.6029
 3416TIP3   OH231738   3.252   0.025  10.759 -0.2971 -0.5192 -0.0622
 3416TIP3    H131739   3.269   0.059  10.847 -1.0154  0.1471 -0.1655
 3416TIP3    H231740   3.248  -0.070  10.770 -2.0052 -0.3699  0.9562
 3417TIP3   OH231741   6.402   5.311   4.399 -0.2771 -0.2020 -0.2118
 3417TIP3    H131742   6.366   5.297   4.312  1.0695  2.4452 -1.3052
 3417TIP3    H231743   6.335   5.363   4.445  0.3307  1.1494 -0.8126
 3418TIP3   OH231744   1.666   5.705  12.211 -0.2321  0.0655 -0.2409
 3418TIP3    H131745   1.662   5.797  12.186  1.1835  0.1234 -0.3323
 3418TIP3    H231746   1.595   5.694  12.274 -1.8177  0.6768 -1.8370
 3419TIP3   OH231747   4.572   0.148   2.827 -0.1684 -0.3791  0.4229
 3419TIP3    H131748   4.649   0.118   2.874 -0.2185  0.7974  1.3276
 3419TIP3    H231749   4.498   0.111   2.875 -0.2305  1.1271  1.5480
 3420TIP3   OH231750   6.358   0.494  11.928 -0.2427  0.2805 -0.4943
 3420TIP3    H131751   6.271   0.496  11.887 -0.5156  1.1983  0.0928
 3420TIP3    H231752   6.409   0.557  11.877 -0.7299  1.8163  0.8337
 3421TIP3   OH231753   4.870   3.999   3.079 -0.0939  0.0033  0.3095
 3421TIP3    H131754   4.865   4.012   3.174  0.4344 -1.1701  0.5123
 3421TIP3    H231755   4.927   3.923   3.068 -0.3769 -0.0454 -0.9437
 3422TIP3   OH231756   1.420   4.765   0.963 -0.2477 -0.0427 -0.2394
 3422TIP3    H131757   1.344   4.820   0.945 -2.0447 -1.6477  1.9579
 3422TIP3    H231758   1.389   4.676   0.949  0.8597 -0.8048  1.7875
 3423TIP3   OH231759   5.268   2.345  17.257 -0.1026 -0.4516 -0.3987
 3423TIP3    H131760   5.263   2.384  17.169  0.6565 -1.5565 -0.9514
 3423TIP3    H231761   5.189   2.377  17.301  0.1242  1.1211 -1.0548
 3424TIP3   OH231762   3.015   5.357  12.148  0.0851 -0.1824  0.2572
 3424TIP3    H131763   2.984   5.447  12.153 -1.8397 -0.8143  0.4933
 3424TIP3    H231764   3.043   5.346  12.056 -1.9638 -0.0228 -0.4202
 3425TIP3   OH231765   0.279   3.083   3.958  0.1728  0.1123 -0.2885
 3425TIP3    H131766   0.358   3.031   3.945  0.6641  0.3058  1.5945
 3425TIP3    H231767   0.208   3.027   3.925  1.0506 -0.1320 -1.8339
 3426TIP3   OH231768   1.120   2.129  10.625  0.7405 -0.2375  0.3862
 3426TIP3    H131769   1.050   2.191  10.604  0.8190  0.7947  2.8181
 3426TIP3    H231770   1.077   2.044  10.628  0.3228 -0.1402 -1.4889
 3427TIP3   OH231771   2.379   0.711  12.169 -0.4358  0.1657  0.0643
 3427TIP3    H131772   2.301   0.750  12.131 -0.3116 -0.2134 -0.6077
 3427TIP3    H231773   2.416   0.780  12.224 -2.5567 -0.4380  2.3961
 3428TIP3   OH231774   4.172   0.521   0.029 -0.3975  0.1459 -0.0830
 3428TIP3    H131775   4.125   0.581  -0.028  0.4905  1.8843  0.9286
 3428TIP3    H231776   4.251   0.497  -0.019 -0.6395 -0.0070 -0.3997
 3429TIP3   OH231777   3.304   1.845   2.422  0.2817 -0.4470 -0.1267
 3429TIP3    H131778   3.290   1.818   2.513  2.1331  0.3210  0.4250
 3429TIP3    H231779   3.348   1.930   2.428 -2.9776  1.5544 -1.8002
 3430TIP3   OH231780   2.864   5.379  15.748 -0.0371  0.1738  0.7099
 3430TIP3    H131781   2.837   5.295  15.785  0.7664 -0.5399 -0.2671
 3430TIP3    H231782   2.918   5.419  15.816 -2.8633  1.3555  2.4632
 3431TIP3   OH231783   5.584   0.394   1.734 -0.1725  0.2007 -0.1690
 3431TIP3    H131784   5.491   0.412   1.718 -0.3245 -0.6699 -0.3272
 3431TIP3    H231785   5.617   0.365   1.649 -0.1326 -1.0117  0.2433
 3432TIP3   OH231786   1.430   3.540  11.556  0.7810  0.0495 -0.2798
 3432TIP3    H131787   1.420   3.633  11.576  0.5274  0.0200 -0.2693
 3432TIP3    H231788   1.443   3.498  11.641  0.1364 -0.0204 -0.2113
 3433TIP3   OH231789   3.517   2.175  15.022 -0.7814 -0.7437 -0.1005
 3433TIP3    H131790   3.590   2.230  14.993 -0.2659 -1.4434 -0.1403
 3433TIP3    H231791   3.530   2.166  15.116 -1.4376  0.0259  0.0782
 3434TIP3   OH231792   5.004   5.312  12.727  0.0085 -0.1653 -0.0915
 3434TIP3    H131793   5.030   5.404  12.729  1.5998 -0.5806  0.1701
 3434TIP3    H231794   4.978   5.292  12.817 -2.9462  0.6615 -0.6680
 3435TIP3   OH231795   3.910   0.871  14.475 -0.8073 -0.0969 -0.1501
 3435TIP3    H131796   3.933   0.902  14.387  0.5289  0.0083  0.2048
 3435TIP3    H231797   3.951   0.785  14.482  1.8451  1.1527  1.4077
 3436TIP3   OH231798   2.623   1.073   0.713 -0.8214  0.0622  0.4579
 3436TIP3    H131799   2.538   1.030   0.703 -0.6775 -0.0911 -0.1549
 3436TIP3    H231800   2.638   1.076   0.808 -2.2886  1.6068  0.6879
 3437TIP3   OH231801   3.137   3.433  12.773  0.3347  0.3241 -0.0962
 3437TIP3    H131802   3.203   3.501  12.756 -0.2269  0.4724 -1.9578
 3437TIP3    H231803   3.142   3.417  12.867  3.2670  0.0721 -0.2013
 3438TIP3   OH231804   5.468   4.777  14.120 -0.0556  0.1879  0.4093
 3438TIP3    H131805   5.497   4.721  14.047  0.6429 -0.3980  1.1146
 3438TIP3    H231806   5.501   4.732  14.198  1.5805  2.1741  0.9550
 3439TIP3   OH231807   0.510   4.405   4.093  0.0611  0.1648  0.5862
 3439TIP3    H131808   0.486   4.323   4.048  0.8328  0.1857  0.1251
 3439TIP3    H231809   0.547   4.376   4.176 -0.8796  0.1036  0.9934
 3440TIP3   OH231810   4.528   5.072   0.008 -0.2162 -0.2597 -0.2081
 3440TIP3    H131811   4.495   5.159   0.028 -0.3801 -0.5038  0.5978
 3440TIP3    H231812   4.479   5.013   0.065 -0.4331 -0.9338 -1.0651
 3441TIP3   OH231813   2.329   4.055  15.561  0.1350  0.2517  0.1818
 3441TIP3    H131814   2.380   4.135  15.550  0.2587  0.1360 -0.1138
 3441TIP3    H231815   2.273   4.072  15.636  0.3312  0.5272  0.2682
 3442TIP3   OH231816   0.062   3.504  15.493 -0.1889 -0.2599 -0.3477
 3442TIP3    H131817   0.111   3.467  15.418 -0.4839 -0.6927 -0.3307
 3442TIP3    H231818  -0.023   3.528  15.456  0.1176  0.7206 -0.4302
 3443TIP3   OH231819   0.290   0.176  16.601 -0.0444 -0.0738  0.5779
 3443TIP3    H131820   0.364   0.131  16.560 -0.8135 -2.3768  1.5471
 3443TIP3    H231821   0.217   0.116  16.590 -1.1744  0.9922  1.8829
 3444TIP3   OH231822   0.844   0.862  12.028  0.3437 -0.6537 -0.1268
 3444TIP3    H131823   0.935   0.889  12.013 -0.8845  3.3595 -1.5198
 3444TIP3    H231824   0.821   0.899  12.113 -0.4446 -0.0601 -0.5768
 3445TIP3   OH231825   1.465   3.612   2.339 -0.0114 -0.4445  0.3672
 3445TIP3    H131826   1.438   3.677   2.404  1.3315  2.0620 -1.4095
 3445TIP3    H231827   1.408   3.628   2.264  1.0308 -0.5822 -0.4704
 3446TIP3   OH231828   5.714   6.505  15.766  0.3097 -0.0281  0.1775
 3446TIP3    H131829   5.679   6.424  15.802  0.6831 -0.6851 -0.9025
 3446TIP3    H231830   5.647   6.535  15.705 -0.7115  1.5364  1.9601
 3447TIP3   OH231831   0.587   4.608  17.075 -0.2375 -0.1469  0.3695
 3447TIP3    H131832   0.633   4.678  17.028 -0.8947  0.3846  0.5003
 3447TIP3    H231833   0.657   4.557  17.116  0.3954 -0.9066 -1.5421
 3448TIP3   OH231834   5.858   1.032  15.306  0.3447  0.8278 -0.1112
 3448TIP3    H131835   5.805   1.009  15.229 -0.6807  0.5227  0.6540
 3448TIP3    H231836   5.793   1.047  15.375  1.2967 -0.8037  1.2022
 3449TIP3   OH231837   1.711   2.056  11.999 -0.6690 -0.0097  0.1121
 3449TIP3    H131838   1.681   2.124  11.937 -0.6854  0.3730  0.5350
 3449TIP3    H231839   1.792   2.092  12.035 -0.3712 -0.4791 -0.0898
 3450TIP3   OH231840   0.602   0.753  15.508 -0.1030 -0.0032  0.8040
 3450TIP3    H131841   0.664   0.683  15.486 -0.9941 -0.6228  0.2217
 3450TIP3    H231842   0.564   0.726  15.591  1.5999  1.2145  2.0508
 3451TIP3   OH231843   4.457   4.525   0.604 -0.2897  0.2823  0.1667
 3451TIP3    H131844   4.367   4.538   0.634  0.0998  1.1940  0.9972
 3451TIP3    H231845   4.511   4.549   0.680  0.6941  1.5688 -0.8941
 3452TIP3   OH231846   2.344   5.053  15.625  0.6365  0.7600 -0.1829
 3452TIP3    H131847   2.313   5.034  15.536  2.0931 -1.4236 -0.3099
 3452TIP3    H231848   2.279   5.013  15.683  0.3538  1.0519 -0.2973
 3453TIP3   OH231849   2.951   3.377   0.738 -0.5153  0.5559  0.0775
 3453TIP3    H131850   2.956   3.468   0.768  2.3576  0.6548 -0.4462
 3453TIP3    H231851   2.893   3.380   0.661 -0.0194  2.0445 -0.2672
 3454TIP3   OH231852   3.750   4.257   4.179 -0.2761 -0.6840 -0.2276
 3454TIP3    H131853   3.837   4.289   4.155 -1.2741  1.0802 -1.7345
 3454TIP3    H231854   3.763   4.218   4.266  1.6798  1.0961  0.3840
 3455TIP3   OH231855   5.666   4.397   4.559 -0.3563 -0.6569  0.4054
 3455TIP3    H131856   5.690   4.413   4.468  1.0715  0.6343  0.9629
 3455TIP3    H231857   5.581   4.440   4.569  0.3255  0.8297  0.1253
 3456TIP3   OH231858   1.231   4.752   0.268 -0.3216  0.1869  0.2607
 3456TIP3    H131859   1.166   4.731   0.201  0.6723  0.2649 -0.7667
 3456TIP3    H231860   1.255   4.843   0.250  0.5350 -0.0420  0.2080
 3457TIP3   OH231861   6.252   1.356  13.078 -0.3711 -0.0663 -0.0177
 3457TIP3    H131862   6.306   1.434  13.061 -0.1984 -0.0405  0.6084
 3457TIP3    H231863   6.162   1.388  13.072 -0.3703 -0.2841 -1.9094
 3458TIP3   OH231864   1.936   5.656   1.843 -0.5176  0.3012 -0.4655
 3458TIP3    H131865   1.956   5.750   1.846  2.9637 -0.1978 -2.3354
 3458TIP3    H231866   1.867   5.649   1.777 -1.0105  1.5315 -0.1160
 3459TIP3   OH231867   6.696   0.271  12.454 -0.0846 -0.2698 -0.1859
 3459TIP3    H131868   6.775   0.310  12.417 -0.3868  3.2587  2.4355
 3459TIP3    H231869   6.644   0.247  12.377  2.5849 -0.9196 -1.9684
 3460TIP3   OH231870   4.566   1.332   1.875  0.3119  0.0321  0.3087
 3460TIP3    H131871   4.480   1.368   1.856 -0.4127 -0.8806  1.6836
 3460TIP3    H231872   4.609   1.327   1.790 -1.0263  0.3945 -0.4218
 3461TIP3   OH231873   4.030   2.524   3.488 -0.6039  0.0299  0.1080
 3461TIP3    H131874   4.109   2.553   3.533 -0.1636 -0.7279 -0.1648
 3461TIP3    H231875   4.040   2.430   3.479 -2.8775 -0.5619  2.6900
 3462TIP3   OH231876   2.763   6.523   3.019 -0.2434 -0.1248  0.4662
 3462TIP3    H131877   2.765   6.618   3.025  1.2504  0.0406 -1.7471
 3462TIP3    H231878   2.730   6.495   3.105  0.5410  2.3110  1.6643
 3463TIP3   OH231879   0.138   1.298  14.523  0.1818 -0.7049  0.2400
 3463TIP3    H131880   0.116   1.373  14.578  0.5659 -1.0120  0.8261
 3463TIP3    H231881   0.062   1.284  14.467  0.2570  0.3614 -0.1431
 3464TIP3   OH231882   3.780   6.446  12.919 -0.7608  0.1802  0.2253
 3464TIP3    H131883   3.829   6.446  12.836 -0.5266 -2.5368  0.2676
 3464TIP3    H231884   3.776   6.354  12.944 -3.7628  0.5543  1.5303
 3465TIP3   OH231885   4.201   5.231  14.414  0.4986 -0.2776  0.0930
 3465TIP3    H131886   4.183   5.200  14.326  0.9301  1.0421 -0.4763
 3465TIP3    H231887   4.171   5.159  14.471  1.3173 -1.6391 -1.1417
 3466TIP3   OH231888   6.383   3.873  11.572  0.3386 -0.1119 -0.4619
 3466TIP3    H131889   6.460   3.859  11.627 -0.0507 -0.2228  0.0622
 3466TIP3    H231890   6.411   3.846  11.484  0.5584 -1.1688 -0.0728
 3467TIP3   OH231891   4.936   0.094  16.452 -0.0247  0.0717  0.5491
 3467TIP3    H131892   4.979   0.172  16.487  0.7673  0.4239 -1.1029
 3467TIP3    H231893   4.902   0.121  16.367  0.6340 -1.4732 -0.2546
 3468TIP3   OH231894   1.878   3.933   0.479  0.0362  0.2691 -0.3153
 3468TIP3    H131895   1.876   3.852   0.529 -0.1152  0.7100  0.4120
 3468TIP3    H231896   1.926   3.911   0.400 -0.3170 -0.6166 -0.2916
 3469TIP3   OH231897   6.403   1.082   2.917 -0.3591 -0.2608 -0.3929
 3469TIP3    H131898   6.456   1.159   2.899  2.1830 -2.0269 -1.0319
 3469TIP3    H231899   6.399   1.035   2.834  0.5659 -2.1560  0.5556
 3470TIP3   OH231900   0.211   1.309  17.079  0.4352 -0.7440  0.0612
 3470TIP3    H131901   0.242   1.309  17.170  0.9484  2.2451 -0.0217
 3470TIP3    H231902   0.280   1.355  17.030 -0.0349 -1.9089 -1.8085
 3471TIP3   OH231903   0.720   3.286   3.686 -0.4670 -0.2115 -0.0879
 3471TIP3    H131904   0.701   3.208   3.634 -0.0870 -0.7025  0.4994
 3471TIP3    H231905   0.641   3.340   3.678 -1.4186 -1.4086  0.8707
 3472TIP3   OH231906   5.751   3.594  15.761  0.3898  0.5111  0.5600
 3472TIP3    H131907   5.777   3.514  15.716 -1.6442  0.2645 -0.2791
 3472TIP3    H231908   5.778   3.581  15.852  2.0112 -0.1815  0.0110
 3473TIP3   OH231909   4.989   0.261   3.227  0.9478 -0.1030 -0.2126
 3473TIP3    H131910   5.046   0.330   3.262  1.1497 -0.0409 -0.6663
 3473TIP3    H231911   5.016   0.182   3.274  0.4947  0.1792  0.5480
 3474TIP3   OH231912   3.027   2.077  14.270 -0.2352  0.0394 -0.2068
 3474TIP3    H131913   3.089   2.043  14.334  0.5029 -0.4822 -1.1923
 3474TIP3    H231914   2.961   2.008  14.261 -0.9041  0.5306  0.7248
 3475TIP3   OH231915   3.760   2.210  14.678 -0.0791  0.3432  0.2466
 3475TIP3    H131916   3.736   2.228  14.587  1.8345  0.1722 -0.3488
 3475TIP3    H231917   3.712   2.131  14.700 -0.3669  0.2335 -0.7101
 3476TIP3   OH231918   4.353   5.891  14.657  0.6636  0.3821 -0.0516
 3476TIP3    H131919   4.285   5.958  14.641  0.3008 -0.1797 -0.9505
 3476TIP3    H231920   4.362   5.846  14.573  1.4427 -0.2153  0.3409
 3477TIP3   OH231921   5.856   1.570   1.812 -0.1603 -0.4355  0.0928
 3477TIP3    H131922   5.918   1.639   1.790  1.3058 -0.7455  2.8044
 3477TIP3    H231923   5.810   1.602   1.890 -1.5728 -1.3359 -0.3153
 3478TIP3   OH231924   1.345   4.534   4.883 -0.1389  0.6370  0.0010
 3478TIP3    H131925   1.421   4.494   4.926 -1.7432 -0.6558  1.8144
 3478TIP3    H231926   1.321   4.472   4.815 -0.5617  0.2028  0.5392
 3479TIP3   OH231927   0.743   0.129   6.573  0.4039 -0.2109 -0.0708
 3479TIP3    H131928   0.813   0.132   6.639 -0.2688  0.5836  0.6296
 3479TIP3    H231929   0.755   0.210   6.523 -1.4716  1.2439  1.6435
 3480TIP3   OH231930   4.465   4.991   3.499 -0.8931 -1.1216 -0.2324
 3480TIP3    H131931   4.540   5.051   3.498 -1.8891  0.2031 -2.1651
 3480TIP3    H231932   4.420   5.010   3.581 -0.9663  0.5400 -0.6174
 3481TIP3   OH231933   5.676   6.508   0.054  0.0348  0.7151 -0.0574
 3481TIP3    H131934   5.675   6.569  -0.021  0.2038 -0.1205 -0.7522
 3481TIP3    H231935   5.761   6.523   0.095  0.5896  0.0974 -0.9533
 3482TIP3   OH231936   2.628   0.726  14.136 -0.1334 -0.0296 -0.2816
 3482TIP3    H131937   2.667   0.722  14.223 -2.1263 -0.1063  0.6729
 3482TIP3    H231938   2.566   0.653  14.134 -0.9218  0.6336 -1.3431
 3483TIP3   OH231939   0.649   5.242  13.913  0.1660  0.1910  0.2044
 3483TIP3    H131940   0.736   5.282  13.916  0.4787 -0.2869 -1.5049
 3483TIP3    H231941   0.665   5.150  13.894 -0.6851 -0.1140  0.9161
 3484TIP3   OH231942   3.495   4.307   0.660 -0.2268 -0.2371 -0.5612
 3484TIP3    H131943   3.542   4.384   0.693 -0.7654  0.1321 -0.6533
 3484TIP3    H231944   3.498   4.244   0.732 -0.1587  0.0316 -0.3294
 3485TIP3   OH231945   4.864   5.228   3.680 -0.1275 -0.2314 -0.3070
 3485TIP3    H131946   4.921   5.272   3.617 -1.5806  1.3401 -0.5765
 3485TIP3    H231947   4.890   5.136   3.675  1.5663  0.2531 -1.2640
 3486TIP3   OH231948   2.079   6.013   4.306  0.3250 -0.4159 -1.3589
 3486TIP3    H131949   2.052   6.046   4.392 -1.4325 -1.9880 -1.2415
 3486TIP3    H231950   2.173   6.032   4.301  0.3027  0.4157  0.5596
 3487TIP3   OH231951   5.161   1.597   4.382 -0.6552  0.3328  0.2105
 3487TIP3    H131952   5.081   1.581   4.430  0.0097 -0.1691  1.1776
 3487TIP3    H231953   5.155   1.540   4.305 -1.0757  0.0528  0.4492
 3488TIP3   OH231954   3.643   4.560   3.094 -0.0567  0.5431  0.0474
 3488TIP3    H131955   3.680   4.574   3.182  1.5566  4.4581 -1.0476
 3488TIP3    H231956   3.582   4.632   3.082 -3.1271 -1.9665 -0.8394
 3489TIP3   OH231957   3.681   6.326   4.025 -0.3913  0.1277  0.0141
 3489TIP3    H131958   3.693   6.352   4.117 -0.8078  1.5982 -0.3248
 3489TIP3    H231959   3.760   6.278   4.003  0.8614  1.8977  0.4376
 3490TIP3   OH231960   4.372   0.285  17.115  0.0484  0.3712 -0.0052
 3490TIP3    H131961   4.370   0.296  17.020  0.5143 -0.2813 -0.0979
 3490TIP3    H231962   4.329   0.201  17.131 -0.1186  0.5249  0.3672
 3491TIP3   OH231963   2.659   6.162   4.827 -0.0301 -0.4954  0.0522
 3491TIP3    H131964   2.672   6.162   4.732  0.0737  2.1152 -0.0015
 3491TIP3    H231965   2.566   6.177   4.839 -0.4164 -2.8607  0.4259
 3492TIP3   OH231966   1.198   0.275  16.493 -0.1302  0.1710 -0.1676
 3492TIP3    H131967   1.236   0.218  16.426  1.2627  1.6464 -0.7016
 3492TIP3    H231968   1.240   0.359  16.479 -1.8531  1.2503  0.8344
 3493TIP3   OH231969   4.013   1.588   0.180 -0.2581 -0.1188 -0.0069
 3493TIP3    H131970   3.920   1.608   0.166  0.2887  1.7376 -1.4484
 3493TIP3    H231971   4.041   1.650   0.247  0.1632  0.0069 -0.2958
 3494TIP3   OH231972   2.485   6.078  13.452  0.2777  0.5045  0.0101
 3494TIP3    H131973   2.403   6.042  13.487 -0.5106  2.5200  0.3850
 3494TIP3    H231974   2.484   6.057  13.359 -0.1700 -0.3752  0.2108
 3495TIP3   OH231975   5.634   3.934  12.777  0.0746 -0.2311  0.4206
 3495TIP3    H131976   5.556   3.886  12.750 -1.5084  2.2249  0.3222
 3495TIP3    H231977   5.648   3.908  12.868 -0.6041 -0.9750  0.3203
 3496TIP3   OH231978   6.217   5.729  17.235 -0.1430  0.0829 -0.3669
 3496TIP3    H131979   6.249   5.802  17.182  0.0810 -0.0852 -0.4731
 3496TIP3    H231980   6.125   5.748  17.251 -0.1623  0.2376 -0.6513
 3497TIP3   OH231981   5.124   4.457  13.392  0.2027  0.1263  0.1318
 3497TIP3    H131982   5.164   4.371  13.381 -0.8165 -0.3915  0.3378
 3497TIP3    H231983   5.153   4.507  13.316  2.4805  0.2935  1.0395
 3498TIP3   OH231984   4.902   4.652   1.468 -0.4175 -0.1329  0.4421
 3498TIP3    H131985   4.996   4.650   1.488 -0.5786 -0.9234  1.1894
 3498TIP3    H231986   4.884   4.567   1.428 -0.7411  0.1854 -0.1031
 3499TIP3   OH231987   3.236   5.082   4.284  0.2140 -0.2121  0.2480
 3499TIP3    H131988   3.321   5.120   4.305 -0.4042  0.5352  1.5303
 3499TIP3    H231989   3.181   5.157   4.262 -0.2875 -0.6291  0.0577
 3500TIP3   OH231990   3.169   6.297  15.601  0.4318 -0.1569 -0.2888
 3500TIP3    H131991   3.123   6.220  15.571  0.4666  0.8908 -3.3568
 3500TIP3    H231992   3.212   6.332  15.523  1.8566  1.9980  1.3237
 3501TIP3   OH231993   6.296   1.147  17.026 -0.1381 -0.0786 -0.5341
 3501TIP3    H131994   6.376   1.107  16.993 -0.4227  0.1605 -1.5627
 3501TIP3    H231995   6.264   1.199  16.952 -0.0295  1.6660  0.6030
 3502TIP3   OH231996   5.330   3.727   0.922  0.1071  0.2428  0.1143
 3502TIP3    H131997   5.364   3.656   0.976 -2.3186 -0.4987  0.8000
 3502TIP3    H231998   5.368   3.712   0.835  1.1321 -0.7324  0.7086
 3503TIP3   OH231999   4.119   4.411  12.440 -0.1020 -0.8766  0.0075
 3503TIP3    H132000   4.169   4.356  12.380  0.2922 -2.0290  1.3337
 3503TIP3    H232001   4.044   4.358  12.465 -1.0426  0.1444 -0.5458
 3504TIP3   OH232002   1.025   3.038  14.817  0.5504 -0.1517  0.1972
 3504TIP3    H132003   1.115   3.022  14.787  0.8390 -0.3104  1.1270
 3504TIP3    H232004   1.019   3.133  14.823  1.0397 -0.1750  1.2414
 3505TIP3   OH232005   6.580   2.929   5.997 -0.3275  0.0525 -0.1469
 3505TIP3    H132006   6.667   2.951   6.032 -0.3535 -0.5060  0.2818
 3505TIP3    H232007   6.598   2.884   5.914 -0.1754 -0.6967  0.2852
 3506TIP3   OH232008   4.655   3.128  14.828 -0.3010 -0.4854  0.2051
 3506TIP3    H132009   4.575   3.112  14.778 -0.0364  1.0546 -0.7615
 3506TIP3    H232010   4.725   3.089  14.774 -0.2199 -0.4730  0.3014
 3507TIP3   OH232011   1.773   6.483   1.415  0.1427 -0.5757  0.4618
 3507TIP3    H132012   1.843   6.419   1.406  0.1335 -0.3707 -1.9392
 3507TIP3    H232013   1.735   6.466   1.501  1.7564 -2.0853  0.9378
 3508TIP3   OH232014   5.323   5.863  13.062  0.1977  0.1939  0.0459
 3508TIP3    H132015   5.378   5.810  13.004 -0.6420 -0.8686  0.1909
 3508TIP3    H232016   5.372   5.869  13.144  0.6623  0.3459 -0.2397
 3509TIP3   OH232017   3.810   3.006   2.511 -0.2883 -0.0459 -0.0774
 3509TIP3    H132018   3.768   3.072   2.566  1.9033  1.2702  0.1059
 3509TIP3    H232019   3.763   3.012   2.427 -0.3310  1.5581  0.0362
 3510TIP3   OH232020   5.051   1.713  11.957  0.5571  0.0285 -0.3048
 3510TIP3    H132021   5.059   1.802  11.924  2.0778 -0.4129 -1.2210
 3510TIP3    H232022   5.135   1.672  11.937  0.3548 -1.2456  1.2378
 3511TIP3   OH232023   1.877   1.401  10.714  0.8745 -0.2858  0.1853
 3511TIP3    H132024   1.861   1.358  10.630 -2.2502 -0.5783  0.8039
 3511TIP3    H232025   1.871   1.331  10.779 -0.6772  0.4508  0.9044
 3512TIP3   OH232026   5.904   3.379  15.631  0.0952  0.0900  0.3664
 3512TIP3    H132027   5.958   3.343  15.701 -0.3706  0.2028  0.7857
 3512TIP3    H232028   5.964   3.437  15.583  0.2888  0.3919  0.9656
 3513TIP3   OH232029   1.518   1.370   4.399 -0.0228  0.4544 -0.3814
 3513TIP3    H132030   1.537   1.451   4.446  0.1109  0.2416 -0.0613
 3513TIP3    H232031   1.577   1.305   4.439  0.2559  0.3209 -1.0031
 3514TIP3   OH232032   2.306   4.007  11.282 -0.6415  0.6029 -0.1103
 3514TIP3    H132033   2.233   3.961  11.240 -0.4405  0.1691  0.0073
 3514TIP3    H232034   2.384   3.967  11.244 -0.4547 -0.0385  0.9181
 3515TIP3   OH232035   1.711   3.470   0.931 -0.8109 -0.2327  0.3388
 3515TIP3    H132036   1.799   3.501   0.953 -0.6676 -0.9154  0.7369
 3515TIP3    H232037   1.660   3.482   1.011 -1.8014  2.5655 -0.5622
 3516TIP3   OH232038   1.276   2.955   2.048  0.0049 -0.5563  0.1438
 3516TIP3    H132039   1.196   2.930   2.001  1.1208 -1.0956 -1.5540
 3516TIP3    H232040   1.265   3.048   2.066 -0.3389 -0.2392 -1.5332
 3517TIP3   OH232041   2.389   6.728  11.374 -0.1166 -0.7950 -0.5452
 3517TIP3    H132042   2.483   6.717  11.386 -0.1789 -0.5460  0.2047
 3517TIP3    H232043   2.380   6.816  11.337 -0.1881  0.1507  1.5742
 3518TIP3   OH232044   4.657   4.366  14.949  0.0501 -0.4346 -0.0385
 3518TIP3    H132045   4.590   4.298  14.958 -1.7891  1.3862  0.8785
 3518TIP3    H232046   4.698   4.370  15.035  0.7987 -0.9715 -0.3588
 3519TIP3   OH232047   2.975   6.617   2.362  0.1360  0.5129  0.1691
 3519TIP3    H132048   2.897   6.572   2.393  0.2594  0.3172  0.2022
 3519TIP3    H232049   3.021   6.550   2.310  0.0829  0.7429 -0.1774
 3520TIP3   OH232050   0.999   4.872   1.380  0.5834 -0.3942 -0.3119
 3520TIP3    H132051   1.057   4.796   1.374 -0.0299 -0.8252 -1.0385
 3520TIP3    H232052   0.986   4.899   1.289  1.1902  0.9012 -0.0327
 3521TIP3   OH232053   4.104   6.484  16.178  0.4473 -0.0644 -0.0732
 3521TIP3    H132054   4.049   6.448  16.109  0.9579 -1.2180  0.1034
 3521TIP3    H232055   4.074   6.442  16.258  0.2551  0.8184  0.3328
 3522TIP3   OH232056   1.373   0.191   2.826 -0.1462  0.2963  0.2688
 3522TIP3    H132057   1.356   0.120   2.888 -1.8190  1.1194  0.8424
 3522TIP3    H232058   1.423   0.255   2.877  1.0876 -0.3006 -0.1555
 3523TIP3   OH232059   4.934   4.104  14.518 -0.3974 -0.6974 -0.3339
 3523TIP3    H132060   4.941   4.198  14.503 -1.8846 -0.6444 -0.8610
 3523TIP3    H232061   4.964   4.064  14.437  0.9249 -0.7244  0.1440
 3524TIP3   OH232062   1.521   2.609   3.184  0.4756 -0.1439  0.5430
 3524TIP3    H132063   1.545   2.516   3.192 -1.0578 -0.7311 -1.0574
 3524TIP3    H232064   1.488   2.633   3.271  0.4594 -1.2246  0.8476
 3525TIP3   OH232065   0.940   4.391  11.812 -0.2095 -0.1306 -0.5280
 3525TIP3    H132066   0.847   4.411  11.817 -0.6403 -2.1167  0.5885
 3525TIP3    H232067   0.943   4.299  11.786  1.4514 -0.1199 -0.4765
 3526TIP3   OH232068   4.025   1.402  16.541 -0.7585 -0.1352  0.0982
 3526TIP3    H132069   4.098   1.463  16.541 -0.1330 -0.8430  1.2515
 3526TIP3    H232070   4.034   1.353  16.459  0.7513 -0.9776  0.7293
 3527TIP3   OH232071   4.418   5.608   6.372  0.1798  0.3454 -0.6058
 3527TIP3    H132072   4.366   5.688   6.366  0.9056  0.8863  0.1462
 3527TIP3    H232073   4.509   5.637   6.362  0.5295 -0.2415  0.5804
 3528TIP3   OH232074   1.392   1.855  16.042  0.1228 -0.0270 -0.5794
 3528TIP3    H132075   1.307   1.816  16.019  0.2543 -1.0529  0.5286
 3528TIP3    H232076   1.376   1.901  16.124  0.7790 -0.8625  0.0418
 3529TIP3   OH232077   0.147   1.659  14.948 -0.6648 -0.3056 -0.2960
 3529TIP3    H132078   0.167   1.732  15.006 -0.2622  1.0279 -2.0094
 3529TIP3    H232079   0.052   1.649  14.952 -0.4964 -1.6484  2.1195
 3530TIP3   OH232080   1.255   2.163  16.843 -0.0594  0.0696 -0.2428
 3530TIP3    H132081   1.198   2.224  16.891  1.2078  0.8007  0.3770
 3530TIP3    H232082   1.225   2.076  16.869  0.9043  0.4219  2.3407
 3531TIP3   OH232083   0.325   5.887  16.333  0.0542  0.0219 -0.2270
 3531TIP3    H132084   0.366   5.940  16.401 -0.3747  1.2557 -0.9153
 3531TIP3    H232085   0.242   5.930  16.316 -0.1854 -0.7235 -0.9949
 3532TIP3   OH232086   0.557   0.773   6.566 -0.7790  0.5374  0.5292
 3532TIP3    H132087   0.525   0.802   6.481 -0.0298  0.0953  0.0932
 3532TIP3    H232088   0.478   0.744   6.612 -0.9875 -1.1238 -0.7629
 3533TIP3   OH232089   2.552   2.048  15.461 -0.0133  0.3426 -0.4013
 3533TIP3    H132090   2.541   2.038  15.367 -1.6884  1.5610 -0.3852
 3533TIP3    H232091   2.475   2.007  15.499 -0.5360  1.8850  0.2834
 3534TIP3   OH232092   1.825   5.858  12.541  0.2617  0.0169 -0.7234
 3534TIP3    H132093   1.892   5.829  12.603 -1.3866 -3.4807 -0.3249
 3534TIP3    H232094   1.837   5.801  12.465 -0.8139  0.9132 -1.6045
 3535TIP3   OH232095   5.540   0.396   0.279  0.5328  0.2723 -0.1817
 3535TIP3    H132096   5.446   0.390   0.259  0.3627  0.8251  0.4330
 3535TIP3    H232097   5.544   0.443   0.362  1.4355  2.1676 -1.2159
 3536TIP3   OH232098   5.059   6.505   3.378  0.1198  0.0937 -0.4750
 3536TIP3    H132099   5.144   6.505   3.333  0.5070 -0.7375  0.2290
 3536TIP3    H232100   5.059   6.423   3.427  0.1910  1.4900  1.9827
 3537TIP3   OH232101   5.521   5.602   0.000  0.4451 -0.3174 -0.2955
 3537TIP3    H132102   5.475   5.632  -0.078 -1.5814  0.8385  1.2285
 3537TIP3    H232103   5.571   5.678   0.029  1.0920 -0.6996 -0.4109
 3538TIP3   OH232104   1.800   4.788  13.617 -0.2266  0.4358 -0.0931
 3538TIP3    H132105   1.853   4.710  13.636 -1.9602 -0.7375  0.1827
 3538TIP3    H232106   1.844   4.858  13.664  1.7092 -0.2235 -0.7961
 3539TIP3   OH232107   3.056   1.223  14.206  0.3599 -0.2944 -0.4712
 3539TIP3    H132108   3.100   1.243  14.123  1.4399  0.7767  0.3241
 3539TIP3    H232109   3.073   1.130  14.220  0.5373 -0.3858 -1.2369
 3540TIP3   OH232110   1.425   6.097  11.708 -0.1604 -0.4156  0.6430
 3540TIP3    H132111   1.445   6.007  11.680 -0.1578 -0.1358 -0.2620
 3540TIP3    H232112   1.489   6.114  11.777  1.0653 -0.4648 -0.4385
 3541TIP3   OH232113   3.091   1.746   4.348  0.1412  0.4173  0.2684
 3541TIP3    H132114   3.171   1.790   4.378 -0.3053  1.6830 -0.2995
 3541TIP3    H232115   3.020   1.799   4.385 -0.5652 -2.1763  3.0174
 3542TIP3   OH232116   0.705   6.010  12.786  0.0768 -0.4557 -0.1258
 3542TIP3    H132117   0.706   5.919  12.817 -2.0789 -1.0731 -1.6515
 3542TIP3    H232118   0.648   6.009  12.709 -1.1392  2.4280  0.5786
 3543TIP3   OH232119   5.747   5.844  16.049 -0.2503 -0.1195 -0.5334
 3543TIP3    H132120   5.774   5.754  16.070  0.4000  0.1969  0.0646
 3543TIP3    H232121   5.680   5.835  15.982 -1.2558 -1.1352  0.5590
 3544TIP3   OH232122   4.214   1.999  14.981  0.1070  0.4850  0.6651
 3544TIP3    H132123   4.128   2.011  14.940 -0.2290 -1.3328  0.7484
 3544TIP3    H232124   4.274   2.049  14.926 -0.5337 -0.8349 -1.3376
 3545TIP3   OH232125   4.169   0.533   3.113 -0.0862 -0.9252 -0.3650
 3545TIP3    H132126   4.238   0.516   3.178 -2.0546  1.3268  2.5883
 3545TIP3    H232127   4.192   0.619   3.077 -2.2296  0.9799  2.3147
 3546TIP3   OH232128   4.060   3.377  17.035 -0.2986 -0.2554 -0.1105
 3546TIP3    H132129   4.132   3.404  16.979 -0.4012 -0.5395 -0.3817
 3546TIP3    H232130   4.068   3.282  17.040  2.0855 -0.0579  3.5205
 3547TIP3   OH232131   0.795   4.660   3.664 -0.3826 -0.1948  0.5396
 3547TIP3    H132132   0.738   4.637   3.737 -1.7936 -0.2375 -0.5501
 3547TIP3    H232133   0.762   4.744   3.632 -0.5189 -0.7321 -0.7791
 3548TIP3   OH232134   1.183   2.878   4.967 -0.2634 -0.3688 -0.2341
 3548TIP3    H132135   1.200   2.950   4.905 -0.1533  0.7028  0.9943
 3548TIP3    H232136   1.087   2.870   4.967 -0.4941  1.5306  1.4550
 3549TIP3   OH232137   5.578   6.016   2.925  0.5338  0.3911 -0.1445
 3549TIP3    H132138   5.613   5.928   2.935 -0.0776  0.2981  1.5306
 3549TIP3    H232139   5.517   6.009   2.851  0.8941 -0.4584 -0.3721
 3550TIP3   OH232140   3.436   2.978  11.482 -0.1634  0.1981  0.7663
 3550TIP3    H132141   3.432   3.071  11.460 -0.7952 -0.3008 -1.4627
 3550TIP3    H232142   3.349   2.945  11.461  0.2852 -1.0510  0.7926
 3551TIP3   OH232143   0.351   2.508  11.279  0.4721  0.2370  0.0931
 3551TIP3    H132144   0.398   2.570  11.223 -1.4212  0.3473 -1.4490
 3551TIP3    H232145   0.398   2.425  11.266 -0.4098  0.0425 -2.4362
 3552TIP3   OH232146   2.260   2.974   3.565  0.5539  0.0767  0.2228
 3552TIP3    H132147   2.181   3.016   3.600  0.0955  0.6402 -1.3779
 3552TIP3    H232148   2.299   2.930   3.640 -1.6150 -0.7496  0.9421
 3553TIP3   OH232149   3.064   4.410  11.754  0.4429 -0.4952 -0.0020
 3553TIP3    H132150   2.977   4.382  11.782  0.4579 -2.4319 -1.6584
 3553TIP3    H232151   3.049   4.492  11.707 -0.3725 -0.3821  0.4438
 3554TIP3   OH232152   4.995   3.618   1.640  0.0289 -0.0006 -0.3118
 3554TIP3    H132153   5.040   3.535   1.660 -1.2658 -0.8989 -1.0025
 3554TIP3    H232154   5.065   3.683   1.641  1.2121 -1.2107 -0.4352
 3555TIP3   OH232155   4.013   6.116   2.252 -0.0004  0.0437 -0.7543
 3555TIP3    H132156   3.995   6.172   2.176 -4.0896 -0.2525 -0.2211
 3555TIP3    H232157   3.974   6.032   2.229 -0.6270 -0.2874  1.3466
 3556TIP3   OH232158   4.608   3.453   3.741 -0.0022  0.2887 -0.1778
 3556TIP3    H132159   4.550   3.387   3.702  0.7010 -0.3547 -0.1494
 3556TIP3    H232160   4.685   3.404   3.768  0.7172  1.2051 -0.5418
 3557TIP3   OH232161   4.846   0.065  17.084 -0.2628  0.3740 -0.1416
 3557TIP3    H132162   4.888   0.075  16.999 -0.6187  1.0527 -0.2472
 3557TIP3    H232163   4.776   0.131  17.084  1.4518  2.3577  1.7370
 3558TIP3   OH232164   4.214   6.312   0.605  0.7049  0.2020  0.1778
 3558TIP3    H132165   4.200   6.397   0.563  3.1716  0.9747  0.8137
 3558TIP3    H232166   4.274   6.330   0.677  1.4608 -2.1184  0.1913
 3559TIP3   OH232167   4.740   4.909  12.511  0.1832 -0.4780  0.3016
 3559TIP3    H132168   4.717   5.001  12.502  1.7447 -0.0729  0.1527
 3559TIP3    H232169   4.686   4.864  12.446  0.5756  0.5484 -0.7728
 3560TIP3   OH232170   4.635   2.291  11.711 -0.2598 -0.4102 -0.2002
 3560TIP3    H132171   4.713   2.346  11.711 -0.1496 -0.5504 -1.2935
 3560TIP3    H232172   4.579   2.328  11.642 -0.7715 -0.8454 -0.0263
 3561TIP3   OH232173   2.503   4.550  14.532  0.2940 -0.1267 -0.2779
 3561TIP3    H132174   2.470   4.467  14.499 -0.0723  0.1157 -0.5350
 3561TIP3    H232175   2.536   4.596  14.454  1.0128 -0.2621 -0.0589
 3562TIP3   OH232176   5.261   0.266  15.512 -0.2900  0.0766 -0.3282
 3562TIP3    H132177   5.245   0.221  15.429 -0.6380  0.6993 -0.6026
 3562TIP3    H232178   5.348   0.304  15.502  0.3858 -1.2554  0.2417
 3563TIP3   OH232179   0.639   4.223  13.576  0.2526 -0.0287 -0.0272
 3563TIP3    H132180   0.627   4.135  13.541  0.0883 -0.0961  0.2004
 3563TIP3    H232181   0.721   4.218  13.625  0.9654  0.2970 -1.1412
 3564TIP3   OH232182   4.743   0.232   5.144  0.0835 -0.0479  0.4626
 3564TIP3    H132183   4.769   0.195   5.228 -0.3906 -0.2759  0.5085
 3564TIP3    H232184   4.803   0.193   5.080  1.6136  1.4449  0.9059
 3565TIP3   OH232185   1.775   5.013  11.157  0.1751 -0.3700  0.2746
 3565TIP3    H132186   1.832   4.948  11.117 -0.9890 -0.4940 -1.2505
 3565TIP3    H232187   1.759   5.077  11.088  1.1022  1.4561  1.6656
 3566TIP3   OH232188   0.979   1.915  15.360 -0.0216  0.2749 -0.3587
 3566TIP3    H132189   1.000   1.855  15.431 -0.0880  3.1042  2.2402
 3566TIP3    H232190   1.061   1.924  15.311  1.2062  1.2258  1.7661
 3567TIP3   OH232191   6.675   2.904  16.353 -0.1534 -0.2747  0.1667
 3567TIP3    H132192   6.593   2.856  16.347  0.3788 -1.0023 -3.3706
 3567TIP3    H232193   6.737   2.842  16.392 -0.0508 -1.7863 -2.1960
 3568TIP3   OH232194   4.862   4.157  13.147 -0.1332 -0.4898  0.1006
 3568TIP3    H132195   4.845   4.175  13.055 -2.1472  0.4669  0.6011
 3568TIP3    H232196   4.784   4.190  13.193  1.3028  0.1509  2.2552
 3569TIP3   OH232197   6.440   5.803   3.589 -0.3278  0.1316 -0.0048
 3569TIP3    H132198   6.527   5.843   3.581  0.0980 -0.7494  0.0712
 3569TIP3    H232199   6.448   5.743   3.663 -1.0029  0.0462  0.0037
 3570TIP3   OH232200   0.437   2.917  11.479  0.2533 -0.3100  0.1138
 3570TIP3    H132201   0.483   2.936  11.397 -0.5278 -1.7047 -0.6783
 3570TIP3    H232202   0.507   2.897  11.542  0.8080 -0.7870 -0.6426
 3571TIP3   OH232203   4.014   4.821   5.425 -0.2098  0.1703 -0.0774
 3571TIP3    H132204   4.032   4.792   5.335 -3.0667 -0.2343 -0.6223
 3571TIP3    H232205   3.967   4.903   5.414 -2.3321 -0.8360  0.8775
 3572TIP3   OH232206   5.612   6.501   2.189  0.2688 -0.2494 -0.7376
 3572TIP3    H132207   5.647   6.491   2.100  0.7372 -1.3804 -0.4422
 3572TIP3    H232208   5.520   6.478   2.180  0.1221  0.4309 -1.0733
 3573TIP3   OH232209   5.045   2.019   6.352 -0.4739 -0.4050 -0.0383
 3573TIP3    H132210   4.966   2.010   6.405 -1.5702 -1.0618 -1.7161
 3573TIP3    H232211   5.049   2.112   6.330  0.4179  0.0262  1.7626
 3574TIP3   OH232212   0.880   0.042   6.174 -0.3821  0.5265 -0.6645
 3574TIP3    H132213   0.820  -0.022   6.212 -0.0310 -0.9453 -2.4351
 3574TIP3    H232214   0.958   0.037   6.228 -0.7040  0.1453 -0.2309
 3575TIP3   OH232215   2.587   5.598   0.981  0.3920  0.2599  0.3306
 3575TIP3    H132216   2.518   5.619   0.917  1.6244  0.2757 -1.0518
 3575TIP3    H232217   2.547   5.533   1.038 -1.2022  1.2381  0.3992
 3576TIP3   OH232218   5.454   0.854   3.640  0.4390 -0.2142 -0.1538
 3576TIP3    H132219   5.484   0.820   3.725  0.8102  0.8157  0.1487
 3576TIP3    H232220   5.388   0.791   3.611 -0.8708  0.2058  1.6742
 3577TIP3   OH232221   3.216   0.099   5.597  0.0496  0.0763  0.6536
 3577TIP3    H132222   3.261   0.112   5.514  2.1262 -0.2581  1.6735
 3577TIP3    H232223   3.165   0.019   5.584 -0.0334  0.2893 -0.4373
 3578TIP3   OH232224   1.778   5.159  16.077 -0.8110 -0.0302 -0.0312
 3578TIP3    H132225   1.683   5.160  16.086 -0.9908  2.3931 -1.4967
 3578TIP3    H232226   1.810   5.147  16.167 -2.4998  0.7155  0.7188
 3579TIP3   OH232227   0.888   3.953  13.921 -0.4444 -0.4590 -0.3825
 3579TIP3    H132228   0.879   4.000  13.838  0.7164  0.1762 -0.1798
 3579TIP3    H232229   0.896   3.861  13.895 -0.8376 -0.3498 -0.9177
 3580TIP3   OH232230   2.910   1.907  14.732 -0.2450 -0.3455  0.4154
 3580TIP3    H132231   2.970   1.976  14.763 -0.2689 -0.4776  0.7553
 3580TIP3    H232232   2.932   1.831  14.784 -0.5727 -0.4546  0.3960
 3581TIP3   OH232233   3.578   3.754  14.250  0.2831  0.2358  0.4280
 3581TIP3    H132234   3.637   3.828  14.258 -0.0357  0.4914  0.4286
 3581TIP3    H232235   3.635   3.681  14.225  0.3770  0.8784 -1.4352
 3582TIP3   OH232236   6.079   3.341  14.512 -0.1137  0.2003  0.7978
 3582TIP3    H132237   6.165   3.301  14.527 -0.1478 -0.5044 -0.7169
 3582TIP3    H232238   6.077   3.360  14.419 -1.8646 -0.4432  0.6553
 3583TIP3   OH232239   1.929   4.683  12.299 -0.4372  0.4309  0.4262
 3583TIP3    H132240   1.835   4.666  12.287 -0.3310 -0.8521  1.2379
 3583TIP3    H232241   1.963   4.691  12.210 -1.3141  0.9475  0.1177
 3584TIP3   OH232242   3.071   2.532   0.649 -0.0955 -0.3464 -0.3835
 3584TIP3    H132243   2.983   2.568   0.654  0.0502 -0.0723  0.3128
 3584TIP3    H232244   3.112   2.557   0.732  1.2074  0.9921 -1.3831
 3585TIP3   OH232245   4.959   0.560  14.485  0.4173 -0.3080  0.7210
 3585TIP3    H132246   4.897   0.591  14.550  0.3780 -1.7747  1.4301
 3585TIP3    H232247   4.904   0.536  14.410  0.2570 -0.3893  0.8623
 3586TIP3   OH232248   5.675   1.870  17.130 -0.1191 -0.0302  0.0861
 3586TIP3    H132249   5.754   1.907  17.091 -0.5601  1.5300  0.5904
 3586TIP3    H232250   5.610   1.871  17.060 -0.3254  0.8480  0.2751
 3587TIP3   OH232251   4.577   1.499  13.307 -0.4416 -0.0307 -0.2415
 3587TIP3    H132252   4.568   1.449  13.388  0.5063  2.6482  1.6684
 3587TIP3    H232253   4.670   1.489  13.283 -0.7078 -0.7777 -1.0066
 3588TIP3   OH232254   0.309   5.048  16.284 -0.1877 -0.7101 -0.4799
 3588TIP3    H132255   0.383   5.106  16.264 -1.8365  1.8431  0.3442
 3588TIP3    H232256   0.310   5.040  16.379 -1.5246  0.2092 -0.3644
 3589TIP3   OH232257   4.153   3.505  15.150  0.0924 -0.3240 -0.1835
 3589TIP3    H132258   4.230   3.469  15.194  2.0418  2.0116 -1.4760
 3589TIP3    H232259   4.109   3.428  15.113  0.9801 -1.8659  1.7334
 3590TIP3   OH232260   5.285   3.245   5.520 -0.0035 -0.3461 -0.3238
 3590TIP3    H132261   5.265   3.198   5.601  0.2370  0.2288  0.0717
 3590TIP3    H232262   5.211   3.304   5.508 -0.4480 -1.0185 -0.9776
 3591TIP3   OH232263   2.651   0.211   2.202  0.1674 -0.0755  0.4262
 3591TIP3    H132264   2.726   0.254   2.242 -0.8977  0.7458  1.5980
 3591TIP3    H232265   2.614   0.276   2.143 -0.0774 -0.2203  0.4189
 3592TIP3   OH232266   6.169   5.899  12.931  0.2018 -0.0721  0.0767
 3592TIP3    H132267   6.110   5.837  12.974  0.0892  0.6836  1.0333
 3592TIP3    H232268   6.219   5.845  12.869  0.2483 -1.1556  1.0302
 3593TIP3   OH232269   5.759   1.763   3.634  0.2691  0.4494  0.4543
 3593TIP3    H132270   5.847   1.782   3.668  0.1338  0.9398  0.5421
 3593TIP3    H232271   5.737   1.840   3.582  1.4784 -1.2530 -2.8374
 3594TIP3   OH232272   4.484   2.760  16.611  0.0157  0.0182 -0.4137
 3594TIP3    H132273   4.502   2.748  16.518 -1.6225 -0.0365 -0.7661
 3594TIP3    H232274   4.431   2.684  16.636  0.6121 -0.0780  0.6257
 3595TIP3   OH232275   3.898   5.234   2.110  0.0736  0.1977  0.0218
 3595TIP3    H132276   3.988   5.265   2.103  0.2955  0.3889  2.8149
 3595TIP3    H232277   3.846   5.315   2.114 -0.0771  0.1052 -0.0545
 3596TIP3   OH232278   2.433   5.434   4.593  0.1245 -0.1013 -0.7881
 3596TIP3    H132279   2.380   5.506   4.560 -0.3738  2.1150  3.9792
 3596TIP3    H232280   2.369   5.373   4.630  0.6828 -0.0686  0.2668
 3597TIP3   OH232281   0.298   5.528  13.398  0.3367  0.0367  0.1371
 3597TIP3    H132282   0.202   5.537  13.401  0.3701  0.2932  0.4988
 3597TIP3    H232283   0.320   5.541  13.305  0.1379  1.3188  0.2498
 3598TIP3   OH232284   5.983   3.849   1.537  0.1329 -0.0796  0.4703
 3598TIP3    H132285   5.913   3.909   1.562  0.3091  0.6762 -0.7579
 3598TIP3    H232286   6.061   3.904   1.532  0.0767 -0.1027 -1.8547
 3599TIP3   OH232287   2.724   0.868   5.443  0.1168  0.0805 -0.7657
 3599TIP3    H132288   2.642   0.914   5.426  0.6134  1.6088  0.7667
 3599TIP3    H232289   2.702   0.802   5.508  0.2212  0.9336  0.1448
 3600TIP3   OH232290   0.140   4.581   3.960 -0.1733 -0.3800 -0.5219
 3600TIP3    H132291   0.098   4.606   3.878 -0.6121 -0.5935 -0.3657
 3600TIP3    H232292   0.141   4.485   3.958 -0.6354 -0.4003 -0.0583
 3601TIP3   OH232293   1.861   5.739  14.569 -0.4091  0.4531 -0.3912
 3601TIP3    H132294   1.873   5.645  14.581 -0.3593  0.2920 -1.5928
 3601TIP3    H232295   1.838   5.749  14.477 -0.2247  1.6423 -0.3264
 3602TIP3   OH232296   5.964   5.839  15.519 -0.4133 -0.2811 -0.0752
 3602TIP3    H132297   6.038   5.879  15.565 -0.8354 -0.7965  1.0922
 3602TIP3    H232298   5.999   5.814  15.434  0.5630  0.1169  0.1960
 3603TIP3   OH232299   6.098   4.655   2.041 -0.0099 -0.1237 -0.1410
 3603TIP3    H132300   6.045   4.679   2.117 -0.8150 -1.7106 -0.1583
 3603TIP3    H232301   6.188   4.671   2.069 -0.4085  1.7492  0.2139
 3604TIP3   OH232302   2.590   1.003   3.326 -0.0234  0.0726  0.1427
 3604TIP3    H132303   2.498   0.975   3.330 -0.2202  0.7869  0.9560
 3604TIP3    H232304   2.587   1.090   3.286  0.1051  0.7800  1.5670
 3605TIP3   OH232305   3.958   0.693  17.253  0.7403 -0.8864 -0.1699
 3605TIP3    H132306   3.866   0.705  17.277  0.9349 -1.2422  0.8344
 3605TIP3    H232307   3.964   0.722  17.162  0.1027  1.3083  0.4447
 3606TIP3   OH232308   4.219   5.392  12.478 -0.8760 -0.2112 -0.0568
 3606TIP3    H132309   4.279   5.440  12.422 -0.3827  0.2316  0.8303
 3606TIP3    H232310   4.267   5.380  12.560 -1.7173 -0.5073  0.4029
 3607TIP3   OH232311   0.588   2.589  15.635 -0.3330 -0.2089 -0.0943
 3607TIP3    H132312   0.658   2.647  15.665 -1.1899 -0.3297  2.4078
 3607TIP3    H232313   0.633   2.520  15.587  0.9398  1.2187 -1.0583
 3608TIP3   OH232314   4.835   2.531  16.495  0.0026  0.2405 -0.2986
 3608TIP3    H132315   4.877   2.464  16.441 -0.4193  0.3227 -0.7417
 3608TIP3    H232316   4.757   2.488  16.529  0.4605  0.0706  0.5659
 3609TIP3   OH232317   6.037   3.785  16.780  0.2462 -0.9109 -0.3713
 3609TIP3    H132318   6.056   3.874  16.810  0.0545 -0.8789 -0.3404
 3609TIP3    H232319   5.949   3.767  16.814  0.6673 -1.4741  0.4343
 3610TIP3   OH232320   3.203   4.467   5.839  0.4633  0.6994  0.7955
 3610TIP3    H132321   3.204   4.561   5.856  0.2156  0.6156  1.3096
 3610TIP3    H232322   3.115   4.439   5.867 -0.8835  0.9192 -2.7349
 3611TIP3   OH232323   6.532   1.389  16.949 -0.2245  0.0487 -0.2209
 3611TIP3    H132324   6.593   1.316  16.963 -0.9676 -0.6449 -0.5036
 3611TIP3    H232325   6.533   1.403  16.855  2.2364  2.4906  0.0309
 3612TIP3   OH232326   4.079   2.909   5.486 -0.2383 -0.1563  0.3536
 3612TIP3    H132327   4.124   2.985   5.449 -2.9993  1.0845 -0.7277
 3612TIP3    H232328   4.142   2.872   5.548  2.8665  0.3608 -2.2657
 3613TIP3   OH232329   1.761   3.801  16.822 -0.2769  0.0423 -0.6585
 3613TIP3    H132330   1.753   3.826  16.914 -0.4540  1.4167 -1.0332
 3613TIP3    H232331   1.691   3.848  16.778 -0.5374 -1.0362 -1.4309
 3614TIP3   OH232332   4.836   4.971  13.985  0.8923 -1.0096 -1.2453
 3614TIP3    H132333   4.916   4.938  13.944  1.9860 -0.5388  0.4078
 3614TIP3    H232334   4.843   4.943  14.076  0.2189  0.8648 -0.5720
 3615TIP3   OH232335   6.004   2.497   2.718  0.3095  1.0434  0.1273
 3615TIP3    H132336   5.998   2.569   2.781 -0.1946  0.5442  0.6685
 3615TIP3    H232337   6.054   2.533   2.645  2.5437  1.1224  1.5608
 3616TIP3   OH232338   1.387   3.541   4.960 -0.4943  0.1215 -0.1944
 3616TIP3    H132339   1.352   3.549   5.049  1.0241 -0.4631  0.4796
 3616TIP3    H232340   1.328   3.479   4.917 -0.3598 -0.8044  0.8955
 3617TIP3   OH232341   1.245   0.624  10.713 -0.1708  0.2317  0.0273
 3617TIP3    H132342   1.302   0.669  10.652 -0.5405  2.0461  0.9429
 3617TIP3    H232343   1.161   0.670  10.706 -0.5483 -0.2605  1.0420
 3618TIP3   OH232344   4.420   1.757  12.391  0.0331 -0.2230 -0.9779
 3618TIP3    H132345   4.409   1.686  12.327 -0.0969 -1.0354 -0.0741
 3618TIP3    H232346   4.395   1.718  12.474  0.7260  0.6670 -0.3361
 3619TIP3   OH232347   1.322   1.474   2.643 -0.3678 -0.5225  0.5700
 3619TIP3    H132348   1.264   1.404   2.612  0.2668 -0.8420  0.0936
 3619TIP3    H232349   1.308   1.545   2.580  0.9671 -1.1940 -0.5265
 3620TIP3   OH232350   3.827   3.911   1.766 -0.0811 -0.0316  0.0462
 3620TIP3    H132351   3.819   4.003   1.741 -2.6971 -0.2506 -0.1769
 3620TIP3    H232352   3.737   3.882   1.781  0.5534 -2.8778 -1.0205
 3621TIP3   OH232353   3.518   0.568  13.951  0.1747  0.1466 -0.2533
 3621TIP3    H132354   3.602   0.549  13.992 -0.9591 -1.6195  1.4915
 3621TIP3    H232355   3.464   0.604  14.022 -1.1689 -0.7856 -0.7491
 3622TIP3   OH232356   3.853   0.154   1.726  0.4784  0.5165  0.1644
 3622TIP3    H132357   3.840   0.060   1.738  0.8665  0.3791 -0.4157
 3622TIP3    H232358   3.890   0.185   1.808  1.9017 -0.1457 -0.1965
 3623TIP3   OH232359   5.974   1.872   2.771  0.1274 -0.6910  0.2374
 3623TIP3    H132360   6.005   1.962   2.759 -0.8229 -0.4026 -0.1393
 3623TIP3    H232361   5.893   1.880   2.822 -0.2083 -1.2947 -0.1825
 3624TIP3   OH232362   5.960   1.526  13.760  0.3542  0.3368  0.4094
 3624TIP3    H132363   5.889   1.547  13.699 -0.4840 -1.6530  0.6151
 3624TIP3    H232364   5.918   1.471  13.827  1.9404 -0.2608  0.9577
 3625TIP3   OH232365   4.835   3.089   5.542  0.1384  0.5829  0.1060
 3625TIP3    H132366   4.801   3.144   5.613 -0.0808 -0.3432  0.7464
 3625TIP3    H232367   4.848   3.149   5.469 -0.2521  1.4486  0.7278
 3626TIP3   OH232368   0.721   6.404   6.050  0.1868  0.2476 -0.3023
 3626TIP3    H132369   0.696   6.313   6.028 -0.7209 -0.0427  1.7308
 3626TIP3    H232370   0.785   6.395   6.120  0.2065  1.1910 -0.1941
 3627TIP3   OH232371   4.982   5.810   5.301 -0.6207  0.4538  0.2686
 3627TIP3    H132372   4.990   5.752   5.225  0.5437  0.1977  0.5566
 3627TIP3    H232373   4.988   5.898   5.265  0.1283  0.3299  0.0611
 3628TIP3   OH232374   5.311   5.796   5.818 -0.3503  0.0264 -0.3218
 3628TIP3    H132375   5.359   5.722   5.780 -1.3758 -0.4075 -0.8006
 3628TIP3    H232376   5.275   5.762   5.899 -1.1671 -0.1346 -0.7440
 3629TIP3   OH232377   6.436   2.782   4.247  0.1299  0.3950  0.3232
 3629TIP3    H132378   6.459   2.805   4.157 -3.1301 -0.1562 -0.7847
 3629TIP3    H232379   6.447   2.863   4.297  0.2504  1.1934 -0.9738
 3630TIP3   OH232380   2.866   3.715   4.309 -0.1166 -0.3609 -0.1118
 3630TIP3    H132381   2.803   3.677   4.372 -1.3322  0.8090 -0.5639
 3630TIP3    H232382   2.811   3.744   4.236  1.3059 -2.1066 -1.9958
 3631TIP3   OH232383   5.657   1.980  12.909 -0.8738  0.2818 -0.2716
 3631TIP3    H132384   5.696   1.982  12.822  0.3472 -0.0966  0.2432
 3631TIP3    H232385   5.589   2.048  12.906 -0.7329  0.3962 -1.4510
 3632TIP3   OH232386   1.138   4.049   6.278  0.2758  0.1204 -0.1044
 3632TIP3    H132387   1.159   4.121   6.218 -1.2386 -0.8600 -1.8889
 3632TIP3    H232388   1.043   4.051   6.286  0.2898 -1.1180  0.5867
 3633TIP3   OH232389   5.293   2.182   2.373 -0.0685  0.2339  0.0740
 3633TIP3    H132390   5.244   2.240   2.430 -0.5859  0.3005 -0.4237
 3633TIP3    H232391   5.258   2.095   2.391  1.0172 -0.0172  1.1467
 3634TIP3   OH232392   2.690   6.205  17.255  0.1810  0.7159 -0.3111
 3634TIP3    H132393   2.693   6.147  17.332 -0.7503  1.8817  0.6371
 3634TIP3    H232394   2.625   6.165  17.198  0.5446  0.0908 -0.3022
 3635TIP3   OH232395   3.671   6.626  16.298 -0.3808  0.3350  0.1968
 3635TIP3    H132396   3.691   6.678  16.376 -0.4966 -0.0077  0.4534
 3635TIP3    H232397   3.704   6.680  16.225  3.5309 -1.1039  0.6745
 3636TIP3   OH232398   6.454   2.994   3.255 -0.3749 -0.2648 -0.2694
 3636TIP3    H132399   6.422   2.920   3.307 -1.8316  0.1688 -0.5029
 3636TIP3    H232400   6.382   3.057   3.256 -0.1182  0.1087 -2.1248
 3637TIP3   OH232401   1.509   5.060  15.439  0.2373  0.2454  0.6172
 3637TIP3    H132402   1.571   5.113  15.488  1.1112 -0.0086 -0.1745
 3637TIP3    H232403   1.484   4.990  15.500  1.2268 -0.0115  0.7545
 3638TIP3   OH232404   1.310   0.282  12.395  0.0962 -0.6469 -0.0116
 3638TIP3    H132405   1.294   0.191  12.372 -0.4126 -0.9366  1.4150
 3638TIP3    H232406   1.301   0.329  12.312  1.7334 -2.0262 -1.0526
 3639TIP3   OH232407   6.233   6.430   1.918 -0.7081 -0.1337  0.4773
 3639TIP3    H132408   6.278   6.484   1.982  0.6288  0.4544 -0.8897
 3639TIP3    H232409   6.218   6.489   1.844  0.0771 -1.4134 -0.7478
 3640TIP3   OH232410   6.541   0.616   5.734  0.5801 -0.1774 -0.4976
 3640TIP3    H132411   6.555   0.619   5.828  0.0048  3.2707 -0.3971
 3640TIP3    H232412   6.446   0.623   5.724  0.6359 -0.5211 -1.3489
 3641TIP3   OH232413   0.747   5.801   2.863 -0.3139  0.4057  0.3409
 3641TIP3    H132414   0.785   5.713   2.870 -0.5240  0.2049 -0.8580
 3641TIP3    H232415   0.820   5.860   2.878 -0.3995  0.0749  2.4773
 3642TIP3   OH232416   6.423   1.572  13.122 -0.1618  0.8829  0.7013
 3642TIP3    H132417   6.384   1.548  13.206  0.1162  2.3834  1.2950
 3642TIP3    H232418   6.513   1.540  13.128  0.0085  1.4465  1.1931
 3643TIP3   OH232419   4.001   6.027   1.460 -0.1271 -0.9900  0.4351
 3643TIP3    H132420   3.974   6.108   1.503  2.5702 -0.2767  0.9657
 3643TIP3    H232421   4.052   6.056   1.384 -1.6969 -2.2465 -1.1916
 3644TIP3   OH232422   5.487   4.047  16.223  0.1577 -0.0235  0.2891
 3644TIP3    H132423   5.401   4.074  16.191  1.0017  1.1093 -1.1195
 3644TIP3    H232424   5.533   4.129  16.241  0.0226 -0.5603  3.8444
 3645TIP3   OH232425   4.244   4.645   3.980  0.3702 -0.3819  0.1008
 3645TIP3    H132426   4.186   4.672   4.052 -0.5238  1.2648 -1.1619
 3645TIP3    H232427   4.223   4.553   3.966 -0.8376 -0.2220  0.7055
 3646TIP3   OH232428   5.507   2.813   5.819  0.3004 -0.4154  0.4822
 3646TIP3    H132429   5.491   2.898   5.778 -0.6209 -0.4393  0.7741
 3646TIP3    H232430   5.472   2.822   5.908 -2.7800 -2.0522 -0.4195
 3647TIP3   OH232431   3.680   1.815   2.143 -0.4690 -0.4880 -0.2322
 3647TIP3    H132432   3.746   1.781   2.082 -1.4717 -0.3410 -1.4530
 3647TIP3    H232433   3.709   1.903   2.163 -0.1013 -0.5506 -0.4718
 3648TIP3   OH232434   3.873   1.475  15.736 -0.0763 -0.2532 -0.2201
 3648TIP3    H132435   3.928   1.551  15.718  2.6683 -1.7189  1.3668
 3648TIP3    H232436   3.821   1.500  15.812 -1.2111  0.9133 -1.3284
 3649TIP3   OH232437   0.733   0.448   5.238  0.5340  0.2162 -0.6399
 3649TIP3    H132438   0.741   0.530   5.287  2.5824 -0.4926  0.3176
 3649TIP3    H232439   0.678   0.392   5.293 -0.5310  0.7775 -1.1054
 3650TIP3   OH232440   6.494   4.960  12.858 -0.8484  0.0360 -0.4637
 3650TIP3    H132441   6.509   4.887  12.918  2.1698  1.7913  1.1728
 3650TIP3    H232442   6.460   4.920  12.779  0.7297 -3.1722  0.3341
 3651TIP3   OH232443   0.605   3.047  11.284 -0.3377  0.9614  0.3359
 3651TIP3    H132444   0.557   3.017  11.207  1.8957 -1.3084 -0.2717
 3651TIP3    H232445   0.682   3.091  11.249  0.5283  0.2053  1.2545
 3652TIP3   OH232446   0.486   1.719  13.849  0.2067 -0.3372 -0.5260
 3652TIP3    H132447   0.527   1.643  13.891  0.8204  0.4544  0.3560
 3652TIP3    H232448   0.501   1.791  13.910  0.0361  0.5944 -1.5490
 3653TIP3   OH232449   0.061   1.573  11.232  0.2487 -0.4248 -0.0066
 3653TIP3    H132450   0.062   1.607  11.142  1.6639  0.1509  0.2052
 3653TIP3    H232451   0.143   1.523  11.239  0.8824  0.7573  1.4103
 3654TIP3   OH232452   0.243   1.538   5.384 -0.0563  0.3246  0.0666
 3654TIP3    H132453   0.255   1.564   5.293 -0.1370 -0.1783 -0.0894
 3654TIP3    H232454   0.203   1.451   5.379  0.3425  0.1058  0.5762
 3655TIP3   OH232455   1.503   6.524  17.111  0.5648  0.1044 -0.6855
 3655TIP3    H132456   1.454   6.534  17.029 -0.6541 -0.6397 -0.0830
 3655TIP3    H232457   1.481   6.601  17.162  0.9172  0.3170 -0.8521
 3656TIP3   OH232458   5.731   1.531  13.117  0.6101 -0.4427 -0.0272
 3656TIP3    H132459   5.783   1.592  13.170  0.3930 -0.1647 -0.1289
 3656TIP3    H232460   5.736   1.567  13.029  1.7317 -1.4056 -0.3864
 3657TIP3   OH232461   1.302   3.064  11.648  0.0145  0.6594 -0.3599
 3657TIP3    H132462   1.345   3.132  11.596 -0.7533  1.9706  0.6233
 3657TIP3    H232463   1.331   3.081  11.738 -1.0653  0.4201  0.0566
 3658TIP3   OH232464   5.212   5.842   3.349 -0.3190 -0.0444  0.3263
 3658TIP3    H132465   5.216   5.759   3.301 -0.7505 -0.2300  0.6050
 3658TIP3    H232466   5.302   5.873   3.351 -0.1213 -0.6098  0.4001
 3659TIP3   OH232467   0.375   5.931   2.006 -0.5337 -0.3344 -0.0750
 3659TIP3    H132468   0.371   5.860   1.942 -0.9319  0.6371 -1.1839
 3659TIP3    H232469   0.468   5.943   2.022 -0.4706 -1.2093  0.2581
 3660TIP3   OH232470   6.115   3.737   0.938  0.7665 -0.1434 -0.2274
 3660TIP3    H132471   6.110   3.688   1.020  0.4165  1.9408  1.0757
 3660TIP3    H232472   6.178   3.807   0.956  0.4582  0.5341 -1.6580
 3661TIP3   OH232473   6.193   0.252  17.326 -0.6810  0.4176  0.5178
 3661TIP3    H132474   6.233   0.300  17.398 -0.3435  1.0209 -0.0679
 3661TIP3    H232475   6.123   0.201  17.367  1.0483 -1.1520  1.6832
 3662TIP3   OH232476   4.869   4.052   4.346 -0.5448 -0.0101 -0.0988
 3662TIP3    H132477   4.889   3.975   4.293 -0.3033  0.3279 -0.5079
 3662TIP3    H232478   4.948   4.106   4.341 -0.6406  0.1795  0.3401
 3663TIP3   OH232479   2.685   4.415   4.474 -0.0335  0.2329  0.0969
 3663TIP3    H132480   2.728   4.467   4.406 -0.9910 -1.2558 -1.7263
 3663TIP3    H232481   2.620   4.362   4.428 -1.5633 -0.0119  2.3307
 3664TIP3   OH232482   6.718   0.585   5.072 -0.1297  0.3847 -0.1655
 3664TIP3    H132483   6.647   0.535   5.031  1.8180 -2.1330 -0.6662
 3664TIP3    H232484   6.766   0.623   4.999 -1.5753  3.2370  0.2008
 3665TIP3   OH232485   0.924   6.682   2.279 -0.8001 -0.9445 -0.1655
 3665TIP3    H132486   0.988   6.677   2.207 -0.6351 -1.1898 -0.0019
 3665TIP3    H232487   0.977   6.696   2.357 -1.0830  1.0050 -0.2904
 3666TIP3   OH232488   3.663   2.792   2.945  0.4483  0.5417 -0.0214
 3666TIP3    H132489   3.643   2.761   2.857  2.2678 -0.2898 -0.1900
 3666TIP3    H232490   3.752   2.828   2.938  1.2495 -0.9459  1.7668
 3667TIP3   OH232491   5.120   6.156  14.133  0.1911 -0.1550 -0.7946
 3667TIP3    H132492   5.077   6.084  14.086 -0.7115  0.3010 -0.6793
 3667TIP3    H232493   5.167   6.114  14.204 -1.5468 -0.5177  0.1821
 3668TIP3   OH232494   3.770   6.390  14.335 -0.1571  0.6055 -0.0900
 3668TIP3    H132495   3.759   6.469  14.281 -0.5612  0.2347 -0.5681
 3668TIP3    H232496   3.766   6.318  14.272 -0.9529  0.1419  0.4720
 3669TIP3   OH232497   3.479   1.232   0.186  0.3351 -0.2941 -0.1092
 3669TIP3    H132498   3.548   1.291   0.216  1.0288 -1.5822  0.9239
 3669TIP3    H232499   3.410   1.239   0.252  0.1679 -0.1872 -0.2963
 3670TIP3   OH232500   2.603   0.908  10.905 -0.3602 -0.2525  0.0956
 3670TIP3    H132501   2.632   0.819  10.926 -0.1114  0.2595  2.0208
 3670TIP3    H232502   2.670   0.965  10.942 -0.0800  0.7647 -1.8499
 3671TIP3   OH232503   4.713   0.615   0.974  0.2198  0.3145  0.1956
 3671TIP3    H132504   4.760   0.632   1.056  2.8957 -1.3644 -0.8605
 3671TIP3    H232505   4.646   0.551   0.998 -1.1348  2.1392  1.5818
 3672TIP3   OH232506   2.677   4.313  13.114  0.4161  0.6406  0.4370
 3672TIP3    H132507   2.598   4.313  13.168 -0.2678 -1.9250 -0.4051
 3672TIP3    H232508   2.734   4.249  13.156  0.6961  0.0929 -0.7377
 3673TIP3   OH232509   0.394   3.839  13.666  0.0743  0.1229 -0.6158
 3673TIP3    H132510   0.430   3.893  13.595 -0.2973 -0.0241 -0.9190
 3673TIP3    H232511   0.449   3.859  13.741  0.0707  0.7691 -0.7790
 3674TIP3   OH232512   4.862   4.974   5.377 -0.0852  0.0771 -0.0518
 3674TIP3    H132513   4.903   5.040   5.432  0.2110 -0.1623  0.0152
 3674TIP3    H232514   4.801   4.929   5.435  0.0450 -0.0096  0.0189
 3675TIP3   OH232515   1.392   5.209   0.974 -0.4002 -0.4456  0.0154
 3675TIP3    H132516   1.480   5.217   0.938 -0.1051  0.7962  0.9437
 3675TIP3    H232517   1.334   5.208   0.898  0.2470  1.3734 -0.5435
 3676TIP3   OH232518   1.010   2.739  14.490 -0.2404  0.6964 -0.1718
 3676TIP3    H132519   0.938   2.788  14.531  0.2984  0.5372  0.9917
 3676TIP3    H232520   0.986   2.647  14.499 -0.1772  0.6605 -0.3488
 3677TIP3   OH232521   2.479   3.135  15.360  0.0375  0.4713 -0.3626
 3677TIP3    H132522   2.415   3.202  15.382  1.5797  1.6403  0.7336
 3677TIP3    H232523   2.557   3.183  15.334  0.5672 -0.9155 -1.5389
 3678TIP3   OH232524   6.656   2.334   0.875  0.0673  0.0449 -0.0114
 3678TIP3    H132525   6.733   2.333   0.931 -0.3196  0.8049  0.5549
 3678TIP3    H232526   6.679   2.278   0.801 -0.5057 -3.6118  2.3255
 3679TIP3   OH232527   3.354   4.785  16.036  0.3128 -0.2817  0.2128
 3679TIP3    H132528   3.428   4.725  16.037 -0.7738 -1.6658  0.4555
 3679TIP3    H232529   3.357   4.825  15.949  1.5945  0.0277  0.3853
 3680TIP3   OH232530   3.797   6.482  15.196 -0.1971  0.5304 -0.3125
 3680TIP3    H132531   3.766   6.416  15.134 -0.3208  1.1060 -0.8768
 3680TIP3    H232532   3.891   6.469  15.200 -0.3059 -0.1831  0.1779
 3681TIP3   OH232533   5.318   0.692  17.267 -0.1940 -0.1201 -0.5524
 3681TIP3    H132534   5.314   0.686  17.171  0.0455 -1.2078 -0.5109
 3681TIP3    H232535   5.296   0.783  17.286 -2.2287 -0.3461 -1.5225
 3682TIP3   OH232536   6.508   0.118  15.879 -0.3144 -0.1796  0.1474
 3682TIP3    H132537   6.580   0.176  15.857 -0.7669  0.3763  0.1296
 3682TIP3    H232538   6.523   0.040  15.826 -0.2054  0.2850 -0.5150
 3683TIP3   OH232539   2.831   0.152  10.830 -0.1674  0.2170  0.1582
 3683TIP3    H132540   2.848   0.096  10.755 -0.6039  2.2082 -1.5338
 3683TIP3    H232541   2.820   0.092  10.904  3.1587 -1.6982 -0.7319
 3684TIP3   OH232542   6.737   5.232   4.681 -0.1743 -0.1956 -0.0847
 3684TIP3    H132543   6.704   5.146   4.707  0.0126 -1.9748 -4.6760
 3684TIP3    H232544   6.740   5.228   4.585  1.9663  4.2075 -0.4581
 3685TIP3   OH232545   0.015   0.827   4.715  0.2354 -0.3610  0.0042
 3685TIP3    H132546  -0.041   0.752   4.735 -2.5426  0.9390 -2.1648
 3685TIP3    H232547   0.015   0.832   4.619  0.5036  2.2298  0.0707
 3686TIP3   OH232548   5.764   4.202  17.240 -0.1919  0.6034  0.5921
 3686TIP3    H132549   5.811   4.227  17.320  1.0298 -1.1726  0.4921
 3686TIP3    H232550   5.701   4.136  17.269 -0.8368  1.0786  0.2991
 3687TIP3   OH232551   2.903   5.645  16.799  0.2527 -0.1077 -1.6172
 3687TIP3    H132552   2.988   5.681  16.823  0.0763  1.8682 -3.5970
 3687TIP3    H232553   2.923   5.572  16.741  0.6620  0.7365 -2.5821
 3688TIP3   OH232554   6.731   4.438  12.401  0.4910 -0.4868 -0.0483
 3688TIP3    H132555   6.724   4.347  12.430  0.4583 -0.3482  0.3819
 3688TIP3    H232556   6.657   4.450  12.341 -0.1577 -0.4345  0.7335
 3689TIP3   OH232557   2.765   0.624   2.890 -0.2740 -0.5945  0.2526
 3689TIP3    H132558   2.743   0.538   2.853  0.3865 -1.1378  1.0810
 3689TIP3    H232559   2.712   0.629   2.970  2.1307 -1.7382  2.0475
 3690TIP3   OH232560   5.927   3.367  11.500  0.1524  0.2688  0.2656
 3690TIP3    H132561   5.920   3.430  11.428 -0.6138  1.6914  1.5375
 3690TIP3    H232562   5.955   3.419  11.575 -2.3243 -0.4862  1.8468
 3691TIP3   OH232563   2.768   1.918  15.601 -0.2144 -0.0293  0.1728
 3691TIP3    H132564   2.784   1.980  15.673  0.0664  0.7899 -0.5734
 3691TIP3    H232565   2.707   1.964  15.543  1.8183  0.5895 -1.6177
 3692TIP3   OH232566   4.969   0.084   0.489 -0.5019 -0.4225 -0.4849
 3692TIP3    H132567   5.007   0.001   0.460  0.9827 -0.0634  0.3202
 3692TIP3    H232568   4.875   0.069   0.488 -0.2404 -2.5407  0.8043
 3693TIP3   OH232569   2.265   0.586   0.313  0.3625  0.6870 -0.0765
 3693TIP3    H132570   2.274   0.551   0.402  0.0321  0.9374  0.0563
 3693TIP3    H232571   2.263   0.508   0.257  1.2991  0.5559  0.0664
 3694TIP3   OH232572   5.591   5.274  11.592 -0.2336  0.2019 -0.3027
 3694TIP3    H132573   5.632   5.232  11.667 -0.3202 -0.4543 -0.6183
 3694TIP3    H232574   5.665   5.304  11.539 -0.1697  0.2262 -0.2007
 3695TIP3   OH232575   2.632   4.464   0.144 -0.1119  0.3930  0.5511
 3695TIP3    H132576   2.644   4.493   0.054  1.0709  2.4349  1.2833
 3695TIP3    H232577   2.703   4.402   0.159  0.6674  1.2546  0.5165
 3696TIP3   OH232578   1.172   0.464  14.650 -0.2329 -0.1614 -0.7038
 3696TIP3    H132579   1.255   0.417  14.642 -1.2947 -2.0553 -1.3941
 3696TIP3    H232580   1.195   0.548  14.688  1.8064 -1.2247  0.5823
 3697TIP3   OH232581   1.672   2.758  13.815 -0.5189  0.2496 -0.4771
 3697TIP3    H132582   1.749   2.810  13.837 -0.4045  0.2615 -0.8984
 3697TIP3    H232583   1.663   2.696  13.888  0.8121 -0.7974 -1.1495
 3698TIP3   OH232584   0.364   3.691  16.326  0.1268 -0.3819 -0.0735
 3698TIP3    H132585   0.336   3.617  16.272 -1.9027 -1.4338  2.2447
 3698TIP3    H232586   0.426   3.653  16.388  0.3064  0.2158  0.1196
 3699TIP3   OH232587   1.247   6.797   5.258 -0.1950  0.1833 -0.3413
 3699TIP3    H132588   1.232   6.744   5.180  1.1036  0.4578 -0.7922
 3699TIP3    H232589   1.342   6.805   5.265 -0.3161  1.0281  0.6898
 3700TIP3   OH232590   5.253   3.455   1.778 -0.1001 -0.6010  0.4692
 3700TIP3    H132591   5.327   3.420   1.828  1.1349  0.7949 -0.3173
 3700TIP3    H232592   5.283   3.541   1.747 -1.0976 -1.0705 -2.0280
 3701TIP3   OH232593   2.644   0.116   4.964 -0.1918 -0.2015 -0.3913
 3701TIP3    H132594   2.629   0.062   4.887 -3.5727  0.3014 -0.2320
 3701TIP3    H232595   2.626   0.058   5.038  0.7882 -0.0599 -0.0208
 3702TIP3   OH232596   2.135   6.093  16.839  0.1067  0.0329 -0.2934
 3702TIP3    H132597   2.071   6.047  16.784 -0.5141 -1.0294  1.2461
 3702TIP3    H232598   2.147   6.178  16.797 -0.2810 -0.7649 -2.0935
 3703TIP3   OH232599   5.381   3.080  12.449  0.0041  0.3986 -0.1620
 3703TIP3    H132600   5.376   3.174  12.468 -0.0856  0.7097 -1.5704
 3703TIP3    H232601   5.300   3.044  12.485  0.1955  0.7944  0.6898
 3704TIP3   OH232602   0.245   4.889   2.822  0.0133  0.0090  0.1497
 3704TIP3    H132603   0.317   4.827   2.834  2.4288  2.2122 -1.6673
 3704TIP3    H232604   0.232   4.892   2.727 -0.3073  1.8906  0.2086
 3705TIP3   OH232605   3.857   1.794  17.068 -0.3179  0.1906 -0.0275
 3705TIP3    H132606   3.949   1.785  17.045 -0.0995 -0.2071  0.9519
 3705TIP3    H232607   3.811   1.743  17.001  0.3608 -1.7119  0.8743
 3706TIP3   OH232608   0.812   2.591  11.662  0.2267  0.2481  0.2413
 3706TIP3    H132609   0.766   2.520  11.707 -2.9265  1.7805 -0.2713
 3706TIP3    H232610   0.828   2.556  11.574 -1.5828  0.1821 -0.1120
 3707TIP3   OH232611   2.274   5.031  11.726  0.1793 -0.6057 -0.9088
 3707TIP3    H132612   2.328   5.056  11.801 -0.8422 -1.2645  0.0699
 3707TIP3    H232613   2.254   5.113  11.681 -0.0185 -0.0933  0.1015
 3708TIP3   OH232614   0.482   0.882   1.167 -0.0977  0.3522 -0.5990
 3708TIP3    H132615   0.465   0.862   1.259 -1.2618 -0.0759 -0.9000
 3708TIP3    H232616   0.417   0.832   1.118  0.8106  0.1991 -1.6954
 3709TIP3   OH232617   2.907   1.891   1.150  0.3952  0.0925 -0.3486
 3709TIP3    H132618   2.945   1.808   1.122  0.9587  0.0428  0.5231
 3709TIP3    H232619   2.877   1.875   1.239 -1.2858  0.2665 -0.8575
 3710TIP3   OH232620   6.666   3.026  16.654 -0.0714 -0.0010  0.0687
 3710TIP3    H132621   6.577   3.061  16.652 -0.4437 -0.9267 -0.2266
 3710TIP3    H232622   6.708   3.063  16.576 -0.6855 -0.7661 -0.6411
 3711TIP3   OH232623   4.649   4.663   4.821  0.1612 -0.0860 -0.5948
 3711TIP3    H132624   4.654   4.632   4.911  2.1571 -0.8668 -0.9182
 3711TIP3    H232625   4.728   4.629   4.780 -0.9241 -0.1435 -2.7785
 3712TIP3   OH232626   5.553   0.558   4.289 -0.1322 -0.3893 -0.0447
 3712TIP3    H132627   5.495   0.617   4.240  2.4935  2.2549 -0.2516
 3712TIP3    H232628   5.560   0.598   4.376 -0.3944 -1.9655  0.7459
 3713TIP3   OH232629   6.152   5.763  14.210 -0.5531  0.4023 -0.0630
 3713TIP3    H132630   6.181   5.848  14.241 -0.0085  0.7322 -1.4173
 3713TIP3    H232631   6.183   5.758  14.120  2.2782 -2.5687  0.8906
 3714TIP3   OH232632   2.740   4.305  12.538  0.4495 -0.3636 -0.1542
 3714TIP3    H132633   2.648   4.304  12.562  0.7046 -1.4067  0.8971
 3714TIP3    H232634   2.767   4.396  12.549 -0.0415 -0.3622  1.2870
 3715TIP3   OH232635   2.798   3.830  16.299 -0.3415  0.2241 -0.2698
 3715TIP3    H132636   2.726   3.793  16.351  0.2023  0.9239  1.0126
 3715TIP3    H232637   2.844   3.754  16.265  0.5567 -0.3323  2.0500
 3716TIP3   OH232638   2.323   1.140   0.242  0.2981  0.1492  0.1968
 3716TIP3    H132639   2.395   1.154   0.304 -0.6512  0.0871  1.3484
 3716TIP3    H232640   2.322   1.045   0.229  0.6498  0.1845 -0.1173
 3717TIP3   OH232641   5.975   2.917   3.210  0.5524 -0.6261 -0.7378
 3717TIP3    H132642   5.937   3.005   3.206  1.0449 -0.2241  1.7830
 3717TIP3    H232643   5.902   2.858   3.189 -0.4505  0.3036  0.0166
 3718TIP3   OH232644   5.648   4.034  12.179 -0.5033 -0.0725 -0.2362
 3718TIP3    H132645   5.601   4.109  12.143 -0.0231  0.0733 -0.5520
 3718TIP3    H232646   5.733   4.035  12.136  0.0112  0.0013  0.7605
 3719TIP3   OH232647   1.479   3.301  13.139 -0.6813  0.0783 -0.8643
 3719TIP3    H132648   1.480   3.206  13.149 -2.4846  0.0479 -0.7113
 3719TIP3    H232649   1.435   3.332  13.218  3.4131  1.4048  1.1893
 3720TIP3   OH232650   5.315   4.669  16.085  0.0140  0.0630 -0.4002
 3720TIP3    H132651   5.395   4.620  16.064  0.9956  1.8302 -1.0029
 3720TIP3    H232652   5.333   4.758  16.056 -1.6672  0.8322  0.7356
 3721TIP3   OH232653   6.065   4.669   6.235 -0.9036 -0.5935 -0.1923
 3721TIP3    H132654   6.118   4.611   6.289  1.2750  0.7952 -0.7186
 3721TIP3    H232655   6.110   4.753   6.238 -1.8442  0.0833 -2.4862
 3722TIP3   OH232656   1.122   5.363   5.200 -0.1516 -0.4495 -0.1904
 3722TIP3    H132657   1.097   5.322   5.283 -2.0144 -0.1597 -0.5704
 3722TIP3    H232658   1.056   5.333   5.138  0.9051 -0.2166 -1.4503
 3723TIP3   OH232659   2.786   5.877   5.523 -0.1796 -0.4632  0.3074
 3723TIP3    H132660   2.781   5.924   5.607 -2.0402  3.2286 -1.6143
 3723TIP3    H232661   2.696   5.878   5.490  0.7559 -0.3170 -2.4301
 3724TIP3   OH232662   6.335   2.408   3.398  0.4963  0.0145  0.1387
 3724TIP3    H132663   6.373   2.436   3.315  0.8296  1.3233  0.7079
 3724TIP3    H232664   6.249   2.449   3.400  0.7557  0.5607  0.7213
 3725TIP3   OH232665   5.362   5.116  12.453 -0.5200 -0.1005 -0.5438
 3725TIP3    H132666   5.351   5.092  12.361  0.6434 -2.7891 -0.0818
 3725TIP3    H232667   5.278   5.098  12.493 -0.6439 -0.2271 -0.8559
 3726TIP3   OH232668   1.709   0.152   3.313  0.7537 -0.5712 -1.0184
 3726TIP3    H132669   1.637   0.121   3.258  0.2384 -0.7961 -0.2362
 3726TIP3    H232670   1.683   0.127   3.401  0.8889  1.0439 -0.4915
 3727TIP3   OH232671   1.824   0.996   3.688 -0.2165  0.2849  0.3473
 3727TIP3    H132672   1.809   0.957   3.602 -1.3192  1.8358 -0.2147
 3727TIP3    H232673   1.900   0.949   3.723  1.6690  1.0043 -2.4002
 3728TIP3   OH232674   5.620   6.543   2.543  0.0462 -0.1562 -0.2825
 3728TIP3    H132675   5.610   6.534   2.638  0.8574 -1.4205 -0.2957
 3728TIP3    H232676   5.692   6.606   2.533 -0.0435 -0.0148 -0.0578
 3729TIP3   OH232677   4.498   2.771  15.490  0.3761 -0.1244 -0.0724
 3729TIP3    H132678   4.436   2.699  15.477  0.3906  0.0224 -1.0213
 3729TIP3    H232679   4.482   2.830  15.416  1.1798  0.2547  0.0469
 3730TIP3   OH232680   1.094   3.069   2.540 -0.3093 -0.4887 -0.4603
 3730TIP3    H132681   1.087   3.058   2.635 -0.6951 -0.1209 -0.4403
 3730TIP3    H232682   1.187   3.060   2.521  0.0941  1.6227  0.2526
 3731TIP3   OH232683   6.359   3.712  16.129  0.0354 -0.0048 -0.0060
 3731TIP3    H132684   6.312   3.775  16.074 -0.3672  0.6850  1.0949
 3731TIP3    H232685   6.438   3.691  16.079 -0.2457  0.7073 -0.7762
 3732TIP3   OH232686   6.490   3.075  15.417  0.3442 -0.5986  0.3301
 3732TIP3    H132687   6.550   3.043  15.484 -0.2365  1.5454  2.0033
 3732TIP3    H232688   6.410   3.025  15.430  0.2887 -0.3020  1.1572
 3733TIP3   OH232689   5.384   1.671   3.775 -0.0297  0.2355 -0.2149
 3733TIP3    H132690   5.408   1.637   3.689 -0.1948  0.1940 -0.2457
 3733TIP3    H232691   5.311   1.731   3.757  0.3928  0.7671 -0.1841
 3734TIP3   OH232692   5.571   6.253  14.965  0.1077  0.6765 -0.0567
 3734TIP3    H132693   5.556   6.173  15.014  1.1216  0.3012 -0.3456
 3734TIP3    H232694   5.489   6.267  14.917 -0.7184  0.7876  1.3349
 3735TIP3   OH232695   0.475   2.260   5.895 -0.4987  0.3038 -0.1890
 3735TIP3    H132696   0.448   2.351   5.885 -1.1349  0.0515 -0.8470
 3735TIP3    H232697   0.460   2.221   5.809  1.7340  0.0853 -0.5316
 3736TIP3   OH232698   2.628   4.473  16.611 -0.2728  0.3947 -0.2550
 3736TIP3    H132699   2.722   4.456  16.603 -0.3787  0.3284 -1.5767
 3736TIP3    H232700   2.620   4.521  16.693  1.0377  1.1780 -0.5416
 3737TIP3   OH232701   0.016   5.402  14.134  0.6582 -0.0909  1.1619
 3737TIP3    H132702  -0.054   5.350  14.174 -0.7505  0.8910  0.0634
 3737TIP3    H232703   0.056   5.343  14.071 -1.4125  0.2673 -0.6133
 3738TIP3   OH232704   5.489   2.903  13.477  0.2806 -0.2230 -0.4085
 3738TIP3    H132705   5.513   2.995  13.471 -1.6263  0.2408 -1.7027
 3738TIP3    H232706   5.573   2.857  13.490  1.4681  1.5206 -1.5445
 3739TIP3   OH232707   4.927   2.438  12.331 -0.0226 -0.0373 -0.3546
 3739TIP3    H132708   5.017   2.470  12.324  0.0181  0.0569  0.4785
 3739TIP3    H232709   4.918   2.414  12.423 -0.4346 -1.3055 -0.7095
 3740TIP3   OH232710   4.797   4.326  13.572  0.3658 -0.1361 -0.2303
 3740TIP3    H132711   4.753   4.383  13.635 -2.4067  1.4963 -3.3734
 3740TIP3    H232712   4.843   4.386  13.514  0.0520 -1.3144 -1.7449
 3741TIP3   OH232713   2.145   1.717   2.014  0.2059 -0.0483  0.1182
 3741TIP3    H132714   2.211   1.740   1.948  1.0942 -0.9397  0.6775
 3741TIP3    H232715   2.143   1.622   2.014  1.3632 -0.1414  2.4424
 3742TIP3   OH232716   6.512   0.847   3.912  0.0972  0.5243  0.2417
 3742TIP3    H132717   6.597   0.829   3.952 -0.7121 -0.8879  1.4087
 3742TIP3    H232718   6.448   0.823   3.979 -1.2520  0.1919 -1.1186
 3743TIP3   OH232719   6.222   2.399  10.536  0.2196  0.1936  0.6516
 3743TIP3    H132720   6.139   2.351  10.538  1.9344 -3.0149  1.6825
 3743TIP3    H232721   6.226   2.442  10.622 -0.5333  0.8320  0.3929
 3744TIP3   OH232722   4.614   4.118  12.210 -0.1273  0.0423  0.4076
 3744TIP3    H132723   4.559   4.152  12.139 -0.8475 -1.3277  0.2610
 3744TIP3    H232724   4.563   4.135  12.290 -1.0514 -1.6501  0.2294
 3745TIP3   OH232725   1.950   3.074  14.091 -0.0565  0.0440  0.1228
 3745TIP3    H132726   1.881   3.052  14.154  1.0104  0.0510  1.3335
 3745TIP3    H232727   1.953   3.170  14.092  1.3077  0.0168  1.6140
 3746TIP3   OH232728   1.513   4.810   4.908 -0.2532 -0.1505 -0.2653
 3746TIP3    H132729   1.486   4.836   4.819 -1.7886 -1.4220 -0.2064
 3746TIP3    H232730   1.464   4.730   4.925 -0.5415  0.4553  2.0202
 3747TIP3   OH232731   6.515   6.791  12.087 -0.1225 -0.5473 -0.3294
 3747TIP3    H132732   6.493   6.706  12.125 -1.1645  0.6912  2.0575
 3747TIP3    H232733   6.443   6.848  12.113  0.0164  0.8725 -2.7744
 3748TIP3   OH232734   0.695   3.289  12.507  0.1866 -0.3399  0.1733
 3748TIP3    H132735   0.697   3.313  12.414 -0.6464 -1.5926 -0.1760
 3748TIP3    H232736   0.778   3.245  12.521  1.4673  2.0464  0.6741
 3749TIP3   OH232737   1.403   0.723   4.416 -0.0473  0.6827  0.0545
 3749TIP3    H132738   1.333   0.670   4.378  0.7291 -1.0405  0.9611
 3749TIP3    H232739   1.437   0.773   4.342 -1.6075  0.8797 -0.5765
 3750TIP3   OH232740   3.575   2.805  11.932 -0.1509  0.0110  0.0788
 3750TIP3    H132741   3.649   2.816  11.992  0.6340  3.4532 -1.2739
 3750TIP3    H232742   3.607   2.743  11.866  0.9690  0.2315  0.3841
 3751TIP3   OH232743   3.178   1.028  15.213  0.1430  0.0893 -0.1927
 3751TIP3    H132744   3.257   0.999  15.259  0.8957  0.4773 -1.2029
 3751TIP3    H232745   3.178   0.978  15.132  0.5894  1.6500 -1.2230
 3752TIP3   OH232746   6.748   1.819  16.349 -0.1852  0.2073  0.0893
 3752TIP3    H132747   6.679   1.872  16.310 -0.1157 -0.1449 -0.5169
 3752TIP3    H232748   6.799   1.881  16.402  0.5880  1.0125 -1.5139
 3753TIP3   OH232749   3.658   2.866   6.725 -0.2229 -0.0869 -0.3474
 3753TIP3    H132750   3.593   2.803   6.693  1.0009 -1.5812  0.0047
 3753TIP3    H232751   3.608   2.927   6.778 -1.3030 -1.4010  0.2038
 3754TIP3   OH232752   4.158   4.580  15.665 -0.0505 -0.1115  0.7365
 3754TIP3    H132753   4.075   4.615  15.699  0.0734  1.3425 -0.3639
 3754TIP3    H232754   4.218   4.655  15.666  0.7572 -0.7247 -0.0375
 3755TIP3   OH232755   0.730   0.201   2.309 -0.8334 -0.0843 -0.1558
 3755TIP3    H132756   0.669   0.274   2.297 -0.5413  0.0484 -0.8948
 3755TIP3    H232757   0.674   0.125   2.324 -1.1708  0.1234 -0.3568
 3756TIP3   OH232758   1.402   1.070   2.459 -0.1269 -0.4432 -0.4258
 3756TIP3    H132759   1.455   0.991   2.469 -0.8836 -1.3189 -2.7556
 3756TIP3    H232760   1.315   1.044   2.492 -0.8166 -1.1932 -2.6406
 3757TIP3   OH232761   1.426   5.633   4.757  0.2816 -0.0261 -0.0111
 3757TIP3    H132762   1.494   5.605   4.696  0.4882  0.7797 -0.1565
 3757TIP3    H232763   1.400   5.720   4.726 -0.4961 -0.1329  0.3124
 3758TIP3   OH232764   1.444   0.599  13.541 -0.1292  0.0553  0.2725
 3758TIP3    H132765   1.478   0.529  13.596 -1.3509 -1.4725 -0.8130
 3758TIP3    H232766   1.497   0.676  13.564  1.4857 -1.2851  1.2715
 3759TIP3   OH232767   1.630   5.547   4.424 -0.3012  0.1435 -0.5955
 3759TIP3    H132768   1.657   5.638   4.410 -0.8760  0.4023 -0.0577
 3759TIP3    H232769   1.654   5.528   4.514 -1.3670  0.1977 -0.2813
 3760TIP3   OH232770   4.472   5.725  13.816 -0.4867  0.2849  0.3107
 3760TIP3    H132771   4.403   5.790  13.825  0.1261  1.3383 -2.0850
 3760TIP3    H232772   4.468   5.676  13.899 -1.2099  3.0642  2.0558
 3761TIP3   OH232773   5.039   6.533   0.770 -0.1574  0.2992 -0.0556
 3761TIP3    H132774   5.120   6.572   0.738  0.8803  0.3258  2.3699
 3761TIP3    H232775   4.980   6.607   0.782  0.6943  0.7826  1.4423
 3762TIP3   OH232776   5.615   1.006  14.756  0.1410 -0.3949 -0.6914
 3762TIP3    H132777   5.541   1.067  14.749 -0.6554 -1.0254  1.2323
 3762TIP3    H232778   5.628   0.974  14.667 -1.0863  0.6782 -1.3034
 3763TIP3   OH232779   5.979   0.402   6.713 -0.4393 -0.3287  0.0405
 3763TIP3    H132780   5.973   0.334   6.646 -1.9121  0.2603 -0.4401
 3763TIP3    H232781   5.925   0.474   6.680  0.1641  0.6295  1.0837
 3764TIP3   OH232782   4.973   3.239  11.455 -0.5765  0.0849  0.2928
 3764TIP3    H132783   5.032   3.311  11.476 -3.7568  2.1292  3.2166
 3764TIP3    H232784   4.966   3.189  11.536 -0.5691 -2.0037 -0.8986
 3765TIP3   OH232785   4.108   5.876  16.924 -0.0498 -0.2031  0.6235
 3765TIP3    H132786   4.100   5.808  16.857 -0.4592 -0.3724  0.8439
 3765TIP3    H232787   4.194   5.915  16.908  0.5685 -1.3529  1.0508
 3766TIP3   OH232788   1.781   2.508   2.116  0.0292  0.5124  0.1596
 3766TIP3    H132789   1.864   2.502   2.069 -0.1739 -1.2233 -0.0470
 3766TIP3    H232790   1.736   2.426   2.096 -2.6102  2.1892 -1.2883
 3767TIP3   OH232791   3.418   5.011   2.220  0.9518 -0.4296  0.2019
 3767TIP3    H132792   3.351   5.055   2.168  1.0979 -0.2236  0.1832
 3767TIP3    H232793   3.392   4.919   2.221  0.4120 -0.2786  0.5931
 3768TIP3   OH232794   4.051   3.061   1.388  0.1108 -0.2659  0.1890
 3768TIP3    H132795   4.044   2.983   1.333 -0.8183  0.8588 -1.3671
 3768TIP3    H232796   4.113   3.117   1.342 -1.5939  1.2089 -0.4460
 3769TIP3   OH232797   6.167   2.647  15.464  0.0996  0.0538  0.3258
 3769TIP3    H132798   6.099   2.586  15.438  0.4966  0.5898 -2.3214
 3769TIP3    H232799   6.247   2.594  15.466  0.4341  0.3638 -1.9101
 3770TIP3   OH232800   1.951   1.224  12.637  0.3327 -0.3017 -0.3085
 3770TIP3    H132801   1.880   1.239  12.699  0.5409  1.8511 -0.5181
 3770TIP3    H232802   1.910   1.179  12.563 -1.1326  1.8571 -0.9222
 3771TIP3   OH232803   6.633   1.844   0.727  0.4632 -0.2929  0.7505
 3771TIP3    H132804   6.695   1.850   0.654  0.7251  1.3342  1.0745
 3771TIP3    H232805   6.688   1.830   0.804  0.2263 -1.3743  0.7448
 3772TIP3   OH232806   3.875   2.266   3.933  0.6476  0.2835 -0.6210
 3772TIP3    H132807   3.962   2.259   3.892 -0.4296 -1.3546 -2.9119
 3772TIP3    H232808   3.834   2.341   3.890  0.9259  1.0828  0.4898
 3773TIP3   OH232809   1.063   3.362   4.207 -0.6066  0.3994 -0.6448
 3773TIP3    H132810   1.050   3.434   4.145  0.1941  0.6044 -0.5875
 3773TIP3    H232811   1.057   3.283   4.153 -1.2592  0.5172 -0.7482
 3774TIP3   OH232812   0.877   2.422   2.297 -0.0887  0.1975  0.5597
 3774TIP3    H132813   0.879   2.375   2.214 -0.5639  1.4414 -0.1973
 3774TIP3    H232814   0.959   2.472   2.299  0.1842 -0.2649  1.1141
 3775TIP3   OH232815   6.427   4.144   2.229  0.1405  0.0671  0.1516
 3775TIP3    H132816   6.517   4.127   2.203 -0.0588 -0.6893 -0.0660
 3775TIP3    H232817   6.418   4.239   2.222  1.0701  0.2070  0.6976
 3776TIP3   OH232818   5.079   1.798   1.832 -0.2826  0.4842 -0.4854
 3776TIP3    H132819   5.131   1.849   1.894 -1.0700  1.5581 -0.6779
 3776TIP3    H232820   5.143   1.749   1.782  0.3615 -0.7580  1.4495
 3777TIP3   OH232821   4.660   6.349  11.526  0.3384  0.3543 -0.0162
 3777TIP3    H132822   4.591   6.297  11.485  0.0672  0.5388  0.2005
 3777TIP3    H232823   4.734   6.344  11.466 -0.2868  1.2026 -0.8866
 3778TIP3   OH232824   4.145   6.457  11.286 -0.3659  0.1578 -0.1596
 3778TIP3    H132825   4.103   6.429  11.205 -0.4516 -1.9183  0.5426
 3778TIP3    H232826   4.185   6.378  11.321 -1.0601  0.7934  2.2642
 3779TIP3   OH232827   0.635   4.856   4.711  0.0376  0.0542  0.0396
 3779TIP3    H132828   0.604   4.781   4.762 -0.4833  1.5823  2.1190
 3779TIP3    H232829   0.659   4.819   4.626 -2.0660 -2.1348  0.2859
 3780TIP3   OH232830   2.700   4.775  12.867 -0.1664  0.6696  0.3688
 3780TIP3    H132831   2.670   4.775  12.776 -0.0189 -2.1654  0.2225
 3780TIP3    H232832   2.630   4.729  12.914 -0.4488  2.4896  1.8061
 3781TIP3   OH232833   3.316   3.881  15.776  0.3225 -0.2004 -0.1743
 3781TIP3    H132834   3.389   3.890  15.837 -0.5201  0.0110  0.8321
 3781TIP3    H232835   3.265   3.962  15.787 -0.6722 -0.8233 -0.0312
 3782TIP3   OH232836   4.403   2.832  13.400  0.1375  0.2050 -0.4698
 3782TIP3    H132837   4.480   2.859  13.449 -0.1073 -0.2193  0.1688
 3782TIP3    H232838   4.333   2.829  13.466 -0.2395 -0.2044 -0.8823
 3783TIP3   OH232839   1.184   3.670  13.875  0.2418  0.3572 -0.0687
 3783TIP3    H132840   1.228   3.726  13.939  0.9451  0.2355 -0.4394
 3783TIP3    H232841   1.238   3.591  13.870 -0.2610  0.0121 -0.2031
 3784TIP3   OH232842   0.549   3.354  15.557 -0.3654 -0.2255  0.3661
 3784TIP3    H132843   0.502   3.304  15.624  0.4824 -0.5331  0.7449
 3784TIP3    H232844   0.612   3.292  15.520 -0.6055  0.0291 -0.5026
 3785TIP3   OH232845   4.269   1.585  14.158  0.7538 -0.0061 -0.0447
 3785TIP3    H132846   4.290   1.503  14.203 -1.8699  0.0766  1.5719
 3785TIP3    H232847   4.250   1.647  14.228 -2.5077  0.4279 -1.1388
 3786TIP3   OH232848   5.190   4.731   6.060  0.3913  0.7953 -0.6524
 3786TIP3    H132849   5.199   4.826   6.072  1.2616  1.0037 -2.6601
 3786TIP3    H232850   5.122   4.706   6.123  1.1260  2.4958  0.9237
 3787TIP3   OH232851   4.233   0.621   0.653 -0.0113  0.5236  0.7565
 3787TIP3    H132852   4.253   0.626   0.747  0.0899  1.1422  0.7009
 3787TIP3    H232853   4.194   0.705   0.632 -4.1315 -1.0262  1.1809
 3788TIP3   OH232854   4.749   2.834   4.643 -0.5813  0.2546 -0.1803
 3788TIP3    H132855   4.723   2.919   4.609  1.0465  1.6802  1.8855
 3788TIP3    H232856   4.712   2.830   4.731  3.7317  1.3829  1.9641
 3789TIP3   OH232857   3.717   5.736   6.106 -0.5169  0.4001 -0.0745
 3789TIP3    H132858   3.723   5.641   6.109  1.0660  0.3444 -2.4609
 3789TIP3    H232859   3.749   5.765   6.191  1.2008 -1.1802 -0.1117
 3790TIP3   OH232860   1.748   6.380  12.819 -0.1431  0.3556  0.2162
 3790TIP3    H132861   1.745   6.287  12.840  1.1210 -0.3150 -2.2156
 3790TIP3    H232862   1.803   6.418  12.888 -2.1819 -0.2601  2.3149
 3791TIP3   OH232863   0.160   2.522   5.663  0.1774 -0.1627  0.0534
 3791TIP3    H132864   0.119   2.608   5.667  0.9747  0.2217  0.0804
 3791TIP3    H232865   0.234   2.532   5.603  1.6857 -0.1922  1.8012
 3792TIP3   OH232866   1.135   0.154  17.242  0.4262 -0.1752  0.0346
 3792TIP3    H132867   1.184   0.169  17.323 -1.1273  1.7326  0.7057
 3792TIP3    H232868   1.190   0.191  17.173  0.7646  0.2304  0.5169
 3793TIP3   OH232869   5.144   3.869   2.787 -0.4823 -0.0505  0.2628
 3793TIP3    H132870   5.063   3.829   2.757 -0.3968 -0.1438  0.1541
 3793TIP3    H232871   5.128   3.892   2.878 -1.0479  1.0018 -0.0864
 3794TIP3   OH232872   4.385   2.348   0.527  0.6225 -0.0516 -0.2043
 3794TIP3    H132873   4.357   2.415   0.464 -0.2472 -0.5754 -0.4009
 3794TIP3    H232874   4.370   2.388   0.613  1.6004  0.5817 -0.3141
 3795TIP3   OH232875   0.024   2.001   4.041  0.1132 -0.3915 -0.2607
 3795TIP3    H132876   0.047   1.909   4.054 -2.1896 -0.7252  2.6056
 3795TIP3    H232877   0.085   2.049   4.097 -0.7296 -0.5279  0.8110
 3796TIP3   OH232878   5.341   5.057  12.005  0.1198 -0.1540  0.6042
 3796TIP3    H132879   5.286   4.996  12.054 -0.6362  0.1648  0.1779
 3796TIP3    H232880   5.376   5.005  11.932  1.2810 -0.6383  1.4887
 3797TIP3   OH232881   4.436   6.068  14.283  0.0610 -0.1884 -0.7794
 3797TIP3    H132882   4.430   6.164  14.292  2.9942  0.0400 -0.0787
 3797TIP3    H232883   4.500   6.042  14.349  1.9746 -2.1542 -3.2317
 3798TIP3   OH232884   2.163   6.080   6.322 -0.2971 -0.1309 -0.8546
 3798TIP3    H132885   2.168   6.113   6.411  1.2109 -0.9995 -0.5808
 3798TIP3    H232886   2.145   6.157   6.268  4.6977  1.6812 -0.4382
 3799TIP3   OH232887   5.697   5.887  17.035 -0.1106 -0.1184  0.3431
 3799TIP3    H132888   5.747   5.967  17.049  2.9218 -1.8248  0.1801
 3799TIP3    H232889   5.699   5.843  17.120 -2.0114  0.0650  0.5160
 3800TIP3   OH232890   0.069   1.177  15.021  0.2464 -0.1901  0.1193
 3800TIP3    H132891   0.088   1.174  14.927 -1.5308  1.8929 -0.3826
 3800TIP3    H232892   0.154   1.169  15.063  1.3292  0.9149 -1.7355
 3801TIP3   OH232893   4.847   6.387   5.817 -0.1184 -0.4663 -0.2707
 3801TIP3    H132894   4.906   6.384   5.742  1.2611  2.6311  0.5454
 3801TIP3    H232895   4.765   6.421   5.781  0.5386  1.0098 -0.4469
 3802TIP3   OH232896   3.227   1.958   3.090 -0.6178  0.6711  0.4159
 3802TIP3    H132897   3.159   1.997   3.035  0.7561  0.9278 -1.2070
 3802TIP3    H232898   3.191   1.960   3.179 -2.9062  0.3049 -0.4385
 3803TIP3   OH232899   6.428   1.670   0.607  0.2326  0.1418 -0.1595
 3803TIP3    H132900   6.354   1.719   0.643  0.2401  0.6347 -0.7894
 3803TIP3    H232901   6.505   1.714   0.645  0.2763  1.3205 -1.5294
 3804TIP3   OH232902   0.545   0.791   3.317 -0.8919  0.1628 -0.1013
 3804TIP3    H132903   0.574   0.716   3.369 -1.2880 -0.2017 -0.3980
 3804TIP3    H232904   0.469   0.759   3.269 -0.4619  0.4540 -1.0121
 3805TIP3   OH232905   5.471   6.102  12.416  0.1904 -0.1474  0.0887
 3805TIP3    H132906   5.545   6.051  12.383  0.0521  0.0008 -0.4465
 3805TIP3    H232907   5.443   6.156  12.342 -1.1045 -0.9348 -0.0350
 3806TIP3   OH232908   4.862   3.743   1.135 -0.0547 -0.6526  0.1679
 3806TIP3    H132909   4.935   3.755   1.074 -0.3378  0.9669  0.1038
 3806TIP3    H232910   4.899   3.758   1.221  0.0158 -1.4324  0.2828
 3807TIP3   OH232911   4.649   6.112   1.736  0.1066 -0.0863 -0.1905
 3807TIP3    H132912   4.682   6.128   1.647  0.7009 -0.0630  0.0282
 3807TIP3    H232913   4.636   6.018   1.740  0.8586 -0.1899 -0.0444
 3808TIP3   OH232914   2.920   1.787  16.782  0.3367 -0.5763  0.0918
 3808TIP3    H132915   2.938   1.881  16.775  0.2343 -0.6801 -2.4493
 3808TIP3    H232916   2.898   1.773  16.874  0.4400  1.8623  0.5388
 3809TIP3   OH232917   0.557   2.151   6.419  0.4743  0.2781 -0.4739
 3809TIP3    H132918   0.535   2.185   6.332  2.1813  0.6118 -0.8112
 3809TIP3    H232919   0.638   2.102   6.406  2.1107  2.3041  1.2854
 3810TIP3   OH232920   5.686   4.525   2.884  0.4018 -0.4094 -0.3139
 3810TIP3    H132921   5.773   4.546   2.918 -0.1757 -0.0305  1.0464
 3810TIP3    H232922   5.632   4.600   2.911 -0.9284 -1.8787  1.3603
 3811TIP3   OH232923   2.733   0.168  16.718 -0.0936  0.2380 -0.1566
 3811TIP3    H132924   2.716   0.138  16.629  0.3738  0.6887 -0.4059
 3811TIP3    H232925   2.720   0.263  16.714  2.3187  0.6190 -0.3648
 3812TIP3   OH232926   4.454   6.235   1.328  0.0424 -0.1081 -0.0735
 3812TIP3    H132927   4.374   6.212   1.281 -0.4667 -0.6965  1.0396
 3812TIP3    H232928   4.510   6.277   1.262 -0.0795 -2.1440 -1.5663
 3813TIP3   OH232929   6.263   6.309  12.450 -0.0840 -0.2625 -0.3879
 3813TIP3    H132930   6.184   6.303  12.504 -0.4234 -2.6120 -0.9931
 3813TIP3    H232931   6.234   6.349  12.368 -0.9156 -1.8627 -0.9280
 3814TIP3   OH232932   1.160   5.324  12.303  0.1694 -0.0961  0.5565
 3814TIP3    H132933   1.186   5.388  12.236 -1.0311  0.4696  0.6076
 3814TIP3    H232934   1.069   5.303  12.282  0.5168 -1.7532  0.5903
 3815TIP3   OH232935   2.292   2.447   1.188  0.4047  0.2436  0.2503
 3815TIP3    H132936   2.284   2.515   1.120 -2.5260 -0.2039  0.0401
 3815TIP3    H232937   2.229   2.472   1.255  2.1394 -0.1778  2.1225
 3816TIP3   OH232938   5.940   2.430   2.241 -0.1574 -0.1320 -0.3158
 3816TIP3    H132939   5.886   2.373   2.297  1.9512  0.3552  2.4426
 3816TIP3    H232940   5.988   2.369   2.184  1.2748 -1.2009  1.8656
 3817TIP3   OH232941   2.238   1.287   4.760 -0.3763 -0.7401 -0.2556
 3817TIP3    H132942   2.329   1.256   4.758  0.7881  1.8187  3.1159
 3817TIP3    H232943   2.230   1.342   4.683  0.9619 -0.9608 -0.5834
 3818TIP3   OH232944   2.735   0.132  11.193  0.1669  0.2034 -0.1695
 3818TIP3    H132945   2.745   0.075  11.117  0.0931  0.4795 -0.3915
 3818TIP3    H232946   2.648   0.170  11.183  0.0620  0.0563  0.1834
 3819TIP3   OH232947   2.942   1.758  12.317 -0.6572 -0.2578  0.1344
 3819TIP3    H132948   3.034   1.776  12.334 -0.7148 -0.6817  0.9460
 3819TIP3    H232949   2.895   1.811  12.382 -0.9536 -0.6142  0.2154
 3820TIP3   OH232950   2.330   1.269   6.328  0.0716  0.2956  0.1572
 3820TIP3    H132951   2.236   1.258   6.314 -0.4794  1.1184  2.6001
 3820TIP3    H232952   2.336   1.303   6.418  2.8633 -3.2354  1.5613
 3821TIP3   OH232953   3.312   5.274   5.242 -0.2439  0.3602 -0.2792
 3821TIP3    H132954   3.221   5.263   5.267 -0.3294 -0.7192 -1.0133
 3821TIP3    H232955   3.359   5.279   5.326 -0.8634 -0.0967  0.1077
 3822TIP3   OH232956   2.675   6.296  11.950 -0.5002  0.5915 -0.4214
 3822TIP3    H132957   2.590   6.315  11.991 -1.5043 -0.2962 -1.9945
 3822TIP3    H232958   2.727   6.375  11.965 -0.5073  0.0897  3.1130
 3823TIP3   OH232959   2.551   4.680   4.727 -0.0545 -0.2384  0.0528
 3823TIP3    H132960   2.556   4.679   4.632  0.0484  0.9955  0.0318
 3823TIP3    H232961   2.462   4.652   4.747 -0.7627  1.5140 -0.4966
 3824TIP3   OH232962   5.034   3.942  16.295  0.2995  0.5634 -0.2316
 3824TIP3    H132963   5.053   3.884  16.222  0.9388  1.3813 -0.7301
 3824TIP3    H232964   5.116   3.947  16.343  0.8079  2.4734 -1.2210
 3825TIP3   OH232965   4.305   2.541   1.307 -0.0844 -0.0044 -0.7607
 3825TIP3    H132966   4.323   2.614   1.367  0.2867  1.6011 -2.7194
 3825TIP3    H232967   4.391   2.503   1.288 -0.2755 -0.9723  0.2377
 3826TIP3   OH232968   3.935   0.553   5.053 -0.0378  0.5483  0.1691
 3826TIP3    H132969   3.972   0.640   5.067 -0.5205  0.8093 -0.1809
 3826TIP3    H232970   3.955   0.506   5.134 -0.2437  1.1452  0.5756
 3827TIP3   OH232971   6.368   2.337   5.410 -0.0184 -0.2159  0.6159
 3827TIP3    H132972   6.305   2.274   5.446 -0.2158 -0.5782 -0.3282
 3827TIP3    H232973   6.408   2.291   5.337  0.5194  0.4280  0.5018
 3828TIP3   OH232974   2.438   6.231   3.034 -0.3719  0.0418 -0.2642
 3828TIP3    H132975   2.507   6.165   3.038 -0.5654 -0.0968  1.6115
 3828TIP3    H232976   2.393   6.214   2.950 -0.1798 -1.9519 -0.0178
 3829TIP3   OH232977   4.171   5.601  16.780 -0.0793  0.2016  0.0589
 3829TIP3    H132978   4.155   5.647  16.697  0.3855  3.0369  1.4195
 3829TIP3    H232979   4.247   5.645  16.817 -0.9770 -0.2066  2.5498
 3830TIP3   OH232980   1.782   0.839   6.019 -0.2220  0.0386 -0.2467
 3830TIP3    H132981   1.792   0.826   6.113 -0.2312  0.1612 -0.2287
 3830TIP3    H232982   1.869   0.864   5.989 -0.0106 -0.8601 -0.4129
 3831TIP3   OH232983   5.478   0.506  12.302 -0.6845  0.2438 -0.5816
 3831TIP3    H132984   5.405   0.483  12.243  1.4363 -1.5093 -2.7354
 3831TIP3    H232985   5.490   0.428  12.356 -0.6330  0.6687  0.0213
 3832TIP3   OH232986   1.823   6.258   6.248  0.5264 -0.6584  0.0060
 3832TIP3    H132987   1.834   6.331   6.308 -0.9028 -0.3041 -0.1233
 3832TIP3    H232988   1.792   6.186   6.303 -0.5946 -0.3907 -0.2499
 3833TIP3   OH232989   3.545   0.225  12.815  0.1516 -0.5182 -0.1698
 3833TIP3    H132990   3.483   0.154  12.831 -0.7624  0.3123  0.0952
 3833TIP3    H232991   3.631   0.185  12.827 -0.3038 -1.8003 -0.9574
 3834TIP3   OH232992   2.919   5.314  16.138 -0.1219  0.4857 -0.7784
 3834TIP3    H132993   2.915   5.393  16.083 -0.0609  3.8930  3.5366
 3834TIP3    H232994   3.012   5.296  16.146 -0.0711  0.6743 -0.9225
 3835TIP3   OH232995   5.766   1.541   1.308 -0.9327  0.2456  0.4943
 3835TIP3    H132996   5.836   1.606   1.307  1.6641 -2.3374 -0.9563
 3835TIP3    H232997   5.756   1.518   1.400  1.1484 -0.2209  0.6584
 3836TIP3   OH232998   6.363   1.495  16.001 -0.9567  0.1382  0.1179
 3836TIP3    H132999   6.309   1.489  15.923  0.9102  0.9218 -1.2939
 3836TIP3    H233000   6.453   1.484  15.970 -0.0885  1.3405  1.9969
 3837TIP3   OH233001   1.009   1.717   1.646  0.0317  0.2649 -0.5545
 3837TIP3    H133002   0.982   1.628   1.624  0.9183  0.3524 -2.1210
 3837TIP3    H233003   0.953   1.741   1.720 -0.3919 -1.4932 -0.2558
 3838TIP3   OH233004   3.936   4.013  13.486  0.3363  0.2957  0.1444
 3838TIP3    H133005   3.879   4.001  13.562 -0.9898  0.7718 -0.7358
 3838TIP3    H233006   3.898   4.087  13.439  2.4353  1.4417  0.1549
 3839TIP3   OH233007   1.099   1.340   2.506  0.1133 -0.1993 -0.0738
 3839TIP3    H133008   1.106   1.245   2.506  0.0205 -0.2117 -0.7031
 3839TIP3    H233009   1.053   1.361   2.587 -0.6109 -0.7554 -0.3288
 3840TIP3   OH233010   1.588   1.034   1.721  0.2630  0.2937  0.0246
 3840TIP3    H133011   1.653   0.970   1.750  1.5733  1.3943 -0.3791
 3840TIP3    H233012   1.636   1.117   1.719 -0.5290  0.7675 -2.4569
 3841TIP3   OH233013   5.450   2.806  14.624  0.7172  0.4868 -0.5468
 3841TIP3    H133014   5.500   2.875  14.666  0.6861  0.8922 -1.1556
 3841TIP3    H233015   5.380   2.852  14.577 -0.6724 -0.1165  0.8620
 3842TIP3   OH233016   4.660   1.453   2.784 -0.0089  0.2969  0.2587
 3842TIP3    H133017   4.632   1.364   2.763  1.3077 -0.3900  1.2724
 3842TIP3    H233018   4.591   1.487   2.841 -0.9467  0.2689 -0.8166
 3843TIP3   OH233019   0.780   1.833   2.729 -0.4949  0.0154 -0.2700
 3843TIP3    H133020   0.793   1.801   2.819  0.2642 -0.0012 -0.3823
 3843TIP3    H233021   0.737   1.760   2.684 -1.9103  0.4308  0.3599
 3844TIP3   OH233022   1.981   1.844   5.148  0.3697  0.0538  0.1302
 3844TIP3    H133023   2.044   1.826   5.218  0.3300  0.6092  0.3117
 3844TIP3    H233024   2.021   1.913   5.096  0.5160 -0.5364 -0.5613
 3845TIP3   OH233025   1.010   5.868  15.191  0.0616  0.5431  0.6775
 3845TIP3    H133026   1.067   5.855  15.115  0.6040  0.6854  1.0596
 3845TIP3    H233027   0.922   5.847  15.159  0.6445 -2.4633  0.7792
 3846TIP3   OH233028   0.615   3.914  13.869 -0.7694  0.3022 -0.3886
 3846TIP3    H133029   0.602   3.871  13.954  0.4783 -0.1638 -0.4051
 3846TIP3    H233030   0.705   3.946  13.873  1.0544 -3.6475 -3.1148
 3847TIP3   OH233031   4.352   1.266  13.874  0.0593 -0.0749  0.3679
 3847TIP3    H133032   4.308   1.310  13.800  1.0136 -1.6334 -1.1926
 3847TIP3    H233033   4.444   1.292  13.866  0.3228 -0.9583  0.4674
 3848TIP3   OH233034   5.598   2.929   4.722 -0.4133  0.5057  0.3710
 3848TIP3    H133035   5.579   3.006   4.669  0.5947  0.0363 -0.7155
 3848TIP3    H233036   5.589   2.855   4.662  1.9980  0.0572  0.4545
 3849TIP3   OH233037   1.064   1.332   4.858  0.4084 -0.5159 -0.4347
 3849TIP3    H133038   0.983   1.383   4.851 -0.0640 -1.3852 -1.6113
 3849TIP3    H233039   1.134   1.396   4.846 -0.1209  0.1146 -0.2339
 3850TIP3   OH233040   0.920   5.031   4.885  0.3295 -0.2742  0.0550
 3850TIP3    H133041   0.992   5.022   4.949 -0.9227 -1.5264  1.3782
 3850TIP3    H233042   0.913   4.944   4.846  0.9069  0.4165 -1.6471
 3851TIP3   OH233043   2.136   6.554   5.481 -0.7654 -0.1917 -1.1194
 3851TIP3    H133044   2.196   6.616   5.439  0.7596  0.2085  1.4702
 3851TIP3    H233045   2.066   6.609   5.517 -0.7701 -0.2660 -1.0152
 3852TIP3   OH233046   2.047   4.984  16.977  0.0916 -0.1801  0.0796
 3852TIP3    H133047   1.993   4.905  16.977  0.2665 -0.3721  2.5598
 3852TIP3    H233048   2.136   4.952  16.993  0.4238  0.4169 -0.5208
 3853TIP3   OH233049   1.906   0.846  11.638  0.7377 -0.0289 -0.2611
 3853TIP3    H133050   1.877   0.754  11.636  1.1278 -0.1403 -0.9152
 3853TIP3    H233051   1.899   0.871  11.730  2.8908 -1.4422  0.3668
 3854TIP3   OH233052   2.440   3.799  13.237  0.1358 -0.1149  0.0466
 3854TIP3    H133053   2.465   3.714  13.274 -0.9857  0.2976  1.8737
 3854TIP3    H233054   2.518   3.854  13.248 -0.3865  0.2279  2.6758
 3855TIP3   OH233055   4.650   1.020   5.382 -0.4411 -0.4923 -0.2224
 3855TIP3    H133056   4.637   0.928   5.408  2.4974 -0.3045  2.4551
 3855TIP3    H233057   4.720   1.016   5.316 -0.6437 -0.1903 -0.4554
 3856TIP3   OH233058   2.154   3.351  16.023  0.0437  0.0041  0.8465
 3856TIP3    H133059   2.080   3.378  15.969 -0.7532 -1.1477  1.3354
 3856TIP3    H233060   2.132   3.379  16.111 -0.1598 -0.9748  1.1184
 3857TIP3   OH233061   2.461   0.310  13.611 -0.6391 -0.7008 -0.2511
 3857TIP3    H133062   2.546   0.347  13.587 -1.0588 -0.0575 -0.7974
 3857TIP3    H233063   2.452   0.233  13.555 -0.5382 -0.6003 -0.4087
 3858TIP3   OH233064   4.571   1.142  12.486 -0.7849  0.3976  0.0765
 3858TIP3    H133065   4.516   1.067  12.464 -1.8342  0.8149  1.1713
 3858TIP3    H233066   4.633   1.107  12.551 -0.0370  0.0433 -0.8053
 3859TIP3   OH233067   2.418   3.187  13.286 -0.8593 -0.5984  0.2373
 3859TIP3    H133068   2.331   3.217  13.312 -1.5221 -1.2563 -1.1296
 3859TIP3    H233069   2.420   3.094  13.309 -1.4936 -1.2176 -1.9919
 3860TIP3   OH233070   0.110   6.571   6.750  0.0450  0.1624  0.1871
 3860TIP3    H133071   0.112   6.615   6.665  0.7837  2.7324  1.4474
 3860TIP3    H233072   0.018   6.572   6.775 -0.0186  0.4982 -0.0528
 3861TIP3   OH233073   6.489   1.300   1.398 -0.1958 -0.4302  0.3591
 3861TIP3    H133074   6.508   1.269   1.310  0.0904  1.6940 -0.3885
 3861TIP3    H233075   6.555   1.367   1.415 -1.2273  0.3396  1.5340
 3862TIP3   OH233076   0.085   3.001   5.795 -0.4259  0.2647 -0.1445
 3862TIP3    H133077   0.098   2.953   5.876  1.4514 -1.3873 -1.3090
 3862TIP3    H233078   0.131   3.084   5.808 -0.6062  0.2419  0.6567
 3863TIP3   OH233079   4.856   1.219  17.366 -0.0183  0.0725 -0.0198
 3863TIP3    H133080   4.922   1.252  17.427  0.1208  1.0365 -0.6684
 3863TIP3    H233081   4.797   1.294  17.352 -1.8771 -1.0593  1.3432
 3864TIP3   OH233082   1.524   2.913   2.401 -0.8977 -0.0939 -0.4586
 3864TIP3    H133083   1.550   2.886   2.313  0.8034  1.0613 -0.3564
 3864TIP3    H233084   1.575   2.992   2.419 -1.2868 -0.2257  1.5258
 3865TIP3   OH233085   4.610   0.063  16.677  0.2185 -0.4013  0.3835
 3865TIP3    H133086   4.679   0.129  16.680  0.9077 -1.1119  0.4262
 3865TIP3    H233087   4.579   0.065  16.586  0.6088 -0.3953  0.2491
 3866TIP3   OH233088   3.925   0.506   3.187 -0.0409 -0.2834  0.4955
 3866TIP3    H133089   4.004   0.528   3.137 -0.6838  1.0606  0.0502
 3866TIP3    H233090   3.946   0.530   3.277  0.6991 -1.6424  0.7212
 3867TIP3   OH233091   5.550   1.714   4.870  0.0972  0.5528 -0.4115
 3867TIP3    H133092   5.644   1.705   4.881  0.0349 -0.6269 -0.6762
 3867TIP3    H233093   5.538   1.734   4.777  0.0187 -1.0804 -0.7879
 3868TIP3   OH233094   1.106   0.149  12.987  0.1417  0.1107 -0.4443
 3868TIP3    H133095   1.185   0.104  12.956  0.3497  0.4303 -0.3803
 3868TIP3    H233096   1.052   0.079  13.024  0.9864  0.0739  0.7600
 3869TIP3   OH233097   5.076   6.319  13.753  0.5890  0.1351  0.1989
 3869TIP3    H133098   5.103   6.231  13.778 -1.5082 -0.5092  0.4573
 3869TIP3    H233099   5.096   6.325  13.660  2.2261  0.0248  0.5166
 3870TIP3   OH233100   2.486   5.297  14.725  0.5658 -0.3059 -0.0480
 3870TIP3    H133101   2.452   5.317  14.812  1.1279  2.1429 -0.3354
 3870TIP3    H233102   2.424   5.337  14.664  0.5519 -1.3890 -0.7782
 3871TIP3   OH233103   3.421   2.987   0.230  0.5174  0.0348  0.1847
 3871TIP3    H133104   3.475   3.036   0.292  0.8459  0.2792 -0.2902
 3871TIP3    H233105   3.406   2.903   0.273 -0.5817  0.7599  1.2832
 3872TIP3   OH233106   4.178   1.992   5.545  0.5441 -0.2920 -0.0108
 3872TIP3    H133107   4.265   1.979   5.582  0.3397 -0.7848  0.3069
 3872TIP3    H233108   4.128   1.916   5.574  0.3806 -0.7017 -1.3111
 3873TIP3   OH233109   1.314   0.886   3.464  0.1642  0.1079 -0.3867
 3873TIP3    H133110   1.258   0.938   3.407 -0.6865 -1.6458 -1.2301
 3873TIP3    H233111   1.317   0.935   3.547 -1.5269  0.9085 -0.7610
 3874TIP3   OH233112   1.846   3.420   0.467  0.0730 -0.5109  0.7094
 3874TIP3    H133113   1.892   3.497   0.498 -1.5085 -0.2925  2.7717
 3874TIP3    H233114   1.782   3.454   0.404  1.5435 -0.6039 -0.8742
 3875TIP3   OH233115   0.322   6.521   0.846  0.0715 -0.7683 -0.1488
 3875TIP3    H133116   0.264   6.590   0.815 -1.3590 -1.4267  0.9341
 3875TIP3    H233117   0.355   6.479   0.767 -1.8447 -1.1123 -0.8088
 3876TIP3   OH233118   4.128   2.058  15.260 -0.1017 -0.4240 -0.1145
 3876TIP3    H133119   4.055   2.017  15.212  1.3358 -1.6977 -1.3220
 3876TIP3    H233120   4.197   2.067  15.194  0.3300  2.2708  0.5825
 3877TIP3   OH233121   1.767   5.432   1.123 -0.5057  0.8843 -0.6294
 3877TIP3    H133122   1.787   5.353   1.174 -2.1247  1.0272  0.2963
 3877TIP3    H233123   1.753   5.401   1.034 -1.4754  0.0603 -0.2011
 3878TIP3   OH233124   0.799   4.726   1.676  0.7127 -0.1592  0.6321
 3878TIP3    H133125   0.722   4.779   1.698 -0.2511 -1.1458 -0.1854
 3878TIP3    H233126   0.869   4.789   1.661 -0.2079  0.8408  0.4347
 3879TIP3   OH233127   4.871   6.551   1.334 -0.0593  0.4015 -0.1478
 3879TIP3    H133128   4.784   6.591   1.342  0.6256  1.5905  2.2076
 3879TIP3    H233129   4.901   6.576   1.246 -1.8106  0.5053 -0.7473
 3880TIP3   OH233130   4.132   3.385  16.752  0.2363 -0.6956  0.4124
 3880TIP3    H133131   4.097   3.403  16.665  2.3235 -3.5140 -1.1819
 3880TIP3    H233132   4.061   3.338  16.797  0.6457 -3.6139 -1.6619
 3881TIP3   OH233133   6.474   3.375   1.279 -0.1878  0.4685 -0.4171
 3881TIP3    H133134   6.444   3.466   1.273 -0.2781  0.6120  1.5913
 3881TIP3    H233135   6.570   3.382   1.282 -0.0794  0.3193 -2.1938
 3882TIP3   OH233136   3.889   1.149   3.545 -0.1010 -0.3547  0.1387
 3882TIP3    H133137   3.927   1.118   3.627  0.4274  0.9574  0.4127
 3882TIP3    H233138   3.802   1.109   3.542 -0.7491  0.8048  2.1185
 3883TIP3   OH233139   2.836   2.539   4.168  0.5260  0.7544  0.0857
 3883TIP3    H133140   2.785   2.462   4.144 -0.9793  1.8924 -0.5356
 3883TIP3    H233141   2.786   2.580   4.239  2.1628  0.3055  1.5610
 3884TIP3   OH233142   5.783   5.730   1.725 -0.3066 -0.2238 -0.4261
 3884TIP3    H133143   5.776   5.793   1.796 -2.3589  0.6782 -1.3265
 3884TIP3    H233144   5.740   5.651   1.758 -0.0400 -0.2619 -0.1790
 3885TIP3   OH233145   2.980   6.240   2.794  0.2825  0.3711  0.5685
 3885TIP3    H133146   2.913   6.210   2.732  0.9905  0.3139 -0.1938
 3885TIP3    H233147   2.977   6.335   2.789 -1.3799  0.4729  2.3528
 3886TIP3   OH233148   4.557   1.662   3.229 -0.2649  0.6920 -0.0435
 3886TIP3    H133149   4.585   1.607   3.303 -1.5590 -1.6542 -1.2056
 3886TIP3    H233150   4.483   1.712   3.263  1.2055  2.2124  1.1597
 3887TIP3   OH233151   0.438   4.849  12.363  0.4137  0.1536  0.1650
 3887TIP3    H133152   0.528   4.844  12.395  0.4677 -3.0256 -0.1789
 3887TIP3    H233153   0.437   4.928  12.309  2.6317  0.9700  1.1873
 3888TIP3   OH233154   3.149   3.798   2.880 -0.3134  0.4119  0.0072
 3888TIP3    H133155   3.211   3.869   2.893 -1.4966  1.5486 -0.4267
 3888TIP3    H233156   3.063   3.839   2.882 -1.4011 -1.5075  4.0574
 3889TIP3   OH233157   5.484   4.461  14.816  0.1232 -0.0917  0.0601
 3889TIP3    H133158   5.409   4.513  14.843 -0.8149 -0.8267 -1.0471
 3889TIP3    H233159   5.551   4.525  14.791 -0.3007  0.5627  0.5841
 3890TIP3   OH233160   3.552   5.780  16.308  0.0071  0.2415  0.2346
 3890TIP3    H133161   3.471   5.821  16.338 -3.0742 -3.4225 -2.0922
 3890TIP3    H233162   3.578   5.832  16.232  0.1214  1.6473  1.1921
 3891TIP3   OH233163   4.468   0.784  15.688 -0.2694  0.1463 -0.1136
 3891TIP3    H133164   4.499   0.832  15.764 -0.6952 -0.7506  0.6538
 3891TIP3    H233165   4.528   0.709  15.681 -0.1714  0.2784 -0.7224
 3892TIP3   OH233166   3.283   6.286   3.134 -0.1041  0.3668 -0.0601
 3892TIP3    H133167   3.197   6.323   3.116  0.3133  0.2554 -2.7727
 3892TIP3    H233168   3.272   6.192   3.125  0.3736  0.3858 -1.0158
 3893TIP3   OH233169   0.894   5.945   1.254 -0.0293 -0.0026  0.0321
 3893TIP3    H133170   0.822   5.985   1.205  0.8201  0.4468 -0.8820
 3893TIP3    H233171   0.874   5.963   1.345 -0.9182  0.3859 -0.2290
 3894TIP3   OH233172   4.437   1.201  11.431 -0.3468  0.4945 -0.1195
 3894TIP3    H133173   4.353   1.247  11.427 -0.1426  0.7863 -1.9364
 3894TIP3    H233174   4.456   1.180  11.339  2.2905  1.7413  0.0756
 3895TIP3   OH233175   3.805   5.645   3.108 -0.0900  0.4365 -0.4992
 3895TIP3    H133176   3.878   5.638   3.046 -0.0672  0.0143 -0.4318
 3895TIP3    H233177   3.735   5.593   3.069  0.7232 -1.8962  0.9358
 3896TIP3   OH233178   0.716   1.523  14.172  0.2573  0.4587 -0.4064
 3896TIP3    H133179   0.672   1.503  14.090 -0.6553  0.5587  0.0400
 3896TIP3    H233180   0.783   1.587  14.150  0.6232 -0.1896 -1.2120
 3897TIP3   OH233181   6.368   3.141  14.374  0.4504 -0.0963  0.0625
 3897TIP3    H133182   6.349   3.175  14.462  0.5392  1.6514 -0.5691
 3897TIP3    H233183   6.462   3.152  14.364  0.4002 -0.0266 -0.3501
 3898TIP3   OH233184   5.001   3.337  16.405 -0.3164  0.5880  0.1907
 3898TIP3    H133185   5.075   3.279  16.387 -1.8170 -2.0995  2.0496
 3898TIP3    H233186   5.035   3.399  16.469  0.5663 -0.0756  0.3907
 3899TIP3   OH233187   5.668   5.407  14.676  0.5076  0.5743 -0.0883
 3899TIP3    H133188   5.689   5.436  14.765  0.0686 -0.5932  0.4057
 3899TIP3    H233189   5.743   5.354  14.650  0.7420  1.1078 -0.5082
 3900TIP3   OH233190   4.722   6.130   5.433 -0.3327 -0.1223  0.3833
 3900TIP3    H133191   4.799   6.080   5.405 -0.2122 -1.0336  2.2100
 3900TIP3    H233192   4.682   6.076   5.502 -1.4395  1.2989  0.9049
 3901TIP3   OH233193   5.679   5.824   0.377  0.4099  0.0956  0.5869
 3901TIP3    H133194   5.738   5.856   0.308 -0.5702 -0.0529 -0.3540
 3901TIP3    H233195   5.680   5.729   0.368 -2.7816  0.1179 -2.0100
 3902TIP3   OH233196   4.751   2.084  12.423 -0.6841 -0.4024  0.7328
 3902TIP3    H133197   4.699   2.150  12.470  0.7979  1.2730  0.1562
 3902TIP3    H233198   4.698   2.005  12.425 -1.5945  0.1637  3.4217
 3903TIP3   OH233199   6.739   0.662   1.578 -0.1566  0.7027 -0.2296
 3903TIP3    H133200   6.707   0.623   1.659 -0.3325  1.8999  0.3069
 3903TIP3    H233201   6.771   0.749   1.604  1.0270  0.5920 -1.2136
 3904TIP3   OH233202   3.569   6.562   3.579  0.0455  0.4715  0.3700
 3904TIP3    H133203   3.583   6.575   3.673  1.3694  2.3267 -0.0173
 3904TIP3    H233204   3.582   6.468   3.566  1.3591  0.3914  1.8350
 3905TIP3   OH233205   2.774   5.809   3.815 -0.1214  0.1097 -0.1245
 3905TIP3    H133206   2.835   5.735   3.821  2.5418  2.1335 -0.2804
 3905TIP3    H233207   2.747   5.811   3.723  0.8826  0.0995 -0.4303
 3906TIP3   OH233208   6.024   1.518  13.035 -0.6448 -0.2955  0.4666
 3906TIP3    H133209   6.067   1.599  13.061  1.3050 -1.5033  1.3033
 3906TIP3    H233210   5.973   1.541  12.957  1.4402  1.3166 -0.5256
 3907TIP3   OH233211   1.934   6.232   2.495  0.0021 -0.5916  0.2803
 3907TIP3    H133212   1.927   6.313   2.445 -0.0497 -2.2061 -2.4987
 3907TIP3    H233213   1.998   6.251   2.563 -1.3189  2.2756  0.8798
 3908TIP3   OH233214   3.005   0.119  14.204  0.4792  0.4777  0.2090
 3908TIP3    H133215   2.960   0.161  14.131  2.1716  1.3462 -0.3801
 3908TIP3    H233216   3.077   0.070  14.164  1.5990  1.1833  1.2790
 3909TIP3   OH233217   3.752   2.329  15.406 -0.0135 -0.0400 -0.2038
 3909TIP3    H133218   3.712   2.412  15.379 -0.4175  0.1334  0.8724
 3909TIP3    H233219   3.751   2.333  15.502 -0.0744 -1.3115 -0.1418
 3910TIP3   OH233220   2.341   6.409  15.646 -0.4374 -0.0271  0.4658
 3910TIP3    H133221   2.349   6.454  15.562 -0.3590 -1.8134 -0.5333
 3910TIP3    H233222   2.249   6.419  15.671 -0.0771  2.1352  1.1816
 3911TIP3   OH233223   4.842   4.924   0.503  0.0553  0.1410  0.1062
 3911TIP3    H133224   4.851   4.914   0.408  2.0364 -0.6369  0.3393
 3911TIP3    H233225   4.921   4.970   0.530 -1.2960  1.9651  1.2027
 3912TIP3   OH233226   6.285   2.835  16.779  0.2747  0.2397 -0.1510
 3912TIP3    H133227   6.357   2.873  16.729 -0.3109  1.1601 -0.3165
 3912TIP3    H233228   6.317   2.748  16.804  1.4763  0.6602 -0.1402
 3913TIP3   OH233229   2.316   0.021  13.336 -0.2160 -0.5122  0.6743
 3913TIP3    H133230   2.324  -0.018  13.249 -2.1593  0.2819  0.0914
 3913TIP3    H233231   2.253   0.092  13.325 -1.2697 -1.0101  2.9115
 3914TIP3   OH233232   2.939   5.205  14.717 -0.3890 -0.0330 -0.3027
 3914TIP3    H133233   2.974   5.294  14.718  1.3067 -0.6477 -0.5384
 3914TIP3    H233234   2.950   5.175  14.807  0.0932 -0.3680 -0.4681
 3915TIP3   OH233235   3.737   0.189   5.950 -0.1784  0.2267  0.4560
 3915TIP3    H133236   3.702   0.276   5.930 -0.6122 -0.0096  0.1818
 3915TIP3    H233237   3.687   0.160   6.027 -0.4618 -0.0352  0.1743
 3916TIP3   OH233238   5.580   0.983   2.007 -0.0458  0.3295  0.0331
 3916TIP3    H133239   5.597   1.043   2.080 -1.0515 -1.5836  1.9291
 3916TIP3    H233240   5.650   1.002   1.944  1.3735  1.4658  1.8644
 3917TIP3   OH233241   1.601   0.607   0.981  0.0309  0.0093  0.1542
 3917TIP3    H133242   1.581   0.520   0.946 -3.2878  0.7301 -0.1462
 3917TIP3    H233243   1.628   0.658   0.905  3.6592 -1.0346  0.5807
 3918TIP3   OH233244   2.460   2.937  13.770 -0.1297  0.0071 -0.7240
 3918TIP3    H133245   2.439   3.026  13.798  0.0684  0.5801 -2.2944
 3918TIP3    H233246   2.375   2.896  13.757 -0.2283  0.2371 -0.8193
 3919TIP3   OH233247   1.631   4.761   5.352 -0.0650 -0.1954  0.2194
 3919TIP3    H133248   1.667   4.711   5.426  3.0592  1.8548  0.2729
 3919TIP3    H233249   1.555   4.806   5.388 -0.3430 -1.4778  1.3338
 3920TIP3   OH233250   2.174   0.316  15.257  0.5241 -0.1010  0.0959
 3920TIP3    H133251   2.174   0.251  15.186  2.5988  0.0026 -0.0518
 3920TIP3    H233252   2.103   0.375  15.235  1.0041 -0.1679 -1.8353
 3921TIP3   OH233253   2.852   2.018   5.320 -0.0484 -0.4230  0.1433
 3921TIP3    H133254   2.883   2.105   5.295  0.1984 -0.4912  0.2089
 3921TIP3    H233255   2.871   2.011   5.414 -0.6992 -0.2822  0.2858
 3922TIP3   OH233256   4.438   6.293  11.353 -0.6615  0.2675 -0.8327
 3922TIP3    H133257   4.365   6.245  11.393 -0.7090 -0.9598 -2.3002
 3922TIP3    H233258   4.481   6.229  11.297  3.2954  0.1215  1.9760
 3923TIP3   OH233259   5.021   4.385  14.598 -0.1069  0.4257  0.1982
 3923TIP3    H133260   5.021   4.406  14.505 -0.7528  0.3755  0.1799
 3923TIP3    H233261   4.934   4.412  14.629  0.0490  0.3080  0.7529
 3924TIP3   OH233262   2.724   0.830  13.908  0.1436 -0.3622  0.3565
 3924TIP3    H133263   2.772   0.757  13.868 -2.1088 -2.1925  0.8140
 3924TIP3    H233264   2.691   0.795  13.991 -1.6781  0.9039  0.2295
 3925TIP3   OH233265   2.883   0.172  15.085  0.0720  0.5733  0.2477
 3925TIP3    H133266   2.962   0.207  15.043 -0.7023  0.4544 -1.3848
 3925TIP3    H233267   2.861   0.236  15.152  1.3932  0.7515  0.5368
 3926TIP3   OH233268   6.616   4.989  16.163 -0.4506  0.6887 -0.3361
 3926TIP3    H133269   6.681   4.925  16.191  1.0010  2.5334  0.7759
 3926TIP3    H233270   6.562   5.003  16.242  0.1759  1.8719 -0.0978
 3927TIP3   OH233271   1.739   6.583   1.135 -0.4503 -0.9020 -0.7881
 3927TIP3    H133272   1.753   6.555   1.226  0.2436  0.3209 -0.4986
 3927TIP3    H233273   1.826   6.606   1.103 -0.9158  0.4861 -1.1368
 3928TIP3   OH233274   0.283   6.393   2.385  0.8032 -0.6417 -0.1004
 3928TIP3    H133275   0.212   6.370   2.324  0.6766 -2.4277  0.6565
 3928TIP3    H233276   0.299   6.486   2.368 -1.2910 -0.3193 -0.7274
 3929TIP3   OH233277   3.568   5.429   1.976  0.0487 -0.0511  0.1029
 3929TIP3    H133278   3.534   5.357   1.923 -1.4426  1.2994 -0.8722
 3929TIP3    H233279   3.490   5.472   2.011  0.8403  1.7033 -0.1736
 3930TIP3   OH233280   1.718   1.375  15.674  0.1059 -0.2551 -0.4526
 3930TIP3    H133281   1.786   1.440  15.655 -0.7341  0.7422 -0.1121
 3930TIP3    H233282   1.682   1.402  15.759 -1.6529  0.0474 -1.2539
 3931TIP3   OH233283   4.402   0.262   5.987 -0.3666  0.2854  0.3492
 3931TIP3    H133284   4.356   0.344   5.967 -1.4961 -0.7531 -1.5484
 3931TIP3    H233285   4.342   0.215   6.045 -1.2065 -0.5173 -1.1063
 3932TIP3   OH233286   1.388   6.527  15.059 -0.2606 -0.0683  0.0073
 3932TIP3    H133287   1.329   6.548  14.988 -0.4296 -0.3377  0.0692
 3932TIP3    H233288   1.371   6.435  15.080  0.9540 -0.4853 -0.7158
 3933TIP3   OH233289   4.453   2.207  14.852 -0.4101  0.7348 -0.1578
 3933TIP3    H133290   4.402   2.194  14.771  1.9715 -0.8813 -1.5415
 3933TIP3    H233291   4.541   2.177  14.829  0.4507  0.5361  2.9813
 3934TIP3   OH233292   1.549   5.367  12.366 -0.2145 -0.0773  0.6017
 3934TIP3    H133293   1.513   5.363  12.278 -2.3615  0.2065  1.4044
 3934TIP3    H233294   1.565   5.276  12.391  0.6569 -0.1422 -0.1383
 3935TIP3   OH233295   1.177   4.178   5.704 -0.5371  0.2468  0.0824
 3935TIP3    H133296   1.214   4.223   5.780  1.3908  1.5138 -1.5217
 3935TIP3    H233297   1.130   4.103   5.742  1.3075  0.1544  2.4481
 3936TIP3   OH233298   4.079   1.993  13.634  0.3675  0.1089 -0.5508
 3936TIP3    H133299   4.160   1.943  13.627  0.2506 -0.2251  0.3655
 3936TIP3    H233300   4.010   1.927  13.626  0.1966  0.2849 -0.5353
 3937TIP3   OH233301   6.163   3.790   0.668 -0.0872  0.2314 -0.4480
 3937TIP3    H133302   6.236   3.732   0.643  0.4731  1.0745 -0.7959
 3937TIP3    H233303   6.141   3.763   0.757 -0.5743 -1.2566 -0.9891
 3938TIP3   OH233304   3.844   4.105   0.067 -0.0071  0.1233  0.0824
 3938TIP3    H133305   3.824   4.095   0.160 -1.2696  1.9073  0.0690
 3938TIP3    H233306   3.931   4.146   0.065  0.1111 -0.1082  0.4762
 3939TIP3   OH233307   4.623   0.258   4.857  0.1589  0.2512 -0.4067
 3939TIP3    H133308   4.543   0.239   4.906 -0.4585 -1.1964 -1.8611
 3939TIP3    H233309   4.687   0.195   4.890  0.0014 -0.1303 -0.8121
 3940TIP3   OH233310   2.415   5.656  16.166  0.3195 -0.0774  0.5224
 3940TIP3    H133311   2.430   5.721  16.097  1.6618 -0.0912  0.7627
 3940TIP3    H233312   2.385   5.707  16.241 -0.2644  0.0487  0.2067
 3941TIP3   OH233313   5.667   3.732   4.952  0.2399 -0.0516 -0.1497
 3941TIP3    H133314   5.690   3.640   4.966  0.0245 -0.0064  0.5258
 3941TIP3    H233315   5.750   3.778   4.956  0.0618  0.1555  2.6462
 3942TIP3   OH233316   1.081   1.474  12.729  0.4265  0.3512  0.3780
 3942TIP3    H133317   1.018   1.428  12.785  0.3694 -1.1293 -0.8348
 3942TIP3    H233318   1.150   1.410  12.713  0.3154  0.6369 -1.4337
 3943TIP3   OH233319   5.420   2.409  12.867 -0.5084 -0.2942  0.6428
 3943TIP3    H133320   5.445   2.419  12.776 -2.8039  0.7945  0.0642
 3943TIP3    H233321   5.458   2.485  12.911 -0.0607 -0.4059  0.4537
 3944TIP3   OH233322   6.325   4.473   1.826 -0.2428  0.4202 -0.4567
 3944TIP3    H133323   6.335   4.530   1.902  0.0097  0.5395 -0.5765
 3944TIP3    H233324   6.346   4.529   1.751 -0.5099  0.3093 -0.6158
 3945TIP3   OH233325   4.562   6.080   1.071  0.3210  0.3672  0.4506
 3945TIP3    H133326   4.515   6.001   1.095 -0.5091  0.5895 -0.3953
 3945TIP3    H233327   4.644   6.049   1.033 -0.3487 -0.1178 -0.6244
 3946TIP3   OH233328   0.703   6.531  14.354  0.1688  0.8466  0.2647
 3946TIP3    H133329   0.768   6.460  14.349  0.6370  1.2615  0.3823
 3946TIP3    H233330   0.646   6.516  14.279 -0.1273 -0.0304  0.6483
 3947TIP3   OH233331   5.918   5.569  13.019 -0.0684 -0.2349  0.5309
 3947TIP3    H133332   6.007   5.538  13.032 -0.8495 -2.2991  1.3968
 3947TIP3    H233333   5.900   5.624  13.096 -0.1816 -1.4560  1.4020
 3948TIP3   OH233334   4.586   3.553  14.284 -0.1779  0.0969  0.1820
 3948TIP3    H133335   4.601   3.479  14.226 -2.3746 -1.4047  1.3791
 3948TIP3    H233336   4.548   3.621  14.228 -3.0639 -1.6206 -0.1417
 3949TIP3   OH233337   4.522   2.521   2.514  0.5991  0.1469 -0.6063
 3949TIP3    H133338   4.520   2.452   2.581  1.7036  1.2720  0.6453
 3949TIP3    H233339   4.562   2.480   2.438  0.8729 -0.6997 -0.0230
 3950TIP3   OH233340   1.415   0.286  11.151 -0.2141 -0.0785  0.0587
 3950TIP3    H133341   1.337   0.256  11.198 -1.2879  0.9704 -0.9729
 3950TIP3    H233342   1.465   0.206  11.134 -0.1542 -0.5798  2.2645
 3951TIP3   OH233343   6.620   5.311   5.745  0.4222 -0.4103 -0.4470
 3951TIP3    H133344   6.689   5.323   5.811 -1.7551 -0.0552  1.9259
 3951TIP3    H233345   6.601   5.217   5.747 -0.4272 -0.2419  0.3541
 3952TIP3   OH233346   1.602   0.961  17.368 -0.1425 -0.1880  0.0632
 3952TIP3    H133347   1.525   0.940  17.316 -0.6367  1.0541  0.2402
 3952TIP3    H233348   1.672   0.971  17.304 -0.3660 -0.3093 -0.2036
 3953TIP3   OH233349   5.692   1.005   2.839 -0.5076 -0.3767 -0.3386
 3953TIP3    H133350   5.638   1.045   2.908  0.7142 -1.3805  1.2688
 3953TIP3    H233351   5.779   1.042   2.853 -0.2804 -0.4489 -1.4956
 3954TIP3   OH233352   5.287   0.956   3.339  0.0974  0.2286 -0.2343
 3954TIP3    H133353   5.215   0.971   3.277  0.7754  2.5716 -0.5444
 3954TIP3    H233354   5.357   0.919   3.285  0.3733  1.4292 -0.7372
 3955TIP3   OH233355   3.673   4.730  17.146 -0.1537  0.2957 -0.0791
 3955TIP3    H133356   3.725   4.724  17.226 -0.2547  0.3570 -0.0098
 3955TIP3    H233357   3.665   4.823  17.129  0.8814  0.2783 -0.8162
 3956TIP3   OH233358   6.533   0.227   4.282  0.3243  0.4527 -0.6279
 3956TIP3    H133359   6.488   0.271   4.354 -0.0520 -0.9933  0.0688
 3956TIP3    H233360   6.468   0.221   4.212  0.0874  0.1730 -0.3811
 3957TIP3   OH233361   3.510   2.395  16.412 -0.3556 -0.0654 -0.0086
 3957TIP3    H133362   3.530   2.466  16.351  1.9822  0.6841  1.4681
 3957TIP3    H233363   3.479   2.323  16.357  0.1482  1.0974 -1.8887
 3958TIP3   OH233364   3.623   2.544  10.882 -0.2663  0.2136  0.5432
 3958TIP3    H133365   3.671   2.523  10.962 -2.1173 -0.4977  1.5360
 3958TIP3    H233366   3.569   2.620  10.905  0.7417  1.3610 -0.7177
 3959TIP3   OH233367   6.455   5.652  11.407  0.4674 -0.2149  0.2178
 3959TIP3    H133368   6.422   5.647  11.317 -1.5460 -1.9194  0.9610
 3959TIP3    H233369   6.545   5.618  11.401  0.9905  1.3086 -1.3617
 3960TIP3   OH233370   5.939   2.995   0.654 -0.1971  0.0671  0.9867
 3960TIP3    H133371   6.029   2.980   0.625 -0.9881  0.3223 -1.9940
 3960TIP3    H233372   5.944   3.073   0.708  1.0522  2.1705 -1.8876
 3961TIP3   OH233373   2.753   1.168  12.909  0.2291 -0.2938  0.3541
 3961TIP3    H133374   2.728   1.088  12.955  0.1168  0.5026  1.7412
 3961TIP3    H233375   2.849   1.163  12.902  0.1734 -0.7962 -0.0401
 3962TIP3   OH233376   5.356   0.005   4.189  0.6435  0.2210  0.1877
 3962TIP3    H133377   5.355   0.097   4.163  1.5664 -0.0454 -0.8679
 3962TIP3    H233378   5.433  -0.002   4.246 -0.8267  0.5984  2.3519
 3963TIP3   OH233379   3.746   1.157   0.414 -0.4789 -1.0382  0.0661
 3963TIP3    H133380   3.801   1.221   0.460  0.2375 -2.0045  0.5825
 3963TIP3    H233381   3.789   1.145   0.329 -0.5481 -0.9456  0.0162
 3964TIP3   OH233382   0.750   5.271   1.521  0.3923 -0.5828  0.3730
 3964TIP3    H133383   0.751   5.352   1.571 -0.3604  0.0794 -0.6345
 3964TIP3    H233384   0.836   5.266   1.480 -0.2025  0.7449 -1.1203
 3965TIP3   OH233385   2.976   6.497   1.377 -0.6753  0.4891 -0.7994
 3965TIP3    H133386   2.913   6.567   1.357  0.2110  1.0137 -1.8494
 3965TIP3    H233387   3.041   6.503   1.308  0.8794  0.3428  0.5911
 3966TIP3   OH233388   1.968   5.142  14.378  0.4347 -0.3077 -0.0241
 3966TIP3    H133389   1.972   5.237  14.389  0.3194 -0.1897 -0.9180
 3966TIP3    H233390   1.880   5.125  14.345 -1.1442 -1.2053  4.1493
 3967TIP3   OH233391   1.813   6.781  10.905 -0.6003  0.0287  0.0174
 3967TIP3    H133392   1.896   6.812  10.868 -0.5942 -0.3877 -0.3186
 3967TIP3    H233393   1.749   6.847  10.878 -0.6855 -0.4993 -1.1542
 3968TIP3   OH233394   5.289   3.735  15.183 -0.1360  0.2276 -0.2647
 3968TIP3    H133395   5.278   3.743  15.278 -0.0110  1.0208 -0.3114
 3968TIP3    H233396   5.378   3.702  15.171 -0.2614 -0.1767 -0.0979
 3969TIP3   OH233397   5.225   2.691   4.738 -0.2388  0.2075 -0.2378
 3969TIP3    H133398   5.286   2.744   4.788 -1.4562 -0.5340  2.2087
 3969TIP3    H233399   5.158   2.753   4.708 -0.1967  0.4836  0.2321
 3970TIP3   OH233400   2.787   1.762   6.315 -0.3485 -0.3306  0.5926
 3970TIP3    H133401   2.807   1.843   6.362  0.4174  0.0842 -0.4110
 3970TIP3    H233402   2.704   1.732   6.352 -1.0843  1.3726  0.3837
 3971TIP3   OH233403   3.661   4.271  13.772 -0.0468  0.3213 -0.0071
 3971TIP3    H133404   3.693   4.359  13.753 -0.0261  0.2221 -0.4490
 3971TIP3    H233405   3.736   4.214  13.755 -0.3202  0.1319 -0.6163
 3972TIP3   OH233406   6.253   1.956   0.295  0.0189  0.2283  0.1591
 3972TIP3    H133407   6.283   1.984   0.209  2.3552  0.7823  1.0724
 3972TIP3    H233408   6.316   1.889   0.322  1.1596  2.0773  2.5652
 3973TIP3   OH233409   4.147   6.037   2.888  0.0089 -0.1042  0.2448
 3973TIP3    H133410   4.083   6.059   2.821 -0.5331 -1.4248  0.2853
 3973TIP3    H233411   4.122   6.090   2.964 -1.6335 -1.2503  0.5545
 3974TIP3   OH233412   4.043   0.849   0.596 -1.0900 -0.5404 -0.0412
 3974TIP3    H133413   4.040   0.878   0.505 -0.8219  1.0181  0.4193
 3974TIP3    H233414   3.973   0.898   0.639 -0.7947 -0.7639  0.7117
 3975TIP3   OH233415   6.462   5.601  15.842 -0.1473  0.0858  0.0514
 3975TIP3    H133416   6.530   5.537  15.860  1.1017  1.2405 -0.3832
 3975TIP3    H233417   6.462   5.658  15.920 -1.1505 -0.3526  0.3793
 3976TIP3   OH233418   0.355   4.037  15.856  0.1640 -0.0200  0.2998
 3976TIP3    H133419   0.369   4.086  15.775  1.5247 -1.0464 -0.1460
 3976TIP3    H233420   0.260   4.026  15.862  0.0766 -0.7518 -1.6992
 3977TIP3   OH233421   5.854   3.064  12.909  0.2946  0.3378  0.5468
 3977TIP3    H133422   5.770   3.100  12.939  0.8177  0.4966  1.8848
 3977TIP3    H233423   5.875   2.995  12.971  0.8711 -0.1080 -0.1271
 3978TIP3   OH233424   4.399   3.486  15.331 -0.0548 -0.3533  0.3022
 3978TIP3    H133425   4.438   3.503  15.417  1.7537  0.8291 -0.6879
 3978TIP3    H233426   4.431   3.557  15.276 -1.2007 -1.0714 -1.3596
 3979TIP3   OH233427   2.289   4.806  12.849 -0.4521 -0.0551  0.5534
 3979TIP3    H133428   2.341   4.884  12.830  2.1572 -1.7331  0.4028
 3979TIP3    H233429   2.259   4.776  12.763  0.4155 -0.4297  0.3739
 3980TIP3   OH233430   3.828   4.168  11.892  0.2711 -0.9082 -0.7214
 3980TIP3    H133431   3.735   4.187  11.906 -0.2004 -0.5891 -3.6188
 3980TIP3    H233432   3.870   4.192  11.974 -1.9821  0.6520  0.0847
 3981TIP3   OH233433   4.449   2.712  15.998 -0.3123  0.5508  0.4149
 3981TIP3    H133434   4.443   2.621  15.970  1.7605  0.7441 -0.8232
 3981TIP3    H233435   4.412   2.712  16.086 -2.7268 -0.9666 -0.4833
 3982TIP3   OH233436   6.001   3.499  14.115  0.2844  0.4104 -0.3267
 3982TIP3    H133437   5.971   3.506  14.206  0.2997  1.3223 -0.3850
 3982TIP3    H233438   6.096   3.488  14.122  0.5739  2.5789 -0.2648
 3983TIP3   OH233439   0.657   3.002  12.154 -0.7113  0.2874  0.3907
 3983TIP3    H133440   0.733   2.945  12.165 -1.3337 -0.8106 -0.7519
 3983TIP3    H233441   0.642   3.004  12.059 -1.8289  0.8513  0.5630
 3984TIP3   OH233442   2.404   6.640   5.397  0.2251  0.4217  0.0927
 3984TIP3    H133443   2.443   6.622   5.482 -1.3854  1.6890  1.1672
 3984TIP3    H233444   2.400   6.735   5.392  0.3307  0.3766 -1.4432
 3985TIP3   OH233445   4.453   4.047   1.900  0.4550  0.1534  0.3487
 3985TIP3    H133446   4.524   3.983   1.901  0.8711  0.6098  0.6394
 3985TIP3    H233447   4.460   4.093   1.984 -0.5775 -0.2132  0.6568
 3986TIP3   OH233448   4.251   2.753   1.998  0.1069  0.0288 -0.0614
 3986TIP3    H133449   4.185   2.760   1.930  0.1048  2.0288  0.0774
 3986TIP3    H233450   4.285   2.842   2.008  0.3621 -0.2586  2.2905
 3987TIP3   OH233451   2.265   3.625  16.394 -0.0549 -0.4089 -0.2175
 3987TIP3    H133452   2.246   3.543  16.348  0.6442 -1.9342  2.0377
 3987TIP3    H233453   2.359   3.637  16.383  0.0881 -0.6969  0.6331
 3988TIP3   OH233454   5.515   6.531  14.119 -0.1337  0.0170  0.1944
 3988TIP3    H133455   5.451   6.461  14.135 -0.6826  0.1668 -1.2001
 3988TIP3    H233456   5.535   6.566  14.206 -0.4615 -1.3308  0.8403
 3989TIP3   OH233457   6.654   1.286   5.978  0.0474  0.1724 -0.0475
 3989TIP3    H133458   6.609   1.361   6.017 -1.1935 -0.5209 -0.0810
 3989TIP3    H233459   6.703   1.323   5.906  3.3213  1.6901  2.6838
 3990TIP3   OH233460   1.023   3.647  14.179 -0.4405  0.1127 -0.1077
 3990TIP3    H133461   1.024   3.555  14.206 -0.2958  0.2070  0.2069
 3990TIP3    H233462   0.985   3.645  14.091  1.2250 -0.4595 -0.8586
 3991TIP3   OH233463   3.989   2.015  11.410 -0.3285 -0.0663  0.1311
 3991TIP3    H133464   3.909   1.987  11.456 -0.4283 -0.0249 -0.0160
 3991TIP3    H233465   3.969   2.000  11.317 -1.0110  2.0455 -0.1094
 3992TIP3   OH233466   2.077   0.288  13.005  0.4723  0.3455  0.2099
 3992TIP3    H133467   2.117   0.370  12.974  0.2096  0.6337  0.6266
 3992TIP3    H233468   2.098   0.224  12.937  2.6685  0.1904  0.9608
 3993TIP3   OH233469   1.371   5.565  16.185  0.2416  0.5107  0.7264
 3993TIP3    H133470   1.384   5.580  16.279 -3.0171 -0.7846  1.5185
 3993TIP3    H233471   1.415   5.482  16.168 -1.7461 -0.8905  1.9493
 3994TIP3   OH233472   1.475   1.585  16.894  0.2294  0.1142  0.4057
 3994TIP3    H133473   1.506   1.656  16.838 -2.5858  0.8430 -0.3881
 3994TIP3    H233474   1.458   1.626  16.979 -1.3344  0.4406 -0.0340
 3995TIP3   OH233475   3.079   0.885   1.191 -0.0706  0.0578  0.1362
 3995TIP3    H133476   3.008   0.909   1.250  0.1348  0.2708  0.2987
 3995TIP3    H233477   3.098   0.794   1.213 -2.2158 -0.9826 -1.8585
 3996TIP3   OH233478   2.297   0.254  10.935  0.1521  0.1653 -0.4089
 3996TIP3    H133479   2.276   0.257  10.842 -1.2047 -0.1756 -0.1338
 3996TIP3    H233480   2.270   0.167  10.964  2.2874 -0.4504 -0.0503
 3997TIP3   OH233481   2.515   3.699  11.717 -0.8339  0.2192  0.6605
 3997TIP3    H133482   2.507   3.795  11.714 -1.8163  0.2845  3.3028
 3997TIP3    H233483   2.435   3.667  11.676  0.1854  0.4220 -1.6733
 3998TIP3   OH233484   2.180   6.709  16.249  0.4021 -0.2462 -0.4597
 3998TIP3    H133485   2.191   6.764  16.171 -0.7284  0.5286 -0.1084
 3998TIP3    H233486   2.099   6.660  16.231  0.7677 -0.9285 -0.2602
 3999TIP3   OH233487   1.886   5.922  12.113  0.0445  0.5344  0.2499
 3999TIP3    H133488   1.847   6.003  12.081  0.8755  0.0556 -2.2004
 3999TIP3    H233489   1.840   5.853  12.066  1.7685 -0.1837 -0.4719
 4000TIP3   OH233490   1.792   4.852  17.286  0.3405 -0.0801  0.0006
 4000TIP3    H133491   1.824   4.942  17.285  1.1826 -0.3774 -0.5983
 4000TIP3    H233492   1.784   4.831  17.379  0.6660  0.4250  0.1467
 4001TIP3   OH233493   1.424   0.888  10.532 -0.5170  0.2222  0.6430
 4001TIP3    H133494   1.453   0.978  10.518 -1.0516  0.1873 -0.9583
 4001TIP3    H233495   1.479   0.836  10.473 -3.1581  0.0835 -1.9448
 4002TIP3   OH233496   4.157   3.003  14.425 -0.2394 -0.2250 -0.2783
 4002TIP3    H133497   4.240   2.992  14.378  0.2008 -1.5351  0.7428
 4002TIP3    H233498   4.127   2.914  14.443 -1.2068  0.2365  0.5135
 4003TIP3   OH233499   3.639   1.625  11.053 -0.8260 -0.1610 -0.1640
 4003TIP3    H133500   3.596   1.710  11.040 -1.4479 -0.6956 -1.7525
 4003TIP3    H233501   3.729   1.647  11.079 -1.3071  0.9664  0.6190
 4004TIP3   OH233502   3.445   3.480   2.146  0.3333  0.6102 -0.2530
 4004TIP3    H133503   3.482   3.412   2.201 -1.5230  0.3304  0.7151
 4004TIP3    H233504   3.417   3.434   2.067  1.9892  0.8318 -1.0150
 4005TIP3   OH233505   0.380   0.512   0.543  0.5817  0.0166  0.0265
 4005TIP3    H133506   0.384   0.456   0.620 -2.1661 -2.2916 -1.3453
 4005TIP3    H233507   0.302   0.566   0.557  0.5288  0.1548 -0.7660
 4006TIP3   OH233508   3.947   1.536   1.023  0.4860  0.4436 -0.2513
 4006TIP3    H133509   4.000   1.510   1.099 -0.0979 -2.4675 -0.7553
 4006TIP3    H233510   4.009   1.538   0.950  0.3749 -0.4966 -0.3782
 4007TIP3   OH233511   5.784   4.965   0.131 -0.1439 -0.3923  0.0494
 4007TIP3    H133512   5.821   4.881   0.157  0.9886 -0.3000 -1.1892
 4007TIP3    H233513   5.841   4.997   0.062 -1.6579  0.5029 -0.8461
 4008TIP3   OH233514   6.448   0.804  16.295 -0.3418 -0.4530 -0.5077
 4008TIP3    H133515   6.412   0.842  16.375  1.1158  1.6647 -0.7643
 4008TIP3    H233516   6.394   0.727  16.278 -0.4646 -1.2187  2.7252
 4009TIP3   OH233517   6.598   5.504  13.656  0.2257  0.0486  0.1331
 4009TIP3    H133518   6.564   5.416  13.642 -0.4785  0.2061  0.7819
 4009TIP3    H233519   6.647   5.498  13.738  1.9441 -0.2147 -0.8789
 4010TIP3   OH233520   2.791   3.801   1.272 -0.0325  0.0927 -0.1038
 4010TIP3    H133521   2.798   3.821   1.179  0.3322  0.9159  0.0887
 4010TIP3    H233522   2.872   3.754   1.292 -0.1675 -0.1914 -0.2332
 4011TIP3   OH233523   1.160   3.251   1.296 -0.5103 -0.1954  0.5758
 4011TIP3    H133524   1.135   3.340   1.322  0.3361 -0.0514  0.9338
 4011TIP3    H233525   1.255   3.250   1.304 -0.2031 -0.2725 -2.1862
 4012TIP3   OH233526   4.939   4.099   3.913 -0.4190  0.2980 -0.5530
 4012TIP3    H133527   4.901   4.015   3.887 -1.7011  0.1826  1.4581
 4012TIP3    H233528   5.020   4.076   3.958 -0.1399  0.2344 -1.0847
 4013TIP3   OH233529   2.461   4.956  11.524 -0.1079 -0.4867  0.2737
 4013TIP3    H133530   2.412   5.020  11.577 -1.0153 -0.0303 -1.0722
 4013TIP3    H233531   2.442   4.872  11.566  0.8991  0.0600  1.9225
 4014TIP3   OH233532   1.875   2.689  15.670  0.2675 -0.5675  0.5309
 4014TIP3    H133533   1.814   2.741  15.723 -0.5157 -1.0089  0.0883
 4014TIP3    H233534   1.927   2.753  15.622  0.4404 -0.1764  1.2269
 4015TIP3   OH233535   3.735   1.706   2.490 -0.1492 -0.1661 -0.4215
 4015TIP3    H133536   3.675   1.675   2.423 -0.5347 -0.0237 -0.1454
 4015TIP3    H233537   3.752   1.629   2.545 -0.0345 -0.2195 -0.5314
 4016TIP3   OH233538   5.976   5.450   3.499  0.1060  0.4415  0.6557
 4016TIP3    H133539   5.999   5.536   3.464  0.2927  0.4032  0.6888
 4016TIP3    H233540   6.054   5.420   3.545  1.0600 -0.9602 -1.6876
 4017TIP3   OH233541   6.203   0.711   2.272 -1.0158 -0.2666 -0.0210
 4017TIP3    H133542   6.151   0.671   2.342 -1.3398  0.6820  0.2850
 4017TIP3    H233543   6.294   0.688   2.293 -0.6501  3.1376  2.8852
 4018TIP3   OH233544   2.701   0.734   0.303 -0.1348  0.6116  0.5684
 4018TIP3    H133545   2.636   0.760   0.239  0.7329 -0.1332 -0.6625
 4018TIP3    H233546   2.733   0.817   0.340  0.2108  1.1519 -0.8642
 4019TIP3   OH233547   2.214   5.603  16.848 -0.5764 -0.1993  0.7962
 4019TIP3    H133548   2.305   5.584  16.826 -0.4877  1.3743 -0.3433
 4019TIP3    H233549   2.217   5.633  16.939  0.2148  0.9571  0.4016
 4020TIP3   OH233550   2.628   6.279  15.538  0.0916  0.6886  0.2492
 4020TIP3    H133551   2.532   6.288  15.537 -0.0331 -0.5006 -0.3159
 4020TIP3    H233552   2.659   6.352  15.485 -0.5482  0.7281 -0.0871
 4021TIP3   OH233553   0.479   0.654   0.165 -0.3088 -0.4151  0.2198
 4021TIP3    H133554   0.546   0.612   0.111  0.2711  0.2336  0.4212
 4021TIP3    H233555   0.403   0.596   0.158  0.0168 -0.7604 -0.6359
 4022TIP3   OH233556   1.143   2.861   5.493 -0.2145  0.2201 -0.1259
 4022TIP3    H133557   1.164   2.889   5.582  1.6271 -0.2903 -0.3568
 4022TIP3    H233558   1.120   2.768   5.502 -0.2230  0.2192 -0.1539
 4023TIP3   OH233559   2.332   5.997   1.054 -0.2868 -0.5672  0.6309
 4023TIP3    H133560   2.363   5.924   1.107 -0.3238  0.0199  1.4885
 4023TIP3    H233561   2.237   5.987   1.051 -0.1715 -1.4865 -0.6772
 4024TIP3   OH233562   0.488   1.409  16.580  0.0642 -0.3200 -0.0755
 4024TIP3    H133563   0.515   1.480  16.638  0.1842 -0.8631  0.5557
 4024TIP3    H233564   0.542   1.419  16.502  0.4697 -0.0396  0.2374
 4025TIP3   OH233565   1.820   6.166  16.135 -0.3643 -0.0994 -0.4848
 4025TIP3    H133566   1.887   6.136  16.074 -0.1373 -1.1365  0.2421
 4025TIP3    H233567   1.768   6.228  16.085  1.0670  0.6668 -1.1032
 4026TIP3   OH233568   4.417   6.093   2.135  0.0971 -0.1006 -0.0017
 4026TIP3    H133569   4.487   6.037   2.169  0.5990  0.8636  0.6095
 4026TIP3    H233570   4.438   6.180   2.169 -0.0037  0.7090 -1.9045
 4027TIP3   OH233571   3.998   3.752   3.070 -0.5228 -0.1944 -0.0421
 4027TIP3    H133572   4.065   3.684   3.069 -0.2794 -0.0178  1.5944
 4027TIP3    H233573   3.919   3.707   3.101 -0.0208  0.4664  2.4807
 4028TIP3   OH233574   2.424   1.930   6.613 -0.0839 -0.0928 -0.8817
 4028TIP3    H133575   2.337   1.964   6.636 -0.1533  0.3642 -1.7700
 4028TIP3    H233576   2.483   1.976   6.673 -0.6706 -2.6823  1.9455
 4029TIP3   OH233577   4.945   3.622   3.239 -0.0128 -0.2080  0.1381
 4029TIP3    H133578   4.876   3.618   3.172 -0.7144  1.5688  0.7138
 4029TIP3    H233579   4.937   3.538   3.285 -1.9843  0.0395  0.3491
 4030TIP3   OH233580   5.488   0.513  12.951 -0.2431 -0.1943 -0.5125
 4030TIP3    H133581   5.457   0.432  12.911  0.4731 -0.4412 -0.5979
 4030TIP3    H233582   5.498   0.574  12.878 -1.4744  0.2109 -0.3553
 4031TIP3   OH233583   5.931   6.243   4.149  0.4211  0.7041  0.4516
 4031TIP3    H133584   5.891   6.329   4.146 -0.9798  0.1546  1.8987
 4031TIP3    H233585   6.004   6.253   4.210 -0.4198  0.6583  1.5145
 4032TIP3   OH233586   6.049   2.833  17.247  0.5229  0.0049 -0.6766
 4032TIP3    H133587   5.996   2.856  17.323  2.1534  2.1769 -0.0965
 4032TIP3    H233588   5.990   2.783  17.191 -0.8604 -1.3300  1.7819
 4033TIP3   OH233589   4.523   1.926  15.109 -0.3706  0.8667 -0.6709
 4033TIP3    H133590   4.485   1.918  15.022 -3.0424 -0.2947  0.4911
 4033TIP3    H233591   4.564   1.841  15.125  0.2552  1.1322 -0.8322
 4034TIP3   OH233592   4.817   2.845  17.373  0.2869 -0.3532 -0.7908
 4034TIP3    H133593   4.901   2.822  17.413  0.0833  0.3834  0.0838
 4034TIP3    H233594   4.788   2.923  17.421 -0.0667  0.4482 -2.2338
 4035TIP3   OH233595   5.772   2.666   2.715  0.3221  0.0029 -0.5276
 4035TIP3    H133596   5.732   2.685   2.630  1.3677  0.3110 -0.9767
 4035TIP3    H233597   5.741   2.579   2.738 -1.1962  0.5314 -0.4844
 4036TIP3   OH233598   6.267   1.924   4.211  0.4667  0.5605 -0.3988
 4036TIP3    H133599   6.279   2.001   4.268 -0.2234  0.0468  0.4703
 4036TIP3    H233600   6.232   1.857   4.270  1.2701 -0.4950 -1.0965
 4037TIP3   OH233601   2.790   4.896   2.736  0.3089 -0.2376 -0.0487
 4037TIP3    H133602   2.729   4.935   2.673  0.5544 -1.3431 -1.0045
 4037TIP3    H233603   2.781   4.951   2.815  0.4247  1.5390 -1.2116
 4038TIP3   OH233604   0.307   1.097  16.084 -0.5044 -0.3560  0.4783
 4038TIP3    H133605   0.298   1.177  16.135 -0.5776  0.2288 -0.4259
 4038TIP3    H233606   0.288   1.027  16.146 -0.6392  0.3340  1.2378
 4039TIP3   OH233607   1.877   4.766  17.040 -0.4550 -0.1861  0.6911
 4039TIP3    H133608   1.817   4.825  16.994  1.1795  1.5787  0.7241
 4039TIP3    H233609   1.848   4.767  17.131 -0.6245  0.3151  0.6316
 4040TIP3   OH233610   1.097   4.380  12.036  0.6020  0.2164 -0.4874
 4040TIP3    H133611   1.060   4.384  11.948 -1.6212 -0.2873  0.3579
 4040TIP3    H233612   1.024   4.352  12.092  2.0195  0.2121  1.4781
 4041TIP3   OH233613   4.226   0.788  16.873  0.2222 -0.5537 -0.3160
 4041TIP3    H133614   4.158   0.750  16.817  1.9682 -0.9874 -2.2339
 4041TIP3    H233615   4.246   0.719  16.936 -1.3181 -0.2938  0.5190
 4042TIP3   OH233616   3.520   5.816  12.415  0.4926  0.3373 -0.9032
 4042TIP3    H133617   3.541   5.895  12.366 -0.1768  1.8433  1.0921
 4042TIP3    H233618   3.428   5.826  12.439  0.0178 -1.7033 -1.7100
 4043TIP3   OH233619   4.013   4.857   2.212  0.4289 -0.3125 -0.5635
 4043TIP3    H133620   4.005   4.795   2.140  0.0020  1.9968 -2.6287
 4043TIP3    H233621   4.087   4.912   2.188  0.1031  0.6900  0.6275
 4044TIP3   OH233622   2.955   1.325  16.522 -0.3892  0.3332  0.1037
 4044TIP3    H133623   2.901   1.382  16.467 -1.3655  0.4415  1.1286
 4044TIP3    H233624   2.957   1.370  16.607 -0.4357 -0.7227  0.6701
 4045TIP3   OH233625   4.319   5.270  16.891  0.2416  0.0444 -0.6381
 4045TIP3    H133626   4.324   5.286  16.797  1.0496 -2.5647 -1.1213
 4045TIP3    H233627   4.397   5.219  16.911 -1.5205 -2.3404  0.7661
 4046TIP3   OH233628   6.657   6.519  11.008 -0.4373  0.1458  0.4634
 4046TIP3    H133629   6.676   6.462  11.082 -2.2797 -0.0775  0.8071
 4046TIP3    H233630   6.738   6.568  10.994  0.0726 -0.0682  2.3835
 4047TIP3   OH233631   2.162   6.539  14.304 -0.5008  0.0651  0.5531
 4047TIP3    H133632   2.097   6.485  14.259  0.4347  1.3852 -2.6538
 4047TIP3    H233633   2.111   6.586  14.371 -2.4730 -0.4132 -0.5244
 4048TIP3   OH233634   1.741   1.769   1.622 -0.1752  0.4519 -0.2362
 4048TIP3    H133635   1.666   1.828   1.623  0.1017  0.8116 -0.4316
 4048TIP3    H233636   1.764   1.761   1.530  1.1230  1.7732 -0.0700
 4049TIP3   OH233637   0.042   5.624   5.425 -0.1360 -0.1352 -0.0829
 4049TIP3    H133638   0.135   5.632   5.448 -0.1520  0.5690 -0.2291
 4049TIP3    H233639   0.000   5.696   5.472 -0.6394 -0.5591  0.1255
 4050TIP3   OH233640   2.656   5.503  12.062 -0.3471 -0.0341 -0.0319
 4050TIP3    H133641   2.688   5.543  11.981 -0.4814  3.8305  1.5873
 4050TIP3    H233642   2.725   5.522  12.126 -1.4997 -0.3692  1.3660
 4051TIP3   OH233643   1.292   0.001   2.620  0.5060 -0.0831 -0.4862
 4051TIP3    H133644   1.211  -0.012   2.669 -0.5600  1.0621 -1.8377
 4051TIP3    H233645   1.331   0.079   2.659  0.8615 -0.5050  0.0177
 4052TIP3   OH233646   3.052   4.618   4.645 -1.0316 -0.6034 -0.2213
 4052TIP3    H133647   3.005   4.609   4.562 -1.4500 -1.8913  0.1304
 4052TIP3    H233648   3.112   4.544   4.647 -1.1935 -0.7201  0.7308
 4053TIP3   OH233649   5.757   1.275   1.238  0.5229 -0.0306  0.3853
 4053TIP3    H133650   5.735   1.365   1.263 -1.5072 -0.4121  0.1236
 4053TIP3    H233651   5.830   1.284   1.176 -0.2652  1.5093 -0.3678
 4054TIP3   OH233652   1.739   5.158  12.425  0.5222  0.2998  0.0878
 4054TIP3    H133653   1.761   5.095  12.494  0.0542  0.3304  0.2713
 4054TIP3    H233654   1.657   5.125  12.388  1.5959 -0.6364 -1.5953
 4055TIP3   OH233655   1.655   3.718  16.531  0.1062 -0.6448 -0.0217
 4055TIP3    H133656   1.589   3.753  16.591 -0.2762 -0.6596 -0.4202
 4055TIP3    H233657   1.732   3.774  16.544 -0.0059 -0.5903  0.4090
 4056TIP3   OH233658   0.408   4.438  13.045 -0.9363 -0.7977 -0.0847
 4056TIP3    H133659   0.487   4.452  13.099  0.4827 -1.8238 -1.7870
 4056TIP3    H233660   0.404   4.515  12.989  0.0144 -1.6138 -1.3196
 4057TIP3   OH233661   2.151   2.376  14.756  0.5302  0.5778  0.2422
 4057TIP3    H133662   2.238   2.408  14.780  0.2357  2.4849 -1.0259
 4057TIP3    H233663   2.167   2.290  14.716  1.4179 -0.7683  3.2106
 4058TIP3   OH233664   3.565   2.226   0.952  0.1938  0.2264 -0.4181
 4058TIP3    H133665   3.497   2.254   0.890 -1.7059 -2.1871  0.4273
 4058TIP3    H233666   3.535   2.259   1.037  0.1381 -0.6717 -0.0750
 4059TIP3   OH233667   0.367   2.913  15.107 -0.4618  0.6449 -0.1045
 4059TIP3    H133668   0.337   2.906  15.197  0.0933 -0.0736  0.0305
 4059TIP3    H233669   0.443   2.971  15.111  0.1380 -0.1370  0.0373
 4060TIP3   OH233670   1.486   4.621  10.698  0.3856 -0.0286  0.4662
 4060TIP3    H133671   1.570   4.579  10.716  0.1955 -0.3622  0.5944
 4060TIP3    H233672   1.427   4.588  10.766 -0.2491 -1.0540 -0.5465
 4061TIP3   OH233673   0.736   0.939  17.303  0.0398  0.0438  0.1581
 4061TIP3    H133674   0.643   0.917  17.309  0.2003 -1.0911 -0.9888
 4061TIP3    H233675   0.781   0.854  17.307  1.0049  0.5445  0.3052
 4062TIP3   OH233676   4.095   2.335  16.546 -0.2431  0.0816 -0.4700
 4062TIP3    H133677   4.095   2.358  16.639  1.9465  3.3201 -1.0804
 4062TIP3    H233678   4.022   2.385  16.509 -0.6832 -0.6505 -0.5983
 4063TIP3   OH233679   6.020   5.383  12.003 -0.1072 -0.4301  0.4395
 4063TIP3    H133680   6.102   5.371  12.050  0.2958 -2.3701 -0.6608
 4063TIP3    H233681   6.040   5.360  11.912 -1.4772  0.7305 -0.2013
 4064TIP3   OH233682   2.992   4.799  12.151 -0.5496 -0.0271 -0.0656
 4064TIP3    H133683   3.078   4.758  12.141 -0.4311  0.4242 -1.0141
 4064TIP3    H233684   2.930   4.728  12.143 -0.2622 -0.4841  1.3820
 4065TIP3   OH233685   4.956   4.922  16.506 -0.1016 -0.2257 -0.2098
 4065TIP3    H133686   4.908   4.971  16.574  0.6272  2.0805 -1.2525
 4065TIP3    H233687   4.949   4.830  16.534 -0.4661  0.5378  2.5758
 4066TIP3   OH233688   3.572   4.564   0.209  0.6477 -0.0517 -0.5146
 4066TIP3    H133689   3.582   4.535   0.118  1.6974  1.3449 -0.8851
 4066TIP3    H233690   3.578   4.660   0.204  2.9610 -0.0245  1.2581
 4067TIP3   OH233691   3.313   0.823   4.486 -0.0066 -0.3649  0.4866
 4067TIP3    H133692   3.369   0.748   4.507 -1.4954 -1.0197  2.3683
 4067TIP3    H233693   3.228   0.784   4.464 -0.5526  0.7364  0.5743
 4068TIP3   OH233694   3.026   4.665  13.949  0.0901 -0.1677  0.0246
 4068TIP3    H133695   3.065   4.669  14.036  1.4953 -0.1394 -0.5726
 4068TIP3    H233696   3.068   4.590  13.908  1.0918  1.0909 -1.3612
 4069TIP3   OH233697   3.841   5.774  16.006  0.0672  1.3133  0.3781
 4069TIP3    H133698   3.908   5.714  15.973  0.8109  1.8007  0.9468
 4069TIP3    H233699   3.789   5.720  16.066 -0.1617  0.8838 -0.1991
 4070TIP3   OH233700   2.205   1.470   3.271  0.0399 -0.4333  0.5354
 4070TIP3    H133701   2.174   1.530   3.339  1.4336 -0.9485  1.6840
 4070TIP3    H233702   2.222   1.526   3.196 -0.5108  0.3129  0.9509
 4071TIP3   OH233703   5.902   4.560   3.387 -0.4241 -0.0547  0.2372
 4071TIP3    H133704   5.985   4.605   3.374  0.3434 -1.5605 -0.3757
 4071TIP3    H233705   5.839   4.609   3.335  0.8757 -1.0433 -2.4609
 4072TIP3   OH233706   3.018   5.762   2.677 -0.0842 -0.4481  0.3094
 4072TIP3    H133707   2.959   5.775   2.751  0.7614  2.3620  0.6239
 4072TIP3    H233708   3.104   5.751   2.717  0.2229 -0.0130 -0.2089
 4073TIP3   OH233709   3.062   1.003   2.291  0.2172 -0.6411  0.1298
 4073TIP3    H133710   3.132   0.940   2.308  0.6996 -0.3299 -0.6632
 4073TIP3    H233711   3.077   1.033   2.202 -0.4190  0.0791  0.2505
 4074TIP3   OH233712   5.813   4.663  11.928 -0.4343  0.1491  0.0910
 4074TIP3    H133713   5.754   4.618  11.868 -0.5588 -0.6893  0.8230
 4074TIP3    H233714   5.832   4.747  11.885 -1.4635  0.0677 -0.5463
 4075TIP3   OH233715   5.312   6.215   4.335  0.1843 -0.3375 -0.0604
 4075TIP3    H133716   5.316   6.120   4.318 -1.6990 -0.4158 -0.2902
 4075TIP3    H233717   5.256   6.223   4.412 -1.0218  0.6453 -0.9978
 4076TIP3   OH233718   1.349   5.341  14.783 -0.3389  0.3469  0.1333
 4076TIP3    H133719   1.348   5.297  14.868  1.4020  0.8512  0.4563
 4076TIP3    H233720   1.367   5.270  14.720  1.7545  0.4232  0.5771
 4077TIP3   OH233721   6.253   6.454  14.543  0.1536  0.2424 -0.1619
 4077TIP3    H133722   6.238   6.472  14.636  0.1161  0.9028 -0.2918
 4077TIP3    H233723   6.313   6.523  14.515 -0.1959  0.3106 -0.7401
 4078TIP3   OH233724   4.488   1.349   4.365  0.0979  0.5444 -0.3873
 4078TIP3    H133725   4.434   1.270   4.365  2.6091 -1.2863 -0.3903
 4078TIP3    H233726   4.480   1.382   4.455 -1.3067  0.5648 -0.4939
 4079TIP3   OH233727   0.576   5.346  10.997 -0.0222  0.2403 -0.0041
 4079TIP3    H133728   0.532   5.420  11.039  0.8581  0.8028 -0.0348
 4079TIP3    H233729   0.582   5.279  11.065 -0.3211  0.4058  0.1870
 4080TIP3   OH233730   2.832   6.107   3.041 -0.2110 -0.6222  0.1138
 4080TIP3    H133731   2.886   6.133   2.967  2.5896 -2.0739  1.5158
 4080TIP3    H233732   2.744   6.098   3.004  0.4288  1.7291 -2.3007
 4081TIP3   OH233733   0.399   2.811  14.861 -0.9813  0.2730 -0.1890
 4081TIP3    H133734   0.382   2.887  14.805  1.6700  0.4537 -0.9048
 4081TIP3    H233735   0.386   2.843  14.950 -2.5374  0.7651 -0.5645
 4082TIP3   OH233736   0.428   0.031  11.301 -0.1310 -0.0365  0.1576
 4082TIP3    H133737   0.473   0.066  11.224 -0.3054  0.9709  0.4926
 4082TIP3    H233738   0.413   0.108  11.356  1.8216 -0.9758  2.1593
 4083TIP3   OH233739   2.030   5.397  14.431  0.5353  0.3693 -0.5267
 4083TIP3    H133740   2.026   5.468  14.367 -1.1020  0.3775 -0.4630
 4083TIP3    H233741   2.093   5.427  14.496  0.7134  1.2504 -1.0816
 4084TIP3   OH233742   5.541   0.161  14.495 -0.1322  0.2050 -0.1037
 4084TIP3    H133743   5.631   0.167  14.528  0.3393 -2.3724 -0.6845
 4084TIP3    H233744   5.548   0.184  14.402 -0.3793  1.4949  0.1786
 4085TIP3   OH233745   5.795   4.676   6.347  0.2909  0.1970 -0.3311
 4085TIP3    H133746   5.869   4.682   6.287  0.6250  1.6635  0.1958
 4085TIP3    H233747   5.834   4.685   6.434 -0.2143 -1.6905  0.1270
 4086TIP3   OH233748   1.652   0.415  15.273  0.3848  0.0272  0.2732
 4086TIP3    H133749   1.638   0.503  15.308  1.5431 -0.1989  1.3625
 4086TIP3    H233750   1.611   0.357  15.337 -1.6729 -0.2029 -1.1640
 4087TIP3   OH233751   4.117   0.844  12.042  0.7511  0.2296 -0.7344
 4087TIP3    H133752   4.208   0.824  12.064  0.0238 -3.7462 -0.6024
 4087TIP3    H233753   4.068   0.829  12.123 -0.4413 -1.9607 -1.7762
 4088TIP3   OH233754   3.311   5.801   3.581 -0.4847 -0.2306 -0.1251
 4088TIP3    H133755   3.401   5.810   3.611 -0.0320  0.5259 -1.5968
 4088TIP3    H233756   3.318   5.787   3.486 -1.8944 -0.7615 -0.1833
 4089TIP3   OH233757   5.788   1.095   3.586 -0.1397  0.3626 -0.6321
 4089TIP3    H133758   5.748   1.054   3.510 -0.4125  0.0939 -0.3484
 4089TIP3    H233759   5.738   1.062   3.661  0.8355 -0.2697 -0.2378
 4090TIP3   OH233760   3.859   1.983   6.205 -0.2361 -0.0471 -0.4024
 4090TIP3    H133761   3.861   1.901   6.155  1.0150 -0.1409 -0.2324
 4090TIP3    H233762   3.790   1.969   6.270 -0.0444 -0.9729 -0.3796
 4091TIP3   OH233763   4.338   6.192   3.178  0.2995 -0.4354  0.0475
 4091TIP3    H133764   4.243   6.180   3.182  0.1099  0.6521 -0.6775
 4091TIP3    H233765   4.356   6.201   3.084  0.9315  0.7699  0.2769
 4092TIP3   OH233766   4.474   1.535  11.364  0.2735 -0.1596  0.6744
 4092TIP3    H133767   4.442   1.496  11.283  0.9184 -0.9763  0.8008
 4092TIP3    H233768   4.568   1.548  11.348  0.2746  0.3041  1.0452
 4093TIP3   OH233769   0.533   5.803  12.986  0.5146  0.1447  0.2277
 4093TIP3    H133770   0.439   5.816  12.994  0.3595  0.0822 -1.1864
 4093TIP3    H233771   0.571   5.855  13.057 -0.5151  1.4766 -0.1516
 4094TIP3   OH233772   0.763   2.713  16.756  0.3889  0.0700 -0.1511
 4094TIP3    H133773   0.821   2.678  16.688  0.0061 -0.9235  0.0115
 4094TIP3    H233774   0.687   2.747  16.709  0.1346 -0.5957 -0.2253
 4095TIP3   OH233775   0.290   1.112  11.756 -0.3493 -0.8647 -0.0200
 4095TIP3    H133776   0.262   1.195  11.718  0.0691 -0.3673  0.7309
 4095TIP3    H233777   0.228   1.047  11.722 -1.7783  0.0344  0.7928
 4096TIP3   OH233778   3.382   2.598  11.932  0.3970  0.0947  0.2129
 4096TIP3    H133779   3.449   2.651  11.976 -0.2009 -0.1367  1.4087
 4096TIP3    H233780   3.430   2.521  11.901  1.1496  1.0186 -1.0138
 4097TIP3   OH233781   5.574   2.454   1.783 -0.0171  0.4258  0.5125
 4097TIP3    H133782   5.518   2.518   1.738 -0.2790  0.1553  0.4508
 4097TIP3    H233783   5.632   2.507   1.838 -0.8538  0.6722  1.1702
 4098TIP3   OH233784   6.112   5.855   2.174  0.6204 -0.2210 -0.4677
 4098TIP3    H133785   6.046   5.895   2.230  0.5543 -0.1901 -0.5670
 4098TIP3    H233786   6.191   5.906   2.190  1.1723 -1.5107  1.1748
 4099TIP3   OH233787   3.721   6.147   1.512 -1.0222 -0.3893  0.2398
 4099TIP3    H133788   3.658   6.077   1.499 -1.3771  0.1233 -0.9450
 4099TIP3    H233789   3.682   6.204   1.578 -1.4152 -0.5250  0.1252
 4100TIP3   OH233790   0.180   5.600  12.660  0.2648 -0.1019  0.0135
 4100TIP3    H133791   0.087   5.606  12.682 -0.0108 -0.8973 -0.8802
 4100TIP3    H233792   0.225   5.602  12.745 -0.4362  2.0871  0.3866
 4101TIP3   OH233793   5.278   0.561   5.701  0.0731 -0.3851  0.4017
 4101TIP3    H133794   5.191   0.595   5.722  0.5315  0.5137  0.8725
 4101TIP3    H233795   5.338   0.612   5.755  1.1624  0.8827 -1.8694
 4102TIP3   OH233796   0.575   5.325   0.961 -0.1213 -0.7428 -0.5390
 4102TIP3    H133797   0.591   5.352   0.870  1.9030  1.7522  0.4459
 4102TIP3    H233798   0.560   5.406   1.008 -0.1795 -1.9091  1.5609
 4103TIP3   OH233799   0.280   3.073   4.270  0.3060 -0.1746 -0.0900
 4103TIP3    H133800   0.344   3.059   4.200  2.5428  0.5026  1.6915
 4103TIP3    H233801   0.333   3.097   4.346 -2.1916  2.2573  1.0668
 4104TIP3   OH233802   0.302   3.030  14.747  0.0861  0.1232 -0.3810
 4104TIP3    H133803   0.226   3.065  14.700 -0.4703 -0.5481 -0.0033
 4104TIP3    H233804   0.305   3.080  14.828  0.9071  1.1208 -0.9973
 4105TIP3   OH233805   3.876   4.251   1.988  0.0709  0.3711  0.6437
 4105TIP3    H133806   3.949   4.206   2.029 -0.8767 -2.0999 -0.1633
 4105TIP3    H233807   3.805   4.246   2.053 -1.5655 -3.9276 -1.1168
 4106TIP3   OH233808   2.098   2.672  11.450  0.0707  0.4693  0.3808
 4106TIP3    H133809   2.070   2.581  11.457  0.5844  0.3819  1.4572
 4106TIP3    H233810   2.016   2.721  11.440 -0.4090  0.0842  2.0781
 4107TIP3   OH233811   3.791   2.882  16.334 -0.2020  1.3141 -0.1986
 4107TIP3    H133812   3.735   2.950  16.296 -1.7521  1.6497  2.4022
 4107TIP3    H233813   3.872   2.928  16.358 -0.2922  1.6855 -0.5961
 4108TIP3   OH233814   4.973   4.613   1.047  0.8137  0.0539 -0.2578
 4108TIP3    H133815   5.004   4.701   1.069  2.6609 -0.8049  0.8397
 4108TIP3    H233816   5.043   4.575   0.995  0.6299 -1.1856  0.3459
 4109TIP3   OH233817   0.480   1.878  16.857 -0.1881 -0.1580 -0.3986
 4109TIP3    H133818   0.474   1.951  16.795  1.7050  0.6488  0.3004
 4109TIP3    H233819   0.520   1.807  16.807 -2.6726 -1.0431 -1.2827
 4110TIP3   OH233820   5.410   4.066   2.911  0.0092 -0.5633 -0.2762
 4110TIP3    H133821   5.416   3.994   2.848 -0.1891 -1.2932  0.5226
 4110TIP3    H233822   5.318   4.092   2.910  0.2152  0.1792 -1.0941
 4111TIP3   OH233823   3.631   0.418   4.617  0.2514 -0.3020  0.0654
 4111TIP3    H133824   3.575   0.406   4.694  2.3673 -0.4729  1.6779
 4111TIP3    H233825   3.667   0.331   4.600  2.4213  0.3371  1.0718
 4112TIP3   OH233826   0.563   0.099   5.392  0.0889  0.0994  0.0443
 4112TIP3    H133827   0.566   0.184   5.436 -1.2604  0.2247 -0.0362
 4112TIP3    H233828   0.519   0.041   5.454 -0.7514 -0.0256 -0.6415
 4113TIP3   OH233829   1.644   3.286   5.170 -0.3900  0.2106 -0.6489
 4113TIP3    H133830   1.557   3.285   5.129 -0.6548 -0.3712 -0.0938
 4113TIP3    H233831   1.662   3.379   5.185 -0.5427  0.3946 -1.5332
 4114TIP3   OH233832   0.779   0.424  14.338  0.3691  0.0027  0.1799
 4114TIP3    H133833   0.804   0.483  14.409 -0.9807  1.5401 -0.5506
 4114TIP3    H233834   0.839   0.446  14.267  0.0276  0.3161 -0.0114
 4115TIP3   OH233835   3.917   3.499  16.185  0.7521  0.4765 -0.0467
 4115TIP3    H133836   3.916   3.408  16.216  0.2823  1.1464  2.0604
 4115TIP3    H233837   3.853   3.544  16.241  3.1811  2.7349  1.1273
 4116TIP3   OH233838   2.680   4.373   2.571 -0.0756  0.0306  0.3182
 4116TIP3    H133839   2.601   4.375   2.517 -0.0663 -0.3767  0.2873
 4116TIP3    H233840   2.705   4.280   2.575  0.3010  0.1335  0.4716
 4117TIP3   OH233841   4.134   1.712  17.356  0.2567 -0.1155  0.2999
 4117TIP3    H133842   4.084   1.676  17.430  0.7906 -0.9883  0.2458
 4117TIP3    H233843   4.194   1.642  17.331  1.5385  0.9237  0.3760
 4118TIP3   OH233844   2.693   5.521   3.764 -0.2357 -0.1728  0.1028
 4118TIP3    H133845   2.680   5.456   3.694  0.9012  0.4754 -0.7462
 4118TIP3    H233846   2.778   5.500   3.801 -0.1395  0.4438  0.2426
 4119TIP3   OH233847   3.819   3.887  16.312 -0.7849  0.8695 -0.1707
 4119TIP3    H133848   3.895   3.863  16.365 -0.8490  0.8781 -0.0747
 4119TIP3    H233849   3.853   3.897  16.223 -0.8843 -0.2873 -0.3520
 4120TIP3   OH233850   6.472   0.599  13.683  0.9331  0.1062  0.3959
 4120TIP3    H133851   6.438   0.686  13.660 -1.3672 -1.1879 -1.4825
 4120TIP3    H233852   6.544   0.585  13.621  1.8472  0.9125  1.2234
 4121TIP3   OH233853   2.344   2.731   4.472 -0.2823  0.3441 -0.0152
 4121TIP3    H133854   2.337   2.691   4.559  0.9333  0.6780  0.2541
 4121TIP3    H233855   2.365   2.823   4.490  0.6419  0.2736 -0.6620
 4122TIP3   OH233856   4.829   3.692  15.898  0.2738 -0.5026 -0.6558
 4122TIP3    H133857   4.870   3.778  15.909  0.1174 -0.5743  0.6436
 4122TIP3    H233858   4.868   3.656  15.819  3.3403 -0.9197  0.9257
 4123TIP3   OH233859   4.533   0.718  16.915 -0.2349 -0.1124 -0.5623
 4123TIP3    H133860   4.504   0.699  17.005  1.3135 -0.2312 -0.0560
 4123TIP3    H233861   4.452   0.733  16.867 -1.3411 -3.4207  0.0492
 4124TIP3   OH233862   0.898   1.671  14.406 -0.5102 -0.1553  0.1527
 4124TIP3    H133863   0.912   1.766  14.401  0.3528 -0.3144 -1.2385
 4124TIP3    H233864   0.967   1.635  14.350 -0.8212 -1.6087  0.6800
 4125TIP3   OH233865   0.221   5.335   2.118 -0.0119 -0.4505  0.0211
 4125TIP3    H133866   0.163   5.259   2.120 -1.5149  0.6644  2.1061
 4125TIP3    H233867   0.268   5.331   2.201  1.5769 -0.3050 -0.8372
 4126TIP3   OH233868   5.267   6.018   0.951 -0.2176 -0.0301 -0.1647
 4126TIP3    H133869   5.205   6.026   0.879  0.3237 -1.0590 -0.7796
 4126TIP3    H233870   5.340   6.076   0.928 -0.0703 -0.3175 -0.4302
 4127TIP3   OH233871   5.464   4.365   1.118 -0.2610  0.4231  0.0512
 4127TIP3    H133872   5.396   4.422   1.154  0.0399 -0.3524  1.9824
 4127TIP3    H233873   5.452   4.282   1.164  1.0834 -0.1909 -0.6453
 4128TIP3   OH233874   2.550   6.682   5.160  0.3195 -0.5369 -0.2671
 4128TIP3    H133875   2.544   6.619   5.088 -0.1504  0.4976 -1.1591
 4128TIP3    H233876   2.483   6.653   5.223  0.2599 -1.0510 -0.5627
 4129TIP3   OH233877   5.103   4.333  15.609  0.6939 -0.0759 -0.3329
 4129TIP3    H133878   5.195   4.306  15.605  0.8912  0.4728  0.2917
 4129TIP3    H233879   5.059   4.277  15.545  1.5481  0.0130 -1.0215
 4130TIP3   OH233880   1.283   5.661  13.161  0.2262  0.2097  0.4628
 4130TIP3    H133881   1.339   5.589  13.133  0.1620  0.0495  0.7469
 4130TIP3    H233882   1.275   5.717  13.083 -0.7264 -0.7180 -0.1213
 4131TIP3   OH233883   3.533   1.465   6.184 -0.1694  0.3389  0.1917
 4131TIP3    H133884   3.540   1.449   6.090  1.8616 -1.1663  0.5367
 4131TIP3    H233885   3.464   1.406   6.214 -0.4176  0.4017 -0.2457
 4132TIP3   OH233886   0.213   3.780  11.894 -0.1021  0.6452 -0.7313
 4132TIP3    H133887   0.148   3.709  11.892  0.5481  0.0396 -2.4774
 4132TIP3    H233888   0.254   3.777  11.807  3.1538  0.1733  0.6670
 4133TIP3   OH233889   6.386   1.163   0.729  0.0916  0.1199 -0.1403
 4133TIP3    H133890   6.337   1.108   0.668  1.4302 -0.2316 -0.9300
 4133TIP3    H233891   6.432   1.226   0.674  0.6815  0.3149  0.5519
 4134TIP3   OH233892   5.272   0.804   1.694 -0.3261  0.5607  0.0237
 4134TIP3    H133893   5.327   0.792   1.616  0.4845 -0.7293  0.7514
 4134TIP3    H233894   5.333   0.833   1.762 -1.1245  2.2497  0.0615
 4135TIP3   OH233895   0.277   5.015  13.583 -0.1626 -0.0045 -0.0597
 4135TIP3    H133896   0.309   5.098  13.548  0.9937  0.1688  1.2990
 4135TIP3    H233897   0.199   4.995  13.532 -0.4555  1.9083 -0.4222
 4136TIP3   OH233898   0.396   5.654  13.632  0.6357 -0.0810  0.4216
 4136TIP3    H133899   0.413   5.748  13.632  2.5101 -0.3903 -0.0637
 4136TIP3    H233900   0.366   5.634  13.543 -0.0067  0.0855  0.5964
 4137TIP3   OH233901   1.033   6.014  11.503  0.1672  0.0294 -0.1523
 4137TIP3    H133902   1.037   6.008  11.407  0.5971  0.0262 -0.1354
 4137TIP3    H233903   0.967   6.082  11.520 -0.6474 -0.6759 -0.4322
 4138TIP3   OH233904   5.363   3.402   5.020 -0.0336  0.6489 -0.6367
 4138TIP3    H133905   5.439   3.412   5.077 -0.1051  2.3113 -0.7700
 4138TIP3    H233906   5.293   3.450   5.065 -1.1264 -1.1330 -0.3491
 4139TIP3   OH233907   5.358   6.648   2.447 -0.1355  0.2106  0.2959
 4139TIP3    H133908   5.443   6.614   2.474 -0.0371 -0.3140 -0.6436
 4139TIP3    H233909   5.369   6.744   2.449  0.4030  0.1501  0.3939
 4140TIP3   OH233910   2.126   0.789   5.136  0.1629  0.7476 -0.0246
 4140TIP3    H133911   2.093   0.722   5.077  1.3792 -0.7747  0.9505
 4140TIP3    H233912   2.204   0.823   5.093 -0.6946  1.9170 -0.7278
 4141TIP3   OH233913   5.724   0.425   0.754  0.1535  0.0371  0.0838
 4141TIP3    H133914   5.644   0.383   0.723  0.8577 -1.4085  0.1128
 4141TIP3    H233915   5.726   0.510   0.710 -1.2360 -0.0302 -0.1401
 4142TIP3   OH233916   2.280   4.489  12.213  0.2240  0.1577 -0.1094
 4142TIP3    H133917   2.218   4.519  12.280 -0.2282  0.6912 -0.7417
 4142TIP3    H233918   2.321   4.570  12.181  0.4160 -0.0878 -0.4889
 4143TIP3   OH233919   0.351   1.087  13.065  0.1580 -0.0874 -0.0740
 4143TIP3    H133920   0.407   1.131  13.129  0.7126 -0.6990 -0.1251
 4143TIP3    H233921   0.388   1.112  12.980 -0.2986  0.3571 -0.1454
 4144TIP3   OH233922   4.446   5.378  11.973 -0.5946 -0.0658 -0.3271
 4144TIP3    H133923   4.514   5.342  11.916 -1.6039 -0.3012 -1.4256
 4144TIP3    H233924   4.489   5.388  12.058  1.4961  1.9166 -1.4895
 4145TIP3   OH233925   3.081   3.953   0.409 -0.0439 -0.0477  0.2941
 4145TIP3    H133926   3.123   4.038   0.400  1.8490 -0.9262  0.3945
 4145TIP3    H233927   3.108   3.922   0.495 -1.5292 -0.3434  0.6775
 4146TIP3   OH233928   3.223   0.114   5.303  0.8534 -0.2825  0.0653
 4146TIP3    H133929   3.259   0.057   5.236  0.7194  1.1628 -1.2964
 4146TIP3    H233930   3.138   0.142   5.268  1.4184  1.6461  0.1198
 4147TIP3   OH233931   6.238   2.246  14.760 -0.4360  0.2566  0.1683
 4147TIP3    H133932   6.316   2.226  14.708  0.3682 -0.1751  1.4808
 4147TIP3    H233933   6.194   2.316  14.712  0.3759  0.0203 -0.9651
 4148TIP3   OH233934   6.329   2.022  14.561 -0.0404  0.7185  0.0061
 4148TIP3    H133935   6.328   1.970  14.481  1.9497 -0.1377  0.4800
 4148TIP3    H233936   6.244   2.004  14.602 -1.1390  1.2485 -1.9086
 4149TIP3   OH233937   2.694   2.726   6.058  0.5050 -0.1845 -0.3792
 4149TIP3    H133938   2.691   2.676   6.140  1.7585 -0.0236 -0.2087
 4149TIP3    H233939   2.728   2.811   6.084 -0.7834  0.4770 -0.8142
 4150TIP3   OH233940   4.694   4.356   0.291  0.4788  0.6727  0.2205
 4150TIP3    H133941   4.657   4.324   0.374  0.9287  0.5575  0.3841
 4150TIP3    H233942   4.789   4.361   0.308  0.4167  2.2338  0.2464
 4151TIP3   OH233943   6.558   1.936  15.657  0.4728 -0.1564 -0.2123
 4151TIP3    H133944   6.516   1.960  15.739  1.6932 -0.2714  0.4519
 4151TIP3    H233945   6.578   1.843  15.666 -1.9110 -0.9317 -1.7704
 4152TIP3   OH233946   2.872   4.683  11.593 -0.2729 -0.1270 -0.0602
 4152TIP3    H133947   2.952   4.702  11.641  0.1539 -0.8122 -0.4726
 4152TIP3    H233948   2.831   4.768  11.579 -0.2855  0.1114  1.2871
 4153TIP3   OH233949   4.250   4.426  15.445  0.2199 -0.0265  0.3433
 4153TIP3    H133950   4.343   4.430  15.466  0.0741 -0.6227  1.1382
 4153TIP3    H233951   4.213   4.503  15.489  0.3454  0.2657 -0.0539
 4154TIP3   OH233952   4.522   3.987  15.426 -0.1252  0.1564  0.0950
 4154TIP3    H133953   4.594   4.003  15.487 -0.2999 -0.7111  0.5428
 4154TIP3    H233954   4.560   4.003  15.340  1.2234 -2.1854  0.1671
 4155TIP3   OH233955   2.271   3.650  11.620 -0.3295  0.3282 -0.4034
 4155TIP3    H133956   2.242   3.606  11.541 -1.5386 -1.5983  1.0349
 4155TIP3    H233957   2.220   3.611  11.690  2.8754 -0.3570  1.7780
 4156TIP3   OH233958   0.420   2.612   0.111  0.0603  0.3381 -0.3080
 4156TIP3    H133959   0.510   2.602   0.142 -0.0178 -1.1602 -0.4869
 4156TIP3    H233960   0.367   2.569   0.177 -0.1091 -2.9626 -2.3383
 4157TIP3   OH233961   1.742   1.710   0.076  0.3398 -0.1510  0.6195
 4157TIP3    H133962   1.836   1.708   0.060  0.3312 -0.8826  0.6136
 4157TIP3    H233963   1.718   1.803   0.072  1.6077  0.4653  4.0854
 4158TIP3   OH233964   3.507   2.649  11.587  0.2175  0.1094  0.4661
 4158TIP3    H133965   3.565   2.701  11.531 -0.0390  0.0723  0.1578
 4158TIP3    H233966   3.486   2.573  11.533 -0.3713  0.2808  0.4477
 4159TIP3   OH233967   1.632   3.592   4.522  0.1158  0.3087  0.2973
 4159TIP3    H133968   1.548   3.553   4.549 -0.7469 -0.6892 -3.2378
 4159TIP3    H233969   1.627   3.595   4.427  3.3503  2.1327  0.0371
 4160TIP3   OH233970   3.823   1.346  15.102  0.0371  0.1563 -0.1008
 4160TIP3    H133971   3.882   1.420  15.094 -2.9430  2.7375 -0.1909
 4160TIP3    H233972   3.797   1.344  15.194 -0.8469  0.0586 -0.3355
 4161TIP3   OH233973   0.767   6.511   4.383 -0.0458  0.2144  0.5812
 4161TIP3    H133974   0.838   6.465   4.338 -1.2226 -1.3294  0.1939
 4161TIP3    H233975   0.811   6.573   4.441  1.5509  0.7894 -1.1498
 4162TIP3   OH233976   0.973   5.216   5.384  0.7369  0.3247 -0.2510
 4162TIP3    H133977   0.881   5.243   5.377  0.1887 -1.3476  0.0656
 4162TIP3    H233978   0.985   5.198   5.478  2.1644  2.9859  0.1698
 4163TIP3   OH233979   3.063   1.597  12.943 -0.2729  0.0019 -0.0238
 4163TIP3    H133980   3.117   1.532  12.989 -1.3099  0.0270  1.3046
 4163TIP3    H233981   2.985   1.606  12.998 -0.6521  1.5586 -0.7632
 4164TIP3   OH233982   0.124   5.299  13.891  0.1837 -0.0554 -0.3021
 4164TIP3    H133983   0.166   5.249  13.961 -0.0136  1.6539  1.1063
 4164TIP3    H233984   0.194   5.354  13.856 -0.7880  3.4371  2.6224
 4165TIP3   OH233985   3.787   4.248  12.711  0.1251 -0.3197 -0.0900
 4165TIP3    H133986   3.735   4.177  12.749 -1.0628  0.4341 -0.2629
 4165TIP3    H233987   3.724   4.318  12.695  1.0657  0.3320 -1.0574
 4166TIP3   OH233988   3.826   5.064   1.291 -0.0730  0.8934 -0.6253
 4166TIP3    H133989   3.829   4.974   1.324  2.3528  0.4076 -1.9529
 4166TIP3    H233990   3.830   5.119   1.370  1.1752 -0.1938  0.0934
 4167TIP3   OH233991   5.800   0.532   4.203  0.3761 -0.1220  0.5939
 4167TIP3    H133992   5.770   0.567   4.120  0.6779  0.2498  0.6368
 4167TIP3    H233993   5.720   0.522   4.256  0.1887 -0.3426  0.2704
 4168TIP3   OH233994   1.865   6.092  12.674 -0.4129 -0.0734  0.1220
 4168TIP3    H133995   1.836   6.075  12.764 -0.1257  0.5053  0.3312
 4168TIP3    H233996   1.853   6.009  12.628  0.6365 -0.7461  1.0115
 4169TIP3   OH233997   4.598   4.911   4.686 -0.4009  0.5729 -0.4399
 4169TIP3    H133998   4.540   4.928   4.612 -0.0899  1.0028 -0.5930
 4169TIP3    H233999   4.589   4.818   4.704  1.4197 -0.1165 -2.6530
 4170TIP3   OH234000   1.417   3.751   5.753 -0.1503 -0.3889  0.2740
 4170TIP3    H134001   1.511   3.758   5.736 -0.4539  0.4875 -1.1897
 4170TIP3    H234002   1.376   3.792   5.677 -1.7381 -1.4037  0.5481
 4171TIP3   OH234003   4.020   4.920  12.304  0.3426  0.3529 -0.6155
 4171TIP3    H134004   4.018   4.903  12.210  0.6153  0.5497 -0.6572
 4171TIP3    H234005   4.015   5.015  12.312 -0.6286  0.2909 -0.4006
 4172TIP3   OH234006   1.903   2.329   1.142  0.2657  0.1174  0.6713
 4172TIP3    H134007   1.888   2.397   1.208 -2.4113 -1.2035  1.5774
 4172TIP3    H234008   1.881   2.247   1.186 -3.0288 -0.7431 -2.1241
 4173TIP3   OH234009   5.925   4.215  16.755 -0.2698 -0.4572 -0.1659
 4173TIP3    H134010   5.949   4.278  16.822 -0.6440 -0.7061  0.2062
 4173TIP3    H234011   5.860   4.158  16.797 -2.9534  1.2765 -1.6192
 4174TIP3   OH234012   5.266   2.284   5.805 -0.5513 -0.6304  0.0890
 4174TIP3    H134013   5.318   2.360   5.777  0.2147 -1.7404 -1.7175
 4174TIP3    H234014   5.177   2.317   5.814  0.2214  1.1329  2.4070
 4175TIP3   OH234015   3.721   5.456   6.092 -0.1208 -1.0118 -0.2383
 4175TIP3    H134016   3.724   5.387   6.158  1.3026  0.4370  1.3064
 4175TIP3    H234017   3.769   5.420   6.017  1.6655 -1.2988  0.9839
 4176TIP3   OH234018   1.810   1.547   5.403 -0.2432  0.3484 -0.2276
 4176TIP3    H134019   1.772   1.554   5.491 -0.8947 -0.3751 -0.4436
 4176TIP3    H234020   1.789   1.458   5.374 -0.5490  0.7661 -1.3456
 4177TIP3   OH234021   6.556   3.134  15.767  0.2305 -0.3080  0.5217
 4177TIP3    H134022   6.578   3.066  15.702  0.4552 -0.5092  0.8047
 4177TIP3    H234023   6.573   3.092  15.851 -0.8567 -0.3320  0.7457
 4178TIP3   OH234024   5.487   6.756   3.322 -0.3316 -0.1739 -0.9348
 4178TIP3    H134025   5.581   6.753   3.337 -0.0560 -0.5858 -2.5700
 4178TIP3    H234026   5.450   6.693   3.385  0.4465  0.1444 -0.1443
 4179TIP3   OH234027   3.034   2.035  16.758  0.6141 -0.7952 -0.1287
 4179TIP3    H134028   3.079   1.994  16.684  2.0452  1.0675 -0.3716
 4179TIP3    H234029   3.011   2.122  16.726  1.1725  0.0119  1.5620
 4180TIP3   OH234030   2.170   2.073  14.050  0.0067 -0.5677 -0.1256
 4180TIP3    H134031   2.235   2.123  14.000 -0.4284  2.0285  1.7293
 4180TIP3    H234032   2.097   2.061  13.989  1.1931 -1.4078 -1.4585
 4181TIP3   OH234033   3.039   1.717   6.234  0.7052 -1.0080  0.6969
 4181TIP3    H134034   2.950   1.719   6.271 -0.8170  0.7799 -2.6079
 4181TIP3    H234035   3.050   1.627   6.204 -1.2701 -0.6608 -1.3746
 4182TIP3   OH234036   1.077   4.881  12.001 -0.5026  0.5130  0.6651
 4182TIP3    H134037   1.109   4.921  12.082  2.1358  0.9633 -0.4947
 4182TIP3    H234038   1.048   4.794  12.027 -2.5646  1.6477  2.5533
 4183TIP3   OH234039   2.787   3.807  15.806 -0.1436 -0.5595 -0.4491
 4183TIP3    H134040   2.852   3.777  15.869  1.5862 -0.0770 -1.9133
 4183TIP3    H234041   2.735   3.870  15.854  0.5771 -0.8205  0.7290
 4184TIP3   OH234042   5.382   0.884  11.277  0.1621  0.2077 -0.3574
 4184TIP3    H134043   5.323   0.859  11.348  0.4701  1.9278  0.5466
 4184TIP3    H234044   5.469   0.855  11.306 -0.0179 -1.2742 -1.1692
 4185TIP3   OH234045   2.808   3.378  17.059 -0.0426  0.0492  0.2217
 4185TIP3    H134046   2.883   3.319  17.051  0.3647  0.5415  0.3757
 4185TIP3    H234047   2.831   3.436  17.131 -0.8826 -0.2439  0.7372
 4186TIP3   OH234048   1.236   2.821  11.269 -0.8706  0.1743 -0.1481
 4186TIP3    H134049   1.231   2.760  11.195  0.3657 -0.8930  0.6023
 4186TIP3    H234050   1.155   2.807  11.317 -1.3604  0.3615 -0.9047
 4187TIP3   OH234051   1.025   1.674  16.910 -0.5590  0.6406  0.0079
 4187TIP3    H134052   1.029   1.581  16.889  0.2296  1.0091 -1.7280
 4187TIP3    H234053   1.113   1.707  16.891 -0.0030  1.3054  3.1587
 4188TIP3   OH234054   6.339   2.975   2.084  0.7340 -0.6863  0.7262
 4188TIP3    H134055   6.384   2.968   2.000  1.8854 -1.5837  1.4015
 4188TIP3    H234056   6.246   2.985   2.060  1.2572  1.4702 -0.6827
 4189TIP3   OH234057   4.762   3.550   0.229  0.3535 -0.0449 -0.2077
 4189TIP3    H134058   4.738   3.527   0.140  1.7212  0.0985 -0.6274
 4189TIP3    H234059   4.778   3.644   0.227 -1.2512  0.2742  0.5899
 4190TIP3   OH234060   4.066   2.445  13.496  0.5571 -0.1580 -0.0702
 4190TIP3    H134061   4.043   2.353  13.505  2.5010 -0.5796  1.2372
 4190TIP3    H234062   4.160   2.444  13.475  0.8713  1.5387  1.0598
 4191TIP3   OH234063   3.430   4.125  15.090 -0.3372  0.4179  0.1055
 4191TIP3    H134064   3.487   4.197  15.064 -0.6677  0.7903  0.3960
 4191TIP3    H234065   3.488   4.062  15.133 -0.2724  1.1580  1.1149
 4192TIP3   OH234066   2.573   6.794  16.902 -0.4470  0.2830  0.6811
 4192TIP3    H134067   2.649   6.755  16.945  0.3709  2.0401  0.8968
 4192TIP3    H234068   2.609   6.852  16.835 -1.4628  2.4878  1.9063
 4193TIP3   OH234069   1.138   5.028  12.236  0.1864  0.9262  0.0606
 4193TIP3    H134070   1.218   4.975  12.235 -0.8035 -0.7158 -2.1726
 4193TIP3    H234071   1.161   5.106  12.184  0.7573  1.2370  0.7561
 4194TIP3   OH234072   5.764   6.216   2.169  0.2882  0.3223  0.2763
 4194TIP3    H134073   5.809   6.251   2.092  1.5949 -1.4569  0.1571
 4194TIP3    H234074   5.754   6.291   2.227  2.0013  1.1172 -0.3852
 4195TIP3   OH234075   5.764   6.766  11.529  0.3595 -0.2906 -0.1262
 4195TIP3    H134076   5.808   6.798  11.450  2.2259 -1.1851  0.4836
 4195TIP3    H234077   5.829   6.778  11.599 -1.0931  0.0904  1.2143
 4196TIP3   OH234078   5.314   3.705  16.637  0.2450  0.6345 -0.1390
 4196TIP3    H134079   5.322   3.790  16.681 -1.2009  1.3676 -1.2000
 4196TIP3    H234080   5.231   3.670  16.669  0.4185  0.0080 -0.3750
 4197TIP3   OH234081   3.280   5.054  14.685  0.2058 -0.4855 -0.1442
 4197TIP3    H134082   3.233   5.088  14.761  0.2485 -0.6926 -0.0226
 4197TIP3    H234083   3.214   5.047  14.616  0.3076  0.3660 -0.3444
 4198TIP3   OH234084   4.276   6.129   4.040  0.1605  0.0878 -0.2672
 4198TIP3    H134085   4.257   6.150   3.948  2.8871 -0.2008 -0.9893
 4198TIP3    H234086   4.275   6.213   4.085 -0.1939  0.3648 -0.7854
 4199TIP3   OH234087   0.555   5.298  13.659  0.2520 -0.2924 -0.0775
 4199TIP3    H134088   0.563   5.291  13.754  1.0006 -1.0248 -0.1895
 4199TIP3    H234089   0.552   5.208  13.628  1.8585 -0.1074 -0.8961
 4200TIP3   OH234090   4.334   2.336  16.388  0.2853  0.1587  0.0692
 4200TIP3    H134091   4.248   2.343  16.430 -0.4040  1.3664 -1.4412
 4200TIP3    H234092   4.389   2.291  16.453 -1.5260 -0.8589  0.9784
 4201TIP3   OH234093   3.271   2.151   0.353 -0.0062 -0.0898 -0.1978
 4201TIP3    H134094   3.242   2.162   0.444  0.0328 -1.3957 -0.0043
 4201TIP3    H234095   3.258   2.058   0.335  0.1974  0.1110 -1.4687
 4202TIP3   OH234096   6.351   4.581   4.000  0.4958  0.0909 -0.5969
 4202TIP3    H134097   6.407   4.520   3.951 -3.0567 -2.0358 -2.4058
 4202TIP3    H234098   6.330   4.650   3.937 -0.0555  0.0843 -0.4274
 4203TIP3   OH234099   1.236   5.461   0.138 -0.8398  0.5354  0.0455
 4203TIP3    H134100   1.192   5.405   0.202  1.7468  0.7274  2.1552
 4203TIP3    H234101   1.226   5.550   0.173 -0.8465  0.8503 -0.7390
 4204TIP3   OH234102   2.802   6.008   4.991 -0.1972  0.0387  0.2537
 4204TIP3    H134103   2.878   6.061   5.014  1.0043 -0.9665 -1.2083
 4204TIP3    H234104   2.752   6.064   4.931  0.3100  0.0664 -0.1517
 4205TIP3   OH234105   0.408   5.192  12.911 -0.2797  0.2766 -0.5330
 4205TIP3    H134106   0.457   5.187  12.994 -1.0642  0.8773 -0.0155
 4205TIP3    H234107   0.411   5.285  12.888  0.5984  0.0027 -1.6095
 4206TIP3   OH234108   5.400   0.767  11.594 -0.1373 -0.4477 -0.5950
 4206TIP3    H134109   5.319   0.799  11.555 -0.7038  0.2734  1.0577
 4206TIP3    H234110   5.389   0.783  11.688  1.8747 -0.4422 -0.3161
 4207TIP3   OH234111   4.333   3.237  15.257 -0.4841  0.0343 -0.0756
 4207TIP3    H134112   4.389   3.227  15.180  0.2475 -1.0352  0.5651
 4207TIP3    H234113   4.349   3.326  15.286 -0.2447  0.2255 -0.7701
 4208TIP3   OH234114   2.821   2.630   4.501 -0.3950 -0.0821  0.2927
 4208TIP3    H134115   2.916   2.631   4.490 -0.4325  0.6422  0.0255
 4208TIP3    H234116   2.806   2.681   4.580 -0.6583  1.0001 -0.4438
 4209TIP3   OH234117   6.631   3.641   2.323  0.0470 -0.0793 -0.3478
 4209TIP3    H134118   6.664   3.729   2.341 -2.3734  0.7982  0.1901
 4209TIP3    H234119   6.709   3.587   2.314  1.5890  1.9889 -0.0304
 4210TIP3   OH234120   0.774   5.346  13.366 -0.3737  0.0507  0.0380
 4210TIP3    H134121   0.787   5.251  13.368 -1.9913 -0.1833  0.2035
 4210TIP3    H234122   0.801   5.376  13.453 -1.4574 -0.4845  0.5641
 4211TIP3   OH234123   4.287   4.021   4.820  0.2821  0.2550 -0.6015
 4211TIP3    H134124   4.276   4.116   4.817 -0.3657  0.1692 -2.2303
 4211TIP3    H234125   4.236   3.993   4.895 -1.2747  1.0156 -1.3366
 4212TIP3   OH234126   3.166   2.680  15.424 -0.6567  0.1796 -0.1888
 4212TIP3    H134127   3.139   2.707  15.512 -0.4152 -0.2446  0.0194
 4212TIP3    H234128   3.110   2.605  15.404 -0.2668 -0.1272 -0.1320
 4213TIP3   OH234129   5.809   4.385  14.739  0.4428 -0.2359  0.0166
 4213TIP3    H134130   5.738   4.362  14.798  0.0937 -0.3988 -0.4582
 4213TIP3    H234131   5.770   4.383  14.652  1.1038 -0.6756 -0.2890
 4214TIP3   OH234132   4.842   5.284   6.699  0.0558  0.2771 -1.0634
 4214TIP3    H134133   4.782   5.352   6.732  1.8386  0.9294  1.1539
 4214TIP3    H234134   4.921   5.332   6.675  1.3117 -0.9192  0.4171
 4215TIP3   OH234135   3.311   5.079   1.415  0.0344  0.3793 -0.1984
 4215TIP3    H134136   3.330   5.129   1.335 -0.3157  1.5903  0.4422
 4215TIP3    H234137   3.248   5.012   1.387  0.2635  0.4939 -1.0234
 4216TIP3   OH234138   2.278   5.239   4.750  0.1352  0.9671  0.0065
 4216TIP3    H134139   2.303   5.175   4.817 -0.0144 -0.1174 -0.9300
 4216TIP3    H234140   2.206   5.288   4.790 -1.8094 -1.4510 -0.2338
 4217TIP3   OH234141   1.496   0.248  15.992 -0.2987  0.2235 -0.5378
 4217TIP3    H134142   1.492   0.170  16.047 -1.4360  0.4986 -0.2039
 4217TIP3    H234143   1.411   0.253  15.949  0.3636  0.3459 -1.8957
 4218TIP3   OH234144   2.401   5.098  11.943  0.4646 -0.0432 -0.4487
 4218TIP3    H134145   2.330   5.092  12.007  0.7657 -2.4165 -0.2230
 4218TIP3    H234146   2.431   5.188  11.948 -0.9587  0.3944  1.1858
 4219TIP3   OH234147   5.972   1.848  12.826  0.3431  0.6358  0.1162
 4219TIP3    H134148   6.034   1.848  12.898 -0.4639  0.1802  0.8204
 4219TIP3    H234149   5.995   1.926  12.775  0.9064  0.9706  0.8700
 4220TIP3   OH234150   6.636   1.467   5.253 -0.2205 -0.2367  0.1339
 4220TIP3    H134151   6.593   1.401   5.307 -1.7725 -0.1979 -0.9915
 4220TIP3    H234152   6.645   1.425   5.167  0.2257  0.4611 -0.1706
 4221TIP3   OH234153   4.731   0.657   6.101  0.7444  0.6221  0.0330
 4221TIP3    H134154   4.659   0.699   6.149  0.7128  0.9986 -0.3369
 4221TIP3    H234155   4.774   0.602   6.166 -1.1263 -1.2403 -0.1862
 4222TIP3   OH234156   4.303   0.065   0.331 -0.1992 -0.3863 -0.3587
 4222TIP3    H134157   4.318   0.150   0.289  0.1698 -0.1003  0.3198
 4222TIP3    H234158   4.357   0.068   0.410  1.0783 -1.8902 -1.1185
 4223TIP3   OH234159   0.042   4.764  16.021 -0.1742  0.4353  0.1538
 4223TIP3    H134160   0.074   4.854  16.013  0.4050  0.2769  0.5896
 4223TIP3    H234161   0.107   4.720  16.076 -0.2531 -0.3529 -0.3659
 4224TIP3   OH234162   5.296   2.666  16.484  0.4893 -0.7232  0.4142
 4224TIP3    H134163   5.284   2.688  16.576  0.3765  0.9640  0.0281
 4224TIP3    H234164   5.218   2.699  16.440  0.7731 -1.0479 -0.3615
 4225TIP3   OH234165   4.116   4.071   2.072  0.0382 -0.1626 -0.2353
 4225TIP3    H134166   4.197   4.022   2.063  0.5200  0.6660 -0.5774
 4225TIP3    H234167   4.128   4.124   2.151 -0.4587 -0.5609  0.1133
 4226TIP3   OH234168   5.268   0.224  12.834  0.7468 -0.0284 -0.2035
 4226TIP3    H134169   5.350   0.259  12.800  1.7484  1.8445  3.5619
 4226TIP3    H234170   5.283   0.130  12.842  2.7447  0.3246  0.7471
 4227TIP3   OH234171   3.139   0.264  15.439  0.2326 -0.6187  0.0408
 4227TIP3    H134172   3.223   0.237  15.477  0.4606  0.1440  0.1064
 4227TIP3    H234173   3.161   0.340  15.385 -0.4285 -0.3814  0.0982
 4228TIP3   OH234174   4.024   1.205   1.848 -0.5714 -0.0048  0.1820
 4228TIP3    H134175   4.059   1.119   1.872  1.4254  1.0636  1.3600
 4228TIP3    H234176   3.957   1.186   1.782 -0.5510 -2.4827  0.7787
 4229TIP3   OH234177   1.065   1.165  12.047 -0.0090  0.0589 -0.3470
 4229TIP3    H134178   1.113   1.184  11.966  1.5602  0.4594  0.6322
 4229TIP3    H234179   1.052   1.251  12.087 -0.4631 -0.1698 -0.0018
 4230TIP3   OH234180   2.738   5.695   1.867  0.3590 -0.6160  0.0407
 4230TIP3    H134181   2.680   5.761   1.828 -1.0971 -1.8810 -0.0665
 4230TIP3    H234182   2.731   5.710   1.961  2.5950  1.3950 -0.0237
 4231TIP3   OH234183   1.212   4.198  15.199 -0.1423 -0.0191  0.2107
 4231TIP3    H134184   1.271   4.273  15.211  1.4238 -0.9460 -1.1936
 4231TIP3    H234185   1.183   4.176  15.287 -0.4277  2.0465  0.6890
 4232TIP3   OH234186   3.178   5.664   6.713 -0.0096  0.4700 -0.2835
 4232TIP3    H134187   3.212   5.691   6.798 -1.3099 -0.4230  0.5583
 4232TIP3    H234188   3.105   5.605   6.733 -0.0325 -0.1745 -2.0158
 4233TIP3   OH234189   0.455   1.209   3.800  0.0286 -0.0106 -0.5471
 4233TIP3    H134190   0.468   1.123   3.761  1.1068  0.0721 -0.3980
 4233TIP3    H234191   0.405   1.258   3.734 -0.6548 -0.7534 -0.5988
 4234TIP3   OH234192   0.539   0.469  15.975  0.4207 -0.3650  0.1736
 4234TIP3    H134193   0.483   0.393  15.993 -1.0072  0.1900 -1.5848
 4234TIP3    H234194   0.480   0.544  15.980  1.3590  0.4176 -0.1302
 4235TIP3   OH234195   2.721   2.671  13.283  0.1732 -0.2665  0.3292
 4235TIP3    H134196   2.781   2.702  13.351  1.1628 -0.1457 -0.5622
 4235TIP3    H234197   2.718   2.743  13.220  0.2634 -0.8662 -0.3693
 4236TIP3   OH234198   3.005   3.537  14.161 -0.2139 -0.3227 -0.0757
 4236TIP3    H134199   2.937   3.549  14.228  0.1864 -0.2451  0.3165
 4236TIP3    H234200   2.956   3.528  14.079 -0.7229 -0.6810  0.2604
 4237TIP3   OH234201   5.234   5.350   0.291  0.5699  0.0803  0.0645
 4237TIP3    H134202   5.211   5.370   0.382  0.9026  0.2129  0.1208
 4237TIP3    H234203   5.277   5.429   0.259 -0.1914  0.3002 -0.4371
 4238TIP3   OH234204   2.359   5.932  16.938  0.6032 -0.2249  0.2164
 4238TIP3    H134205   2.399   5.886  16.864  0.6340  0.7797 -0.4161
 4238TIP3    H234206   2.273   5.959  16.906  0.9288  0.9175  0.2499
 4239TIP3   OH234207   5.080   6.389  15.792 -0.6876 -0.1356  0.5221
 4239TIP3    H134208   5.174   6.372  15.788 -0.4614  1.0014  0.6497
 4239TIP3    H234209   5.073   6.479  15.825 -1.8167 -0.2001  0.4989
 4240TIP3   OH234210   3.860   4.654  16.644 -0.3307 -0.1358  0.4622
 4240TIP3    H134211   3.824   4.569  16.618 -0.3564  0.0994 -0.3155
 4240TIP3    H234212   3.803   4.684  16.714 -0.1000 -0.9262  1.0025
 4241TIP3   OH234213   0.487   4.410  12.113 -0.2746 -0.3101  0.9165
 4241TIP3    H134214   0.442   4.483  12.155  1.2279  0.1808  1.7477
 4241TIP3    H234215   0.417   4.357  12.075 -1.3689  1.6881  0.0530
 4242TIP3   OH234216   5.251   2.131  16.910  0.5904  0.2681 -0.1552
 4242TIP3    H134217   5.252   2.106  16.818  1.5187  0.1825 -0.1346
 4242TIP3    H234218   5.303   2.211  16.914  1.2256 -0.1565  0.3988
 4243TIP3   OH234219   6.770   2.560  13.499  0.3604  0.2644  0.0626
 4243TIP3    H134220   6.716   2.481  13.490  3.2746 -2.1171  1.5783
 4243TIP3    H234221   6.742   2.617  13.427 -1.7135 -2.2339 -1.2844
 4244TIP3   OH234222   0.193   4.988  16.045  0.2264 -0.6775  0.0374
 4244TIP3    H134223   0.267   5.004  15.987  0.5014 -1.0928  0.2695
 4244TIP3    H234224   0.226   5.009  16.133 -0.3711  0.5533 -0.0175
 4245TIP3   OH234225   1.881   4.024   4.837 -0.2349  0.2794  0.2673
 4245TIP3    H134226   1.878   4.103   4.783  0.2075 -0.4823 -0.9074
 4245TIP3    H234227   1.974   4.000   4.839 -0.2822  0.1383  1.1431
 4246TIP3   OH234228   5.157   0.756  13.488 -0.3923 -0.4102 -0.5414
 4246TIP3    H134229   5.186   0.823  13.426  0.2617  1.8067  1.9598
 4246TIP3    H234230   5.239   0.717  13.520 -0.5299  0.4355  0.9058
 4247TIP3   OH234231   5.380   4.929  13.673 -0.2808  0.5092 -0.1460
 4247TIP3    H134232   5.307   4.877  13.639 -0.1356 -0.4389  0.9465
 4247TIP3    H234233   5.422   4.873  13.738  0.7701  1.4537  0.0234
 4248TIP3   OH234234   4.180   2.132  17.037  0.6357 -0.0327 -0.2141
 4248TIP3    H134235   4.165   2.072  17.111 -0.3510 -0.0892 -0.4377
 4248TIP3    H234236   4.134   2.212  17.062  0.3620 -0.0271 -0.7277
 4249TIP3   OH234237   5.775   1.671  11.686 -0.3286  0.0364  0.4391
 4249TIP3    H134238   5.795   1.680  11.779  0.4666  1.6652  0.1498
 4249TIP3    H234239   5.815   1.748  11.645  0.0106 -1.0356 -1.3668
 4250TIP3   OH234240   0.913   4.237  12.563  0.6182 -0.1677 -0.2373
 4250TIP3    H134241   0.960   4.155  12.581  0.6707  0.0771  0.8232
 4250TIP3    H234242   0.822   4.210  12.551  0.6829 -0.4212 -0.1696
 4251TIP3   OH234243   0.767   4.984   0.838  0.2558  0.0481 -0.3905
 4251TIP3    H134244   0.845   4.963   0.787  1.2297  1.6438  0.3401
 4251TIP3    H234245   0.758   5.079   0.829 -0.8699  0.0557  0.5630
 4252TIP3   OH234246   2.789   1.833  12.066 -0.1035 -0.4258  0.7370
 4252TIP3    H134247   2.831   1.833  12.152 -0.6295 -1.3315  1.0052
 4252TIP3    H234248   2.822   1.755  12.023 -1.6353 -1.2706  1.0293
 4253TIP3   OH234249   5.096   1.393  14.574 -0.3432 -0.4105  0.8322
 4253TIP3    H134250   5.095   1.348  14.490 -0.3328 -0.9637  1.1244
 4253TIP3    H234251   5.189   1.405  14.594 -0.3324  1.1488  0.0245
 4254TIP3   OH234252   6.390   2.677   5.083  0.2344 -0.0513 -0.5456
 4254TIP3    H134253   6.476   2.708   5.057  0.7171 -1.1607 -0.3210
 4254TIP3    H234254   6.349   2.648   5.002  0.2111  0.1301 -0.5995
 4255TIP3   OH234255   0.988   6.381   4.307  0.3581 -0.0253  0.4933
 4255TIP3    H134256   1.041   6.450   4.267  1.2187 -1.8198 -1.7233
 4255TIP3    H234257   1.019   6.375   4.397 -0.1553  2.8024  0.9216
 4256TIP3   OH234258   0.684   0.538   1.234  0.3103 -0.6525 -0.1872
 4256TIP3    H134259   0.602   0.587   1.231 -0.6305 -2.1942 -1.8436
 4256TIP3    H234260   0.752   0.603   1.216 -0.5170  0.6731  1.3211
 4257TIP3   OH234261   5.302   3.931  16.417  0.1904 -0.1707 -0.3345
 4257TIP3    H134262   5.318   3.875  16.493 -0.6411  1.2212  0.9053
 4257TIP3    H234263   5.387   3.935  16.372  0.4973 -1.6171  0.0839
 4258TIP3   OH234264   2.930   5.112  15.517  0.4173  0.5578 -0.4569
 4258TIP3    H134265   2.923   5.137  15.425  0.7803  2.6922  0.0511
 4258TIP3    H234266   2.985   5.180  15.557  1.3873 -1.0386  1.0925
 4259TIP3   OH234267   4.007   5.304  16.340  0.0849  0.0824 -0.3914
 4259TIP3    H134268   3.918   5.274  16.323 -0.1846  1.4323 -1.5559
 4259TIP3    H234269   3.995   5.394  16.371  0.9187 -0.5359  1.9244
 4260TIP3   OH234270   5.497   2.999   3.540 -0.3535 -0.6192 -0.0529
 4260TIP3    H134271   5.403   3.001   3.560 -0.1789 -0.4270  0.7996
 4260TIP3    H234272   5.536   2.953   3.615  0.1495 -1.4103 -0.7790
 4261TIP3   OH234273   4.892   3.475   0.861 -0.4650 -0.5671 -0.4457
 4261TIP3    H134274   4.924   3.433   0.941 -0.5464 -2.1217 -1.1819
 4261TIP3    H234275   4.797   3.475   0.871 -0.4191  1.2409  0.3833
 4262TIP3   OH234276   2.776   2.403   1.347 -0.8804  0.1651 -0.0311
 4262TIP3    H134277   2.812   2.372   1.430 -0.6662  0.3679 -0.0475
 4262TIP3    H234278   2.750   2.323   1.301 -1.1325  0.0596  0.2884
 4263TIP3   OH234279   4.670   5.935  15.616 -0.1384  0.0096 -0.1662
 4263TIP3    H134280   4.740   5.951  15.553 -0.1213  2.7703  0.4153
 4263TIP3    H234281   4.716   5.914  15.698 -0.0640 -0.3030 -0.2868
 4264TIP3   OH234282   0.244   5.900   3.930 -0.1681  0.5499  1.0946
 4264TIP3    H134283   0.276   5.990   3.933 -1.5563  1.1302 -0.1847
 4264TIP3    H234284   0.263   5.865   4.017 -0.2179  2.2922  1.8476
 4265TIP3   OH234285   5.092   4.897  13.055 -0.7126  0.8106 -0.1661
 4265TIP3    H134286   5.000   4.874  13.070 -0.4495  0.4646  1.0470
 4265TIP3    H234287   5.110   4.867  12.966 -1.1739 -1.1800  0.3507
 4266TIP3   OH234288   3.423   1.152  13.325 -0.4028  0.6319  0.0366
 4266TIP3    H134289   3.408   1.245  13.344 -1.1251  0.6120 -0.4016
 4266TIP3    H234290   3.493   1.152  13.260 -0.4924  0.8784 -0.0601
 4267TIP3   OH234291   4.066   5.707   3.771  0.1452  0.0270  0.2000
 4267TIP3    H134292   4.084   5.723   3.863  0.4805 -1.4468  0.4167
 4267TIP3    H234293   3.999   5.639   3.771  1.4755 -1.3468 -0.6094
 4268TIP3   OH234294   6.508   6.692  16.979 -0.1628  0.3355 -0.5969
 4268TIP3    H134295   6.437   6.653  16.929  0.3277 -3.5053  1.3089
 4268TIP3    H234296   6.467   6.721  17.061  0.2670 -1.1643  0.1801
 4269TIP3   OH234297   3.996   0.530   1.909  0.0495 -0.2005 -0.7825
 4269TIP3    H134298   4.081   0.520   1.865 -0.1394 -0.2248 -1.1418
 4269TIP3    H234299   4.018   0.567   1.994  0.3397  0.6596 -1.2230
 4270TIP3   OH234300   1.985   2.090  13.842  0.5765  0.0195 -0.0724
 4270TIP3    H134301   1.965   2.007  13.799 -0.4041 -0.4074  1.1489
 4270TIP3    H234302   1.899   2.129  13.860  1.0025  0.8395  0.2388
 4271TIP3   OH234303   3.727   5.568  16.376  0.9647  0.4924 -0.3972
 4271TIP3    H134304   3.682   5.503  16.322 -0.1106  1.0719 -0.2097
 4271TIP3    H234305   3.689   5.652  16.351  1.4713  0.9276  0.2492
 4272TIP3   OH234306   3.290   6.643   5.833  0.1709  0.1820 -0.5256
 4272TIP3    H134307   3.367   6.699   5.819  2.0264 -2.0512  0.1567
 4272TIP3    H234308   3.325   6.565   5.875 -2.3076 -1.4791 -1.3502
 4273TIP3   OH234309   6.020   6.618   2.225  0.2784  0.1813 -0.1257
 4273TIP3    H134310   6.023   6.544   2.164  1.2962  1.0000 -1.0979
 4273TIP3    H234311   6.111   6.646   2.234  0.1039  0.2604  1.5598
 4274TIP3   OH234312   3.657   3.299   5.979 -0.8638  0.7766 -0.0536
 4274TIP3    H134313   3.562   3.308   5.970 -1.1941 -1.4250  0.6536
 4274TIP3    H234314   3.676   3.211   5.945  0.4728 -0.0190  2.4958
 4275TIP3   OH234315   6.656   0.593   6.428 -0.3162  0.1576 -0.4847
 4275TIP3    H134316   6.595   0.540   6.479  1.8412 -0.0449  2.0898
 4275TIP3    H234317   6.704   0.530   6.374 -0.3276 -0.0472 -0.2555
 4276TIP3   OH234318   5.632   3.965  17.245 -0.1073  0.6548 -0.1901
 4276TIP3    H134319   5.675   3.895  17.295 -2.0061  1.1510  2.3750
 4276TIP3    H234320   5.542   3.934  17.234 -0.3660  1.6803 -1.1436
 4277TIP3   OH234321   1.767   1.443   0.835 -0.1917  0.1307  0.0555
 4277TIP3    H134322   1.778   1.397   0.752 -3.2995 -0.7173  0.0166
 4277TIP3    H234323   1.677   1.425   0.861  0.1159  1.9124  2.7090
 4278TIP3   OH234324   4.157   0.726   5.756 -0.0475  0.6646  0.0411
 4278TIP3    H134325   4.084   0.734   5.695 -0.6437  2.3859  0.9419
 4278TIP3    H234326   4.136   0.785   5.828  1.2361 -0.3920  1.3400
 4279TIP3   OH234327   3.829   4.345  15.600 -0.0216 -0.5011 -0.0871
 4279TIP3    H134328   3.830   4.282  15.672 -0.9237 -1.0129 -0.5059
 4279TIP3    H234329   3.837   4.430  15.642 -2.4754 -0.6490  0.8151
 4280TIP3   OH234330   3.459   0.544   6.141 -0.4210 -0.1267  0.6130
 4280TIP3    H134331   3.376   0.577   6.175 -0.6588  0.9874 -0.9478
 4280TIP3    H234332   3.525   0.600   6.181 -0.6482  0.7245 -0.1562
 4281TIP3   OH234333   0.177   2.653  11.419  0.7621  0.7376 -0.0996
 4281TIP3    H134334   0.156   2.740  11.384 -2.1334 -0.4216 -1.6660
 4281TIP3    H234335   0.228   2.611  11.349  0.6751  0.6168 -0.0907
 4282TIP3   OH234336   6.121   3.920  14.748  0.2741 -0.9027 -0.5689
 4282TIP3    H134337   6.062   3.993  14.766  1.7961  0.3787 -0.5664
 4282TIP3    H234338   6.195   3.933  14.807  0.7427 -2.2721 -0.8096
 4283TIP3   OH234339   1.091   3.622   4.102 -0.7447  0.3987 -0.1347
 4283TIP3    H134340   1.081   3.639   4.008  0.3912  1.9367 -0.0130
 4283TIP3    H234341   1.080   3.708   4.143 -0.5493 -0.1374  1.0813
 4284TIP3   OH234342   2.457   0.449  11.476 -0.1509  0.5175  0.0288
 4284TIP3    H134343   2.465   0.373  11.534 -0.3605  0.6323  0.2085
 4284TIP3    H234344   2.502   0.519  11.523  1.7028  0.0584 -0.9664
 4285TIP3   OH234345   2.847   0.750   1.550 -0.1738 -0.4232  0.0554
 4285TIP3    H134346   2.821   0.834   1.512 -1.4014 -1.3246 -1.1767
 4285TIP3    H234347   2.792   0.685   1.507  0.6698 -1.8768  1.0519
 4286TIP3   OH234348   3.218   0.413  16.861  0.2335 -0.3961  0.5790
 4286TIP3    H134349   3.178   0.422  16.947  0.0455 -0.1209  0.4657
 4286TIP3    H234350   3.184   0.331  16.826 -1.4671  0.5580 -0.1491
 4287TIP3   OH234351   6.240   0.963  13.040 -0.4400  0.0633 -0.6512
 4287TIP3    H134352   6.276   0.922  13.119 -1.0515 -1.2820 -1.0482
 4287TIP3    H234353   6.276   0.912  12.968 -1.6693 -0.1317 -1.1383
 4288TIP3   OH234354   6.360   2.955   1.578 -0.4078 -0.0982  0.7943
 4288TIP3    H134355   6.287   2.933   1.520 -0.2064 -1.2772  0.9674
 4288TIP3    H234356   6.393   3.037   1.543 -0.6210 -0.5157 -0.4605
 4289TIP3   OH234357   5.048   5.870   2.235  0.0862  0.2326 -0.5246
 4289TIP3    H134358   5.035   5.885   2.328  0.6612  1.8103 -0.6611
 4289TIP3    H234359   5.042   5.957   2.196  1.7597 -0.1262 -1.7080
 4290TIP3   OH234360   2.129   4.209  14.586 -0.0295  0.2214 -0.1051
 4290TIP3    H134361   2.135   4.136  14.524 -1.6289  0.0231 -0.0766
 4290TIP3    H234362   2.207   4.261  14.569  0.9350 -1.2591 -0.4222
 4291TIP3   OH234363   4.912   6.200   0.486 -0.3003 -0.1380  0.5163
 4291TIP3    H134364   4.821   6.173   0.503 -0.4698 -0.6471 -1.0582
 4291TIP3    H234365   4.905   6.293   0.464 -0.5333 -0.2940 -0.1156
 4292TIP3   OH234366   2.515   1.036   5.438 -0.0892  0.7675 -0.0314
 4292TIP3    H134367   2.585   1.084   5.482 -0.1196  0.6751  0.1198
 4292TIP3    H234368   2.516   1.068   5.348 -0.8439  1.8914  0.3260
 4293TIP3   OH234369   0.829   2.435   3.286  0.2668  0.6395 -0.0618
 4293TIP3    H134370   0.795   2.347   3.302 -0.5429  0.9570  0.0123
 4293TIP3    H234371   0.912   2.421   3.240  0.3164 -0.1650  0.2618
 4294TIP3   OH234372   1.035   3.000   3.599  0.1010  0.1850  0.4240
 4294TIP3    H134373   1.041   2.945   3.677  1.0116  2.4867  2.0865
 4294TIP3    H234374   1.116   2.981   3.550 -0.0035 -0.5499  0.5297
 4295TIP3   OH234375   1.044   4.472  12.676  0.1971 -0.3833 -0.4357
 4295TIP3    H134376   0.994   4.406  12.628  0.7257 -0.5409 -0.7703
 4295TIP3    H234377   1.103   4.421  12.732  1.1030 -0.2164 -1.2070
 4296TIP3   OH234378   0.968   2.776  10.696  0.2570 -0.6755  0.1437
 4296TIP3    H134379   0.979   2.698  10.750  3.4472 -2.1580 -2.2858
 4296TIP3    H234380   1.046   2.829  10.714  0.5518 -0.4188 -1.6710
 4297TIP3   OH234381   4.135   2.349  12.768  0.6973  0.2818 -0.1571
 4297TIP3    H134382   4.185   2.366  12.688 -0.6403  0.3327 -1.0293
 4297TIP3    H234383   4.045   2.373  12.745  0.2201 -0.0486  1.2588
 4298TIP3   OH234384   4.060   6.639  16.392 -0.3024  0.3034 -0.3061
 4298TIP3    H134385   4.018   6.723  16.374  0.0974  0.1785 -1.9678
 4298TIP3    H234386   4.069   6.598  16.306  1.9192 -0.2717  0.1465
 4299TIP3   OH234387   6.138   5.142  14.909 -0.3240 -1.0555 -0.4395
 4299TIP3    H134388   6.108   5.205  14.974  0.0932 -1.8781  0.5679
 4299TIP3    H234389   6.120   5.184  14.825 -0.0670  0.3940  0.2070
 4300TIP3   OH234390   4.160   3.939   0.683  0.2534  0.6124 -0.1839
 4300TIP3    H134391   4.233   3.973   0.632  0.6829  0.7415  0.4960
 4300TIP3    H234392   4.121   3.870   0.629 -0.0578  1.5522 -1.1890
 4301TIP3   OH234393   2.575   4.328   0.417 -0.4382  0.7087  0.6735
 4301TIP3    H134394   2.645   4.370   0.467  0.1525 -1.0912  1.4360
 4301TIP3    H234395   2.608   4.241   0.397 -1.3727  0.7568 -1.3955
 4302TIP3   OH234396   2.917   4.489  11.378  0.4718 -0.3019  0.3372
 4302TIP3    H134397   3.003   4.519  11.405  0.2520  0.4628  0.2195
 4302TIP3    H234398   2.912   4.511  11.285 -0.3100  0.8219  0.6149
 4303TIP3   OH234399   5.304   4.188  17.152 -0.0791 -0.0310 -0.3587
 4303TIP3    H134400   5.311   4.174  17.247  4.2483  0.2125 -0.4565
 4303TIP3    H234401   5.271   4.277  17.143  0.6800  0.4222  1.0082
 4304TIP3   OH234402   5.564   6.060  15.848  0.3898  0.5441 -0.6943
 4304TIP3    H134403   5.630   6.121  15.816  0.3199  0.0390 -1.8554
 4304TIP3    H234404   5.583   5.978  15.803  0.2756 -0.2200  0.5822
 4305TIP3   OH234405   0.080   4.048   3.584 -0.1604  0.2798  0.7660
 4305TIP3    H134406   0.014   4.049   3.653  2.0213  1.0260  2.9971
 4305TIP3    H234407   0.125   3.965   3.594 -0.6968 -0.2264 -0.7354
 4306TIP3   OH234408   5.260   1.376   0.923 -0.0188 -0.0217 -0.4867
 4306TIP3    H134409   5.292   1.298   0.877  0.0199 -1.4903  1.8746
 4306TIP3    H234410   5.169   1.357   0.942 -0.4101  1.1566 -1.0898
 4307TIP3   OH234411   5.112   6.062   0.687  0.1072  0.1070 -0.4106
 4307TIP3    H134412   5.118   5.970   0.662  0.7865 -0.5155  1.8410
 4307TIP3    H234413   5.063   6.103   0.615  0.9802 -1.7076 -2.1222
 4308TIP3   OH234414   5.826   2.540   0.283  0.0069  0.1302  0.2223
 4308TIP3    H134415   5.913   2.507   0.305  0.3703  0.2339 -0.9769
 4308TIP3    H234416   5.817   2.620   0.334  0.3036 -0.2711  0.9201
 4309TIP3   OH234417   5.599   6.218   3.856  0.3803  0.1992  0.2169
 4309TIP3    H134418   5.642   6.150   3.908 -0.7772 -0.6826  0.0694
 4309TIP3    H234419   5.513   6.228   3.896 -0.0627  0.4118 -0.7576
 4310TIP3   OH234420   3.848   6.162  15.699  0.5296 -0.3327 -0.1418
 4310TIP3    H134421   3.818   6.240  15.745  1.7982 -0.3409  0.7629
 4310TIP3    H234422   3.839   6.184  15.606 -0.5371  0.3090  0.1049
 4311TIP3   OH234423   1.380   5.699   2.617  0.0003  0.4540  0.7477
 4311TIP3    H134424   1.396   5.794   2.622 -2.6670  1.0080  0.4731
 4311TIP3    H234425   1.432   5.669   2.543  2.0142  1.3947  1.7081
 4312TIP3   OH234426   6.146   1.504   1.719  0.4335  0.2455  0.1309
 4312TIP3    H134427   6.102   1.589   1.708  1.7267  0.6666 -2.5811
 4312TIP3    H234428   6.179   1.506   1.809 -2.1233  1.2852  1.1579
 4313TIP3   OH234429   3.759   3.060  14.699 -0.1808  1.2386  0.3512
 4313TIP3    H134430   3.702   3.090  14.628 -1.1287 -0.2762  0.4350
 4313TIP3    H234431   3.789   2.974  14.671 -1.3082  0.2045  2.1593
 4314TIP3   OH234432   1.627   2.869  11.722 -0.2681 -0.3856  0.1071
 4314TIP3    H134433   1.555   2.819  11.759 -0.5567 -0.7070 -0.8450
 4314TIP3    H234434   1.698   2.861  11.786  0.2396 -3.3070 -0.6514
 4315TIP3   OH234435   3.502   0.600  16.375 -0.4079  0.0471  0.2064
 4315TIP3    H134436   3.588   0.597  16.416 -0.1745  0.3490 -0.2557
 4315TIP3    H234437   3.470   0.510  16.381  0.4834 -0.3525 -0.7649
 4316TIP3   OH234438   4.855   4.615  17.021  0.1134  0.0468  0.1457
 4316TIP3    H134439   4.909   4.555  16.970 -0.4495 -1.2743  1.0404
 4316TIP3    H234440   4.918   4.664  17.075  0.5005 -0.6996  0.3875
 4317TIP3   OH234441   1.317   3.832  15.915 -0.1589 -0.0179 -0.0605
 4317TIP3    H134442   1.349   3.854  15.828  1.4744 -0.3900  0.3985
 4317TIP3    H234443   1.230   3.796  15.901 -1.6679  3.6241 -1.1324
 4318TIP3   OH234444   5.682   4.155  14.232  0.4328 -0.4305 -1.0986
 4318TIP3    H134445   5.758   4.122  14.184  0.2787 -0.7819 -1.1053
 4318TIP3    H234446   5.668   4.090  14.301  0.9050  0.2855 -0.3152
 4319TIP3   OH234447   3.660   5.576  16.077  0.1462  0.1364 -0.2761
 4319TIP3    H134448   3.646   5.561  15.983  0.2109  1.4313 -0.5163
 4319TIP3    H234449   3.679   5.490  16.113  0.4237 -0.3367 -1.5127
 4320TIP3   OH234450   0.608   4.306   3.753 -0.2851  0.2689  0.0942
 4320TIP3    H134451   0.516   4.283   3.742 -0.5691  2.2052 -2.5665
 4320TIP3    H234452   0.609   4.402   3.756  1.5586  0.2630  1.3307
 4321TIP3   OH234453   5.764   5.304   1.729 -0.6759  0.1632  0.1263
 4321TIP3    H134454   5.816   5.322   1.807  0.3319  0.9802 -0.6887
 4321TIP3    H234455   5.686   5.359   1.738  1.1407  3.2132 -1.1008
 4322TIP3   OH234456   1.416   3.733  12.198 -0.2404  0.2985  0.1237
 4322TIP3    H134457   1.368   3.652  12.178  0.8800 -0.8191  1.7022
 4322TIP3    H234458   1.429   3.774  12.113 -1.0015 -1.0985 -0.7136
 4323TIP3   OH234459   6.747   5.180  15.403 -0.8000 -0.2357  0.0435
 4323TIP3    H134460   6.728   5.108  15.343  2.9660 -0.2211 -1.4659
 4323TIP3    H234461   6.820   5.147  15.456  1.4024  2.5299 -1.0505
 4324TIP3   OH234462   0.518   0.076  14.853  0.4622  0.4418 -0.4783
 4324TIP3    H134463   0.572   0.010  14.896  1.2370 -0.0866 -2.1602
 4324TIP3    H234464   0.429   0.057  14.881  0.5106 -2.1056 -1.7797
 4325TIP3   OH234465   6.537   0.305  12.237 -0.4617 -0.1776  0.2496
 4325TIP3    H134466   6.557   0.299  12.144  1.1735  0.8908  0.4846
 4325TIP3    H234467   6.466   0.369  12.242 -1.9324 -1.6783 -0.3666
 4326TIP3   OH234468   2.454   0.131  17.303  0.1300 -0.4159  0.4911
 4326TIP3    H134469   2.533   0.100  17.348  1.3992 -0.7893 -1.8507
 4326TIP3    H234470   2.413   0.052  17.269 -0.1615 -0.0639  0.0176
 4327TIP3   OH234471   1.477   5.565   2.972 -0.4049  0.2540  0.1183
 4327TIP3    H134472   1.441   5.649   2.942  0.5396  1.1130  1.3061
 4327TIP3    H234473   1.400   5.508   2.980 -0.8760  0.3706 -2.4661
 4328TIP3   OH234474   5.435   5.474  13.831 -0.1208 -0.5705 -0.2069
 4328TIP3    H134475   5.499   5.537  13.798 -0.4245  0.2158  0.6744
 4328TIP3    H234476   5.458   5.462  13.923  0.8255 -2.8581 -0.6642
 4329TIP3   OH234477   6.315   4.401   2.279  0.0088  0.0937  0.2475
 4329TIP3    H134478   6.245   4.425   2.218 -0.4161 -1.7545 -0.0554
 4329TIP3    H234479   6.273   4.339   2.340  1.7261 -2.4110 -0.9594
 4330TIP3   OH234480   3.407   0.246  11.599 -0.2544 -0.1276  0.0294
 4330TIP3    H134481   3.362   0.162  11.603 -0.5387 -0.0714 -1.5762
 4330TIP3    H234482   3.500   0.225  11.608 -0.4883 -0.2288  3.5780
 4331TIP3   OH234483   0.066   1.491  12.735 -0.4752  0.0465 -0.5946
 4331TIP3    H134484   0.023   1.451  12.811 -0.8014 -0.4191 -1.0215
 4331TIP3    H234485  -0.006   1.523  12.681 -0.2369  2.9349  0.6120
 4332TIP3   OH234486   0.462   0.422   6.699 -0.7678  0.1847 -0.6035
 4332TIP3    H134487   0.369   0.408   6.720 -0.9683  1.4579 -0.5741
 4332TIP3    H234488   0.504   0.432   6.784 -0.7752  0.5564 -0.6397
 4333TIP3   OH234489   0.140   3.966  13.086  0.2691 -0.3921  0.7672
 4333TIP3    H134490   0.222   4.000  13.051  0.0504  0.8836  1.4715
 4333TIP3    H234491   0.122   3.888  13.032  0.6099  0.7731 -1.1109
 4334TIP3   OH234492   1.720   3.907   1.231 -0.3746  0.4451 -0.0635
 4334TIP3    H134493   1.626   3.926   1.224 -0.2180  1.1065 -0.4722
 4334TIP3    H234494   1.761   3.993   1.236  0.1192  0.1406  1.5314
 4335TIP3   OH234495   0.294   6.240   5.642 -0.3065  0.1423  0.0670
 4335TIP3    H134496   0.379   6.229   5.599 -0.3464  0.2870 -0.0492
 4335TIP3    H234497   0.300   6.185   5.721 -0.5509 -0.8327 -0.5745
 4336TIP3   OH234498   4.956   3.581   4.745 -0.1159 -0.2438 -0.3396
 4336TIP3    H134499   4.963   3.620   4.832  0.8487  0.2942 -0.6478
 4336TIP3    H234500   5.005   3.640   4.688  0.0637 -1.0921 -1.0850
 4337TIP3   OH234501   6.609   1.193   4.033  0.1466 -0.1178 -0.0650
 4337TIP3    H134502   6.576   1.108   4.062  1.1905 -1.1784 -1.8231
 4337TIP3    H234503   6.703   1.190   4.050  1.0613 -1.2582 -4.2152
 4338TIP3   OH234504   6.358   1.240   5.818 -0.0470 -0.3100  0.4469
 4338TIP3    H134505   6.439   1.286   5.794 -0.3240  0.5371  1.0677
 4338TIP3    H234506   6.335   1.190   5.740  1.1370 -0.6563  0.3004
 4339TIP3   OH234507   1.588   6.345  12.610  0.3005 -0.7907 -0.0172
 4339TIP3    H134508   1.608   6.394  12.530  3.1122 -1.9823 -0.1871
 4339TIP3    H234509   1.658   6.369  12.671 -1.1145 -0.8209  1.6739
 4340TIP3   OH234510   1.727   5.417  13.872  0.6010 -0.0724 -0.3531
 4340TIP3    H134511   1.751   5.385  13.785  0.8564 -1.1185  0.0882
 4340TIP3    H234512   1.804   5.465  13.902  1.1305 -1.0608 -0.0731
 4341TIP3   OH234513   3.933   0.037   0.231  0.2255  0.1632 -0.0132
 4341TIP3    H134514   3.970   0.116   0.194  0.3358  1.0553  1.8765
 4341TIP3    H234515   3.976   0.027   0.316 -0.1037 -1.6838 -0.0091
 4342TIP3   OH234516   0.075   6.307  16.699  0.0805 -0.2488  0.4940
 4342TIP3    H134517   0.096   6.369  16.769 -1.5604  3.3408 -1.8958
 4342TIP3    H234518   0.157   6.296  16.651  0.3828  0.1598  0.9037
 4343TIP3   OH234519   3.368   2.362  15.771  0.8838 -0.1878 -0.5281
 4343TIP3    H134520   3.416   2.362  15.854  2.1152 -0.5593 -1.2059
 4343TIP3    H234521   3.284   2.401  15.791  1.2694 -0.0189  0.8376
 4344TIP3   OH234522   5.671   4.155  11.774  0.1510 -0.5073  0.4156
 4344TIP3    H134523   5.710   4.210  11.842 -1.1455  1.0890 -0.0574
 4344TIP3    H234524   5.635   4.081  11.821 -1.6109  1.0569  1.6972
 4345TIP3   OH234525   2.731   6.558   4.566  0.4742  0.0170 -0.1232
 4345TIP3    H134526   2.733   6.533   4.659  0.3224 -1.1498 -0.4114
 4345TIP3    H234527   2.823   6.565   4.541  0.5172  0.1413  0.0721
 4346TIP3   OH234528   0.090   0.373   2.959  0.3688 -0.0361 -0.1202
 4346TIP3    H134529   0.051   0.356   2.874  3.6516 -2.3128 -1.3406
 4346TIP3    H234530   0.051   0.307   3.017 -0.6453  0.4682 -0.1963
 4347TIP3   OH234531   5.983   4.166   1.616  0.0735  0.6894  0.0977
 4347TIP3    H134532   5.949   4.168   1.527  1.3941 -1.8887 -0.5562
 4347TIP3    H234533   6.074   4.137   1.606  0.0450 -0.3475  2.3198
 4348TIP3   OH234534   0.363   1.118   6.120 -0.3648  0.4428 -0.5682
 4348TIP3    H134535   0.402   1.081   6.199 -2.7470  2.4278  1.7095
 4348TIP3    H234536   0.271   1.092   6.124 -0.6336  0.9354 -2.5082
 4349TIP3   OH234537   3.055   5.691  11.434  0.0043 -0.4580  0.4510
 4349TIP3    H134538   3.096   5.665  11.516  1.6523  0.7935  0.0674
 4349TIP3    H234539   3.046   5.786  11.440  1.9965 -0.0707 -1.5772
 4350TIP3   OH234540   0.727   0.527   6.297 -0.0286 -0.1709  0.3918
 4350TIP3    H134541   0.706   0.482   6.379 -0.2388 -2.1325 -0.6823
 4350TIP3    H234542   0.725   0.458   6.231  0.3000  1.3351 -1.2525
 4351TIP3   OH234543   4.338   0.306  10.988 -0.0926 -0.2960  0.1272
 4351TIP3    H134544   4.353   0.233  11.048  1.5586 -0.1496 -0.0555
 4351TIP3    H234545   4.407   0.369  11.010 -1.7860  1.4804  0.6491
 4352TIP3   OH234546   6.344   5.490  14.574 -0.7306  0.1997 -0.5650
 4352TIP3    H134547   6.295   5.415  14.608 -0.0397 -0.2880 -0.6363
 4352TIP3    H234548   6.376   5.462  14.489  0.1778  0.2923 -0.2688
 4353TIP3   OH234549   2.871   3.726  17.015 -0.3768  0.1005  0.3969
 4353TIP3    H134550   2.906   3.661  16.955  1.0877  0.0348  1.2841
 4353TIP3    H234551   2.856   3.679  17.096  0.2548  0.7467  0.9029
 4354TIP3   OH234552   1.770   4.915   1.363  0.5205  0.3942  0.3978
 4354TIP3    H134553   1.849   4.914   1.417 -0.9057 -0.0962  2.6271
 4354TIP3    H234554   1.729   5.000   1.381  1.2013  1.2668 -1.8674
 4355TIP3   OH234555   5.203   0.427   4.511 -0.3510 -0.2763 -0.2141
 4355TIP3    H134556   5.277   0.395   4.459 -0.6545 -1.0699 -0.1572
 4355TIP3    H234557   5.139   0.455   4.445  0.4214  1.4696 -0.2817
 4356TIP3   OH234558   4.629   3.823   5.630 -0.6929 -0.2478  0.0077
 4356TIP3    H134559   4.600   3.740   5.669 -4.6703  0.1821 -1.4939
 4356TIP3    H234560   4.652   3.799   5.540  6.2184 -0.8539  1.4316
 4357TIP3   OH234561   5.367   2.788  16.192  0.0652  0.5191 -0.2685
 4357TIP3    H134562   5.422   2.790  16.270  0.8263 -1.3308 -0.7062
 4357TIP3    H234563   5.428   2.784  16.119 -0.6082 -1.5584 -0.7703
 4358TIP3   OH234564   3.990   2.186   6.918  0.0118 -0.8131 -0.2083
 4358TIP3    H134565   4.012   2.280   6.918  1.1874 -0.9646  2.9401
 4358TIP3    H234566   4.072   2.142   6.896 -0.2319 -1.1421 -0.4703
 4359TIP3   OH234567   2.329   6.755  11.933  0.4131 -0.4813  0.2456
 4359TIP3    H134568   2.282   6.672  11.942 -1.1298  0.3012 -0.0878
 4359TIP3    H234569   2.316   6.779  11.841 -1.3582  1.3030  0.8759
 4360TIP3   OH234570   3.867   2.781  14.688  0.3210  0.3262  0.5234
 4360TIP3    H134571   3.895   2.708  14.744  0.3408  0.3116  0.4946
 4360TIP3    H234572   3.936   2.847  14.699  0.7346  0.0032 -0.1003
 4361TIP3   OH234573   1.927   5.056  12.198 -0.7972  0.5809  0.3242
 4361TIP3    H134574   1.869   5.031  12.126 -1.2078  0.9470  0.5270
 4361TIP3    H234575   1.872   5.107  12.257 -0.0246  1.7572  0.0467
 4362TIP3   OH234576   4.828   0.293   0.934 -0.6570 -0.1915  0.1556
 4362TIP3    H134577   4.919   0.290   0.903 -1.1375 -1.0370 -1.2218
 4362TIP3    H234578   4.821   0.378   0.978  0.5082  0.3450 -0.6536
 4363TIP3   OH234579   1.379   2.782  10.835 -0.0191  0.5581 -0.2184
 4363TIP3    H134580   1.467   2.818  10.822  0.2561  1.0480  2.5047
 4363TIP3    H234581   1.321   2.854  10.811  0.3325  0.5322 -1.1895
 4364TIP3   OH234582   1.538   5.449  15.448  0.5212  0.0463 -0.3528
 4364TIP3    H134583   1.600   5.437  15.376  2.9262  0.8151  1.4366
 4364TIP3    H234584   1.573   5.395  15.518 -1.2886 -0.0444  0.5204
 4365TIP3   OH234585   4.406   3.068  14.083 -0.0974 -0.0710 -0.3596
 4365TIP3    H134586   4.424   3.052  13.991 -0.5239  0.1701 -0.4843
 4365TIP3    H234587   4.311   3.078  14.088  0.0641  1.6795 -0.1693
 4366TIP3   OH234588   3.521   5.093   3.970  0.3538 -0.1906 -0.0974
 4366TIP3    H134589   3.605   5.112   4.013  0.6334 -3.3542  0.9584
 4366TIP3    H234590   3.472   5.176   3.976  3.1616  1.6293 -0.3538
 4367TIP3   OH234591   6.413   4.740   6.214  0.1542 -0.8778 -0.3495
 4367TIP3    H134592   6.334   4.791   6.233  0.2596 -1.1327  0.8642
 4367TIP3    H234593   6.476   4.804   6.181  0.7480  0.0902  2.4259
 4368TIP3   OH234594   5.774   0.445  16.892 -0.2265 -0.0758 -0.2614
 4368TIP3    H134595   5.773   0.350  16.881  0.1252  0.0917 -2.0128
 4368TIP3    H234596   5.722   0.479  16.819 -1.0633  1.0608  0.8049
 4369TIP3   OH234597   2.168   1.004   6.447 -0.0301 -0.4048 -0.5487
 4369TIP3    H134598   2.092   0.946   6.447 -0.0319 -0.4209  0.4880
 4369TIP3    H234599   2.159   1.056   6.367 -0.4612 -1.2686 -1.0677
 4370TIP3   OH234600   4.329   1.620   5.705 -0.2622  0.0777 -0.7770
 4370TIP3    H134601   4.393   1.604   5.636 -0.5724  3.1064 -1.9249
 4370TIP3    H234602   4.338   1.714   5.725 -0.9765 -0.4218  2.5402
 4371TIP3   OH234603   2.985   5.308   3.473  0.2192 -0.0932 -0.7303
 4371TIP3    H134604   2.952   5.220   3.491  1.0900 -0.4801 -0.9621
 4371TIP3    H234605   3.080   5.299   3.480  0.6632 -0.0962 -4.6127
 4372TIP3   OH234606   0.509   2.508  14.690 -0.1011  0.0290  1.0147
 4372TIP3    H134607   0.419   2.495  14.719 -0.0822  0.7926  1.4437
 4372TIP3    H234608   0.522   2.442  14.622 -0.2411 -1.6330  2.5284
 4373TIP3   OH234609   1.308   5.511   5.556 -0.5136  0.5572  0.3540
 4373TIP3    H134610   1.267   5.596   5.573  0.1942  1.4379 -1.9801
 4373TIP3    H234611   1.374   5.502   5.626  0.2693  2.5392 -0.0508
 4374TIP3   OH234612   3.045   0.221   4.601 -0.2170  0.3028 -0.1150
 4374TIP3    H134613   2.995   0.268   4.667 -0.7495 -0.3802 -0.0180
 4374TIP3    H234614   3.081   0.146   4.647 -1.0880 -0.5115 -0.7135
 4375TIP3   OH234615   1.814   3.274  16.506  0.3050 -0.4286  0.1477
 4375TIP3    H134616   1.908   3.255  16.505  0.3202 -0.3744  0.4900
 4375TIP3    H234617   1.773   3.194  16.471  0.4803 -0.4277 -0.0635
 4376TIP3   OH234618   3.153   1.933   4.870  0.0537  0.0881  0.1864
 4376TIP3    H134619   3.136   1.891   4.954 -1.5678  2.2408  1.0297
 4376TIP3    H234620   3.096   2.010   4.870  0.8592  0.7773 -2.4156
 4377TIP3   OH234621   3.787   1.442  11.377 -0.5331  0.2405  0.3268
 4377TIP3    H134622   3.703   1.456  11.334  0.3557 -1.0229 -2.0143
 4377TIP3    H234623   3.765   1.421  11.468 -2.6512  0.9561  0.0176
 4378TIP3   OH234624   4.278   6.124  12.042  0.2559  0.0414 -0.0852
 4378TIP3    H134625   4.357   6.091  11.999  0.3438  0.5786 -0.3413
 4378TIP3    H234626   4.301   6.128  12.135  0.8395  1.0328 -0.2542
 4379TIP3   OH234627   4.487   2.603   4.941  0.1639  0.4784  0.5842
 4379TIP3    H134628   4.416   2.659   4.908 -0.1214 -0.2086 -0.0023
 4379TIP3    H234629   4.472   2.596   5.035  0.8361  2.2708  0.8575
 4380TIP3   OH234630   5.932   2.195   3.683 -0.0537 -0.0437  0.0770
 4380TIP3    H134631   5.978   2.131   3.627 -0.6498 -1.8142  1.5024
 4380TIP3    H234632   5.963   2.176   3.771 -1.4861  0.5346  0.7402
 4381TIP3   OH234633   3.468   1.359   1.550 -0.5303  0.1730 -0.0805
 4381TIP3    H134634   3.449   1.414   1.626 -1.3956 -0.1193 -0.0672
 4381TIP3    H234635   3.415   1.398   1.480 -0.2197  0.0670 -0.3730
 4382TIP3   OH234636   3.317   1.231  14.832 -0.1619 -0.0578 -0.6070
 4382TIP3    H134637   3.386   1.187  14.881 -0.8856  0.6568  1.1524
 4382TIP3    H234638   3.335   1.325  14.845 -1.5227  0.1344  0.0193
 4383TIP3   OH234639   0.950   2.185   1.680  0.3724  0.3016 -0.1689
 4383TIP3    H134640   0.977   2.142   1.599  0.6699  0.0126  0.0773
 4383TIP3    H234641   0.983   2.128   1.749 -1.3423 -0.3604  0.1568
 4384TIP3   OH234642   6.280   0.010   5.342  0.2620 -0.2113 -0.0728
 4384TIP3    H134643   6.296   0.058   5.423 -0.2425  0.7305 -0.5152
 4384TIP3    H234644   6.303  -0.080   5.362 -1.0038 -0.2233  1.4836
 4385TIP3   OH234645   6.066   5.331   3.072  0.0311 -0.3576 -0.4344
 4385TIP3    H134646   6.122   5.355   2.998 -2.1926  1.5508 -1.6148
 4385TIP3    H234647   6.016   5.255   3.041  0.8484 -1.1275  0.0774
 4386TIP3   OH234648   1.488   0.477   2.382 -1.0879  0.1574 -0.4930
 4386TIP3    H134649   1.545   0.400   2.380  0.6496  1.3727 -0.0055
 4386TIP3    H234650   1.400   0.441   2.373 -0.4891 -2.0506  1.3033
 4387TIP3   OH234651   1.369   5.305  10.541  0.1245 -0.2644 -0.2991
 4387TIP3    H134652   1.281   5.316  10.505  0.0488  0.5572  0.1189
 4387TIP3    H234653   1.356   5.295  10.636  0.4060 -1.2975 -0.3507
 4388TIP3   OH234654   6.737   3.378   1.107  0.7485 -0.1652 -0.2922
 4388TIP3    H134655   6.655   3.410   1.070  0.3349  0.9252  1.4263
 4388TIP3    H234656   6.805   3.414   1.050  0.1450  1.4502 -0.0482
 4389TIP3   OH234657   3.969   5.761  12.090 -0.4887  0.5198 -0.5786
 4389TIP3    H134658   4.058   5.727  12.078 -0.5932  0.5834 -1.6518
 4389TIP3    H234659   3.966   5.839  12.035 -1.2212  0.5059 -0.5655
 4390TIP3   OH234660   4.487   1.597   5.468  0.4110  0.1447  0.3323
 4390TIP3    H134661   4.513   1.510   5.436 -0.9059 -0.6316  1.2318
 4390TIP3    H234662   4.532   1.659   5.410  0.2877 -1.1444 -1.2160
 4391TIP3   OH234663   0.605   1.389   4.492 -0.0368  0.2542  0.4619
 4391TIP3    H134664   0.635   1.426   4.575  1.3199  0.7382 -0.2061
 4391TIP3    H234665   0.523   1.435   4.474  0.8280  1.8921  0.4231
 4392TIP3   OH234666   5.836   3.518   5.433  0.1972 -0.0576  0.4097
 4392TIP3    H134667   5.750   3.481   5.450  1.2156 -3.5816 -1.3001
 4392TIP3    H234668   5.893   3.481   5.501  0.5772  1.6310  1.0654
 4393TIP3   OH234669   5.181   6.685   2.692 -0.1285 -0.5191  0.6797
 4393TIP3    H134670   5.263   6.732   2.709 -0.3274  0.8221 -1.6929
 4393TIP3    H234671   5.126   6.705   2.767  1.8672 -2.0379  2.7087
 4394TIP3   OH234672   6.076   2.708   0.283 -0.0041 -0.0950  0.2486
 4394TIP3    H134673   6.125   2.790   0.273 -0.5963  0.3499  0.8401
 4394TIP3    H234674   6.143   2.641   0.293  0.4931  0.3282 -0.2018
 4395TIP3   OH234675   6.015   0.886  15.839 -0.1456  0.3447  0.2269
 4395TIP3    H134676   6.069   0.809  15.824  0.5346  0.8458  0.0537
 4395TIP3    H234677   6.064   0.939  15.902 -0.1234  1.1001 -0.4081
 4396TIP3   OH234678   5.056   2.496  17.322 -0.2529  0.6756 -0.1961
 4396TIP3    H134679   4.969   2.488  17.282 -0.8820 -0.0977  1.2233
 4396TIP3    H234680   5.043   2.557  17.394  0.5019  0.9261 -0.2727
 4397TIP3   OH234681   3.173   3.621   2.137  0.3743  0.0197  0.2187
 4397TIP3    H134682   3.252   3.569   2.124  0.1283  0.1640 -2.1293
 4397TIP3    H234683   3.196   3.709   2.106  0.1715  0.9018  2.3254
 4398TIP3   OH234684   3.722   5.435   2.214 -0.8158 -0.1020 -0.2215
 4398TIP3    H134685   3.671   5.501   2.262 -1.2025  0.2724 -1.1329
 4398TIP3    H234686   3.693   5.443   2.123 -1.8554 -2.4214 -0.1661
 4399TIP3   OH234687   6.429   2.550  10.471 -0.0633 -0.1026  0.4059
 4399TIP3    H134688   6.509   2.498  10.471 -0.4696 -0.7544 -0.1954
 4399TIP3    H234689   6.361   2.489  10.502 -0.1649  0.7243  1.8816
 4400TIP3   OH234690   0.169   3.003  11.575  0.5164  0.1515  0.1149
 4400TIP3    H134691   0.246   2.972  11.527 -1.2048  0.6086 -3.2400
 4400TIP3    H234692   0.096   2.956  11.536 -1.2775  2.2966  0.6931
 4401TIP3   OH234693   3.897   1.720   6.071 -0.2180 -0.7431  0.3367
 4401TIP3    H134694   3.888   1.697   5.979 -1.8602  1.5997 -0.1830
 4401TIP3    H234695   3.842   1.656   6.117 -3.0253  0.6284 -0.8341
 4402TIP3   OH234696   4.316   1.270  12.373  0.1320  0.1168 -0.0470
 4402TIP3    H134697   4.356   1.339  12.426  1.2101 -0.1657 -0.4769
 4402TIP3    H234698   4.377   1.197  12.380 -0.1079 -0.1856 -1.0593
 4403TIP3   OH234699   0.121   4.037   0.012 -0.5543 -0.4436  0.5717
 4403TIP3    H134700   0.213   4.047  -0.013 -0.2177 -3.7951  0.0244
 4403TIP3    H234701   0.078   4.114  -0.024  1.6236 -0.0526 -1.4125
 4404TIP3   OH234702   4.282   1.504   3.828 -0.0543  0.3020 -0.1384
 4404TIP3    H134703   4.244   1.560   3.761  0.4945  0.0721 -0.6455
 4404TIP3    H234704   4.311   1.564   3.897 -0.3363  0.5591 -0.2437
 4405TIP3   OH234705   1.050   2.429  13.730  0.5302 -0.0058  0.3980
 4405TIP3    H134706   1.030   2.439  13.637  1.1357  0.2629  0.2907
 4405TIP3    H234707   1.024   2.512  13.770  0.5201 -0.0215  0.4242
 4406TIP3   OH234708   3.822   5.836  12.445 -0.1449 -0.1060 -0.3369
 4406TIP3    H134709   3.750   5.775  12.463 -0.7249  1.1517  2.1880
 4406TIP3    H234710   3.901   5.782  12.451 -0.7709 -1.2225 -1.6208
 4407TIP3   OH234711   3.792   5.986   2.851  0.2553 -0.2572 -0.1985
 4407TIP3    H134712   3.846   6.065   2.840 -1.9700  1.3137 -0.4296
 4407TIP3    H234713   3.725   6.012   2.914 -1.3280 -1.5287 -1.3167
 4408TIP3   OH234714   3.660   1.700  16.852  0.0150 -0.1074 -1.0451
 4408TIP3    H134715   3.578   1.696  16.802 -0.3547 -1.1074 -0.3914
 4408TIP3    H234716   3.728   1.691  16.785 -0.4626 -1.0083 -1.4369
 4409TIP3   OH234717   6.277   3.951  16.854  0.0720  0.1737 -0.1043
 4409TIP3    H134718   6.292   3.858  16.870  1.3183  0.5113  0.8643
 4409TIP3    H234719   6.238   3.984  16.936 -0.2750  0.5154 -0.4048
 4410TIP3   OH234720   4.905   5.995  11.580  0.0372 -0.8582 -0.2918
 4410TIP3    H134721   4.856   5.937  11.522 -0.4317 -1.3850  0.6062
 4410TIP3    H234722   4.932   6.068  11.524  0.9990 -2.1301 -1.5501
 4411TIP3   OH234723   1.688   3.481   6.598  0.4408  0.5894 -0.3206
 4411TIP3    H134724   1.721   3.460   6.685 -1.7746  0.3013  0.5313
 4411TIP3    H234725   1.766   3.501   6.547  1.8260  0.6332  1.6764
 4412TIP3   OH234726   3.825   6.502   2.548  0.6512  0.4921  0.0825
 4412TIP3    H134727   3.910   6.534   2.517  0.7063  0.5594  0.2998
 4412TIP3    H234728   3.783   6.468   2.470  0.8756  0.4649 -0.0288
 4413TIP3   OH234729   3.864   1.999  15.202  0.4425  0.9473  0.2896
 4413TIP3    H134730   3.814   1.925  15.235  0.7706 -0.0514 -1.3391
 4413TIP3    H234731   3.809   2.075  15.219 -0.5495  0.1616  0.6751
 4414TIP3   OH234732   4.686   3.847   0.424 -0.3527 -0.4347 -0.3466
 4414TIP3    H134733   4.777   3.816   0.429 -0.5924 -1.1383 -0.1480
 4414TIP3    H234734   4.693   3.942   0.421  0.5020 -0.5040 -2.8804
 4415TIP3   OH234735   3.089   3.098  12.860  0.3250  0.3000  0.4791
 4415TIP3    H134736   2.995   3.080  12.854  0.7080 -2.1401  0.5310
 4415TIP3    H234737   3.117   3.112  12.770  0.2209 -1.1275  0.1960
 4416TIP3   OH234738   4.775   6.340  11.215  0.0303 -0.2642 -0.2339
 4416TIP3    H134739   4.840   6.344  11.285 -0.7138 -1.6809  0.5849
 4416TIP3    H234740   4.813   6.392  11.144  0.3059  2.1734  1.5739
 4417TIP3   OH234741   5.583   2.419   4.542 -0.0261  0.1364 -0.5118
 4417TIP3    H134742   5.649   2.417   4.611 -1.0545 -0.1200  0.4945
 4417TIP3    H234743   5.634   2.430   4.461  1.3690 -1.6769  0.0528
 4418TIP3   OH234744   1.557   4.036  15.839  0.1432 -0.3686  0.4861
 4418TIP3    H134745   1.509   3.986  15.773  0.4619 -1.0119  0.7342
 4418TIP3    H234746   1.529   3.999  15.923  1.1446 -0.8234  0.6297
 4419TIP3   OH234747   1.503   3.456   6.212 -0.0900 -0.8024  0.1922
 4419TIP3    H134748   1.584   3.408   6.223  1.3958  1.1811 -1.2494
 4419TIP3    H234749   1.494   3.467   6.117 -1.3521  0.1167  0.3839
 4420TIP3   OH234750   5.362   1.611   0.826  0.1592 -0.7866 -0.1918
 4420TIP3    H134751   5.336   1.527   0.864  2.4743 -1.4710 -0.0287
 4420TIP3    H234752   5.351   1.599   0.732 -1.2214 -0.6282 -0.0733
 4421TIP3   OH234753   5.853   4.017   6.576 -0.1788  0.0469 -0.0909
 4421TIP3    H134754   5.931   4.069   6.596 -0.2069  0.4860 -1.0846
 4421TIP3    H234755   5.780   4.079   6.583 -0.4068 -0.2753  0.4622
 4422TIP3   OH234756   3.891   4.078  13.754 -0.3165 -0.2277  0.6971
 4422TIP3    H134757   3.958   4.131  13.797 -0.4200  0.2831  0.2323
 4422TIP3    H234758   3.866   4.013  13.820  0.1998 -0.0461  1.0810
 4423TIP3   OH234759   2.251   3.553  14.623 -0.0442  0.7735  0.1181
 4423TIP3    H134760   2.293   3.635  14.650 -2.3378  1.6554  1.2781
 4423TIP3    H234761   2.164   3.580  14.594 -0.3124 -1.1146 -0.9302
 4424TIP3   OH234762   3.170   4.635   2.883  0.3218 -0.1075  0.3375
 4424TIP3    H134763   3.084   4.636   2.840 -0.4738 -1.9929  1.7131
 4424TIP3    H234764   3.228   4.595   2.819 -0.2577 -0.5378  0.0690
 4425TIP3   OH234765   0.281   0.728   1.677  0.2517  0.3015  0.2059
 4425TIP3    H134766   0.251   0.814   1.704  1.4905  0.9659 -0.4837
 4425TIP3    H234767   0.326   0.693   1.755 -2.4570 -0.8564  1.3769
 4426TIP3   OH234768   2.589   4.883   4.003  0.5370 -0.2661  0.0259
 4426TIP3    H134769   2.578   4.968   4.047  0.0902 -1.0251  1.4468
 4426TIP3    H234770   2.582   4.819   4.073  1.5699 -1.4644 -0.9288
 4427TIP3   OH234771   2.027   6.259   3.194 -0.2686 -0.1714  0.4407
 4427TIP3    H134772   2.103   6.200   3.188 -0.3131 -0.1786 -0.0794
 4427TIP3    H234773   2.062   6.345   3.168  0.4372  0.6570  3.5879
 4428TIP3   OH234774   3.457   5.581   0.255 -0.1596 -0.1610  0.2388
 4428TIP3    H134775   3.475   5.489   0.238 -0.9375 -0.1959 -0.4344
 4428TIP3    H234776   3.543   5.619   0.274  0.0544 -1.2062  1.4888
 4429TIP3   OH234777   3.815   5.401   1.221 -0.0479  0.1612 -0.5842
 4429TIP3    H134778   3.862   5.334   1.171 -0.7307  0.8160 -2.1673
 4429TIP3    H234779   3.774   5.457   1.154  0.3426  2.0569  0.6629
 4430TIP3   OH234780   6.641   5.820  13.759 -0.2084 -0.1801  0.1542
 4430TIP3    H134781   6.624   5.803  13.666  0.1186  0.8989 -0.1238
 4430TIP3    H234782   6.681   5.740  13.791  0.5965 -0.2157 -0.8855
 4431TIP3   OH234783   6.312   6.299   5.121 -0.1854  0.2597 -0.0084
 4431TIP3    H134784   6.320   6.252   5.038 -0.1642 -1.9685  1.1920
 4431TIP3    H234785   6.402   6.307   5.153 -0.1314  1.6687 -0.4628
 4432TIP3   OH234786   0.912   6.128  14.896 -0.1731  0.0122 -0.2461
 4432TIP3    H134787   0.980   6.060  14.902  0.0646  0.3297  0.8338
 4432TIP3    H234788   0.959   6.210  14.912 -0.8199  0.2265  0.5956
 4433TIP3   OH234789   2.166   3.264   5.960  0.1737  0.1465  0.1707
 4433TIP3    H134790   2.230   3.213   5.911 -1.4537  0.4297 -2.4299
 4433TIP3    H234791   2.089   3.266   5.904 -1.5725  1.1924  2.4482
 4434TIP3   OH234792   1.461   0.541  15.950  0.3034 -0.1784 -0.2194
 4434TIP3    H134793   1.397   0.548  16.021  1.0691 -0.9238  0.5616
 4434TIP3    H234794   1.475   0.447  15.939  2.0350 -0.0177  0.3298
 4435TIP3   OH234795   5.505   3.610   0.435  0.1276 -0.4451 -0.4032
 4435TIP3    H134796   5.556   3.530   0.452 -0.0726 -0.6216 -0.6186
 4435TIP3    H234797   5.494   3.611   0.340 -1.2367 -1.0161 -0.2640
 4436TIP3   OH234798   2.546   4.131  16.406 -0.3951  0.0978 -0.5143
 4436TIP3    H134799   2.541   4.080  16.326 -0.6715  1.4023 -1.3580
 4436TIP3    H234800   2.535   4.222  16.378  0.2777  0.6584  0.9079
 4437TIP3   OH234801   0.471   1.824  15.863 -0.1045 -0.0786 -0.2439
 4437TIP3    H134802   0.552   1.775  15.850 -0.6006 -0.9720 -0.0661
 4437TIP3    H234803   0.430   1.826  15.776  1.1519  2.3377 -0.8503
 4438TIP3   OH234804   2.302   0.382   5.101 -0.0122 -0.1349 -0.1058
 4438TIP3    H134805   2.207   0.372   5.096 -0.0822  0.6172 -0.5585
 4438TIP3    H234806   2.318   0.466   5.058  0.8883 -0.4117 -0.3217
 4439TIP3   OH234807   5.182   3.951   3.814 -0.0587  0.3945  0.3922
 4439TIP3    H134808   5.245   3.880   3.803 -1.2573 -0.5746 -0.4224
 4439TIP3    H234809   5.097   3.908   3.816 -0.8565  1.8284 -0.6787
 4440TIP3   OH234810   0.116   2.633  14.909 -0.1240 -0.2015  0.3768
 4440TIP3    H134811   0.154   2.590  14.985  2.8435  2.1741  0.4106
 4440TIP3    H234812   0.171   2.607  14.835 -0.5873  0.5335 -0.2513
 4441TIP3   OH234813   6.212   1.757   5.330  0.5084 -0.1429 -0.4074
 4441TIP3    H134814   6.155   1.735   5.256 -0.2847 -1.4651  0.5513
 4441TIP3    H234815   6.301   1.744   5.296  0.1413 -1.3455 -0.9676
 4442TIP3   OH234816   6.035   0.560  15.463 -0.1363  0.1759 -0.2164
 4442TIP3    H134817   6.017   0.543  15.555  1.9256 -1.7064 -0.0896
 4442TIP3    H234818   6.091   0.637  15.462 -1.8150  1.4640 -0.1116
 4443TIP3   OH234819   6.171   4.350   3.795  0.1432  0.5095 -0.0345
 4443TIP3    H134820   6.266   4.340   3.802  0.5247  3.1032 -0.4828
 4443TIP3    H234821   6.154   4.439   3.825 -2.5037 -0.6949  2.4669
 4444TIP3   OH234822   4.236   1.532   0.981  0.6788 -0.0914 -0.2453
 4444TIP3    H134823   4.242   1.579   1.064  3.4729 -0.5182 -0.1342
 4444TIP3    H234824   4.301   1.572   0.924  2.2526 -2.8674 -0.5848
 4445TIP3   OH234825   0.204   0.924  16.280 -0.6205 -0.3945  0.4400
 4445TIP3    H134826   0.163   0.943  16.364 -1.5462  1.3843 -0.3639
 4445TIP3    H234827   0.138   0.874  16.232 -0.6318 -0.2184  0.2707
 4446TIP3   OH234828   2.355   5.782  16.413  0.5360 -0.6181 -1.1359
 4446TIP3    H134829   2.280   5.729  16.440  0.7034  0.4750  1.8762
 4446TIP3    H234830   2.317   5.868  16.393  0.8746 -0.2508 -0.2519
 4447TIP3   OH234831   1.130   6.774  16.608  0.7062 -0.0635  0.4346
 4447TIP3    H134832   1.191   6.844  16.587  2.6202 -1.6956  0.2799
 4447TIP3    H234833   1.044   6.814  16.598  1.7107  2.4059  0.9415
 4448TIP3   OH234834   4.662   4.325  17.387 -0.0148 -0.5945 -0.3111
 4448TIP3    H134835   4.752   4.323  17.356  0.1943  0.8005  0.1192
 4448TIP3    H234836   4.658   4.403  17.443 -0.8132 -2.0370  1.7582
 4449TIP3   OH234837   4.799   2.061   1.958  0.4108  0.3582 -0.2589
 4449TIP3    H134838   4.721   2.111   1.935 -1.2156 -0.8163  2.2861
 4449TIP3    H234839   4.835   2.032   1.875 -1.5661  1.3588 -1.5351
 4450TIP3   OH234840   2.899   6.261  12.663  0.1257 -0.2010  0.0294
 4450TIP3    H134841   2.813   6.233  12.696  0.8549 -0.8249  1.4652
 4450TIP3    H234842   2.953   6.182  12.665  0.2827 -0.2715 -2.6179
 4451TIP3   OH234843   6.511   1.646  14.357 -0.2054 -0.2040  0.6141
 4451TIP3    H134844   6.439   1.583  14.345  1.6825 -2.3886 -0.0177
 4451TIP3    H234845   6.538   1.668  14.268 -1.3658  2.2679  0.8060
 4452TIP3   OH234846   1.334   1.962   5.446 -0.1728 -0.3195 -0.0525
 4452TIP3    H134847   1.251   1.976   5.491  0.8301  0.3327  1.6840
 4452TIP3    H234848   1.330   2.020   5.369 -0.7119  0.8578  0.8391
 4453TIP3   OH234849   3.360   1.954   1.035  0.4545 -0.0715 -0.3218
 4453TIP3    H134850   3.349   1.907   0.952  2.1685  0.4814 -0.9082
 4453TIP3    H234851   3.348   2.046   1.012  2.3540  0.2276 -0.3093
 4454TIP3   OH234852   4.743   2.993   1.102  0.1526 -0.3705  0.0387
 4454TIP3    H134853   4.816   3.054   1.111 -0.3559  0.4801 -1.3277
 4454TIP3    H234854   4.721   2.996   1.009 -2.0554 -0.0938  0.5344
 4455TIP3   OH234855   2.353   0.566   1.204 -0.5937  0.2887  0.7502
 4455TIP3    H134856   2.305   0.648   1.223  0.7481  0.6617  2.8666
 4455TIP3    H234857   2.419   0.591   1.140 -0.6896  0.6714  0.7978
 4456TIP3   OH234858   6.748   3.021   3.303  0.2307 -0.2180  0.1885
 4456TIP3    H134859   6.775   3.092   3.245 -0.2776  0.4484  0.7410
 4456TIP3    H234860   6.652   3.020   3.296  0.2481 -1.0467 -0.0300
 4457TIP3   OH234861   0.360   0.013  16.991  0.0093  0.1406  0.0943
 4457TIP3    H134862   0.434   0.004  17.052 -1.6928  0.1777  2.2689
 4457TIP3    H234863   0.378  -0.052  16.923  0.7066 -1.8264  2.0431
 4458TIP3   OH234864   5.111   1.046  11.690 -0.1843  0.5593  0.1829
 4458TIP3    H134865   5.112   1.105  11.766  0.4517 -0.4912  1.0144
 4458TIP3    H234866   5.020   1.016  11.684  0.1426 -0.8951  1.7898
 4459TIP3   OH234867   1.179   6.599   0.695 -0.5636  0.4253  0.1606
 4459TIP3    H134868   1.184   6.693   0.709 -0.8640  0.2035  2.0315
 4459TIP3    H234869   1.270   6.571   0.682 -0.1248  0.6059  2.5307
 4460TIP3   OH234870   4.881   6.461   3.117  0.0564 -0.7890  0.5800
 4460TIP3    H134871   4.951   6.467   3.183  0.7254 -1.2083 -0.0697
 4460TIP3    H234872   4.928   6.451   3.034 -0.6667  2.2510 -0.3273
 4461TIP3   OH234873   2.476   3.575  14.801  0.0024 -0.3453 -0.2599
 4461TIP3    H134874   2.477   3.652  14.744  0.3044 -0.5230 -0.4969
 4461TIP3    H234875   2.492   3.502  14.742 -0.7218 -0.6360 -0.1061
 4462TIP3   OH234876   2.447   1.757  16.663  0.6404  0.0017 -0.2330
 4462TIP3    H134877   2.431   1.851  16.666 -0.4809 -0.2039  1.0113
 4462TIP3    H234878   2.393   1.726  16.590 -1.5744 -0.0886  1.3531
 4463TIP3   OH234879   6.391   1.495   1.905 -0.1960  0.2477 -0.3996
 4463TIP3    H134880   6.333   1.446   1.964  0.1894  2.8524  2.4351
 4463TIP3    H234881   6.476   1.452   1.916 -0.4080 -0.1172 -0.1220
 4464TIP3   OH234882   1.111   1.156   0.447  0.4251 -0.0100  0.6061
 4464TIP3    H134883   1.019   1.144   0.424  0.3451  1.6750 -0.1465
 4464TIP3    H234884   1.122   1.107   0.528 -1.1351 -0.2844  0.6862
 4465TIP3   OH234885   2.439   3.463   4.545 -0.1388  0.2079  0.3619
 4465TIP3    H134886   2.386   3.384   4.533  1.1768 -0.6191 -0.2451
 4465TIP3    H234887   2.383   3.534   4.514 -0.9045 -0.6193 -0.2122
 4466TIP3   OH234888   0.109   0.712  16.547 -0.1855  0.5057 -0.1363
 4466TIP3    H134889   0.091   0.804  16.525  0.2451  0.7210  0.4011
 4466TIP3    H234890   0.056   0.662  16.484  0.6390  1.1088 -1.3616
 4467TIP3   OH234891   4.408   3.557  11.085 -0.8227  0.0869 -0.6384
 4467TIP3    H134892   4.358   3.633  11.113 -0.2485  0.5770 -0.9202
 4467TIP3    H234893   4.492   3.593  11.055 -0.3746 -0.6956 -0.3575
 4468TIP3   OH234894   1.102   2.294   5.463 -0.2087 -0.2950  0.2708
 4468TIP3    H134895   1.039   2.308   5.394  0.4078 -0.7214 -0.3951
 4468TIP3    H234896   1.187   2.295   5.419  0.1404 -1.4163  0.8629
 4469TIP3   OH234897   3.604   4.662   2.703 -0.0968  0.1861  0.4351
 4469TIP3    H134898   3.551   4.707   2.768  2.8639  0.7777  2.6629
 4469TIP3    H234899   3.598   4.716   2.624 -2.9594  0.0022  0.4159
 4470TIP3   OH234900   3.259   3.327  11.828  0.0002 -0.4760  0.1203
 4470TIP3    H134901   3.317   3.250  11.832  2.6618  1.3714 -0.0898
 4470TIP3    H234902   3.173   3.291  11.809  1.2517 -3.3797 -0.6358
 4471TIP3   OH234903   6.049   3.876  12.119  0.2013  0.0352 -0.0287
 4471TIP3    H134904   5.988   3.949  12.123 -0.8308 -0.8274  1.4239
 4471TIP3    H234905   6.029   3.832  12.036 -0.3236  0.4665 -0.1358
 4472TIP3   OH234906   5.411   1.483  16.172 -0.4998 -0.4479 -0.0156
 4472TIP3    H134907   5.331   1.470  16.121 -0.8139  0.8337  0.1325
 4472TIP3    H234908   5.381   1.484  16.263 -0.6441  2.0435 -0.0333
 4473TIP3   OH234909   1.652   4.229   4.441 -0.2502  0.8028 -0.3439
 4473TIP3    H134910   1.676   4.140   4.468 -0.8669  0.3531 -1.2166
 4473TIP3    H234911   1.566   4.219   4.399  0.4159  1.5220 -1.9779
 4474TIP3   OH234912   0.323   6.474   4.541  0.1154  0.2579  0.0643
 4474TIP3    H134913   0.279   6.448   4.460  0.3619  0.8970 -0.2823
 4474TIP3    H234914   0.269   6.545   4.576  0.1619  0.1702  0.3173
 4475TIP3   OH234915   2.763   4.762   3.471 -0.0788 -0.5779 -1.0074
 4475TIP3    H134916   2.797   4.764   3.561  1.8253  0.1755 -1.6820
 4475TIP3    H234917   2.797   4.680   3.435  1.2841  0.2636 -1.7433
 4476TIP3   OH234918   3.830   3.451   3.145  0.6072 -0.9379  0.3290
 4476TIP3    H134919   3.840   3.384   3.078 -0.2469  0.2593 -1.0522
 4476TIP3    H234920   3.916   3.454   3.189  0.8233 -2.5236  0.0876
 4477TIP3   OH234921   1.452   6.607  14.508 -0.1974  0.4974  0.3774
 4477TIP3    H134922   1.511   6.541  14.470  0.8839  1.7373 -0.1791
 4477TIP3    H234923   1.386   6.556  14.555 -1.0086 -1.1415 -2.2652
 4478TIP3   OH234924   5.401   5.134   4.692 -0.0830 -0.2840 -0.4501
 4478TIP3    H134925   5.343   5.204   4.722  0.3267 -0.8202  1.7560
 4478TIP3    H234926   5.487   5.176   4.684  0.4244 -0.7294  2.0578
 4479TIP3   OH234927   6.318   2.805  14.138 -0.3600 -0.1213  0.6386
 4479TIP3    H134928   6.312   2.900  14.127  0.7587 -0.0053  0.9180
 4479TIP3    H234929   6.239   2.781  14.187 -2.9950  0.0032 -3.1616
 4480TIP3   OH234930   3.789   0.172  17.306 -0.3266 -0.4978  0.2087
 4480TIP3    H134931   3.732   0.095  17.308 -2.5045  0.9697 -0.8402
 4480TIP3    H234932   3.835   0.165  17.222 -0.1482 -0.8843  0.3352
 4481TIP3   OH234933   4.316   4.482  14.243 -0.2003  0.1560  0.4017
 4481TIP3    H134934   4.235   4.439  14.273  0.8189 -1.4152  1.0667
 4481TIP3    H234935   4.356   4.515  14.323  0.9073 -1.1064  0.4013
 4482TIP3   OH234936   1.001   1.171   3.565  0.1056 -0.0657  0.4845
 4482TIP3    H134937   0.966   1.160   3.477 -0.1473 -0.8755  0.6814
 4482TIP3    H234938   0.993   1.085   3.606  0.8925  0.1194  1.0600
 4483TIP3   OH234939   0.268   2.280   4.456  0.4152 -0.6865 -0.6389
 4483TIP3    H134940   0.357   2.292   4.488 -0.2244  0.4067  0.8474
 4483TIP3    H234941   0.260   2.186   4.443  1.8268 -0.7851 -0.9708
 4484TIP3   OH234942   5.100   1.878  14.197 -0.7676  0.3193 -0.0662
 4484TIP3    H134943   5.190   1.866  14.226 -0.9274 -1.0043 -0.0613
 4484TIP3    H234944   5.086   1.973  14.201  0.8699  0.6384 -0.8265
 4485TIP3   OH234945   4.823   2.079   4.902  0.4183 -0.3559  0.3108
 4485TIP3    H134946   4.743   2.076   4.849  0.1988 -2.9940  0.6537
 4485TIP3    H234947   4.871   2.155   4.869 -1.2467  0.0290 -1.3792
 4486TIP3   OH234948   3.779   1.347  13.518  0.1399 -0.1369  0.4159
 4486TIP3    H134949   3.756   1.351  13.425  1.2318  2.0948  0.1703
 4486TIP3    H234950   3.714   1.289  13.557 -0.7576 -0.5600 -1.6175
 4487TIP3   OH234951   4.828   4.769  14.871  0.1869 -0.5525 -0.2067
 4487TIP3    H134952   4.878   4.699  14.828 -0.1398 -1.7130  1.2222
 4487TIP3    H234953   4.895   4.829  14.904  0.5171 -0.6589 -0.6643
 4488TIP3   OH234954   0.780   2.755  15.742 -0.6260 -0.2745  0.2984
 4488TIP3    H134955   0.728   2.811  15.799  0.8776 -1.0602  2.5597
 4488TIP3    H234956   0.864   2.745  15.787  0.5621 -1.1923 -1.9289
 4489TIP3   OH234957   6.594   2.399   3.908  0.3267 -0.6548  0.0927
 4489TIP3    H134958   6.554   2.447   3.835 -0.0868 -1.1532 -0.0123
 4489TIP3    H234959   6.571   2.450   3.986  0.8710 -0.0536 -0.1296
 4490TIP3   OH234960   2.955   1.186  17.297  0.3506 -0.0817  0.3015
 4490TIP3    H134961   3.024   1.133  17.257  0.3739  0.8533 -0.9682
 4490TIP3    H234962   2.956   1.268  17.247 -1.8297 -0.1237  0.1087
 4491TIP3   OH234963   1.360   4.098  11.514 -0.3578 -0.3570  0.0904
 4491TIP3    H134964   1.307   4.109  11.593 -0.7230 -1.0562 -0.0389
 4491TIP3    H234965   1.302   4.050  11.454  0.3835 -1.0537 -0.0917
 4492TIP3   OH234966   0.901   1.403   6.132  0.3762 -0.2466  0.3689
 4492TIP3    H134967   0.833   1.469   6.147  0.7134  0.2361 -0.1800
 4492TIP3    H234968   0.913   1.362   6.218 -0.2837 -0.0304  0.5771
 4493TIP3   OH234969   3.355   3.797  11.203  0.0386  0.6866  0.3196
 4493TIP3    H134970   3.392   3.712  11.180  1.5669  1.0582  1.2142
 4493TIP3    H234971   3.267   3.796  11.167  0.3905 -0.8671 -0.5880
 4494TIP3   OH234972   4.108   6.080   0.491 -0.0170  0.7149  0.0186
 4494TIP3    H134973   4.140   6.151   0.546  0.8641  1.4222 -1.3542
 4494TIP3    H234974   4.016   6.102   0.474 -0.2407  0.5941  1.0030
 4495TIP3   OH234975   2.324   4.500  14.975 -0.1171  0.4589 -0.2354
 4495TIP3    H134976   2.262   4.431  14.954 -0.2416  0.4550  0.1305
 4495TIP3    H234977   2.409   4.466  14.947 -0.1576  0.0968  0.0729
 4496TIP3   OH234978   0.270   5.172  11.189 -0.1064 -0.2590  0.2893
 4496TIP3    H134979   0.275   5.206  11.100 -1.5264 -0.1813  0.2171
 4496TIP3    H234980   0.346   5.211  11.234 -0.2161  0.8942 -0.4851
 4497TIP3   OH234981   0.203   5.910  15.489  0.5050 -0.1249  0.1298
 4497TIP3    H134982   0.140   5.982  15.492 -0.3834 -0.7448 -2.0135
 4497TIP3    H234983   0.151   5.831  15.498  0.8083 -0.6732 -2.1561
 4498TIP3   OH234984   2.102   3.215  17.260  0.4396 -0.4277 -0.4912
 4498TIP3    H134985   2.114   3.177  17.347 -1.7957 -0.4069 -0.1126
 4498TIP3    H234986   2.179   3.186  17.210  2.1464  0.1311  1.6351
 4499TIP3   OH234987   5.615   1.620  16.061  0.4244  0.0426 -0.2896
 4499TIP3    H134988   5.544   1.567  16.096  1.2056 -0.9376 -0.1288
 4499TIP3    H234989   5.608   1.704  16.106 -0.4330 -0.1532 -0.0548
 4500TIP3   OH234990   1.762   1.563  11.818 -0.1518 -0.0365 -0.1460
 4500TIP3    H134991   1.821   1.617  11.870  0.1719  0.6167 -1.1864
 4500TIP3    H234992   1.760   1.479  11.865  1.5532 -0.0610 -0.0666
 4501TIP3   OH234993   0.516   6.699  14.115 -0.4799 -0.2236  0.5504
 4501TIP3    H134994   0.484   6.714  14.204  1.6662  0.2802  1.3027
 4501TIP3    H234995   0.608   6.727  14.117 -0.2207 -0.6802 -1.6972
 4502TIP3   OH234996   1.642   6.191   1.915 -0.0383  0.6374  0.4178
 4502TIP3    H134997   1.547   6.201   1.923  0.1418  1.7371  1.5795
 4502TIP3    H234998   1.671   6.165   2.003  0.6641 -0.4961 -0.1240
 4503TIP3   OH234999   6.549   2.363  13.436  0.1618 -0.0502 -0.1035
 4503TIP3    H135000   6.522   2.272  13.425 -1.9888  0.0928  2.9172
 4503TIP3    H235001   6.508   2.409  13.362  0.7754 -1.3798 -1.3212
 4504TIP3   OH235002   6.445   1.799   5.749 -0.3108 -0.4450 -0.4944
 4504TIP3    H135003   6.423   1.820   5.840 -0.8800 -1.2836 -0.4360
 4504TIP3    H235004   6.488   1.714   5.753  1.9104  0.5976 -0.7466
 4505TIP3   OH235005   3.309   6.689  13.635  0.6964  0.0397  0.0647
 4505TIP3    H135006   3.399   6.659  13.627  0.5066 -0.8787  1.1592
 4505TIP3    H235007   3.258   6.630  13.580  0.5839 -0.3858  0.6157
 4506TIP3   OH235008   1.265   2.921  15.195  0.7661  0.0599  0.7032
 4506TIP3    H135009   1.293   2.991  15.253 -0.9952  1.9742 -0.5957
 4506TIP3    H235010   1.183   2.890  15.232 -1.1888  2.3317 -1.3323
 4507TIP3   OH235011   3.813   1.666   0.378  0.1541  0.3427  0.3192
 4507TIP3    H135012   3.740   1.705   0.424  0.4823 -0.1464  1.2891
 4507TIP3    H235013   3.785   1.576   0.359 -0.6322  1.0075 -1.9715
 4508TIP3   OH235014   1.672   5.165  13.124  0.4205  0.1391  0.3893
 4508TIP3    H135015   1.581   5.183  13.103  0.4255 -1.5439 -1.3752
 4508TIP3    H235016   1.670   5.126  13.212 -0.8188 -1.6943 -0.4045
 4509TIP3   OH235017   2.255   4.641   4.775  0.0562 -0.4195 -0.6234
 4509TIP3    H135018   2.169   4.681   4.787  0.7160  1.1822 -1.0036
 4509TIP3    H235019   2.303   4.661   4.855  1.1417  1.6348 -1.6886
 4510TIP3   OH235020   6.244   2.012   3.944  0.0299  0.3519  0.3800
 4510TIP3    H135021   6.241   1.955   4.021  0.5238 -0.0740  0.0939
 4510TIP3    H235022   6.329   2.056   3.950  0.4900 -0.3913 -0.4058
 4511TIP3   OH235023   5.331   2.850  16.974 -0.3570  0.1978 -0.0909
 4511TIP3    H135024   5.416   2.826  17.011 -1.6050 -2.1527  1.5211
 4511TIP3    H235025   5.269   2.832  17.044 -2.1765  2.4802 -0.9944
 4512TIP3   OH235026   4.354   1.124   0.426 -0.4032 -0.0178 -0.2915
 4512TIP3    H135027   4.332   1.093   0.514  0.0441  2.9375  0.9677
 4512TIP3    H235028   4.372   1.044   0.376  0.5231 -1.7376  2.6076
 4513TIP3   OH235029   3.707   4.295   2.874  0.3431  0.2531  0.0326
 4513TIP3    H135030   3.787   4.243   2.875 -0.2994 -0.7509  0.2471
 4513TIP3    H235031   3.660   4.269   2.953  0.1653  1.4268  0.3395
 4514TIP3   OH235032   4.077   3.608  11.663 -0.4303  0.0227  0.6515
 4514TIP3    H135033   4.074   3.655  11.747  2.9029  0.7134  0.4847
 4514TIP3    H235034   4.134   3.532  11.680  0.0434  0.0061 -0.9091
 4515TIP3   OH235035   1.593   4.166   0.213  0.2723 -0.0689  0.2902
 4515TIP3    H135036   1.549   4.225   0.275 -1.3919  1.0686 -1.8414
 4515TIP3    H235037   1.686   4.188   0.220 -0.0754  1.2620  1.0961
 4516TIP3   OH235038   2.004   1.749  17.414 -0.3768 -0.6395  0.7663
 4516TIP3    H135039   2.060   1.687  17.368 -1.8043 -1.8713  0.5942
 4516TIP3    H235040   2.057   1.780  17.488  1.4896  0.4053 -0.9057
 4517TIP3   OH235041   4.882   0.182  17.322  0.7949 -0.2386 -0.7994
 4517TIP3    H135042   4.898   0.122  17.249  1.2252  0.6577 -1.4646
 4517TIP3    H235043   4.835   0.255  17.283  1.6416  0.5741 -0.3262
 4518TIP3   OH235044   1.928   4.664  12.634  0.3663 -0.2879 -0.0536
 4518TIP3    H135045   1.974   4.744  12.606 -0.4566 -0.2008 -1.2271
 4518TIP3    H235046   1.898   4.624  12.552  0.4657 -1.6326  0.5418
 4519TIP3   OH235047   4.602   5.107   5.318  0.2066  0.1678 -0.3501
 4519TIP3    H135048   4.632   5.032   5.369  1.6305  1.2772  0.5483
 4519TIP3    H235049   4.644   5.096   5.232 -1.8171 -1.4544 -1.2170
 4520TIP3   OH235050   0.186   6.409  14.251  0.2574 -0.3746  0.1569
 4520TIP3    H135051   0.141   6.432  14.170  0.1517 -0.7947  0.0955
 4520TIP3    H235052   0.195   6.492  14.298  3.1413  0.4643 -1.6549
 4521TIP3   OH235053   4.648   1.556   0.435  0.1131 -0.0837 -0.1890
 4521TIP3    H135054   4.579   1.491   0.451  0.5064 -0.1405  1.4269
 4521TIP3    H235055   4.727   1.514   0.467  1.4399 -0.9538 -4.0409
 4522TIP3   OH235056   4.858   5.816   0.123 -0.2566  0.4831 -0.2379
 4522TIP3    H135057   4.923   5.861   0.176  0.5824  0.0437 -0.8649
 4522TIP3    H235058   4.896   5.730   0.106 -0.4159  0.6700 -1.6898
 4523TIP3   OH235059   4.800   1.856   0.275 -0.4653  0.3634 -0.5331
 4523TIP3    H135060   4.743   1.796   0.225  0.6146  0.6851 -2.2139
 4523TIP3    H235061   4.794   1.824   0.365 -1.3672 -1.1371 -1.0804
 4524TIP3   OH235062   0.586   2.891  16.947 -0.2077 -0.1291 -0.3148
 4524TIP3    H135063   0.508   2.886  17.003  1.7293 -1.8806  2.5052
 4524TIP3    H235064   0.593   2.803  16.909  0.2757  0.0825 -0.7105
 4525TIP3   OH235065   4.363   2.946  10.488 -0.8628 -0.3624  0.6836
 4525TIP3    H135066   4.292   3.007  10.470 -1.5874 -0.8680  1.7166
 4525TIP3    H235067   4.333   2.895  10.563  0.5415 -0.6720  1.0739
 4526TIP3   OH235068   0.019   0.704   2.356  0.0103 -0.1432  0.1808
 4526TIP3    H135069   0.022   0.614   2.388 -4.7274 -1.5549 -2.3484
 4526TIP3    H235070   0.050   0.699   2.265 -1.9058  0.3318 -0.5430
 4527TIP3   OH235071   4.852   0.707   4.820 -0.3018  0.0642  0.6067
 4527TIP3    H135072   4.814   0.636   4.871 -0.8570 -0.1011 -0.0235
 4527TIP3    H235073   4.866   0.670   4.733  1.4622  0.0752  0.8386
 4528TIP3   OH235074   3.890   6.278  12.439  0.4292  0.1180 -0.5025
 4528TIP3    H135075   3.884   6.312  12.349  2.0214 -2.0726 -1.5553
 4528TIP3    H235076   3.983   6.257  12.450 -0.2628 -3.0766  0.2304
 4529TIP3   OH235077   2.957   6.403  14.394 -0.7883  0.0348 -0.0044
 4529TIP3    H135078   2.996   6.321  14.362 -2.5631 -0.8446 -0.0001
 4529TIP3    H235079   3.011   6.472  14.355  2.4393 -1.0571  2.0915
 4530TIP3   OH235080   4.075   0.926   0.348  0.2647 -0.1986  0.0913
 4530TIP3    H135081   4.140   0.857   0.335 -0.9652 -1.4905  0.5295
 4530TIP3    H235082   4.058   0.961   0.261 -0.0930 -1.4002 -0.3356
 4531TIP3   OH235083   5.063   6.319   2.628 -0.1370  0.1228  0.1052
 4531TIP3    H135084   5.156   6.343   2.628 -0.2911  0.7636  0.6054
 4531TIP3    H235085   5.035   6.334   2.537  0.1891  0.1578  0.0071
 4532TIP3   OH235086   1.425   4.047  14.979 -0.4184  0.1238  0.6590
 4532TIP3    H135087   1.428   4.142  14.989 -0.3184  0.1559  0.3146
 4532TIP3    H235088   1.393   4.033  14.890 -1.1242 -0.1691  0.9493
 4533TIP3   OH235089   2.500   4.639  13.003  0.2790  0.3033 -0.7021
 4533TIP3    H135090   2.496   4.647  13.099  0.7168  0.8958 -0.7317
 4533TIP3    H235091   2.414   4.670  12.973  0.2922  0.5175 -0.5245
 4534TIP3   OH235092   0.915   1.712  14.100 -0.5014  0.0951  0.5828
 4534TIP3    H135093   0.866   1.794  14.107 -0.1179  0.3591  0.1960
 4534TIP3    H235094   1.006   1.737  14.112 -0.0429  0.1961 -2.4590
 4535TIP3   OH235095   6.331   2.977  11.465 -0.0746 -0.1542 -1.0130
 4535TIP3    H135096   6.403   2.947  11.521 -1.4584 -0.5116  0.6752
 4535TIP3    H235097   6.333   3.072  11.471 -0.5714 -0.2062  0.1640
 4536TIP3   OH235098   0.695   2.605  10.619  0.5679  0.4083 -0.7327
 4536TIP3    H135099   0.680   2.617  10.713  0.4514  1.4555 -0.8681
 4536TIP3    H235100   0.723   2.514  10.610 -0.9475 -0.1635  0.1195
 4537TIP3   OH235101   5.242   5.473   0.545 -0.5434  0.1445 -0.0400
 4537TIP3    H135102   5.336   5.464   0.562 -0.0043 -0.4891 -2.8334
 4537TIP3    H235103   5.229   5.567   0.532 -0.6801  0.4439  1.9228
 4538TIP3   OH235104   4.063   2.780   6.209  0.2668 -0.2682 -0.6312
 4538TIP3    H135105   4.091   2.716   6.144 -0.2082 -0.9925 -0.1447
 4538TIP3    H235106   3.969   2.768   6.215  0.4258 -0.9764  0.9473
 4539TIP3   OH235107   1.867   2.272   2.346  0.5954 -0.2524  0.2144
 4539TIP3    H135108   1.820   2.188   2.347 -0.4749  0.3321  0.9466
 4539TIP3    H235109   1.798   2.338   2.347  1.1704  0.8263 -4.7582
 4540TIP3   OH235110   1.633   6.192   4.411  0.4329  0.7187  0.0258
 4540TIP3    H135111   1.571   6.261   4.436  1.0777  0.9307  1.1083
 4540TIP3    H235112   1.681   6.228   4.336 -0.0609  0.9496 -0.1848
 4541TIP3   OH235113   6.108   5.001  15.639 -0.9544  0.7695  0.1245
 4541TIP3    H135114   6.076   5.042  15.559 -0.9259  0.4609 -0.0476
 4541TIP3    H235115   6.096   4.907  15.625  1.3923  0.5142 -0.5755
 4542TIP3   OH235116   0.521   4.363  11.149 -0.4740 -0.2176  0.5654
 4542TIP3    H135117   0.603   4.368  11.100 -0.4145 -0.0039  0.6857
 4542TIP3    H235118   0.453   4.365  11.082 -0.5333  3.0463  0.5437
 4543TIP3   OH235119   4.646   0.525   1.409  0.5199  0.2967  0.0260
 4543TIP3    H135120   4.631   0.513   1.316 -0.2691  0.3189  0.1431
 4543TIP3    H235121   4.734   0.563   1.415 -0.4694  2.8646 -0.8732
 4544TIP3   OH235122   5.851   4.392   3.972  0.3045 -0.1621 -0.0539
 4544TIP3    H135123   5.757   4.376   3.959  0.2585  0.1449 -0.1248
 4544TIP3    H235124   5.894   4.341   3.904  0.1111  0.8205 -0.9515
 4545TIP3   OH235125   1.410   3.880  12.690 -0.1017 -0.4992  0.2801
 4545TIP3    H135126   1.446   3.797  12.721 -2.0136 -2.6402 -2.7660
 4545TIP3    H235127   1.474   3.912  12.627 -0.2455 -0.5974  0.0866
 4546TIP3   OH235128   1.843   2.434  16.078  0.2419 -0.1028  0.1340
 4546TIP3    H135129   1.762   2.475  16.050  0.7208  0.7199 -0.0743
 4546TIP3    H235130   1.907   2.457  16.010  1.1478  0.9759  1.3073
 4547TIP3   OH235131   3.576   1.185  17.090  0.8476  0.1071  0.0521
 4547TIP3    H135132   3.574   1.162  17.183 -1.5939  0.1521  0.0853
 4547TIP3    H235133   3.669   1.195  17.070  1.5388 -1.4247  2.0968
 4548TIP3   OH235134   4.461   4.539  10.552  0.4575  0.8854  0.1695
 4548TIP3    H135135   4.372   4.549  10.518  0.9608  1.8819 -0.8686
 4548TIP3    H235136   4.490   4.455  10.516 -0.1528  0.4018  0.7615
 4549TIP3   OH235137   3.995   5.328   1.761  0.0690 -0.2416 -0.6683
 4549TIP3    H135138   3.978   5.334   1.667 -1.3098  0.2267 -0.4121
 4549TIP3    H235139   3.960   5.242   1.787 -0.0872 -0.1271 -0.4905
 4550TIP3   OH235140   3.214   1.105   4.606 -0.3749  0.7469 -0.1603
 4550TIP3    H135141   3.259   1.087   4.524  0.7639 -1.4935  0.8602
 4550TIP3    H235142   3.170   1.022   4.628 -1.7853  1.6977  0.8378
 4551TIP3   OH235143   5.901   5.643   2.415  0.1856 -0.0710  0.6248
 4551TIP3    H135144   5.878   5.732   2.387  2.6162  1.0793  1.9322
 4551TIP3    H235145   5.961   5.611   2.347  0.0160 -0.3530  0.6086
 4552TIP3   OH235146   3.408   5.237  16.854 -0.3005  0.1144  0.0966
 4552TIP3    H135147   3.410   5.214  16.761 -1.7143 -1.0999  0.3221
 4552TIP3    H235148   3.500   5.243  16.879  0.1134 -0.4036 -1.1905
 4553TIP3   OH235149   5.629   6.165  14.368  0.6125 -0.2346  0.4340
 4553TIP3    H135150   5.546   6.201  14.398  0.0133 -0.8340 -0.4696
 4553TIP3    H235151   5.637   6.081  14.413  1.0865  0.1369  1.0661
 4554TIP3   OH235152   3.854   4.144  11.617 -0.1769 -0.2333 -0.2079
 4554TIP3    H135153   3.814   4.133  11.703 -0.9699 -0.6689 -0.6229
 4554TIP3    H235154   3.900   4.228  11.621  3.0289 -1.8908  1.9115
 4555TIP3   OH235155   1.722   1.369   0.528 -0.5070  0.2611  0.2760
 4555TIP3    H135156   1.808   1.410   0.514  0.5219 -1.8635  0.0427
 4555TIP3    H235157   1.660   1.442   0.522  1.3246  2.0057  1.2763
 4556TIP3   OH235158   4.675   6.796  12.707  0.0067 -0.5450 -0.1350
 4556TIP3    H135159   4.749   6.740  12.730  0.7836  0.0633 -1.0978
 4556TIP3    H235160   4.692   6.878  12.753 -0.7201 -0.7935  0.6229
 4557TIP3   OH235161   5.480   6.264  12.801 -0.0955 -0.3261 -0.0836
 4557TIP3    H135162   5.421   6.336  12.822 -0.1047  0.0605 -1.3195
 4557TIP3    H235163   5.551   6.305  12.750 -1.2235 -1.4391 -2.7721
 4558TIP3   OH235164   1.811   6.136  11.086 -0.4345 -0.2666 -0.5594
 4558TIP3    H135165   1.899   6.106  11.109 -0.6536 -0.9589 -0.5857
 4558TIP3    H235166   1.819   6.169  10.997  0.3443  2.0816  0.3279
 4559TIP3   OH235167   0.056   0.037   5.939 -0.1292 -0.1886 -0.1391
 4559TIP3    H135168  -0.012   0.099   5.966  2.0688  3.0175 -1.2651
 4559TIP3    H235169   0.034   0.017   5.848 -1.1584 -1.6212  0.3951
 4560TIP3   OH235170   1.117   2.774  16.779  0.3648  0.2061 -0.4566
 4560TIP3    H135171   1.089   2.836  16.712  0.9834 -1.5640 -2.4720
 4560TIP3    H235172   1.105   2.688  16.738  0.0026 -1.0125  2.0285
 4561TIP3   OH235173   6.188   4.696   4.765  0.2330 -0.7238 -0.6390
 4561TIP3    H135174   6.273   4.662   4.794  0.8068  2.2690  1.7146
 4561TIP3    H235175   6.200   4.711   4.671  2.8466  0.8033 -0.1773
 4562TIP3   OH235176   2.764   3.909   1.952  0.3763 -0.0709  0.5742
 4562TIP3    H135177   2.735   3.846   1.886 -0.9468  0.2109  0.8528
 4562TIP3    H235178   2.819   3.859   2.011  1.8059 -0.2770 -0.8585
 4563TIP3   OH235179   6.653   6.408   1.217 -1.2383 -0.2671 -0.0891
 4563TIP3    H135180   6.644   6.445   1.305 -1.0680 -0.1806 -0.1082
 4563TIP3    H235181   6.744   6.426   1.192 -1.4815  0.3312 -0.5655
 4564TIP3   OH235182   4.960   6.679   1.081 -0.1794 -0.1858  0.0194
 4564TIP3    H135183   5.048   6.642   1.088 -0.1589 -0.3864 -1.1294
 4564TIP3    H235184   4.969   6.751   1.018 -0.9692 -0.6712 -0.6641
 4565TIP3   OH235185   5.144   5.569  17.043 -0.4078 -0.0813  0.3495
 4565TIP3    H135186   5.203   5.494  17.036  1.3155  1.2943 -0.4196
 4565TIP3    H235187   5.065   5.533  17.083  1.5739 -1.6596  3.1975
 4566TIP3   OH235188   0.925   1.291   2.243 -0.7217  0.2567  0.9845
 4566TIP3    H135189   0.912   1.273   2.150  1.8713 -1.1036  0.8058
 4566TIP3    H235190   1.020   1.297   2.254 -1.0067  2.1340  3.2726
 4567TIP3   OH235191   4.997   2.060   0.894  0.4448  0.3596  0.0114
 4567TIP3    H135192   4.963   2.040   0.981 -0.2710 -0.6749 -0.4858
 4567TIP3    H235193   5.091   2.043   0.901  0.3099 -0.2352  0.4405
 4568TIP3   OH235194   2.485   4.223   1.905  0.4126 -0.4520 -0.8524
 4568TIP3    H135195   2.489   4.318   1.922  1.5808 -0.2355 -2.1636
 4568TIP3    H235196   2.511   4.183   1.988  1.5958  0.4445 -0.7589
 4569TIP3   OH235197   3.406   2.813  14.360 -0.8267 -0.2516  0.5585
 4569TIP3    H135198   3.343   2.792  14.429 -0.4517  0.7127  1.2146
 4569TIP3    H235199   3.404   2.737  14.301 -2.2877 -0.4165  0.7859
 4570TIP3   OH235200   5.053   2.177   4.609  0.2078  0.0335  0.1745
 4570TIP3    H135201   5.005   2.246   4.655 -2.0895 -0.9368 -0.6183
 4570TIP3    H235202   5.121   2.150   4.670  0.5447  2.2880  0.8942
 4571TIP3   OH235203   1.278   5.406  11.774 -0.2758  0.4248 -0.1089
 4571TIP3    H135204   1.257   5.334  11.714 -0.3106  0.0612  0.3360
 4571TIP3    H235205   1.368   5.389  11.801 -0.6811 -0.1400  0.9463
 4572TIP3   OH235206   4.819   4.587   2.874  0.0837  0.1757 -0.5819
 4572TIP3    H135207   4.824   4.681   2.888 -0.6697  0.1007  0.2624
 4572TIP3    H235208   4.844   4.575   2.782  2.5669  0.9481 -0.0675
 4573TIP3   OH235209   0.937   0.013   0.629 -0.2473  0.1509  0.2043
 4573TIP3    H135210   1.032   0.017   0.623 -0.3919  1.5199 -3.3694
 4573TIP3    H235211   0.913   0.093   0.677  0.3578 -0.8354  2.2647
 4574TIP3   OH235212   0.543   6.198   0.916 -0.0243 -0.5595  0.6326
 4574TIP3    H135213   0.560   6.267   0.981 -1.5419  1.0637 -0.6216
 4574TIP3    H235214   0.597   6.222   0.841  1.5109 -2.2847  1.0981
 4575TIP3   OH235215   0.697   6.650  13.756 -0.7996 -0.1354 -0.1719
 4575TIP3    H135216   0.753   6.646  13.679 -0.6489 -1.0417 -0.0286
 4575TIP3    H235217   0.729   6.726  13.805 -1.6742  1.1830 -1.5688
 4576TIP3   OH235218   1.038   5.344   4.788 -1.0842  0.2114  0.3574
 4576TIP3    H135219   0.999   5.323   4.873 -1.7556 -0.4057 -0.0902
 4576TIP3    H235220   1.071   5.433   4.799  0.0352 -0.3206  1.6720
 4577TIP3   OH235221   1.748   3.668   1.802 -0.0910 -0.2047  0.3066
 4577TIP3    H135222   1.742   3.573   1.802  0.9883 -0.2892  0.0085
 4577TIP3    H235223   1.706   3.695   1.883 -1.6000 -0.8318 -0.2218
 4578TIP3   OH235224   6.699   3.501   4.683  0.0192  0.4679 -0.2119
 4578TIP3    H135225   6.681   3.442   4.610  1.4026  0.8553 -0.9096
 4578TIP3    H235226   6.613   3.530   4.713 -0.6272 -0.8687 -0.6992
 4579TIP3   OH235227   2.869   3.236  14.037  0.0141 -0.3959  0.5920
 4579TIP3    H135228   2.898   3.267  14.123  0.8891  0.5290 -0.0018
 4579TIP3    H235229   2.821   3.156  14.055 -1.3504  0.7026  2.1002
 4580TIP3   OH235230   4.883   6.552  17.122 -0.1822 -0.5139 -0.6541
 4580TIP3    H135231   4.831   6.519  17.049  1.8625 -0.4850 -2.1975
 4580TIP3    H235232   4.841   6.635  17.146 -2.3611 -1.7065 -0.0801
 4581TIP3   OH235233   5.112   0.656  15.499  0.2322 -0.1149  0.0078
 4581TIP3    H135234   5.067   0.586  15.546  1.6111 -2.2911 -1.6877
 4581TIP3    H235235   5.055   0.732  15.508 -1.4947 -1.5095  1.6927
 4582TIP3   OH235236   3.868   5.830   0.939  0.6721  0.4421  0.3111
 4582TIP3    H135237   3.827   5.916   0.947 -1.9526 -0.7067  0.3622
 4582TIP3    H235238   3.842   5.784   1.018 -1.3267 -1.6201 -1.4121
 4583TIP3   OH235239   2.653   6.265  14.719 -0.0465 -0.0674 -0.3585
 4583TIP3    H135240   2.574   6.311  14.691 -0.4486 -0.8546 -0.5507
 4583TIP3    H235241   2.621   6.197  14.778  0.6786  0.8501  1.1527
 4584TIP3   OH235242   3.598   6.015   3.045 -0.0384  0.1299 -0.7879
 4584TIP3    H135243   3.542   6.069   3.101  0.0314 -0.3878 -0.2102
 4584TIP3    H235244   3.537   5.971   2.986 -0.4167 -1.5846  0.8127
 4585TIP3   OH235245   2.476   4.081   4.553  0.4000 -0.1928  0.0383
 4585TIP3    H135246   2.481   4.051   4.644  1.7211  2.2583  0.8688
 4585TIP3    H235247   2.559   4.052   4.514  0.6146  0.2854  0.1377
 4586TIP3   OH235248   5.323   1.995  11.943  0.0401 -0.5922  0.3601
 4586TIP3    H135249   5.341   1.976  11.851  1.6652  1.9593  0.0746
 4586TIP3    H235250   5.228   1.990  11.950 -0.2236  0.4057 -1.7846
 4587TIP3   OH235251   1.293   5.198  11.606 -0.1402 -0.1355  0.1102
 4587TIP3    H135252   1.304   5.119  11.658  0.3907 -1.3877 -1.7888
 4587TIP3    H235253   1.209   5.187  11.561 -0.6182  0.9369  0.7074
 4588TIP3   OH235254   1.139   0.608  14.320  0.3243 -0.7677  0.1936
 4588TIP3    H135255   1.101   0.682  14.368 -1.0341 -1.0120 -0.4713
 4588TIP3    H235256   1.230   0.634  14.304  0.3296  0.0313  1.4217
 4589TIP3   OH235257   6.604   0.489  16.601  0.1991  0.0046  0.3323
 4589TIP3    H135258   6.666   0.427  16.639 -0.2570 -0.0856  0.9412
 4589TIP3    H235259   6.599   0.561  16.664 -0.5205 -0.1177  0.4238
 4590TIP3   OH235260   0.808   5.056   4.026  0.2226 -0.0084  0.0864
 4590TIP3    H135261   0.716   5.035   4.043 -0.2268  0.6502 -1.3534
 4590TIP3    H235262   0.806   5.106   3.944  1.6587  1.8367  1.0994
 4591TIP3   OH235263   3.687   5.182  13.480 -0.5229  0.3653  0.1824
 4591TIP3    H135264   3.605   5.164  13.436  0.2784  0.5727 -1.4742
 4591TIP3    H235265   3.669   5.257  13.537 -0.9641  1.9262 -1.8850
 4592TIP3   OH235266   4.586   6.417  15.157  0.1670  0.0447 -0.1524
 4592TIP3    H135267   4.537   6.498  15.171 -1.4863 -0.9895  0.4075
 4592TIP3    H235268   4.602   6.415  15.063  1.0983  1.4610 -0.0588
 4593TIP3   OH235269   5.729   0.197   5.322  0.2947  0.1182 -0.6280
 4593TIP3    H135270   5.789   0.269   5.299 -0.5999  0.6599 -1.3319
 4593TIP3    H235271   5.643   0.229   5.296 -0.3094 -0.6535  0.3774
 4594TIP3   OH235272   6.266   4.597  12.321 -0.4177 -0.4895  0.4164
 4594TIP3    H135273   6.265   4.654  12.245  1.2202  1.3283  1.6624
 4594TIP3    H235274   6.201   4.635  12.380 -0.7230 -1.0908  0.4752
 4595TIP3   OH235275   3.831   3.067  11.348  0.5909  0.2865 -0.1619
 4595TIP3    H135276   3.872   3.061  11.262 -1.6761  1.3231 -1.3914
 4595TIP3    H235277   3.837   3.160  11.371 -1.1432  0.5073 -0.4730
 4596TIP3   OH235278   1.677   0.398   5.534 -0.4897 -0.5148  0.5286
 4596TIP3    H135279   1.687   0.457   5.459 -3.0205  1.1854  1.4119
 4596TIP3    H235280   1.762   0.402   5.578 -0.7836  3.3442  1.0798
 4597TIP3   OH235281   2.557   6.574   1.517  0.2920 -0.3919  0.2472
 4597TIP3    H135282   2.492   6.604   1.580 -0.5588 -0.9043 -0.3479
 4597TIP3    H235283   2.631   6.543   1.570 -0.1674 -0.2779  0.9623
 4598TIP3   OH235284   5.114   4.145   0.212  0.3446 -0.3604  0.0978
 4598TIP3    H135285   5.028   4.104   0.200  0.9046 -1.1327 -1.6083
 4598TIP3    H235286   5.157   4.091   0.279 -1.0395  1.0158  2.2188
 4599TIP3   OH235287   0.610   6.768   2.375  0.0377  0.0491  0.0004
 4599TIP3    H135288   0.591   6.739   2.285  0.0342 -2.8973  0.8584
 4599TIP3    H235289   0.528   6.754   2.422  0.8576 -1.2635  1.0858
 4600TIP3   OH235290   5.228   0.611   0.575  0.6088 -0.7379  0.5592
 4600TIP3    H135291   5.134   0.594   0.564  0.3215 -0.0365  1.7808
 4600TIP3    H235292   5.237   0.635   0.667  1.7225  0.8715  0.0526
 4601TIP3   OH235293   1.513   6.714  12.588  0.2885 -0.1528 -0.5766
 4601TIP3    H135294   1.440   6.724  12.648  0.4585 -1.7369 -0.0512
 4601TIP3    H235295   1.518   6.797  12.541 -0.9330  0.4868  0.3839
 4602TIP3   OH235296   3.922   1.783  16.099  0.4260  0.0612 -0.0911
 4602TIP3    H135297   3.854   1.729  16.060  0.0347  1.5566 -1.5975
 4602TIP3    H235298   3.875   1.840  16.160  0.8535 -1.3260  1.5983
 4603TIP3   OH235299   5.302   3.093  11.974 -0.2194  0.1680  0.2579
 4603TIP3    H135300   5.292   3.070  12.066 -0.3217 -2.0162 -0.2572
 4603TIP3    H235301   5.341   3.016  11.933  0.0271  1.1571 -1.5080
 4604TIP3   OH235302   5.725   4.618   1.430 -0.0799 -0.4867 -0.5178
 4604TIP3    H135303   5.660   4.689   1.427 -1.4294 -1.6633 -0.3582
 4604TIP3    H235304   5.763   4.624   1.518 -0.2068  0.0182 -0.4924
 4605TIP3   OH235305   3.586   6.090   4.522  0.3898 -0.2099 -0.2120
 4605TIP3    H135306   3.554   6.076   4.433 -0.0698 -1.2200  0.0962
 4605TIP3    H235307   3.516   6.058   4.578  1.6594 -1.9403  0.4839
 4606TIP3   OH235308   0.710   4.785   5.679 -0.4229  0.6739 -0.0729
 4606TIP3    H135309   0.641   4.749   5.624 -0.4452  1.0392 -0.2817
 4606TIP3    H235310   0.667   4.808   5.761 -0.6477  1.3653 -0.3815
 4607TIP3   OH235311   4.661   0.449  15.071  0.2827  0.2437  0.0655
 4607TIP3    H135312   4.740   0.440  15.018  0.8844  0.5834  0.8927
 4607TIP3    H235313   4.595   0.482  15.010  1.4109  2.2941 -0.1235
 4608TIP3   OH235314   0.672   4.901  14.428 -0.1903 -0.1548  0.3933
 4608TIP3    H135315   0.711   4.846  14.496  1.2659 -0.8828 -0.9795
 4608TIP3    H235316   0.714   4.987  14.439  1.9667 -0.9458 -1.1113
 4609TIP3   OH235317   5.653   4.470  11.790  0.2313 -0.2116  0.7863
 4609TIP3    H135318   5.636   4.402  11.724  1.0919 -1.0156  1.3783
 4609TIP3    H235319   5.569   4.480  11.836 -0.5237  0.6882 -0.6815
 4610TIP3   OH235320   5.833   0.255   0.551  0.1165  1.2809 -0.7235
 4610TIP3    H135321   5.776   0.260   0.628  0.3698  0.8755 -0.5040
 4610TIP3    H235322   5.913   0.301   0.578  0.3833  0.7373 -0.5799
 4611TIP3   OH235323   0.563   5.720  12.447  0.0622  0.2925  0.2538
 4611TIP3    H135324   0.624   5.719  12.521  0.8109  0.7817 -0.3470
 4611TIP3    H235325   0.619   5.720  12.369 -0.6672  2.1951 -0.3146
 4612TIP3   OH235326   0.902   5.296  10.680 -0.2676 -0.0511 -0.3790
 4612TIP3    H135327   0.968   5.315  10.612  0.4355 -0.8371  0.0613
 4612TIP3    H235328   0.923   5.207  10.708  1.2244  1.1678  2.7998
 4613TIP3   OH235329   0.472   5.412   5.546  0.4041  0.1658 -0.2594
 4613TIP3    H135330   0.425   5.376   5.471  0.1358  1.9834 -1.0057
 4613TIP3    H235331   0.560   5.375   5.539  1.4481  2.7019 -3.4505
 4614TIP3   OH235332   0.245   4.533  12.639 -0.4376  0.3613  0.0056
 4614TIP3    H135333   0.245   4.494  12.552 -2.3265  2.0547 -0.8505
 4614TIP3    H235334   0.233   4.627  12.622  2.6699  1.2758  1.9719
 4615TIP3   OH235335   4.232   1.261  11.801  0.4496  0.8606 -0.4848
 4615TIP3    H135336   4.282   1.195  11.752  1.8473  0.3439  1.5290
 4615TIP3    H235337   4.163   1.212  11.845  1.2630  0.7530  0.7174
 4616TIP3   OH235338   4.207   4.363   3.957 -0.2121  0.1884 -0.3317
 4616TIP3    H135339   4.166   4.379   4.042  1.9121  1.6450  0.5019
 4616TIP3    H235340   4.231   4.270   3.959  0.8766  0.4666  1.2042
 4617TIP3   OH235341   1.143   4.579   5.044  0.3851  0.0487  0.5248
 4617TIP3    H135342   1.110   4.495   5.077 -1.9275  0.8825  0.5672
 4617TIP3    H235343   1.226   4.558   5.002  0.2913 -2.1084  1.2967
 4618TIP3   OH235344   3.810   0.529  14.121 -0.1730 -0.8381  0.0038
 4618TIP3    H135345   3.879   0.487  14.173  1.3281 -0.1653 -1.3534
 4618TIP3    H235346   3.731   0.479  14.141  0.5344 -1.2265  2.1189
 4619TIP3   OH235347   2.221   5.521  15.727  0.3067  0.3333  1.0491
 4619TIP3    H135348   2.193   5.610  15.705 -2.1137 -0.1941  1.6164
 4619TIP3    H235349   2.207   5.514  15.822 -3.1352 -1.6499  0.5728
 4620TIP3   OH235350   2.564   6.343  13.471  0.1877 -0.0571 -0.2156
 4620TIP3    H135351   2.491   6.403  13.456 -0.0863  1.0291  4.1515
 4620TIP3    H235352   2.527   6.256  13.456 -0.7853  0.6143 -1.9734
 4621TIP3   OH235353   4.458   3.773  13.192 -0.0474 -0.3646 -0.3936
 4621TIP3    H135354   4.377   3.724  13.210 -0.5226  0.4002 -0.4083
 4621TIP3    H235355   4.485   3.807  13.277  0.5175 -0.9967 -0.3133
 4622TIP3   OH235356   1.444   2.807  12.289  0.2004 -0.0316 -0.4850
 4622TIP3    H135357   1.512   2.796  12.223  0.7229  1.8528 -0.3290
 4622TIP3    H235358   1.375   2.857  12.245  0.2766  0.7035  0.1994
 4623TIP3   OH235359   5.429   3.746   6.060 -0.3277 -0.4270  0.4539
 4623TIP3    H135360   5.485   3.751   5.983 -1.6135 -0.8360 -0.5385
 4623TIP3    H235361   5.365   3.816   6.048 -0.3849 -0.3285  1.2828
 4624TIP3   OH235362   5.116   1.582  16.669  0.4581  0.1157 -0.1194
 4624TIP3    H135363   5.102   1.668  16.629 -0.5638  0.5857  1.1649
 4624TIP3    H235364   5.072   1.521  16.610  1.0296  0.4924 -0.9476
 4625TIP3   OH235365   5.573   4.205  17.038  0.1125  0.3026 -0.1189
 4625TIP3    H135366   5.606   4.239  17.121 -2.0133  0.3971  0.7393
 4625TIP3    H235367   5.487   4.168  17.059 -0.6691  0.6950 -2.3433
 4626TIP3   OH235368   0.593   5.005   2.865 -0.0398  0.2474 -0.1521
 4626TIP3    H135369   0.658   4.938   2.888  1.0600  1.1691 -0.4879
 4626TIP3    H235370   0.531   4.959   2.808 -0.9202 -1.1939  1.8044
 4627TIP3   OH235371   1.682   3.757   1.475 -0.3371 -0.4421  0.4278
 4627TIP3    H135372   1.611   3.785   1.533 -0.9611 -0.1511 -0.4413
 4627TIP3    H235373   1.695   3.831   1.416  2.6551  0.6729  2.2804
 4628TIP3   OH235374   4.667   1.523  12.435 -0.2778 -0.6161 -0.0766
 4628TIP3    H135375   4.648   1.550  12.525  1.3385 -1.2516  0.4798
 4628TIP3    H235376   4.704   1.436  12.443  1.3271 -0.0889 -1.2009
 4629TIP3   OH235377   1.984   3.770  15.346  0.1650  0.2154  0.0609
 4629TIP3    H135378   1.987   3.821  15.427  2.2989 -0.6350  0.5791
 4629TIP3    H235379   2.038   3.820  15.284  0.9665 -0.5864  0.0911
 4630TIP3   OH235380   0.402   0.993  16.772 -0.1970 -0.0127 -0.0474
 4630TIP3    H135381   0.497   0.983  16.770 -0.0884  0.8825  0.1850
 4630TIP3    H235382   0.378   1.014  16.682 -0.3591 -1.6074 -0.4122
 4631TIP3   OH235383   2.977   4.619   4.395 -0.4213 -0.3110 -0.7291
 4631TIP3    H135384   3.066   4.611   4.359  1.2428  0.2359  2.8154
 4631TIP3    H235385   2.957   4.713   4.388  0.7416  0.1419  1.3792
 4632TIP3   OH235386   1.244   2.833  14.810  0.0463  0.2512 -0.3180
 4632TIP3    H135387   1.292   2.840  14.893 -0.7186  0.6188  0.1069
 4632TIP3    H235388   1.305   2.789  14.750 -0.1455 -1.9826  1.0274
 4633TIP3   OH235389   2.842   3.935  12.673  0.7428  0.8267 -0.1178
 4633TIP3    H135390   2.832   3.945  12.768 -0.2390  1.1226 -0.2423
 4633TIP3    H235391   2.752   3.938  12.639  0.8830 -1.5162 -0.8525
 4634TIP3   OH235392   0.867   4.807  11.307 -0.2258 -0.1873  0.1439
 4634TIP3    H135393   0.960   4.822  11.326 -0.2884  0.8393 -0.3249
 4634TIP3    H235394   0.863   4.796  11.212 -0.7783  1.4429 -0.0547
 4635TIP3   OH235395   6.643   4.922  13.268 -0.0489  0.3153 -0.7677
 4635TIP3    H135396   6.693   4.899  13.190  0.6471  2.6256 -1.0662
 4635TIP3    H235397   6.567   4.970  13.236 -1.1171 -0.8847 -0.1392
 4636TIP3   OH235398   1.619   3.156   1.537  0.8431 -0.1288  0.3322
 4636TIP3    H135399   1.684   3.183   1.601 -0.8509 -1.3683  2.7037
 4636TIP3    H235400   1.539   3.143   1.587 -0.6372 -1.0048 -2.0723
 4637TIP3   OH235401   3.729   2.014  11.154 -0.6512  0.0252  0.8198
 4637TIP3    H135402   3.758   2.103  11.173 -0.2276  0.6284 -2.2169
 4637TIP3    H235403   3.810   1.966  11.133 -1.0545 -0.6017  0.6704
 4638TIP3   OH235404   3.504   1.088  15.007 -0.0218 -0.3513 -0.3687
 4638TIP3    H135405   3.506   1.018  14.941 -1.1604 -0.0700 -0.7139
 4638TIP3    H235406   3.558   1.053  15.079  0.7919 -0.8857 -1.2023
 4639TIP3   OH235407   0.227   5.393  12.098  0.8113  0.3455 -0.0577
 4639TIP3    H135408   0.285   5.368  12.026  0.0362 -0.3183 -0.4719
 4639TIP3    H235409   0.211   5.311  12.146 -1.9411 -0.1130 -1.5625
 4640TIP3   OH235410   2.501   2.914  13.403 -0.3112  0.0838  0.6339
 4640TIP3    H135411   2.488   2.820  13.416  1.5260 -0.4187 -0.7747
 4640TIP3    H235412   2.580   2.920  13.350 -1.0529  2.3877 -0.3249
 4641TIP3   OH235413   4.616   6.176   5.855 -0.1438 -0.6534  0.6487
 4641TIP3    H135414   4.634   6.260   5.812 -0.1691 -1.0231 -0.0914
 4641TIP3    H235415   4.603   6.199   5.947 -0.1122  0.1522  0.4593
 4642TIP3   OH235416   5.064   4.431   5.872  0.1038  0.4475  0.0831
 4642TIP3    H135417   5.105   4.368   5.813  1.1101  0.2179  0.9820
 4642TIP3    H235418   4.971   4.427   5.851  0.5141  1.0860 -2.1383
 4643TIP3   OH235419   1.146   3.651  11.490  0.1824  0.5215  0.1771
 4643TIP3    H135420   1.130   3.689  11.576  0.7012  0.5405  0.2657
 4643TIP3    H235421   1.220   3.700  11.455 -0.2408  0.7463 -0.4281
 4644TIP3   OH235422   6.370   3.966   2.750  0.2970 -0.4221  0.2188
 4644TIP3    H135423   6.362   3.974   2.655  0.8633  0.2823  0.2250
 4644TIP3    H235424   6.283   3.938   2.779  0.7237 -3.0607 -0.7307
 4645TIP3   OH235425   2.810   0.499  12.827  0.3216  0.1467 -0.3930
 4645TIP3    H135426   2.751   0.451  12.768  0.5055  1.0123 -1.3042
 4645TIP3    H235427   2.859   0.557  12.769  3.6863 -2.0711 -0.0248
 4646TIP3   OH235428   1.810   3.478   4.680  0.2176 -0.4665  0.4327
 4646TIP3    H135429   1.757   3.496   4.602  1.2865  0.3540 -0.1386
 4646TIP3    H235430   1.752   3.496   4.754  0.1211  1.9098 -0.1465
 4647TIP3   OH235431   4.017   1.704  15.678  0.3540 -0.5903 -0.0105
 4647TIP3    H135432   4.052   1.751  15.754 -1.3427 -0.0533  0.4857
 4647TIP3    H235433   4.045   1.756  15.603 -0.1029  0.2985  0.4236
 4648TIP3   OH235434   5.452   2.874  14.914  0.6722 -0.2739  0.2271
 4648TIP3    H135435   5.398   2.908  14.985  0.1020 -1.5551  0.4443
 4648TIP3    H235436   5.466   2.782  14.937  1.5810 -0.3744 -0.6612
 4649TIP3   OH235437   0.869   1.386  14.443 -0.4521  0.0583 -0.2351
 4649TIP3    H135438   0.964   1.398  14.437 -0.4498  0.0854 -0.1412
 4649TIP3    H235439   0.833   1.471  14.422 -0.4655 -0.0385 -0.6055
 4650TIP3   OH235440   5.256   0.966   0.558  0.2781  0.3280  0.4557
 4650TIP3    H135441   5.169   0.945   0.591 -0.2148  0.6075 -0.6290
 4650TIP3    H235442   5.305   0.995   0.636 -0.4468 -0.2670  1.1473
 4651TIP3   OH235443   2.790   5.629  13.748  0.2622  0.1427 -0.4137
 4651TIP3    H135444   2.767   5.544  13.710  0.3202  0.7842 -1.9467
 4651TIP3    H235445   2.824   5.680  13.674  0.9411  1.2487  0.6291
 4652TIP3   OH235446   5.729   3.100   5.245  0.2569  0.2805 -0.1745
 4652TIP3    H135447   5.750   3.130   5.333 -0.1970 -0.2190  0.1051
 4652TIP3    H235448   5.635   3.113   5.237  0.4405  1.2983 -0.9640
 4653TIP3   OH235449   1.065   4.419   0.934 -0.1299 -0.6122 -0.0050
 4653TIP3    H135450   1.017   4.372   0.865  0.4564 -1.5045  0.1810
 4653TIP3    H235451   1.086   4.352   0.998 -0.4481  0.1680  0.9319
 4654TIP3   OH235452   2.127   4.729   4.262  0.4712 -0.6356 -0.1023
 4654TIP3    H135453   2.194   4.669   4.295  0.8699  0.0834  0.4173
 4654TIP3    H235454   2.094   4.773   4.340  0.2554 -0.1100 -0.4885
 4655TIP3   OH235455   4.382   1.186   2.564 -0.0456 -0.1726 -0.1398
 4655TIP3    H135456   4.381   1.281   2.581  0.0519 -0.3929  1.2754
 4655TIP3    H235457   4.440   1.176   2.488  0.3481  0.8664 -0.0033
 4656TIP3   OH235458   6.076   0.824  14.122 -0.8697 -0.4410 -0.2457
 4656TIP3    H135459   6.084   0.744  14.071  2.5819 -0.5196  0.2081
 4656TIP3    H235460   6.064   0.893  14.057 -3.5836 -1.1453 -0.6492
 4657TIP3   OH235461   4.598   3.289   2.825 -0.0704 -0.2223  0.7456
 4657TIP3    H135462   4.591   3.292   2.920  2.3867 -0.3548  0.9791
 4657TIP3    H235463   4.639   3.371   2.800  1.4749 -1.1501  0.0761
 4658TIP3   OH235464   3.773   6.657   3.434  0.3698  0.0692  0.0157
 4658TIP3    H135465   3.689   6.625   3.468 -0.2493 -0.1137 -1.6176
 4658TIP3    H235466   3.818   6.578   3.403  0.5184  0.3309 -0.4431
 4659TIP3   OH235467   5.647   1.991   5.000 -0.7658  0.0252 -0.5984
 4659TIP3    H135468   5.594   1.933   4.946 -0.4302  0.4006 -1.3525
 4659TIP3    H235469   5.631   2.078   4.964 -1.5758  0.4809  0.7694
 4660TIP3   OH235470   1.730   2.013  16.035  0.0212  0.3408  0.4480
 4660TIP3    H135471   1.714   2.090  16.091  0.1566  1.0085 -0.4144
 4660TIP3    H235472   1.645   1.995  15.995  0.3892  1.1649 -0.7377
 4661TIP3   OH235473   6.370   3.695   3.533  0.2536 -0.1083  0.0868
 4661TIP3    H135474   6.389   3.716   3.624  0.6427 -1.0753  0.2475
 4661TIP3    H235475   6.411   3.609   3.520 -0.4607 -0.3293 -0.7757
 4662TIP3   OH235476   5.561   0.152  17.108 -0.2689 -0.3762 -0.1090
 4662TIP3    H135477   5.474   0.132  17.143 -0.1236 -0.2133  0.3556
 4662TIP3    H235478   5.568   0.247  17.117  0.2230 -0.4646  0.4966
 4663TIP3   OH235479   4.431   4.763   4.296  0.7432  0.1545  0.1182
 4663TIP3    H135480   4.425   4.730   4.386  1.0849 -0.9906 -0.2637
 4663TIP3    H235481   4.342   4.756   4.262  0.8770 -0.7207 -0.0683
 4664TIP3   OH235482   0.892   3.700  15.381  0.3887  0.1540 -0.3872
 4664TIP3    H135483   0.822   3.716  15.445  0.8413  0.9170 -0.0664
 4664TIP3    H235484   0.853   3.639  15.318 -0.5378  0.4837 -0.1579
 4665TIP3   OH235485   0.428   1.346  12.379 -0.2934 -0.1413  0.0693
 4665TIP3    H135486   0.400   1.420  12.433  0.9318  1.7202 -1.7130
 4665TIP3    H235487   0.347   1.310  12.344 -0.8643  1.1008  0.0608
 4666TIP3   OH235488   1.039   6.313   2.640  0.2980 -0.4117 -0.4081
 4666TIP3    H135489   0.952   6.336   2.671  0.5626  2.3900 -1.5071
 4666TIP3    H235490   1.037   6.329   2.546  1.8928 -0.6888 -0.5202
 4667TIP3   OH235491   6.278   0.059   0.645 -0.4509 -0.2449  0.0081
 4667TIP3    H135492   6.369   0.035   0.663 -0.7479 -1.5204 -0.0872
 4667TIP3    H235493   6.265   0.140   0.695  0.8531  0.2068 -0.3316
 4668TIP3   OH235494   5.977   5.742   2.899  0.6957  0.3961  0.6481
 4668TIP3    H135495   6.002   5.683   2.970 -0.1750 -1.2798 -0.4047
 4668TIP3    H235496   6.008   5.699   2.820 -2.6642 -0.2768 -0.4476
 4669TIP3   OH235497   5.307   6.310   3.943 -0.1735  0.0709 -0.3057
 4669TIP3    H135498   5.353   6.260   4.010 -0.4947  0.0303 -0.1133
 4669TIP3    H235499   5.247   6.248   3.903 -0.6554  0.3194  0.0107
 4670TIP3   OH235500   4.462   3.641   6.345 -0.2364 -0.0812 -0.2581
 4670TIP3    H135501   4.505   3.571   6.296  1.0551 -0.0558  0.8053
 4670TIP3    H235502   4.505   3.721   6.315  1.0673 -0.1257  1.3764
 4671TIP3   OH235503   5.005   4.797  15.932 -0.0306  0.1128  0.1776
 4671TIP3    H135504   5.081   4.743  15.911 -1.8636 -2.3222 -0.6139
 4671TIP3    H235505   4.986   4.778  16.023  1.4594  2.3761  1.0669
 4672TIP3   OH235506   2.850   5.311  11.855 -0.4105 -0.4476 -0.0335
 4672TIP3    H135507   2.938   5.345  11.840 -0.2764 -0.5432  0.5067
 4672TIP3    H235508   2.815   5.295  11.768 -0.7072  1.6394 -0.3366
 4673TIP3   OH235509   4.031   4.150   2.320 -0.8775  0.5955 -0.0521
 4673TIP3    H135510   3.976   4.170   2.396 -0.4976  0.4737  0.2553
 4673TIP3    H235511   4.059   4.236   2.288 -0.1254  0.6235  0.6234
 4674TIP3   OH235512   4.515   1.861  14.379 -0.3486  0.1710  0.4789
 4674TIP3    H135513   4.427   1.895  14.361 -0.6347 -0.2149  1.1175
 4674TIP3    H235514   4.501   1.769  14.401  0.4899 -0.6672 -2.0775
 4675TIP3   OH235515   1.620   4.014  14.616 -0.0005 -0.3595  0.2382
 4675TIP3    H135516   1.532   4.029  14.651 -0.1607  1.3310 -0.7862
 4675TIP3    H235517   1.668   4.094  14.637  1.1362 -1.0357  0.2890
 4676TIP3   OH235518   5.801   0.611  16.648 -0.1708  0.2223  0.4880
 4676TIP3    H135519   5.846   0.546  16.594  0.9291  0.8475  0.6138
 4676TIP3    H235520   5.734   0.648  16.590  0.5666  0.4347 -0.2492
 4677TIP3   OH235521   1.355   5.925   1.738  0.0370 -0.1829  0.1101
 4677TIP3    H135522   1.335   5.958   1.651 -0.7435  1.2882  0.8117
 4677TIP3    H235523   1.451   5.918   1.740  0.2084  1.5690 -0.2596
 4678TIP3   OH235524   2.600   0.359  10.798 -0.6915 -0.1905  0.4737
 4678TIP3    H135525   2.608   0.354  10.703 -2.1790 -1.1707  0.3559
 4678TIP3    H235526   2.652   0.285  10.830 -0.8334 -0.3432  0.3572
 4679TIP3   OH235527   4.498   0.004  15.372  1.1966  0.0382  0.1424
 4679TIP3    H135528   4.443   0.042  15.440  0.6601 -0.7932  0.1960
 4679TIP3    H235529   4.500   0.070  15.302 -1.4003 -0.5961 -0.6638
 4680TIP3   OH235530   5.451   6.527  15.577 -0.0700 -0.1578 -0.1903
 4680TIP3    H135531   5.387   6.477  15.627 -0.2392  1.6348  1.4811
 4680TIP3    H235532   5.462   6.477  15.496 -1.0513 -2.2622  0.8962
 4681TIP3   OH235533   4.764   4.316  15.316 -0.3145 -0.7772 -0.4561
 4681TIP3    H135534   4.670   4.303  15.309 -0.2407 -1.8873  0.4410
 4681TIP3    H235535   4.777   4.409  15.295 -1.5403 -0.7279 -1.0486
 4682TIP3   OH235536   2.867   5.948   4.612  0.7823  0.9061  0.1988
 4682TIP3    H135537   2.838   5.857   4.614 -0.5897  1.3252  0.4151
 4682TIP3    H235538   2.937   5.952   4.677 -1.5471  0.7334  2.9121
 4683TIP3   OH235539   4.928   2.659   4.135 -0.1550  0.1664  0.3397
 4683TIP3    H135540   4.959   2.662   4.045  0.1623  0.6262  0.4616
 4683TIP3    H235541   4.993   2.608   4.182 -1.5238 -2.1725 -0.1431
 4684TIP3   OH235542   2.883   0.164  12.063  0.9249 -0.5685  0.0503
 4684TIP3    H135543   2.853   0.075  12.083 -0.4709  0.2921  2.2924
 4684TIP3    H235544   2.917   0.197  12.146  0.5004  1.3097 -0.4612
 4685TIP3   OH235545   5.153   1.235  11.189  0.4987  0.2179  0.6613
 4685TIP3    H135546   5.166   1.262  11.098 -1.2329  0.3012  0.3970
 4685TIP3    H235547   5.236   1.196  11.215  1.2804  0.9006 -0.7025
 4686TIP3   OH235548   5.676   5.566   1.922  0.2685 -0.3482  0.3085
 4686TIP3    H135549   5.630   5.591   2.002  1.2939  2.5934  0.1010
 4686TIP3    H235550   5.616   5.591   1.852  0.1343 -1.2112  0.1050
 4687TIP3   OH235551   3.581   4.466  12.685 -0.6060 -0.1606 -0.0149
 4687TIP3    H135552   3.571   4.526  12.611  1.0272  0.1174 -0.0583
 4687TIP3    H235553   3.611   4.521  12.757 -1.9343 -0.4749  0.8003
 4688TIP3   OH235554   2.790   2.535   0.341 -0.1795 -0.5289 -0.1060
 4688TIP3    H135555   2.808   2.442   0.358  1.5350 -0.1488  0.4624
 4688TIP3    H235556   2.859   2.562   0.280  1.4959  1.1175  2.3216
 4689TIP3   OH235557   2.377   2.834   3.755 -0.8679  0.5421  0.1147
 4689TIP3    H135558   2.333   2.807   3.836 -0.2374 -1.0524 -0.0517
 4689TIP3    H235559   2.466   2.857   3.783 -1.2229  1.9758  0.1603
 4690TIP3   OH235560   1.027   4.166   3.601  0.1390  0.3459 -0.0327
 4690TIP3    H135561   1.057   4.205   3.684 -1.1074  3.1923 -0.7735
 4690TIP3    H235562   0.982   4.238   3.557  0.0141 -1.3234 -2.8271
 4691TIP3   OH235563   0.589   2.049   4.621  0.7058 -0.3267 -0.0994
 4691TIP3    H135564   0.603   1.960   4.589 -0.2181 -0.5837  0.1860
 4691TIP3    H235565   0.496   2.053   4.643  0.8745  0.5006  0.5399
 4692TIP3   OH235566   5.615   4.469  11.365  0.3291 -0.7079 -0.0827
 4692TIP3    H135567   5.530   4.470  11.322  0.7434  0.0867 -0.8940
 4692TIP3    H235568   5.674   4.514  11.305  0.8114  0.9314  1.5214
 4693TIP3   OH235569   1.015   2.649  14.825 -0.1221  0.0169  0.6565
 4693TIP3    H135570   1.085   2.708  14.799  0.8629 -1.5439 -0.3953
 4693TIP3    H235571   1.039   2.621  14.914  0.1106  0.1732  0.6433
 4694TIP3   OH235572   0.328   2.183  10.978 -0.4347 -0.2152 -0.5208
 4694TIP3    H135573   0.269   2.257  10.962 -1.5891 -1.1087 -0.4997
 4694TIP3    H235574   0.415   2.216  10.953 -0.6806  1.5975  0.7804
 4695TIP3   OH235575   3.907   5.118  13.651  0.7420 -0.0865 -0.3334
 4695TIP3    H135576   3.919   5.195  13.706  0.3569 -0.1463 -0.1678
 4695TIP3    H235577   3.840   5.144  13.588  0.0056 -0.5655  0.2441
 4696TIP3   OH235578   5.349   0.524  16.033 -0.6135  0.2947  0.0232
 4696TIP3    H135579   5.289   0.597  16.015 -1.8662 -0.8953 -0.8869
 4696TIP3    H235580   5.297   0.446  16.014  0.7967 -0.8379  0.6437
 4697TIP3   OH235581   0.811   5.478   6.082  0.1325  0.0459  0.3022
 4697TIP3    H135582   0.793   5.538   6.154 -0.8466 -0.4980  0.5334
 4697TIP3    H235583   0.873   5.414   6.118  1.0033  0.7627  0.1203
 4698TIP3   OH235584   2.879   5.088  16.919 -0.1192  0.7344  0.5568
 4698TIP3    H135585   2.933   5.148  16.867 -2.6958  2.5715 -0.2280
 4698TIP3    H235586   2.790   5.102  16.887 -1.5351  0.1641  3.7803
 4699TIP3   OH235587   5.730   1.052  16.338 -0.1933 -0.5004  0.1293
 4699TIP3    H135588   5.736   0.984  16.272  0.2627 -0.4398  0.1037
 4699TIP3    H235589   5.718   1.133  16.289  2.2276 -0.1540 -0.0403
 4700TIP3   OH235590   1.050   5.420   2.369 -0.3817 -0.0439  0.1156
 4700TIP3    H135591   1.112   5.482   2.328  0.1069 -0.2597  0.5184
 4700TIP3    H235592   1.096   5.337   2.368 -0.1452  0.0536  1.5866
 4701TIP3   OH235593   0.226   3.336   3.579 -0.0725 -0.8409  0.2574
 4701TIP3    H135594   0.307   3.334   3.630 -0.2335 -0.6174  0.5253
 4701TIP3    H235595   0.186   3.421   3.599  1.2921  0.6005 -2.5133
 4702TIP3   OH235596   1.832   4.195   3.220 -0.2117  0.0077  0.1974
 4702TIP3    H135597   1.757   4.243   3.186 -0.0645 -0.3238 -0.6325
 4702TIP3    H235598   1.812   4.180   3.312 -0.6174  0.9562  0.2715
 4703TIP3   OH235599   1.857   4.290   4.064  0.0050  0.3446  0.0081
 4703TIP3    H135600   1.822   4.343   4.135 -0.8642  1.2051 -1.0293
 4703TIP3    H235601   1.922   4.345   4.021  1.3456 -0.5750  0.7829
 4704TIP3   OH235602   4.174   2.898   0.739 -0.4429 -0.4433 -0.3048
 4704TIP3    H135603   4.174   2.853   0.823  1.0255 -1.6032 -0.8579
 4704TIP3    H235604   4.094   2.868   0.695 -1.0614 -0.0588  0.5445
 4705TIP3   OH235605   6.591   0.927  16.108  0.0166 -0.0916  0.2055
 4705TIP3    H135606   6.539   0.897  16.182  0.5367 -0.7286  0.3290
 4705TIP3    H235607   6.558   0.876  16.034 -0.8397  0.9045 -0.1089
 4706TIP3   OH235608   2.197   6.257  12.236  0.3461  0.3067  0.2106
 4706TIP3    H135609   2.149   6.239  12.317  0.9535 -1.4018  0.2419
 4706TIP3    H235610   2.222   6.349  12.243  0.1761  0.2672  1.8726
 4707TIP3   OH235611   0.027   4.214   4.272  0.1720 -0.1451 -0.3107
 4707TIP3    H135612   0.081   4.228   4.194  0.8710  2.3096  0.5562
 4707TIP3    H235613   0.021   4.118   4.279  1.8289 -0.4531 -2.1593
 4708TIP3   OH235614   4.887   5.990  15.461 -0.4104 -0.0056 -0.3956
 4708TIP3    H135615   4.871   6.076  15.422 -0.7369  0.7896  1.3627
 4708TIP3    H235616   4.980   5.991  15.483 -0.1710 -0.5483 -1.3474
 4709TIP3   OH235617   5.894   1.318   3.934  0.1231  0.4279 -0.0326
 4709TIP3    H135618   5.840   1.363   3.870  1.7938  0.5130 -1.4402
 4709TIP3    H235619   5.966   1.378   3.952  1.1882 -0.7391 -0.2563
 4710TIP3   OH235620   6.506   3.255   2.736 -0.5141 -0.0676  0.2411
 4710TIP3    H135621   6.552   3.335   2.764 -1.0269  0.1665  0.4289
 4710TIP3    H235622   6.569   3.210   2.681  0.8789 -0.9737  2.4317
 4711TIP3   OH235623   3.989   5.306   0.629  0.2316 -0.0405 -0.2559
 4711TIP3    H135624   3.986   5.378   0.566 -1.5218  1.3057  1.2379
 4711TIP3    H235625   4.064   5.326   0.685  1.1028 -0.6348 -1.1627
 4712TIP3   OH235626   3.531   2.175   5.059 -0.6021  0.1198 -0.5314
 4712TIP3    H135627   3.608   2.121   5.041 -0.3740  0.9987 -2.3532
 4712TIP3    H235628   3.457   2.114   5.051 -0.1656 -0.7191  1.2026
 4713TIP3   OH235629   1.970   1.080  17.203  0.1899 -0.1136 -0.4378
 4713TIP3    H135630   2.004   1.160  17.244  0.4680 -1.8932  3.2223
 4713TIP3    H235631   2.030   1.062  17.131  0.8801  2.2256 -0.5364
 4714TIP3   OH235632   3.522   3.004   2.653 -0.3068 -0.6192 -0.1557
 4714TIP3    H135633   3.549   3.064   2.723  0.8011 -0.4537 -0.6944
 4714TIP3    H235634   3.576   2.926   2.667 -0.9530 -1.0603 -0.1098
 4715TIP3   OH235635   5.004   2.338  15.605 -0.7033  0.0437  0.1070
 4715TIP3    H135636   5.058   2.311  15.680 -1.0109  1.8964  1.0547
 4715TIP3    H235637   4.969   2.256  15.570  1.8001 -1.1188  0.1332
 4716TIP3   OH235638   6.631   1.946  15.949 -0.6292 -0.2010  0.3172
 4716TIP3    H135639   6.587   1.934  16.033 -0.2580  0.0327  0.5483
 4716TIP3    H235640   6.573   1.905  15.885 -0.7318 -0.7169  0.7362
 4717TIP3   OH235641   1.154   5.489   0.508  0.8611 -0.1357  0.1760
 4717TIP3    H135642   1.092   5.562   0.507  1.8541  0.7432  0.5338
 4717TIP3    H235643   1.167   5.471   0.601  0.0435 -1.3095  0.0919
 4718TIP3   OH235644   0.403   1.618   3.589 -0.3089  0.0179 -0.3076
 4718TIP3    H135645   0.335   1.551   3.586  0.6824 -0.9923 -0.5479
 4718TIP3    H235646   0.417   1.633   3.683 -0.9389  0.3250 -0.2551
 4719TIP3   OH235647   1.704   0.256   0.330 -0.1230 -0.0032 -0.2871
 4719TIP3    H135648   1.712   0.347   0.301 -1.5430  1.2272  2.7035
 4719TIP3    H235649   1.790   0.236   0.367 -0.2253  0.7062  0.3802
 4720TIP3   OH235650   6.722   1.746  13.718  0.2848  0.9933 -0.3435
 4720TIP3    H135651   6.801   1.729  13.769  0.2429 -0.2675 -0.6752
 4720TIP3    H235652   6.652   1.753  13.784  0.2552 -0.4866 -0.1964
 4721TIP3   OH235653   4.452   4.113  11.960  0.5865  0.1808 -0.2739
 4721TIP3    H135654   4.466   4.027  11.999 -0.9119 -0.1356 -0.3801
 4721TIP3    H235655   4.504   4.111  11.879  0.6625 -0.5731 -0.2169
 4722TIP3   OH235656   1.630   5.805  11.037  0.4471  0.6766 -0.0599
 4722TIP3    H135657   1.592   5.862  10.970 -1.5510 -1.6239 -1.0207
 4722TIP3    H235658   1.695   5.753  10.990 -1.4332 -1.4164 -0.4723
 4723TIP3   OH235659   0.965   2.529  12.070 -0.4785  0.7110 -0.2150
 4723TIP3    H135660   0.983   2.590  12.142  0.6274  0.0888  0.0641
 4723TIP3    H235661   0.923   2.454  12.113  0.5502  0.1644 -0.1335
 4724TIP3   OH235662   5.055   6.168  12.659  0.3171 -0.6838  0.2959
 4724TIP3    H135663   5.070   6.256  12.624 -0.6505 -1.1946 -1.4657
 4724TIP3    H235664   5.143   6.132  12.671  0.7513  0.6369  1.4650
 4725TIP3   OH235665   0.335   1.677   0.714 -0.4721  0.2601 -0.1612
 4725TIP3    H135666   0.408   1.702   0.657  0.5803  0.4864  1.2455
 4725TIP3    H235667   0.349   1.584   0.733 -1.0856  0.0626 -0.6190
 4726TIP3   OH235668   5.039   3.237   3.122  0.6037  0.0512 -0.2060
 4726TIP3    H135669   5.038   3.219   3.028  3.6031 -2.4800  0.0404
 4726TIP3    H235670   4.995   3.161   3.161 -0.0463  0.7640  0.4779
 4727TIP3   OH235671   2.007   3.673   4.091  0.1129 -0.4696  0.3974
 4727TIP3    H135672   2.091   3.707   4.062  0.5489 -0.6534  1.4206
 4727TIP3    H235673   1.942   3.726   4.044  0.7865  1.0330  1.1153
 4728TIP3   OH235674   0.362   5.727   5.254 -0.0474 -0.6701  0.5807
 4728TIP3    H135675   0.339   5.798   5.314  0.3458  0.4880 -0.5806
 4728TIP3    H235676   0.450   5.701   5.279  0.1830 -0.0704  0.4026
 4729TIP3   OH235677   4.968   5.237  12.220  0.0289  0.4920  0.1606
 4729TIP3    H135678   4.959   5.284  12.137 -0.0397  3.3771  1.6595
 4729TIP3    H235679   5.062   5.225  12.231  0.0682  0.5412 -0.1181
 4730TIP3   OH235680   3.620   6.749  16.717 -0.3661  0.1458  0.0932
 4730TIP3    H135681   3.563   6.677  16.689 -2.0043  1.0329  0.9742
 4730TIP3    H235682   3.676   6.766  16.641 -0.7760 -1.2475 -0.5517
 4731TIP3   OH235683   3.438   3.955   0.247  0.0338 -0.0985 -0.4156
 4731TIP3    H135684   3.498   3.901   0.299  0.7743  0.7060 -0.4106
 4731TIP3    H235685   3.357   3.905   0.244  1.3451 -2.3259 -2.2838
 4732TIP3   OH235686   3.271   5.898   0.215  0.2301  0.1698  0.1049
 4732TIP3    H135687   3.202   5.871   0.276  0.2441 -0.1265 -0.0060
 4732TIP3    H235688   3.261   5.839   0.140  1.4070 -0.7495  0.6241
 4733TIP3   OH235689   6.670   0.203  17.090  0.1489 -0.3523 -0.0441
 4733TIP3    H135690   6.713   0.286  17.070  1.2643 -0.8101  0.3763
 4733TIP3    H235691   6.728   0.136  17.054 -1.6814 -0.9293 -2.1239
 4734TIP3   OH235692   1.189   1.375   2.189  0.0304 -0.0183 -0.0842
 4734TIP3    H135693   1.276   1.339   2.173 -0.6270 -1.8411  0.1666
 4734TIP3    H235694   1.188   1.458   2.142  1.5843 -0.3962 -0.8460
 4735TIP3   OH235695   2.431   6.138   5.948  0.4898 -0.2206  0.0447
 4735TIP3    H135696   2.363   6.188   5.902  1.1446 -2.0164 -3.1481
 4735TIP3    H235697   2.384   6.061   5.983  0.2566  0.4224  1.1940
 4736TIP3   OH235698   6.384   3.661  17.412 -0.0317 -0.1140  0.0513
 4736TIP3    H135699   6.352   3.734  17.360  2.7754 -0.0239 -1.7945
 4736TIP3    H235700   6.305   3.615  17.441 -1.7944  1.5821 -1.7522
 4737TIP3   OH235701   3.415   6.589  16.263  0.6621 -0.4443 -0.7777
 4737TIP3    H135702   3.391   6.681  16.265  0.5230 -0.4916  0.1062
 4737TIP3    H235703   3.511   6.589  16.255  0.6199 -0.2297 -1.2728
 4738TIP3   OH235704   3.897   1.808  12.630  0.3492  0.2257  0.1863
 4738TIP3    H135705   3.935   1.810  12.718  0.6504 -0.9903  0.0938
 4738TIP3    H235706   3.812   1.766  12.642  0.6355 -0.4792 -0.1780
 4739TIP3   OH235707   6.305   3.976  12.235  0.0414 -0.4663 -0.6097
 4739TIP3    H135708   6.277   4.017  12.316 -0.6703  0.7699 -1.4430
 4739TIP3    H235709   6.224   3.949  12.192  0.1308  1.4821 -2.1945
 4740TIP3   OH235710   4.187   1.131   1.197  0.6359  0.0479  0.2197
 4740TIP3    H135711   4.201   1.076   1.274  2.2107 -0.2195 -0.2195
 4740TIP3    H235712   4.275   1.163   1.174  0.1161  0.5713 -1.1325
 4741TIP3   OH235713   4.427   3.421  16.331 -0.4225 -0.0449 -0.0574
 4741TIP3    H135714   4.456   3.331  16.315 -1.4969 -0.1437 -1.6580
 4741TIP3    H235715   4.508   3.470  16.346  0.1177 -1.5031  2.4477
 4742TIP3   OH235716   1.676   3.523  14.423  0.6707 -0.1758  0.4476
 4742TIP3    H135717   1.718   3.520  14.509 -0.9977  0.0811  1.3104
 4742TIP3    H235718   1.621   3.445  14.420  1.1937 -0.5212 -0.6711
 4743TIP3   OH235719   0.530   4.216   5.700 -0.1684  0.0680 -0.2709
 4743TIP3    H135720   0.565   4.217   5.611 -0.0992 -0.0368 -0.2446
 4743TIP3    H235721   0.478   4.136   5.705 -0.7612  0.4314 -0.4432
 4744TIP3   OH235722   1.706   1.166  16.952  0.1370  0.1595 -0.2547
 4744TIP3    H135723   1.791   1.184  16.912  1.1238 -0.4925  1.4491
 4744TIP3    H235724   1.642   1.199  16.888  1.6530  0.9130 -1.4550
 4745TIP3   OH235725   6.701   0.216  16.338 -0.5689  0.2606  0.0865
 4745TIP3    H135726   6.772   0.277  16.317 -0.2278  0.0241  0.5231
 4745TIP3    H235727   6.642   0.221  16.263  0.5648 -0.4864 -0.8982
 4746TIP3   OH235728   1.715   0.583  15.810  0.0226 -0.2195 -0.8441
 4746TIP3    H135729   1.734   0.492  15.789  1.3933 -0.4982  1.3121
 4746TIP3    H235730   1.656   0.579  15.885  0.5772  0.6675 -0.3470
 4747TIP3   OH235731   5.519   5.613   3.790  0.1603 -0.0855  0.0158
 4747TIP3    H135732   5.450   5.678   3.802 -1.8206 -2.0280 -0.0974
 4747TIP3    H235733   5.588   5.659   3.742 -1.6481  1.5983 -1.1180
 4748TIP3   OH235734   2.789   0.790  16.460 -0.1845  0.1080 -0.4946
 4748TIP3    H135735   2.884   0.798  16.471  0.0226 -1.4328 -0.9675
 4748TIP3    H235736   2.758   0.753  16.542 -0.3706  0.5407 -0.3690
 4749TIP3   OH235737   5.722   2.489  15.650  0.1830 -0.5765 -0.0423
 4749TIP3    H135738   5.668   2.416  15.679 -0.9042  0.8970  1.9394
 4749TIP3    H235739   5.659   2.559  15.633  1.3158  0.5691  0.3316
 4750TIP3   OH235740   0.912   6.269  15.256 -0.0243  0.3007  0.1555
 4750TIP3    H135741   0.971   6.209  15.303 -0.7025  0.0576  0.7151
 4750TIP3    H235742   0.962   6.296  15.179 -0.1060 -1.8911 -0.7416
 4751TIP3   OH235743   0.978   5.021   0.151 -0.0153  0.0222  0.1255
 4751TIP3    H135744   0.982   5.065   0.067  1.6727 -1.5247 -0.6610
 4751TIP3    H235745   0.981   4.927   0.130 -0.4754 -0.4284  1.8659
 4752TIP3   OH235746   5.646   3.006   0.556 -0.0216  0.0898 -0.1847
 4752TIP3    H135747   5.674   3.033   0.468 -1.1099 -0.4760 -0.7326
 4752TIP3    H235748   5.722   3.021   0.611  1.7598 -2.3686 -1.7732
 4753TIP3   OH235749   6.158   4.443   4.969 -0.1864 -0.0709 -0.3308
 4753TIP3    H135750   6.165   4.511   4.901 -0.1486  2.4049  1.9994
 4753TIP3    H235751   6.242   4.446   5.015 -1.2184  0.3644  1.6112
 4754TIP3   OH235752   4.168   0.305  15.578 -0.3970 -0.4818 -0.2368
 4754TIP3    H135753   4.210   0.281  15.496 -0.5554  0.0565 -0.4758
 4754TIP3    H235754   4.149   0.398  15.570  0.7748 -0.1135  0.9304
 4755TIP3   OH235755   4.201   0.843  15.793 -0.1029 -0.1549  0.4290
 4755TIP3    H135756   4.281   0.802  15.760 -0.6497 -0.3447 -0.7010
 4755TIP3    H235757   4.219   0.937  15.790  0.0212 -0.1894  0.0029
 4756TIP3   OH235758   0.014   3.716  11.621 -0.0506 -0.2529 -0.2166
 4756TIP3    H135759   0.096   3.730  11.574  1.1177  1.2783  2.1239
 4756TIP3    H235760   0.014   3.623  11.642  0.9974 -0.3073 -0.4174
 4757TIP3   OH235761   0.686   5.515   2.701  0.1728  0.3597  0.4690
 4757TIP3    H135762   0.659   5.454   2.770 -0.9412 -0.6670 -0.8376
 4757TIP3    H235763   0.736   5.462   2.639  2.1447  1.4961  0.9702
 4758TIP3   OH235764   1.797   0.136  15.070 -0.3022 -0.2316  0.5756
 4758TIP3    H135765   1.715   0.089  15.083 -0.9328  0.4396 -0.7226
 4758TIP3    H235766   1.815   0.177  15.154 -0.9879 -0.8763  1.0448
 4759TIP3   OH235767   2.586   5.937   4.049 -0.4514 -0.1275  0.1592
 4759TIP3    H135768   2.587   5.943   3.954  1.6239  0.3613  0.1493
 4759TIP3    H235769   2.517   5.997   4.077 -1.2083 -0.4203 -1.0252
 4760TIP3   OH235770   5.802   6.025  11.911  0.2287 -0.2388 -0.0742
 4760TIP3    H135771   5.829   5.988  11.827  0.8890  0.0998 -0.0244
 4760TIP3    H235772   5.707   6.025  11.909  0.2409 -0.0309 -0.9189
 4761TIP3   OH235773   5.753   3.636  12.106 -0.6673  0.2866  0.5637
 4761TIP3    H135774   5.682   3.621  12.043 -1.3087  2.1416  0.8106
 4761TIP3    H235775   5.761   3.552  12.152 -2.2089 -0.1995  0.0335
 4762TIP3   OH235776   6.041   0.532   5.087 -0.1674 -0.0367 -0.4923
 4762TIP3    H135777   6.037   0.469   5.015 -0.7409  1.2785 -1.6659
 4762TIP3    H235778   6.130   0.566   5.084 -0.3306  0.3691 -0.9178
 4763TIP3   OH235779   2.168   3.097  14.595  0.6442  0.5907  0.5704
 4763TIP3    H135780   2.197   3.132  14.511 -0.1632  0.7342  0.3406
 4763TIP3    H235781   2.198   3.161  14.659  2.6910 -0.3084  0.5966
 4764TIP3   OH235782   5.101   3.877   0.910  0.1782  0.1329  0.3873
 4764TIP3    H135783   5.035   3.846   0.849  0.6665  0.8145 -0.5125
 4764TIP3    H235784   5.179   3.824   0.890 -0.0867 -0.7114  1.4818
 4765TIP3   OH235785   1.134   3.858  15.488 -0.1616 -0.4160 -0.5213
 4765TIP3    H135786   1.080   3.781  15.470 -0.4192 -0.4913  0.5179
 4765TIP3    H235787   1.224   3.828  15.476 -0.3280 -0.1616 -2.7560
 4766TIP3   OH235788   3.598   6.083   2.613  0.0515 -0.3923 -0.2357
 4766TIP3    H135789   3.613   6.077   2.519 -1.0418 -0.2701 -0.4246
 4766TIP3    H235790   3.643   6.007   2.649  1.2015  0.0151 -0.7501
 4767TIP3   OH235791   0.069   2.545  14.238 -0.3046 -0.4774 -0.3916
 4767TIP3    H135792   0.098   2.565  14.150  1.4939 -3.4616 -0.6269
 4767TIP3    H235793   0.143   2.566  14.294 -1.5859  1.8215  0.5661
 4768TIP3   OH235794   1.659   0.444   6.050  0.3008 -0.7427  0.5886
 4768TIP3    H135795   1.654   0.427   6.144 -0.2871  1.2523  0.9734
 4768TIP3    H235796   1.639   0.537   6.042 -1.1845 -1.1855 -1.6514
 4769TIP3   OH235797   5.045   1.428  16.230  0.1269  0.1574  0.6394
 4769TIP3    H135798   5.059   1.350  16.284  1.6368  1.2016  1.8804
 4769TIP3    H235799   4.954   1.452  16.245  0.0810 -0.5037  1.4721
 4770TIP3   OH235800   4.593   1.696   0.199 -0.2319  0.0675 -0.3934
 4770TIP3    H135801   4.500   1.720   0.203 -0.0070  0.8571  0.5831
 4770TIP3    H235802   4.609   1.649   0.281 -0.0323 -1.1260 -1.0945
 4771TIP3   OH235803   0.768   5.221   3.756 -0.6879  0.1936 -0.0102
 4771TIP3    H135804   0.692   5.165   3.745  0.6219 -1.7910  0.4778
 4771TIP3    H235805   0.791   5.248   3.667 -1.4349  0.1268 -0.2296
 4772TIP3   OH235806   4.730   2.293   0.360 -0.0751 -0.0145  0.7713
 4772TIP3    H135807   4.731   2.276   0.266  1.3017  2.0339  0.3648
 4772TIP3    H235808   4.822   2.300   0.385 -0.3961  2.7506  1.5661
 4773TIP3   OH235809   0.505   3.168  16.056  0.5342 -0.4490 -0.0973
 4773TIP3    H135810   0.423   3.166  16.106  0.4730  0.0843 -0.1740
 4773TIP3    H235811   0.488   3.115  15.979  0.3274 -0.5123 -0.0070
 4774TIP3   OH235812   0.857   0.171  15.843 -0.3602  0.3006 -0.0217
 4774TIP3    H135813   0.879   0.220  15.764  0.4439 -0.2535 -0.1546
 4774TIP3    H235814   0.880   0.230  15.915  1.8237 -0.3182 -0.1481
 4775TIP3   OH235815   6.483   1.304   5.396 -0.2591 -0.8377 -0.8089
 4775TIP3    H135816   6.518   1.269   5.314 -1.0558 -1.2364 -0.9935
 4775TIP3    H235817   6.426   1.234   5.429  0.7531 -1.0621  0.5619
 4776TIP3   OH235818   4.303   1.702   4.671  0.1986 -0.5664  0.6905
 4776TIP3    H135819   4.262   1.788   4.662 -0.1040 -0.5374  2.1013
 4776TIP3    H235820   4.239   1.650   4.721 -0.0593 -1.9321 -0.9886
 4777TIP3   OH235821   2.228   0.325   1.133 -0.2221 -0.2685  0.4438
 4777TIP3    H135822   2.292   0.271   1.179  0.8325 -1.5432 -2.3152
 4777TIP3    H235823   2.256   0.415   1.148  1.1523 -0.7331  0.7625
 4778TIP3   OH235824   3.475   5.707  17.064  0.7222 -0.2981 -0.0887
 4778TIP3    H135825   3.484   5.801  17.048 -0.8908 -0.3614 -1.6870
 4778TIP3    H235826   3.538   5.666  17.005  2.0703 -0.2318  1.2530
 4779TIP3   OH235827   2.195   3.051   4.075  0.2759 -0.3697 -0.0571
 4779TIP3    H135828   2.289   3.039   4.061  0.3185 -1.1323  0.7846
 4779TIP3    H235829   2.160   2.962   4.081 -0.0368 -0.1525  2.4474
 4780TIP3   OH235830   3.265   4.037   5.398  0.4253 -0.0086  0.1988
 4780TIP3    H135831   3.356   4.037   5.427  0.7875  1.7256 -0.8467
 4780TIP3    H235832   3.255   3.953   5.353  1.6630  0.0309 -0.1791
 4781TIP3   OH235833   0.807   2.607  15.323 -0.3806  0.4471 -0.0783
 4781TIP3    H135834   0.732   2.628  15.379 -0.2667 -1.1391  0.7452
 4781TIP3    H235835   0.878   2.589  15.385 -0.4358 -2.0452 -0.6107
 4782TIP3   OH235836   6.012   6.531  14.454 -0.0404  0.3545  0.4803
 4782TIP3    H135837   5.940   6.472  14.434 -0.7515  1.0777  0.8393
 4782TIP3    H235838   6.085   6.474  14.476 -0.5787 -0.3879  0.3654
 4783TIP3   OH235839   4.328   1.821  14.769 -0.8175 -0.0112 -0.4108
 4783TIP3    H135840   4.275   1.755  14.813 -2.1371  2.4125  1.9303
 4783TIP3    H235841   4.264   1.878  14.727  0.1922  0.6385 -1.1062
 4784TIP3   OH235842   2.905   4.427   5.350  0.0048  0.5000 -0.2985
 4784TIP3    H135843   2.835   4.481   5.387 -0.2989  1.6257 -2.3704
 4784TIP3    H235844   2.976   4.488   5.332  1.6182 -0.6425  1.8172
 4785TIP3   OH235845   1.354   3.647   1.667 -0.3053 -0.1271  0.1374
 4785TIP3    H135846   1.259   3.637   1.663 -0.5099  1.6006  0.1419
 4785TIP3    H235847   1.382   3.633   1.576 -0.6018 -0.2244  0.0569
 4786TIP3   OH235848   2.336   5.997  13.186  0.3722 -0.0022  0.5117
 4786TIP3    H135849   2.320   5.914  13.230  0.5912  0.4893  1.5531
 4786TIP3    H235850   2.406   5.978  13.123  0.9118 -0.4565  1.2318
 4787TIP3   OH235851   2.643   6.693   0.561  0.4783  0.0922 -0.0778
 4787TIP3    H135852   2.651   6.668   0.469  0.5053 -0.6705  0.1245
 4787TIP3    H235853   2.556   6.662   0.588  1.0020 -0.9332  0.5127
 4788TIP3   OH235854   6.220   2.868  13.769  0.5816  0.4780  0.2790
 4788TIP3    H135855   6.203   2.837  13.680 -2.4607  0.9944  0.5750
 4788TIP3    H235856   6.236   2.962  13.759 -0.9794  0.7710  0.3449
 4789TIP3   OH235857   4.914   2.131  11.224  0.1638  0.2850  0.0845
 4789TIP3    H135858   4.909   2.071  11.149 -0.0681 -0.1643  0.4583
 4789TIP3    H235859   4.928   2.074  11.300  0.2607  0.7267  0.4016
 4790TIP3   OH235860   6.074   5.686   2.628  0.0941  0.6522 -0.2130
 4790TIP3    H135861   6.160   5.715   2.596  0.4206 -1.2041 -1.1407
 4790TIP3    H235862   6.019   5.683   2.550  0.3287 -1.9746 -0.3582
 4791TIP3   OH235863   1.678   6.375   0.905  0.2738 -0.0782  0.5641
 4791TIP3    H135864   1.697   6.343   0.993  0.0879  0.8874  0.9617
 4791TIP3    H235865   1.646   6.464   0.918  0.0367 -0.0030 -0.4661
 4792TIP3   OH235866   1.418   6.353  12.272 -0.0512  0.5460  0.6753
 4792TIP3    H135867   1.441   6.337  12.181 -0.8700  1.4056  0.3005
 4792TIP3    H235868   1.461   6.436  12.293 -3.2648  2.6761 -0.3099
 4793TIP3   OH235869   0.957   0.343  17.153  0.4814  0.0336  0.0469
 4793TIP3    H135870   1.005   0.272  17.195 -0.5512  0.3328  1.8689
 4793TIP3    H235871   0.982   0.421  17.202 -1.9250  0.1711  1.2114
 4794TIP3   OH235872   1.132   2.377   4.632 -1.1052  0.5244  0.1296
 4794TIP3    H135873   1.038   2.357   4.639 -1.1824  1.0140  0.5739
 4794TIP3    H235874   1.152   2.365   4.539 -1.2709 -1.0045  0.2641
 4795TIP3   OH235875   6.217   2.900   5.990  0.8594  0.0732  0.1117
 4795TIP3    H135876   6.253   2.840   6.055 -0.5981  0.8999  1.7571
 4795TIP3    H235877   6.239   2.860   5.906  0.6894 -2.3075  1.1227
 4796TIP3   OH235878   5.673   5.808   5.584  0.8491 -0.3280 -0.3624
 4796TIP3    H135879   5.684   5.747   5.658 -0.3654 -0.1180  0.0103
 4796TIP3    H235880   5.706   5.892   5.618 -2.0345  0.4180  0.9203
 4797TIP3   OH235881   2.591   5.093  12.525  0.6171  0.2990 -0.5627
 4797TIP3    H135882   2.641   5.170  12.499  0.3495  0.1679 -1.4851
 4797TIP3    H235883   2.655   5.021  12.524  0.4059  0.1060 -1.8724
 4798TIP3   OH235884   4.474   0.695  12.955 -0.4326  0.0081 -0.2503
 4798TIP3    H135885   4.499   0.767  13.013  1.9258 -2.0408  1.4915
 4798TIP3    H235886   4.532   0.704  12.879 -0.7524  0.4188 -0.4498
 4799TIP3   OH235887   5.470   4.015   5.280 -0.5041 -0.1369 -1.1391
 4799TIP3    H135888   5.479   3.962   5.359  0.1486  0.6380 -0.6818
 4799TIP3    H235889   5.418   3.961   5.221 -0.4314 -0.9993 -0.4312
 4800TIP3   OH235890   4.558   6.562   3.425 -0.1841 -0.2257  0.2942
 4800TIP3    H135891   4.539   6.523   3.340 -2.0817 -3.8549  2.1672
 4800TIP3    H235892   4.632   6.512   3.459  0.4564  1.0635  0.8788
 4801TIP3   OH235893   4.729   5.237   2.917  0.0959 -0.7887 -0.4977
 4801TIP3    H135894   4.660   5.194   2.867 -0.0959 -0.9677 -0.0876
 4801TIP3    H235895   4.798   5.170   2.926  1.2523  0.0140 -2.6691
 4802TIP3   OH235896   2.547   1.171  12.070 -0.0850  0.5262 -0.3661
 4802TIP3    H135897   2.564   1.096  12.128 -0.4080  1.7391  1.4004
 4802TIP3    H235898   2.633   1.203  12.045  0.1196  1.0249  0.9044
 4803TIP3   OH235899   6.432   3.830   1.481 -0.1888 -0.1136 -0.0230
 4803TIP3    H135900   6.446   3.737   1.500 -0.2982 -0.1876 -0.2999
 4803TIP3    H235901   6.518   3.861   1.451  0.0676  0.0788  0.8719
 4804TIP3   OH235902   1.728   6.760   5.393  0.3274 -0.3296  0.3612
 4804TIP3    H135903   1.736   6.681   5.339  0.4602 -0.0495 -0.0336
 4804TIP3    H235904   1.810   6.764   5.441 -0.2815 -1.2582  1.5295
 4805TIP3   OH235905   6.317   4.664  11.640  0.0298 -0.4108 -0.0252
 4805TIP3    H135906   6.382   4.611  11.686  0.4414 -0.2665 -0.4224
 4805TIP3    H235907   6.358   4.684  11.556  0.3411  1.3943  0.4954
 4806TIP3   OH235908   5.111   6.014   2.904 -0.2284 -0.1519 -0.0453
 4806TIP3    H135909   5.174   6.033   2.974 -0.2387  0.4539 -0.1871
 4806TIP3    H235910   5.040   5.966   2.947  0.5613 -1.3020  0.0178
 4807TIP3   OH235911   2.179   4.436   0.714  0.1157 -0.7203  0.0420
 4807TIP3    H135912   2.247   4.481   0.664  1.3927 -1.0348  1.4072
 4807TIP3    H235913   2.217   4.350   0.735 -1.0370 -1.2306  0.1366
 4808TIP3   OH235914   0.812   2.535  16.972 -0.2578 -0.5304  0.2763
 4808TIP3    H135915   0.758   2.498  16.902 -0.9472 -1.3201  1.2102
 4808TIP3    H235916   0.832   2.624  16.942 -0.9803 -0.6766 -0.6766
 4809TIP3   OH235917   3.631   0.410   1.335 -0.0948  0.2007  0.4752
 4809TIP3    H135918   3.614   0.328   1.289  0.0233  0.1161  0.5798
 4809TIP3    H235919   3.681   0.383   1.413 -1.3241  0.1956  1.3030
 4810TIP3   OH235920   0.072   6.000  13.782 -0.4430 -0.2666 -0.0536
 4810TIP3    H135921   0.097   5.951  13.861  0.1411 -0.7571 -0.5230
 4810TIP3    H235922   0.016   5.939  13.734  0.3252 -0.5216 -0.6630
 4811TIP3   OH235923   2.644   6.082  16.271  0.0267  0.2162 -0.3684
 4811TIP3    H135924   2.673   5.991  16.275 -0.9503 -0.1138 -0.5018
 4811TIP3    H235925   2.573   6.082  16.207 -1.0082  0.7648  0.7391
 4812TIP3   OH235926   1.399   4.805  17.066  0.3638  0.1619  0.4842
 4812TIP3    H135927   1.333   4.786  16.999  1.1970 -0.6063 -0.1307
 4812TIP3    H235928   1.457   4.729  17.066  0.0948 -0.1112  2.4490
 4813TIP3   OH235929   4.525   5.135   1.051 -0.2363 -0.7662 -0.3803
 4813TIP3    H135930   4.433   5.108   1.045  0.3068 -2.8049 -0.3046
 4813TIP3    H235931   4.522   5.230   1.049 -2.2917 -0.7917 -1.2553
 4814TIP3   OH235932   2.892   5.525  16.002 -0.1947 -0.4936  0.3176
 4814TIP3    H135933   2.800   5.541  16.020  0.3203  0.2782  2.6768
 4814TIP3    H235934   2.927   5.610  15.975  0.0947 -0.4615  0.7824
 4815TIP3   OH235935   1.276   1.740  16.405 -0.8396 -0.2808  0.4237
 4815TIP3    H135936   1.227   1.816  16.437 -0.1860  0.2164  0.2724
 4815TIP3    H235937   1.360   1.776  16.377  0.7063 -1.4230  3.1321
 4816TIP3   OH235938   4.978   3.102   4.808 -0.0475  0.0611  0.1924
 4816TIP3    H135939   5.017   3.076   4.725 -0.2758  0.3167  0.0028
 4816TIP3    H235940   5.021   3.185   4.829 -1.0503  0.7574 -0.4202
 4817TIP3   OH235941   0.426   0.764   0.402 -0.2018 -0.2196  0.3113
 4817TIP3    H135942   0.457   0.697   0.462  2.9424  0.6930 -0.0849
 4817TIP3    H235943   0.457   0.735   0.316 -0.7448  0.6225 -0.1822
 4818TIP3   OH235944   5.241   2.663   4.015  0.6961 -0.3203 -0.0446
 4818TIP3    H135945   5.236   2.616   4.098 -3.6902  2.3917  1.5878
 4818TIP3    H235946   5.188   2.611   3.954  1.8474 -1.0086 -0.5120
 4819TIP3   OH235947   6.111   3.488   3.292 -0.5698 -0.3764 -0.2783
 4819TIP3    H135948   6.044   3.553   3.268  0.5339 -0.0138 -2.7279
 4819TIP3    H235949   6.192   3.523   3.254  0.6796 -1.6698  1.0870
 4820TIP3   OH235950   0.155   0.626   3.055  0.0390 -0.1848  0.5926
 4820TIP3    H135951   0.144   0.540   3.014 -0.6188 -0.1230  0.6224
 4820TIP3    H235952   0.194   0.680   2.987  0.4056 -0.4910  0.5562
 4821TIP3   OH235953   0.878   6.675  13.571  0.1995  0.1632  0.6399
 4821TIP3    H135954   0.943   6.731  13.614 -0.6045  2.2313 -0.6903
 4821TIP3    H235955   0.923   6.637  13.496  0.2974  0.3936  0.5811
 4822TIP3   OH235956   2.817   6.527  14.587 -0.8433  0.1725 -0.1931
 4822TIP3    H135957   2.860   6.454  14.543 -2.8187 -1.2609  0.0950
 4822TIP3    H235958   2.842   6.604  14.536 -0.1162 -0.9324 -1.5857
 4823TIP3   OH235959   2.114   4.814   3.376  0.0794  0.0360  0.2520
 4823TIP3    H135960   2.155   4.731   3.352  0.4344  0.1385  0.5013
 4823TIP3    H235961   2.106   4.862   3.294  0.6134  0.0872  0.2289
 4824TIP3   OH235962   4.824   0.127   4.277  0.0434  0.1133  0.3594
 4824TIP3    H135963   4.788   0.209   4.311  3.0548  0.7780  2.3932
 4824TIP3    H235964   4.881   0.154   4.204 -2.5000 -0.8097 -2.1709
 4825TIP3   OH235965   0.560   5.746   4.957 -0.2237  0.7373 -0.7992
 4825TIP3    H135966   0.550   5.699   4.874  2.7789  1.0074 -1.4344
 4825TIP3    H235967   0.519   5.689   5.022  0.6289 -1.3046 -1.9636
 4826TIP3   OH235968   2.811   3.773   4.678  0.2099  0.4223 -0.3538
 4826TIP3    H135969   2.816   3.706   4.746 -1.5542  0.3004 -0.2987
 4826TIP3    H235970   2.765   3.847   4.720  0.0079  0.7348 -1.1033
 4827TIP3   OH235971   5.993   2.767  14.566 -0.2097 -0.2910  0.3168
 4827TIP3    H135972   5.919   2.788  14.508 -0.6093  0.7945  1.1855
 4827TIP3    H235973   5.959   2.698  14.623 -0.6509  0.3788  0.8778
 4828TIP3   OH235974   1.284   1.751   1.732 -0.0798  0.4113 -0.4146
 4828TIP3    H135975   1.191   1.744   1.712 -0.3261 -0.2546  0.8408
 4828TIP3    H235976   1.328   1.705   1.661 -1.0321 -3.9232  1.4857
 4829TIP3   OH235977   4.625   0.595   2.064  0.1489 -0.2851  0.5507
 4829TIP3    H135978   4.695   0.629   2.120  0.3796  1.6074 -0.8303
 4829TIP3    H235979   4.662   0.516   2.025  0.4402 -0.9234  2.0478
 4830TIP3   OH235980   0.016   4.936   4.042  0.5550  0.2095  0.2735
 4830TIP3    H135981  -0.012   4.913   3.953 -0.4332  1.1560  0.3200
 4830TIP3    H235982  -0.040   5.010   4.066  0.9905  0.1285  1.5886
 4831TIP3   OH235983   2.010   3.181   1.925  0.4552 -0.1969  0.3755
 4831TIP3    H135984   1.989   3.250   1.988 -0.1432  1.9046 -1.9633
 4831TIP3    H235985   2.014   3.101   1.978 -2.5757  0.9767  2.6925
 4832TIP3   OH235986   1.341   3.579   2.633 -0.8858  0.5461 -0.1897
 4832TIP3    H135987   1.251   3.579   2.601 -0.8340  1.4306 -0.3719
 4832TIP3    H235988   1.333   3.550   2.724 -1.3573  0.6186 -0.2026
 4833TIP3   OH235989   3.018   5.861   1.091 -0.3968 -0.0791 -0.5431
 4833TIP3    H135990   2.953   5.834   1.026  0.7803  0.8319 -2.1448
 4833TIP3    H235991   3.068   5.931   1.049  0.8189  0.1238  1.1176
 4834TIP3   OH235992   5.909   0.079   5.493 -0.2968 -0.3841 -0.3165
 4834TIP3    H135993   5.863   0.127   5.425  1.2240  1.4556 -0.1428
 4834TIP3    H235994   5.900   0.133   5.571  3.0796  0.7930 -0.5629
 4835TIP3   OH235995   5.888   0.081   3.776  0.2869  0.3517 -0.3588
 4835TIP3    H135996   5.908   0.046   3.862  0.4680 -0.8380 -0.8565
 4835TIP3    H235997   5.925   0.017   3.715  0.1510  1.1560 -1.3235
 4836TIP3   OH235998   3.218   4.950   3.784  0.0842 -0.0857  0.1720
 4836TIP3    H135999   3.245   4.877   3.839  1.7405  0.5203  0.2475
 4836TIP3    H236000   3.227   4.918   3.695  0.2662 -0.1479  0.2127
 4837TIP3   OH236001   3.457   4.613   4.940  0.6683 -0.3390 -0.3133
 4837TIP3    H136002   3.370   4.579   4.921  1.7210 -1.8465 -2.8011
 4837TIP3    H236003   3.443   4.706   4.958 -1.4486 -0.5727 -0.5440
 4838TIP3   OH236004   3.013   3.166   6.684 -0.0478  0.2240  0.2691
 4838TIP3    H136005   3.085   3.228   6.675  1.4067 -1.0003  2.4897
 4838TIP3    H236006   2.936   3.221   6.698  0.5409  1.5489 -1.3429
 4839TIP3   OH236007   4.177   2.382   5.218 -0.5634 -0.0050  0.0815
 4839TIP3    H136008   4.216   2.466   5.193  0.7948 -0.3503  0.9259
 4839TIP3    H236009   4.146   2.345   5.135  1.7608 -0.1081 -0.8051
 4840TIP3   OH236010   5.446   2.655  12.310 -0.4774  0.1933 -0.0964
 4840TIP3    H136011   5.492   2.735  12.286 -0.2495  0.0263 -0.2208
 4840TIP3    H236012   5.457   2.598  12.234 -2.4049  0.7849 -0.8867
 4841TIP3   OH236013   1.118   1.765  15.744  0.3314  0.1861  0.1047
 4841TIP3    H136014   1.061   1.688  15.735  0.8630 -0.0194 -1.8899
 4841TIP3    H236015   1.206   1.729  15.751  0.4106  0.5724  1.2723
 4842TIP3   OH236016   5.480   0.987   5.246 -0.1771  0.0947  0.1391
 4842TIP3    H136017   5.459   0.962   5.336  0.6971  1.4091  0.7334
 4842TIP3    H236018   5.488   1.082   5.248 -2.6645  0.4560 -1.8793
 4843TIP3   OH236019   4.503   6.041   3.779  0.1355  0.0257  0.1799
 4843TIP3    H136020   4.486   6.067   3.689  0.7606  0.3987  0.1644
 4843TIP3    H236021   4.458   6.108   3.832  0.6172  0.3854  0.1404
 4844TIP3   OH236022   2.655   6.035  11.878 -0.7503 -0.6180 -0.3245
 4844TIP3    H136023   2.621   6.017  11.790 -2.1257  1.1010 -0.2027
 4844TIP3    H236024   2.656   6.131  11.885 -0.6655 -0.7087  1.5212
 4845TIP3   OH236025   3.636   1.267  14.220 -0.8446 -0.1384  0.3456
 4845TIP3    H136026   3.668   1.251  14.131 -0.9498  1.4337 -0.0011
 4845TIP3    H236027   3.609   1.359  14.220 -0.1534  0.1123  2.2168
 4846TIP3   OH236028   5.938   5.836   5.296  0.1842  0.3320 -0.0427
 4846TIP3    H136029   5.946   5.774   5.369 -1.4667 -0.6019 -0.5953
 4846TIP3    H236030   6.028   5.855   5.270  0.7590 -1.6941  0.2966
 4847TIP3   OH236031   0.918   5.579  12.585  0.0287 -0.4905  0.3658
 4847TIP3    H136032   0.848   5.521  12.615  0.2574 -0.0894  1.7880
 4847TIP3    H236033   0.876   5.665  12.578 -0.1856 -0.7002 -1.2228
 4848TIP3   OH236034   4.428   2.975  14.327  0.4213 -0.3048  0.3897
 4848TIP3    H136035   4.429   2.897  14.272 -2.6575  0.3426 -0.8300
 4848TIP3    H236036   4.433   3.048  14.265  2.3031  0.5397  1.4341
 4849TIP3   OH236037   3.096   2.268   2.541 -0.1906  0.0819 -0.8611
 4849TIP3    H136038   3.144   2.292   2.461 -0.3379  1.9114 -0.4386
 4849TIP3    H236039   3.102   2.346   2.596 -0.5745 -0.9592  0.6983
 4850TIP3   OH236040   3.528   1.996   2.397 -0.0493  0.6140 -0.5095
 4850TIP3    H136041   3.591   2.064   2.420 -1.4254  1.5407  0.7278
 4850TIP3    H236042   3.526   1.997   2.301  1.4531  0.8645 -0.5635
 4851TIP3   OH236043   0.550   3.406   1.596 -0.2963  0.0906  0.6622
 4851TIP3    H136044   0.585   3.488   1.631 -3.0291  1.4235  0.6065
 4851TIP3    H236045   0.513   3.361   1.672  0.7214 -0.8664  0.6103
 4852TIP3   OH236046   6.603   4.601   4.375 -0.5029 -0.2424 -0.1660
 4852TIP3    H136047   6.648   4.628   4.456 -3.7750  0.4038  1.6252
 4852TIP3    H236048   6.588   4.683   4.328 -0.1834 -0.4085 -0.5622
 4853TIP3   OH236049   6.446   0.318   5.443  0.4610  0.3569 -0.3044
 4853TIP3    H136050   6.417   0.309   5.534 -1.3232 -0.9107 -0.9373
 4853TIP3    H236051   6.436   0.411   5.423 -0.2271  0.4588  0.4649
 4854TIP3   OH236052   2.149   0.861   2.796  0.3439 -0.2209  0.2389
 4854TIP3    H136053   2.171   0.791   2.734  1.8760  0.9959 -0.6821
 4854TIP3    H236054   2.234   0.889   2.831  0.0312  2.4715 -0.9250
 4855TIP3   OH236055   2.589   2.958   4.890  0.0677  0.0324  0.1526
 4855TIP3    H136056   2.599   2.889   4.825  0.0476 -1.5081  1.7157
 4855TIP3    H236057   2.531   2.920   4.956 -0.7461  1.9226  0.5906
 4856TIP3   OH236058   3.059   1.705  12.007  0.0259 -0.2766  0.4961
 4856TIP3    H136059   3.058   1.668  12.095 -2.3168 -0.1253  0.5943
 4856TIP3    H236060   3.077   1.799  12.021  1.6032 -0.5671  0.6062
 4857TIP3   OH236061   1.056   3.708   5.325  0.5019 -0.5792  0.0140
 4857TIP3    H136062   1.037   3.714   5.419  0.4564  2.5768 -0.1076
 4857TIP3    H236063   0.971   3.722   5.283  0.8840  0.2371 -0.4926
 4858TIP3   OH236064   6.493   0.708   4.543 -0.1205 -0.5299 -0.1606
 4858TIP3    H136065   6.578   0.671   4.520  0.7363  1.5779 -0.5815
 4858TIP3    H236066   6.434   0.679   4.473  0.5392 -1.0045 -0.5240
 4859TIP3   OH236067   6.221   1.499   2.884 -0.1290 -0.0700  0.0762
 4859TIP3    H136068   6.300   1.457   2.918 -0.4668 -0.3366  0.5465
 4859TIP3    H236069   6.167   1.426   2.852 -0.9813 -0.0814  1.4381
 4860TIP3   OH236070   4.723   4.709  16.536 -0.0350  0.5106  0.0586
 4860TIP3    H136071   4.652   4.765  16.506 -1.0378 -0.5591  0.3767
 4860TIP3    H236072   4.685   4.656  16.605  0.7840 -0.7904 -0.4423
 4861TIP3   OH236073   0.157   0.862  14.428  0.0247  0.2591 -0.0982
 4861TIP3    H136074   0.080   0.917  14.420 -0.0917 -0.1055 -1.9122
 4861TIP3    H236075   0.137   0.784  14.376  1.3243 -0.1906  0.0210
 4862TIP3   OH236076   5.133   4.837   4.378 -0.0782 -0.6102  0.4685
 4862TIP3    H136077   5.210   4.888   4.354 -1.6392  0.5026 -2.7001
 4862TIP3    H236078   5.073   4.901   4.417  0.4358 -1.4379  2.7754
 4863TIP3   OH236079   4.361   1.440   2.625 -0.4941  0.1284  0.1001
 4863TIP3    H136080   4.275   1.468   2.596 -0.9349  0.0230  1.2629
 4863TIP3    H236081   4.418   1.515   2.609 -0.9685  0.4854  0.0862
 4864TIP3   OH236082   5.811   4.709  13.752 -0.0056 -0.4859  0.2523
 4864TIP3    H136083   5.905   4.724  13.741  0.1801 -1.6366  0.1731
 4864TIP3    H236084   5.780   4.684  13.665 -0.2552 -0.7474  0.4124
 4865TIP3   OH236085   5.464   1.331   4.760  0.3030  0.0108 -0.1450
 4865TIP3    H136086   5.427   1.314   4.846  1.9540  1.4828  0.9434
 4865TIP3    H236087   5.452   1.425   4.748  2.1907  0.2609 -0.4117
 4866TIP3   OH236088   4.759   4.154  11.571 -0.4981  0.6397 -0.0106
 4866TIP3    H136089   4.735   4.245  11.550  0.2618  0.6406 -0.9281
 4866TIP3    H236090   4.853   4.157  11.588 -0.2751 -0.1346 -1.0218
 4867TIP3   OH236091   2.342   5.274  16.464  0.2101  0.2284  0.3684
 4867TIP3    H136092   2.275   5.280  16.532 -0.1258  1.4346 -0.0416
 4867TIP3    H236093   2.425   5.280  16.511  0.1477 -2.7407  1.0459
 4868TIP3   OH236094   6.107   0.472  14.685  0.1781  0.1491 -0.0427
 4868TIP3    H136095   6.133   0.545  14.629 -0.8073  0.3466 -0.2665
 4868TIP3    H236096   6.153   0.396  14.649 -0.9832  0.1318 -1.6027
 4869TIP3   OH236097   3.817   5.312  12.513  0.2265 -0.0120  0.1607
 4869TIP3    H136098   3.723   5.295  12.510 -0.1052  1.6138 -3.0950
 4869TIP3    H236099   3.830   5.363  12.593 -1.5786 -0.6217  0.8874
 4870TIP3   OH236100   1.803   2.353  15.528  0.4555 -0.6947  0.2976
 4870TIP3    H136101   1.727   2.337  15.472  0.6450 -1.0311  0.1300
 4870TIP3    H236102   1.767   2.395  15.606  0.2433  0.1795 -0.2535
 4871TIP3   OH236103   3.491   0.476   2.145 -0.1394  0.2238  1.4186
 4871TIP3    H136104   3.539   0.496   2.064  1.0975  0.2653  2.1518
 4871TIP3    H236105   3.435   0.402   2.121 -0.6141  0.9409  0.2229
 4872TIP3   OH236106   2.202   2.484  12.295  0.1909 -0.5465 -0.2768
 4872TIP3    H136107   2.221   2.577  12.283 -1.5321 -0.2424 -0.9844
 4872TIP3    H236108   2.282   2.440  12.268  0.8471  0.7131 -0.4764
 4873TIP3   OH236109   2.189   5.470  14.905 -0.1173 -1.2070  0.0752
 4873TIP3    H136110   2.201   5.444  14.813  1.8873 -1.3326  0.3364
 4873TIP3    H236111   2.151   5.557  14.900 -0.0243 -1.2098 -0.8777
 4874TIP3   OH236112   1.270   2.392  12.700  0.7166  0.1661  0.0500
 4874TIP3    H136113   1.277   2.302  12.734  0.0375  0.6175  1.4531
 4874TIP3    H236114   1.214   2.437  12.763  1.2118  1.6376 -0.5259
 4875TIP3   OH236115   4.401   1.671  13.925  0.1079  0.2076 -0.6845
 4875TIP3    H136116   4.346   1.612  13.977 -0.6640  0.9422 -0.6509
 4875TIP3    H236117   4.388   1.757  13.965  1.2403  0.4105 -0.7238
 4876TIP3   OH236118   6.729   1.356  15.180  0.7810 -0.4358 -0.7610
 4876TIP3    H136119   6.819   1.384  15.198  0.7838 -1.8562  1.9588
 4876TIP3    H236120   6.739   1.286  15.115  1.6370 -0.4338 -0.6515
 4877TIP3   OH236121   6.562   1.179   5.170  0.3549  0.1940 -0.2782
 4877TIP3    H136122   6.612   1.112   5.123 -0.8359 -1.2996  0.4995
 4877TIP3    H236123   6.491   1.202   5.111  0.5587  0.5205 -0.3985
 4878TIP3   OH236124   2.283   6.472  13.691  0.2875  0.0141  0.0328
 4878TIP3    H136125   2.318   6.507  13.609 -0.4461 -0.9187 -0.7135
 4878TIP3    H236126   2.359   6.436  13.736  0.7259  0.6982 -0.1459
 4879TIP3   OH236127   0.234   6.173   3.901 -0.3736  0.2425  0.2288
 4879TIP3    H136128   0.229   6.170   3.997  0.0157 -0.2546  0.2379
 4879TIP3    H236129   0.308   6.231   3.883  0.2438 -0.5233  0.2516
 4880TIP3   OH236130   2.086   1.516   5.029 -0.9177 -0.4027 -0.2372
 4880TIP3    H136131   2.181   1.508   5.042 -0.7499  1.8264  0.1994
 4880TIP3    H236132   2.069   1.465   4.949  0.6831 -0.6662 -0.4453
 4881TIP3   OH236133   3.269   0.204   4.962  0.1465 -0.0296 -0.7274
 4881TIP3    H136134   3.308   0.134   5.015  1.6326  1.2202 -0.0731
 4881TIP3    H236135   3.231   0.159   4.887  0.9134 -1.5596 -0.2511
 4882TIP3   OH236136   4.766   0.855  16.854 -0.3005 -0.3517 -0.1574
 4882TIP3    H136137   4.675   0.826  16.851 -0.2502 -0.6847  0.9574
 4882TIP3    H236138   4.796   0.828  16.941  0.4039  1.1304  0.0787
 4883TIP3   OH236139   2.570   5.854   5.364  0.3995  0.5068 -0.1978
 4883TIP3    H136140   2.531   5.770   5.341 -0.5569  0.7885  0.3655
 4883TIP3    H236141   2.569   5.905   5.283 -1.2524  0.8320 -0.0113
 4884TIP3   OH236142   3.358   1.450   2.316 -0.0276  0.1900  0.4280
 4884TIP3    H136143   3.279   1.503   2.312 -0.4594 -0.5143 -0.8138
 4884TIP3    H236144   3.429   1.514   2.321 -0.5505  0.8977 -0.8301
 4885TIP3   OH236145   2.056   6.112   1.992  0.3849  0.4376 -0.6992
 4885TIP3    H136146   2.102   6.072   2.067 -1.2097 -1.2825 -0.5801
 4885TIP3    H236147   2.051   6.043   1.927 -1.6746  0.6776 -0.8564
 4886TIP3   OH236148   3.229   1.730   3.363  0.2771  0.0891 -0.4039
 4886TIP3    H136149   3.266   1.794   3.423 -0.7486  1.4748 -1.1909
 4886TIP3    H236150   3.211   1.653   3.418 -0.2966  1.1734  0.9783
 4887TIP3   OH236151   5.851   0.930  17.130 -0.2568 -0.0202 -0.6022
 4887TIP3    H136152   5.946   0.919  17.136 -0.0988  1.2887 -0.3417
 4887TIP3    H236153   5.828   0.891  17.046  0.3358 -1.3313 -0.1940
 4888TIP3   OH236154   4.862   1.021  14.851  0.1511  0.1700 -0.1571
 4888TIP3    H136155   4.858   1.013  14.756 -0.2984 -0.1094 -0.1204
 4888TIP3    H236156   4.810   0.948  14.883 -2.8932  2.3009  0.2341
 4889TIP3   OH236157   3.961   2.559   0.831  0.2788 -0.1579 -0.4928
 4889TIP3    H136158   3.917   2.606   0.902  4.1194 -1.6518  3.3443
 4889TIP3    H236159   3.953   2.467   0.856  3.7508 -0.5945 -0.4959
 4890TIP3   OH236160   1.464   3.220  16.984  0.3051  0.0139  0.2731
 4890TIP3    H136161   1.430   3.147  16.932 -0.3856 -0.3056  1.1472
 4890TIP3    H236162   1.398   3.233  17.052  0.6145  1.2116  0.3522
 4891TIP3   OH236163   2.043   1.555  15.345  0.0457 -0.1658  0.0804
 4891TIP3    H136164   2.057   1.630  15.288  3.1520 -2.0168 -1.8428
 4891TIP3    H236165   2.082   1.582  15.429  0.8265  0.4978 -0.4768
 4892TIP3   OH236166   1.462   5.780   0.433 -0.4297  0.7379  0.1133
 4892TIP3    H136167   1.435   5.695   0.467 -0.7900  1.0672  0.6516
 4892TIP3    H236168   1.553   5.790   0.462 -0.3077  0.4423 -0.1505
 4893TIP3   OH236169   3.352   0.815   0.311  0.2095  0.1828 -0.5048
 4893TIP3    H136170   3.341   0.721   0.298 -0.0383 -0.0034  0.9093
 4893TIP3    H236171   3.426   0.838   0.255  0.1154 -0.7975 -1.0628
 4894TIP3   OH236172   0.346   0.244   2.636 -0.2136  0.0096  0.4888
 4894TIP3    H136173   0.383   0.278   2.717 -0.0944 -1.1761  0.9615
 4894TIP3    H236174   0.341   0.149   2.651  1.7576 -0.5207 -1.6474
 4895TIP3   OH236175   5.407   0.540   4.767  0.0296 -0.0519  0.0511
 4895TIP3    H136176   5.320   0.530   4.730 -0.4436  0.7834  0.9166
 4895TIP3    H236177   5.392   0.557   4.860  1.1604 -1.2479  0.4903
 4896TIP3   OH236178   1.737   5.936   6.267  0.3760  0.0914 -0.1877
 4896TIP3    H136179   1.709   5.883   6.193  0.2215 -1.4627  0.9399
 4896TIP3    H236180   1.664   5.931   6.330  0.0242  2.2740 -0.3158
 4897TIP3   OH236181   6.040   0.736   1.625  0.0999 -0.3288 -0.4996
 4897TIP3    H136182   6.106   0.804   1.634  1.3290 -1.6764  1.4903
 4897TIP3    H236183   5.991   0.739   1.707 -1.5364 -0.1775 -1.4431
 4898TIP3   OH236184   5.402   2.287  16.235 -0.5014 -0.8705  0.6723
 4898TIP3    H136185   5.461   2.350  16.195 -2.1358  0.2126 -0.1407
 4898TIP3    H236186   5.378   2.326  16.319 -2.0216 -0.0192 -0.1084
 4899TIP3   OH236187   2.710   2.889  16.979  0.4206 -0.7072  0.0988
 4899TIP3    H136188   2.661   2.972  16.978  0.2525 -0.7623 -2.5343
 4899TIP3    H236189   2.802   2.916  16.973  0.6198 -0.6944  2.2731
 4900TIP3   OH236190   5.202   2.243   1.948 -0.7844  0.4516 -0.2174
 4900TIP3    H136191   5.263   2.282   1.885 -0.4431 -0.4289 -0.4428
 4900TIP3    H236192   5.161   2.318   1.990  0.5135  1.0685  0.0022
 4901TIP3   OH236193   0.395   1.213   4.507 -0.5076 -0.7249  0.2300
 4901TIP3    H136194   0.364   1.303   4.490 -0.7098 -1.0101 -1.0056
 4901TIP3    H236195   0.489   1.223   4.520 -0.2688 -0.5000 -1.4713
 4902TIP3   OH236196   4.197   0.326   5.714 -0.1160  0.3556  0.2136
 4902TIP3    H136197   4.241   0.385   5.775 -0.2533 -0.9525  1.6393
 4902TIP3    H236198   4.191   0.376   5.632 -0.4910  2.4148  1.4305
 4903TIP3   OH236199   5.286   5.532  13.298 -0.2586 -0.5746 -0.8854
 4903TIP3    H136200   5.355   5.524  13.232 -0.0857 -2.3965 -0.5201
 4903TIP3    H236201   5.209   5.560  13.247  0.0062 -1.4172 -1.7850
 4904TIP3   OH236202   5.719   3.989   1.522 -0.8250 -0.0709  0.0767
 4904TIP3    H136203   5.724   4.084   1.510  0.8233  0.0482  1.3165
 4904TIP3    H236204   5.727   3.953   1.434 -3.9499  0.9297 -0.7332
 4905TIP3   OH236205   0.314   1.311  11.046  0.3589 -0.1569 -0.4240
 4905TIP3    H136206   0.378   1.240  11.042  1.2859  0.6920 -1.0799
 4905TIP3    H236207   0.366   1.391  11.037 -0.5341  0.6854  1.3319
 4906TIP3   OH236208   5.164   2.874  14.135 -0.8080  0.3437 -0.1282
 4906TIP3    H136209   5.154   2.863  14.229  0.6332  2.0503  0.2760
 4906TIP3    H236210   5.092   2.931  14.109 -1.7912 -0.9189 -0.2774
 4907TIP3   OH236211   1.123   1.891   0.843 -0.0487 -0.4637 -0.0093
 4907TIP3    H136212   1.075   1.953   0.787  1.8130  0.1262 -1.0419
 4907TIP3    H236213   1.085   1.806   0.822  0.5147 -0.2456 -2.1593
 4908TIP3   OH236214   5.426   4.592  15.529  0.6552  0.1101 -0.0247
 4908TIP3    H136215   5.402   4.540  15.452 -0.2036  0.1932  0.1770
 4908TIP3    H236216   5.437   4.681  15.494  0.7793  0.0513 -0.1381
 4909TIP3   OH236217   3.390   4.961   0.526  0.0714  0.3410  0.7171
 4909TIP3    H136218   3.385   5.017   0.604 -1.1471  1.1405  0.1077
 4909TIP3    H236219   3.314   4.988   0.473  0.3178 -0.8686 -0.2875
 4910TIP3   OH236220   3.303   5.783   2.656  0.3964  0.1346  0.0710
 4910TIP3    H136221   3.351   5.770   2.574  0.3728 -0.7028  0.1787
 4910TIP3    H236222   3.222   5.828   2.630 -0.5150 -1.8066 -0.6676
 4911TIP3   OH236223   3.777   4.128   2.491  0.1563  0.1285 -0.4389
 4911TIP3    H136224   3.692   4.147   2.530 -0.3930 -0.1738 -1.4569
 4911TIP3    H236225   3.767   4.150   2.399  1.2649  0.3241 -0.5273
 4912TIP3   OH236226   2.190   2.070   6.731 -0.0919  0.3066 -0.0359
 4912TIP3    H136227   2.256   2.124   6.773  0.2484 -0.5502  0.5541
 4912TIP3    H236228   2.150   2.127   6.665  2.7708  0.1876 -2.0452
 4913TIP3   OH236229   5.236   5.243  15.743 -0.5967  0.2203  0.0551
 4913TIP3    H136230   5.251   5.215  15.653  0.4139 -0.0880  0.3008
 4913TIP3    H236231   5.239   5.162  15.794  1.7516  0.6428  0.7036
 4914TIP3   OH236232   4.463   1.139  16.930 -0.2698  0.5116 -0.0702
 4914TIP3    H136233   4.487   1.217  16.981 -1.5559  0.4232  0.7113
 4914TIP3    H236234   4.402   1.092  16.986 -0.1007 -0.6837 -0.8559
 4915TIP3   OH236235   5.785   3.240   4.234  0.2792  0.2279 -0.2483
 4915TIP3    H136236   5.715   3.239   4.300  1.0826  0.7508  0.6380
 4915TIP3    H236237   5.784   3.330   4.200  0.0256  0.0243 -0.7964
 4916TIP3   OH236238   5.428   5.205   0.657 -0.3453 -0.6744  0.1810
 4916TIP3    H136239   5.387   5.257   0.725  0.8376  1.0734 -0.3666
 4916TIP3    H236240   5.440   5.118   0.696  1.5299  0.5900  2.7493
 4917TIP3   OH236241   1.544   6.344   2.220 -0.0864 -0.1313 -0.2175
 4917TIP3    H136242   1.563   6.395   2.142 -0.5360  1.2755  0.5610
 4917TIP3    H236243   1.629   6.309   2.247  0.5286  1.5617  0.1407
 4918TIP3   OH236244   5.265   2.610   6.282 -0.0047  0.1032 -0.0516
 4918TIP3    H136245   5.289   2.518   6.298 -1.5751  0.1008  2.9733
 4918TIP3    H236246   5.181   2.605   6.236  0.9684  0.1113 -1.9364
 4919TIP3   OH236247   4.226   5.398  13.914  0.1305  0.2733 -0.3086
 4919TIP3    H136248   4.303   5.451  13.937 -0.3206  0.6044  0.4699
 4919TIP3    H236249   4.164   5.413  13.985 -1.0506  0.7839 -1.3956
 4920TIP3   OH236250   2.802   0.995   0.037 -0.1104  0.1282  0.1023
 4920TIP3    H136251   2.830   1.041   0.116 -1.2290 -0.4612  0.8709
 4920TIP3    H236252   2.840   1.046  -0.035  1.1062  0.5541  1.0085
 4921TIP3   OH236253   4.944   0.279  12.199  0.2434  0.2380  0.0607
 4921TIP3    H136254   4.981   0.250  12.115 -4.1597 -1.1638 -1.6969
 4921TIP3    H236255   4.933   0.198  12.249  0.8911  0.8164  1.1771
 4922TIP3   OH236256   0.681   3.037  14.893  0.7913  0.2056  0.0509
 4922TIP3    H136257   0.660   2.965  14.954  0.2439  0.1213 -0.2359
 4922TIP3    H236258   0.755   3.082  14.935  0.3844  0.1889  0.8136
 4923TIP3   OH236259   0.552   0.227   0.847  0.4907 -0.7557 -0.1004
 4923TIP3    H136260   0.545   0.131   0.852 -0.5958 -0.7399 -1.0897
 4923TIP3    H236261   0.564   0.245   0.754  2.4297 -0.0127  0.2495
 4924TIP3   OH236262   5.089   0.040   0.908 -0.2240 -0.5495  0.1821
 4924TIP3    H136263   5.163   0.062   0.851 -0.7380  1.4952  0.2322
 4924TIP3    H236264   5.012   0.052   0.853 -0.5999 -1.6633  0.4300
 4925TIP3   OH236265   5.332   4.946   3.924  0.4841  0.0903 -0.1624
 4925TIP3    H136266   5.325   4.912   4.013 -0.7575 -0.1205 -0.3189
 4925TIP3    H236267   5.247   4.927   3.884  0.6067  1.2085 -1.0252
 4926TIP3   OH236268   0.820   5.899   0.056  0.0841  0.0617  0.1095
 4926TIP3    H136269   0.821   5.804   0.059  2.8359  0.0150  1.5929
 4926TIP3    H236270   0.783   5.921  -0.029 -1.0893 -2.2808 -0.0501
 4927TIP3   OH236271   1.113   1.011  13.636  0.3713  0.1456 -0.2403
 4927TIP3    H136272   1.076   0.975  13.716  0.9536  0.5143  0.2057
 4927TIP3    H236273   1.188   0.955  13.616  0.7242  0.5453 -0.0593
 4928TIP3   OH236274   4.641   3.693  11.135  0.7166  0.2068 -0.0518
 4928TIP3    H136275   4.598   3.770  11.173 -0.0159 -0.3794  0.3187
 4928TIP3    H236276   4.727   3.725  11.108  0.9238  0.8555  1.2973
 4929TIP3   OH236277   0.900   1.972   6.061 -0.7294 -0.4063 -0.7014
 4929TIP3    H136278   0.974   2.017   6.102  0.7015 -3.0451 -0.1916
 4929TIP3    H236279   0.889   2.016   5.977 -1.1187  2.4871  0.7261
 4930TIP3   OH236280   5.058   4.377   4.134  0.3194 -0.0300  0.1535
 4930TIP3    H136281   5.078   4.293   4.176 -1.8938 -1.4156 -1.3210
 4930TIP3    H236282   4.978   4.407   4.177  0.1852  0.4878 -0.4447
 4931TIP3   OH236283   4.986   0.943   3.396  0.3551  0.9333 -0.0435
 4931TIP3    H136284   5.019   1.022   3.441  0.1223  1.2637 -0.4478
 4931TIP3    H236285   4.949   0.976   3.314 -2.5792  0.8512  1.1037
 4932TIP3   OH236286   3.347   0.062  16.327 -0.5006 -0.4810 -0.2659
 4932TIP3    H136287   3.433   0.087  16.358 -1.8895  1.1455  2.6413
 4932TIP3    H236288   3.328   0.124  16.256 -0.4883  1.2296  1.1807
 4933TIP3   OH236289   1.861   6.623   3.477  0.0365 -0.2317  0.2344
 4933TIP3    H136290   1.810   6.665   3.546  0.8222 -2.0397  2.0166
 4933TIP3    H236291   1.812   6.543   3.457  1.3055 -1.1921  0.8401
 4934TIP3   OH236292   4.966   4.383  15.041  0.0463 -0.0269  0.0560
 4934TIP3    H136293   5.028   4.336  15.096  1.6129  1.1203 -0.6630
 4934TIP3    H236294   4.941   4.319  14.974  0.6826 -0.4160  0.1782
 4935TIP3   OH236295   2.916   5.406  16.657 -0.0992 -0.3846 -0.4851
 4935TIP3    H136296   2.965   5.358  16.724 -0.4812  1.5847  1.3051
 4935TIP3    H236297   2.937   5.360  16.575  2.5269 -1.2758  0.5710
 4936TIP3   OH236298   1.171   4.086  11.708 -0.0463  0.5439  0.2730
 4936TIP3    H136299   1.201   4.044  11.788  0.1013  2.9622  1.5970
 4936TIP3    H236300   1.076   4.093  11.718 -0.4989 -2.0307 -1.3281
 4937TIP3   OH236301   4.243   4.337   3.126  0.5793  0.0228 -0.1730
 4937TIP3    H136302   4.157   4.296   3.136 -0.1281  1.2897 -0.7188
 4937TIP3    H236303   4.228   4.429   3.149  1.6853  0.3567 -0.7197
 4938TIP3   OH236304   3.226   6.337   4.721 -0.0301  0.8843  0.4524
 4938TIP3    H136305   3.219   6.267   4.786  0.7877  0.0871 -0.2978
 4938TIP3    H236306   3.242   6.416   4.773 -0.5610  0.4577  1.2817
 4939TIP3   OH236307   0.194   4.835   1.762  0.2319  0.6512 -0.2807
 4939TIP3    H136308   0.156   4.759   1.808  1.7200  0.5103  0.7686
 4939TIP3    H236309   0.211   4.899   1.831  0.7158  1.2140 -0.9126
 4940TIP3   OH236310   4.634   4.211  13.269  0.1332  0.5636  0.2535
 4940TIP3    H136311   4.562   4.188  13.211  0.5585 -1.2843  0.3660
 4940TIP3    H236312   4.612   4.297  13.303 -1.0414  0.8799 -1.2061
 4941TIP3   OH236313   2.421   4.377   4.856  1.1225  0.6082 -0.0251
 4941TIP3    H136314   2.461   4.309   4.910 -1.0223 -1.0339 -0.3595
 4941TIP3    H236315   2.357   4.419   4.913 -0.2599 -0.2916 -0.8235
 4942TIP3   OH236316   4.313   3.407   5.010 -0.5138 -0.2529 -0.3544
 4942TIP3    H136317   4.334   3.348   4.938 -1.8241  0.4203 -1.3212
 4942TIP3    H236318   4.218   3.413   5.010 -0.4721  0.8431  0.5643
 4943TIP3   OH236319   2.000   4.820  13.424 -0.1594  0.0801 -0.6312
 4943TIP3    H136320   1.948   4.819  13.505  2.2955  2.2071  1.1456
 4943TIP3    H236321   2.022   4.729  13.408  0.2628 -0.3165  1.8310
 4944TIP3   OH236322   4.495   4.613  12.493  0.0622 -0.0475 -0.4520
 4944TIP3    H136323   4.471   4.628  12.402  1.2723  2.9113 -0.4009
 4944TIP3    H236324   4.441   4.674  12.543 -0.5930 -1.6265  0.8625
 4945TIP3   OH236325   3.350   1.837  12.178 -0.7381 -0.1884 -0.4654
 4945TIP3    H136326   3.293   1.912  12.161 -0.1943  0.4206  0.3174
 4945TIP3    H236327   3.312   1.795  12.255  0.2425  0.6429  0.5111
 4946TIP3   OH236328   6.793   0.191  15.530 -0.1514 -0.3299  0.7011
 4946TIP3    H136329   6.700   0.204  15.516  0.0100 -0.5383 -0.7493
 4946TIP3    H236330   6.832   0.200  15.443  1.1178 -0.7369  1.1962
 4947TIP3   OH236331   3.522   6.146  12.836 -0.2571  0.4150 -0.2093
 4947TIP3    H136332   3.466   6.212  12.796  1.4703  1.9433 -0.2335
 4947TIP3    H236333   3.570   6.192  12.904  0.0317 -1.1459  0.7038
 4948TIP3   OH236334   4.947   3.899  13.167 -0.1891  0.1934 -0.0323
 4948TIP3    H136335   4.918   3.990  13.154  1.5228  1.0032  1.3505
 4948TIP3    H236336   4.868   3.847  13.156 -1.4536  1.9519  0.2632
 4949TIP3   OH236337   0.582   4.270  17.134  0.0411  0.0008 -0.0575
 4949TIP3    H136338   0.559   4.320  17.056  0.2090  2.3775  1.3106
 4949TIP3    H236339   0.518   4.198  17.136 -0.3105  0.2042 -2.0460
 4950TIP3   OH236340   2.841   2.603   0.761  0.6538 -0.4848 -0.2411
 4950TIP3    H136341   2.815   2.676   0.705  0.0517  0.2797  0.9719
 4950TIP3    H236342   2.783   2.531   0.736 -0.2781  0.1459  0.0599
 4951TIP3   OH236343   3.431   5.568   1.406  0.5946  0.0203  0.7429
 4951TIP3    H136344   3.426   5.550   1.312  2.1432  0.7262  0.4867
 4951TIP3    H236345   3.346   5.607   1.427 -0.0619 -0.8511 -0.1919
 4952TIP3   OH236346   3.569   1.630   3.994  0.1349 -0.5024  0.0581
 4952TIP3    H136347   3.587   1.704   4.052 -0.6225 -0.6226  0.4551
 4952TIP3    H236348   3.655   1.603   3.962  0.4353  0.4592  0.0204
 4953TIP3   OH236349   1.375   3.821   0.579 -0.9841 -0.0597  0.1713
 4953TIP3    H136350   1.436   3.873   0.526 -0.3128 -1.1632 -0.1829
 4953TIP3    H236351   1.391   3.849   0.669  1.6407 -1.7770  0.3589
 4954TIP3   OH236352   0.126   0.908  13.144 -0.0603  0.5797 -0.0195
 4954TIP3    H136353   0.177   0.956  13.078  1.4256 -1.7617 -0.7079
 4954TIP3    H236354   0.060   0.971  13.173  1.0537  2.6496 -1.6208
 4955TIP3   OH236355   2.374   4.227  16.027  0.2049 -0.9617 -0.2860
 4955TIP3    H136356   2.303   4.264  16.081  0.1854  2.8240 -2.5497
 4955TIP3    H236357   2.328   4.179  15.958 -0.2392  0.8895 -1.3435
 4956TIP3   OH236358   5.470   2.377  15.633  0.1452  0.0058 -0.0411
 4956TIP3    H136359   5.468   2.462  15.590  0.1057  0.1012  0.1462
 4956TIP3    H236360   5.449   2.396  15.725  1.6045  0.0060  0.3288
 4957TIP3   OH236361   3.223   1.932  16.190 -0.1742 -0.1463 -0.0581
 4957TIP3    H136362   3.211   1.878  16.268 -0.6384  1.4498  1.0335
 4957TIP3    H236363   3.317   1.934  16.175  0.0672  0.7558  1.4114
 4958TIP3   OH236364   5.767   1.393   4.786  0.0229  0.2455  0.5670
 4958TIP3    H136365   5.797   1.308   4.755 -0.7025  0.2868 -0.3231
 4958TIP3    H236366   5.711   1.373   4.861 -2.3637 -0.3726 -1.2303
 4959TIP3   OH236367   0.835   1.588   1.033 -0.3743 -0.2081  0.6267
 4959TIP3    H136368   0.775   1.559   0.964 -0.4292  0.4549  0.3917
 4959TIP3    H236369   0.881   1.663   0.996 -0.9766  0.6670  1.5866
 4960TIP3   OH236370   2.902   1.726  12.624  0.4874 -0.1678 -0.1150
 4960TIP3    H136371   2.977   1.669  12.643  0.6514 -0.2020 -0.8497
 4960TIP3    H236372   2.859   1.737  12.709  2.3096  1.2822  0.7027
 4961TIP3   OH236373   2.242   6.411   0.916 -0.2456  0.1632 -0.2456
 4961TIP3    H136374   2.337   6.407   0.930 -0.3519 -1.4165  0.1165
 4961TIP3    H236375   2.204   6.366   0.991 -1.2134 -0.7288 -1.2346
 4962TIP3   OH236376   2.543   1.072   5.793 -0.3309  0.2249  0.1880
 4962TIP3    H136377   2.504   1.153   5.760 -0.2619  0.1277 -0.1399
 4962TIP3    H236378   2.632   1.073   5.758 -0.1714  0.2450  0.5908
 4963TIP3   OH236379   3.923   0.349   3.822 -0.0971  0.6518 -0.3192
 4963TIP3    H136380   3.908   0.261   3.787  0.9017 -0.2004  1.2352
 4963TIP3    H236381   3.962   0.398   3.749 -0.7006 -0.1726 -1.2178
 4964TIP3   OH236382   2.220   5.509   5.454  0.1899 -0.2340  0.0864
 4964TIP3    H136383   2.281   5.563   5.402  0.8615  1.1776  2.1772
 4964TIP3    H236384   2.138   5.558   5.453 -0.4963 -1.3646 -1.4712
 4965TIP3   OH236385   3.284   1.590   4.031  0.3552 -0.2573  0.1869
 4965TIP3    H136386   3.378   1.602   4.018  0.5798 -2.0285 -0.0777
 4965TIP3    H236387   3.261   1.516   3.975 -1.3149  0.4845 -0.1633
 4966TIP3   OH236388   3.663   5.132  14.595  0.0505  0.2690  0.0265
 4966TIP3    H136389   3.593   5.193  14.619 -1.9122 -1.4712 -0.9603
 4966TIP3    H236390   3.692   5.095  14.678 -0.8820  0.3552  0.4119
 4967TIP3   OH236391   2.654   6.642  10.757 -0.2195 -0.0241 -0.3664
 4967TIP3    H136392   2.595   6.671  10.687  0.1900  1.8983  0.0280
 4967TIP3    H236393   2.740   6.675  10.731  0.6969 -2.5445 -0.7966
 4968TIP3   OH236394   6.794   5.104  14.377  0.8291  0.3513 -0.4364
 4968TIP3    H136395   6.881   5.139  14.394  0.6877  0.1987  0.6233
 4968TIP3    H236396   6.735   5.164  14.421  0.5610 -0.9769  1.1269
 4969TIP3   OH236397   0.986   2.059   3.499 -0.1096  0.1668  0.1476
 4969TIP3    H136398   1.043   2.134   3.515  1.1446 -0.5634 -0.7400
 4969TIP3    H236399   0.973   2.058   3.404  0.9728 -1.4795 -0.0164
 4970TIP3   OH236400   6.442   0.936  11.314  0.2246 -0.0713  0.1243
 4970TIP3    H136401   6.349   0.959  11.312 -0.5354 -2.3731  2.7062
 4970TIP3    H236402   6.453   0.875  11.242 -0.2459  0.2964 -0.2667
 4971TIP3   OH236403   0.802   4.695  15.481 -0.4192 -0.5691 -0.7221
 4971TIP3    H136404   0.716   4.736  15.496  0.4466  0.6120  1.3472
 4971TIP3    H236405   0.791   4.605  15.511 -0.5761 -0.0208  0.9667
 4972TIP3   OH236406   2.453   1.555   3.437  0.1226 -0.1607  0.3163
 4972TIP3    H136407   2.450   1.605   3.355 -0.2191 -1.7565 -0.6767
 4972TIP3    H236408   2.542   1.519   3.440  0.3035  0.3161  0.9297
 4973TIP3   OH236409   4.385   5.890  17.208  0.3029  0.4752  0.8755
 4973TIP3    H136410   4.398   5.974  17.163  1.8557  0.5010  1.3051
 4973TIP3    H236411   4.290   5.878  17.210  0.1255  1.0894 -1.2450
 4974TIP3   OH236412   2.188   4.187  17.035 -0.5504 -0.3854  0.1047
 4974TIP3    H136413   2.141   4.270  17.028 -0.9151 -0.7110 -2.0731
 4974TIP3    H236414   2.262   4.206  17.092  0.6268  2.0998 -2.0392
 4975TIP3   OH236415   0.434   0.912  14.454 -0.3116  0.1885  0.5157
 4975TIP3    H136416   0.447   0.998  14.495 -0.0043  0.5885 -0.3947
 4975TIP3    H236417   0.339   0.900  14.454 -0.4418  1.0425 -0.3453
 4976TIP3   OH236418   5.778   2.400  10.627  0.0113 -0.2417 -0.1201
 4976TIP3    H136419   5.836   2.455  10.574  0.0447 -0.7721 -0.6459
 4976TIP3    H236420   5.827   2.319  10.640 -1.0072 -1.1289 -1.5047
 4977TIP3   OH236421   5.381   0.583  14.237 -0.4294  0.4032  0.1509
 4977TIP3    H136422   5.412   0.632  14.160 -0.8472  0.6658  0.1502
 4977TIP3    H236423   5.350   0.650  14.298 -0.0482  0.2016  0.5796
 4978TIP3   OH236424   1.193   5.121   2.116 -0.5686  0.2327 -0.2622
 4978TIP3    H136425   1.119   5.111   2.055 -0.2513 -0.3884 -0.5555
 4978TIP3    H236426   1.155   5.165   2.192 -1.3896 -0.5913 -0.1617
 4979TIP3   OH236427   3.905   2.789   2.241 -0.5816  0.1998  0.1820
 4979TIP3    H136428   3.948   2.871   2.219  1.2473 -0.3298  1.5581
 4979TIP3    H236429   3.918   2.779   2.335 -2.1415 -0.9203  0.3253
 4980TIP3   OH236430   4.811   4.231   6.426  0.1203 -0.3152  0.8506
 4980TIP3    H136431   4.830   4.271   6.511 -2.2824  0.7465  0.9684
 4980TIP3    H236432   4.722   4.260   6.405 -0.0820 -2.1315 -1.1393
 4981TIP3   OH236433   0.870   2.737   2.502  0.4025  0.3077 -0.4246
 4981TIP3    H136434   0.793   2.771   2.456 -0.0843  0.6778  0.6360
 4981TIP3    H236435   0.934   2.720   2.432 -1.1357 -1.4591 -1.5228
 4982TIP3   OH236436   2.761   1.544  12.305 -0.3771  0.2354  0.3489
 4982TIP3    H136437   2.818   1.621  12.309  0.6175 -0.3448 -1.4737
 4982TIP3    H236438   2.748   1.518  12.396  0.3761  1.7542  0.9123
 4983TIP3   OH236439   3.244   3.169  15.474 -0.0814  0.2501  0.2374
 4983TIP3    H136440   3.270   3.100  15.413 -1.8458 -0.0448 -0.2350
 4983TIP3    H236441   3.313   3.169  15.541  1.2905 -0.1973 -1.1123
 4984TIP3   OH236442   1.447   5.790   3.806 -0.3036 -0.7452  0.1908
 4984TIP3    H136443   1.489   5.777   3.721 -1.5355  0.3405 -0.6429
 4984TIP3    H236444   1.356   5.765   3.792 -0.8381  0.7405  0.7886
 4985TIP3   OH236445   3.795   5.791   0.081 -0.4261 -0.4699  0.0153
 4985TIP3    H136446   3.841   5.873   0.061 -0.9373  0.4466  2.2787
 4985TIP3    H236447   3.841   5.725   0.030  0.8361  1.0153 -0.8813
 4986TIP3   OH236448   2.477   4.167  14.182  0.1787 -0.0267 -0.4051
 4986TIP3    H136449   2.464   4.159  14.277  0.8162  0.2897 -0.2808
 4986TIP3    H236450   2.533   4.092  14.160 -0.0889 -0.1814 -0.5552
 4987TIP3   OH236451   6.034   1.341   1.539 -0.3889  0.3690 -0.3759
 4987TIP3    H136452   6.087   1.354   1.461  0.2978 -1.0960 -0.1882
 4987TIP3    H236453   6.091   1.369   1.611 -0.1242 -0.5195 -0.2308
 4988TIP3   OH236454   1.382   1.808  15.458  0.0746  0.1501 -0.3197
 4988TIP3    H136455   1.340   1.787  15.541 -0.0428 -0.0048 -0.4181
 4988TIP3    H236456   1.474   1.783  15.470  0.4755  1.7941  0.3951
 4989TIP3   OH236457   1.064   1.409  13.403 -0.1947 -0.1293 -0.4690
 4989TIP3    H136458   1.030   1.385  13.489 -1.1787  1.9044 -0.2243
 4989TIP3    H236459   1.157   1.426  13.418 -0.0915 -1.0172 -0.0816
 4990TIP3   OH236460   5.256   4.886   0.679  0.0335 -1.0191  0.7731
 4990TIP3    H136461   5.266   4.812   0.739  0.0264 -0.7234  1.1507
 4990TIP3    H236462   5.307   4.863   0.602  0.4251 -1.2052  1.0870
 4991TIP3   OH236463   6.079   2.970   4.905  0.3337 -0.6466 -0.2488
 4991TIP3    H136464   6.067   2.901   4.970  1.8273 -1.7064 -1.0500
 4991TIP3    H236465   6.118   2.926   4.829 -0.8319  0.6571 -1.6721
 4992TIP3   OH236466   0.009   6.302  12.000 -0.1477 -0.9969 -0.1544
 4992TIP3    H136467   0.024   6.351  11.920 -1.5053 -0.7766 -0.2871
 4992TIP3    H236468   0.093   6.305  12.046  0.3081 -0.1468 -1.0199
 4993TIP3   OH236469   1.796   1.168   1.510 -0.5424 -0.0811  0.0447
 4993TIP3    H136470   1.858   1.120   1.564 -1.6768 -2.0465 -0.3184
 4993TIP3    H236471   1.786   1.252   1.555  3.5872  1.0846 -0.7669
 4994TIP3   OH236472   0.944   3.684  17.414  0.0502 -0.3469 -0.5901
 4994TIP3    H136473   0.867   3.630  17.433  0.4571 -0.5541  0.5600
 4994TIP3    H236474   0.988   3.692  17.498 -0.1696  2.0808 -0.6518
 4995TIP3   OH236475   5.806   0.643   2.615 -0.0897  0.0228  0.6195
 4995TIP3    H136476   5.739   0.685   2.669 -0.8633  0.6979 -0.8284
 4995TIP3    H236477   5.806   0.552   2.644 -1.3784  0.0982  0.8940
 4996TIP3   OH236478   0.300   1.683  13.660  0.2328  0.0233  0.3693
 4996TIP3    H136479   0.342   1.652  13.580  0.0146  0.7755 -0.0448
 4996TIP3    H236480   0.371   1.693  13.722  0.8308  2.1075 -0.5722
 4997TIP3   OH236481   1.246   1.361   4.322 -0.0899  0.0669  0.2130
 4997TIP3    H136482   1.219   1.281   4.366 -0.3315 -0.1103 -0.2515
 4997TIP3    H236483   1.338   1.372   4.347  0.3270 -1.0543 -0.7333
 4998TIP3   OH236484   2.881   6.165  14.833 -0.0997  0.1213  0.4360
 4998TIP3    H136485   2.933   6.118  14.768 -0.5828 -0.3509  0.3809
 4998TIP3    H236486   2.813   6.209  14.781  0.8097  1.5578  0.3945
 4999TIP3   OH236487   3.194   5.506  12.848 -0.4062  0.0731 -0.4962
 4999TIP3    H136488   3.185   5.589  12.895 -0.8613 -0.6593  0.7809
 4999TIP3    H236489   3.261   5.523  12.781  0.4158  1.1310  0.5373
 5000TIP3   OH236490   1.247   6.447   3.358  0.4774  0.2617  0.0975
 5000TIP3    H136491   1.241   6.404   3.443 -1.5627 -1.2502 -0.7294
 5000TIP3    H236492   1.338   6.436   3.331  1.0375  0.3416  1.8480
 5001TIP3   OH236493   3.538   5.264  12.470 -0.2744 -0.0690  0.3227
 5001TIP3    H136494   3.567   5.348  12.435  0.5599 -0.1299  0.8348
 5001TIP3    H236495   3.491   5.223  12.398 -0.8173  0.8913  0.1133
 5002TIP3   OH236496   4.490   5.345  13.142  0.6488  0.2192 -0.1812
 5002TIP3    H136497   4.409   5.312  13.182  1.7016 -1.1563  0.8945
 5002TIP3    H236498   4.496   5.435  13.172  0.0598  0.0070  0.6248
 5003TIP3   OH236499   5.448   1.047   4.151  0.7258  0.8816  0.5150
 5003TIP3    H136500   5.505   1.063   4.076  0.0215  2.4153  0.2720
 5003TIP3    H236501   5.436   1.133   4.191 -1.2678  0.5830  0.6702
 5004TIP3   OH236502   5.557   3.048  14.730 -0.0156  0.2817  0.4086
 5004TIP3    H136503   5.540   2.991  14.804 -1.5799  0.5670  0.2935
 5004TIP3    H236504   5.653   3.058  14.729  0.3125 -2.3284  0.4093
 5005TIP3   OH236505   6.572   0.316  14.009  0.0526 -0.2046 -0.2864
 5005TIP3    H136506   6.651   0.347  13.964 -0.1378  1.6636  0.5478
 5005TIP3    H236507   6.551   0.233  13.966  1.4397  0.1318 -1.7411
 5006TIP3   OH236508   0.707   3.250  13.767 -0.0126 -0.1004 -0.1436
 5006TIP3    H136509   0.692   3.161  13.798 -3.3340  0.5449  0.4017
 5006TIP3    H236510   0.744   3.296  13.843 -1.5964 -0.2081  0.7319
 5007TIP3   OH236511   3.966   0.360  14.294 -0.5498  0.0063 -0.4009
 5007TIP3    H136512   4.053   0.319  14.293 -0.0080  0.9868  1.5083
 5007TIP3    H236513   3.911   0.297  14.341 -0.1915  0.5271  0.7642
 5008TIP3   OH236514   0.174   3.254   5.848 -0.1534 -0.4167  0.0346
 5008TIP3    H136515   0.183   3.227   5.939 -0.7010  0.5378  0.3874
 5008TIP3    H236516   0.209   3.343   5.846 -3.2409  0.9493  0.0968
 5009TIP3   OH236517   0.210   0.797   6.323 -0.1455 -0.2025 -0.6051
 5009TIP3    H136518   0.291   0.833   6.358 -1.8967  1.8111  1.6650
 5009TIP3    H236519   0.191   0.721   6.379 -0.1966 -0.2656 -0.7064
 5010TIP3   OH236520   4.617   1.237  11.645 -0.0111  0.1973  0.1297
 5010TIP3    H136521   4.563   1.267  11.571  2.0709 -1.1889 -2.1204
 5010TIP3    H236522   4.691   1.298  11.647  1.7600 -1.7552 -1.3468
 5011TIP3   OH236523   2.027   3.350  15.407 -1.0799 -0.3795 -0.1852
 5011TIP3    H136524   2.038   3.276  15.348  0.3976 -0.1502 -0.2262
 5011TIP3    H236525   2.114   3.364  15.445 -1.1321  1.8005 -0.7481
 5012TIP3   OH236526   1.104   0.322  14.421  0.4261 -0.0603 -0.1697
 5012TIP3    H136527   1.102   0.346  14.513 -1.7151  0.5145 -0.3125
 5012TIP3    H236528   1.100   0.405  14.374  0.6316 -0.3870 -0.7799
 5013TIP3   OH236529   3.303   2.621  15.087  0.0542 -0.6166 -0.4714
 5013TIP3    H136530   3.372   2.684  15.062  0.1273 -1.0027 -1.2835
 5013TIP3    H236531   3.239   2.674  15.135  0.2570  0.0287 -0.8887
 5014TIP3   OH236532   4.241   0.205   4.291  0.1850  0.4210  0.2098
 5014TIP3    H136533   4.335   0.218   4.288  0.3314 -0.7357 -1.4271
 5014TIP3    H236534   4.219   0.169   4.206 -2.1943  3.3851 -0.6260
 5015TIP3   OH236535   6.674   5.601   0.120 -0.3901  0.7993 -0.3788
 5015TIP3    H136536   6.674   5.562   0.033  1.5184  0.0928 -0.1051
 5015TIP3    H236537   6.699   5.693   0.105 -0.2854  0.7368 -0.5922
 5016TIP3   OH236538   4.995   5.154   2.013  0.3933  0.5283 -0.3831
 5016TIP3    H136539   5.049   5.105   1.952 -0.5673 -0.6410 -0.3391
 5016TIP3    H236540   4.979   5.093   2.085  1.3643  1.8208  0.9868
 5017TIP3   OH236541   6.300   3.418  16.766 -0.2014 -0.6610 -0.0811
 5017TIP3    H136542   6.305   3.509  16.735 -0.4656 -0.2374  1.0739
 5017TIP3    H236543   6.219   3.385  16.728  0.1120 -0.5540 -0.8573
 5018TIP3   OH236544   5.980   6.291  13.477  0.2718 -0.1541 -0.8061
 5018TIP3    H136545   5.976   6.367  13.536  0.3247  1.1201 -2.3530
 5018TIP3    H236546   5.953   6.217  13.531  0.5954  0.8917  0.8808
 5019TIP3   OH236547   2.282   2.085  12.469 -0.4437 -0.4970 -0.0105
 5019TIP3    H136548   2.276   2.080  12.564  0.5544 -1.1536  0.0216
 5019TIP3    H236549   2.365   2.129  12.452 -0.2951 -0.9902 -0.5927
 5020TIP3   OH236550   0.066   1.486   4.349 -0.8219  0.2977  0.5713
 5020TIP3    H136551   0.031   1.433   4.420  0.5244 -1.6967 -0.1848
 5020TIP3    H236552   0.154   1.510   4.377 -0.8915  0.9112  0.2837
 5021TIP3   OH236553   6.285   3.962  13.234 -0.0036 -0.3560  0.4527
 5021TIP3    H136554   6.237   4.007  13.304 -0.2340  0.6440 -0.3293
 5021TIP3    H236555   6.329   4.032  13.186  1.2038 -1.1434  0.3620
 5022TIP3   OH236556   3.099   2.678   4.524  0.6068  0.1847  0.5213
 5022TIP3    H136557   3.087   2.674   4.619 -0.8281 -1.1563  0.3093
 5022TIP3    H236558   3.112   2.588   4.497 -1.6550  0.1869 -0.8407
 5023TIP3   OH236559   1.001   0.756  15.182  0.6291  0.1086  0.2190
 5023TIP3    H136560   1.006   0.747  15.087  1.4994 -1.8142  0.3989
 5023TIP3    H236561   0.907   0.761  15.200  0.4966  2.3534 -0.8305
 5024TIP3   OH236562   2.007   4.881   4.449 -0.2357 -0.0457  0.5218
 5024TIP3    H136563   2.037   4.965   4.484  0.6792  0.3656 -1.1302
 5024TIP3    H236564   1.952   4.904   4.374 -3.5935 -0.8445  2.5212
 5025TIP3   OH236565   2.442   0.872   1.019  0.1520 -0.0629  0.2046
 5025TIP3    H136566   2.492   0.844   0.943  0.4243 -1.0306  0.7170
 5025TIP3    H236567   2.378   0.802   1.033  0.4372 -0.1479  1.1570
 5026TIP3   OH236568   1.358   3.308   1.043  0.1772 -0.1786  0.5425
 5026TIP3    H136569   1.379   3.280   0.953 -0.6874 -0.1569  0.3315
 5026TIP3    H236570   1.312   3.234   1.081 -0.6554  0.3184  0.5236
 5027TIP3   OH236571   5.631   6.325   1.055 -0.7485  0.1624 -0.0565
 5027TIP3    H136572   5.549   6.327   1.104 -1.0403  0.2141 -0.5394
 5027TIP3    H236573   5.640   6.414   1.020  0.0742  0.4709  0.8959
 5028TIP3   OH236574   3.785   4.393  11.132 -0.0829  0.0591  0.5682
 5028TIP3    H136575   3.758   4.471  11.180 -0.3739  0.8311 -0.7933
 5028TIP3    H236576   3.715   4.380  11.067 -0.6361 -2.0350  1.5242
 5029TIP3   OH236577   0.386   1.499  15.064  0.6409 -0.4838  0.7492
 5029TIP3    H136578   0.314   1.467  15.118  0.6061 -1.5030  0.1111
 5029TIP3    H236579   0.343   1.550  14.995  0.6915  0.9141  1.7093
 5030TIP3   OH236580   5.977   3.760   5.638  0.9416 -0.2967  0.1771
 5030TIP3    H136581   6.003   3.733   5.550  1.1112  1.0240 -0.2021
 5030TIP3    H236582   6.052   3.736   5.693  0.1075 -2.7862  0.3179
 5031TIP3   OH236583   0.839   3.990  15.385  0.1125  0.2592 -0.4142
 5031TIP3    H136584   0.917   3.947  15.351  0.8822  1.2291  0.0804
 5031TIP3    H236585   0.836   3.967  15.478  0.3071  0.9220 -0.2353
 5032TIP3   OH236586   6.146   3.009  15.754  0.1471 -0.4116 -0.6771
 5032TIP3    H136587   6.234   2.979  15.730 -0.1870  0.8510 -4.1679
 5032TIP3    H236588   6.112   3.047  15.673 -2.5996  1.6351  1.2668
 5033TIP3   OH236589   4.663   1.550  17.238  1.0345 -0.5863 -0.3255
 5033TIP3    H136590   4.695   1.514  17.321 -0.1390  1.1312  0.9465
 5033TIP3    H236591   4.739   1.596  17.202  1.3503 -0.6687  0.2214
 5034TIP3   OH236592   4.652   6.294  16.406 -0.8375 -0.0030 -0.0539
 5034TIP3    H136593   4.737   6.337  16.419 -0.5778 -0.7549  0.8092
 5034TIP3    H236594   4.659   6.254  16.320 -0.1895 -0.3243  0.1381
 5035TIP3   OH236595   5.090   0.692  10.817 -0.2612 -0.3153  0.1427
 5035TIP3    H136596   5.034   0.632  10.866 -0.8788 -0.1303 -0.3291
 5035TIP3    H236597   5.162   0.638  10.785 -0.4064 -0.6444  0.3713
 5036TIP3   OH236598   0.484   3.481  16.482  0.3554  0.2907  0.3794
 5036TIP3    H136599   0.396   3.475  16.519 -0.9482  0.6039 -2.4386
 5036TIP3    H236600   0.510   3.390  16.467 -0.4081  0.2347 -0.7107
 5037TIP3   OH236601   3.590   4.808  13.532 -0.4046 -0.3147 -0.6818
 5037TIP3    H136602   3.566   4.841  13.445 -1.0645  0.7318 -0.1155
 5037TIP3    H236603   3.575   4.714  13.527 -1.0498 -0.1801 -1.5066
 5038TIP3   OH236604   0.104   0.597  13.906  0.0727  0.2362  0.5526
 5038TIP3    H136605   0.179   0.622  13.851 -0.6720  1.1123 -0.0988
 5038TIP3    H236606   0.063   0.525  13.859 -1.1047  1.5760 -0.6018
 5039TIP3   OH236607   0.611   2.031  11.412  0.1748 -0.3237 -0.2299
 5039TIP3    H136608   0.646   2.063  11.495  0.1889  2.4713 -1.1737
 5039TIP3    H236609   0.630   1.938  11.411  1.2283 -0.2049  2.3643
 5040TIP3   OH236610   0.493   2.032  14.980  0.0438  0.7352  0.3115
 5040TIP3    H136611   0.588   2.019  14.973 -0.0294  0.5554 -0.4330
 5040TIP3    H236612   0.482   2.127  14.971  0.2431  0.8887  1.5854
 5041TIP3   OH236613   5.550   2.779  13.963 -0.1271 -0.1402  0.0654
 5041TIP3    H136614   5.580   2.818  14.046  1.0215  0.5515 -0.6532
 5041TIP3    H236615   5.579   2.840  13.896 -0.0819 -1.2474 -0.9526
 5042TIP3   OH236616   4.648   1.494   3.432  0.7826  0.1561  0.1338
 5042TIP3    H136617   4.743   1.504   3.422  0.7441 -0.4994 -1.0508
 5042TIP3    H236618   4.628   1.412   3.386 -0.5037  0.8252 -0.5252
 5043TIP3   OH236619   6.576   1.180  11.638  0.3350 -0.1784 -0.5593
 5043TIP3    H136620   6.666   1.165  11.610  0.7842  1.0252  0.1868
 5043TIP3    H236621   6.530   1.203  11.557  0.4256 -1.8193 -1.1241
 5044TIP3   OH236622   4.391   6.485   2.038  0.0670  0.3092  0.7002
 5044TIP3    H136623   4.333   6.440   2.101  0.9570 -0.5754  0.9141
 5044TIP3    H236624   4.465   6.514   2.091 -0.5096  2.1357  0.5716
 5045TIP3   OH236625   6.212   1.180   2.412  0.0618 -0.1690 -0.4399
 5045TIP3    H136626   6.268   1.143   2.479 -2.0248  0.3089  1.7107
 5045TIP3    H236627   6.177   1.105   2.364  0.9518 -0.5633 -0.4757
 5046TIP3   OH236628   5.103   5.530   5.729  0.4156 -0.0610  0.2773
 5046TIP3    H136629   5.106   5.616   5.688  2.7312 -0.0606  0.3545
 5046TIP3    H236630   5.080   5.470   5.658  1.1532  0.3376 -0.3080
 5047TIP3   OH236631   3.488   4.497   2.262  0.0341 -0.3159 -0.0555
 5047TIP3    H136632   3.489   4.442   2.184 -1.7030 -0.7300  0.1652
 5047TIP3    H236633   3.490   4.435   2.335 -1.3986 -0.1211  0.1933
 5048TIP3   OH236634   6.030   1.217  13.638 -0.5162 -0.1665 -0.0211
 5048TIP3    H136635   6.064   1.209  13.727 -0.6381  1.4089  0.1952
 5048TIP3    H236636   5.949   1.166  13.639  0.2199 -1.3724  0.3340
 5049TIP3   OH236637   5.091   0.360  13.379  0.3874  0.2870  0.1372
 5049TIP3    H136638   5.011   0.336  13.424  0.1320  1.5011  0.3648
 5049TIP3    H236639   5.126   0.278  13.345 -1.1678 -0.1974 -0.3299
 5050TIP3   OH236640   4.063   0.459  15.051 -0.4540  0.0199  0.4054
 5050TIP3    H136641   4.010   0.416  15.118  0.2101  1.8875  2.2164
 5050TIP3    H236642   4.007   0.529  15.017 -1.3354 -1.7735 -2.1603
 5051TIP3   OH236643   0.383   4.103  16.113 -0.2979 -0.2014 -0.2440
 5051TIP3    H136644   0.469   4.143  16.099 -0.8841  0.9579 -0.7190
 5051TIP3    H236645   0.364   4.057  16.032  0.6774 -2.1226  0.5492
 5052TIP3   OH236646   5.380   5.823  15.698  0.8352  0.1234 -0.1953
 5052TIP3    H136647   5.434   5.780  15.632  0.6068  0.8681 -0.8992
 5052TIP3    H236648   5.331   5.889  15.648 -0.6286 -0.4521  0.4439
 5053TIP3   OH236649   3.702   3.471  14.340  0.1740 -0.2840  0.2441
 5053TIP3    H136650   3.792   3.500  14.323 -0.2387  0.2358 -1.2650
 5053TIP3    H236651   3.685   3.404  14.273 -1.5218  1.7762 -1.5548
 5054TIP3   OH236652   0.422   3.032   6.299  0.4498 -0.2610 -0.0693
 5054TIP3    H136653   0.358   3.078   6.245  0.7647 -1.2609 -1.3470
 5054TIP3    H236654   0.453   3.098   6.362 -0.8651  0.5778 -0.2707
 5055TIP3   OH236655   5.287   1.195  11.564 -0.0940 -0.3172 -0.0297
 5055TIP3    H136656   5.326   1.155  11.486 -1.1449 -0.9940 -0.2345
 5055TIP3    H236657   5.248   1.121  11.612  1.4251 -0.0646  1.7013
 5056TIP3   OH236658   4.674   0.427  12.242  0.8187 -0.4160  0.5333
 5056TIP3    H136659   4.732   0.500  12.219  2.2950 -1.7316 -0.0783
 5056TIP3    H236660   4.693   0.411  12.335 -0.5838  0.8638  1.0918
 5057TIP3   OH236661   2.702   4.440  13.493  1.1546 -0.2187  0.0601
 5057TIP3    H136662   2.738   4.353  13.476  1.4360  0.0657 -0.8841
 5057TIP3    H236663   2.777   4.499  13.483  1.3687  0.0187  2.3775
 5058TIP3   OH236664   6.077   0.081  12.075  0.2298 -0.2041  0.0247
 5058TIP3    H136665   6.125   0.034  12.143  0.9538  0.0683 -0.2814
 5058TIP3    H236666   6.116   0.169  12.075 -0.7876  0.2636  0.2800
 5059TIP3   OH236667   2.355   6.300  16.324 -0.2401  0.1028  0.3315
 5059TIP3    H136668   2.278   6.275  16.375  0.2769 -0.1404  1.0129
 5059TIP3    H236669   2.369   6.226  16.264 -0.4564  0.0854  0.3023
 5060TIP3   OH236670   5.082   0.828  16.391 -0.1460 -0.1812 -0.2579
 5060TIP3    H136671   5.079   0.836  16.296 -1.2182 -2.6337 -0.5177
 5060TIP3    H236672   5.000   0.868  16.421  0.3633  0.9223 -0.3153
 5061TIP3   OH236673   5.374   1.488  15.100  0.6122 -0.0084 -0.0341
 5061TIP3    H136674   5.316   1.435  15.156 -1.0102  0.5445 -1.1113
 5061TIP3    H236675   5.354   1.578  15.123  0.4831  0.2064 -0.9557
 5062TIP3   OH236676   3.001   2.881   1.989  0.1962  0.2090 -0.0598
 5062TIP3    H136677   2.952   2.887   1.907 -0.9919 -1.3966  0.4705
 5062TIP3    H236678   3.075   2.823   1.969 -0.9113 -1.4155  0.2903
 5063TIP3   OH236679   2.571   1.551   5.617  0.1454 -0.0980 -0.1751
 5063TIP3    H136680   2.609   1.638   5.631  0.9948 -0.7338  1.8517
 5063TIP3    H236681   2.561   1.544   5.522  2.7082  1.1467 -0.6182
 5064TIP3   OH236682   1.802   4.037  10.491 -0.0315 -0.4943 -0.5167
 5064TIP3    H136683   1.761   4.120  10.466 -0.4254 -0.2717  0.7866
 5064TIP3    H236684   1.730   3.983  10.523  0.1286 -1.5888 -1.9236
 5065TIP3   OH236685   2.496   0.192  16.057 -0.4870  0.5073  0.1357
 5065TIP3    H136686   2.445   0.128  16.108 -0.2129 -0.8418 -1.2223
 5065TIP3    H236687   2.584   0.188  16.094 -0.9421  1.6898  1.4431
 5066TIP3   OH236688   0.703   1.406   2.131  0.6607 -0.0932  1.2459
 5066TIP3    H136689   0.621   1.451   2.155  0.7128 -0.6792  2.6152
 5066TIP3    H236690   0.772   1.461   2.167  0.9146  0.5523 -0.1594
 5067TIP3   OH236691   0.897   4.602   5.735 -0.2292 -0.3621  0.0677
 5067TIP3    H136692   0.840   4.536   5.773 -0.0762 -1.1935 -1.1217
 5067TIP3    H236693   0.840   4.678   5.720 -0.7206 -0.7250  0.0859
 5068TIP3   OH236694   5.495   5.838   3.290  0.3417 -0.1947  0.1102
 5068TIP3    H136695   5.542   5.772   3.239  1.1872 -0.3245  1.0236
 5068TIP3    H236696   5.525   5.922   3.254 -0.8685 -0.2628 -1.1730
 5069TIP3   OH236697   6.653   0.196   5.636 -0.2242 -0.1178 -0.0178
 5069TIP3    H136698   6.713   0.266   5.611  1.5544 -1.9480 -1.2546
 5069TIP3    H236699   6.602   0.178   5.557  0.5919 -1.3371 -0.3055
 5070TIP3   OH236700   3.751   0.909  16.948 -0.3034 -0.3577 -0.4191
 5070TIP3    H136701   3.673   0.856  16.968 -0.6306 -0.2430 -1.3526
 5070TIP3    H236702   3.737   0.991  16.996 -1.6575  0.3908 -1.9879
 5071TIP3   OH236703   1.308   4.193   2.958 -0.2708  0.0141 -0.3430
 5071TIP3    H136704   1.281   4.250   3.030  0.1518 -0.2190  0.0059
 5071TIP3    H236705   1.244   4.122   2.959 -0.2591  0.0042 -0.1828
 5072TIP3   OH236706   4.606   4.900  14.775 -0.2133  0.5172  0.0921
 5072TIP3    H136707   4.673   4.835  14.794  0.1864  0.2285 -2.0228
 5072TIP3    H236708   4.650   4.984  14.785  0.1279  0.3624 -0.0896
 5073TIP3   OH236709   2.900   0.193  16.306  0.5609  0.0701  0.3203
 5073TIP3    H136710   2.943   0.120  16.350  0.1463 -0.5856 -0.3442
 5073TIP3    H236711   2.822   0.210  16.358  2.1199  2.0084  2.1954
 5074TIP3   OH236712   3.202   0.767   0.915  0.2784  0.0372 -0.3392
 5074TIP3    H136713   3.248   0.686   0.935  0.8286  0.1928 -0.9269
 5074TIP3    H236714   3.123   0.740   0.870  0.1213 -0.2036  0.0809
 5075TIP3   OH236715   1.462   1.629   0.131  0.1700  0.2428  0.0044
 5075TIP3    H136716   1.483   1.577   0.053  2.0446  0.6784  0.1760
 5075TIP3    H236717   1.547   1.664   0.160 -0.7475  1.5729  1.1887
 5076TIP3   OH236718   6.764   1.704   4.660 -0.1593  0.0255 -0.2147
 5076TIP3    H136719   6.745   1.718   4.753 -1.1079 -0.1297 -0.3758
 5076TIP3    H236720   6.747   1.611   4.646 -1.6173  0.3624 -0.8898
 5077TIP3   OH236721   5.244   6.050   3.154 -0.5798  0.3678  0.6058
 5077TIP3    H136722   5.305   6.074   3.224 -0.3428 -0.1850  0.5927
 5077TIP3    H236723   5.234   5.955   3.163 -0.0527  0.1986 -0.5181
 5078TIP3   OH236724   3.350   2.049   0.649  0.5936  0.3742 -0.1901
 5078TIP3    H136725   3.417   2.008   0.704 -0.4723  0.7090  1.4125
 5078TIP3    H236726   3.354   2.142   0.671 -0.4923  0.3758  0.0372
 5079TIP3   OH236727   1.966   3.255   5.325  0.2515  0.6719  0.2250
 5079TIP3    H136728   1.958   3.163   5.351 -1.3414  0.3869 -1.1289
 5079TIP3    H236729   1.888   3.297   5.361 -0.0612  1.0537 -0.8781
 5080TIP3   OH236730   0.290   1.642   1.923 -0.1431 -0.4741 -0.6512
 5080TIP3    H136731   0.361   1.687   1.876 -1.2342  0.0863 -1.8157
 5080TIP3    H236732   0.314   1.550   1.919  1.9787 -0.1262  1.5064
 5081TIP3   OH236733   1.682   1.302   2.462 -0.5200  0.0522  0.1661
 5081TIP3    H136734   1.744   1.267   2.398 -0.5383  0.1170  0.1121
 5081TIP3    H236735   1.600   1.309   2.413  0.0627  2.5704 -0.5952
 5082TIP3   OH236736   1.387   2.363  14.383 -0.2962  0.4472 -0.2848
 5082TIP3    H136737   1.440   2.398  14.311 -0.1226  1.6115  0.3828
 5082TIP3    H236738   1.346   2.285  14.346 -1.4632  1.8649 -2.1718
 5083TIP3   OH236739   1.825   4.159   3.484  0.0462  0.1864 -0.2783
 5083TIP3    H136740   1.771   4.197   3.553 -2.3841 -2.5294 -0.4687
 5083TIP3    H236741   1.900   4.122   3.530 -0.5845  0.0675  0.6906
 5084TIP3   OH236742   5.888   4.442  15.823  0.3540  0.0732 -0.3405
 5084TIP3    H136743   5.908   4.518  15.770 -0.6730 -0.0345 -0.9011
 5084TIP3    H236744   5.801   4.414  15.795  1.1571 -2.0025 -0.9813
 5085TIP3   OH236745   2.851   5.005   3.150  0.5170  0.0600  0.1112
 5085TIP3    H136746   2.872   5.070   3.082  0.6497 -0.6630 -0.5523
 5085TIP3    H236747   2.774   4.960   3.116  1.9608 -1.9373 -0.7580
 5086TIP3   OH236748   0.079   5.631  12.302 -0.5318  0.2474  0.4297
 5086TIP3    H136749   0.017   5.678  12.248  1.8758  2.4175 -0.6344
 5086TIP3    H236750   0.124   5.699  12.352  2.2275 -0.9629 -0.2240
 5087TIP3   OH236751   1.940   4.870  14.712 -0.0244  0.1847  0.2783
 5087TIP3    H136752   1.904   4.789  14.749  3.3434 -1.8223 -0.3512
 5087TIP3    H236753   1.990   4.840  14.635  1.8304  2.7750  0.3512
 5088TIP3   OH236754   1.699   5.976   4.129  0.2288 -0.7579  0.4612
 5088TIP3    H136755   1.692   5.995   4.222  0.2145 -1.1105  0.5321
 5088TIP3    H236756   1.620   5.926   4.108  0.1973 -0.6197  0.2445
 5089TIP3   OH236757   3.706   2.574   1.493 -0.3182  0.2729 -0.0194
 5089TIP3    H136758   3.640   2.504   1.501  1.3432 -1.4505 -0.5141
 5089TIP3    H236759   3.713   2.589   1.399  0.3927  0.0185 -0.0103
 5090TIP3   OH236760   1.702   6.323   4.175 -0.1363  0.2698 -0.0636
 5090TIP3    H136761   1.695   6.236   4.137 -2.4819  0.8937 -1.2503
 5090TIP3    H236762   1.794   6.333   4.196  0.1952 -2.4610  0.0557
 5091TIP3   OH236763   4.102   3.939   3.236  0.5740  0.0169  0.5579
 5091TIP3    H136764   4.065   3.988   3.310  0.1560  0.4073  0.1013
 5091TIP3    H236765   4.025   3.912   3.185  0.9111  1.5910 -0.8880
 5092TIP3   OH236766   2.878   6.155  15.812  0.0884 -0.7455  0.2783
 5092TIP3    H136767   2.922   6.105  15.743 -0.3896  0.5714 -1.0335
 5092TIP3    H236768   2.832   6.089  15.864  0.1137 -1.7339 -0.9106
 5093TIP3   OH236769   2.973   0.530   3.069  0.0446 -0.5545  0.2406
 5093TIP3    H136770   2.897   0.524   3.010  0.9687 -0.2179 -1.0153
 5093TIP3    H236771   2.964   0.455   3.127 -2.5645  0.7664  1.7419
 5094TIP3   OH236772   5.772   3.331  14.161 -0.3679 -0.3954  0.1771
 5094TIP3    H136773   5.801   3.253  14.114 -0.3187 -1.3654  1.7313
 5094TIP3    H236774   5.678   3.317  14.176 -0.3711 -0.1403  0.4233
 5095TIP3   OH236775   6.190   4.487   1.136  0.0469 -0.2103  0.0143
 5095TIP3    H136776   6.230   4.483   1.223 -0.5630 -1.7102  0.2461
 5095TIP3    H236777   6.160   4.398   1.119 -0.3115  0.1818 -1.5218
 5096TIP3   OH236778   3.438   4.730   2.411 -0.0946 -0.5578 -0.3647
 5096TIP3    H136779   3.439   4.653   2.354  1.4202 -0.0765 -1.0285
 5096TIP3    H236780   3.531   4.754   2.420 -0.5170  0.9476  0.1640
 5097TIP3   OH236781   3.491   3.063  14.244 -0.7519 -0.4975  0.2365
 5097TIP3    H136782   3.480   3.056  14.149  2.9816 -1.0679 -0.3194
 5097TIP3    H236783   3.467   2.977  14.278  0.8790 -1.3670 -0.6773
 5098TIP3   OH236784   5.596   1.715   2.727  0.6346 -0.2676  0.1252
 5098TIP3    H136785   5.603   1.677   2.815 -1.5646  1.8696  1.3571
 5098TIP3    H236786   5.502   1.716   2.709  0.9603  0.5195 -1.7122
 5099TIP3   OH236787   4.252   5.127  14.157  0.4631 -0.1099  0.0693
 5099TIP3    H136788   4.294   5.065  14.217  2.7018  0.0165 -1.2651
 5099TIP3    H236789   4.269   5.092  14.070  1.1849  1.9811 -0.6945
 5100TIP3   OH236790   3.639   2.358   5.900  0.0290  0.6877  0.0686
 5100TIP3    H136791   3.572   2.332   5.837  0.8145  0.3339 -0.6539
 5100TIP3    H236792   3.720   2.357   5.849  0.4790  1.8295  0.7316
 5101TIP3   OH236793   5.240   0.024  15.322  0.1083  0.0979 -0.2993
 5101TIP3    H136794   5.242  -0.071  15.324  1.3781  0.1203  0.7008
 5101TIP3    H236795   5.209   0.046  15.234 -0.1981 -1.2248 -0.5382
 5102TIP3   OH236796   4.751   4.143  12.888  0.3700  0.1975  0.0032
 5102TIP3    H136797   4.708   4.058  12.883  0.7745  0.0852 -2.3058
 5102TIP3    H236798   4.681   4.204  12.911 -1.2560  0.0465 -3.8297
 5103TIP3   OH236799   3.656   2.641  12.286  0.1881  0.6885  0.0583
 5103TIP3    H136800   3.700   2.596  12.214  0.9425  0.8076  0.4414
 5103TIP3    H236801   3.566   2.610  12.282  0.2376  0.6343 -0.8919
 5104TIP3   OH236802   2.351   3.047   0.476 -0.6016 -0.1189  0.4961
 5104TIP3    H136803   2.330   3.076   0.565 -0.6735 -0.4513  0.5877
 5104TIP3    H236804   2.427   3.100   0.451 -0.7036  0.1165  0.6787
 5105TIP3   OH236805   0.871   4.507   2.268 -0.4433  0.2193  0.2029
 5105TIP3    H136806   0.920   4.575   2.316  0.7200 -0.5251  0.1193
 5105TIP3    H236807   0.780   4.520   2.295 -0.0442  0.8601  1.3442
 5106TIP3   OH236808   4.375   2.551   3.457  0.2233 -0.3039 -0.3001
 5106TIP3    H136809   4.347   2.560   3.366  0.9376  0.9196 -0.4159
 5106TIP3    H236810   4.319   2.612   3.505 -1.1273 -1.9651  0.3272
 5107TIP3   OH236811   6.039   0.273  13.081 -0.0519 -0.3047  0.3204
 5107TIP3    H136812   6.038   0.351  13.026 -1.2634 -1.1240 -0.8858
 5107TIP3    H236813   6.125   0.274  13.123  0.1847  1.3352 -0.1497
 5108TIP3   OH236814   3.342   3.142   0.961 -0.3885  0.5463  0.5908
 5108TIP3    H136815   3.435   3.128   0.942 -0.2295  0.8173  1.1478
 5108TIP3    H236816   3.337   3.139   1.056 -0.7660  1.6971  0.6151
 5109TIP3   OH236817   2.731   0.585   1.770  0.1427 -0.0743  0.1884
 5109TIP3    H136818   2.782   0.632   1.705 -1.5127  1.8314  0.1891
 5109TIP3    H236819   2.793   0.566   1.840  1.3764  0.0434 -0.8442
 5110TIP3   OH236820   0.646   4.059  11.296  0.3950  0.1287  0.0568
 5110TIP3    H136821   0.636   3.993  11.227  0.3994 -0.6180  0.7635
 5110TIP3    H236822   0.585   4.032  11.365 -1.2896  2.0827 -0.5324
 5111TIP3   OH236823   2.423   1.844   2.519 -0.3886  0.2122 -0.1148
 5111TIP3    H136824   2.402   1.832   2.427 -0.4396  1.2335 -0.2474
 5111TIP3    H236825   2.500   1.901   2.519 -1.0000  1.0657  0.4822
 5112TIP3   OH236826   6.319   0.041   5.612 -0.6495  0.0051  0.0474
 5112TIP3    H136827   6.371   0.014   5.688 -0.1819  0.3566 -0.1433
 5112TIP3    H236828   6.228   0.028   5.639 -0.4578 -1.0805  0.2171
 5113TIP3   OH236829   4.469   2.607  15.112 -0.3233 -0.0557 -0.0016
 5113TIP3    H136830   4.387   2.652  15.133  0.8551  1.5566  1.4520
 5113TIP3    H236831   4.481   2.621  15.018 -0.9057  1.1447  0.0882
 5114TIP3   OH236832   5.883   4.155  10.967 -0.1088 -0.8530  0.1701
 5114TIP3    H136833   5.924   4.069  10.957  2.0456 -0.0262  1.2026
 5114TIP3    H236834   5.877   4.168  11.061 -0.2249  0.1867  0.0317
 5115TIP3   OH236835   0.165   2.073  14.414 -0.0539  0.2023  0.1087
 5115TIP3    H136836   0.123   2.029  14.340 -0.7606 -0.2019  0.7426
 5115TIP3    H236837   0.250   2.100  14.380  0.0063 -0.7988 -0.5839
 5116TIP3   OH236838   4.164   1.874   2.329 -0.1577 -0.3081  0.3012
 5116TIP3    H136839   4.212   1.895   2.410  2.4448 -2.2624 -0.5873
 5116TIP3    H236840   4.191   1.943   2.268  0.3177 -0.5379  0.2463
 5117TIP3   OH236841   1.497   6.296  13.209 -0.5115 -0.1489 -0.3342
 5117TIP3    H136842   1.501   6.284  13.114  2.0108 -0.6362 -0.2352
 5117TIP3    H236843   1.510   6.389  13.222 -3.1653  0.3313 -0.4694
 5118TIP3   OH236844   1.578   5.775  16.843  0.3325 -0.0412 -0.2954
 5118TIP3    H136845   1.552   5.832  16.915  0.2990  0.7924 -0.9486
 5118TIP3    H236846   1.534   5.692  16.860  0.1356  0.2228  0.5107
 5119TIP3   OH236847   2.988   3.587   6.151 -0.2367 -0.0896  0.6533
 5119TIP3    H136848   2.903   3.610   6.188 -1.0060  0.9945 -1.6184
 5119TIP3    H236849   2.999   3.646   6.077  1.9763 -1.0001  0.1717
 5120TIP3   OH236850   4.350   2.353   3.857  0.5899 -0.2745 -0.3091
 5120TIP3    H136851   4.408   2.408   3.910  1.2895 -1.4366  0.1753
 5120TIP3    H236852   4.396   2.342   3.774  1.5740 -1.9538  0.3973
 5121TIP3   OH236853   1.591   3.058  14.228 -0.4721  0.0525 -0.3123
 5121TIP3    H136854   1.601   3.055  14.133 -2.2281 -0.8704 -0.5009
 5121TIP3    H236855   1.503   3.093  14.243  0.3991  1.8653  1.0499
 5122TIP3   OH236856   1.189   2.925  13.636 -0.2499 -0.0978 -0.8306
 5122TIP3    H136857   1.282   2.907  13.650 -0.0136  2.1153  0.8698
 5122TIP3    H236858   1.144   2.874  13.704 -0.1016  0.4758 -0.2970
 5123TIP3   OH236859   0.689   1.434   1.627 -0.6776  0.1109  0.0607
 5123TIP3    H136860   0.703   1.477   1.711 -2.8009  2.5544 -0.7144
 5123TIP3    H236861   0.777   1.419   1.592  0.1889  0.5408  1.9630
 5124TIP3   OH236862   2.264   0.772   4.200  0.7627  0.1437  0.7672
 5124TIP3    H136863   2.276   0.719   4.120  1.6124 -0.5596  1.3345
 5124TIP3    H236864   2.179   0.815   4.188  1.4196  1.0518 -1.0811
 5125TIP3   OH236865   5.163   1.620  11.359  0.3172  0.6637  0.3966
 5125TIP3    H136866   5.164   1.596  11.266  2.6871  1.2040  0.2267
 5125TIP3    H236867   5.138   1.540  11.404  0.1380  0.1110 -0.6448
 5126TIP3   OH236868   5.820   3.464   4.793 -0.0360 -0.1336 -0.5982
 5126TIP3    H136869   5.799   3.481   4.884 -1.0167  2.1048 -1.1787
 5126TIP3    H236870   5.737   3.439   4.753  0.6109 -2.3350 -0.6721
 5127TIP3   OH236871   1.603   2.361   6.152 -0.3736  0.0439  0.4338
 5127TIP3    H136872   1.586   2.402   6.237 -0.9729 -0.2561  0.4608
 5127TIP3    H236873   1.606   2.268   6.170 -1.8992 -0.1398 -0.0775
 5128TIP3   OH236874   0.851   5.990  13.047  0.2026  0.4479 -0.1795
 5128TIP3    H136875   0.880   5.935  12.974 -1.4404  0.8452 -1.1903
 5128TIP3    H236876   0.847   5.930  13.122 -0.8927 -0.7117 -1.0995
 5129TIP3   OH236877   4.982   5.525   1.541 -0.5569  0.3379 -0.5435
 5129TIP3    H136878   5.045   5.503   1.472 -1.8890 -0.5556 -1.5215
 5129TIP3    H236879   4.970   5.619   1.533 -0.8510  0.2154 -1.6904
 5130TIP3   OH236880   1.280   3.484   3.571  0.1902 -0.1664 -0.2569
 5130TIP3    H136881   1.226   3.475   3.492 -1.2062 -0.1775  0.6607
 5130TIP3    H236882   1.328   3.566   3.558 -1.0806  0.5628 -0.5206
 5131TIP3   OH236883   2.088   0.487   3.503  0.1899 -0.1108  1.0809
 5131TIP3    H136884   2.181   0.466   3.511  0.6137 -0.0436 -2.2160
 5131TIP3    H236885   2.082   0.579   3.526  2.1410  1.5603 -3.7652
 5132TIP3   OH236886   1.514   4.231  14.266  0.7629  0.6453 -0.1025
 5132TIP3    H136887   1.439   4.178  14.293  0.7968  1.7814  2.5269
 5132TIP3    H236888   1.475   4.313  14.235  0.8549  0.8985  0.4339
 5133TIP3   OH236889   3.101   2.397  15.614 -0.3642  0.1699  0.2787
 5133TIP3    H136890   3.107   2.484  15.654 -0.1996 -0.2153  1.1151
 5133TIP3    H236891   3.073   2.414  15.524  2.6889  1.3293 -0.5794
 5134TIP3   OH236892   2.923   4.504   2.497  0.0638 -0.2438 -0.1365
 5134TIP3    H136893   2.913   4.594   2.528  2.4095  0.7288 -1.8726
 5134TIP3    H236894   2.840   4.462   2.518 -0.9632  2.2037  1.1051
 5135TIP3   OH236895   6.663   1.340   3.141  0.0989 -0.0876  0.6377
 5135TIP3    H136896   6.731   1.326   3.076  0.0202 -1.6978  0.8606
 5135TIP3    H236897   6.709   1.371   3.219  0.5557 -0.8991  0.6999
 5136TIP3   OH236898   6.225   5.080   2.008  0.5180 -0.3160 -0.6477
 5136TIP3    H136899   6.160   5.040   1.950  1.5965 -0.4723 -1.7973
 5136TIP3    H236900   6.250   5.161   1.963  0.8169 -0.0397 -0.0041
 5137TIP3   OH236901   2.743   2.262   3.673 -0.0024 -0.3626 -0.3321
 5137TIP3    H136902   2.668   2.311   3.639  0.7121  0.8792 -0.2062
 5137TIP3    H236903   2.817   2.321   3.660  0.8031 -1.1893  0.3952
 5138TIP3   OH236904   4.291   5.362  14.827  0.3792 -0.0030  0.1760
 5138TIP3    H136905   4.335   5.361  14.912  0.7567  0.3363 -0.0126
 5138TIP3    H236906   4.311   5.277  14.788 -0.7499 -0.6322  0.8972
 5139TIP3   OH236907   1.624   1.842   2.483 -0.4933  0.2691 -0.0799
 5139TIP3    H136908   1.674   1.872   2.558  0.1351  0.1008 -0.4274
 5139TIP3    H236909   1.646   1.749   2.475 -0.9805  0.1569 -0.1425
 5140TIP3   OH236910   6.022   2.726   5.374  0.5897 -0.4959 -0.0431
 5140TIP3    H136911   5.982   2.656   5.425 -0.6091  0.1328 -0.0989
 5140TIP3    H236912   6.116   2.713   5.385  0.3747 -1.8012  0.3641
 5141TIP3   OH236913   4.672   5.798   2.376 -0.4847  0.3983  0.1278
 5141TIP3    H136914   4.664   5.780   2.470  0.1237  0.5475  0.2107
 5141TIP3    H236915   4.737   5.734   2.345  1.5001  2.1796  0.3714
 5142TIP3   OH236916   6.385   3.414   3.595  0.3350  0.2072 -0.6417
 5142TIP3    H136917   6.356   3.434   3.684  1.9641  0.9636 -0.2391
 5142TIP3    H236918   6.339   3.333   3.572 -1.6763  1.0721  0.0916
 5143TIP3   OH236919   2.804   0.116  16.065  0.4807  0.3215 -0.0934
 5143TIP3    H136920   2.854   0.034  16.063  0.1168  0.0234  1.5741
 5143TIP3    H236921   2.840   0.164  16.139 -0.0035  1.2408 -0.4353
 5144TIP3   OH236922   2.545   5.110  13.595  0.0989  0.1494  0.4701
 5144TIP3    H136923   2.592   5.054  13.534 -0.8577 -0.6659  0.4584
 5144TIP3    H236924   2.479   5.154  13.542 -1.6685 -1.6251  1.1023
 5145TIP3   OH236925   0.106   2.843   4.648 -0.2539  0.0533  0.5781
 5145TIP3    H136926   0.108   2.751   4.621  0.1000 -0.0295  0.8832
 5145TIP3    H236927   0.124   2.892   4.567  0.7813 -0.1912  0.6445
 5146TIP3   OH236928   2.920   4.337  12.920 -0.3566  0.1241  0.1919
 5146TIP3    H136929   2.944   4.270  12.856  0.0215 -1.3607  1.8155
 5146TIP3    H236930   2.833   4.312  12.950  0.1843 -0.2585  1.5255
 5147TIP3   OH236931   5.589   3.362   2.238  0.2494  0.3178 -0.2482
 5147TIP3    H136932   5.514   3.376   2.296 -1.2962 -0.0386 -2.0674
 5147TIP3    H236933   5.593   3.440   2.184 -0.4722 -0.7611 -1.9163
 5148TIP3   OH236934   4.050   5.578   6.071  0.0503  0.7356  0.1115
 5148TIP3    H136935   4.027   5.631   6.147 -3.2981  1.3991 -1.1993
 5148TIP3    H236936   4.068   5.491   6.107  1.8763  1.7647  1.9015
 5149TIP3   OH236937   1.783   3.988   5.327 -0.4515 -0.0168 -0.4332
 5149TIP3    H136938   1.734   4.028   5.255 -2.0814 -0.2391  0.4965
 5149TIP3    H236939   1.762   4.042   5.403  0.7470 -0.1448  0.0070
 5150TIP3   OH236940   3.877   4.501  16.023 -0.1748  0.3266  0.6078
 5150TIP3    H136941   3.965   4.538  16.018 -0.0464  0.0355  0.7395
 5150TIP3    H236942   3.873   4.439  15.950  0.3838 -1.0702  1.7244
 5151TIP3   OH236943   5.589   5.140  16.376  0.1721 -0.4311  0.1537
 5151TIP3    H136944   5.573   5.049  16.349  1.8239 -0.8688  0.5180
 5151TIP3    H236945   5.537   5.151  16.455 -1.9590 -0.2536 -1.2109
 5152TIP3   OH236946   6.101   1.483  11.660 -0.2780 -0.2982  0.0573
 5152TIP3    H136947   6.142   1.426  11.595 -0.1767  0.8277 -0.9091
 5152TIP3    H236948   6.067   1.424  11.727  2.0301 -1.3562  0.3985
 5153TIP3   OH236949   1.299   1.329  15.469  0.2019  0.2669 -0.0901
 5153TIP3    H136950   1.346   1.362  15.545  1.1800 -0.9105 -0.1465
 5153TIP3    H236951   1.262   1.407  15.427  0.3342  1.0036  1.1256
 5154TIP3   OH236952   0.764   3.453   5.461 -0.0548 -0.3368  0.2429
 5154TIP3    H136953   0.711   3.378   5.490 -1.7764  0.6422 -0.1969
 5154TIP3    H236954   0.752   3.519   5.530 -0.6488  0.4369 -0.5750
 5155TIP3   OH236955   1.826   3.184   4.739 -0.0670  0.2081  0.7367
 5155TIP3    H136956   1.778   3.231   4.671  2.5828  0.1845 -1.3368
 5155TIP3    H236957   1.770   3.110   4.762 -2.1005  1.5736  0.4166
 5156TIP3   OH236958   4.889   2.566   0.539  0.7137  0.3073  0.0972
 5156TIP3    H136959   4.912   2.556   0.446  0.5689  2.2669 -0.2092
 5156TIP3    H236960   4.966   2.537   0.586  1.3283  0.5963 -0.7000
 5157TIP3   OH236961   0.017   4.817   0.527  0.2525  0.1108  0.7106
 5157TIP3    H136962  -0.029   4.894   0.495  1.9184  0.3777 -1.1738
 5157TIP3    H236963   0.109   4.834   0.510  0.7834 -1.7658  1.4435
 5158TIP3   OH236964   4.935   4.733   2.091  0.2624 -0.0849 -0.3649
 5158TIP3    H136965   4.895   4.668   2.149  0.7486  0.6740  0.8600
 5158TIP3    H236966   4.894   4.816   2.115 -0.5077  0.0716 -2.0590
 5159TIP3   OH236967   4.015   0.510  12.756 -0.1351  0.3855 -0.5143
 5159TIP3    H136968   4.109   0.498  12.771 -0.1340  1.0129  0.0639
 5159TIP3    H236969   4.001   0.484  12.665  0.8594  1.6067 -1.0473
 5160TIP3   OH236970   1.844   2.241   3.619 -0.5139  0.1990  0.3910
 5160TIP3    H136971   1.821   2.310   3.680  0.4538  0.9534 -0.0667
 5160TIP3    H236972   1.934   2.218   3.642 -0.7421 -0.7398  0.3766
 5161TIP3   OH236973   2.839   5.016   5.911 -0.1885  0.1342 -0.0013
 5161TIP3    H136974   2.765   5.035   5.853 -0.1408  1.4780  0.3329
 5161TIP3    H236975   2.831   5.081   5.982 -0.1861 -1.3810  1.4496
 5162TIP3   OH236976   2.847   0.444  11.954 -0.3606 -0.1584 -1.0121
 5162TIP3    H136977   2.836   0.495  12.034  1.1827  1.0098 -1.5182
 5162TIP3    H236978   2.941   0.438  11.941 -0.4897 -2.5246 -1.3994
 5163TIP3   OH236979   6.540   3.266  11.960  0.3310  0.0905 -0.5659
 5163TIP3    H136980   6.578   3.333  12.016 -0.1153  0.7609 -1.0471
 5163TIP3    H236981   6.584   3.185  11.986 -0.6153  0.1695  1.4933
 5164TIP3   OH236982   3.743   6.072  12.555 -0.0751 -0.3187 -0.3268
 5164TIP3    H136983   3.772   6.020  12.480 -1.4619  1.6247 -2.3393
 5164TIP3    H236984   3.777   6.160  12.537 -1.5877  0.5007  0.6090
 5165TIP3   OH236985   2.441   5.121   4.564  0.2433  0.1824 -0.2139
 5165TIP3    H136986   2.364   5.129   4.620 -0.2592  0.1579 -0.8952
 5165TIP3    H236987   2.413   5.154   4.479  1.4364  1.6713 -0.0756
 5166TIP3   OH236988   5.777   4.123   0.224  0.1212  0.1713 -0.3273
 5166TIP3    H136989   5.706   4.185   0.207  0.8863  0.8840 -1.0118
 5166TIP3    H236990   5.820   4.113   0.139 -0.0573 -1.4101 -0.2519
 5167TIP3   OH236991   4.051   0.538  11.420  0.2159  0.1063  0.6753
 5167TIP3    H136992   3.958   0.552  11.402  0.4461  1.3042  0.3666
 5167TIP3    H236993   4.058   0.443  11.435 -0.7960 -0.2391 -0.8030
 5168TIP3   OH236994   2.864   1.027   2.962  0.0074 -0.3377  0.4881
 5168TIP3    H136995   2.931   1.001   3.025  0.4282  0.1651  0.2558
 5168TIP3    H236996   2.868   0.958   2.895  1.9533  0.8577 -0.7436
 5169TIP3   OH236997   6.403   2.513   4.540  0.3781 -0.4400  0.2539
 5169TIP3    H136998   6.482   2.556   4.508  1.9290 -2.8512  0.6602
 5169TIP3    H236999   6.338   2.528   4.471  0.8045  2.4183  0.3560
 5170TIP3   OH237000   6.433   0.868   6.568  0.3580 -0.4013  0.0648
 5170TIP3    H137001   6.441   0.963   6.570 -0.5522 -0.2990 -0.4933
 5170TIP3    H237002   6.496   0.837   6.633 -1.4612  0.7099  2.5350
 5171TIP3   OH237003   4.730   5.120   0.211  0.8677  0.8523  0.2440
 5171TIP3    H137004   4.742   5.209   0.176  0.2989  0.8821  0.1146
 5171TIP3    H237005   4.649   5.090   0.170  0.2092  0.8678  1.5095
 5172TIP3   OH237006   6.406   3.298  13.805 -0.8423  0.0892  0.1089
 5172TIP3    H137007   6.323   3.252  13.794 -0.9447  0.2852  0.0564
 5172TIP3    H237008   6.432   3.323  13.716 -0.0843 -1.0838 -0.0168
 5173TIP3   OH237009   5.085   4.526  16.073  0.0449 -0.3582 -0.1233
 5173TIP3    H137010   5.180   4.533  16.082  0.3036 -2.4554 -0.6842
 5173TIP3    H237011   5.052   4.610  16.105  2.1635  1.1283 -1.5111
 5174TIP3   OH237012   4.377   5.112  14.757  0.0350  0.6517 -0.9783
 5174TIP3    H137013   4.461   5.091  14.798 -0.4777 -1.4787 -0.9224
 5174TIP3    H237014   4.385   5.077  14.668 -0.4849  1.2818 -1.2840
 5175TIP3   OH237015   4.349   1.486  14.965  0.1665 -0.2326  0.0149
 5175TIP3    H137016   4.342   1.529  15.050  0.7443 -0.5066  0.2062
 5175TIP3    H237017   4.274   1.426  14.962 -1.2651  1.5229 -0.6953
 5176TIP3   OH237018   5.431   2.960  11.435 -0.6221  0.1370 -0.6622
 5176TIP3    H137019   5.371   2.913  11.378  0.2540 -0.9152 -0.7442
 5176TIP3    H237020   5.374   3.012  11.492 -1.5091  1.3224 -2.5366
 5177TIP3   OH237021   2.046   5.445  16.523 -0.3153  0.1507  0.6194
 5177TIP3    H137022   2.074   5.359  16.554 -0.0667  0.2491  0.6763
 5177TIP3    H237023   1.961   5.430  16.483 -0.1342 -0.1781  0.3488
 5178TIP3   OH237024   3.606   5.693   2.214 -0.2623  0.0215 -0.2830
 5178TIP3    H137025   3.693   5.701   2.176 -0.7159 -1.7207 -1.8501
 5178TIP3    H237026   3.548   5.737   2.152 -0.8129 -1.3480 -0.7776
 5179TIP3   OH237027   5.026   5.350   6.507 -0.0457  0.0297  0.1622
 5179TIP3    H137028   5.119   5.338   6.490 -0.1102 -0.4729  0.1509
 5179TIP3    H237029   5.002   5.429   6.457  0.7626  1.2345  1.5797
 5180TIP3   OH237030   3.730   0.164   4.490 -0.0518  0.2412  0.3944
 5180TIP3    H137031   3.804   0.104   4.501 -1.4147 -1.4620  0.6945
 5180TIP3    H237032   3.750   0.213   4.410  0.6186 -1.4148 -0.5106
 5181TIP3   OH237033   5.428   1.194  12.943 -0.5651 -0.1328 -0.0257
 5181TIP3    H137034   5.393   1.107  12.921 -1.0829  0.0292  0.1276
 5181TIP3    H237035   5.472   1.223  12.863 -0.6368 -0.4172 -0.1712
 5182TIP3   OH237036   1.885   1.706  16.465 -0.1649  0.1251  0.3061
 5182TIP3    H137037   1.912   1.798  16.476  0.8624  0.2888 -2.5698
 5182TIP3    H237038   1.963   1.655  16.488 -0.6360 -0.0468  1.5941
 5183TIP3   OH237039   1.104   6.154  11.170 -0.0968 -0.2331 -0.1205
 5183TIP3    H137040   1.057   6.225  11.215 -0.0673 -0.0707 -0.3415
 5183TIP3    H237041   1.197   6.176  11.180 -0.1098  0.2644 -0.9884
 5184TIP3   OH237042   4.535   2.347   3.638  0.3663  0.3516  0.8972
 5184TIP3    H137043   4.631   2.348   3.639  0.4143  0.5271 -0.9695
 5184TIP3    H237044   4.511   2.399   3.562 -1.3006  2.2769  2.5943
 5185TIP3   OH237045   5.094   3.672  13.837 -0.4841 -0.0993  0.0088
 5185TIP3    H137046   5.030   3.610  13.872 -0.9423 -0.4472 -1.3893
 5185TIP3    H237047   5.045   3.725  13.774  0.2406  0.7376  0.1227
 5186TIP3   OH237048   4.869   4.165   3.353  0.1478  0.0586  0.1822
 5186TIP3    H137049   4.815   4.239   3.325 -0.6617 -0.8404 -0.7414
 5186TIP3    H237050   4.870   4.170   3.449 -0.6138  0.7654  0.1588
 5187TIP3   OH237051   6.023   6.679   3.616  0.3526 -0.5413  0.0549
 5187TIP3    H137052   6.102   6.680   3.562  0.2230  0.1609 -0.1296
 5187TIP3    H237053   6.037   6.606   3.677  1.3335 -0.1680  0.3058
 5188TIP3   OH237054   6.686   1.325   5.618  0.0406  0.5897 -0.3977
 5188TIP3    H137055   6.629   1.363   5.550 -1.4954 -0.5888  0.1564
 5188TIP3    H237056   6.734   1.256   5.572 -0.5074  0.2350 -0.4553
 5189TIP3   OH237057   2.285   1.509   0.072 -0.0674 -0.1590 -0.0033
 5189TIP3    H137058   2.359   1.481   0.126  0.1701  0.5296  0.0359
 5189TIP3    H237059   2.221   1.439   0.081  0.3479 -0.4890  0.4244
 5190TIP3   OH237060   4.584   4.142  14.695  0.1868 -0.4013 -0.4265
 5190TIP3    H137061   4.592   4.047  14.695 -0.3309 -0.4473 -0.2841
 5190TIP3    H237062   4.648   4.172  14.759  0.4965 -0.6376 -0.6197
 5191TIP3   OH237063   5.676   3.617  17.095 -0.0151  0.2790  0.3455
 5191TIP3    H137064   5.654   3.553  17.163  0.0567  0.1737  0.2686
 5191TIP3    H237065   5.594   3.666  17.082 -0.3857 -0.5067 -0.3617
 5192TIP3   OH237066   5.699   2.239   1.166 -0.6868 -0.6632  0.1434
 5192TIP3    H137067   5.689   2.282   1.251 -0.9600  0.0267 -0.2270
 5192TIP3    H237068   5.674   2.148   1.182 -0.5732 -0.5805  0.8349
 5193TIP3   OH237069   2.585   4.034   0.432  0.1192  0.2487  0.1572
 5193TIP3    H137070   2.526   3.959   0.430 -0.4636  0.7053 -1.0469
 5193TIP3    H237071   2.670   3.999   0.409 -0.0701 -0.1079  0.0034
 5194TIP3   OH237072   1.358   3.716   4.253 -0.5355  0.3547 -0.3770
 5194TIP3    H137073   1.451   3.724   4.230 -0.1798 -0.4839  0.7144
 5194TIP3    H237074   1.318   3.677   4.175  0.3352 -0.8227 -0.2597
 5195TIP3   OH237075   2.985   4.337   3.267  0.0392  0.0049  0.0653
 5195TIP3    H137076   2.977   4.243   3.279 -0.4825  0.0250 -0.1279
 5195TIP3    H237077   2.966   4.352   3.174  1.1675  0.1815 -0.1505
 5196TIP3   OH237078   0.339   6.406  13.823  0.0438  0.0425  0.5102
 5196TIP3    H137079   0.422   6.427  13.867  0.0373 -3.7014  2.6835
 5196TIP3    H237080   0.364   6.346  13.753 -0.7643 -1.8179  1.7256
 5197TIP3   OH237081   6.740   0.456   5.631 -0.4999  0.2035  0.2437
 5197TIP3    H137082   6.810   0.461   5.697  0.7431  1.8832 -1.0960
 5197TIP3    H237083   6.675   0.519   5.662  0.2776  1.3103 -0.2776
 5198TIP3   OH237084   0.551   5.973   0.538 -0.1830  0.4422 -0.1796
 5198TIP3    H137085   0.620   5.950   0.476  2.3353  1.3971  2.0244
 5198TIP3    H237086   0.560   5.909   0.609 -1.1630  0.9628  0.4422
 5199TIP3   OH237087   6.100   2.443  16.381  0.2799  0.0437  0.8477
 5199TIP3    H137088   6.040   2.369  16.378 -0.8561  0.9558  0.7009
 5199TIP3    H237089   6.176   2.415  16.329  0.1770 -1.2651  1.3686
 5200TIP3   OH237090   6.156   5.404   2.814 -0.7006  0.5551  0.2048
 5200TIP3    H137091   6.067   5.420   2.785 -0.4117  1.0763 -0.3998
 5200TIP3    H237092   6.200   5.366   2.738 -0.3662  0.4349  0.4537
 5201TIP3   OH237093   0.750   6.739   4.960  0.3917  0.0363  0.0932
 5201TIP3    H137094   0.810   6.676   5.001  0.7324  1.2328  1.5439
 5201TIP3    H237095   0.688   6.762   5.030 -0.7849  0.0364 -0.9137
 5202TIP3   OH237096   2.644   2.269   3.944  1.0014 -0.1576 -0.0464
 5202TIP3    H137097   2.679   2.261   4.033  0.4346  0.5431  0.2540
 5202TIP3    H237098   2.630   2.363   3.933 -0.8914 -0.4032 -0.0966
 5203TIP3   OH237099   1.242   6.682  11.357 -0.7454 -0.6055 -0.2540
 5203TIP3    H137100   1.253   6.613  11.291 -1.8499 -0.7281 -0.3292
 5203TIP3    H237101   1.177   6.648  11.418  0.0373 -0.3654  0.7497
 5204TIP3   OH237102   5.641   0.665  11.588 -0.6122  0.4628  0.8256
 5204TIP3    H137103   5.652   0.671  11.493  0.2720 -0.7101  0.8206
 5204TIP3    H237104   5.549   0.684  11.603 -0.3642  2.6225 -0.0529
 5205TIP3   OH237105   6.578   3.633  15.008 -0.4964  0.2802  0.0199
 5205TIP3    H137106   6.529   3.652  14.928 -1.7751  1.7250  1.0842
 5205TIP3    H237107   6.618   3.717  15.033  1.9494 -0.6760 -0.3768
 5206TIP3   OH237108   5.013   1.979  10.824  0.8061  0.3561 -0.2096
 5206TIP3    H137109   4.953   1.964  10.896  0.3148 -0.6832 -0.8171
 5206TIP3    H237110   4.958   1.974  10.745  0.8967  3.6251 -0.6243
 5207TIP3   OH237111   3.836   5.225  17.200 -0.1904 -0.2359 -0.3299
 5207TIP3    H137112   3.819   5.240  17.107 -0.4896 -0.7159 -0.3517
 5207TIP3    H237113   3.905   5.159  17.202  1.1794  1.1140 -0.2259
 5208TIP3   OH237114   6.440   3.482  15.669 -0.0875 -0.2455 -0.0648
 5208TIP3    H137115   6.532   3.502  15.685 -0.2333  0.5480 -0.1550
 5208TIP3    H237116   6.441   3.418  15.598  0.4791 -2.2993  1.7026
 5209TIP3   OH237117   5.521   3.515   5.211  0.3575 -0.3734 -0.0908
 5209TIP3    H137118   5.513   3.464   5.291  0.6965  0.3984  0.4406
 5209TIP3    H237119   5.452   3.581   5.218  0.5453 -0.1517 -0.3225
 5210TIP3   OH237120   5.123   4.738  14.416  0.1015  0.0589  0.2115
 5210TIP3    H137121   5.152   4.659  14.370  0.0342 -0.3003  0.7700
 5210TIP3    H237122   5.189   4.804  14.396 -1.4231  0.8360 -2.8605
 5211TIP3   OH237123   5.578   1.558   5.943  0.2063 -0.3411  0.5754
 5211TIP3    H137124   5.510   1.516   5.891 -0.5072  1.3684  0.0843
 5211TIP3    H237125   5.578   1.509   6.026 -0.2925 -1.5603 -0.1122
 5212TIP3   OH237126   1.014   3.955  16.568  0.2176  0.0649 -0.6467
 5212TIP3    H137127   0.920   3.942  16.578  0.2640  0.3304  0.1473
 5212TIP3    H237128   1.021   4.022  16.499 -0.2737  1.7960  0.9019
 5213TIP3   OH237129   1.132   3.991  11.293 -0.3371  0.2773 -0.0836
 5213TIP3    H137130   1.127   3.938  11.214 -0.0779 -0.4633  0.3931
 5213TIP3    H237131   1.058   3.963  11.347  0.0092  0.1368  0.3276
 5214TIP3   OH237132   0.770   4.726   2.014  0.5461  0.4173 -0.5434
 5214TIP3    H137133   0.836   4.662   1.987  1.4827  1.6484 -1.2853
 5214TIP3    H237134   0.821   4.800   2.047 -0.4046  1.6729 -1.7584
 5215TIP3   OH237135   5.052   2.143  14.120  0.1962  0.2157  0.0087
 5215TIP3    H137136   5.110   2.182  14.054  0.9912 -1.9855 -0.6861
 5215TIP3    H237137   4.979   2.107  14.070  0.5449 -1.0175  0.3487
 5216TIP3   OH237138   4.041   4.679   1.767  0.3043  0.0293 -0.0268
 5216TIP3    H137139   4.065   4.674   1.860  1.1229  2.5093 -0.0089
 5216TIP3    H237140   4.110   4.631   1.722 -1.0318 -2.7206  0.6767
 5217TIP3   OH237141   2.536   4.909   6.490 -0.2716 -0.2369 -0.0634
 5217TIP3    H137142   2.518   4.879   6.579 -0.9398 -0.6163 -0.3212
 5217TIP3    H237143   2.463   4.966   6.468 -0.5161 -0.7660 -0.6550
 5218TIP3   OH237144   3.682   0.232   4.202 -0.1767  0.2520 -0.5260
 5218TIP3    H137145   3.775   0.211   4.188 -0.1829  0.4561 -0.8961
 5218TIP3    H237146   3.641   0.215   4.117 -0.6906 -0.9329 -0.0530
 5219TIP3   OH237147   6.541   2.080  13.112  0.1175 -0.3396  0.1422
 5219TIP3    H137148   6.531   1.997  13.158  0.5757  0.7842  2.3720
 5219TIP3    H237149   6.635   2.089  13.097  0.2290  0.4194  1.2114
 5220TIP3   OH237150   6.793   2.783  12.972 -0.0104 -0.4189  0.2399
 5220TIP3    H137151   6.747   2.863  12.947  1.0881  0.3890  0.7413
 5220TIP3    H237152   6.848   2.762  12.897  0.2238 -0.3134  0.3829
 5221TIP3   OH237153   1.934   6.308  16.348 -0.0904  0.7175 -0.3452
 5221TIP3    H137154   1.908   6.237  16.288 -0.9181 -0.4391  1.3063
 5221TIP3    H237155   2.029   6.313  16.339 -0.0505 -0.3773 -0.7479
 5222TIP3   OH237156   1.394   0.157   1.035  0.3168 -0.2682  0.0572
 5222TIP3    H137157   1.305   0.141   1.005 -0.0359 -0.0410  0.9555
 5222TIP3    H237158   1.427   0.226   0.977 -1.0999  1.7336  1.4776
 5223TIP3   OH237159   5.703   3.272   2.645  0.5676 -0.5206  0.3311
 5223TIP3    H137160   5.720   3.283   2.739  1.9881  0.5975 -0.0178
 5223TIP3    H237161   5.756   3.340   2.604 -0.6844 -0.4485 -1.2439
 5224TIP3   OH237162   1.918   3.676   5.334  0.0784  0.3911 -0.0604
 5224TIP3    H137163   1.903   3.759   5.380  1.2382  0.2102  0.6847
 5224TIP3    H237164   1.880   3.610   5.392 -0.1853  0.3296 -0.3008
 5225TIP3   OH237165   3.316   6.107  14.099 -0.4051  0.3516  0.0493
 5225TIP3    H137166   3.334   6.043  14.168  0.4359  2.4932  1.9273
 5225TIP3    H237167   3.386   6.095  14.036 -0.2007 -0.4887  0.4238
 5226TIP3   OH237168   6.569   1.398  14.005  0.7966 -0.2392  0.1940
 5226TIP3    H137169   6.483   1.439  13.997  1.1733  0.9878  1.9298
 5226TIP3    H237170   6.552   1.304  13.996 -0.9485 -0.1438  1.8907
 5227TIP3   OH237171   6.767   6.130  13.452 -0.1070  0.1700  0.4292
 5227TIP3    H137172   6.853   6.092  13.440  0.4024  0.7510  1.9568
 5227TIP3    H237173   6.761   6.198  13.385  0.8644  0.5201  0.6899
 5228TIP3   OH237174   1.214   6.167  16.927 -0.1227  0.5356 -0.7630
 5228TIP3    H137175   1.298   6.206  16.901 -0.5746  0.9565 -1.6552
 5228TIP3    H237176   1.210   6.179  17.022  1.0766 -0.0038 -0.6284
 5229TIP3   OH237177   0.779   2.500  14.431 -0.0393  0.2355  0.0623
 5229TIP3    H137178   0.856   2.480  14.485  1.2759  1.0315 -1.4110
 5229TIP3    H237179   0.740   2.577  14.471  1.4180  1.3363 -0.5418
 5230TIP3   OH237180   3.466   0.548  16.966 -0.4367  0.4474 -0.3441
 5230TIP3    H137181   3.519   0.478  17.005  1.0435  1.3006 -0.7682
 5230TIP3    H237182   3.377   0.512  16.965 -0.0745 -0.6256  1.3411
 5231TIP3   OH237183   5.584   6.458  16.255  0.2431 -0.1602 -0.7358
 5231TIP3    H137184   5.634   6.382  16.283 -0.2199 -1.0858 -2.2768
 5231TIP3    H237185   5.551   6.497  16.336  0.9652 -1.2668  0.1086
 5232TIP3   OH237186   4.743   1.854  13.582 -0.3718  0.1101  0.0503
 5232TIP3    H137187   4.749   1.839  13.487  0.8879 -2.1899  0.4047
 5232TIP3    H237188   4.670   1.798  13.610 -0.0429 -0.0668  0.5584
 5233TIP3   OH237189   2.552   6.670  12.262 -0.0619  0.0762 -0.2404
 5233TIP3    H137190   2.512   6.753  12.239  0.0092  0.8545  2.1485
 5233TIP3    H237191   2.502   6.639  12.338  1.3488 -0.9012  0.3473
 5234TIP3   OH237192   2.065   1.611  12.578  1.2408  0.0357 -0.4519
 5234TIP3    H137193   2.032   1.527  12.612 -0.5807  0.5021 -0.9187
 5234TIP3    H237194   2.009   1.677  12.619  0.9354  0.8165 -2.0345
 5235TIP3   OH237195   6.317   4.330   6.586  0.4466  0.0256 -0.6336
 5235TIP3    H137196   6.399   4.318   6.538  0.4160  0.2583 -0.7471
 5235TIP3    H237197   6.338   4.395   6.653  0.2350  0.4428 -0.9661
 5236TIP3   OH237198   0.000   3.103  15.305  0.1261  0.2957 -0.3592
 5236TIP3    H137199  -0.008   3.008  15.292  1.3898 -0.2776  2.2813
 5236TIP3    H237200  -0.081   3.128  15.349  1.3369 -0.4429  2.5638
 5237TIP3   OH237201   2.897   3.256   1.672 -0.2449  0.1742  0.2593
 5237TIP3    H137202   2.819   3.260   1.727 -0.0110  1.2168  0.5451
 5237TIP3    H237203   2.963   3.305   1.721 -0.3325  2.0815 -1.3759
 5238TIP3   OH237204   5.043   2.493  12.958 -0.0316  0.0344  1.1437
 5238TIP3    H137205   4.963   2.545  12.956 -0.7583 -0.9914 -2.6039
 5238TIP3    H237206   5.108   2.545  12.910 -0.0985 -1.3976 -0.6019
 5239TIP3   OH237207   2.290   4.618  15.702  0.4769 -0.5536  0.1973
 5239TIP3    H137208   2.321   4.562  15.773  2.6743  0.3696  0.0320
 5239TIP3    H237209   2.364   4.624  15.641 -0.1735  1.3708 -0.4885
 5240TIP3   OH237210   6.567   4.573  13.943  0.2965 -0.1302  0.0919
 5240TIP3    H137211   6.611   4.515  13.882 -0.3855 -0.1083 -0.4250
 5240TIP3    H237212   6.490   4.605  13.896 -0.6407 -0.6739  1.1979
 5241TIP3   OH237213   4.981   6.621   2.327 -0.0322  0.0096 -0.2631
 5241TIP3    H137214   5.057   6.619   2.270  0.7683  1.4017  0.6918
 5241TIP3    H237215   4.912   6.659   2.273  0.5689  0.8014 -0.4993
 5242TIP3   OH237216   3.851   2.697  13.643 -0.5042  0.0543  0.3248
 5242TIP3    H137217   3.842   2.752  13.565 -0.6410  0.4587  0.6218
 5242TIP3    H237218   3.903   2.750  13.704 -0.6379 -0.1442  0.6149
 5243TIP3   OH237219   2.163   0.388   0.876  0.2554 -0.4089 -0.2655
 5243TIP3    H137220   2.160   0.362   0.968  0.7828  0.0764 -0.1019
 5243TIP3    H237221   2.239   0.342   0.840  1.4357  1.1582  0.1265
 5244TIP3   OH237222   3.136   1.728   6.764  0.2388 -0.2206 -0.1759
 5244TIP3    H137223   3.179   1.680   6.835 -0.9123 -0.1874  0.5624
 5244TIP3    H237224   3.099   1.660   6.707 -2.7916 -0.3405  1.7174
 5245TIP3   OH237225   6.201   3.663   5.824 -0.1073  0.1511 -0.3216
 5245TIP3    H137226   6.238   3.595   5.768  0.0630  0.7819 -0.9924
 5245TIP3    H237227   6.222   3.635   5.913 -1.1890 -1.3448 -0.5028
 5246TIP3   OH237228   3.495   0.148  11.163  0.0668 -0.4428  0.3368
 5246TIP3    H137229   3.401   0.164  11.149 -0.0793 -2.0003 -0.6856
 5246TIP3    H237230   3.529   0.129  11.075  1.0465 -1.3255  0.8920
 5247TIP3   OH237231   6.451   0.734  14.152  0.2209 -0.1753  0.4416
 5247TIP3    H137232   6.531   0.759  14.198  0.4872  0.1773 -0.1988
 5247TIP3    H237233   6.473   0.650  14.112  0.0840 -0.3461  0.7263
 5248TIP3   OH237234   2.371   0.996   0.656 -0.1973  0.5171 -0.2262
 5248TIP3    H137235   2.305   1.026   0.719  0.3120  1.8274 -0.2754
 5248TIP3    H237236   2.323   0.942   0.594 -0.9766  0.3988  0.4610
 5249TIP3   OH237237   4.528   0.200  13.757  0.1573 -0.0438 -0.5639
 5249TIP3    H137238   4.619   0.176  13.774 -0.0729 -0.1752  0.5534
 5249TIP3    H237239   4.480   0.117  13.758 -0.3536  0.2191  1.4680
 5250TIP3   OH237240   3.860   0.320  16.558  0.5418 -0.2215 -0.1893
 5250TIP3    H137241   3.767   0.319  16.581  0.5579  0.5138 -0.0512
 5250TIP3    H237242   3.876   0.410  16.528  1.6562  0.2799  1.7380
 5251TIP3   OH237243   6.605   0.161   5.936 -0.3264  0.2928 -0.2386
 5251TIP3    H137244   6.623   0.187   5.846 -0.3067  1.8879  0.1917
 5251TIP3    H237245   6.520   0.200   5.956  0.0265  0.6390  0.6705
 5252TIP3   OH237246   3.384   2.608   1.625 -0.3660 -0.1456  0.1712
 5252TIP3    H137247   3.476   2.632   1.624  0.0883 -1.5006  2.4536
 5252TIP3    H237248   3.360   2.601   1.532  2.9682 -3.7690 -0.6900
 5253TIP3   OH237249   2.314   5.817   2.704 -0.3413 -0.1701 -0.2896
 5253TIP3    H137250   2.256   5.869   2.759  0.2365  0.3975 -0.1977
 5253TIP3    H237251   2.342   5.745   2.760 -0.6538 -0.2261 -0.2073
 5254TIP3   OH237252   3.503   3.917   1.498 -0.2283  0.4297 -0.5087
 5254TIP3    H137253   3.528   3.825   1.510  3.2587  0.9618 -2.2627
 5254TIP3    H237254   3.505   3.953   1.587  2.2426 -0.4497 -0.1046
 5255TIP3   OH237255   3.894   2.425  10.959 -0.5304 -0.0386  0.1816
 5255TIP3    H137256   3.921   2.421  10.868  0.0531 -1.5883  0.3985
 5255TIP3    H237257   3.953   2.366  11.005 -0.3195  1.2793  1.7151
 5256TIP3   OH237258   6.610   1.652  12.723 -0.3838  1.2448 -0.0483
 5256TIP3    H137259   6.649   1.670  12.809 -1.4580  1.8681  0.3208
 5256TIP3    H237260   6.516   1.651  12.739 -0.5681  0.5994 -1.0875
 5257TIP3   OH237261   2.414   2.588  13.855 -0.0024  0.2972 -0.6068
 5257TIP3    H137262   2.450   2.625  13.774 -1.7392 -0.7661 -1.9350
 5257TIP3    H237263   2.481   2.526  13.884  1.1770  1.5716 -0.5403
 5258TIP3   OH237264   3.837   0.308  12.891 -0.1099 -0.0856  0.2754
 5258TIP3    H137265   3.879   0.237  12.841  2.6211  1.2678  0.4721
 5258TIP3    H237266   3.903   0.377  12.894 -0.6376  0.4865  4.5041
 5259TIP3   OH237267   3.070   3.059   6.401 -0.1042 -0.4627  0.1410
 5259TIP3    H137268   3.104   3.148   6.413  0.8028 -0.9595  1.5938
 5259TIP3    H237269   2.980   3.071   6.372 -0.6839  0.9785  2.2904
 5260TIP3   OH237270   6.757   5.978  16.230  0.0706 -0.3444  0.5466
 5260TIP3    H137271   6.792   6.067  16.229 -1.0530  0.1737 -2.0175
 5260TIP3    H237272   6.673   5.985  16.275  0.4607 -0.3540  1.2940
 5261TIP3   OH237273   5.791   3.797  17.371  0.2018  0.3057 -0.4985
 5261TIP3    H137274   5.864   3.807  17.432  1.8994  0.9613 -2.5076
 5261TIP3    H237275   5.766   3.705  17.378  1.6840 -0.1148 -0.2185
 5262TIP3   OH237276   4.670   1.806   5.241  0.1305 -0.1773 -0.3499
 5262TIP3    H137277   4.731   1.815   5.168 -0.4145  0.2522 -0.7654
 5262TIP3    H237278   4.619   1.887   5.239  0.6196  0.1903  0.9899
 5263TIP3   OH237279   1.163   1.383   3.583 -0.2334 -0.0445  0.2288
 5263TIP3    H137280   1.248   1.339   3.593 -0.4298 -0.0364  2.4535
 5263TIP3    H237281   1.099   1.312   3.580 -0.2143 -0.0293 -0.8212
 5264TIP3   OH237282   4.328   2.130   3.994  0.7353 -0.5961  0.1378
 5264TIP3    H137283   4.315   2.204   3.935 -0.4121 -0.7458  0.1742
 5264TIP3    H237284   4.355   2.058   3.938 -0.8556 -0.8793 -0.3028
 5265TIP3   OH237285   1.399   3.853  14.457 -0.4680 -0.6385 -0.6954
 5265TIP3    H137286   1.326   3.814  14.409 -1.0783 -1.0886  0.5576
 5265TIP3    H237287   1.442   3.779  14.500  1.9863 -0.6794 -2.9530
 5266TIP3   OH237288   2.911   5.124  14.997 -0.1073 -0.4274 -0.6271
 5266TIP3    H137289   2.862   5.137  15.078  0.1449 -1.7311 -0.2372
 5266TIP3    H237290   2.881   5.039  14.964 -0.1803  0.0648 -1.8983
 5267TIP3   OH237291   6.549   1.529  17.307 -0.4410  0.6805  0.4907
 5267TIP3    H137292   6.608   1.455  17.322 -1.3964  0.2873  2.6957
 5267TIP3    H237293   6.483   1.496  17.246 -0.3945 -0.0117  0.8129
 5268TIP3   OH237294   5.915   3.210   5.886 -0.4460  0.6918  0.0178
 5268TIP3    H137295   5.946   3.129   5.927 -2.8379 -0.0373  0.5561
 5268TIP3    H237296   5.990   3.269   5.891  0.6457 -0.7150  1.7498
 5269TIP3   OH237297   3.985   3.495  14.334  0.3058 -0.3507 -0.3152
 5269TIP3    H137298   3.999   3.434  14.407 -1.4785 -0.8886 -0.3607
 5269TIP3    H237299   3.992   3.441  14.256 -0.1905 -0.2921 -0.4052
 5270TIP3   OH237300   2.778   5.397   5.243 -0.5340 -0.7269 -0.1590
 5270TIP3    H137301   2.854   5.447   5.212 -0.8340  1.3041  2.0256
 5270TIP3    H237302   2.714   5.404   5.173  1.3664 -2.9924 -2.3270
 5271TIP3   OH237303   6.357   4.308  14.008  0.3743  0.7741 -0.3594
 5271TIP3    H137304   6.376   4.271  13.922 -1.8431 -0.9544 -0.2008
 5271TIP3    H237305   6.331   4.398  13.990  1.6376  0.9683 -1.2887
 5272TIP3   OH237306   0.872   1.900   4.932  0.8356 -0.3046  0.2603
 5272TIP3    H137307   0.873   1.948   4.849  0.0102 -1.2669 -0.3363
 5272TIP3    H237308   0.796   1.934   4.978  0.6857 -0.5037  0.1622
 5273TIP3   OH237309   1.747   3.343   2.581  0.3981 -0.2223  0.4739
 5273TIP3    H137310   1.695   3.362   2.659 -0.2701 -1.7592  0.4361
 5273TIP3    H237311   1.727   3.415   2.521  1.1568  1.1557  1.7811
 5274TIP3   OH237312   1.415   1.026   4.952  0.0459 -0.1510  0.1496
 5274TIP3    H137313   1.388   0.981   4.872 -3.4385  0.2796  0.9439
 5274TIP3    H237314   1.418   1.118   4.929 -1.1133 -0.0103  0.5104
 5275TIP3   OH237315   4.868   1.727   1.471  0.1888  0.5610  0.8794
 5275TIP3    H137316   4.782   1.720   1.428  0.2212  0.2818  0.8613
 5275TIP3    H237317   4.858   1.800   1.532 -0.1495  0.3482  1.0811
 5276TIP3   OH237318   6.465   1.515   5.553 -0.0825 -0.1851  0.1255
 5276TIP3    H137319   6.370   1.529   5.562 -0.0029  1.1181 -0.7983
 5276TIP3    H237320   6.474   1.465   5.471  0.0711  0.5353 -0.3079
 5277TIP3   OH237321   4.423   2.066   3.308 -0.3367 -0.5074  0.5190
 5277TIP3    H137322   4.475   2.005   3.360  0.1223 -0.4192  0.1661
 5277TIP3    H237323   4.487   2.115   3.257 -0.5814  1.0786  1.6326
 5278TIP3   OH237324   2.512   4.738   4.245  0.5765  0.7263  0.5465
 5278TIP3    H137325   2.569   4.661   4.250 -0.5282 -0.1017  0.9607
 5278TIP3    H237326   2.532   4.788   4.323  0.3547  0.1428  0.9897
 5279TIP3   OH237327   1.851   5.343   0.859 -0.1542 -0.4051  0.2728
 5279TIP3    H137328   1.890   5.421   0.820 -0.0544 -0.6569 -0.1382
 5279TIP3    H237329   1.926   5.289   0.884 -0.2201 -0.3073  0.6905
 5280TIP3   OH237330   3.527   1.671   3.256 -0.0870  0.3015  0.1616
 5280TIP3    H137331   3.541   1.765   3.268 -0.5554  0.5633 -1.1347
 5280TIP3    H237332   3.557   1.653   3.167 -0.8369 -0.5893  0.0649
 5281TIP3   OH237333   5.687   0.748  16.444  0.5689  0.8092  0.0117
 5281TIP3    H137334   5.727   0.831  16.418  0.5631  1.0300  0.7007
 5281TIP3    H237335   5.592   0.765  16.442  0.4734  0.2966 -1.5860
 5282TIP3   OH237336   2.203   3.871   3.641  0.5020  0.5900  0.3758
 5282TIP3    H137337   2.134   3.805   3.651  0.2526  0.4066 -2.0001
 5282TIP3    H237338   2.265   3.851   3.711 -1.0863 -0.2090  1.6284
 5283TIP3   OH237339   4.144   4.000  14.908  0.4289 -0.7391 -0.1276
 5283TIP3    H137340   4.051   4.022  14.896  0.5803 -0.5628 -1.1059
 5283TIP3    H237341   4.157   4.002  15.002 -0.6775 -1.2400  0.0596
 5284TIP3   OH237342   0.718   0.146  11.721  0.5827  0.0501  0.5613
 5284TIP3    H137343   0.767   0.204  11.779 -0.6554  0.8285  0.8647
 5284TIP3    H237344   0.768   0.146  11.639  2.0266 -0.5845  1.4138
 5285TIP3   OH237345   5.299   3.246   4.508 -0.7809  0.1760  0.4321
 5285TIP3    H137346   5.212   3.278   4.530  0.3078  3.1626  0.8657
 5285TIP3    H237347   5.292   3.215   4.418 -1.9725  2.0040 -0.1664
 5286TIP3   OH237348   1.754   1.951  16.802 -0.1017 -0.1537 -0.1376
 5286TIP3    H137349   1.822   1.889  16.827 -1.4739 -2.1336 -1.0478
 5286TIP3    H237350   1.703   1.964  16.882  0.7346  0.5465  0.2921
 5287TIP3   OH237351   2.196   5.183  14.588  0.4761  0.4376  0.0259
 5287TIP3    H137352   2.122   5.169  14.529  0.1875 -0.2984  0.5550
 5287TIP3    H237353   2.213   5.277  14.583 -1.7103  0.9781  1.3083
 5288TIP3   OH237354   1.619   1.502   3.827 -0.2614  0.0971 -0.1464
 5288TIP3    H137355   1.533   1.476   3.859  0.7327 -0.6956  2.0420
 5288TIP3    H237356   1.643   1.578   3.879  1.6380 -1.5619  1.5942
 5289TIP3   OH237357   5.929   3.717   0.464 -0.5009  0.3273  0.2089
 5289TIP3    H137358   5.960   3.786   0.523 -0.8021  0.6219  0.0275
 5289TIP3    H237359   5.836   3.736   0.452 -1.2115 -1.5212  2.1334
 5290TIP3   OH237360   2.018   4.556  12.039  0.3162  0.1975  0.0590
 5290TIP3    H137361   2.097   4.528  12.085  0.0073 -0.7949  0.0051
 5290TIP3    H237362   2.046   4.629  11.984  1.1077  0.0932  0.3216
 5291TIP3   OH237363   4.882   2.046  16.947  0.1292  0.8191 -0.4162
 5291TIP3    H137364   4.964   2.094  16.963  1.1258 -0.8625 -0.2721
 5291TIP3    H237365   4.886   2.024  16.854  0.2150  0.0907 -0.2454
 5292TIP3   OH237366   1.810   0.059   4.438  0.0999  0.4920 -0.0225
 5292TIP3    H137367   1.873   0.018   4.498  0.4107  0.4204 -0.3962
 5292TIP3    H237368   1.842   0.149   4.429 -1.0777  1.1148  1.5050
 5293TIP3   OH237369   4.019   6.736   1.503 -0.8065 -0.2799 -0.2078
 5293TIP3    H137370   4.042   6.648   1.531 -1.7162 -0.6989 -0.7421
 5293TIP3    H237371   4.093   6.790   1.529 -0.4342 -1.1272  0.5223
 5294TIP3   OH237372   2.956   2.287   1.589 -0.3911  0.7366  0.0002
 5294TIP3    H137373   2.975   2.233   1.513 -2.0892  0.1999 -0.0764
 5294TIP3    H237374   2.989   2.237   1.663  0.0124  0.6180 -0.2581
 5295TIP3   OH237375   2.266   2.998   2.680 -0.6033  0.4807  0.1412
 5295TIP3    H137376   2.182   2.983   2.724 -0.9380  0.0971 -0.6094
 5295TIP3    H237377   2.307   2.912   2.675 -1.4286  0.1441 -1.9664
 5296TIP3   OH237378   0.216   2.285  15.747  0.6377 -0.5102  0.1716
 5296TIP3    H137379   0.294   2.292  15.692 -0.9093 -1.6177 -2.3305
 5296TIP3    H237380   0.229   2.205  15.798  1.4987 -0.2118  0.4337
 5297TIP3   OH237381   1.796   2.218   1.621 -0.1296  0.7869 -0.1631
 5297TIP3    H137382   1.827   2.128   1.632  1.2411  1.1866 -0.5132
 5297TIP3    H237383   1.799   2.255   1.710 -0.0194  0.6965 -0.1293
 5298TIP3   OH237384   5.165   4.911  16.954 -0.1573 -0.3229  0.6011
 5298TIP3    H137385   5.120   4.960  17.023  1.5146 -0.6036  1.9790
 5298TIP3    H237386   5.247   4.883  16.995  0.0528 -2.1392 -0.9200
 5299TIP3   OH237387   2.236   3.164   4.339 -0.1399 -0.0647  0.1678
 5299TIP3    H137388   2.174   3.228   4.374 -0.3657 -0.9872  1.5559
 5299TIP3    H237389   2.201   3.139   4.254 -0.6414  0.8383  0.1044
 5300TIP3   OH237390   0.719   6.009  15.121  0.1158 -0.0412 -0.2244
 5300TIP3    H137391   0.645   5.993  15.062 -0.6933 -1.1793  1.0362
 5300TIP3    H237392   0.793   6.023  15.063 -0.7536 -0.6170 -1.5241
 5301TIP3   OH237393   6.603   2.939   3.617 -0.0108  0.6523  0.2629
 5301TIP3    H137394   6.676   3.000   3.608  0.4770  0.0750  0.2333
 5301TIP3    H237395   6.583   2.912   3.527 -0.3295  0.8859  0.2621
 5302TIP3   OH237396   1.877   1.886   3.036  0.2570  0.2977  0.3740
 5302TIP3    H137397   1.851   1.932   2.956 -3.9016 -2.3591 -0.1368
 5302TIP3    H237398   1.923   1.808   3.005 -1.4608 -0.7944  0.4402
 5303TIP3   OH237399   6.428   5.059  12.049 -0.3845  0.2605 -0.4236
 5303TIP3    H137400   6.520   5.033  12.056 -0.1918  1.2440  1.1837
 5303TIP3    H237401   6.385   4.982  12.011  1.1629 -0.0169 -1.7664
 5304TIP3   OH237402   2.682   5.995  13.734 -0.3855 -0.0428  0.1469
 5304TIP3    H137403   2.675   6.076  13.783 -1.0941 -0.1992  0.3281
 5304TIP3    H237404   2.608   5.998  13.672  1.3770  0.8908 -2.0789
 5305TIP3   OH237405   2.877   3.683   2.916 -0.7663 -0.1199  0.4978
 5305TIP3    H137406   2.942   3.671   2.847 -2.1832 -0.5544 -0.8044
 5305TIP3    H237407   2.840   3.769   2.899 -0.4708  0.1751  1.3069
 5306TIP3   OH237408   1.782   2.816   2.548 -0.5026  0.5875  0.5332
 5306TIP3    H137409   1.733   2.885   2.503 -2.2113 -0.9056 -0.0466
 5306TIP3    H237410   1.741   2.734   2.518  1.8999 -0.7508  0.6145
 5307TIP3   OH237411   2.282   6.522   2.380 -0.6609 -0.1357 -0.1020
 5307TIP3    H137412   2.225   6.593   2.409 -0.3111  0.2416 -0.3260
 5307TIP3    H237413   2.329   6.496   2.459 -3.1521 -2.3967  0.7769
 5308TIP3   OH237414   6.104   5.021  11.465 -0.1237  0.5271  0.0875
 5308TIP3    H137415   6.063   4.935  11.468  5.2362 -2.4837  2.5967
 5308TIP3    H237416   6.122   5.036  11.372  1.6219 -2.8598 -0.2735
 5309TIP3   OH237417   6.793   5.552  11.691  0.0741  0.6104 -0.2787
 5309TIP3    H137418   6.822   5.461  11.690 -0.6162  0.3594  0.7984
 5309TIP3    H237419   6.804   5.580  11.782  0.6601  1.7417 -0.6722
 5310TIP3   OH237420   5.193   5.341   2.112 -0.2804 -0.4529 -0.1466
 5310TIP3    H137421   5.154   5.384   2.187  0.1353  0.7469 -0.5987
 5310TIP3    H237422   5.121   5.328   2.051 -0.1925  0.7781 -0.5334
 5311TIP3   OH237423   0.527   6.186   2.576  0.2065  0.0357  0.1440
 5311TIP3    H137424   0.605   6.191   2.521  2.6162 -2.2116  2.9869
 5311TIP3    H237425   0.487   6.102   2.552  0.9450 -0.6787  1.3259
 5312TIP3   OH237426   3.877   6.021  12.922 -0.0899 -0.2784  0.0266
 5312TIP3    H137427   3.874   6.076  12.844  0.7888 -0.3903 -0.1032
 5312TIP3    H237428   3.971   6.006  12.937  0.1913  3.2478  3.6097
 5313TIP3   OH237429   0.298   0.312   1.045 -0.0306  0.3750 -0.6020
 5313TIP3    H137430   0.293   0.222   1.013 -0.3622 -0.2495  1.1407
 5313TIP3    H237431   0.207   0.340   1.052  0.0412  0.5074 -0.1946
 5314TIP3   OH237432   1.454   6.490   1.366 -0.2622 -0.6198 -0.5929
 5314TIP3    H137433   1.537   6.486   1.320 -0.4613 -0.2000 -1.0033
 5314TIP3    H237434   1.407   6.411   1.339  0.4205 -1.4093  0.4805
 5315TIP3   OH237435   5.799   6.011  14.209 -0.2750  0.7472 -0.4101
 5315TIP3    H137436   5.782   6.045  14.121 -2.1684 -0.7540 -0.7095
 5315TIP3    H237437   5.735   6.057  14.265  0.2076  0.9346 -0.0067
 5316TIP3   OH237438   5.314   4.772   5.069 -0.2204  0.1877  0.1935
 5316TIP3    H137439   5.232   4.817   5.051  0.5388  0.9789 -1.5658
 5316TIP3    H237440   5.381   4.830   5.032  1.1822 -0.2383  1.9184
 5317TIP3   OH237441   5.623   2.170   2.195 -0.3087  0.1963 -0.3450
 5317TIP3    H137442   5.533   2.160   2.164 -0.6788  1.8214  0.1148
 5317TIP3    H237443   5.670   2.207   2.120  0.1310 -1.2204 -0.7823
 5318TIP3   OH237444   3.552   3.154  14.532  0.4681  0.4026 -0.4534
 5318TIP3    H137445   3.525   3.243  14.512 -1.1237  0.1274  0.2614
 5318TIP3    H237446   3.556   3.110  14.447 -0.9562  0.5984 -0.6492
 5319TIP3   OH237447   3.960   4.478   3.488 -0.0289  0.3805 -0.2436
 5319TIP3    H137448   4.042   4.522   3.463 -1.4455  2.3816 -1.7359
 5319TIP3    H237449   3.940   4.513   3.575  0.3737  0.4196 -0.1664
 5320TIP3   OH237450   4.767   4.770   3.881  0.0886  0.1605 -0.0320
 5320TIP3    H137451   4.788   4.677   3.887 -1.1919 -0.2234 -0.9219
 5320TIP3    H237452   4.672   4.772   3.871  0.0774  1.5841  0.1413
 5321TIP3   OH237453   2.408   0.716   3.088 -0.3861  0.0805 -0.1340
 5321TIP3    H137454   2.409   0.760   3.173  0.7701 -0.0011 -0.0925
 5321TIP3    H237455   2.481   0.655   3.091  0.4478  0.9190 -1.6161
 5322TIP3   OH237456   5.418   4.868   0.455 -0.1115 -1.3135 -0.4132
 5322TIP3    H137457   5.449   4.817   0.380  2.7269  1.0354 -0.9917
 5322TIP3    H237458   5.429   4.959   0.428 -2.7003 -0.3322  1.4832
 5323TIP3   OH237459   6.143   0.848  17.115  0.1975 -0.2427  0.5578
 5323TIP3    H137460   6.210   0.867  17.181 -0.1400 -1.0515  1.1550
 5323TIP3    H237461   6.122   0.755  17.128 -2.4104  0.3954  1.7090
 5324TIP3   OH237462   5.155   4.216   5.713 -0.3441 -0.4481  0.3317
 5324TIP3    H137463   5.183   4.168   5.635 -2.1719 -0.4175 -0.4004
 5324TIP3    H237464   5.224   4.201   5.777  1.5690  0.0491 -1.4743
 5325TIP3   OH237465   2.735   4.848  15.328  0.2074  0.4956 -0.4087
 5325TIP3    H137466   2.757   4.885  15.413 -1.3841  0.6928 -0.0421
 5325TIP3    H237467   2.680   4.915  15.286  0.1849  0.0048 -1.1902
 5326TIP3   OH237468   1.897   2.197   5.192 -0.1982 -0.0581  0.2809
 5326TIP3    H137469   1.883   2.291   5.181  2.1927  0.3121 -0.1414
 5326TIP3    H237470   1.811   2.158   5.177 -1.3879  2.0800  1.0521
 5327TIP3   OH237471   3.902   2.418   0.547 -0.3322 -0.7324 -0.1383
 5327TIP3    H137472   3.812   2.413   0.516 -0.7891 -0.3916  1.1004
 5327TIP3    H237473   3.900   2.479   0.621  1.1404  0.2574 -0.8638
 5328TIP3   OH237474   3.499   3.240   4.778 -0.2238 -0.1308  0.3666
 5328TIP3    H137475   3.447   3.182   4.723 -1.3767  1.9438 -0.8737
 5328TIP3    H237476   3.447   3.249   4.859 -1.7532  1.6754 -0.7366
 5329TIP3   OH237477   0.136   5.857  17.194  0.4247 -0.2075  0.3968
 5329TIP3    H137478   0.147   5.863  17.289 -0.3791  0.3275  0.4666
 5329TIP3    H237479   0.094   5.939  17.169  1.2195 -0.0580 -0.5184
 5330TIP3   OH237480   2.030   0.867  11.127  0.0142 -0.4086 -0.0099
 5330TIP3    H137481   2.000   0.787  11.170  0.1981 -1.2514 -1.3918
 5330TIP3    H237482   1.953   0.924  11.128  0.0971 -0.2785  1.6579
 5331TIP3   OH237483   3.861   0.765  11.039  0.0611  0.1151  0.0439
 5331TIP3    H137484   3.767   0.787  11.043  0.1839  0.4529  3.1993
 5331TIP3    H237485   3.897   0.832  10.981 -1.3844  1.1579  0.2665
 5332TIP3   OH237486   3.985   3.352  14.112 -0.0327 -0.3715  0.2194
 5332TIP3    H137487   3.974   3.259  14.133  0.3573 -0.9742 -1.9843
 5332TIP3    H237488   3.912   3.371  14.053  0.2741  0.5518  0.1331
 5333TIP3   OH237489   3.826   4.406  11.445  0.0328 -0.1837 -0.2076
 5333TIP3    H137490   3.876   4.428  11.524 -0.4936 -0.7280  0.2956
 5333TIP3    H237491   3.796   4.316  11.460 -2.4938  0.6530  0.3012
 5334TIP3   OH237492   2.969   1.986   6.037  0.3627  0.1457 -0.7037
 5334TIP3    H137493   3.050   2.034   6.025  1.0677 -0.9559 -0.5396
 5334TIP3    H237494   2.990   1.896   6.009 -0.8047 -0.1537 -0.6969
 5335TIP3   OH237495   2.208   5.741  12.528  0.2913 -0.0635 -1.2047
 5335TIP3    H137496   2.182   5.813  12.472  0.8934 -0.9931 -2.7359
 5335TIP3    H237497   2.301   5.729  12.510  0.1504 -1.3586 -1.1505
 5336TIP3   OH237498   0.940   3.505   4.852  0.7368  0.5720  0.7585
 5336TIP3    H137499   0.976   3.588   4.824  1.3826  1.3156  3.5123
 5336TIP3    H237500   0.867   3.529   4.909 -0.8817 -0.8420 -0.6081
 5337TIP3   OH237501   0.008   1.640  17.028  0.0666 -0.2112  0.4103
 5337TIP3    H137502  -0.086   1.645  17.043 -0.1103 -1.1086 -0.2930
 5337TIP3    H237503   0.027   1.546  17.025  0.8298 -0.0547 -0.3274
 5338TIP3   OH237504   0.197   2.909   6.026  0.4047  0.0962  0.0179
 5338TIP3    H137505   0.228   2.820   6.045  3.2077  0.7135 -1.1615
 5338TIP3    H237506   0.142   2.932   6.101 -1.7797 -3.1572 -0.3712
 5339TIP3   OH237507   5.555   5.356  12.593 -0.0985  0.1936 -0.3935
 5339TIP3    H137508   5.630   5.411  12.570  0.0665  0.6531  1.1653
 5339TIP3    H237509   5.592   5.268  12.604 -0.1109  0.0494 -1.3563
 5340TIP3   OH237510   1.453   5.132  12.713  0.1273 -0.3640 -0.2278
 5340TIP3    H137511   1.514   5.077  12.664  0.8783  0.8837 -0.7383
 5340TIP3    H237512   1.382   5.151  12.652 -0.8385 -1.8337  0.3721
 5341TIP3   OH237513   6.233   3.494  13.090  0.3289  0.0677  0.4326
 5341TIP3    H137514   6.318   3.456  13.110  1.3334  0.6969 -2.2750
 5341TIP3    H237515   6.229   3.572  13.146  1.1822 -0.3832  1.1505
 5342TIP3   OH237516   5.707   1.126  17.220 -0.2874 -0.4072  0.5392
 5342TIP3    H137517   5.653   1.069  17.275 -1.1683  0.2090  0.3437
 5342TIP3    H237518   5.773   1.068  17.182 -0.7908 -1.1768  0.8192
 5343TIP3   OH237519   3.832   4.024  12.300 -0.1835 -0.2511 -0.4524
 5343TIP3    H137520   3.739   4.000  12.291 -0.7571  1.7140 -0.2530
 5343TIP3    H237521   3.834   4.086  12.372  1.5516 -1.3883  0.5396
 5344TIP3   OH237522   3.026   5.591   2.151  0.8241  0.0209 -0.1530
 5344TIP3    H137523   2.939   5.618   2.182  1.0618  0.5000  0.1149
 5344TIP3    H237524   3.052   5.661   2.090  2.1492  1.3294  1.7793
 5345TIP3   OH237525   5.029   6.432   3.754 -0.1700 -0.3510  0.0500
 5345TIP3    H137526   4.950   6.393   3.792 -1.6025  1.5176 -0.8715
 5345TIP3    H237527   5.034   6.395   3.665 -0.7912  0.5479 -0.3662
 5346TIP3   OH237528   1.845   5.513   5.933  0.1249  0.4730 -0.0510
 5346TIP3    H137529   1.893   5.430   5.930  0.7141  0.8347 -0.9151
 5346TIP3    H237530   1.791   5.506   6.012 -2.3607 -2.0836 -1.7827
 5347TIP3   OH237531   6.732   3.340   3.871 -0.1771 -0.2083  0.0944
 5347TIP3    H137532   6.779   3.258   3.854 -0.4626 -0.6675  1.4476
 5347TIP3    H237533   6.750   3.360   3.963 -0.0463  1.3001 -0.2312
 5348TIP3   OH237534   5.467   6.767  13.985 -0.3676  0.1484  0.0440
 5348TIP3    H137535   5.454   6.688  14.038  0.5903  0.5485  0.9344
 5348TIP3    H237536   5.562   6.775  13.979 -0.4571  0.2922 -1.5126
 5349TIP3   OH237537   0.250   2.171  11.843  0.4470 -0.1871  0.2419
 5349TIP3    H137538   0.315   2.100  11.844  0.9689  0.2577 -0.8613
 5349TIP3    H237539   0.287   2.237  11.785 -0.4401  0.6211  0.5648
 5350TIP3   OH237540   6.504   3.146  14.878  0.2604 -0.2712 -0.5037
 5350TIP3    H137541   6.446   3.152  14.954 -0.8000  0.5714 -1.3486
 5350TIP3    H237542   6.474   3.068  14.831  2.2045 -1.9947  0.9159
 5351TIP3   OH237543   6.718   2.851  15.205  0.0593  0.1249 -0.1964
 5351TIP3    H137544   6.766   2.867  15.124  1.0929  0.7881  0.5231
 5351TIP3    H237545   6.626   2.859  15.181  0.3751  1.1183 -1.1343
 5352TIP3   OH237546   2.673   4.297   1.067 -0.3487  0.6429 -0.0013
 5352TIP3    H137547   2.640   4.354   0.998  0.4900  0.2267 -0.7721
 5352TIP3    H237548   2.647   4.341   1.148  1.0782  2.6714 -0.5366
 5353TIP3   OH237549   2.918   5.603  12.199 -0.4330 -0.2019  0.0857
 5353TIP3    H137550   2.902   5.697  12.191 -1.4076 -0.0849  2.6912
 5353TIP3    H237551   2.969   5.593  12.279 -0.4804 -1.9092 -0.0545
 5354TIP3   OH237552   1.478   4.998  16.743  0.0924 -0.2271  0.3186
 5354TIP3    H137553   1.574   4.990  16.745  0.1223 -0.7819 -1.3935
 5354TIP3    H237554   1.447   4.909  16.727 -0.4562  0.4114 -2.8319
 5355TIP3   OH237555   6.745   6.262  12.345  0.3930  0.0438 -0.8616
 5355TIP3    H137556   6.793   6.186  12.310  1.1252  0.0562  0.0845
 5355TIP3    H237557   6.659   6.227  12.367  0.9389 -0.6904  0.1921
 5356TIP3   OH237558   1.617   5.001  14.668 -0.3093  0.2043 -0.2278
 5356TIP3    H137559   1.602   4.937  14.737  0.7932  0.6487  0.4472
 5356TIP3    H237560   1.709   4.989  14.644 -0.7183 -0.0622 -1.7510
 5357TIP3   OH237561   4.299   3.356  11.491 -0.0486  0.5494 -0.6431
 5357TIP3    H137562   4.253   3.316  11.418  1.4701 -0.9393 -0.8519
 5357TIP3    H237563   4.366   3.411  11.450  1.9553 -1.6274 -0.5062
 5358TIP3   OH237564   1.105   6.164   1.195  0.4776 -0.3030 -0.1738
 5358TIP3    H137565   1.059   6.241   1.162  0.6638  1.5019  3.3009
 5358TIP3    H237566   1.037   6.097   1.201  0.1861 -0.3417 -2.7320
 5359TIP3   OH237567   6.110   5.256   6.613  0.2830 -0.4258  0.3363
 5359TIP3    H137568   6.195   5.276   6.574  0.1487  1.1040  0.7743
 5359TIP3    H237569   6.093   5.165   6.588  1.4898 -0.3769 -0.7646
 5360TIP3   OH237570   5.960   1.744   1.319  0.9890 -0.4985 -0.4944
 5360TIP3    H137571   5.941   1.836   1.301  0.4116 -0.4922  0.1168
 5360TIP3    H237572   6.055   1.738   1.316  0.9943 -0.1059 -1.5980
 5361TIP3   OH237573   4.004   1.960   4.541  0.2139 -0.4407 -0.4637
 5361TIP3    H137574   4.023   1.928   4.629  0.6815 -1.3397 -0.8817
 5361TIP3    H237575   3.931   1.906   4.511  0.9786 -1.1023 -1.1583
 5362TIP3   OH237576   2.108   5.560  12.723  0.2054 -0.4162  0.1010
 5362TIP3    H137577   2.014   5.544  12.722  0.2019 -0.3855 -1.7423
 5362TIP3    H237578   2.122   5.629  12.658  1.4957 -0.2830  0.4823
 5363TIP3   OH237579   0.686   2.488  12.622 -0.1297  0.0863 -0.2861
 5363TIP3    H137580   0.654   2.407  12.660 -1.2223  0.0656 -1.1906
 5363TIP3    H237581   0.608   2.530  12.585  0.6208  0.8961 -1.0128
 5364TIP3   OH237582   0.382   5.019   4.685  0.0025  0.1008  0.4526
 5364TIP3    H137583   0.466   4.974   4.691 -0.0082 -0.0152 -0.2502
 5364TIP3    H237584   0.380   5.056   4.597  0.2842  2.0431  1.2129
 5365TIP3   OH237585   3.152   5.316   5.920 -0.3532 -0.1909  0.6739
 5365TIP3    H137586   3.116   5.230   5.898 -0.1813 -0.0461 -0.1849
 5365TIP3    H237587   3.173   5.309   6.014 -1.1316 -0.7935  0.8127
 5366TIP3   OH237588   6.365   3.214   1.093 -0.0688 -0.0680  0.9963
 5366TIP3    H137589   6.399   3.289   1.141 -0.7653  0.8870  0.0311
 5366TIP3    H237590   6.424   3.142   1.116  2.8938  1.5655 -0.8884
 5367TIP3   OH237591   4.483   3.898   0.237  0.0351  0.1906 -0.2066
 5367TIP3    H137592   4.412   3.838   0.216  1.3745 -1.9620  1.0230
 5367TIP3    H237593   4.536   3.850   0.301  1.0565  2.8239  1.0356
 5368TIP3   OH237594   5.591   6.158  16.492  0.1469 -0.4902 -0.0156
 5368TIP3    H137595   5.507   6.161  16.447  0.4917  0.0351 -0.6431
 5368TIP3    H237596   5.643   6.095  16.443  0.6228  0.2999 -0.5552
 5369TIP3   OH237597   0.420   3.013   2.132  0.7190  0.4657 -0.9735
 5369TIP3    H137598   0.384   2.972   2.211  2.3010 -0.2896 -0.6072
 5369TIP3    H237599   0.429   3.105   2.154  1.5909  0.1844 -0.0670
 5370TIP3   OH237600   4.954   5.650   0.583  0.1067 -0.2599 -0.9654
 5370TIP3    H137601   4.893   5.719   0.609  0.0838 -0.7572  0.3841
 5370TIP3    H237602   4.903   5.595   0.523  0.3043  1.1807 -2.5046
 5371TIP3   OH237603   0.702   5.743   2.567 -0.5480 -0.1106 -0.7940
 5371TIP3    H137604   0.698   5.662   2.617 -1.9528 -0.4448 -1.4079
 5371TIP3    H237605   0.780   5.788   2.601 -1.1198 -0.5740  1.2545
 5372TIP3   OH237606   6.120   4.626   3.737  0.0723  0.5983 -0.4630
 5372TIP3    H137607   6.032   4.664   3.743 -0.0844  0.3741 -1.2647
 5372TIP3    H237608   6.178   4.702   3.739 -0.2640  0.9516 -2.5129
 5373TIP3   OH237609   0.107   2.941   0.455 -0.2295 -0.2030  0.0306
 5373TIP3    H137610   0.183   2.971   0.506 -1.3637  1.9373  0.5755
 5373TIP3    H237611   0.038   2.929   0.520 -0.9467 -0.0506 -0.6865
 5374TIP3   OH237612   2.138   6.620   3.525  0.2161  0.0576  0.2749
 5374TIP3    H137613   2.148   6.574   3.608  1.2579 -1.2285 -0.4943
 5374TIP3    H237614   2.044   6.629   3.513 -0.1034 -2.4997  0.2192
 5375TIP3   OH237615   5.763   4.138   5.870 -0.7521  0.5113 -0.0368
 5375TIP3    H137616   5.706   4.155   5.945  0.2112  0.2581  0.7770
 5375TIP3    H237617   5.773   4.043   5.868  0.7788  0.6104  0.7493
 5376TIP3   OH237618   3.085   0.211   2.205 -0.6203  0.3054 -0.1852
 5376TIP3    H137619   3.057   0.212   2.113  0.5718  0.7433 -0.5539
 5376TIP3    H237620   3.012   0.253   2.252 -0.9366  0.7139 -1.0156
 5377TIP3   OH237621   3.526   1.225  16.322  0.2375 -0.7400  0.1012
 5377TIP3    H137622   3.491   1.237  16.410  0.2278 -1.2707  0.1716
 5377TIP3    H237623   3.449   1.217  16.266  0.2438 -0.7964  0.1002
 5378TIP3   OH237624   6.538   1.841  16.741 -0.5614 -0.5684 -0.3791
 5378TIP3    H137625   6.448   1.836  16.775 -0.0090  3.1128  2.2619
 5378TIP3    H237626   6.592   1.807  16.812  0.2618 -2.8285 -1.9800
 5379TIP3   OH237627   1.442   3.623  14.605 -0.1092 -0.1685  0.3925
 5379TIP3    H137628   1.505   3.638  14.675 -2.8559  0.5173  2.8882
 5379TIP3    H237629   1.460   3.533  14.576  2.5231  0.2913  0.3349
 5380TIP3   OH237630   0.181   0.353   3.738 -0.1111  0.0682 -0.2046
 5380TIP3    H137631   0.102   0.308   3.707 -0.7032  0.9961 -0.0706
 5380TIP3    H237632   0.210   0.404   3.663  0.3813 -0.2827 -0.2570
 5381TIP3   OH237633   5.289   6.189   4.620 -0.5516  0.2183  0.7083
 5381TIP3    H137634   5.288   6.281   4.648 -1.9305  0.4100  0.1233
 5381TIP3    H237635   5.208   6.153   4.656 -0.1390 -0.7124  0.7220
 5382TIP3   OH237636   5.110   3.207   3.471 -0.4320  0.0903  0.8967
 5382TIP3    H137637   5.077   3.166   3.392 -0.9931  0.7181  0.7992
 5382TIP3    H237638   5.128   3.134   3.531 -1.8885 -0.2700  0.9179
 5383TIP3   OH237639   5.694   2.452   0.568 -0.3036  0.2386  0.4772
 5383TIP3    H137640   5.692   2.424   0.477 -3.1809 -0.8849  0.8039
 5383TIP3    H237641   5.636   2.528   0.571 -1.1565 -0.4323  1.5515
 5384TIP3   OH237642   0.861   3.185  15.074  0.1018 -0.7284 -0.0010
 5384TIP3    H137643   0.925   3.197  15.004  1.1097  1.2292  1.1840
 5384TIP3    H237644   0.911   3.191  15.155 -1.4491  0.0005  0.9547
 5385TIP3   OH237645   4.360   5.450   4.227  0.7770  0.0179  0.7395
 5385TIP3    H137646   4.342   5.474   4.136 -0.1843 -0.2786  0.8409
 5385TIP3    H237647   4.284   5.399   4.254  0.7577  0.6390  1.9164
 5386TIP3   OH237648   3.678   6.294  14.090  0.6350  0.3519  0.3071
 5386TIP3    H137649   3.682   6.373  14.037  0.0467  1.0635  1.2933
 5386TIP3    H237650   3.649   6.226  14.029  1.3475  0.8384 -0.5960
 5387TIP3   OH237651   5.722   3.834   0.251  0.3308 -0.3568  0.1841
 5387TIP3    H137652   5.728   3.922   0.215 -0.1038 -0.0898  0.7438
 5387TIP3    H237653   5.720   3.847   0.346  0.3490 -0.9776  0.2755
 5388TIP3   OH237654   2.322   5.306   4.362  0.2791 -0.4068 -0.4547
 5388TIP3    H137655   2.270   5.368   4.413  0.9146  0.0540 -0.3560
 5388TIP3    H237656   2.385   5.361   4.315  1.9487 -1.0952  0.9092
 5389TIP3   OH237657   2.759   3.678   2.305 -0.2540  0.2618  0.0772
 5389TIP3    H137658   2.796   3.617   2.368  0.5298 -0.6519 -1.2246
 5389TIP3    H237659   2.675   3.639   2.279 -0.5336  0.5918  0.4627
 5390TIP3   OH237660   6.327   3.746   1.788 -0.5908  0.3537  0.3572
 5390TIP3    H137661   6.351   3.839   1.794 -0.9766  0.4103  1.1565
 5390TIP3    H237662   6.411   3.700   1.788 -0.3548  0.7402 -1.1296
 5391TIP3   OH237663   0.344   3.386   3.990 -0.6830 -0.3855  0.8736
 5391TIP3    H137664   0.296   3.309   4.022  1.8221 -1.5694  2.0969
 5391TIP3    H237665   0.435   3.367   4.012  0.1135  2.6454  0.5254
 5392TIP3   OH237666   2.377   0.548   3.474 -0.4107 -0.5358  0.1703
 5392TIP3    H137667   2.469   0.544   3.501  0.1088 -1.7173 -1.6512
 5392TIP3    H237668   2.365   0.474   3.415 -3.0212 -1.4798  1.6864
 5393TIP3   OH237669   5.405   4.481   4.576 -0.4209  0.5469 -0.3282
 5393TIP3    H137670   5.391   4.519   4.663  1.5908  0.7459 -0.0407
 5393TIP3    H237671   5.318   4.454   4.547 -1.0596 -0.2093  2.0569
 5394TIP3   OH237672   2.429   2.776   0.991 -0.3503  0.2708 -0.1535
 5394TIP3    H137673   2.365   2.846   0.980  1.6706  2.1907 -0.3595
 5394TIP3    H237674   2.482   2.804   1.066  1.6224 -0.0799 -1.3392
 5395TIP3   OH237675   1.811   6.243  10.815 -0.2838 -0.6222  0.7364
 5395TIP3    H137676   1.818   6.338  10.819 -0.6902 -0.6245  1.7663
 5395TIP3    H237677   1.717   6.226  10.802 -0.0260 -0.8678 -1.2419
 5396TIP3   OH237678   4.826   3.007   2.078 -0.1356  0.2341  0.8682
 5396TIP3    H137679   4.737   2.976   2.095 -0.3988 -0.3616 -1.3594
 5396TIP3    H237680   4.815   3.096   2.043 -0.0520 -0.5625 -1.3071
 5397TIP3   OH237681   0.775   1.936   0.318 -0.2050  0.4005  0.0190
 5397TIP3    H137682   0.729   1.954   0.236 -0.3358 -1.4783 -0.3630
 5397TIP3    H237683   0.840   2.006   0.325 -0.7280  1.0438 -1.2833
 5398TIP3   OH237684   0.118   4.751   5.133 -0.2326 -0.8718  0.2017
 5398TIP3    H137685   0.136   4.703   5.214  0.3752 -2.0655 -0.6163
 5398TIP3    H237686   0.200   4.747   5.084 -0.8712 -0.9465 -0.8766
 5399TIP3   OH237687   1.447   1.860   5.103 -0.0002  0.2324 -0.4241
 5399TIP3    H137688   1.371   1.868   5.045 -0.3432 -0.6509 -0.1210
 5399TIP3    H237689   1.416   1.807   5.176  0.6229  0.7519  0.2325
 5400TIP3   OH237690   2.136   3.825  16.128 -0.7583  0.4046 -0.2621
 5400TIP3    H137691   2.127   3.878  16.049 -0.3337 -0.0189 -0.5998
 5400TIP3    H237692   2.214   3.859  16.171 -1.7206  1.5085  0.6677
 5401TIP3   OH237693   2.681   0.553  11.616 -0.4160 -0.0735 -0.2728
 5401TIP3    H137694   2.776   0.553  11.623 -0.4395 -2.0971  1.0811
 5401TIP3    H237695   2.651   0.539  11.706 -2.0937  2.2812 -0.3785
 5402TIP3   OH237696   4.352   0.925  13.427 -0.3814 -0.2321 -0.1749
 5402TIP3    H137697   4.436   0.933  13.472 -0.5000  1.7692 -0.2226
 5402TIP3    H237698   4.313   0.845  13.463  0.9200 -0.4304  0.8779
 5403TIP3   OH237699   2.410   2.942  17.197 -0.1397 -0.2228 -0.2820
 5403TIP3    H137700   2.378   2.991  17.272  0.6142  0.9221 -0.6851
 5403TIP3    H237701   2.475   2.882  17.233 -0.6831 -0.5712  0.1389
 5404TIP3   OH237702   1.241   0.383   1.341  0.5475  0.2984 -0.0242
 5404TIP3    H137703   1.292   0.311   1.377  2.4308  1.7850  0.4789
 5404TIP3    H237704   1.192   0.417   1.416  0.3994  0.1355 -0.0472
 5405TIP3   OH237705   3.469   2.786  13.790 -0.8787  0.3148  0.0224
 5405TIP3    H137706   3.418   2.708  13.813  0.3300 -0.4171  0.3187
 5405TIP3    H237707   3.460   2.793  13.695  0.9903 -1.6845 -0.3752
 5406TIP3   OH237708   1.387   4.480  14.754 -0.1823  0.8165 -0.0501
 5406TIP3    H137709   1.463   4.537  14.745  0.7924 -0.6872 -2.3169
 5406TIP3    H237710   1.367   4.452  14.664 -2.6348  0.1490  0.6155
 5407TIP3   OH237711   1.533   1.991  11.542  0.4151  0.1101 -0.0979
 5407TIP3    H137712   1.588   2.051  11.592  1.1859 -0.1811 -0.5735
 5407TIP3    H237713   1.496   2.045  11.472  0.6105  0.1728 -0.1550
 5408TIP3   OH237714   0.701   5.552   1.901  0.1731  0.4994 -0.3172
 5408TIP3    H137715   0.761   5.550   1.826  0.3393 -1.6870 -0.1846
 5408TIP3    H237716   0.637   5.483   1.882 -0.8713  1.1411  0.7159
 5409TIP3   OH237717   1.182   6.258  12.401 -0.4356  0.2054  0.6270
 5409TIP3    H137718   1.238   6.290  12.330  2.4380 -3.8776  0.6814
 5409TIP3    H237719   1.220   6.294  12.480 -1.6638  2.1820  0.3698
 5410TIP3   OH237720   2.134   3.149  12.749 -0.4497  0.5057 -0.5824
 5410TIP3    H137721   2.080   3.141  12.671 -1.8540 -1.9267  0.5187
 5410TIP3    H237722   2.077   3.119  12.820  0.8129  2.4755  1.3967
 5411TIP3   OH237723   5.690   1.821   0.707 -0.0874  0.0660  0.2464
 5411TIP3    H137724   5.682   1.844   0.799  1.3916  0.2045  0.3614
 5411TIP3    H237725   5.730   1.897   0.665 -0.8611  0.0586 -0.5465
 5412TIP3   OH237726   5.381   0.627  12.605 -0.0119 -0.2022  0.4874
 5412TIP3    H137727   5.413   0.644  12.517  0.5273 -2.2704  0.2185
 5412TIP3    H237728   5.455   0.649  12.662  1.7866 -3.9329 -0.0540
 5413TIP3   OH237729   4.688   6.461   6.433  0.5885  0.0013 -0.0890
 5413TIP3    H137730   4.756   6.528   6.438  0.7263  0.0873 -2.1746
 5413TIP3    H237731   4.698   6.423   6.346 -0.8788 -1.2530  0.2381
 5414TIP3   OH237732   2.187   3.756   3.311  0.1712  0.4536  0.1410
 5414TIP3    H137733   2.173   3.667   3.344 -0.4234  0.2894 -0.5228
 5414TIP3    H237734   2.237   3.800   3.380  0.2847 -0.3303  0.5698
 5415TIP3   OH237735   1.048   1.487  13.980 -0.4588  0.3067  0.2888
 5415TIP3    H137736   1.034   1.489  13.886 -1.3552  1.6743  0.4317
 5415TIP3    H237737   0.990   1.554  14.015 -0.2715 -0.2885  1.8409
 5416TIP3   OH237738   2.142   2.210   5.065  0.0677 -0.6609 -0.0152
 5416TIP3    H137739   2.069   2.213   5.128 -0.9385  1.7564 -1.1721
 5416TIP3    H237740   2.219   2.195   5.119 -0.7733  1.1936  1.8564
 5417TIP3   OH237741   3.964   1.610   2.209 -0.2961  0.1888  0.1575
 5417TIP3    H137742   3.912   1.584   2.133 -0.7113  1.5520 -0.0561
 5417TIP3    H237743   4.047   1.640   2.173  0.7106 -2.0015  0.5015
 5418TIP3   OH237744   3.501   2.733   6.358 -0.2216 -0.0508 -0.1040
 5418TIP3    H137745   3.415   2.765   6.332  0.2152  1.3413  0.0989
 5418TIP3    H237746   3.496   2.724   6.453 -0.7672 -1.9612 -0.2716
 5419TIP3   OH237747   3.469   6.657   3.283 -0.0824  0.1148  0.0876
 5419TIP3    H137748   3.531   6.585   3.296  0.8313  0.6122 -1.2976
 5419TIP3    H237749   3.469   6.671   3.189  0.3157  2.4034  0.3753
 5420TIP3   OH237750   2.239   2.531  16.468  0.3524 -0.0059  0.8313
 5420TIP3    H137751   2.226   2.624  16.450  1.6877 -0.1781 -1.3145
 5420TIP3    H237752   2.270   2.494  16.385  0.1196 -2.3235  1.7026
 5421TIP3   OH237753   2.914   4.641  15.246 -0.0818  0.7704 -0.5702
 5421TIP3    H137754   2.986   4.690  15.206 -0.2611  1.8524  0.3914
 5421TIP3    H237755   2.852   4.708  15.274 -0.9308 -0.0871 -0.3572
 5422TIP3   OH237756   0.539   6.618   1.559 -0.1766  0.6003 -0.4652
 5422TIP3    H137757   0.514   6.539   1.511  1.7225  0.8862 -2.0637
 5422TIP3    H237758   0.490   6.688   1.517 -0.5276  0.5087 -0.2129
 5423TIP3   OH237759   1.541   6.629  15.872  0.0147 -0.0317  0.1798
 5423TIP3    H137760   1.518   6.692  15.941  0.5594  0.8094 -0.3986
 5423TIP3    H237761   1.636   6.624  15.876  0.0863  0.4021 -0.8386
 5424TIP3   OH237762   3.518   4.102  13.965  0.1953  0.2951  0.1933
 5424TIP3    H137763   3.574   4.154  13.907  0.1482 -0.4221 -0.5049
 5424TIP3    H237764   3.579   4.065  14.029  0.5256 -0.3765 -0.4870
 5425TIP3   OH237765   4.242   4.289   0.614  0.3703  0.0825  0.0346
 5425TIP3    H137766   4.245   4.381   0.588 -0.0216 -0.3030 -1.4996
 5425TIP3    H237767   4.149   4.271   0.629  0.5837  0.2969  1.8575
 5426TIP3   OH237768   2.810   1.418  11.144 -0.0779  0.0219  0.0588
 5426TIP3    H137769   2.746   1.418  11.073  0.6615  2.0197 -0.6826
 5426TIP3    H237770   2.830   1.510  11.159  0.7076 -0.4066  2.0626
 5427TIP3   OH237771   0.910   0.714   2.722 -0.5471 -0.1360  0.0157
 5427TIP3    H137772   0.988   0.753   2.760 -0.3954  1.5283 -1.8501
 5427TIP3    H237773   0.939   0.629   2.688 -0.1531 -0.5811  1.3864
 5428TIP3   OH237774   5.231   3.046   0.430 -0.6583  0.6762  0.3302
 5428TIP3    H137775   5.225   3.136   0.461 -0.9680  1.3559 -1.5329
 5428TIP3    H237776   5.142   3.026   0.399 -0.2852  0.2152 -0.4800
 5429TIP3   OH237777   5.291   6.235   5.590 -0.1401 -0.2359 -0.2373
 5429TIP3    H137778   5.294   6.143   5.562  1.4063  0.4569 -2.6676
 5429TIP3    H237779   5.261   6.283   5.513 -2.2981  1.2278  1.4032
 5430TIP3   OH237780   0.012   6.385   4.617 -0.4005 -0.2005  0.4938
 5430TIP3    H137781   0.072   6.459   4.619 -1.5929  0.8104  0.3261
 5430TIP3    H237782   0.029   6.337   4.698  0.2068  0.4123  0.7329
 5431TIP3   OH237783   2.576   6.232  16.477  0.4753  0.1296 -0.0445
 5431TIP3    H137784   2.496   6.268  16.440  1.8122  2.3590 -0.9430
 5431TIP3    H237785   2.600   6.160  16.418 -1.2371 -1.1510  0.7184
 5432TIP3   OH237786   5.603   0.729  15.457 -0.7732 -0.1304  0.0304
 5432TIP3    H137787   5.650   0.790  15.514 -0.6524  0.5693 -0.7996
 5432TIP3    H237788   5.577   0.658  15.515  1.7014 -0.7847  0.4910
 5433TIP3   OH237789   2.792   6.567   4.847  0.1234  0.0274 -0.1845
 5433TIP3    H137790   2.818   6.646   4.894 -1.6929 -0.3017  1.5289
 5433TIP3    H237791   2.698   6.557   4.866  0.1918 -2.2971 -0.7064
 5434TIP3   OH237792   5.054   4.557   0.619 -0.5869 -0.1184 -0.7371
 5434TIP3    H137793   5.046   4.617   0.545  0.5406  2.7125  1.2682
 5434TIP3    H237794   4.976   4.572   0.672 -1.0075 -1.5483 -0.8992
 5435TIP3   OH237795   1.024   1.615   0.105 -0.1859 -0.6203  0.4417
 5435TIP3    H137796   1.044   1.699   0.147 -1.0916 -1.0369  1.7517
 5435TIP3    H237797   0.947   1.634   0.051 -0.2095 -0.5459  0.5010
 5436TIP3   OH237798   2.620   1.693  14.152  0.2936  0.5731  0.7122
 5436TIP3    H137799   2.548   1.755  14.137 -0.4001 -0.3471  0.1604
 5436TIP3    H237800   2.582   1.607  14.135  1.0208 -0.0987  2.2680
 5437TIP3   OH237801   4.521   3.468   4.267  1.0022  0.1660 -0.6976
 5437TIP3    H137802   4.469   3.394   4.236  0.4262  0.6560 -0.9171
 5437TIP3    H237803   4.583   3.485   4.196  1.7636 -0.6741 -0.2710
 5438TIP3   OH237804   5.224   2.493   5.566  0.6158  0.0758  0.0280
 5438TIP3    H137805   5.149   2.462   5.514  0.2446  0.6311  0.2202
 5438TIP3    H237806   5.189   2.567   5.616  0.9231 -0.5462  1.1899
 5439TIP3   OH237807   3.319   6.437  13.776  0.3915  0.4924  0.3295
 5439TIP3    H137808   3.371   6.405  13.702 -0.9006  2.0169 -1.3435
 5439TIP3    H237809   3.336   6.531  13.778 -0.4997  0.6504  1.2349
 5440TIP3   OH237810   2.089   4.685   5.395 -0.1244 -0.2335  0.5619
 5440TIP3    H137811   2.023   4.632   5.351 -0.9550  0.5879  0.7873
 5440TIP3    H237812   2.165   4.627   5.403 -1.0996 -1.4900  1.0676
 5441TIP3   OH237813   6.669   5.669  14.242 -0.3837 -0.6437 -0.4443
 5441TIP3    H137814   6.708   5.582  14.256 -0.8061 -0.7422  0.1444
 5441TIP3    H237815   6.711   5.724  14.308  2.1691  0.3682 -2.6993
 5442TIP3   OH237816   2.465   6.153  16.780  0.3782 -0.2772 -0.4010
 5442TIP3    H137817   2.405   6.205  16.726  1.4912  1.5835  0.0775
 5442TIP3    H237818   2.421   6.068  16.788 -2.7240  1.2696  0.7494
 5443TIP3   OH237819   2.518   4.664  15.558  0.0929 -0.1366 -0.8327
 5443TIP3    H137820   2.601   4.621  15.579 -1.3405 -1.4243  3.0963
 5443TIP3    H237821   2.526   4.751  15.598 -0.5301 -0.3491 -0.2439
 5444TIP3   OH237822   1.121   1.498   4.568 -0.3879 -0.2698 -0.4164
 5444TIP3    H137823   1.131   1.418   4.516 -0.0230  0.7427 -1.9781
 5444TIP3    H237824   1.148   1.473   4.656  0.2280 -1.7285 -0.9888
 5445TIP3   OH237825   1.962   1.313  13.058 -0.4798 -0.1251 -0.6547
 5445TIP3    H137826   1.900   1.264  13.004 -2.0643  0.1475  0.8099
 5445TIP3    H237827   2.027   1.248  13.086  0.8190 -0.1218 -3.3910
 5446TIP3   OH237828   4.041   1.378   6.021 -0.0811  0.4973  0.4653
 5446TIP3    H137829   3.961   1.429   6.012 -1.1812 -1.2815 -0.5093
 5446TIP3    H237830   4.083   1.385   5.936  0.9008  1.5272  1.0139
 5447TIP3   OH237831   0.990   1.761   3.898 -0.0911  0.3364  0.0229
 5447TIP3    H137832   0.938   1.681   3.906  0.2120  0.2979  2.1259
 5447TIP3    H237833   0.941   1.827   3.949  0.7058  0.9364  0.0311
 5448TIP3   OH237834   1.292   1.852   4.393 -0.4118 -0.4748 -0.3863
 5448TIP3    H137835   1.285   1.802   4.474 -1.4605  0.9217  0.4379
 5448TIP3    H237836   1.206   1.847   4.353  0.2096 -1.5077 -1.6824
 5449TIP3   OH237837   0.035   3.239  12.989 -0.3379 -0.4919  0.1321
 5449TIP3    H137838  -0.034   3.227  12.924 -0.0119  0.6850 -0.4651
 5449TIP3    H237839   0.111   3.195  12.952  0.1073  0.9599 -0.7659
 5450TIP3   OH237840   2.546   2.853   1.215  0.1232  0.9958 -0.0288
 5450TIP3    H137841   2.583   2.937   1.243  0.4545  0.9674 -0.3823
 5450TIP3    H237842   2.591   2.788   1.269  1.0642  0.9040 -0.9009
 5451TIP3   OH237843   0.984   5.507  15.505  0.3100 -0.3150 -0.3555
 5451TIP3    H137844   0.938   5.425  15.524  0.5686 -0.1361  1.1179
 5451TIP3    H237845   0.961   5.527  15.414  0.9475 -2.4886 -1.0553
 5452TIP3   OH237846   1.424   4.225   4.299 -0.2869  0.8882  0.3947
 5452TIP3    H137847   1.358   4.204   4.365  0.0368 -1.6853 -0.0056
 5452TIP3    H237848   1.393   4.181   4.220  1.4035  0.4724 -0.0590
 5453TIP3   OH237849   1.087   2.638   2.277  0.2215  0.3534 -0.2140
 5453TIP3    H137850   1.116   2.569   2.338  0.0983  0.5611  0.0815
 5453TIP3    H237851   1.145   2.712   2.295  3.2470 -0.9874 -3.4403
 5454TIP3   OH237852   0.886   6.693   1.077 -0.2072 -0.1573 -0.5643
 5454TIP3    H137853   0.958   6.635   1.052  0.3649 -0.3862  1.4908
 5454TIP3    H237854   0.919   6.781   1.061  0.4035 -0.2763 -0.0120
 5455TIP3   OH237855   1.788   6.622  13.397 -0.7309  0.1870  0.7418
 5455TIP3    H137856   1.832   6.574  13.467 -0.0261 -0.4899 -0.1460
 5455TIP3    H237857   1.859   6.653  13.340 -1.2279  1.5489  0.8152
 5456TIP3   OH237858   4.375   1.693  17.067  0.4440 -0.1962 -0.3536
 5456TIP3    H137859   4.341   1.655  17.148  0.3429 -0.6757 -0.6143
 5456TIP3    H237860   4.373   1.621  17.004 -1.4957  0.6645 -1.3835
 5457TIP3   OH237861   4.587   6.269  16.111  0.6691  0.0591 -0.2062
 5457TIP3    H137862   4.676   6.279  16.077  1.2241  0.3231  1.2597
 5457TIP3    H237863   4.588   6.184  16.157 -0.2395 -0.5872 -1.3186
 5458TIP3   OH237864   3.719   0.375  17.104  0.0492  0.4453 -0.1081
 5458TIP3    H137865   3.721   0.336  17.017  0.4974  0.9031 -0.3002
 5458TIP3    H237866   3.810   0.373  17.134  0.0608  1.2100 -0.0633
 5459TIP3   OH237867   4.660   6.743   1.267  0.4226  0.1242 -0.2837
 5459TIP3    H137868   4.628   6.823   1.225  1.9922  0.4003 -1.0479
 5459TIP3    H237869   4.748   6.766   1.296  0.3016 -0.8678  0.9061
 5460TIP3   OH237870   0.202   1.264  12.228 -0.2840  0.3147 -0.2323
 5460TIP3    H137871   0.230   1.344  12.183  2.9085 -0.3134  0.3668
 5460TIP3    H237872   0.151   1.216  12.163  1.5931  0.8350 -2.2142
 5461TIP3   OH237873   5.749   3.564  13.754 -0.2526  0.3034 -0.0477
 5461TIP3    H137874   5.674   3.575  13.696 -0.4321 -1.0841 -0.1155
 5461TIP3    H237875   5.766   3.469  13.753  0.5832  0.4248  1.1067
 5462TIP3   OH237876   6.610   6.288  10.392  0.4089 -0.0271  0.6962
 5462TIP3    H137877   6.549   6.219  10.418  1.2878 -0.6235  1.2593
 5462TIP3    H237878   6.595   6.358  10.455 -1.1091  0.6947 -0.4156
 5463TIP3   OH237879   0.968   2.839  16.999 -0.2432 -0.2870  0.3373
 5463TIP3    H137880   1.004   2.800  16.919  0.5622 -0.8448  0.9482
 5463TIP3    H237881   0.997   2.930  16.997 -1.7010  0.1820 -0.8512
 5464TIP3   OH237882   1.442   3.973   2.061  0.2035 -0.5760  0.3633
 5464TIP3    H137883   1.463   4.063   2.087 -0.3060 -0.7822  1.5212
 5464TIP3    H237884   1.454   3.973   1.966  0.2185  0.7116  0.3447
 5465TIP3   OH237885   4.442   5.265   1.514 -0.3377  0.4363  0.0338
 5465TIP3    H137886   4.419   5.357   1.527 -0.5748  0.3039  0.5685
 5465TIP3    H237887   4.414   5.246   1.424 -1.4517  0.5401  0.3540
 5466TIP3   OH237888   5.841   6.492   4.352  0.6463  0.1400 -0.0169
 5466TIP3    H137889   5.780   6.493   4.279  0.4706  0.7675  0.1359
 5466TIP3    H237890   5.896   6.569   4.340  1.1482 -0.1938  0.0708
 5467TIP3   OH237891   1.309   5.785  13.756 -0.5326  0.3309  0.1408
 5467TIP3    H137892   1.238   5.805  13.694 -0.0860  1.4352 -0.0294
 5467TIP3    H237893   1.341   5.870  13.784  0.3993 -0.1651  0.6078
 5468TIP3   OH237894   5.414   0.197  13.262  0.0972  0.1932  0.5888
 5468TIP3    H137895   5.435   0.163  13.349  0.8576 -3.8807 -0.9782
 5468TIP3    H237896   5.319   0.184  13.253  0.0577  0.4038  0.6658
 5469TIP3   OH237897   4.355   4.349   4.377  0.5740 -0.6612  0.3804
 5469TIP3    H137898   4.271   4.323   4.339  1.5634 -0.0236 -2.4836
 5469TIP3    H237899   4.337   4.434   4.419  0.0901  0.3292 -1.7066
 5470TIP3   OH237900   5.381   4.432  11.206  1.0818  0.2069  0.3871
 5470TIP3    H137901   5.337   4.457  11.124  0.0915  0.0250  0.8444
 5470TIP3    H237902   5.353   4.342  11.221  0.6248  0.4992  1.3269
 5471TIP3   OH237903   1.091   3.762   1.633  0.2510 -0.4814 -0.0926
 5471TIP3    H137904   1.119   3.849   1.603 -1.6992  0.6326  1.1231
 5471TIP3    H237905   1.009   3.745   1.586  0.0592 -1.1781  0.4760
 5472TIP3   OH237906   2.845   4.280  11.864 -0.4538  0.0035 -0.0642
 5472TIP3    H137907   2.793   4.200  11.856  0.4531 -0.5979 -0.1121
 5472TIP3    H237908   2.881   4.277  11.953  0.7252 -0.3732 -0.5336
 5473TIP3   OH237909   1.516   3.890  16.745 -0.2176 -0.0316 -0.2555
 5473TIP3    H137910   1.489   3.980  16.728 -2.3940 -0.5412  0.2440
 5473TIP3    H237911   1.434   3.840  16.751  0.8613 -1.8060  0.8275
 5474TIP3   OH237912   1.458   6.557   3.007  0.1606  0.2503 -0.1979
 5474TIP3    H137913   1.413   6.638   2.982 -1.9968 -0.4066  1.2587
 5474TIP3    H237914   1.403   6.487   2.972  2.5432 -0.7309 -2.3836
 5475TIP3   OH237915   2.717   1.143   1.798 -0.3559 -0.3788 -0.2117
 5475TIP3    H137916   2.767   1.080   1.850 -2.1168 -0.6451  1.2506
 5475TIP3    H237917   2.740   1.228   1.836  0.0294 -0.3666 -0.4646
 5476TIP3   OH237918   6.606   5.658  15.348  0.4671  0.0675  0.1438
 5476TIP3    H137919   6.627   5.616  15.432  0.2139 -0.5093 -0.0758
 5476TIP3    H237920   6.546   5.597  15.305 -1.7831  1.6901  0.7822
 5477TIP3   OH237921   4.236   3.471   5.317  0.3276  0.2775 -0.4390
 5477TIP3    H137922   4.171   3.449   5.250  2.5782 -2.1983 -2.0561
 5477TIP3    H237923   4.307   3.513   5.268  0.8571  0.9759  0.8945
 5478TIP3   OH237924   0.911   6.386   6.275  0.2675  0.3028 -0.2596
 5478TIP3    H137925   0.879   6.341   6.354 -0.2286 -2.2052 -1.7817
 5478TIP3    H237926   1.007   6.382   6.282  0.2255  0.1037  0.2127
 5479TIP3   OH237927   6.228   3.925  13.762 -0.1750  0.2174  0.2774
 5479TIP3    H137928   6.139   3.959  13.765 -0.5705 -0.7953  2.1587
 5479TIP3    H237929   6.218   3.832  13.740  0.6911  0.6821 -2.4194
 5480TIP3   OH237930   6.043   3.763   2.968 -0.4370 -0.4400  0.5940
 5480TIP3    H137931   6.109   3.729   2.908  0.2892  1.1181  0.4472
 5480TIP3    H237932   5.985   3.815   2.912 -0.7945 -0.4087  0.9897
 5481TIP3   OH237933   6.721   2.722  13.283  0.4103 -0.2687 -0.4207
 5481TIP3    H137934   6.756   2.811  13.273 -0.5680  0.3586  1.2759
 5481TIP3    H237935   6.650   2.718  13.218  0.3690  0.2444 -0.4165
 5482TIP3   OH237936   0.362   4.701   2.151  0.4073 -0.0200 -0.1612
 5482TIP3    H137937   0.323   4.678   2.066  2.8828  0.2046 -1.4487
 5482TIP3    H237938   0.361   4.796   2.153  0.4083 -0.0239  0.0322
 5483TIP3   OH237939   3.428   1.332   1.204  0.4146  0.2456 -0.3289
 5483TIP3    H137940   3.395   1.396   1.267 -2.2987  0.3637 -1.7217
 5483TIP3    H237941   3.401   1.247   1.239  1.9378 -0.0029  0.3273
 5484TIP3   OH237942   2.212   5.593   5.108  0.2378 -0.3600 -0.1161
 5484TIP3    H137943   2.192   5.500   5.106  0.7575 -0.5014  0.9130
 5484TIP3    H237944   2.287   5.604   5.050  0.9042 -0.7776  0.6475
 5485TIP3   OH237945   1.337   6.052  13.170  0.4574 -0.1046  0.5389
 5485TIP3    H137946   1.385   6.135  13.171  1.2682 -0.5661  0.1609
 5485TIP3    H237947   1.268   6.064  13.236 -0.0556  1.2362 -0.1933
 5486TIP3   OH237948   2.801   1.286   4.061 -0.0559  0.1016  0.1113
 5486TIP3    H137949   2.715   1.326   4.054  0.3233  0.6573 -2.8291
 5486TIP3    H237950   2.861   1.360   4.069  0.3470 -0.0455 -1.2589
 5487TIP3   OH237951   3.967   3.680   3.723 -0.2060  0.1913  0.0012
 5487TIP3    H137952   4.044   3.631   3.752 -0.7525 -1.8100 -1.6281
 5487TIP3    H237953   3.924   3.708   3.804  0.0525 -2.2706  1.0794
 5488TIP3   OH237954   4.345   0.379  13.888 -0.0922  0.5224  0.1429
 5488TIP3    H137955   4.412   0.315  13.864  1.6563  2.1064  0.5209
 5488TIP3    H237956   4.263   0.340  13.859  0.8973 -1.7941  0.2257
 5489TIP3   OH237957   1.251   0.616   2.261  0.1860 -0.0857 -0.2075
 5489TIP3    H137958   1.237   0.529   2.298  1.3825  0.0291  0.5635
 5489TIP3    H237959   1.299   0.664   2.328 -1.6625  1.6460 -0.0397
 5490TIP3   OH237960   1.607   5.088  13.355 -0.0567  0.3091 -0.2109
 5490TIP3    H137961   1.586   5.181  13.354  0.6002  0.4663  0.1490
 5490TIP3    H237962   1.628   5.069  13.446  2.0269  0.3290 -0.6416
 5491TIP3   OH237963   5.521   2.333  13.184 -0.1699  0.2844 -0.2543
 5491TIP3    H137964   5.518   2.429  13.182  0.4712  0.2973 -1.9752
 5491TIP3    H237965   5.443   2.305  13.136  0.3013 -0.0224 -0.8588
 5492TIP3   OH237966   1.613   6.036   3.537  0.2740 -0.1174 -0.6089
 5492TIP3    H137967   1.530   6.031   3.491  0.5316 -1.5931 -0.9693
 5492TIP3    H237968   1.672   6.080   3.475  0.2482 -0.7968 -1.1248
 5493TIP3   OH237969   3.099   6.155   5.491 -0.4342 -0.2847 -0.5428
 5493TIP3    H137970   3.175   6.138   5.436  0.8715  1.0124  0.7828
 5493TIP3    H237971   3.132   6.208   5.563 -2.0613 -1.8505  1.5064
 5494TIP3   OH237972   3.930   5.577   4.197  0.1712 -0.3835  0.2646
 5494TIP3    H137973   3.964   5.518   4.264  3.7618 -0.9627 -1.8267
 5494TIP3    H237974   3.858   5.529   4.156  1.3774 -2.3080  0.2705
 5495TIP3   OH237975   1.398   6.729   4.931  0.6944 -0.0000  0.1288
 5495TIP3    H137976   1.384   6.679   4.850  0.0893  0.8831 -0.3236
 5495TIP3    H237977   1.404   6.820   4.902  1.1082  0.2644  1.0198
 5496TIP3   OH237978   4.985   4.983   0.248  0.1234  0.3578  0.0070
 5496TIP3    H137979   5.065   5.024   0.214  0.2765  1.5859  1.6780
 5496TIP3    H237980   4.914   5.034   0.209  0.0328 -1.4487 -2.3819
 5497TIP3   OH237981   0.901   4.993  15.195 -0.1884  0.0151 -0.0213
 5497TIP3    H137982   0.990   4.959  15.193 -0.2091 -0.0223 -0.3301
 5497TIP3    H237983   0.878   4.997  15.288 -0.1991 -0.8411  0.0183
 5498TIP3   OH237984   1.865   6.335   3.642  0.0346 -0.0432  0.2066
 5498TIP3    H137985   1.937   6.367   3.696  1.3555 -1.1651 -0.8227
 5498TIP3    H237986   1.792   6.394   3.663  1.8532  2.6611 -0.4403
 5499TIP3   OH237987   5.963   1.108   2.893 -0.2719 -0.1866  0.2239
 5499TIP3    H137988   6.012   1.141   2.817 -1.8932 -0.8220 -1.1708
 5499TIP3    H237989   5.941   1.187   2.942  0.9660  0.2253  0.1752
 5500TIP3   OH237990   3.083   0.131  12.962  0.4363 -0.3615  0.0337
 5500TIP3    H137991   3.067   0.113  12.869  0.7203 -0.6419  0.0384
 5500TIP3    H237992   3.014   0.194  12.986  0.1865 -0.5053 -0.2929
 5501TIP3   OH237993   1.647   3.504  16.298  0.4126 -0.0525 -0.2823
 5501TIP3    H137994   1.683   3.459  16.222  3.1563  2.1280 -0.4309
 5501TIP3    H237995   1.572   3.553  16.263 -0.8211 -2.0884 -0.6719
 5502TIP3   OH237996   0.935   5.962   0.921 -0.3617  0.2563  0.1529
 5502TIP3    H137997   1.007   5.913   0.960 -0.1783  0.9276  0.6699
 5502TIP3    H237998   0.977   6.020   0.858 -0.5038  0.3023  0.0991
 5503TIP3   OH237999   0.852   5.753  14.641  0.5173  0.6746 -0.2005
 5503TIP3    H138000   0.804   5.821  14.594 -0.4484 -0.7218 -1.3213
 5503TIP3    H238001   0.815   5.754  14.729 -1.0302  0.1923 -0.8147
 5504TIP3   OH238002   4.189   6.497  12.535  0.2816 -0.5225 -0.1249
 5504TIP3    H138003   4.105   6.543  12.537 -0.3027 -1.5642  0.5537
 5504TIP3    H238004   4.251   6.561  12.500  0.0700  1.7272  3.1248
 5505TIP3   OH238005   2.359   6.436   3.501 -0.0973  0.3286  0.3062
 5505TIP3    H138006   2.376   6.426   3.407  1.3491  0.9822  0.4756
 5505TIP3    H238007   2.282   6.493   3.505 -0.9318 -0.6992 -0.4758
 5506TIP3   OH238008   0.313   1.652   4.184 -0.1273  0.0881  0.3281
 5506TIP3    H138009   0.307   1.613   4.271 -1.1783  1.3120  0.8161
 5506TIP3    H238010   0.360   1.586   4.132 -0.3717 -1.0842  1.5499
 5507TIP3   OH238011   5.942   4.788  15.429  0.3590 -0.2574  0.6073
 5507TIP3    H138012   5.979   4.757  15.346  1.1692 -0.3507  0.9962
 5507TIP3    H238013   5.848   4.783  15.416  0.4555 -2.2415  0.4101
 5508TIP3   OH238014   3.763   3.105  17.222  0.0391 -0.2276  0.0912
 5508TIP3    H138015   3.722   3.018  17.225  0.8928 -0.6277  0.7865
 5508TIP3    H238016   3.727   3.146  17.143  0.5888 -1.7127 -0.9890
 5509TIP3   OH238017   3.793   4.507  13.760  0.1517 -0.4383  0.2652
 5509TIP3    H138018   3.739   4.562  13.702 -1.0241 -0.9840  0.8075
 5509TIP3    H238019   3.854   4.569  13.800 -0.6688  0.3765  0.3170
 5510TIP3   OH238020   5.535   1.366   3.636 -0.5734 -0.4841  0.3789
 5510TIP3    H138021   5.488   1.304   3.692 -0.9759 -1.4200 -0.9461
 5510TIP3    H238022   5.539   1.323   3.551 -1.0974  1.4134 -0.6660
 5511TIP3   OH238023   6.661   4.496  11.169  0.6846 -0.0061  0.0107
 5511TIP3    H138024   6.680   4.564  11.105  1.3223  1.2168  1.4447
 5511TIP3    H238025   6.669   4.414  11.119  1.6383  0.8660 -1.3588
 5512TIP3   OH238026   1.190   0.092   1.861  0.1927  0.5930 -0.6888
 5512TIP3    H138027   1.124   0.155   1.832  0.6054  0.9459 -0.8813
 5512TIP3    H238028   1.271   0.122   1.820  0.6169  0.5903  0.1354
 5513TIP3   OH238029   3.257   4.364  16.262 -0.5762  0.6396  0.2179
 5513TIP3    H138030   3.308   4.365  16.343  1.8186 -1.3933 -1.1122
 5513TIP3    H238031   3.319   4.390  16.194 -2.1684  1.0304 -1.1640
 5514TIP3   OH238032   1.003   2.403  15.787  0.5252 -0.5136 -0.0706
 5514TIP3    H138033   0.991   2.315  15.752  0.1823 -0.7497  0.6168
 5514TIP3    H238034   1.098   2.413  15.795  0.7562  0.2414 -2.7573
 5515TIP3   OH238035   6.062   3.508  12.786 -0.4845  0.2567  0.4298
 5515TIP3    H138036   6.007   3.438  12.751  0.3404 -1.3841  2.1774
 5515TIP3    H238037   6.001   3.570  12.824 -1.2175  0.0292 -0.3553
 5516TIP3   OH238038   4.828   6.263   3.955 -0.3845  0.1685 -0.5680
 5516TIP3    H138039   4.805   6.191   3.896 -1.9415 -0.4533  0.7133
 5516TIP3    H238040   4.921   6.250   3.974 -0.7972 -2.0080  0.2374
 5517TIP3   OH238041   3.010   6.375   3.156  0.0223 -0.1613 -0.0021
 5517TIP3    H138042   2.934   6.356   3.101  0.1323 -2.6760  0.5701
 5517TIP3    H238043   3.005   6.469   3.173 -2.4865 -0.0998 -0.6447
 5518TIP3   OH238044   5.701   2.166  14.104 -0.0546 -0.5086 -0.2060
 5518TIP3    H138045   5.634   2.140  14.040  0.3240 -0.6141 -0.5642
 5518TIP3    H238046   5.660   2.149  14.189 -1.2110  1.2411 -0.3607
 5519TIP3   OH238047   5.018   3.099  11.708 -0.1232  0.1774 -0.0449
 5519TIP3    H138048   5.009   3.017  11.757 -0.9954 -0.1443 -0.7176
 5519TIP3    H238049   5.062   3.159  11.769 -1.1188 -0.2266  1.1018
 5520TIP3   OH238050   3.521   2.710   5.636 -0.0997 -0.3665 -0.7330
 5520TIP3    H138051   3.584   2.768   5.678 -0.4218 -1.0137  0.7112
 5520TIP3    H238052   3.545   2.712   5.543  1.6147 -0.0564 -0.3248
 5521TIP3   OH238053   2.125   5.692  16.580 -0.0598  0.4133  0.2812
 5521TIP3    H138054   2.102   5.614  16.529  2.4354  0.3226 -0.8752
 5521TIP3    H238055   2.148   5.658  16.666  1.9537 -0.3342 -0.4943
 5522TIP3   OH238056   5.857   0.956  14.870  0.4305  0.4705 -0.7181
 5522TIP3    H138057   5.925   0.904  14.827  1.4751  2.3582 -1.4589
 5522TIP3    H238058   5.779   0.945  14.815  0.2193 -1.3186 -0.1265
 5523TIP3   OH238059   3.086   4.081   2.349 -0.3308  0.1985  0.5518
 5523TIP3    H138060   3.148   4.009   2.345  0.8155  1.1248  0.9832
 5523TIP3    H238061   3.108   4.136   2.273 -0.7897  0.4140  0.5691
 5524TIP3   OH238062   4.242   6.208   1.930 -0.1409 -0.3684  0.0641
 5524TIP3    H138063   4.224   6.284   1.986  1.6411 -0.0099  0.2148
 5524TIP3    H238064   4.292   6.149   1.985 -0.2678 -1.0076 -0.4935
 5525TIP3   OH238065   0.016   1.722  12.217 -0.2094  0.0729 -0.3020
 5525TIP3    H138066   0.064   1.780  12.275 -0.2541  0.2479 -0.4374
 5525TIP3    H238067  -0.055   1.687  12.271 -1.1616  1.3918 -0.6378
 5526TIP3   OH238068   6.781   6.736   0.200  0.3778 -0.2032  0.8396
 5526TIP3    H138069   6.771   6.659   0.255  0.0568 -0.5001  0.3723
 5526TIP3    H238070   6.813   6.703   0.116 -1.5590 -0.0827  0.0055
 5527TIP3   OH238071   3.519   1.108  13.959  0.7631  0.2334  0.4635
 5527TIP3    H138072   3.529   1.042  13.890  1.8576  0.9284 -0.0708
 5527TIP3    H238073   3.604   1.151  13.963  0.4148  0.8533  1.5967
 5528TIP3   OH238074   2.214   0.991  17.408 -0.5293 -0.4256  0.2688
 5528TIP3    H138075   2.298   1.005  17.363 -0.0732 -1.0109  0.9118
 5528TIP3    H238076   2.237   0.937  17.484 -1.5970 -1.2529  0.0281
 5529TIP3   OH238077   6.122   1.508   4.606 -0.0946  0.0865  0.1968
 5529TIP3    H138078   6.056   1.487   4.539 -0.0956  1.0865 -0.1231
 5529TIP3    H238079   6.091   1.462   4.684 -1.9902  1.7097  0.4727
 5530TIP3   OH238080   0.976   5.532  14.544  0.1607 -0.0990 -0.3517
 5530TIP3    H138081   0.928   5.613  14.559  0.1668 -0.0385 -0.6624
 5530TIP3    H238082   1.060   5.545  14.588  0.1314  0.0320 -0.3352
 5531TIP3   OH238083   0.094   3.248   4.181  0.5303 -0.1898 -0.0664
 5531TIP3    H138084   0.153   3.172   4.174 -0.0731 -0.5965 -0.9748
 5531TIP3    H238085   0.146   3.314   4.226  1.1039 -1.1154  0.6791
 5532TIP3   OH238086   4.895   1.849   6.194 -0.1251  0.1821 -0.0948
 5532TIP3    H138087   4.851   1.933   6.208  0.1164  0.5355 -1.3217
 5532TIP3    H238088   4.976   1.871   6.149 -0.6942 -0.7711 -1.7276
 5533TIP3   OH238089   4.923   6.382   4.581 -0.3535  0.0694 -0.2405
 5533TIP3    H138090   4.886   6.293   4.579 -0.9311  0.2961  0.0860
 5533TIP3    H238091   4.866   6.430   4.641  0.9456  0.2436  0.8764
 5534TIP3   OH238092   1.215   4.041   1.316  0.0063 -0.3622 -0.3481
 5534TIP3    H138093   1.268   4.060   1.394  0.6989 -0.0697 -0.8830
 5534TIP3    H238094   1.239   3.952   1.292  0.1394 -0.2839 -0.5024
 5535TIP3   OH238095   4.956   3.732   1.383 -0.4851 -0.1950  0.5189
 5535TIP3    H138096   5.046   3.763   1.394 -1.1142  1.2807  2.0378
 5535TIP3    H238097   4.945   3.666   1.452 -0.1364 -1.5772 -0.6790
 5536TIP3   OH238098   3.171   6.024  11.055 -0.1285  0.4573  0.3066
 5536TIP3    H138099   3.146   6.014  10.963 -0.3701  1.2685  0.2821
 5536TIP3    H238100   3.148   5.940  11.095 -0.5724  0.3092 -0.2491
 5537TIP3   OH238101   2.187   5.975  13.509 -0.0863 -0.8213  0.5387
 5537TIP3    H138102   2.197   5.906  13.444  2.3698 -1.6799  1.6912
 5537TIP3    H238103   2.208   5.932  13.592 -2.5426  0.3657  1.8889
 5538TIP3   OH238104   2.297   0.010   4.637  0.2730 -0.2887  0.2804
 5538TIP3    H138105   2.203  -0.009   4.647  0.0834 -0.1791 -1.0444
 5538TIP3    H238106   2.302   0.063   4.557  1.2456  1.5884  1.5293
 5539TIP3   OH238107   0.763   4.570  10.926  0.0057  0.1779 -0.1172
 5539TIP3    H138108   0.775   4.478  10.952 -0.6850  0.6842  2.2615
 5539TIP3    H238109   0.716   4.565  10.843  1.2633 -1.6156 -0.7760
 5540TIP3   OH238110   0.186   3.381  17.146  0.5716  0.0070 -0.3199
 5540TIP3    H138111   0.152   3.333  17.071  0.8390 -2.0316  0.7888
 5540TIP3    H238112   0.281   3.381  17.134  0.5599  0.4821 -0.4338
 5541TIP3   OH238113   1.193   0.033   3.955  0.4310  0.2596  0.0092
 5541TIP3    H138114   1.268  -0.015   3.991  1.4429 -0.0321 -2.2796
 5541TIP3    H238115   1.133  -0.035   3.925  0.6053  0.4348 -0.7652
 5542TIP3   OH238116   4.373   3.718  16.747 -0.2705  0.1742  0.2054
 5542TIP3    H138117   4.280   3.727  16.729  0.0700  2.9252 -0.5942
 5542TIP3    H238118   4.377   3.699  16.841 -1.6251 -1.6264 -0.0434
 5543TIP3   OH238119   6.002   2.856  15.307  0.3732  0.4495 -0.2125
 5543TIP3    H138120   6.023   2.866  15.214 -1.1550  0.7447 -0.5579
 5543TIP3    H238121   6.027   2.766  15.328 -1.2250 -0.3617 -1.5092
 5544TIP3   OH238122   3.728   6.001   5.420  0.2247  0.1686 -0.0133
 5544TIP3    H138123   3.714   6.017   5.513  2.9933 -2.6070  1.0537
 5544TIP3    H238124   3.822   6.009   5.408 -0.0308  0.2602 -2.5955
 5545TIP3   OH238125   3.376   0.016  12.781 -0.3340  0.5528  0.0888
 5545TIP3    H138126   3.410  -0.060  12.828  1.6866  1.8172  0.8123
 5545TIP3    H238127   3.378  -0.011  12.689 -0.9035 -0.7086  0.4208
 5546TIP3   OH238128   0.938   6.433  13.761 -0.1222  0.0980  0.6213
 5546TIP3    H138129   0.914   6.512  13.807  0.8915 -0.5267  2.3073
 5546TIP3    H238130   1.031   6.444  13.740 -0.0643 -0.4839  0.5414
 5547TIP3   OH238131   3.233   4.446   3.138  0.5819  0.5911  0.1283
 5547TIP3    H138132   3.205   4.428   3.227  1.5919 -1.2238  0.1129
 5547TIP3    H238133   3.197   4.533   3.118 -2.6022 -0.4244  1.0445
 5548TIP3   OH238134   5.228   1.967   0.817 -0.2054 -0.0310 -0.2744
 5548TIP3    H138135   5.254   2.059   0.809  0.1837 -0.0963  0.1943
 5548TIP3    H238136   5.285   1.921   0.755  1.4560 -0.2851  1.3383
 5549TIP3   OH238137   3.820   5.703  17.098 -0.3803 -0.1192  0.5855
 5549TIP3    H138138   3.793   5.773  17.039 -1.2472 -1.2594 -0.4300
 5549TIP3    H238139   3.847   5.631  17.040  0.4129 -0.6694  1.5925
 5550TIP3   OH238140   1.627   1.465  15.179 -0.1518  0.3240  0.1376
 5550TIP3    H138141   1.559   1.403  15.203 -0.1379 -0.4627 -1.6917
 5550TIP3    H238142   1.607   1.544  15.229 -0.1976 -1.0853  2.4907
 5551TIP3   OH238143   0.660   5.584  13.251 -0.0103 -0.5179  0.6128
 5551TIP3    H138144   0.693   5.500  13.285  1.2325  0.1059  1.0207
 5551TIP3    H238145   0.566   5.572  13.246  0.2120 -2.3220 -0.3675
 5552TIP3   OH238146   1.966   6.743   5.557 -0.0151  0.5897 -0.0595
 5552TIP3    H138147   1.969   6.735   5.652 -2.7108  0.9870  0.1299
 5552TIP3    H238148   1.965   6.838   5.542  0.6594  0.5283 -0.5035
 5553TIP3   OH238149   0.381   4.199  16.433  0.0978 -0.6824  0.6553
 5553TIP3    H138150   0.337   4.263  16.377 -0.3544  1.3805  3.1991
 5553TIP3    H238151   0.333   4.118  16.418 -0.9946  0.1737 -0.7610
 5554TIP3   OH238152   4.437   1.908   4.530 -0.1621 -0.1588  0.9839
 5554TIP3    H138153   4.394   1.825   4.552  0.7214 -1.0652 -0.5679
 5554TIP3    H238154   4.382   1.947   4.462  0.5812 -0.5332  0.1591
 5555TIP3   OH238155   3.049   0.906   4.652  0.1553  0.2851 -0.5600
 5555TIP3    H138156   2.994   0.885   4.728  1.5841 -0.3294  0.3389
 5555TIP3    H238157   3.026   0.840   4.587 -1.7331  1.3520 -1.0506
 5556TIP3   OH238158   5.265   4.437   2.099  0.1302  0.4470  0.1294
 5556TIP3    H138159   5.314   4.404   2.174  0.9025 -0.5012 -0.7634
 5556TIP3    H238160   5.189   4.379   2.092 -0.7794  1.4847  1.0874
 5557TIP3   OH238161   4.866   5.457  17.180 -0.6881  0.5350  0.2729
 5557TIP3    H138162   4.832   5.371  17.156 -0.2973  0.2135  0.8848
 5557TIP3    H238163   4.798   5.518  17.150  0.1237  0.2330 -2.4354
 5558TIP3   OH238164   4.163   3.031   4.865  0.3767 -0.2283 -0.0877
 5558TIP3    H138165   4.255   3.014   4.884  0.7386  0.1624 -1.3508
 5558TIP3    H238166   4.141   2.971   4.794  0.0103  0.5121 -0.6169
 5559TIP3   OH238167   0.035   4.790   2.964  0.2939 -0.3130  0.6425
 5559TIP3    H138168  -0.039   4.798   2.904 -0.6796  1.6140  1.9892
 5559TIP3    H238169   0.108   4.831   2.918 -0.5053  1.3729  0.7749
 5560TIP3   OH238170   6.103   5.981   4.975  0.2355 -0.3645  0.2548
 5560TIP3    H138171   6.099   6.074   4.957 -0.2936 -0.1681  1.3083
 5560TIP3    H238172   6.061   5.939   4.899 -2.7813  0.4697  1.3359
 5561TIP3   OH238173   0.951   4.928   3.774  0.2990 -0.4743 -0.3466
 5561TIP3    H138174   0.939   4.971   3.858 -1.1384 -1.5936  0.0675
 5561TIP3    H238175   0.937   4.835   3.793  1.6639 -0.9558 -1.5116
 5562TIP3   OH238176   3.269   4.521   6.697 -0.1119  0.1263 -0.7740
 5562TIP3    H138177   3.178   4.493   6.695 -0.5749  1.4502 -0.0119
 5562TIP3    H238178   3.269   4.603   6.647  1.0261 -0.7503 -2.2806
 5563TIP3   OH238179   4.612   2.236  14.030  0.2942  0.0644  0.2760
 5563TIP3    H138180   4.613   2.316  14.083  2.4079 -0.0688  0.4973
 5563TIP3    H238181   4.608   2.165  14.094 -2.2575 -0.0720  0.0665
 5564TIP3   OH238182   6.153   4.726  10.790 -0.4341  0.3280  0.6556
 5564TIP3    H138183   6.123   4.661  10.726 -0.1235 -0.8007  1.6331
 5564TIP3    H238184   6.248   4.722  10.785 -0.4121  0.7591  0.6901
 5565TIP3   OH238185   4.341   0.142   2.282  0.3511 -0.1624  0.1055
 5565TIP3    H138186   4.428   0.180   2.290  0.4055 -0.5361  1.6219
 5565TIP3    H238187   4.344   0.092   2.200  1.5130 -0.0500  0.0633
 5566TIP3   OH238188   3.813   0.376   1.019 -0.4150  0.4915 -0.1808
 5566TIP3    H138189   3.740   0.340   0.969 -0.3675 -0.8894  0.6790
 5566TIP3    H238190   3.777   0.455   1.060 -0.9637  0.6622 -0.9752
 5567TIP3   OH238191   4.560   0.797  14.194  0.0249 -0.0314 -0.1746
 5567TIP3    H138192   4.505   0.722  14.172 -0.9545  0.1977  1.3686
 5567TIP3    H238193   4.499   0.870  14.204  0.6538  0.3650  0.9677
 5568TIP3   OH238194   3.696   0.588  13.718  0.0583 -0.6643  0.3063
 5568TIP3    H138195   3.622   0.584  13.778 -0.6713  0.9772 -0.4309
 5568TIP3    H238196   3.680   0.518  13.655 -1.4062  0.2441 -0.3872
 5569TIP3   OH238197   4.589   4.399  16.624 -0.5542 -0.6370  0.2991
 5569TIP3    H138198   4.533   4.419  16.549 -0.8088 -0.2191  0.5998
 5569TIP3    H238199   4.528   4.370  16.691 -0.5376  0.8876  1.0056
 5570TIP3   OH238200   5.973   2.090  17.211 -0.2191 -0.5291 -0.2014
 5570TIP3    H138201   6.055   2.138  17.224 -0.3962 -0.2666 -0.0428
 5570TIP3    H238202   5.970   2.074  17.117 -0.2275 -0.0990 -0.2777
 5571TIP3   OH238203   5.207   3.893  11.273  0.3194 -0.7717 -0.2836
 5571TIP3    H138204   5.294   3.861  11.249  0.9719  0.1084  0.8167
 5571TIP3    H238205   5.152   3.872  11.197  1.5444 -1.0879 -1.1159
 5572TIP3   OH238206   3.777   3.143  11.710 -0.0371  0.0517 -0.8054
 5572TIP3    H138207   3.705   3.206  11.705 -2.2604 -2.2436  0.0823
 5572TIP3    H238208   3.747   3.068  11.658  2.0680 -0.6959 -1.0359
 5573TIP3   OH238209   3.514   4.303   5.483 -0.0135 -0.2040  0.2750
 5573TIP3    H138210   3.596   4.292   5.435  0.3767 -0.5505  1.0135
 5573TIP3    H238211   3.451   4.330   5.416  0.8234  0.6236 -0.2076
 5574TIP3   OH238212   0.347   1.130  12.769 -0.2141  0.5465  0.1043
 5574TIP3    H138213   0.302   1.129  12.685 -0.5928 -0.9748  0.2962
 5574TIP3    H238214   0.440   1.125  12.747 -0.2549  1.1152 -0.2259
 5575TIP3   OH238215   5.794   1.346   0.158 -0.1940 -0.7403  0.4194
 5575TIP3    H138216   5.765   1.264   0.197 -0.8147 -0.2622  0.9943
 5575TIP3    H238217   5.877   1.365   0.200  1.0131 -2.1019 -1.2107
 5576TIP3   OH238218   5.618   5.477   1.382  0.3713  0.4410  0.1411
 5576TIP3    H138219   5.675   5.552   1.399  1.1245  0.3207 -1.6116
 5576TIP3    H238220   5.529   5.514   1.386  0.7468  1.6193 -1.2818
 5577TIP3   OH238221   2.518   1.335   0.542  0.8272 -0.2435  0.1857
 5577TIP3    H138222   2.538   1.251   0.499  0.4048 -1.0268  1.4645
 5577TIP3    H238223   2.551   1.324   0.631 -2.0586 -0.2960  1.3547
 5578TIP3   OH238224   4.558   4.270   0.507  0.2436  0.0491 -0.1067
 5578TIP3    H138225   4.514   4.195   0.547 -1.4736  0.6431 -0.7752
 5578TIP3    H238226   4.511   4.346   0.542  1.9886  0.8349  0.5999
 5579TIP3   OH238227   1.994   1.206   2.539  0.0406 -1.0121 -0.0631
 5579TIP3    H138228   1.964   1.240   2.623 -2.4682 -2.9885 -0.0615
 5579TIP3    H238229   1.974   1.276   2.477  0.0083 -0.3553  0.6669
 5580TIP3   OH238230   1.035   0.555   5.138  0.2744  0.3627 -0.3553
 5580TIP3    H138231   1.109   0.568   5.197 -0.5155 -0.9245  0.9883
 5580TIP3    H238232   0.959   0.582   5.189 -0.2330  1.5095 -1.6579
 5581TIP3   OH238233   2.479   5.609  15.018  0.4118 -0.4485 -0.3036
 5581TIP3    H138234   2.495   5.531  15.071  1.1210 -1.0497 -1.3531
 5581TIP3    H238235   2.490   5.578  14.928  0.6048  0.8591 -0.7406
 5582TIP3   OH238236   4.969   0.567   1.561 -0.1030  0.4830 -0.6330
 5582TIP3    H138237   5.037   0.502   1.544  0.8206  0.5866  2.2035
 5582TIP3    H238238   4.994   0.643   1.509  1.9050  0.4591  0.2221
 5583TIP3   OH238239   6.148   0.913  15.252  0.4541 -0.2598  0.2379
 5583TIP3    H138240   6.176   0.955  15.171  0.3804 -0.6412  0.0179
 5583TIP3    H238241   6.067   0.958  15.276 -0.5510 -1.4052 -0.8980
 5584TIP3   OH238242   6.699   3.659   1.566 -0.2495  0.1252  0.0162
 5584TIP3    H138243   6.672   3.636   1.477  0.1220  1.0334 -0.3509
 5584TIP3    H238244   6.711   3.754   1.563 -0.1178  0.1485  1.0083
 5585TIP3   OH238245   6.332   4.288  15.683  0.2077 -0.3324  0.1559
 5585TIP3    H138246   6.271   4.348  15.640  0.6171  0.1014  0.1798
 5585TIP3    H238247   6.356   4.332  15.765 -1.6293 -1.7530  1.5401
 5586TIP3   OH238248   3.989   1.852   4.907 -0.0518  1.0571  0.0886
 5586TIP3    H138249   4.071   1.874   4.862 -0.5787 -0.0017 -1.4486
 5586TIP3    H238250   4.017   1.822   4.993  1.1154  1.4590 -0.1201
 5587TIP3   OH238251   0.823   2.178  16.522  0.4224 -0.3793  0.5897
 5587TIP3    H138252   0.878   2.226  16.584 -0.8826 -0.3255  1.7485
 5587TIP3    H238253   0.845   2.216  16.437 -0.2452  2.0012  1.4003
 5588TIP3   OH238254   2.396   6.041   2.540 -0.0578 -0.2121 -0.8204
 5588TIP3    H138255   2.384   6.117   2.596  0.0378 -0.3567 -0.6043
 5588TIP3    H238256   2.343   5.973   2.580  0.8605 -0.6354 -0.2826
 5589TIP3   OH238257   2.301   2.050  12.731  0.1043 -0.2592 -0.2958
 5589TIP3    H138258   2.382   2.087  12.765 -0.1261  0.0437 -0.0769
 5589TIP3    H238259   2.289   1.969  12.781  0.4910 -0.5174 -0.6215
 5590TIP3   OH238260   3.299   1.458  12.390 -0.0888  0.4983  0.1958
 5590TIP3    H138261   3.239   1.448  12.317 -1.3642 -1.5159  1.4209
 5590TIP3    H238262   3.370   1.396  12.372 -0.1100  0.4148  0.4031
 5591TIP3   OH238263   6.761   0.998   0.772 -0.4040 -0.4009 -0.1972
 5591TIP3    H138264   6.686   0.984   0.714 -0.7124 -0.7127  0.2619
 5591TIP3    H238265   6.723   0.996   0.860  0.2826 -1.5855  0.0916
 5592TIP3   OH238266   0.161   5.269   2.724  0.0517 -0.2796 -0.3722
 5592TIP3    H138267   0.196   5.211   2.656  0.2649 -0.9430  0.2889
 5592TIP3    H238268   0.158   5.355   2.683  3.1736 -0.0115 -0.2916
 5593TIP3   OH238269   2.921   1.174  11.223 -0.1947  0.1999  0.4750
 5593TIP3    H138270   2.870   1.178  11.304 -2.2936 -0.3233 -0.7698
 5593TIP3    H238271   2.910   1.260  11.183  0.1860  0.1897  0.3416
 5594TIP3   OH238272   0.198   1.004   1.254 -0.5287 -0.1263 -0.0838
 5594TIP3    H138273   0.142   1.037   1.324  0.7595 -0.2559  1.0612
 5594TIP3    H238274   0.199   0.909   1.267  0.9883 -0.0295  0.7756
 5595TIP3   OH238275   3.734   2.824  15.136  0.1057 -0.3942 -0.3123
 5595TIP3    H138276   3.796   2.820  15.063 -1.3998 -1.6768 -1.6053
 5595TIP3    H238277   3.670   2.756  15.116 -2.9930  2.2680 -0.2389
 5596TIP3   OH238278   5.676   1.326  14.584 -0.0613 -0.6192 -0.1285
 5596TIP3    H138279   5.708   1.401  14.634 -0.4478 -0.6115  0.1157
 5596TIP3    H238280   5.582   1.341  14.577 -0.3527 -1.7181  1.0453
 5597TIP3   OH238281   3.181   5.170  14.905 -0.2785  0.1930 -0.6969
 5597TIP3    H138282   3.106   5.145  14.959  0.9070 -0.0921  0.8932
 5597TIP3    H238283   3.186   5.265  14.913 -0.2899  0.1811 -0.5436
 5598TIP3   OH238284   5.213   1.259   5.384  0.3252 -0.5628 -0.0479
 5598TIP3    H138285   5.284   1.222   5.437 -0.1573 -1.3180  0.0875
 5598TIP3    H238286   5.134   1.247   5.438 -0.1315 -1.1012 -0.8243
 5599TIP3   OH238287   3.449   5.359  12.084  0.1241 -0.5727  0.1531
 5599TIP3    H138288   3.366   5.322  12.113 -0.0356 -0.5110 -0.2202
 5599TIP3    H238289   3.435   5.454  12.086 -0.2163 -0.5815 -1.0494
 5600TIP3   OH238290   4.413   5.242   1.873 -0.6025  0.2940 -0.1359
 5600TIP3    H138291   4.365   5.160   1.887 -1.5339  0.7550 -0.5526
 5600TIP3    H238292   4.380   5.275   1.790  1.6605 -0.1935 -1.2915
 5601TIP3   OH238293   4.062   2.572  12.284 -0.0453 -0.0309 -0.3790
 5601TIP3    H138294   4.145   2.616  12.302 -0.3819 -0.3879  2.6110
 5601TIP3    H238295   4.022   2.625  12.215  1.0723  2.3561  0.6723
 5602TIP3   OH238296   3.813   2.728   1.893  0.2114 -0.3000 -0.0688
 5602TIP3    H138297   3.729   2.766   1.867  0.6248 -0.6260 -2.0659
 5602TIP3    H238298   3.791   2.666   1.962 -1.3089 -0.9066 -1.0545
 5603TIP3   OH238299   1.352   3.174  12.463  0.0134  0.2172 -0.2657
 5603TIP3    H138300   1.288   3.180  12.392  2.0903 -1.0367 -2.4289
 5603TIP3    H238301   1.342   3.085  12.496  0.3863  0.1311 -0.3807
 5604TIP3   OH238302   2.823   1.718   3.969 -0.3175 -0.1637 -0.4014
 5604TIP3    H138303   2.901   1.693   4.020  0.0170  1.1164 -0.2330
 5604TIP3    H238304   2.800   1.640   3.920  1.2894 -0.4841 -0.7032
 5605TIP3   OH238305   3.837   0.591   0.484 -0.0454 -0.3405 -0.1126
 5605TIP3    H138306   3.863   0.665   0.430  2.6686 -0.3856  0.9987
 5605TIP3    H238307   3.823   0.629   0.571  2.4037 -1.1979  0.7224
 5606TIP3   OH238308   2.362   1.876  15.515 -0.1645 -0.1365 -0.0777
 5606TIP3    H138309   2.342   1.868  15.422 -0.6808  1.4820 -0.1462
 5606TIP3    H238310   2.286   1.837  15.560  0.3637 -1.4796 -0.2988
 5607TIP3   OH238311   3.397   6.142   0.286 -0.1149 -0.0163 -0.0304
 5607TIP3    H138312   3.490   6.116   0.287  0.0591  0.4428 -1.4553
 5607TIP3    H238313   3.353   6.069   0.241 -0.1493  0.5782 -0.9831
 5608TIP3   OH238314   1.491   5.073  12.381 -0.2775 -0.1936 -0.3404
 5608TIP3    H138315   1.479   4.998  12.323 -0.2343 -0.3186 -0.1889
 5608TIP3    H238316   1.405   5.085  12.422 -0.3455 -0.0185 -0.5343
 5609TIP3   OH238317   6.314   1.116  14.318  0.9829 -0.2569 -0.0899
 5609TIP3    H138318   6.307   1.020  14.322 -1.0484 -0.1204  0.7105
 5609TIP3    H238319   6.361   1.140  14.397 -1.1824 -0.4476  1.3346
 5610TIP3   OH238320   1.607   2.438   4.738 -0.7999 -0.3975 -0.0437
 5610TIP3    H138321   1.554   2.490   4.678 -1.2837 -0.8894 -0.0502
 5610TIP3    H238322   1.597   2.481   4.823 -1.1432 -0.4434 -0.0608
 5611TIP3   OH238323   2.128   5.118   2.475 -0.5300 -0.3461 -0.1774
 5611TIP3    H138324   2.197   5.072   2.428  0.5187  0.3549  0.6432
 5611TIP3    H238325   2.149   5.210   2.464 -0.8974 -0.1460  0.7252
 5612TIP3   OH238326   2.217   2.465   1.672 -1.0694  0.1721  0.4352
 5612TIP3    H138327   2.174   2.397   1.621 -1.9539  1.5064 -0.6711
 5612TIP3    H238328   2.176   2.459   1.759  1.4394 -3.0279  1.5634
 5613TIP3   OH238329   5.111   0.545   2.706 -0.2809 -0.3299  0.2935
 5613TIP3    H138330   5.069   0.494   2.636 -0.7458 -0.8296  0.9320
 5613TIP3    H238331   5.044   0.606   2.735 -0.0898 -0.1307  0.3157
 5614TIP3   OH238332   1.323   4.429   1.434 -0.0948 -0.0761  0.0409
 5614TIP3    H138333   1.234   4.465   1.427  0.3834  1.1476  0.1592
 5614TIP3    H238334   1.344   4.400   1.345  0.4020  2.1211 -0.6210
 5615TIP3   OH238335   0.576   3.645   6.122 -0.2105 -0.2602  0.6606
 5615TIP3    H138336   0.611   3.727   6.158  0.9015 -0.9789  1.2377
 5615TIP3    H238337   0.629   3.576   6.161 -0.3995 -1.2097 -0.6977
 5616TIP3   OH238338   4.838   2.057   6.564  0.2866  0.6162  0.0561
 5616TIP3    H138339   4.749   2.051   6.529 -0.5190  2.2002  1.6262
 5616TIP3    H238340   4.845   1.983   6.624 -0.1757  0.7781  0.3164
 5617TIP3   OH238341   2.548   5.907  12.096  0.3306  0.5739 -0.0351
 5617TIP3    H138342   2.466   5.956  12.105 -0.2036  0.0204 -1.5301
 5617TIP3    H238343   2.585   5.938  12.013  2.4334  1.9068  1.2996
 5618TIP3   OH238344   2.195   6.434   1.220  0.6809  0.0638 -0.2219
 5618TIP3    H138345   2.234   6.453   1.306  0.2057  0.1766 -0.0261
 5618TIP3    H238346   2.262   6.385   1.174  1.3804  0.9623 -0.1967
 5619TIP3   OH238347   3.647   4.236   3.138  0.5003  0.4740 -0.5422
 5619TIP3    H138348   3.695   4.161   3.173  0.1164  0.0736 -0.8483
 5619TIP3    H238349   3.668   4.308   3.197  0.6702  0.0627 -0.0903
 5620TIP3   OH238350   2.233   3.762   5.269  0.2358 -0.0684 -0.1752
 5620TIP3    H138351   2.325   3.743   5.253  0.1971 -2.2603  1.6765
 5620TIP3    H238352   2.212   3.712   5.348 -2.4113  0.8058 -0.2352
 5621TIP3   OH238353   5.671   2.827   5.259 -0.2974 -0.2047  0.3698
 5621TIP3    H138354   5.605   2.847   5.193  1.0097  0.6984 -0.7257
 5621TIP3    H238355   5.720   2.909   5.269  2.3850 -1.5516 -0.8855
 5622TIP3   OH238356   2.926   0.479   1.973  0.2284  0.4539 -0.2549
 5622TIP3    H138357   2.950   0.560   2.020  0.1369  0.5823 -0.4299
 5622TIP3    H238358   2.981   0.412   2.013 -0.8914  0.2768  1.0638
 5623TIP3   OH238359   6.513   4.329   0.645 -0.3684  1.2465  0.4056
 5623TIP3    H138360   6.470   4.256   0.601  2.7044 -0.6983  0.3218
 5623TIP3    H238361   6.546   4.384   0.573  0.0193  0.9989  0.3930
 5624TIP3   OH238362   4.817   4.550  15.182  0.2840  0.4700  0.8220
 5624TIP3    H138363   4.871   4.623  15.212  1.0628  0.4903 -0.5590
 5624TIP3    H238364   4.870   4.505  15.117 -1.0544  0.0352 -0.0270
 5625TIP3   OH238365   2.542   3.373  12.199  0.6177 -0.4534  0.1407
 5625TIP3    H138366   2.450   3.348  12.189  0.4868 -2.2589  3.9893
 5625TIP3    H238367   2.591   3.302  12.157  0.3217 -0.0315 -0.9635
 5626TIP3   OH238368   6.049   6.197   0.311 -0.1843  0.2543  0.0232
 5626TIP3    H138369   6.091   6.280   0.288  0.1007  0.4190  1.0928
 5626TIP3    H238370   6.080   6.136   0.244  2.9384  0.0211  1.5154
 5627TIP3   OH238371   2.105   2.111   5.641 -0.1361  0.3821 -0.3597
 5627TIP3    H138372   2.184   2.131   5.590 -1.3023 -0.8565 -2.8536
 5627TIP3    H238373   2.040   2.174   5.608 -0.6334  0.3216  0.4859
 5628TIP3   OH238374   4.044   2.576   1.648  0.0679 -0.0091  0.4033
 5628TIP3    H138375   3.996   2.494   1.633 -1.2810  0.6472  0.9356
 5628TIP3    H238376   4.110   2.553   1.714  0.7147 -0.9996 -0.5484
 5629TIP3   OH238377   2.132   3.023   6.245 -0.6754  0.2854  0.8262
 5629TIP3    H138378   2.131   3.055   6.155  1.5203 -0.5426  0.4578
 5629TIP3    H238379   2.041   3.032   6.274 -1.5554  0.0866 -1.6283
 5630TIP3   OH238380   0.176   5.380   5.023 -0.2633 -0.3480  0.0206
 5630TIP3    H138381   0.085   5.398   5.001 -0.4146  1.2731  1.6597
 5630TIP3    H238382   0.211   5.332   4.948 -1.8584  0.9605 -1.6442
 5631TIP3   OH238383   3.939   1.370   3.748 -0.5542  0.5463  0.0520
 5631TIP3    H138384   3.994   1.292   3.759  0.5479  0.7881 -2.8963
 5631TIP3    H238385   3.995   1.434   3.704 -2.0234  2.3257  0.6251
 5632TIP3   OH238386   6.035   1.927  16.506 -0.5520 -0.0839  0.2464
 5632TIP3    H138387   5.979   1.873  16.450 -0.7854  0.4121 -0.0016
 5632TIP3    H238388   6.113   1.874  16.520 -0.7775 -0.4855  0.0025
 5633TIP3   OH238389   6.520   2.164  14.674  0.0044 -0.6808 -0.0878
 5633TIP3    H138390   6.603   2.170  14.628  0.2615 -0.4899  0.3862
 5633TIP3    H238391   6.465   2.107  14.620  0.8049 -1.6770  0.1212
 5634TIP3   OH238392   2.207   2.321  17.218 -0.4930  0.3290 -0.1522
 5634TIP3    H138393   2.178   2.265  17.290  2.6681 -0.4215  0.7199
 5634TIP3    H238394   2.186   2.410  17.246 -0.4998 -0.0526  1.0878
 5635TIP3   OH238395   6.278   4.940   1.243  0.0505  0.9631  0.0565
 5635TIP3    H138396   6.244   4.913   1.158 -1.3419 -2.8762  1.5847
 5635TIP3    H238397   6.204   4.985   1.285 -0.8289 -0.9057  0.6624
 5636TIP3   OH238398   2.536   4.973   4.803  0.1622 -0.8979 -0.0097
 5636TIP3    H138399   2.558   5.041   4.739 -2.5881  1.3565  1.2000
 5636TIP3    H238400   2.501   4.901   4.751  0.2426 -0.1061 -1.1962
 5637TIP3   OH238401   6.326   4.312  12.258  0.0602 -0.0559 -0.0617
 5637TIP3    H138402   6.280   4.297  12.176 -0.0200  0.8316 -0.1928
 5637TIP3    H238403   6.288   4.393  12.293 -0.7521 -1.0483  1.4515
 5638TIP3   OH238404   6.690   5.634   3.110  0.0635 -0.3018  0.3893
 5638TIP3    H138405   6.714   5.613   3.020 -0.3618  0.3909  0.1084
 5638TIP3    H238406   6.741   5.712   3.132 -1.0116  0.4707  0.1960
 5639TIP3   OH238407   2.216   2.265  14.275  0.2153 -0.3349 -0.0026
 5639TIP3    H138408   2.235   2.247  14.182 -1.9017  1.3346 -0.8425
 5639TIP3    H238409   2.252   2.189  14.321  4.2643  0.2440 -1.7800
 5640TIP3   OH238410   3.481   1.899   5.154  0.3055 -0.2730  0.3650
 5640TIP3    H138411   3.392   1.881   5.125  0.7029 -1.2252 -0.3386
 5640TIP3    H238412   3.528   1.816   5.140  0.9036 -0.2992  2.3257
 5641TIP3   OH238413   2.667   3.117  13.621  0.2250  0.4145  0.2202
 5641TIP3    H138414   2.626   3.074  13.547  0.2711  0.9245 -0.1038
 5641TIP3    H238415   2.627   3.076  13.698  1.1416 -1.0593 -0.0505
 5642TIP3   OH238416   3.070   5.249  16.799  0.2766 -0.4949 -0.2308
 5642TIP3    H138417   3.129   5.271  16.871 -0.4672  2.5287 -0.4420
 5642TIP3    H238418   3.129   5.217  16.730  1.5850  1.1687  0.0377
 5643TIP3   OH238419   2.525   0.147   0.444 -0.5834 -0.0296  0.0243
 5643TIP3    H138420   2.590   0.090   0.404 -0.6796 -0.6492  0.7353
 5643TIP3    H238421   2.449   0.141   0.387  0.0953  1.0240 -1.0463
 5644TIP3   OH238422   0.366   5.547   0.724 -0.3111 -1.0929 -0.2182
 5644TIP3    H138423   0.274   5.566   0.709 -0.3249 -2.2114 -1.8687
 5644TIP3    H238424   0.389   5.484   0.655  1.8954 -0.2010 -0.3771
 5645TIP3   OH238425   1.972   6.010  13.967 -0.3510  0.2381  0.1375
 5645TIP3    H138426   1.994   5.917  13.965 -0.5441  0.1453  1.2748
 5645TIP3    H238427   1.919   6.020  14.046  0.4664  1.4785  0.5606
 5646TIP3   OH238428   5.613   1.845  14.281  0.3890  0.0625  0.5782
 5646TIP3    H138429   5.657   1.824  14.199 -0.8152 -1.2033  0.2188
 5646TIP3    H238430   5.653   1.928  14.309  1.1441  0.2862 -1.0349
 5647TIP3   OH238431   5.231   5.570   3.430 -0.2203  0.7743  0.1193
 5647TIP3    H138432   5.145   5.611   3.442 -0.0462  1.1997 -0.0918
 5647TIP3    H238433   5.215   5.478   3.450 -0.8259  0.7716 -0.3310
 5648TIP3   OH238434   5.827   0.606   2.946 -0.2334 -0.3963 -0.3454
 5648TIP3    H138435   5.886   0.674   2.913 -1.7422  2.2801  1.9678
 5648TIP3    H238436   5.741   0.630   2.911 -0.8738 -0.8510  0.8583
 5649TIP3   OH238437   0.370   5.923  11.069 -0.0962 -0.0806 -0.2908
 5649TIP3    H138438   0.389   5.940  10.977 -1.4395  0.7774 -0.4249
 5649TIP3    H238439   0.429   5.851  11.093 -0.6644 -1.2249 -2.1692
 5650TIP3   OH238440   1.706   2.762   1.932  0.8114 -0.1211 -0.4440
 5650TIP3    H138441   1.693   2.733   1.842 -2.0461 -1.5878  0.3139
 5650TIP3    H238442   1.763   2.695   1.970 -2.0562 -2.5278  0.0467
 5651TIP3   OH238443   5.193   0.910  12.240  0.2883 -0.5206  0.4095
 5651TIP3    H138444   5.254   0.979  12.266 -0.3314  0.9836 -1.8320
 5651TIP3    H238445   5.249   0.841  12.205  0.8059  0.5121 -0.8970
 5652TIP3   OH238446   2.302   4.255   5.175 -0.0663 -0.5228  0.5965
 5652TIP3    H138447   2.341   4.192   5.114 -1.7141 -1.6344  0.6479
 5652TIP3    H238448   2.286   4.205   5.254  0.1500  0.4105  1.2534
 5653TIP3   OH238449   0.323   5.563  11.421 -0.4348  0.2491 -0.3386
 5653TIP3    H138450   0.284   5.626  11.360 -1.6649  2.4404  2.4968
 5653TIP3    H238451   0.405   5.604  11.449  0.1000 -0.7158 -0.4329
 5654TIP3   OH238452   1.545   4.734  10.980  0.4410  0.5089 -0.0198
 5654TIP3    H138453   1.629   4.692  11.000  0.4009 -0.2111 -1.2243
 5654TIP3    H238454   1.482   4.663  10.981  0.1413  0.7507 -0.7617
 5655TIP3   OH238455   5.002   2.521  13.795  0.0767  0.6409 -0.1290
 5655TIP3    H138456   5.027   2.476  13.715  0.1677  2.0007 -0.9051
 5655TIP3    H238457   5.081   2.524  13.848 -0.0160 -0.3728  0.0811
 5656TIP3   OH238458   5.456   1.358  12.420 -0.5179  0.0268  0.5550
 5656TIP3    H138459   5.452   1.272  12.379  0.0558 -0.6530  1.8688
 5656TIP3    H238460   5.406   1.348  12.502  1.0844  0.3839  1.6210
 5657TIP3   OH238461   4.015   6.135   2.659 -0.0639  0.0990 -0.1346
 5657TIP3    H138462   4.089   6.169   2.609  1.9660 -1.0920  1.8669
 5657TIP3    H238463   3.967   6.080   2.597  1.8653 -0.6509 -1.0606
 5658TIP3   OH238464   6.593   1.535   4.842  0.5362 -0.2822  0.0132
 5658TIP3    H138465   6.633   1.450   4.827 -1.0090 -1.5947  2.5198
 5658TIP3    H238466   6.511   1.533   4.792  1.4282  0.6034 -1.5459
 5659TIP3   OH238467   1.864   2.625   5.438  0.3236 -0.9313  0.2070
 5659TIP3    H138468   1.913   2.654   5.515 -0.3479 -1.9621  1.0510
 5659TIP3    H238469   1.809   2.554   5.470 -0.0291 -1.3345 -1.2186
 5660TIP3   OH238470   0.589   6.760   5.162  0.4053  0.1771 -0.0135
 5660TIP3    H138471   0.548   6.677   5.184 -0.7883  0.6625 -0.3342
 5660TIP3    H238472   0.600   6.804   5.247  1.1376 -0.3305  0.1678
 5661TIP3   OH238473   3.443   6.012   0.678  0.0013 -0.4452  0.4240
 5661TIP3    H138474   3.461   5.969   0.761  0.2865  0.8334  1.0575
 5661TIP3    H238475   3.508   6.082   0.673 -1.1824  0.6731  0.0245
 5662TIP3   OH238476   0.502   1.771   1.799  0.5515  0.1464 -0.6916
 5662TIP3    H138477   0.474   1.765   1.708  1.5380  0.2051 -1.0140
 5662TIP3    H238478   0.592   1.805   1.795  1.3813 -1.7368  0.1516
 5663TIP3   OH238479   2.879   6.709   3.864  0.5602 -0.2370  0.1194
 5663TIP3    H138480   2.965   6.716   3.821  0.4219  0.6199 -0.0473
 5663TIP3    H238481   2.842   6.797   3.857 -0.3228 -0.5890  0.2271
 5664TIP3   OH238482   3.330   4.211   1.653 -0.7510  0.3033 -0.4688
 5664TIP3    H138483   3.424   4.219   1.638 -0.9261 -0.3078 -2.1349
 5664TIP3    H238484   3.297   4.300   1.645 -0.4000  0.4234 -0.6168
 5665TIP3   OH238485   2.012   6.306  13.952 -1.0619  0.0183  0.1396
 5665TIP3    H138486   2.031   6.220  13.915  0.8554  0.1707  0.6964
 5665TIP3    H238487   2.002   6.291  14.046 -2.9155  0.1013 -0.0026
 5666TIP3   OH238488   3.840   5.495   1.928 -0.6049  0.5046 -0.0832
 5666TIP3    H138489   3.745   5.492   1.922 -0.5294 -0.6441 -1.2072
 5666TIP3    H238490   3.870   5.442   1.854  0.9177  1.3903 -0.1446
 5667TIP3   OH238491   1.009   5.641  12.099  0.3799  0.0117 -0.0854
 5667TIP3    H138492   1.025   5.696  12.022  0.1144 -0.5368 -0.5382
 5667TIP3    H238493   0.973   5.701  12.163  1.2430  0.6120 -0.1495
 5668TIP3   OH238494   0.418   1.167   2.038 -0.0714 -0.6631  0.5482
 5668TIP3    H138495   0.379   1.244   1.997  0.1886 -1.0210 -0.4263
 5668TIP3    H238496   0.344   1.119   2.075 -0.7474 -1.7426 -1.9680
 5669TIP3   OH238497   5.987   5.291  15.089 -0.3394  0.1539  0.0442
 5669TIP3    H138498   5.988   5.304  15.184 -0.5327  0.8014 -0.0412
 5669TIP3    H238499   5.949   5.371  15.054 -4.8131 -1.8408 -0.3078
 5670TIP3   OH238500   4.813   1.288   3.692  0.2002 -0.1458  0.1313
 5670TIP3    H138501   4.759   1.367   3.698  1.3470  0.5427  2.5173
 5670TIP3    H238502   4.752   1.216   3.712 -0.6381  0.1880 -1.0908
 5671TIP3   OH238503   6.201   3.377   0.765 -0.2248  0.0846 -0.0247
 5671TIP3    H138504   6.203   3.471   0.781  0.4147 -0.2665  2.3384
 5671TIP3    H238505   6.292   3.349   0.771 -0.4745 -0.7727 -0.0368
 5672TIP3   OH238506   3.345   4.613  13.245  1.0265 -0.5500  0.1829
 5672TIP3    H138507   3.265   4.589  13.198  2.4313 -0.5808 -2.2973
 5672TIP3    H238508   3.416   4.573  13.195  2.8884  2.4192  0.2302
 5673TIP3   OH238509   4.679   3.021   3.419  0.0257 -0.3305 -0.6503
 5673TIP3    H138510   4.752   3.030   3.479 -0.0581  0.0215 -0.5932
 5673TIP3    H238511   4.633   3.105   3.425 -1.1152 -0.9971  0.2716
 5674TIP3   OH238512   2.077   2.730  16.041  0.0451  0.2414 -0.5007
 5674TIP3    H138513   2.052   2.701  16.129  0.5124  0.7756 -0.1874
 5674TIP3    H238514   2.035   2.667  15.982 -3.2215  1.8364 -0.1060
 5675TIP3   OH238515   1.212   0.338   0.799  0.0964  0.0242  0.0274
 5675TIP3    H138516   1.238   0.388   0.876 -0.7693  0.8734 -0.2100
 5675TIP3    H238517   1.196   0.404   0.731 -3.4600 -0.2551  0.3786
 5676TIP3   OH238518   4.754   5.893  12.679 -0.1100 -0.6143  0.4511
 5676TIP3    H138519   4.670   5.890  12.723 -0.3646 -0.8474 -0.0397
 5676TIP3    H238520   4.806   5.824  12.720 -0.5667 -1.2649 -0.0437
 5677TIP3   OH238521   5.966   3.278   3.778 -0.2391 -0.3630  0.1624
 5677TIP3    H138522   6.000   3.316   3.697  0.7493  1.3367  1.3134
 5677TIP3    H238523   6.039   3.228   3.814 -0.0416  0.4281  0.9014
 5678TIP3   OH238524   1.064   5.492   6.177 -0.0069 -0.9635  1.0422
 5678TIP3    H138525   1.149   5.521   6.210 -0.7633  2.0186  0.6775
 5678TIP3    H238526   1.005   5.502   6.252 -0.4552 -0.7465  0.6603
 5679TIP3   OH238527   2.528   3.227   4.918 -0.2597  0.1774 -0.3659
 5679TIP3    H138528   2.449   3.196   4.964  0.0879 -1.3906 -0.7534
 5679TIP3    H238529   2.574   3.147   4.893  0.5568  1.0298 -1.7305
 5680TIP3   OH238530   3.100   1.502   6.607 -0.2312  0.2207  0.1052
 5680TIP3    H138531   3.008   1.494   6.579 -0.5311  0.2173  1.0454
 5680TIP3    H238532   3.148   1.445   6.547 -1.1878 -1.9273  1.2715
 5681TIP3   OH238533   4.223   5.097   0.465  0.5574  0.4061  0.0228
 5681TIP3    H138534   4.267   5.017   0.495 -0.4382 -1.2838 -2.6612
 5681TIP3    H238535   4.294   5.155   0.438  1.2636 -0.3485  0.2149
 5682TIP3   OH238536   5.912   4.470  14.365 -0.2167  0.3415 -0.2005
 5682TIP3    H138537   5.840   4.443  14.422 -0.0553 -1.7751 -0.9098
 5682TIP3    H238538   5.991   4.456  14.419 -0.2529  1.5615  0.1838
 5683TIP3   OH238539   2.411   3.577   3.825 -0.3653 -0.5173  0.8296
 5683TIP3    H138540   2.330   3.550   3.868 -0.5933 -0.6569  0.3204
 5683TIP3    H238541   2.417   3.671   3.842 -2.1857  0.1382 -1.5887
 5684TIP3   OH238542   4.836   0.760   0.776  0.1371 -0.3739 -0.4388
 5684TIP3    H138543   4.786   0.711   0.842  2.2459 -0.3146  1.2965
 5684TIP3    H238544   4.856   0.844   0.818  1.8194 -0.4695 -0.9959
 5685TIP3   OH238545   6.508   0.869   0.195  0.2841 -0.1195 -0.5596
 5685TIP3    H138546   6.513   0.954   0.237 -0.6251 -0.5374  0.4491
 5685TIP3    H238547   6.499   0.888   0.101 -0.4589  0.8945 -0.2901
 5686TIP3   OH238548   0.961   4.874  13.759  0.2990  0.4358  0.5040
 5686TIP3    H138549   0.945   4.926  13.680 -1.3048 -0.6371  0.0736
 5686TIP3    H238550   0.882   4.822  13.770  1.6944 -1.6947  1.0939
 5687TIP3   OH238551   1.227   4.313   0.064 -0.1743 -0.2919  0.4990
 5687TIP3    H138552   1.281   4.243   0.100  1.7698  0.0722 -1.5133
 5687TIP3    H238553   1.164   4.268   0.008 -0.8544 -0.5903  1.4731
 5688TIP3   OH238554   3.361   2.458  11.463  0.2330  0.0527 -0.1763
 5688TIP3    H138555   3.370   2.374  11.419 -0.5550  0.2495 -0.7311
 5688TIP3    H238556   3.280   2.451  11.513  0.3260  0.3716  0.0215
 5689TIP3   OH238557   1.296   4.025  13.897  0.8012  0.7504  0.2843
 5689TIP3    H138558   1.289   4.097  13.961  1.0060  0.8289  0.2179
 5689TIP3    H238559   1.329   3.951  13.949  2.0594  1.1212  0.0469
 5690TIP3   OH238560   0.932   2.669  17.295 -0.8106  0.0496  0.2228
 5690TIP3    H138561   0.932   2.596  17.233  1.3434  0.2517 -0.0839
 5690TIP3    H238562   0.922   2.628  17.381 -1.3268 -0.4339 -0.0621
 5691TIP3   OH238563   6.718   1.265  14.301 -0.5748 -0.0562 -0.1087
 5691TIP3    H138564   6.769   1.345  14.305 -1.3333  0.3848  2.6776
 5691TIP3    H238565   6.683   1.263  14.212  1.1277  1.6040 -0.8759
 5692TIP3   OH238566   2.970   2.823  13.754  0.1847 -0.2695 -0.0562
 5692TIP3    H138567   2.940   2.914  13.759 -2.5301 -0.8977 -2.1302
 5692TIP3    H238568   2.914   2.775  13.815  1.0198 -0.6894  0.3978
 5693TIP3   OH238569   0.129   6.655   2.502 -0.5786 -0.5737 -0.2511
 5693TIP3    H138570   0.091   6.729   2.551  0.4873  0.0263 -0.3007
 5693TIP3    H238571   0.080   6.579   2.532  0.0719 -0.2440  1.8259
 5694TIP3   OH238572   6.709   0.616  13.530  0.0756  0.1627 -0.5126
 5694TIP3    H138573   6.686   0.620  13.437  1.6225  2.8521 -0.8672
 5694TIP3    H238574   6.759   0.695  13.546  3.0909 -1.9819  1.7711
 5695TIP3   OH238575   6.484   3.345   4.947  0.5636  0.0073 -0.1437
 5695TIP3    H138576   6.451   3.389   4.869  0.1639 -0.2509 -0.1254
 5695TIP3    H238577   6.501   3.415   5.010 -1.5831  0.0468  0.4621
 5696TIP3   OH238578   5.051   5.307   1.157  0.3891  0.2370 -0.5471
 5696TIP3    H138579   5.121   5.370   1.138  0.1145  0.2510 -1.5831
 5696TIP3    H238580   5.067   5.279   1.247  0.7031  1.5476 -0.1768
 5697TIP3   OH238581   1.206   5.550  12.460  0.2216  0.0828  0.1871
 5697TIP3    H138582   1.135   5.612  12.443 -1.1741 -0.4919  3.2022
 5697TIP3    H238583   1.172   5.466  12.428 -0.4996 -0.1819  1.5801
 5698TIP3   OH238584   5.198   5.763  12.680 -0.3676  0.3878 -0.7422
 5698TIP3    H138585   5.276   5.794  12.635  0.1423  1.9887  1.1231
 5698TIP3    H238586   5.171   5.836  12.736 -1.9943 -0.8624  0.2126
 5699TIP3   OH238587   1.281   4.791   3.594 -0.1249 -0.2422 -0.4415
 5699TIP3    H138588   1.364   4.753   3.567 -0.0085 -0.9242  0.8107
 5699TIP3    H238589   1.221   4.717   3.598  0.0009 -0.2810  1.6164
 5700TIP3   OH238590   4.605   2.056   6.408 -0.0141  0.1117  0.4226
 5700TIP3    H138591   4.511   2.072   6.400  0.0239  1.0302  1.5606
 5700TIP3    H238592   4.645   2.123   6.352 -0.0058  0.7116  1.1325
 5701TIP3   OH238593   6.029   0.824   0.442 -0.2470 -0.4655  0.2182
 5701TIP3    H138594   5.942   0.810   0.404  0.1846 -1.5445 -0.4257
 5701TIP3    H238595   6.089   0.781   0.381  0.8675  1.2408  0.0552
 5702TIP3   OH238596   5.520   6.042  12.946 -0.3605 -0.8746 -0.5185
 5702TIP3    H138597   5.517   6.123  12.895  1.0744 -0.5030 -0.0402
 5702TIP3    H238598   5.505   6.069  13.036  0.3783 -1.0959 -0.3212
 5703TIP3   OH238599   2.194   5.768  13.337 -0.0919 -0.2658  0.3878
 5703TIP3    H138600   2.121   5.766  13.276 -1.0747 -0.1703  1.5351
 5703TIP3    H238601   2.227   5.678  13.338  1.3484  0.1461 -1.8779
 5704TIP3   OH238602   2.490   2.817   5.713 -0.0546 -0.2862 -0.0986
 5704TIP3    H138603   2.513   2.731   5.747 -0.1438 -0.7994 -1.3001
 5704TIP3    H238604   2.409   2.840   5.760 -0.2705 -1.0500 -0.0824
 5705TIP3   OH238605   5.092   2.363   0.677 -0.5165 -0.0782 -0.0334
 5705TIP3    H138606   5.176   2.319   0.695 -0.2893  0.5577  0.5264
 5705TIP3    H238607   5.051   2.309   0.609 -0.1989 -1.0851  0.5473
 5706TIP3   OH238608   3.861   2.487  16.502 -0.3516 -0.0110 -0.1822
 5706TIP3    H138609   3.791   2.518  16.444 -1.0616  0.0747  0.6841
 5706TIP3    H238610   3.876   2.561  16.562  0.2070 -0.1774 -0.1161
 5707TIP3   OH238611   1.927   0.400  15.131 -0.3370 -0.0776 -0.0835
 5707TIP3    H138612   1.929   0.356  15.047  0.2701 -2.0688  0.9091
 5707TIP3    H238613   1.841   0.377  15.168  0.8062 -2.3863  1.3547
 5708TIP3   OH238614   0.695   1.573  14.817 -0.0858 -0.4669  0.4125
 5708TIP3    H138615   0.617   1.589  14.764 -0.7094 -0.4124  1.3285
 5708TIP3    H238616   0.672   1.604  14.905  0.5841 -1.4469  0.9523
 5709TIP3   OH238617   0.198   5.102  15.549  0.1340  0.0777  0.4267
 5709TIP3    H138618   0.186   5.009  15.530 -1.0658  0.1255  0.8403
 5709TIP3    H238619   0.225   5.104  15.641 -1.4120  0.1888  0.9074
 5710TIP3   OH238620   0.410   2.555   2.889  0.2147  0.3343  0.1783
 5710TIP3    H138621   0.485   2.524   2.837  0.1055 -1.1344  0.8466
 5710TIP3    H238622   0.334   2.541   2.832  0.4260  2.0418 -0.5909
 5711TIP3   OH238623   0.180   1.858   5.051 -0.2301 -0.0463  0.2813
 5711TIP3    H138624   0.155   1.915   5.124 -2.2405 -2.6102  1.7728
 5711TIP3    H238625   0.215   1.780   5.093  1.9004 -0.2389 -1.6673
 5712TIP3   OH238626   6.471   3.761   3.793 -0.0008  0.4380 -0.2306
 5712TIP3    H138627   6.443   3.853   3.800 -0.3437  0.4611 -1.6806
 5712TIP3    H238628   6.560   3.761   3.827 -0.5710  0.9752  1.3804
 5713TIP3   OH238629   0.022   2.090  15.413  0.4143 -0.7232 -0.1615
 5713TIP3    H138630  -0.001   2.133  15.496 -1.0054 -2.7776  0.5913
 5713TIP3    H238631   0.103   2.134  15.385 -0.9902  2.5179  0.3809
 5714TIP3   OH238632   2.235   5.757   0.380  0.2496  0.4775  0.1764
 5714TIP3    H138633   2.140   5.762   0.374  0.0896  3.0711  2.6156
 5714TIP3    H238634   2.252   5.681   0.436 -0.4664  0.6742  0.6661
 5715TIP3   OH238635   0.219   5.464  14.396  0.1328 -0.4399 -0.4449
 5715TIP3    H138636   0.269   5.545  14.397  0.6150 -0.7344  0.0939
 5715TIP3    H238637   0.173   5.465  14.312  0.2620  0.3069 -0.5134
 5716TIP3   OH238638   3.184   3.426  15.342 -0.7016  0.3554 -0.2608
 5716TIP3    H138639   3.258   3.406  15.285 -1.3054 -0.9677 -0.6267
 5716TIP3    H238640   3.173   3.348  15.396 -0.1581  1.5830  1.6893
 5717TIP3   OH238641   3.197   1.501  12.697  0.1587 -0.1369 -0.6376
 5717TIP3    H138642   3.149   1.436  12.645  0.1816 -0.6222 -0.0547
 5717TIP3    H238643   3.139   1.521  12.770  1.0591 -1.1413  0.3805
 5718TIP3   OH238644   2.226   2.059   1.078 -0.1297 -0.3657  0.6536
 5718TIP3    H138645   2.209   2.148   1.111  2.0434 -0.0402  1.0766
 5718TIP3    H238646   2.251   2.071   0.987 -0.8588 -0.6769  0.4059
 5719TIP3   OH238647   2.154   3.369   1.031 -0.1069 -0.0181  0.0047
 5719TIP3    H138648   2.209   3.443   1.007 -0.0123 -0.1120 -0.0696
 5719TIP3    H238649   2.072   3.383   0.984  0.0744 -0.1970 -0.3675
 5720TIP3   OH238650   6.006   2.374   1.261 -0.6777 -0.5466 -0.4603
 5720TIP3    H138651   5.982   2.380   1.168 -2.3248 -2.6354 -0.2353
 5720TIP3    H238652   5.927   2.402   1.308 -0.3496 -0.9121  0.3151
 5721TIP3   OH238653   3.524   4.254   4.021  0.3962  1.0765 -0.3641
 5721TIP3    H138654   3.608   4.243   4.063  0.3249  0.7052 -0.3125
 5721TIP3    H238655   3.542   4.243   3.927  0.0720 -1.2722 -0.2192
 5722TIP3   OH238656   5.003   2.550   2.983  0.0723  0.6946  0.2031
 5722TIP3    H138657   4.917   2.550   2.942  0.9638 -1.0710 -1.8977
 5722TIP3    H238658   5.049   2.476   2.943  1.7147 -0.0742  3.1483
 5723TIP3   OH238659   1.494   2.237  14.714  0.7940  0.9142 -0.1637
 5723TIP3    H138660   1.532   2.246  14.627  1.4292  0.5986  0.0736
 5723TIP3    H238661   1.410   2.282  14.708  1.3499  1.9506 -0.6142
 5724TIP3   OH238662   6.449   5.648   4.032 -0.3622 -0.1676 -1.0259
 5724TIP3    H138663   6.493   5.693   4.104 -0.8788 -1.0054 -0.1602
 5724TIP3    H238664   6.413   5.569   4.071 -0.9136 -0.5009 -2.1473
 5725TIP3   OH238665   6.411   2.947  11.978 -0.3103  0.0674 -0.3209
 5725TIP3    H138666   6.501   2.976  11.993  0.1296 -1.9418  1.5203
 5725TIP3    H238667   6.367   2.961  12.062 -0.6474 -2.2640 -0.0317
 5726TIP3   OH238668   3.241   1.315  13.983  0.1672 -0.6544  0.0357
 5726TIP3    H138669   3.190   1.396  13.970  0.5085 -0.3553  0.5087
 5726TIP3    H238670   3.331   1.345  13.995  0.3638 -1.1410 -0.2075
 5727TIP3   OH238671   3.186   5.425  11.260  0.3509  0.4886 -0.0377
 5727TIP3    H138672   3.207   5.365  11.188 -1.9808  2.4197 -2.5331
 5727TIP3    H238673   3.268   5.470  11.278  1.2324 -0.7593 -0.7578
 5728TIP3   OH238674   5.489   5.870  13.667  0.1304  0.1548  0.2691
 5728TIP3    H138675   5.440   5.843  13.745  1.6963 -1.7831  0.6616
 5728TIP3    H238676   5.431   5.933  13.624 -1.2362  0.5054  2.4230
 5729TIP3   OH238677   0.582   1.456   2.825 -0.4571  0.1338 -0.2768
 5729TIP3    H138678   0.664   1.412   2.845 -0.7402 -0.3514 -0.1641
 5729TIP3    H238679   0.515   1.406   2.873 -1.1695 -1.0771 -2.4122
 5730TIP3   OH238680   5.227   3.253  14.688  0.2082 -0.4765 -0.2127
 5730TIP3    H138681   5.303   3.214  14.646  0.4724 -0.0586 -0.1199
 5730TIP3    H238682   5.230   3.220  14.778  1.0084  0.5695  0.1539
 5731TIP3   OH238683   0.591   2.545   2.625 -0.1984 -0.6968 -0.3155
 5731TIP3    H138684   0.678   2.582   2.641 -0.2871 -0.7707  0.3871
 5731TIP3    H238685   0.607   2.467   2.572  0.3574 -1.7015  1.2610
 5732TIP3   OH238686   5.333   4.930  11.499  0.1164  0.6148  0.0555
 5732TIP3    H138687   5.401   4.982  11.456  1.8629 -1.5030  0.0751
 5732TIP3    H238688   5.335   4.846  11.453 -0.2182 -0.6017  2.1531
 5733TIP3   OH238689   4.147   0.039   3.456  0.0050  0.6983  0.4515
 5733TIP3    H138690   4.139   0.127   3.494 -0.0168  0.5095  0.8948
 5733TIP3    H238691   4.158   0.054   3.363  2.1153  1.2671  0.7434
 5734TIP3   OH238692   5.027   5.904  13.943 -0.8558 -0.0782 -0.1870
 5734TIP3    H138693   4.965   5.876  14.011 -1.4737 -0.5349 -0.9193
 5734TIP3    H238694   4.974   5.909  13.863 -0.3323  1.3130 -0.4726
 5735TIP3   OH238695   2.035   5.675  13.708 -0.4563  0.3095  0.1936
 5735TIP3    H138696   2.127   5.700  13.699 -1.2018  3.7087  0.5404
 5735TIP3    H238697   2.027   5.646  13.799  0.2801 -0.1635  0.1178
 5736TIP3   OH238698   5.623   2.946   1.349 -0.3394 -0.0318 -0.3941
 5736TIP3    H138699   5.601   2.961   1.257 -0.3285  0.6358 -0.2956
 5736TIP3    H238700   5.690   3.011   1.368  0.4220 -0.8651 -0.1987
 5737TIP3   OH238701   1.261   4.407   4.669  0.4959 -0.3666  0.0887
 5737TIP3    H138702   1.223   4.321   4.651 -1.5699 -0.2389  3.0784
 5737TIP3    H238703   1.186   4.465   4.680  1.6606  0.8601  2.2138
 5738TIP3   OH238704   6.010   6.353   5.666  0.2732 -0.5103  0.1874
 5738TIP3    H138705   6.024   6.432   5.719 -1.0064 -0.6684  0.8047
 5738TIP3    H238706   5.982   6.385   5.581  0.8818 -0.2801  0.0724
 5739TIP3   OH238707   5.550   2.309   3.996 -0.5084 -0.1830 -0.1607
 5739TIP3    H138708   5.605   2.266   3.931 -0.4621  1.0164 -0.9508
 5739TIP3    H238709   5.604   2.313   4.075  0.5329  0.8964 -0.8955
 5740TIP3   OH238710   5.278   3.673  11.855  0.2123  0.6979  0.2338
 5740TIP3    H138711   5.203   3.660  11.796  1.0277 -2.4254 -0.3150
 5740TIP3    H238712   5.246   3.647  11.941  0.0824  1.5951  0.4718
 5741TIP3   OH238713   6.371   6.076  14.101 -0.2563 -0.0206 -0.3608
 5741TIP3    H138714   6.445   6.055  14.044  1.1160  0.7479  1.0699
 5741TIP3    H238715   6.380   6.017  14.176 -0.7138  0.5124  0.1313
 5742TIP3   OH238716   0.579   3.785   1.373 -0.0511 -0.1254  0.1049
 5742TIP3    H138717   0.633   3.741   1.308  0.0002 -1.5973  1.0902
 5742TIP3    H238718   0.489   3.772   1.341  0.0804  1.4431 -1.0023
 5743TIP3   OH238719   0.792   3.404  11.157 -0.4841 -0.2451  0.7332
 5743TIP3    H138720   0.881   3.417  11.189  0.5945 -2.4458 -1.0643
 5743TIP3    H238721   0.776   3.310  11.167 -1.9132 -0.1890 -0.5797
 5744TIP3   OH238722   3.500   1.458  13.927 -0.1263 -0.0574 -0.1880
 5744TIP3    H138723   3.584   1.433  13.887 -0.5439  0.8699 -1.7205
 5744TIP3    H238724   3.504   1.553  13.934 -0.9979 -0.0173 -0.1462
 5745TIP3   OH238725   3.279   1.891   4.094 -0.0668 -0.1951 -0.0760
 5745TIP3    H138726   3.245   1.835   4.164  0.4914 -2.0486 -1.2012
 5745TIP3    H238727   3.294   1.830   4.021 -1.3417  1.7367 -2.0858
 5746TIP3   OH238728   4.721   2.292   1.105  0.1329 -0.4929 -0.0355
 5746TIP3    H138729   4.680   2.228   1.046 -1.7437  1.0665 -0.4962
 5746TIP3    H238730   4.791   2.330   1.052 -0.7738  0.0497 -0.8801
 5747TIP3   OH238731   6.234   4.639  16.404 -0.6190 -0.2634  0.4297
 5747TIP3    H138732   6.217   4.688  16.485  0.9732  0.4946  0.3587
 5747TIP3    H238733   6.303   4.577  16.428 -0.8446 -0.7251 -0.1071
 5748TIP3   OH238734   4.941   2.368   2.681  0.0060  0.4407 -0.6808
 5748TIP3    H138735   4.927   2.283   2.723  0.2541  1.3322  1.2667
 5748TIP3    H238736   4.887   2.429   2.730 -0.1277  1.4577 -2.0258
 5749TIP3   OH238737   2.934   1.158  15.579  0.3409  0.8873 -0.1350
 5749TIP3    H138738   2.931   1.062  15.577 -1.1555  0.9151 -0.8070
 5749TIP3    H238739   2.904   1.181  15.667 -0.2662  0.7389 -0.2958
 5750TIP3   OH238740   3.448   4.862  13.272 -0.4253 -0.5228 -0.4673
 5750TIP3    H138741   3.411   4.774  13.282  0.7458 -0.9154  0.7705
 5750TIP3    H238742   3.536   4.848  13.240  0.4116  0.0410  1.4194
 5751TIP3   OH238743   1.815   5.637  10.880  0.2489  0.4367 -0.1856
 5751TIP3    H138744   1.774   5.553  10.902  0.3103  0.6416  0.7510
 5751TIP3    H238745   1.900   5.613  10.843  0.3889  0.0923  0.3491
 5752TIP3   OH238746   5.966   0.390   3.897 -0.0036 -0.4026  0.0648
 5752TIP3    H138747   5.984   0.372   3.804 -0.4737  1.2485 -0.3758
 5752TIP3    H238748   5.875   0.365   3.910  0.4437 -1.9235  0.4557
 5753TIP3   OH238749   5.421   1.436  11.444  0.2610  0.1056  0.6570
 5753TIP3    H138750   5.441   1.382  11.367 -0.4959  1.5530 -0.6172
 5753TIP3    H238751   5.397   1.373  11.512 -0.8096 -1.1808 -0.8359
 5754TIP3   OH238752   1.701   4.572   3.380 -0.0858  0.2573  0.3959
 5754TIP3    H138753   1.789   4.563   3.342 -0.4867 -1.6407 -0.1957
 5754TIP3    H238754   1.701   4.511   3.454 -0.3127  1.6794  1.6203
 5755TIP3   OH238755   6.462   2.558  15.878  0.0318 -0.8194  0.0787
 5755TIP3    H138756   6.527   2.590  15.815 -1.1014  0.9873 -0.2478
 5755TIP3    H238757   6.469   2.618  15.952 -1.3811 -0.4533 -0.0517
 5756TIP3   OH238758   4.595   2.454   2.247 -0.0940  0.2036 -0.5571
 5756TIP3    H138759   4.676   2.504   2.242  1.5610 -2.3639 -1.8451
 5756TIP3    H238760   4.535   2.499   2.187  0.6424  1.6893 -0.2139
 5757TIP3   OH238761   5.543   5.032  15.056 -0.6946  0.4699 -0.0424
 5757TIP3    H138762   5.595   4.963  15.096 -0.8020  0.1923 -0.3736
 5757TIP3    H238763   5.606   5.096  15.025 -0.4208 -0.5419 -1.7332
 5758TIP3   OH238764   2.550   1.986   0.636 -0.0164 -0.0816  0.3149
 5758TIP3    H138765   2.531   1.970   0.544 -0.8455  2.2157  0.0204
 5758TIP3    H238766   2.625   1.930   0.656 -0.3725 -1.2689 -1.4908
 5759TIP3   OH238767   4.726   5.025  11.506 -0.4264  0.0485 -0.2802
 5759TIP3    H138768   4.640   4.990  11.480 -0.3221 -0.8745  0.5551
 5759TIP3    H238769   4.772   4.950  11.542  0.2664  0.8143  0.4613
 5760TIP3   OH238770   4.377   3.435  15.691 -0.1626 -0.0014  0.2999
 5760TIP3    H138771   4.471   3.420  15.695 -0.4018 -1.5901  1.0671
 5760TIP3    H238772   4.344   3.404  15.776 -1.6373 -1.8759 -0.8708
 5761TIP3   OH238773   4.216   0.031  16.708 -0.3978  0.7270 -0.0631
 5761TIP3    H138774   4.162  -0.023  16.767 -0.4879  0.6381 -0.2232
 5761TIP3    H238775   4.234  -0.027  16.633 -0.3175  0.8504 -0.1399
 5762TIP3   OH238776   4.523   6.176  12.660  0.2665  0.0029 -0.3583
 5762TIP3    H138777   4.438   6.171  12.704  0.1937 -1.5781 -0.6142
 5762TIP3    H238778   4.544   6.270  12.658 -0.4990  0.2464  1.5197
 5763TIP3   OH238779   3.108   3.805   6.924 -0.2052 -0.3666 -0.2848
 5763TIP3    H138780   3.151   3.880   6.883  0.4862  0.2409  1.4597
 5763TIP3    H238781   3.017   3.832   6.933  0.3758  1.1219  2.0289
 5764TIP3   OH238782   1.921   2.263  17.083 -0.2225  0.7190 -0.4325
 5764TIP3    H138783   2.014   2.247  17.102 -1.1107 -3.0555  1.6941
 5764TIP3    H238784   1.922   2.306  16.998  3.4985  3.0013  0.5084
 5765TIP3   OH238785   4.339   3.036  15.957  0.4664 -0.4818  0.4650
 5765TIP3    H138786   4.329   3.030  15.862  2.3533  1.9379  0.0069
 5765TIP3    H238787   4.289   2.962  15.991 -0.4425 -1.3138 -2.3794
 5766TIP3   OH238788   4.813   1.646  11.411 -0.7264 -0.7687  0.2811
 5766TIP3    H138789   4.741   1.679  11.465 -1.0255  0.5770 -0.8756
 5766TIP3    H238790   4.816   1.706  11.336  1.4496 -0.9282  0.1824
 5767TIP3   OH238791   0.352   6.234  11.704  0.7234  0.2242  0.3782
 5767TIP3    H138792   0.332   6.301  11.769 -0.2530  3.0883 -2.5527
 5767TIP3    H238793   0.267   6.214  11.664  1.3203 -1.2317 -0.2428
 5768TIP3   OH238794   2.220   2.581  16.977  0.5070 -0.5735 -0.2894
 5768TIP3    H138795   2.302   2.533  16.971  0.8485  0.1788 -2.0259
 5768TIP3    H238796   2.244   2.672  16.963 -0.7616 -0.4799 -2.0889
 5769TIP3   OH238797   5.502   0.005  16.875  0.2208 -0.4501  0.0804
 5769TIP3    H138798   5.500   0.056  16.956  1.1136 -0.0221 -0.1503
 5769TIP3    H238799   5.413   0.011  16.840 -0.2016 -0.7471  1.0904
 5770TIP3   OH238800   3.624   2.987  13.069 -0.3230  0.0347  0.5279
 5770TIP3    H138801   3.713   2.981  13.033  1.1571  0.8662  3.7169
 5770TIP3    H238802   3.608   2.901  13.107 -0.6770  0.0570  0.4315
 5771TIP3   OH238803   5.521   5.485   0.548  0.4033 -0.3331 -0.2374
 5771TIP3    H138804   5.505   5.517   0.459 -1.6333 -0.6659 -0.0463
 5771TIP3    H238805   5.607   5.444   0.543  1.8228  2.4876 -1.2157
 5772TIP3   OH238806   2.623   5.267   3.219 -0.0152 -0.0534  0.1023
 5772TIP3    H138807   2.627   5.195   3.283  1.2616 -1.0809 -1.0671
 5772TIP3    H238808   2.692   5.246   3.156 -0.5941  1.4539 -1.0761
 5773TIP3   OH238809   5.168   5.047  14.606  0.0711  0.2645  0.1028
 5773TIP3    H138810   5.203   5.098  14.679  1.8667 -0.0399 -0.5058
 5773TIP3    H238811   5.187   4.956  14.629  1.1606  0.1987 -0.9802
 5774TIP3   OH238812   3.455   0.986   0.765  0.1607  0.1907  0.5365
 5774TIP3    H138813   3.518   1.054   0.789 -0.3036  0.7866  0.1024
 5774TIP3    H238814   3.424   0.951   0.849 -0.2978  1.1718  0.7858
 5775TIP3   OH238815   0.474   4.800  12.997 -0.0003 -0.6744 -0.6109
 5775TIP3    H138816   0.477   4.737  12.925 -0.5364 -1.0388 -0.3201
 5775TIP3    H238817   0.453   4.883  12.955 -0.7535 -0.9679 -0.8344
 5776TIP3   OH238818   1.141   3.374   3.827  0.0130 -0.1807 -0.7916
 5776TIP3    H138819   1.150   3.383   3.732 -1.7187 -0.4350 -1.0076
 5776TIP3    H238820   1.196   3.444   3.862  1.5992 -0.7961 -1.9268
 5777TIP3   OH238821   3.635   1.291  14.880 -0.4407  1.2850 -0.3465
 5777TIP3    H138822   3.673   1.320  14.963 -1.0501  0.4214  0.2576
 5777TIP3    H238823   3.601   1.203  14.900 -0.1447  0.8612 -1.6443
 5778TIP3   OH238824   0.964   0.489  14.119 -0.2077 -0.0816  0.4132
 5778TIP3    H138825   1.037   0.529  14.167 -0.5022  0.9307  0.0346
 5778TIP3    H238826   0.997   0.479  14.030 -0.6377  0.7036  0.1568
 5779TIP3   OH238827   3.324   1.330   2.068 -0.0531 -0.1307 -0.2786
 5779TIP3    H138828   3.337   1.406   2.124  1.8421 -0.4167 -0.2613
 5779TIP3    H238829   3.337   1.364   1.979 -1.2976 -0.0392 -0.4473
 5780TIP3   OH238830   6.268   2.214  13.159  0.0872  0.6240 -0.7038
 5780TIP3    H138831   6.338   2.149  13.149 -2.3514 -2.4827  0.4691
 5780TIP3    H238832   6.243   2.207  13.252 -2.0707  1.1791 -1.1829
 5781TIP3   OH238833   6.790   2.014   2.871 -0.1910  0.6114 -0.0186
 5781TIP3    H138834   6.860   2.038   2.932  1.2489  0.0954 -1.4014
 5781TIP3    H238835   6.836   1.984   2.793 -1.9179 -2.7614  0.1084
 5782TIP3   OH238836   5.229   5.112  11.678  0.0325 -0.1792  0.1550
 5782TIP3    H138837   5.291   5.054  11.633 -0.0528  1.0115 -1.6133
 5782TIP3    H238838   5.171   5.054  11.726  0.3530 -1.5336 -1.0363
 5783TIP3   OH238839   2.637   3.831   6.080 -0.2588  0.0351 -0.3098
 5783TIP3    H138840   2.600   3.765   6.020 -0.4558  1.2921 -1.6301
 5783TIP3    H238841   2.601   3.914   6.049  0.1387  0.8006  1.2035
 5784TIP3   OH238842   3.625   3.643  15.606  0.3869 -0.0668 -0.3416
 5784TIP3    H138843   3.709   3.686  15.590  1.2479 -2.1603 -1.9435
 5784TIP3    H238844   3.628   3.619  15.699  1.8703 -0.6108 -0.4860
 5785TIP3   OH238845   2.658   5.944   6.093 -0.2030 -0.0512  0.1474
 5785TIP3    H138846   2.600   5.981   6.027  1.0228 -0.5066 -1.2439
 5785TIP3    H238847   2.700   6.020   6.134 -1.6594  0.2802  1.1272
 5786TIP3   OH238848   4.264   5.866   4.135  0.3517 -0.0779  0.1487
 5786TIP3    H138849   4.316   5.895   4.210  1.7862 -1.5458 -0.2161
 5786TIP3    H238850   4.236   5.947   4.093  0.8428  0.7665  1.3681
 5787TIP3   OH238851   6.266   0.308   6.622 -0.1454 -0.1682  0.1420
 5787TIP3    H138852   6.198   0.367   6.654 -0.1392  0.3069 -0.6917
 5787TIP3    H238853   6.219   0.226   6.604 -0.5235  0.1832 -0.5104
 5788TIP3   OH238854   0.811   2.050   5.472 -0.1883 -0.1079  0.5850
 5788TIP3    H138855   0.842   2.128   5.520 -0.1405  0.4171 -0.2857
 5788TIP3    H238856   0.746   2.084   5.411 -0.4465 -0.8175  0.4588
 5789TIP3   OH238857   3.946   2.018  13.265 -0.4700 -0.2199  0.3038
 5789TIP3    H138858   3.988   2.092  13.220 -1.5465  1.5224  2.0135
 5789TIP3    H238859   4.019   1.973  13.308 -0.0403  1.5769  1.5825
 5790TIP3   OH238860   5.452   4.081   0.393 -0.1311 -0.1711 -0.1019
 5790TIP3    H138861   5.358   4.065   0.396 -0.4260  1.2314 -0.8832
 5790TIP3    H238862   5.464   4.137   0.316  1.3522 -0.3810 -0.0451
 5791TIP3   OH238863   5.316   0.152   3.234 -0.3124 -0.1888 -0.2227
 5791TIP3    H138864   5.390   0.112   3.280  0.6406  1.1662 -0.4979
 5791TIP3    H238865   5.241   0.136   3.292  0.4363 -0.4861  0.7021
 5792TIP3   OH238866   3.385   3.130  15.722  0.7024  0.2502  0.3881
 5792TIP3    H138867   3.363   3.218  15.753 -0.6250  0.1064 -0.0572
 5792TIP3    H238868   3.470   3.111  15.760  1.2808  1.9616  0.0262
 5793TIP3   OH238869   1.230   6.167   6.097  0.0620  0.1504 -0.2061
 5793TIP3    H138870   1.217   6.248   6.147 -1.5614  0.8356 -1.6166
 5793TIP3    H238871   1.247   6.198   6.008  1.5030 -1.0540 -0.3775
 5794TIP3   OH238872   2.995   5.355   2.078 -0.5997  0.0509  0.2616
 5794TIP3    H138873   3.016   5.448   2.083 -2.4849  0.7296 -2.5705
 5794TIP3    H238874   2.899   5.352   2.077 -0.5819 -1.7097 -1.8671
 5795TIP3   OH238875   2.841   2.797   0.506 -0.2150  0.3464  0.3764
 5795TIP3    H138876   2.818   2.715   0.463  1.0386 -0.4123  1.0921
 5795TIP3    H238877   2.919   2.828   0.459 -0.7978  1.2584 -0.0279
 5796TIP3   OH238878   4.460   6.473  12.309  0.4996 -0.4561 -0.1693
 5796TIP3    H138879   4.525   6.446  12.244  0.7464  2.3448 -1.1909
 5796TIP3    H238880   4.377   6.439  12.274  0.5506  1.4081 -2.3044
 5797TIP3   OH238881   4.819   1.755   3.723 -0.5004  0.1018 -0.0460
 5797TIP3    H138882   4.817   1.810   3.645 -0.7110  1.8492  1.1539
 5797TIP3    H238883   4.824   1.665   3.689 -0.5692  0.8210 -2.0472
 5798TIP3   OH238884   2.732   2.075   4.379 -0.0462 -0.5938  0.5538
 5798TIP3    H138885   2.708   2.002   4.321  0.9232 -1.0401  0.6930
 5798TIP3    H238886   2.652   2.092   4.430 -0.6125 -0.8344 -0.2253
 5799TIP3   OH238887   0.595   1.283   3.513  0.5511 -0.5573 -0.4731
 5799TIP3    H138888   0.590   1.188   3.526  1.2718 -0.6746 -1.0157
 5799TIP3    H238889   0.504   1.312   3.516  0.2477 -1.3884 -1.1935
 5800TIP3   OH238890   4.280   4.026   3.482 -0.3318 -0.3827 -0.0806
 5800TIP3    H138891   4.197   4.067   3.506  1.2544  1.9147  2.0557
 5800TIP3    H238892   4.338   4.099   3.460  1.2405 -1.8645 -1.1818
 5801TIP3   OH238893   4.134   2.685  13.890  0.2139 -0.1413 -0.2616
 5801TIP3    H138894   4.151   2.758  13.830  0.4268 -0.9262 -1.1871
 5801TIP3    H238895   4.208   2.627  13.877 -0.9386 -1.4887 -1.0478
 5802TIP3   OH238896   0.195   2.492  15.130  0.1018  0.1328  0.1398
 5802TIP3    H138897   0.245   2.415  15.103  3.7390  1.3589  2.6761
 5802TIP3    H238898   0.150   2.464  15.210 -0.7307 -0.0394 -0.3732
 5803TIP3   OH238899   2.781   2.618  15.528 -0.2409  0.6452 -0.0414
 5803TIP3    H138900   2.810   2.632  15.617  1.2543  0.0878 -0.4108
 5803TIP3    H238901   2.861   2.621  15.475 -1.0449  0.6194 -1.3157
 5804TIP3   OH238902   5.383   5.296   3.111 -0.1254  0.1032 -0.2492
 5804TIP3    H138903   5.391   5.344   3.028  1.1153  0.4176  0.0307
 5804TIP3    H238904   5.408   5.359   3.178  2.1461 -1.0611  0.0789
 5805TIP3   OH238905   3.010   0.685   4.508 -0.3352  0.2419 -0.0232
 5805TIP3    H138906   2.921   0.651   4.501 -0.7877  1.4832 -0.6822
 5805TIP3    H238907   3.062   0.629   4.451 -0.9634  0.3449 -0.7124
 5806TIP3   OH238908   2.456   4.811   3.416 -0.0831 -0.0635 -0.7113
 5806TIP3    H138909   2.497   4.726   3.399  1.3224  0.3928  0.1552
 5806TIP3    H238910   2.444   4.813   3.511 -1.7553  0.0134 -0.8935
 5807TIP3   OH238911   2.637   5.592  14.283  0.7608  0.4360  0.5026
 5807TIP3    H138912   2.607   5.632  14.364  0.0064 -0.7893  0.8495
 5807TIP3    H238913   2.629   5.662  14.217 -2.0836  0.4457  0.7369
 5808TIP3   OH238914   3.925   1.493   5.018  0.0217 -0.2158 -0.0362
 5808TIP3    H138915   3.899   1.535   5.100 -0.9562 -1.1880  0.1647
 5808TIP3    H238916   3.865   1.528   4.952  0.3493  0.0269 -0.2108
 5809TIP3   OH238917   2.867   5.854  11.866  0.0758 -0.0774 -0.0986
 5809TIP3    H138918   2.812   5.920  11.907 -0.9233 -0.2702 -1.0724
 5809TIP3    H238919   2.893   5.892  11.782  2.2880  0.4123  0.7355
 5810TIP3   OH238920   4.021   3.873   5.534  0.1436  0.8316  0.4599
 5810TIP3    H138921   4.027   3.810   5.606  0.7178 -0.3198 -0.5654
 5810TIP3    H238922   4.022   3.819   5.455  0.3265  2.1197 -0.4381
 5811TIP3   OH238923   2.515   0.285  16.886 -0.2306  0.3043  0.3019
 5811TIP3    H138924   2.592   0.333  16.917 -0.1118 -0.3645  1.0754
 5811TIP3    H238925   2.536   0.193  16.904 -0.6143 -0.0120 -0.8111
 5812TIP3   OH238926   6.781   6.512   0.342 -0.5677 -0.4905  0.7781
 5812TIP3    H138927   6.869   6.488   0.370  0.5439 -0.2103 -2.1672
 5812TIP3    H238928   6.758   6.449   0.274 -1.4977  0.9973 -0.3712
 5813TIP3   OH238929   1.572   4.485  16.660 -0.6893  0.4234  0.2835
 5813TIP3    H138930   1.662   4.517  16.669 -0.0994 -1.0823  0.1058
 5813TIP3    H238931   1.559   4.430  16.737 -0.3469 -1.8133 -1.1808
 5814TIP3   OH238932   6.066   2.039  12.647 -0.5176  0.5332  0.6352
 5814TIP3    H138933   6.050   2.075  12.559  1.2180 -2.1130 -0.9004
 5814TIP3    H238934   6.146   2.082  12.677 -1.9679  2.6264  1.7154
 5815TIP3   OH238935   6.515   0.730  12.049 -0.0403 -0.2725 -0.4582
 5815TIP3    H138936   6.607   0.757  12.046 -0.5311  1.4858 -0.8338
 5815TIP3    H238937   6.491   0.716  11.957 -0.9745  2.4750 -0.7265
 5816TIP3   OH238938   4.917   3.516  11.133  0.0934 -0.0638 -0.3732
 5816TIP3    H138939   4.860   3.541  11.060 -0.6981 -0.5297  0.0636
 5816TIP3    H238940   4.983   3.585  11.137 -0.5631  0.6017 -0.7676
 5817TIP3   OH238941   2.271   0.859  15.983 -0.2760  0.5502  0.3688
 5817TIP3    H138942   2.199   0.814  16.028  1.3566 -0.7889  1.7712
 5817TIP3    H238943   2.346   0.847  16.040  1.3818  0.7882 -1.6546
 5818TIP3   OH238944   3.144   3.130   6.021 -0.2196 -0.1331  0.6130
 5818TIP3    H138945   3.097   3.064   6.072 -0.3701  0.1910  0.9015
 5818TIP3    H238946   3.126   3.212   6.067  0.4782  0.0215  0.6188
 5819TIP3   OH238947   1.478   0.094  14.134  0.5472 -0.3876  0.2800
 5819TIP3    H138948   1.386   0.110  14.155  0.1003 -0.6894 -1.3441
 5819TIP3    H238949   1.521   0.087  14.220 -1.1002 -1.2655  1.0755
 5820TIP3   OH238950   0.567   4.689  11.523  0.0564  0.2684 -0.2242
 5820TIP3    H138951   0.624   4.696  11.446  1.9119  0.3825  1.0892
 5820TIP3    H238952   0.627   4.693  11.597 -1.6995  0.3727  1.2531
 5821TIP3   OH238953   5.329   5.759  12.418 -0.0652  0.3215 -0.3516
 5821TIP3    H138954   5.336   5.669  12.386  0.1074  0.7917 -1.7235
 5821TIP3    H238955   5.417   5.781  12.449  0.0239  0.1823 -0.5039
 5822TIP3   OH238956   6.332   1.204   4.370  0.2610  0.1093 -0.0734
 5822TIP3    H138957   6.349   1.201   4.276  0.2276  0.5652 -0.0947
 5822TIP3    H238958   6.363   1.119   4.403 -0.8915 -0.5833 -0.6895
 5823TIP3   OH238959   3.674   2.846  16.613  0.4522  0.1796 -0.2888
 5823TIP3    H138960   3.605   2.798  16.659 -0.5512  1.0735 -0.8121
 5823TIP3    H238961   3.643   2.852  16.522  1.0686  0.8679 -0.4672
 5824TIP3   OH238962   2.480   6.310   5.292  0.3519 -0.2648 -0.1327
 5824TIP3    H138963   2.435   6.386   5.329  0.8903 -0.5856  1.2560
 5824TIP3    H238964   2.459   6.313   5.199 -3.1027 -0.7740  0.4887
 5825TIP3   OH238965   6.796   5.386   0.252  0.0729 -0.4124  0.4717
 5825TIP3    H138966   6.750   5.455   0.204 -0.7498 -0.5015  1.1013
 5825TIP3    H238967   6.822   5.324   0.185  0.5045  0.3260 -0.0642
 5826TIP3   OH238968   3.305   3.602  13.791  0.5105 -0.5414 -0.2559
 5826TIP3    H138969   3.264   3.619  13.876 -2.3840 -0.7571 -1.4784
 5826TIP3    H238970   3.233   3.571  13.736  2.5036 -1.4995 -2.4981
 5827TIP3   OH238971   1.072   5.475  16.104 -0.6017  0.1641 -0.3643
 5827TIP3    H138972   1.105   5.544  16.162  0.7093 -0.8871  0.1807
 5827TIP3    H238973   1.023   5.417  16.162 -0.7176  0.0021 -0.6225
 5828TIP3   OH238974   5.844   0.104  15.404 -0.1905  0.3720 -1.0267
 5828TIP3    H138975   5.858   0.154  15.323  1.1330 -0.5121 -1.3778
 5828TIP3    H238976   5.921   0.124  15.457 -0.3575 -0.1684 -0.5770
 5829TIP3   OH238977   4.381   3.841  14.927 -0.1256 -0.0917 -0.3116
 5829TIP3    H138978   4.383   3.746  14.917 -1.0869 -0.2706  1.0320
 5829TIP3    H238979   4.297   3.868  14.891 -0.7677 -0.0095  1.1901
 5830TIP3   OH238980   1.235   2.121  14.374 -0.0003  0.4555  0.3245
 5830TIP3    H138981   1.311   2.064  14.367 -0.1184  0.3116  0.2228
 5830TIP3    H238982   1.195   2.098  14.458  0.9582  1.6230  1.1430
 5831TIP3   OH238983   3.961   3.729   5.295  0.2362 -0.1113 -0.2645
 5831TIP3    H138984   4.054   3.729   5.273  0.3349 -0.1810  0.1400
 5831TIP3    H238985   3.920   3.675   5.228  0.3858  0.5110 -0.8657
 5832TIP3   OH238986   4.802   2.812   4.292  1.3086  1.0039 -0.4494
 5832TIP3    H138987   4.850   2.809   4.375  0.5776  0.0195 -0.0369
 5832TIP3    H238988   4.856   2.761   4.231  0.2072 -1.2709  0.3681
 5833TIP3   OH238989   6.220   3.234   3.131 -0.5912 -0.0284 -0.3551
 5833TIP3    H138990   6.190   3.259   3.219 -2.4064  1.9961 -1.4513
 5833TIP3    H238991   6.150   3.180   3.096  1.1243 -2.8039  0.1372
 5834TIP3   OH238992   2.262   5.447  13.790  0.2049  0.0250 -0.1436
 5834TIP3    H138993   2.344   5.480  13.754 -0.6312  0.8755 -1.3687
 5834TIP3    H238994   2.215   5.411  13.714 -0.9664  0.4587  0.3431
 5835TIP3   OH238995   3.764   6.005  16.883  0.1836 -0.0571  0.2986
 5835TIP3    H138996   3.706   6.009  16.807 -0.8010 -1.1018  0.9695
 5835TIP3    H238997   3.722   6.060  16.949  1.2824  1.2389 -0.0407
 5836TIP3   OH238998   2.911   5.489  12.822 -0.3683  0.8683  0.0529
 5836TIP3    H138999   3.000   5.481  12.857 -0.6294  2.2623  1.1375
 5836TIP3    H239000   2.866   5.409  12.851  0.1151  0.8599  0.8028
 5837TIP3   OH239001   2.531   5.667   6.128  0.4098 -0.1237 -0.1341
 5837TIP3    H139002   2.623   5.647   6.116 -0.0655 -2.3996 -0.2897
 5837TIP3    H239003   2.521   5.756   6.093  2.1846 -0.5248 -1.7870
 5838TIP3   OH239004   1.050   5.694  16.273  0.2993 -0.3026 -0.3312
 5838TIP3    H139005   0.976   5.754  16.266  0.4424 -0.2718 -1.8784
 5838TIP3    H239006   1.067   5.687  16.367  0.3359  2.1659 -0.1016
 5839TIP3   OH239007   4.090   1.980  17.265  0.5377 -0.2423 -0.0018
 5839TIP3    H139008   4.013   1.996  17.319  0.1559  1.3481 -0.9343
 5839TIP3    H239009   4.098   1.885  17.262 -0.6121 -0.4090  1.1675
 5840TIP3   OH239010   4.490   4.942  15.304 -0.0922 -0.1775 -0.2530
 5840TIP3    H139011   4.539   5.008  15.255 -1.0381  0.1417 -0.7845
 5840TIP3    H239012   4.506   4.860  15.257  2.2117 -0.6399  1.1905
 5841TIP3   OH239013   5.191   0.227  15.126 -0.2031 -0.0040 -0.2056
 5841TIP3    H139014   5.184   0.319  15.099 -1.1342  0.1040  0.3627
 5841TIP3    H239015   5.133   0.181  15.065 -1.4644  0.0975  0.8723
 5842TIP3   OH239016   3.595   0.086  16.954  0.1352  0.3531  0.5591
 5842TIP3    H139017   3.579   0.051  16.867  0.4421 -0.3777  0.7880
 5842TIP3    H239018   3.678   0.132  16.947  0.4498 -0.1932  0.5921
 5843TIP3   OH239019   0.085   0.170   0.001 -0.5512  0.2762  0.6397
 5843TIP3    H139020   0.066   0.190   0.093  0.8780  0.1202  0.9797
 5843TIP3    H239021   0.150   0.235  -0.025 -0.1414 -0.3530  0.0515
 5844TIP3   OH239022   6.080   5.156  11.799  0.6421  0.4334  0.9919
 5844TIP3    H139023   6.109   5.095  11.732  0.3008  0.5467  0.7357
 5844TIP3    H239024   6.155   5.214  11.814  0.1261  1.5845 -0.6362
 5845TIP3   OH239025   3.260   5.883   5.124 -0.2774  0.6600  0.1520
 5845TIP3    H139026   3.268   5.840   5.039 -1.5028 -1.3094  0.9619
 5845TIP3    H239027   3.180   5.935   5.117 -0.7196  0.0157  0.2506
 5846TIP3   OH239028   6.112   0.200   0.812  0.0091 -0.5933  0.0657
 5846TIP3    H139029   6.080   0.110   0.816 -0.3892 -0.4310  0.6612
 5846TIP3    H239030   6.052   0.250   0.867  0.1138  0.0751 -0.4041
 5847TIP3   OH239031   2.094   4.878  16.020 -0.5128  0.2633 -0.5641
 5847TIP3    H139032   2.000   4.864  16.026 -0.3712 -0.9698 -0.9338
 5847TIP3    H239033   2.128   4.856  16.107 -0.3785 -1.1033 -0.9344
 5848TIP3   OH239034   2.510   3.351  14.096  0.3899 -0.2945  0.5765
 5848TIP3    H139035   2.555   3.409  14.034  1.5198 -0.7260  0.9538
 5848TIP3    H239036   2.513   3.398  14.179 -0.1272 -0.1969  0.5389
 5849TIP3   OH239037   3.999   4.921  16.140  0.1966  0.5930 -0.1976
 5849TIP3    H139038   3.969   4.982  16.073  0.0662 -0.0190 -0.7056
 5849TIP3    H239039   4.053   4.975  16.199 -0.4377  1.3229 -0.2704
 5850TIP3   OH239040   6.603   0.459   1.009  0.9821  0.1943  0.5353
 5850TIP3    H139041   6.532   0.409   0.968  0.9326  1.0411 -0.4615
 5850TIP3    H239042   6.562   0.542   1.034  1.4246  0.3599  0.7120
 5851TIP3   OH239043   5.193   3.625   3.815 -0.2542  0.4466  0.5380
 5851TIP3    H139044   5.159   3.562   3.753 -1.3128  1.7295 -0.2349
 5851TIP3    H239045   5.150   3.603   3.898  0.5426 -0.7516  0.6636
 5852TIP3   OH239046   1.535   4.338  12.401  0.2810 -0.1613 -0.3274
 5852TIP3    H139047   1.517   4.406  12.336  0.1807 -0.0704 -0.2044
 5852TIP3    H239048   1.537   4.256  12.351  2.6219  0.1419 -0.8758
 5853TIP3   OH239049   0.826   3.053   4.425  0.0294 -0.1982  0.0008
 5853TIP3    H139050   0.774   3.133   4.435  1.5725  0.8206  0.1348
 5853TIP3    H239051   0.841   3.045   4.331  0.9748  0.4174  0.0877
 5854TIP3   OH239052   6.547   4.391  16.746 -0.0587 -0.3432  0.2668
 5854TIP3    H139053   6.503   4.391  16.831  0.1678 -0.4641  0.3860
 5854TIP3    H239054   6.630   4.346  16.762 -0.0958 -0.5246 -0.0611
 5855TIP3   OH239055   3.949   3.325  14.542 -0.0694  0.1845  0.4936
 5855TIP3    H139056   3.872   3.377  14.564 -0.4384 -0.8236  1.6908
 5855TIP3    H239057   3.995   3.312  14.625  0.5319 -0.5687  0.0662
 5856TIP3   OH239058   6.114   4.378  12.929 -0.3794  0.4155  0.6422
 5856TIP3    H139059   6.194   4.430  12.929  0.0026 -0.1463  1.2935
 5856TIP3    H239060   6.144   4.288  12.944 -0.8901 -0.2197 -1.6975
 5857TIP3   OH239061   5.288   0.386  12.529 -0.0704  0.5118  0.5351
 5857TIP3    H139062   5.304   0.476  12.557  0.4908  1.4248 -2.3751
 5857TIP3    H239063   5.194   0.382  12.511 -0.3286  0.0926  1.8736
 5858TIP3   OH239064   2.762   3.316   0.525  0.8231  0.0306  0.0614
 5858TIP3    H139065   2.707   3.377   0.476  0.1435  0.5045  1.3719
 5858TIP3    H239066   2.788   3.251   0.460 -1.5308 -0.3872 -0.5495
 5859TIP3   OH239067   1.674   4.159  14.039  0.1927 -0.2486  0.0741
 5859TIP3    H139068   1.629   4.077  14.023 -1.1518  0.4002  0.4067
 5859TIP3    H239069   1.614   4.209  14.095  0.5453  1.3443 -0.9213
 5860TIP3   OH239070   4.283   2.823  16.363  0.3238 -0.1465  0.8857
 5860TIP3    H139071   4.370   2.785  16.349  0.9529  1.5239 -0.0527
 5860TIP3    H239072   4.300   2.907  16.405 -0.8345  0.2830  0.5424
 5861TIP3   OH239073   1.217   2.825  16.493 -0.0298 -0.5202 -0.4221
 5861TIP3    H139074   1.159   2.754  16.464 -1.1852  0.0964  0.2698
 5861TIP3    H239075   1.177   2.904  16.458  1.0510 -0.1642 -0.8887
 5862TIP3   OH239076   5.434   4.861   5.482  0.5052  0.2605 -0.1051
 5862TIP3    H139077   5.500   4.862   5.413  0.3296  2.0544 -0.2953
 5862TIP3    H239078   5.449   4.779   5.529  0.6772 -0.9769 -2.2077
 5863TIP3   OH239079   4.717   6.362   3.561 -0.6983 -0.3070 -0.5661
 5863TIP3    H139080   4.788   6.299   3.576 -1.2481 -0.7279  0.3609
 5863TIP3    H239081   4.714   6.413   3.642  0.2855  1.4889 -1.6077
 5864TIP3   OH239082   2.426   0.669   4.694  0.0288 -0.3992 -0.1399
 5864TIP3    H139083   2.449   0.754   4.731 -2.8243  0.5784 -0.3612
 5864TIP3    H239084   2.410   0.687   4.601  1.6818 -1.7272 -0.7569
 5865TIP3   OH239085   3.421   0.512  11.754 -0.2842 -0.0402 -0.2153
 5865TIP3    H139086   3.437   0.516  11.848 -1.9396 -0.9297  0.1264
 5865TIP3    H239087   3.457   0.428  11.726 -0.4359 -0.0976 -0.2410
 5866TIP3   OH239088   4.078   1.574   3.588 -0.1531  0.6932  0.2982
 5866TIP3    H139089   4.065   1.630   3.512 -2.2499 -0.2889 -0.1491
 5866TIP3    H239090   4.129   1.500   3.555  0.9816  1.3781  0.4512
 5867TIP3   OH239091   4.790   5.219  17.052  0.4636  0.1612 -0.2024
 5867TIP3    H139092   4.703   5.192  17.024  0.5770  0.4391 -0.8642
 5867TIP3    H239093   4.831   5.253  16.972  1.3856 -0.5075 -0.0321
 5868TIP3   OH239094   2.342   3.613  15.265  0.3879  0.1027 -0.2600
 5868TIP3    H139095   2.346   3.644  15.355  2.4597 -0.7862  0.0060
 5868TIP3    H239096   2.254   3.577  15.256  0.3883 -0.4760  1.6378
 5869TIP3   OH239097   0.909   0.514   4.531 -0.0098 -0.7572  1.1375
 5869TIP3    H139098   0.981   0.565   4.570  0.6009 -1.1441  0.5520
 5869TIP3    H239099   0.830   0.554   4.567  0.1934  3.0721 -1.9198
 5870TIP3   OH239100   4.553   4.654   5.084 -0.5406 -0.1286 -0.2157
 5870TIP3    H139101   4.464   4.681   5.059  0.1561  1.8718 -0.7216
 5870TIP3    H239102   4.603   4.736   5.088  1.5188 -1.2799 -0.8451
 5871TIP3   OH239103   2.673   2.701   4.734  0.4969 -0.0058  0.4346
 5871TIP3    H139104   2.601   2.693   4.672  0.6571  1.9369 -0.0728
 5871TIP3    H239105   2.661   2.628   4.795 -1.1995 -0.3982 -0.3193
 5872TIP3   OH239106   3.126   1.286   2.343  0.4970  0.0293  0.1921
 5872TIP3    H139107   3.216   1.306   2.317  1.0317  0.1522  2.0032
 5872TIP3    H239108   3.128   1.193   2.368  0.0235 -0.0799 -0.1650
 5873TIP3   OH239109   5.308   5.000   2.723  0.1156  0.5323  0.0645
 5873TIP3    H139110   5.344   5.068   2.665  1.1515 -1.1382 -1.3663
 5873TIP3    H239111   5.348   4.919   2.692  0.3922 -0.5306  2.9106
 5874TIP3   OH239112   3.295   2.821   2.332  0.1535  0.5278  0.8129
 5874TIP3    H139113   3.270   2.908   2.360  1.2431  0.3360  2.5217
 5874TIP3    H239114   3.383   2.832   2.295  0.3045  0.1678  1.0556
 5875TIP3   OH239115   4.350   3.364  13.052  0.0854 -0.3195  0.1073
 5875TIP3    H139116   4.387   3.439  13.006 -2.8304  0.3938 -1.2858
 5875TIP3    H239117   4.415   3.294  13.039  2.0015  1.3872 -0.1388
 5876TIP3   OH239118   0.915   3.814  13.613 -0.2504 -0.1597  0.4612
 5876TIP3    H139119   1.004   3.850  13.611  0.2728 -1.2927  1.7166
 5876TIP3    H239120   0.919   3.738  13.555 -1.1558  1.2604 -1.5949
 5877TIP3   OH239121   3.622   2.636   3.960  0.1797 -0.2682  0.2199
 5877TIP3    H139122   3.570   2.705   3.919  1.3293 -0.1650 -1.1725
 5877TIP3    H239123   3.558   2.569   3.985 -0.6848  0.0888 -0.9410
 5878TIP3   OH239124   2.175   0.269  16.228  0.1547  0.5397  0.1948
 5878TIP3    H139125   2.155   0.235  16.140  0.7005  0.8052 -0.0322
 5878TIP3    H239126   2.199   0.191  16.278  0.9156  0.5208 -0.1890
 5879TIP3   OH239127   4.733   3.562  12.192 -0.0799 -0.1746  0.3099
 5879TIP3    H139128   4.664   3.566  12.258 -0.3693  3.1833 -0.0247
 5879TIP3    H239129   4.687   3.549  12.109 -0.0831 -0.1731  0.3116
 5880TIP3   OH239130   6.756   5.443   4.867 -0.1954 -0.4226  0.3697
 5880TIP3    H139131   6.758   5.509   4.798 -2.7070 -0.0615  0.5408
 5880TIP3    H239132   6.727   5.363   4.823 -3.4714  0.1983  1.1442
 5881TIP3   OH239133   3.205   6.622   3.330 -0.4101 -0.4775 -0.8978
 5881TIP3    H139134   3.294   6.614   3.295 -0.3912 -0.6550 -0.8118
 5881TIP3    H239135   3.210   6.581   3.416 -0.5315 -0.3230 -0.8161
 5882TIP3   OH239136   4.587   3.693  12.979  0.2746 -0.4321  0.3784
 5882TIP3    H139137   4.676   3.671  13.008 -0.6345 -3.0443  1.4717
 5882TIP3    H239138   4.548   3.739  13.054  0.1487 -0.8856  0.5932
 5883TIP3   OH239139   1.558   2.463  11.512  0.1146 -0.0847  0.1580
 5883TIP3    H139140   1.547   2.381  11.465 -0.3850 -0.7919  1.4697
 5883TIP3    H239141   1.491   2.521  11.476  1.6139  0.4126 -2.0536
 5884TIP3   OH239142   5.621   1.775   3.880  0.3622 -0.4017  0.3920
 5884TIP3    H139143   5.678   1.774   3.803  0.9986 -0.2174  0.8483
 5884TIP3    H239144   5.536   1.743   3.848  0.5549 -0.1182 -0.4286
 5885TIP3   OH239145   5.367   2.050  16.102  0.1979 -0.1355 -0.3396
 5885TIP3    H139146   5.276   2.054  16.071  0.4196  0.3977 -0.9509
 5885TIP3    H239147   5.383   2.136  16.140  0.0435 -0.6712  0.9663
 5886TIP3   OH239148   6.664   5.303   0.970  0.2453  0.5017  0.0783
 5886TIP3    H139149   6.632   5.392   0.954  0.0452  0.1375 -1.8279
 5886TIP3    H239150   6.739   5.294   0.911  1.4972  0.0162  1.6535
 5887TIP3   OH239151   0.721   0.598   0.532 -0.3267  0.7051 -0.5396
 5887TIP3    H139152   0.785   0.619   0.599  1.1748 -2.0659 -0.9502
 5887TIP3    H239153   0.772   0.556   0.463 -2.5316 -1.8494 -0.7814
 5888TIP3   OH239154   0.745   1.244  16.892 -0.0219  0.4670 -0.7491
 5888TIP3    H139155   0.725   1.169  16.836 -2.6707  0.9283 -0.5709
 5888TIP3    H239156   0.740   1.209  16.981 -0.6277  0.6979 -0.6864
 5889TIP3   OH239157   1.835   3.498   0.017  0.3717 -0.2961 -0.6705
 5889TIP3    H139158   1.747   3.536   0.015  1.3393  2.5254  1.8778
 5889TIP3    H239159   1.821   3.405   0.037 -2.0480  0.5541  2.2514
 5890TIP3   OH239160   3.583   4.027  17.093  0.9026 -0.3521 -0.2568
 5890TIP3    H139161   3.568   3.944  17.138 -0.5103 -0.4481 -0.8490
 5890TIP3    H239162   3.618   4.085  17.160  0.9029 -1.1139  0.4133
 5891TIP3   OH239163   6.549   4.796  12.420 -0.3630 -0.0227  0.5680
 5891TIP3    H139164   6.471   4.850  12.409 -0.1707 -0.1326 -1.8808
 5891TIP3    H239165   6.610   4.851  12.469 -0.0672  2.1900 -2.0906
 5892TIP3   OH239166   1.572   6.743   1.658 -0.3909  0.1322  0.5115
 5892TIP3    H139167   1.632   6.682   1.703 -0.3865  0.6142  1.1842
 5892TIP3    H239168   1.611   6.756   1.572 -0.2136 -0.5548  0.4832
 5893TIP3   OH239169   4.721   3.840   1.530 -0.2800 -0.1654 -0.1274
 5893TIP3    H139170   4.813   3.819   1.547 -0.5940 -1.3546  0.2037
 5893TIP3    H239171   4.695   3.780   1.460 -0.0746  2.0529 -2.2477
 5894TIP3   OH239172   4.523   4.035  14.285 -0.3108  0.2894 -0.1186
 5894TIP3    H139173   4.591   3.979  14.323 -0.2956 -0.0560 -0.6416
 5894TIP3    H239174   4.569   4.114  14.257  0.1963 -0.5878 -1.9266
 5895TIP3   OH239175   5.187   3.848   5.669 -0.0939 -0.4513  0.3576
 5895TIP3    H139176   5.201   3.909   5.741 -0.5296  1.0978 -0.8228
 5895TIP3    H239177   5.093   3.829   5.671 -0.9413  2.6252 -2.0025
 5896TIP3   OH239178   2.554   0.886  13.298 -0.1748 -0.4343 -0.2585
 5896TIP3    H139179   2.477   0.903  13.243  0.6109  1.0447 -0.9721
 5896TIP3    H239180   2.525   0.907  13.387 -0.1387  1.8863 -0.7328
 5897TIP3   OH239181   0.715   5.946  14.502  0.2231  0.1742 -0.1881
 5897TIP3    H139182   0.733   5.942  14.408  0.0409  3.4826 -0.4987
 5897TIP3    H239183   0.779   6.009  14.536  0.1053 -0.7261  1.8837
 5898TIP3   OH239184   5.657   0.722   3.202 -0.0396 -0.5683 -0.0768
 5898TIP3    H139185   5.640   0.725   3.296 -2.3842 -2.4390 -0.3508
 5898TIP3    H239186   5.724   0.654   3.192  2.9792  2.0850  0.4174
 5899TIP3   OH239187   2.139   3.743   1.458 -0.5172  0.4075 -0.3328
 5899TIP3    H139188   2.206   3.803   1.490  0.9445 -1.8041  1.0102
 5899TIP3    H239189   2.072   3.744   1.526 -0.0974 -0.0961  0.0904
 5900TIP3   OH239190   5.419   4.406   0.852  0.1167 -0.0526 -0.2321
 5900TIP3    H139191   5.450   4.391   0.941  1.8354 -0.8954 -0.9386
 5900TIP3    H239192   5.473   4.350   0.797  0.9790  2.4289 -2.1078
 5901TIP3   OH239193   6.455   4.192  13.170  0.1785 -0.3674  0.0659
 5901TIP3    H139194   6.551   4.198  13.178 -0.0231  1.9968  2.0179
 5901TIP3    H239195   6.434   4.249  13.097  0.2382 -0.8236 -0.3120
 5902TIP3   OH239196   0.676   6.393  11.811  0.2219  1.0985  0.1561
 5902TIP3    H139197   0.651   6.459  11.747 -1.9548  0.2030 -0.0144
 5902TIP3    H239198   0.732   6.439  11.873  0.2953  2.6069 -0.9730
 5903TIP3   OH239199   4.156   5.549  15.449 -0.0482  0.4674 -0.1215
 5903TIP3    H139200   4.141   5.459  15.478 -0.1419  0.6552  0.4288
 5903TIP3    H239201   4.069   5.589  15.449  0.0657  0.7248  0.2172
 5904TIP3   OH239202   6.643   3.564  15.300 -0.2527  0.0001 -0.0202
 5904TIP3    H139203   6.611   3.588  15.214 -0.1887 -0.8372 -0.2811
 5904TIP3    H239204   6.570   3.516  15.341  0.5688 -1.7856 -0.5635
 5905TIP3   OH239205   5.887   2.701   4.426 -0.6192  0.3489  0.1404
 5905TIP3    H139206   5.933   2.701   4.511 -0.1998 -1.8558 -0.0161
 5905TIP3    H239207   5.917   2.781   4.383  2.1474 -0.3372  0.5759
 5906TIP3   OH239208   4.208   3.736   5.062 -0.4569  0.4622  0.6006
 5906TIP3    H139209   4.170   3.666   5.009  0.2430 -0.3937  1.2101
 5906TIP3    H239210   4.210   3.811   5.003 -1.0602 -0.0656 -0.1215
 5907TIP3   OH239211   0.115   3.295   1.336 -0.3019 -0.3522  0.1207
 5907TIP3    H139212   0.041   3.296   1.277  0.2396 -0.4061 -0.5694
 5907TIP3    H239213   0.192   3.288   1.279  0.3131  0.9963  0.7398
 5908TIP3   OH239214   5.787   2.484  17.332 -0.0334  0.5036 -1.0343
 5908TIP3    H139215   5.877   2.475  17.300  0.5164  0.8210  0.3777
 5908TIP3    H239216   5.784   2.570  17.373 -0.2410 -0.4801  1.1353
 5909TIP3   OH239217   1.898   4.627  14.084  0.2023 -0.7132 -0.2455
 5909TIP3    H139218   1.876   4.719  14.100  0.9523 -0.6171  0.2792
 5909TIP3    H239219   1.824   4.578  14.122 -1.6734 -0.2954 -3.0648
 5910TIP3   OH239220   4.448   1.803  17.327 -0.1722 -0.6744  0.0465
 5910TIP3    H139221   4.438   1.812  17.422  2.6275 -0.0733  0.3633
 5910TIP3    H239222   4.486   1.715  17.315  0.7842 -0.2201 -0.3618
 5911TIP3   OH239223   2.492   2.670   0.193  0.2857  0.1271 -0.4967
 5911TIP3    H139224   2.506   2.631   0.279  0.7031 -1.0537 -1.0844
 5911TIP3    H239225   2.514   2.763   0.205  1.2271 -0.1983  0.4538
 5912TIP3   OH239226   1.831   3.689  14.270 -0.5045  0.3310  0.0684
 5912TIP3    H139227   1.785   3.618  14.316 -2.6866  1.4543 -0.2597
 5912TIP3    H239228   1.783   3.768  14.292  1.0227  1.5339 -0.7088
 5913TIP3   OH239229   2.532   5.455   2.110  0.6108  0.0109  0.1881
 5913TIP3    H139230   2.474   5.522   2.073 -0.0328 -1.1035 -0.9163
 5913TIP3    H239231   2.481   5.375   2.106  0.7344 -0.2961  3.0575
 5914TIP3   OH239232   3.163   5.733   6.466 -0.4187  0.0042  0.4153
 5914TIP3    H139233   3.105   5.673   6.420  1.1642 -0.9161 -0.4990
 5914TIP3    H239234   3.158   5.707   6.558  0.5110 -1.8519 -0.0056
 5915TIP3   OH239235   0.194   1.802   4.543 -0.4820 -0.0198  0.8293
 5915TIP3    H139236   0.251   1.734   4.507 -1.9651 -1.4671  1.0776
 5915TIP3    H239237   0.112   1.756   4.564 -1.5437  1.8442  1.0283
 5916TIP3   OH239238   6.560   0.030  13.364 -0.5544  0.5073 -0.1882
 5916TIP3    H139239   6.634   0.015  13.423  0.4451  0.4074 -1.4063
 5916TIP3    H239240   6.517  -0.055  13.358  0.5398 -0.0131 -1.1264
 5917TIP3   OH239241   2.764   3.140  16.200  0.1121 -0.0377 -0.0596
 5917TIP3    H139242   2.675   3.147  16.235 -0.0035 -0.9127 -0.1336
 5917TIP3    H239243   2.797   3.229  16.199 -0.8833  0.3486 -0.3185
 5918TIP3   OH239244   0.844   0.063   4.042  0.2762 -0.1241 -0.5996
 5918TIP3    H139245   0.786  -0.014   4.035  1.2843 -1.2416  2.1657
 5918TIP3    H239246   0.932   0.027   4.032  0.8625  0.3348  2.2911
 5919TIP3   OH239247   3.933   0.605  15.333  0.2708 -0.5443  0.2080
 5919TIP3    H139248   3.881   0.629  15.256  1.3195 -1.0187 -0.6736
 5919TIP3    H239249   3.984   0.684  15.353  0.2126 -0.5151  0.2434
 5920TIP3   OH239250   2.678   4.111  15.749  0.2745 -0.2923 -0.5517
 5920TIP3    H139251   2.692   4.167  15.825 -2.4460  0.5126 -0.5303
 5920TIP3    H239252   2.630   4.036  15.783  1.2320 -1.1754 -1.0950
 5921TIP3   OH239253   3.101   3.237  15.094  0.5506 -0.0331  0.4760
 5921TIP3    H139254   3.102   3.306  15.160  0.0960  1.1820 -0.7477
 5921TIP3    H239255   3.055   3.164  15.136 -2.2265  1.6670  0.6029
 5922TIP3   OH239256   5.432   5.633  11.871  0.4112 -0.3734  0.3407
 5922TIP3    H139257   5.405   5.541  11.873 -0.6222 -0.0819  0.7443
 5922TIP3    H239258   5.518   5.634  11.912  0.6171 -1.2149 -0.0443
 5923TIP3   OH239259   0.177   3.882   4.459 -0.1762  0.3629 -0.6640
 5923TIP3    H139260   0.189   3.858   4.551 -0.2993 -0.4407 -0.8481
 5923TIP3    H239261   0.257   3.853   4.416 -1.0287 -1.3759 -1.1946
 5924TIP3   OH239262   4.095   2.665  16.459 -0.5254  0.1763 -0.2222
 5924TIP3    H139263   4.036   2.706  16.522 -0.5228 -1.4905  0.9546
 5924TIP3    H239264   4.159   2.732  16.438 -1.3878  1.2352  0.4202
 5925TIP3   OH239265   0.549   4.505  15.782  1.1138 -0.2496 -0.7645
 5925TIP3    H139266   0.574   4.583  15.734  0.1331  0.2265 -0.5224
 5925TIP3    H239267   0.603   4.435  15.744  1.9245  0.5130 -1.0486
 5926TIP3   OH239268   3.871   6.644  15.797 -0.5913  0.0073  0.4795
 5926TIP3    H139269   3.814   6.715  15.829 -2.7738 -0.5965 -1.7703
 5926TIP3    H239270   3.938   6.689  15.745 -0.4417  0.5564  1.1278
 5927TIP3   OH239271   1.333   5.872   4.759 -0.2330 -0.3588 -0.5908
 5927TIP3    H139272   1.237   5.867   4.767 -0.1379 -0.9265  0.3502
 5927TIP3    H239273   1.348   5.911   4.673 -1.2758 -2.2012 -1.6703
 5928TIP3   OH239274   3.651   4.942  12.229 -0.3898 -0.2048 -0.2475
 5928TIP3    H139275   3.642   4.851  12.201  2.0131 -0.9793  1.1915
 5928TIP3    H239276   3.604   4.946  12.312 -0.9455  0.0299 -0.5682
 5929TIP3   OH239277   2.679   1.190  11.429 -0.0091 -0.1375 -0.2744
 5929TIP3    H139278   2.624   1.233  11.494 -0.1492  1.7332 -1.5394
 5929TIP3    H239279   2.633   1.205  11.346  1.6923  0.2584 -1.1847
 5930TIP3   OH239280   6.198   1.693  17.089  0.3259 -0.5565  0.2348
 5930TIP3    H139281   6.235   1.605  17.099 -0.0785 -0.6096  1.3956
 5930TIP3    H239282   6.119   1.692  17.141  0.0699  0.3702 -0.1155
 5931TIP3   OH239283   3.210   2.263   2.843  0.3619  0.4550 -0.1360
 5931TIP3    H139284   3.152   2.261   2.767 -0.7612 -0.1475  0.7096
 5931TIP3    H239285   3.263   2.183   2.834 -1.2976 -0.8009  0.8440
 5932TIP3   OH239286   5.114   5.493  15.817  0.7404 -0.3266 -0.2423
 5932TIP3    H139287   5.117   5.399  15.797 -3.1702 -0.5305 -0.6856
 5932TIP3    H239288   5.096   5.497  15.911  2.5628  0.0868  0.1124
 5933TIP3   OH239289   1.082   2.417  13.140 -0.4066 -0.0057  0.1636
 5933TIP3    H139290   1.132   2.489  13.177 -1.2266  0.3906  0.5391
 5933TIP3    H239291   1.006   2.458  13.100 -0.1331 -0.5410 -0.9423
 5934TIP3   OH239292   0.423   6.590   2.655  0.1247 -1.3080 -0.3259
 5934TIP3    H139293   0.330   6.568   2.650 -0.7287  2.0606 -1.9852
 5934TIP3    H239294   0.442   6.593   2.749 -0.9036 -3.6425  0.0447
 5935TIP3   OH239295   0.246   5.196  14.417 -0.2189  0.1371 -0.2425
 5935TIP3    H139296   0.326   5.159  14.379 -1.5805 -2.1597 -1.0452
 5935TIP3    H239297   0.255   5.291  14.404  1.5696 -0.1980 -1.8704
 5936TIP3   OH239298   1.365   4.763  16.720 -0.8379 -0.2671  0.1015
 5936TIP3    H139299   1.406   4.690  16.766  1.4437  0.6690 -0.3414
 5936TIP3    H239300   1.282   4.776  16.766  0.8183 -0.0607  3.3099
 5937TIP3   OH239301   3.224   3.146   0.152  0.1628  0.0327  0.2395
 5937TIP3    H139302   3.299   3.093   0.179 -0.6039 -0.9305  0.5476
 5937TIP3    H239303   3.206   3.119   0.062  0.2122  0.2879  0.1529
 5938TIP3   OH239304   3.818   1.232   6.292 -0.4488 -0.4257  0.1178
 5938TIP3    H139305   3.800   1.325   6.304 -0.3984 -0.4838  0.6405
 5938TIP3    H239306   3.752   1.203   6.229  0.7905  0.4097 -1.6550
 5939TIP3   OH239307   3.082   4.441  12.598  0.4024  0.9589 -0.5316
 5939TIP3    H139308   3.139   4.460  12.673 -0.9269 -0.5010  0.9015
 5939TIP3    H239309   3.073   4.346  12.598  0.1470  0.9456 -2.4121
 5940TIP3   OH239310   0.008   4.814  13.048  0.2290  0.2449 -0.0785
 5940TIP3    H139311   0.059   4.735  13.068  0.2905  0.2436 -0.2372
 5940TIP3    H239312   0.074   4.883  13.039  0.1393  0.4426  0.6440
 5941TIP3   OH239313   4.267   5.369  11.662  0.5594  0.6317 -0.3654
 5941TIP3    H139314   4.226   5.403  11.741 -0.0119 -1.1991  0.1713
 5941TIP3    H239315   4.354   5.408  11.661  0.5878  0.6478  1.1955
 5942TIP3   OH239316   2.976   5.305  16.396  0.1055 -0.1282  0.6462
 5942TIP3    H139317   3.066   5.278  16.381  0.2793  0.9134 -0.3659
 5942TIP3    H239318   2.940   5.319  16.308 -0.6080  0.7818  1.0587
 5943TIP3   OH239319   1.015   0.048  12.399  0.1263 -0.0901  0.8052
 5943TIP3    H139320   1.102   0.007  12.402  0.0490 -0.3896 -0.5390
 5943TIP3    H239321   1.030   0.137  12.429  1.2501  0.3958 -1.0497
 5944TIP3   OH239322   3.394   3.147   5.659 -0.3911  0.3004 -0.2444
 5944TIP3    H139323   3.310   3.127   5.617  0.2231 -2.5817 -0.3129
 5944TIP3    H239324   3.394   3.093   5.738  1.3219  0.4017 -0.1379
 5945TIP3   OH239325   2.639   5.623   0.524  0.2824  0.1085 -0.1267
 5945TIP3    H139326   2.697   5.693   0.494 -1.0081  0.4290 -2.0525
 5945TIP3    H239327   2.669   5.545   0.477  0.3564 -0.1486  0.3432
 5946TIP3   OH239328   6.067   4.033   0.624  0.0468 -0.1049  0.9666
 5946TIP3    H139329   5.972   4.028   0.619 -0.0618  1.5559  0.4755
 5946TIP3    H239330   6.097   3.943   0.619 -1.3683 -0.5400 -2.1211
 5947TIP3   OH239331   3.241   1.281   0.567 -0.1424  0.9349  0.4167
 5947TIP3    H139332   3.336   1.271   0.555  0.0551  1.1290  1.7082
 5947TIP3    H239333   3.203   1.232   0.494  0.9430 -0.1083  0.5113
 5948TIP3   OH239334   5.987   1.526   5.232 -0.0889  0.2773  0.5110
 5948TIP3    H139335   5.963   1.600   5.287  1.2440  2.7370 -1.9826
 5948TIP3    H239336   5.907   1.506   5.183 -0.4462  0.0438  1.1737
 5949TIP3   OH239337   6.189   6.665   1.789  0.5976 -0.6215 -0.4710
 5949TIP3    H139338   6.215   6.657   1.697 -0.4087 -2.9669 -0.6125
 5949TIP3    H239339   6.222   6.751   1.815  1.3212 -0.0805 -2.8758
 5950TIP3   OH239340   1.040   2.046   1.059  0.7409 -0.8444 -0.2643
 5950TIP3    H139341   1.049   1.958   1.024 -1.6663 -1.4896  0.5578
 5950TIP3    H239342   0.997   2.034   1.143  3.4493  0.9054  1.5291
 5951TIP3   OH239343   5.343   0.542  13.403  0.0220  0.1632 -0.0039
 5951TIP3    H139344   5.316   0.583  13.321 -0.5043  0.0360  0.1033
 5951TIP3    H239345   5.285   0.466  13.412  1.5595 -1.1538 -0.6623
 5952TIP3   OH239346   1.693   0.982   5.807  0.0364 -0.3467 -0.2305
 5952TIP3    H139347   1.759   0.927   5.850  1.7521  1.0216 -0.9906
 5952TIP3    H239348   1.723   0.989   5.717 -1.7283 -0.4721 -0.8765
 5953TIP3   OH239349   6.211   5.570  16.879  0.1995  0.3463  0.0666
 5953TIP3    H139350   6.182   5.489  16.836  0.1604  0.4456 -0.0976
 5953TIP3    H239351   6.131   5.610  16.913  0.2194  0.3135  0.1522
 5954TIP3   OH239352   3.835   2.771  13.371 -0.4342  0.1845  0.1260
 5954TIP3    H139353   3.919   2.780  13.326 -0.5044 -0.1046 -0.0673
 5954TIP3    H239354   3.785   2.848  13.344  0.3826  1.2850  1.6101
 5955TIP3   OH239355   0.990   0.649  12.636 -0.3759 -0.5042  0.0953
 5955TIP3    H139356   0.944   0.655  12.553 -1.4961  0.9499  0.7737
 5955TIP3    H239357   1.079   0.624  12.613 -0.7655 -0.4984 -1.4961
 5956TIP3   OH239358   3.758   3.649  17.242  0.0368  0.6569 -0.4338
 5956TIP3    H139359   3.807   3.567  17.234  1.8070  1.4814  1.2420
 5956TIP3    H239360   3.816   3.707  17.290 -1.8931  2.3186  0.0293
 5957TIP3   OH239361   5.302   6.534   1.838  0.7704  0.1128 -0.5911
 5957TIP3    H139362   5.234   6.590   1.877  1.1128 -0.6429  1.2141
 5957TIP3    H239363   5.254   6.471   1.785 -0.0545 -0.7232  1.0490
 5958TIP3   OH239364   1.212   6.609  13.309 -0.1982  0.2573 -0.2496
 5958TIP3    H139365   1.290   6.663  13.325 -0.5556  1.0341 -1.0251
 5958TIP3    H239366   1.141   6.672  13.300 -0.8149 -0.4104 -0.1514
 5959TIP3   OH239367   5.969   3.332   1.519  0.5508 -0.3551  0.2779
 5959TIP3    H139368   5.976   3.424   1.496 -0.9037 -0.1766  0.4558
 5959TIP3    H239369   6.015   3.324   1.602  0.6902  0.1961  0.2548
 5960TIP3   OH239370   6.355   2.457   1.860  0.3316 -0.0743 -0.1618
 5960TIP3    H139371   6.353   2.470   1.955 -1.4478  0.6051 -0.2546
 5960TIP3    H239372   6.390   2.369   1.849  0.4575 -0.2111  1.1259
 5961TIP3   OH239373   1.572   1.626  12.190 -0.0740  0.0490  0.5317
 5961TIP3    H139374   1.646   1.566  12.187 -0.5761 -0.5478 -0.5221
 5961TIP3    H239375   1.607   1.706  12.230  0.5614 -0.9777  2.1050
 5962TIP3   OH239376   1.408   5.074   5.601 -0.1516 -0.7088 -0.1729
 5962TIP3    H139377   1.415   5.118   5.516 -0.9579 -1.6446 -0.7410
 5962TIP3    H239378   1.382   5.143   5.661 -3.2458 -0.6671 -1.3849
 5963TIP3   OH239379   0.229   0.986   1.816  0.3179  0.1463 -0.0066
 5963TIP3    H139380   0.252   0.960   1.905 -0.2330 -0.5687 -0.0639
 5963TIP3    H239381   0.287   1.060   1.797 -1.2350  1.9568  1.8472
 5964TIP3   OH239382   4.496   4.700   0.390 -0.0760  0.1162 -0.2074
 5964TIP3    H139383   4.585   4.706   0.426 -0.2782  0.9383  0.1841
 5964TIP3    H239384   4.457   4.625   0.434  0.0392  0.4634  0.4996
 5965TIP3   OH239385   5.578   1.017   2.577 -0.4888  0.1178 -0.2123
 5965TIP3    H139386   5.567   0.924   2.557  2.5919 -0.1436 -1.0773
 5965TIP3    H239387   5.639   1.019   2.651 -0.3650  1.4548 -0.3310
 5966TIP3   OH239388   4.558   1.373  17.037  0.2057 -0.8368  0.0711
 5966TIP3    H139389   4.602   1.418  17.109  1.4194 -0.6475 -0.7583
 5966TIP3    H239390   4.524   1.444  16.981  1.3695 -0.9344 -0.7870
 5967TIP3   OH239391   5.238   3.548   0.236  0.3052 -0.1292 -0.6273
 5967TIP3    H139392   5.166   3.605   0.209  0.9635  0.6734 -0.7430
 5967TIP3    H239393   5.314   3.606   0.240  0.7115 -0.7243  0.6383
 5968TIP3   OH239394   0.282   4.512   3.308  0.1174 -0.0419  0.6864
 5968TIP3    H139395   0.267   4.533   3.215 -0.2463  0.9060  0.9399
 5968TIP3    H239396   0.256   4.421   3.316  0.3009 -0.1843 -0.1812
 5969TIP3   OH239397   0.816   4.962   5.141 -0.3111 -0.3691  0.1723
 5969TIP3    H139398   0.811   4.866   5.139  0.1526 -0.4289  1.5284
 5969TIP3    H239399   0.904   4.981   5.110  0.3799 -0.4933  1.9917
 5970TIP3   OH239400   1.488   0.515   5.770 -0.6059  0.0498  0.0330
 5970TIP3    H139401   1.401   0.555   5.765  0.4777  2.4864 -1.0810
 5970TIP3    H239402   1.548   0.586   5.749  1.5978 -1.8950 -0.6670
 5971TIP3   OH239403   6.032   1.836   0.384  0.3955 -0.6016 -0.5765
 5971TIP3    H139404   6.107   1.877   0.342 -0.8765  0.3511 -2.0351
 5971TIP3    H239405   6.004   1.769   0.321  0.0711 -1.0056 -0.0085
 5972TIP3   OH239406   5.135   4.393  13.680  0.3124 -0.1015  0.3185
 5972TIP3    H139407   5.108   4.302  13.679  1.2872 -0.4126  1.1513
 5972TIP3    H239408   5.137   4.418  13.587 -0.5102 -0.7385  0.1122
 5973TIP3   OH239409   1.452   3.404  12.276  0.3330  0.1874 -0.5458
 5973TIP3    H139410   1.381   3.468  12.266 -0.5033 -0.8078 -1.1274
 5973TIP3    H239411   1.448   3.380  12.369  0.3727  0.6418 -0.4208
 5974TIP3   OH239412   2.644   0.425   2.011  0.2798 -0.0162 -1.0271
 5974TIP3    H139413   2.591   0.458   1.938 -1.0743 -0.9928 -0.5231
 5974TIP3    H239414   2.729   0.407   1.971  0.0197  0.8436 -2.0377
 5975TIP3   OH239415   4.499   1.395   0.890 -0.1888 -0.2691  0.4235
 5975TIP3    H139416   4.474   1.326   0.828  1.6933 -1.4614  0.9186
 5975TIP3    H239417   4.507   1.474   0.836 -1.8174 -0.5253 -0.2525
 5976TIP3   OH239418   0.715   0.283   6.165 -0.1092 -0.2561  0.0152
 5976TIP3    H139419   0.805   0.264   6.194 -0.4464  0.5724  1.7429
 5976TIP3    H239420   0.660   0.227   6.220 -0.6743 -0.8282 -1.1032
 5977TIP3   OH239421   5.093   4.087   1.506  0.2694  0.1662 -0.0909
 5977TIP3    H139422   5.155   4.158   1.519 -1.8058  1.9238  0.7828
 5977TIP3    H239423   5.092   4.073   1.411  0.2940  1.7347 -0.3522
 5978TIP3   OH239424   4.971   3.683   5.350 -0.3449 -0.0416  0.2946
 5978TIP3    H139425   4.988   3.602   5.302  2.1060  1.0864 -0.9507
 5978TIP3    H239426   4.947   3.746   5.283 -0.9136  0.5887  1.0777
 5979TIP3   OH239427   5.906   4.915   5.710 -0.5450 -0.6814 -0.2927
 5979TIP3    H139428   5.947   4.982   5.764 -0.0973 -0.7155 -0.5886
 5979TIP3    H239429   5.812   4.932   5.718 -0.4362 -0.0538 -0.3334
 5980TIP3   OH239430   6.450   2.001   3.719 -0.5703  0.2725  0.1617
 5980TIP3    H139431   6.500   2.054   3.658 -0.6808  0.8361  0.5501
 5980TIP3    H239432   6.378   1.966   3.667 -0.2917  0.2055 -0.1812
 5981TIP3   OH239433   4.165   0.323   4.550  0.7358 -0.3746  0.0301
 5981TIP3    H139434   4.228   0.390   4.577 -1.0970  1.0234  1.1318
 5981TIP3    H239435   4.178   0.313   4.456  1.6304  0.9100 -0.0004
 5982TIP3   OH239436   5.287   1.434  16.825  0.2705 -0.4240 -0.4057
 5982TIP3    H139437   5.217   1.486  16.785  0.7378 -1.1339 -2.2657
 5982TIP3    H239438   5.311   1.482  16.904 -0.5089  1.2454 -1.1379
 5983TIP3   OH239439   6.143   6.337  15.774 -0.0158 -0.1098  0.3458
 5983TIP3    H139440   6.108   6.334  15.862 -0.8120  0.2030  0.0451
 5983TIP3    H239441   6.215   6.400  15.779 -0.5990  0.5400  0.5868
 5984TIP3   OH239442   0.423   2.310  12.219  0.1099  0.6763 -0.3247
 5984TIP3    H139443   0.422   2.326  12.313  0.7231 -1.8788  0.1817
 5984TIP3    H239444   0.396   2.394  12.180 -0.2197  1.7695  2.0933
 5985TIP3   OH239445   5.501   6.744   1.929 -0.4983 -0.0212 -0.0504
 5985TIP3    H139446   5.485   6.835   1.906 -1.3084 -0.8641 -3.3938
 5985TIP3    H239447   5.414   6.704   1.935 -0.2061 -0.4710  2.3269
 5986TIP3   OH239448   6.021   5.576   0.854 -0.2554 -0.7464  0.0038
 5986TIP3    H139449   6.005   5.511   0.923 -1.4976  0.3755  0.8350
 5986TIP3    H239450   5.936   5.618   0.841  0.5071  0.7243 -0.4701
 5987TIP3   OH239451   6.448   1.228   3.345 -0.2383 -0.7661 -0.3407
 5987TIP3    H139452   6.523   1.230   3.286 -0.6764 -0.2156 -0.8861
 5987TIP3    H239453   6.464   1.152   3.401  1.7633  0.5032  0.9341
 5988TIP3   OH239454   2.111   1.044  16.620  0.1534 -0.3877  0.3890
 5988TIP3    H139455   2.177   1.048  16.689 -0.1025  1.3217  0.5714
 5988TIP3    H239456   2.027   1.045  16.667 -0.0221  0.6725  0.0670
 5989TIP3   OH239457   3.146   0.576   4.083  0.0783 -0.1110  0.3065
 5989TIP3    H139458   3.125   0.670   4.081 -0.1514 -0.1471 -1.5749
 5989TIP3    H239459   3.234   0.572   4.121 -0.2757  0.7704  1.2673
 5990TIP3   OH239460   4.453   6.498   2.820  0.4823 -0.4022  0.1180
 5990TIP3    H139461   4.388   6.552   2.865  1.6983  0.6463  0.6553
 5990TIP3    H239462   4.511   6.561   2.778 -1.3361 -1.2516 -4.2081
 5991TIP3   OH239463   3.928   1.732  13.119  0.3219 -0.0642  0.2311
 5991TIP3    H139464   3.874   1.699  13.048  0.5736  1.2026 -0.5696
 5991TIP3    H239465   3.866   1.773  13.180  0.2245 -0.1309  0.1773
 5992TIP3   OH239466   4.560   2.762  12.985 -0.6092  0.5061 -0.1085
 5992TIP3    H139467   4.498   2.812  13.039  0.0305 -0.5526  1.6821
 5992TIP3    H239468   4.646   2.799  13.006 -0.2386 -0.6271  0.4600
 5993TIP3   OH239469   5.926   2.357  17.028  0.0584 -0.2824  0.2182
 5993TIP3    H139470   5.971   2.370  17.112  0.1246 -2.1718  0.5224
 5993TIP3    H239471   5.983   2.296  16.980  0.2947  1.1883 -1.4443
 5994TIP3   OH239472   5.057   5.733   5.548 -0.0304  0.6752  0.2887
 5994TIP3    H139473   4.967   5.736   5.581 -0.2176 -0.5013 -0.0852
 5994TIP3    H239474   5.050   5.766   5.458 -0.3600 -0.7598 -0.2478
 5995TIP3   OH239475   5.206   0.180   4.900 -0.2219  0.0471  0.7182
 5995TIP3    H139476   5.282   0.235   4.879  1.5660 -2.4203  0.2361
 5995TIP3    H239477   5.214   0.162   4.994 -0.6651  0.4029  0.8264
 5996TIP3   OH239478   3.567   4.748  15.428 -0.8232 -0.1942  0.1192
 5996TIP3    H139479   3.638   4.790  15.380 -0.4094  0.8148  1.5496
 5996TIP3    H239480   3.555   4.664  15.385  0.3771  0.1490 -0.9318
 5997TIP3   OH239481   5.538   6.689   0.569  0.0660  0.3386  0.3370
 5997TIP3    H139482   5.478   6.740   0.515  1.7730  1.3112 -0.7491
 5997TIP3    H239483   5.500   6.601   0.572 -0.5380  0.4935 -1.7116
 5998TIP3   OH239484   5.329   6.451  13.037 -0.3867  0.2034 -0.0499
 5998TIP3    H139485   5.391   6.508  13.083 -1.0208 -0.2072  1.3712
 5998TIP3    H239486   5.319   6.491  12.951  1.3980  0.5949 -0.1101
 5999TIP3   OH239487   0.046   2.514   3.148  0.2104  0.0139  0.2414
 5999TIP3    H139488   0.048   2.485   3.057 -1.0913 -0.1923  0.2520
 5999TIP3    H239489  -0.017   2.586   3.149 -0.9056 -0.9299  1.2137
 6000TIP3   OH239490   4.359   4.669   1.913 -0.0049  0.2027 -0.5452
 6000TIP3    H139491   4.441   4.621   1.923 -0.3233 -0.1781  0.3696
 6000TIP3    H239492   4.305   4.614   1.856  0.2534  0.2879 -0.8679
 6001TIP3   OH239493   2.537   5.548  13.822  0.7859  0.1033  0.0725
 6001TIP3    H139494   2.581   5.482  13.876  2.9173  1.0896 -0.3835
 6001TIP3    H239495   2.571   5.534  13.734  0.7074  1.3498 -0.1702
 6002TIP3   OH239496   4.545   2.517  14.355 -0.0165 -0.0377  0.2690
 6002TIP3    H139497   4.614   2.473  14.305 -0.2035 -0.5533  0.4584
 6002TIP3    H239498   4.590   2.559  14.428  0.4268  1.7030 -0.9363
 6003TIP3   OH239499   3.744   3.041   2.248 -0.0234  0.0824 -0.3347
 6003TIP3    H139500   3.717   3.132   2.254 -0.4115  0.2239 -2.8926
 6003TIP3    H239501   3.837   3.045   2.224 -0.3676 -0.1101 -1.8002
 6004TIP3   OH239502   1.467   6.222  16.913  0.2931  0.0644  0.3294
 6004TIP3    H139503   1.481   6.308  16.874 -0.1326 -0.5555 -1.2478
 6004TIP3    H239504   1.555   6.183  16.917  0.3724  0.2350  0.2532
 6005TIP3   OH239505   0.606   2.684   3.066 -0.0253  0.3434  0.0262
 6005TIP3    H139506   0.566   2.665   2.981 -1.7077  0.5869  0.7300
 6005TIP3    H239507   0.672   2.615   3.076 -0.9422 -0.6960 -0.7422
 6006TIP3   OH239508   4.390   2.734  12.750 -0.4327 -0.2071 -0.6406
 6006TIP3    H139509   4.435   2.788  12.814 -0.8093  1.1635 -1.5032
 6006TIP3    H239510   4.369   2.653  12.797  0.3861  0.2763  0.5852
 6007TIP3   OH239511   1.020   5.222  16.575  0.2175 -0.1185 -0.4931
 6007TIP3    H139512   1.103   5.181  16.601  0.5404  1.4517  1.1480
 6007TIP3    H239513   0.957   5.191  16.640 -0.5183 -1.2695 -1.7085
 6008TIP3   OH239514   3.931   2.050  14.244  0.2226  0.1728  0.5146
 6008TIP3    H139515   3.882   2.125  14.276 -1.6112  0.0751 -1.7900
 6008TIP3    H239516   4.002   2.088  14.193 -1.5851  0.4894 -1.9420
 6009TIP3   OH239517   1.753   4.332   1.501  0.4799 -0.0569  0.5327
 6009TIP3    H139518   1.709   4.413   1.479  0.8718 -0.2773 -1.2312
 6009TIP3    H239519   1.819   4.357   1.565 -0.4434  0.7160  1.2157
 6010TIP3   OH239520   1.733   6.237  15.323  0.4169  0.7686  0.0916
 6010TIP3    H139521   1.823   6.221  15.353  0.6481 -1.6620 -1.5779
 6010TIP3    H239522   1.678   6.201  15.392  0.7586  1.0588  0.5177
 6011TIP3   OH239523   0.885   6.626   2.911  0.6867  0.2573 -0.2026
 6011TIP3    H139524   0.874   6.535   2.884 -0.5280 -0.2116  1.6687
 6011TIP3    H239525   0.796   6.654   2.934  0.9077  2.2073 -1.5288
 6012TIP3   OH239526   2.241   3.267  14.157  0.1962 -0.6379 -0.5472
 6012TIP3    H139527   2.198   3.341  14.114  0.7272 -0.3773 -0.6365
 6012TIP3    H239528   2.333   3.293  14.164 -0.1757  0.3017  2.6595
 6013TIP3   OH239529   3.641   0.892  11.038  1.0349 -0.0770 -0.3840
 6013TIP3    H139530   3.556   0.859  11.065  1.4491 -0.5958  0.3315
 6013TIP3    H239531   3.622   0.956  10.969  0.0785 -0.1903 -0.2335
 6014TIP3   OH239532   5.083   2.475  15.187  0.2959 -0.5119  0.4273
 6014TIP3    H139533   5.165   2.524  15.188  0.3262 -0.5686  1.0400
 6014TIP3    H239534   5.032   2.512  15.260 -0.0795 -0.7172  0.2728
 6015TIP3   OH239535   2.202   4.645   5.055 -0.0799 -0.2050 -0.6003
 6015TIP3    H139536   2.135   4.634   4.988 -2.0574 -2.1174  1.4769
 6015TIP3    H239537   2.160   4.698   5.123  1.3192  0.4351 -0.1895
 6016TIP3   OH239538   1.701   4.156   5.122  0.5661 -0.6536  0.3082
 6016TIP3    H139539   1.794   4.175   5.109  0.0700  2.5148  0.4508
 6016TIP3    H239540   1.660   4.181   5.040 -0.1753 -2.4649  0.0808
 6017TIP3   OH239541   1.089   6.249   1.509 -0.1965 -0.7689  0.6461
 6017TIP3    H139542   1.075   6.283   1.420 -0.0952 -0.7398  0.6403
 6017TIP3    H239543   1.098   6.328   1.563  2.3050 -0.7127  0.2858
 6018TIP3   OH239544   1.399   3.504  13.860  0.0395  0.3642  0.0441
 6018TIP3    H139545   1.463   3.572  13.881 -0.9137  1.2967  0.0116
 6018TIP3    H239546   1.444   3.421  13.879  0.4742  1.0445  2.2618
 6019TIP3   OH239547   5.490   0.004  15.482  0.2961 -0.1522 -0.1031
 6019TIP3    H139548   5.460  -0.077  15.522 -1.0473  0.7419  0.7790
 6019TIP3    H239549   5.415   0.035  15.431  1.0243  0.2049 -1.0038
 6020TIP3   OH239550   5.990   0.207  14.238 -0.0660 -0.4100  0.2366
 6020TIP3    H139551   5.916   0.265  14.216  0.5151  0.4790  0.5935
 6020TIP3    H239552   6.036   0.196  14.155  0.2931  0.3218  0.3344
 6021TIP3   OH239553   3.888   5.263  10.537  0.4931 -0.1253  0.2657
 6021TIP3    H139554   3.821   5.332  10.544  1.6044  0.9665  0.4763
 6021TIP3    H239555   3.914   5.266  10.445 -0.0685 -0.8819  0.0729
 6022TIP3   OH239556   2.474   1.482   5.177 -0.5617 -0.3989 -0.1216
 6022TIP3    H139557   2.408   1.430   5.131  1.2692 -0.6292 -2.7255
 6022TIP3    H239558   2.524   1.524   5.107  2.6846 -1.0104  1.6494
 6023TIP3   OH239559   1.400   2.536   4.600  0.4349 -0.1181  0.3516
 6023TIP3    H139560   1.366   2.544   4.511 -0.1884  0.1562  0.6064
 6023TIP3    H239561   1.331   2.488   4.647  2.3287 -3.7114 -0.1912
 6024TIP3   OH239562   4.396   4.999  15.857  0.4240  0.4260 -0.0504
 6024TIP3    H139563   4.387   5.084  15.900  1.0268 -0.3587  1.7539
 6024TIP3    H239564   4.371   4.936  15.924 -1.8575 -0.7980 -1.9279
 6025TIP3   OH239565   1.374   2.328  15.520 -0.3194  0.1134  0.1678
 6025TIP3    H139566   1.456   2.353  15.477 -0.0712  0.7123  0.9717
 6025TIP3    H239567   1.387   2.235  15.541 -0.2873 -0.0852 -0.6671
 6026TIP3   OH239568   2.194   2.737   0.113  0.1049 -0.0686  0.0193
 6026TIP3    H139569   2.263   2.680   0.147 -1.0131 -0.0143  2.6356
 6026TIP3    H239570   2.233   2.824   0.110  0.7622 -0.3768 -0.5621
 6027TIP3   OH239571   5.689   6.270  11.463 -0.4713 -0.7325  0.5930
 6027TIP3    H139572   5.783   6.272  11.481 -0.0618 -4.2426 -0.4637
 6027TIP3    H239573   5.652   6.333  11.525  2.5384  0.9384  0.8975
 6028TIP3   OH239574   5.645   5.182   2.897 -0.0962  0.6876  0.6576
 6028TIP3    H139575   5.589   5.114   2.935  0.6746 -0.1591  0.2932
 6028TIP3    H239576   5.585   5.255   2.882 -2.4430 -1.7112 -4.2914
 6029TIP3   OH239577   6.666   3.202   5.785 -0.2601 -0.0343 -0.0667
 6029TIP3    H139578   6.580   3.159   5.787 -1.0658  1.4554 -0.8377
 6029TIP3    H239579   6.729   3.130   5.782 -1.5543 -1.1682 -1.4891
 6030TIP3   OH239580   2.961   4.894  13.407  0.3264  0.3961  0.0097
 6030TIP3    H139581   3.040   4.909  13.461  1.6146 -1.6828 -1.1824
 6030TIP3    H239582   2.983   4.933  13.322  0.1163 -0.3038 -0.3660
 6031TIP3   OH239583   2.092   3.575  13.813  0.4593 -0.1620  0.1599
 6031TIP3    H139584   2.122   3.596  13.901  0.6910  0.4603 -0.0625
 6031TIP3    H239585   2.172   3.571  13.761  0.8013 -4.3013  0.6687
 6032TIP3   OH239586   6.582   2.179   1.222 -0.4841  0.4207  0.0920
 6032TIP3    H139587   6.530   2.257   1.242  0.1764  0.8003  0.3576
 6032TIP3    H239588   6.519   2.107   1.226 -1.1596  0.9627 -0.4173
 6033TIP3   OH239589   2.359   6.701   1.677  0.0283 -0.1702 -0.0239
 6033TIP3    H139590   2.397   6.784   1.708  1.2101 -0.8755  0.4812
 6033TIP3    H239591   2.268   6.705   1.706  0.3644  0.4720  1.0263
 6034TIP3   OH239592   3.193   1.468   0.769  0.1160  0.2751 -1.0164
 6034TIP3    H139593   3.212   1.412   0.694  0.6647 -1.5668  0.4160
 6034TIP3    H239594   3.257   1.441   0.835 -1.9860 -0.0211  1.0112
 6035TIP3   OH239595   6.257   0.756   0.282  0.0837  0.2367  0.2658
 6035TIP3    H139596   6.344   0.742   0.244 -0.4104  0.3122 -0.9510
 6035TIP3    H239597   6.269   0.743   0.376  1.3802  0.1211  0.1011
 6036TIP3   OH239598   5.011   1.630  12.504  0.3046  0.2372 -0.1493
 6036TIP3    H139599   5.017   1.539  12.535 -0.1700  0.2773  0.0741
 6036TIP3    H239600   5.044   1.682  12.577  0.6331  0.2422 -0.3002
 6037TIP3   OH239601   6.711   0.579   3.839  0.0101  0.6070  0.5488
 6037TIP3    H139602   6.788   0.553   3.890 -0.1985  1.9755  1.5926
 6037TIP3    H239603   6.637   0.539   3.884  0.1252 -1.9337 -1.2572
 6038TIP3   OH239604   5.249   1.613   6.050  0.0555  0.1780  0.1167
 6038TIP3    H139605   5.214   1.701   6.059  2.4359  1.1134  0.7263
 6038TIP3    H239606   5.315   1.606   6.118  0.1518 -1.9850 -0.1313
 6039TIP3   OH239607   2.482   3.865  17.256  0.8135 -0.0435 -0.2280
 6039TIP3    H139608   2.396   3.866  17.213 -1.1972 -1.1574  3.3722
 6039TIP3    H239609   2.522   3.783  17.226 -0.7685 -1.0859  0.3812
 6040TIP3   OH239610   3.222   0.341  15.754 -0.3867  0.2396  0.7100
 6040TIP3    H139611   3.129   0.317  15.762  0.0892 -1.6304  1.1321
 6040TIP3    H239612   3.269   0.266  15.790  1.3943 -0.1583 -2.1374
 6041TIP3   OH239613   2.804   6.030  13.222  0.0529 -0.3732  0.2042
 6041TIP3    H139614   2.725   5.988  13.187  0.7887 -2.2391  0.6830
 6041TIP3    H239615   2.784   6.048  13.313 -0.2677  0.3676 -0.0039
 6042TIP3   OH239616   5.955   3.584  13.131  0.5049  0.1726  0.3666
 6042TIP3    H139617   6.029   3.524  13.135  0.0022 -0.6442 -1.3453
 6042TIP3    H239618   5.959   3.621  13.043 -2.6159 -1.9797 -0.8572
 6043TIP3   OH239619   4.441   6.014   2.409 -0.2935  0.6662  0.3576
 6043TIP3    H139620   4.484   6.065   2.478  1.7693  0.5422 -0.7684
 6043TIP3    H239621   4.458   5.923   2.434 -1.3422  0.5597  0.7448
 6044TIP3   OH239622   0.260   6.651   1.773  1.2302 -0.8732  0.3000
 6044TIP3    H139623   0.233   6.576   1.720  3.4678 -0.3197 -1.7784
 6044TIP3    H239624   0.260   6.725   1.712  1.5287  0.3147  1.6861
 6045TIP3   OH239625   4.695   3.580   3.095 -0.2063 -0.3834  0.3122
 6045TIP3    H139626   4.621   3.630   3.130 -1.0620 -1.5743  0.3034
 6045TIP3    H239627   4.656   3.496   3.068  1.1167 -0.9593  0.1051
 6046TIP3   OH239628   5.941   1.100  11.520 -0.7221 -0.2854 -0.1222
 6046TIP3    H139629   6.008   1.165  11.539 -1.0643 -0.2610  1.1226
 6046TIP3    H239630   5.941   1.091  11.425 -0.4389  1.2837 -0.2910
 6047TIP3   OH239631   6.147   4.685   3.412 -0.1498  0.5735 -0.9036
 6047TIP3    H139632   6.158   4.710   3.503  0.3498  1.7190 -1.2630
 6047TIP3    H239633   6.236   4.663   3.382 -0.2399  0.6618 -1.2400
 6048TIP3   OH239634   1.828   1.520   0.298 -0.1922 -0.4713  0.0267
 6048TIP3    H139635   1.909   1.569   0.309 -0.5888  0.4907 -1.1161
 6048TIP3    H239636   1.773   1.577   0.244 -1.1972 -1.5908 -0.1676
 6049TIP3   OH239637   4.920   6.011  12.501  0.1261 -0.4547 -0.7967
 6049TIP3    H139638   4.860   5.958  12.553 -0.3678  1.2383  0.4171
 6049TIP3    H239639   4.963   6.069  12.563  2.9007 -1.4102 -1.6605
 6050TIP3   OH239640   0.720   6.657  11.817 -0.2183 -0.5575 -0.0130
 6050TIP3    H139641   0.652   6.709  11.860 -0.5528  0.3096 -1.5218
 6050TIP3    H239642   0.752   6.714  11.747 -0.5054 -2.3547 -1.6538
 6051TIP3   OH239643   0.842   6.545   5.136  0.1322  0.6170  0.0787
 6051TIP3    H139644   0.926   6.501   5.123 -0.6922 -0.2679 -2.9814
 6051TIP3    H239645   0.792   6.486   5.191  0.7695  0.1529  0.1717
 6052TIP3   OH239646   0.963   4.723  15.718  0.0377 -0.5230  0.1255
 6052TIP3    H139647   0.997   4.813  15.719 -3.9505  1.2123  1.6300
 6052TIP3    H239648   0.934   4.710  15.627  1.9064 -0.9478 -0.4567
 6053TIP3   OH239649   2.061   3.542   3.448 -0.0278 -0.0470  0.3733
 6053TIP3    H139650   1.975   3.571   3.477 -0.2846 -0.5746  0.1621
 6053TIP3    H239651   2.064   3.448   3.470  0.9443  0.2099  1.4405
 6054TIP3   OH239652   1.527   2.451   2.860 -0.9918  0.2086  0.1303
 6054TIP3    H139653   1.621   2.467   2.868 -1.2878  1.6567  0.9485
 6054TIP3    H239654   1.496   2.519   2.800 -1.7584  0.6824  1.0524
 6055TIP3   OH239655   5.149   4.039   3.480  0.2460 -0.2376 -0.4351
 6055TIP3    H139656   5.109   4.015   3.564 -0.1198 -0.9869 -0.8147
 6055TIP3    H239657   5.115   3.974   3.418  2.3508 -1.1654 -0.6951
 6056TIP3   OH239658   5.451   1.554   4.322  0.1202  0.6757 -0.0853
 6056TIP3    H139659   5.381   1.619   4.328  0.8270  1.3831  0.8626
 6056TIP3    H239660   5.519   1.596   4.271 -0.2148 -0.0970 -1.1976
 6057TIP3   OH239661   6.719   2.767   3.170  0.1650 -0.5449 -0.1789
 6057TIP3    H139662   6.659   2.816   3.114  0.3824 -0.4805 -0.3580
 6057TIP3    H239663   6.779   2.834   3.204 -0.4956 -0.4436  0.8276
 6058TIP3   OH239664   0.798   3.501  17.211 -0.6498 -0.1577 -0.6539
 6058TIP3    H139665   0.868   3.540  17.159  0.0590 -1.7005 -0.9152
 6058TIP3    H239666   0.843   3.445  17.275 -1.5842  0.0906  0.2643
 6059TIP3   OH239667   5.152   1.176   3.811  0.2424  0.0926  0.4540
 6059TIP3    H139668   5.167   1.270   3.822 -0.6144  0.3922 -0.7589
 6059TIP3    H239669   5.070   1.159   3.857  1.0663 -0.3506  1.8234
 6060TIP3   OH239670   1.048   4.575   1.415  0.0797 -0.6652  0.0705
 6060TIP3    H139671   1.003   4.585   1.331 -1.8399  2.0370  1.2630
 6060TIP3    H239672   1.011   4.497   1.454 -2.4641  0.5615  0.2795
 6061TIP3   OH239673   4.047   4.922   1.609  0.4823  0.1070 -0.2840
 6061TIP3    H139674   4.051   4.861   1.683 -2.4027  0.9906  0.7621
 6061TIP3    H239675   4.136   4.955   1.600  1.0477 -0.3739  2.5562
 6062TIP3   OH239676   0.680   1.050   5.695 -0.1101 -0.3024  0.0074
 6062TIP3    H139677   0.733   0.976   5.665  4.3117  2.1955  0.9194
 6062TIP3    H239678   0.679   1.042   5.790 -0.4440  0.2728  0.0571
 6063TIP3   OH239679   0.781   3.222   5.796 -0.2802 -0.0713 -0.1836
 6063TIP3    H139680   0.751   3.281   5.866  0.2492  2.1756 -1.7319
 6063TIP3    H239681   0.701   3.200   5.748 -0.3499  0.2628 -0.2241
 6064TIP3   OH239682   1.646   4.762   1.185 -0.0208 -0.1647  0.2758
 6064TIP3    H139683   1.553   4.779   1.200  0.2062  1.5369 -0.0638
 6064TIP3    H239684   1.690   4.812   1.253  0.6731 -0.4993  0.0745
 6065TIP3   OH239685   2.362   4.679  14.058  0.5076 -0.3846  0.3152
 6065TIP3    H139686   2.288   4.674  14.117  0.0948 -1.3414 -0.2533
 6065TIP3    H239687   2.398   4.590  14.057  0.0275 -0.6057 -1.4361
 6066TIP3   OH239688   4.186   1.574   5.377  0.0605 -0.0083 -0.0114
 6066TIP3    H139689   4.174   1.497   5.321 -0.1354  1.2252 -1.7468
 6066TIP3    H239690   4.273   1.562   5.415  1.1250  0.0616 -2.2356
 6067TIP3   OH239691   1.122   5.169  12.009 -0.5310 -0.1927 -0.1841
 6067TIP3    H139692   1.124   5.124  11.924  1.0401  0.1416 -0.3525
 6067TIP3    H239693   1.176   5.247  11.996  0.5601 -0.6423  1.3894
 6068TIP3   OH239694   1.014   2.042   5.216  0.4008  0.2821 -0.7480
 6068TIP3    H139695   1.105   2.070   5.223  0.8309 -1.0062 -1.0086
 6068TIP3    H239696   0.985   2.029   5.307  1.7298 -3.0961 -0.6778
 6069TIP3   OH239697   6.210   5.894  16.077 -0.1297  0.2713  0.7088
 6069TIP3    H139698   6.177   5.941  16.001 -1.2336 -1.7642 -0.1517
 6069TIP3    H239699   6.140   5.898  16.141 -0.9079 -1.4659  0.0273
 6070TIP3   OH239700   4.850   2.117  11.749 -0.2245 -0.0164  0.2138
 6070TIP3    H139701   4.773   2.172  11.766 -1.4750 -1.5880 -0.0994
 6070TIP3    H239702   4.837   2.041  11.806  0.3437 -0.9801 -0.8974
 6071TIP3   OH239703   6.411   4.840  13.533 -0.0651  0.1726  0.6178
 6071TIP3    H139704   6.369   4.927  13.535  0.2148  0.3154  0.4361
 6071TIP3    H239705   6.338   4.778  13.533 -0.2560  0.3985  1.2285
 6072TIP3   OH239706   5.681   0.066   0.181 -0.2759 -0.8246  0.1874
 6072TIP3    H139707   5.629   0.023   0.249  2.8119 -1.9310  2.0604
 6072TIP3    H239708   5.761   0.092   0.226  0.7679  0.9299 -2.4839
 6073TIP3   OH239709   2.461   4.341  12.543  0.3513 -0.1072 -0.1457
 6073TIP3    H139710   2.461   4.302  12.630 -0.3384 -0.4589 -0.2954
 6073TIP3    H239711   2.414   4.424  12.554  0.6041  0.0324 -0.1085
 6074TIP3   OH239712   4.320   3.067  15.620 -0.1654 -0.3853 -0.3121
 6074TIP3    H139713   4.408   3.088  15.586 -0.0948 -1.2271 -0.6658
 6074TIP3    H239714   4.332   2.985  15.668 -0.2009  0.9251  2.0871
 6075TIP3   OH239715   0.887   0.614   0.773  0.4670  0.3096 -0.9079
 6075TIP3    H139716   0.974   0.603   0.809 -0.1889 -0.3413  0.5547
 6075TIP3    H239717   0.861   0.703   0.798 -0.1578 -0.2915  0.6816
 6076TIP3   OH239718   4.326   1.495   3.136  0.1192  0.3511 -0.0082
 6076TIP3    H139719   4.394   1.524   3.196 -0.5727 -0.7306  1.3497
 6076TIP3    H239720   4.369   1.431   3.080  1.0722  2.2314 -1.5266
 6077TIP3   OH239721   3.287   1.314  14.508  0.2815  0.3653  0.4084
 6077TIP3    H139722   3.349   1.248  14.478 -0.8730 -0.1071 -1.1269
 6077TIP3    H239723   3.273   1.295  14.600  0.9814 -0.7021  0.3072
 6078TIP3   OH239724   5.184   3.381  11.543 -0.8134 -0.1359 -0.0424
 6078TIP3    H139725   5.156   3.447  11.607 -0.4196 -0.8242  0.8580
 6078TIP3    H239726   5.179   3.426  11.458 -0.9480  0.9212  0.5131
 6079TIP3   OH239727   6.791   5.830  13.122  0.5674  0.0376 -0.6884
 6079TIP3    H139728   6.810   5.919  13.095 -0.0189  1.0038  1.8184
 6079TIP3    H239729   6.708   5.836  13.170  1.7490 -1.3359  1.7353
 6080TIP3   OH239730   3.556   3.807  17.260  0.6155  0.2212 -0.2883
 6080TIP3    H139731   3.520   3.782  17.346  0.1608 -0.0537 -0.5566
 6080TIP3    H239732   3.638   3.757  17.254  0.1459 -0.5445 -0.4452
 6081TIP3   OH239733   6.278   1.489   1.057  0.8299 -0.1166  0.2909
 6081TIP3    H139734   6.319   1.490   0.970  0.6056 -2.4605  0.0812
 6081TIP3    H239735   6.196   1.537   1.046  0.6893 -0.5912 -0.8707
 6082TIP3   OH239736   4.502   6.426  12.915 -1.2340  0.0377 -0.5908
 6082TIP3    H139737   4.518   6.459  12.827 -1.3029 -2.0531 -1.4312
 6082TIP3    H239738   4.583   6.381  12.939 -1.6841 -0.5625 -0.1536
 6083TIP3   OH239739   0.996   0.779   1.470 -0.4119 -0.1482  0.5557
 6083TIP3    H139740   0.920   0.804   1.522 -0.2864 -0.6354  0.9831
 6083TIP3    H239741   1.066   0.836   1.502 -0.3563 -0.3852  0.8637
 6084TIP3   OH239742   3.031   3.080  15.630 -0.2638  0.0777 -0.5134
 6084TIP3    H139743   3.105   3.021  15.616 -0.3693  0.0656 -0.9998
 6084TIP3    H239744   3.046   3.152  15.569  0.4243  1.0869  0.7874
 6085TIP3   OH239745   1.466   6.606   4.375  0.2149 -0.6874  0.1560
 6085TIP3    H139746   1.404   6.678   4.375  0.6247 -0.3099 -0.6593
 6085TIP3    H239747   1.533   6.633   4.312 -0.3761 -2.4062 -1.3051
 6086TIP3   OH239748   1.852   4.282   0.210 -0.0630  0.7753 -0.1810
 6086TIP3    H139749   1.851   4.207   0.150  0.7546  1.5223 -1.1728
 6086TIP3    H239750   1.866   4.244   0.296 -1.4481 -0.3521 -0.4053
 6087TIP3   OH239751   5.771   1.356   3.460  0.0789  0.1965 -0.2006
 6087TIP3    H139752   5.835   1.336   3.528  0.9040  3.0692  0.0186
 6087TIP3    H239753   5.789   1.293   3.390  1.8425 -0.3187  0.6523
 6088TIP3   OH239754   4.153   4.048   5.074 -0.3081  0.2027  0.2278
 6088TIP3    H139755   4.201   4.050   5.157  1.7456  1.3993 -0.9108
 6088TIP3    H239756   4.065   4.078   5.097  0.2730  0.7248  1.9433
 6089TIP3   OH239757   4.522   1.960  16.582  0.3055 -0.1351 -0.1515
 6089TIP3    H139758   4.558   1.981  16.496 -1.5701  0.2913 -0.8711
 6089TIP3    H239759   4.514   2.045  16.626  0.8967 -0.3105  0.2966
 6090TIP3   OH239760   3.595   0.738   1.807 -0.0125  0.1211  0.9063
 6090TIP3    H139761   3.545   0.696   1.737 -0.4402  0.7000  0.8523
 6090TIP3    H239762   3.644   0.667   1.848  1.0225 -0.0953 -0.6140
 6091TIP3   OH239763   6.445   0.256  16.948 -0.6701  0.4341  0.5985
 6091TIP3    H139764   6.461   0.350  16.957  0.8035  0.2109  0.6298
 6091TIP3    H239765   6.504   0.215  17.012 -1.4661 -0.5055  0.7560
 6092TIP3   OH239766   2.654   0.035  11.880 -0.3031 -0.4809  0.1939
 6092TIP3    H139767   2.591  -0.037  11.893  2.7952 -3.3446  0.8074
 6092TIP3    H239768   2.688   0.021  11.792  3.3598 -2.6689  1.7232
 6093TIP3   OH239769   1.724   2.062  15.088  0.1711 -0.0856  0.6140
 6093TIP3    H139770   1.659   2.069  15.159  0.0335  0.4117  0.4445
 6093TIP3    H239771   1.694   2.125  15.023 -2.2276 -3.4323 -1.9293
 6094TIP3   OH239772   2.040   3.933   5.390 -0.6130  0.2030 -0.0509
 6094TIP3    H139773   2.081   3.907   5.307 -0.3663  0.8946 -0.1499
 6094TIP3    H239774   1.953   3.964   5.364 -1.2275 -1.2651  0.1589
 6095TIP3   OH239775   5.450   3.951  15.039  0.2039  0.3469  0.0863
 6095TIP3    H139776   5.469   4.037  15.002 -0.1581  1.0377  1.4338
 6095TIP3    H239777   5.523   3.933  15.098 -1.0388  1.0422  1.9447
 6096TIP3   OH239778   4.753   3.749   2.108  0.0435  0.2264  0.2937
 6096TIP3    H139779   4.690   3.768   2.177 -1.3663  0.6099 -1.0303
 6096TIP3    H239780   4.811   3.825   2.107  1.7116 -0.9100  2.6919
 6097TIP3   OH239781   6.529   0.018   2.933 -0.0495 -0.4024  0.2974
 6097TIP3    H139782   6.437   0.043   2.938 -0.2594 -1.1405  0.2255
 6097TIP3    H239783   6.533  -0.046   2.862  0.4977 -0.4847  0.3969
 6098TIP3   OH239784   0.777   3.790  14.245 -0.2591 -0.6897  0.0968
 6098TIP3    H139785   0.866   3.753  14.247  0.0487 -0.1344 -1.6219
 6098TIP3    H239786   0.736   3.749  14.169 -1.2747 -0.4697  0.5183
 6099TIP3   OH239787   3.834   5.919  13.406 -0.3164  0.2087 -0.6710
 6099TIP3    H139788   3.909   5.976  13.423  0.2885 -1.1788  1.8222
 6099TIP3    H239789   3.822   5.870  13.487 -0.9764 -3.0036 -2.5176
 6100TIP3   OH239790   3.571   3.365   3.189  0.4212 -0.2022  0.1005
 6100TIP3    H139791   3.660   3.397   3.176  0.3798  0.1784  0.7102
 6100TIP3    H239792   3.535   3.421   3.257 -0.4045 -0.1391 -0.3776
 6101TIP3   OH239793   0.092   5.611  11.967 -0.6070 -0.5614  0.0167
 6101TIP3    H139794   0.121   5.546  12.031 -1.4100 -1.1420 -0.1918
 6101TIP3    H239795   0.103   5.695  12.011 -0.0184 -0.8651  0.4720
 6102TIP3   OH239796   3.472   6.532  16.611  0.2290  0.5641 -0.3269
 6102TIP3    H139797   3.486   6.483  16.530  0.2074 -1.0979  0.6174
 6102TIP3    H239798   3.419   6.473  16.666 -1.3374  2.3720  0.2303
 6103TIP3   OH239799   3.785   4.838  16.282 -0.6067  0.5533  0.3998
 6103TIP3    H139800   3.785   4.743  16.296  0.0665  0.6108  0.8498
 6103TIP3    H239801   3.864   4.854  16.229 -0.4978  0.9044  0.6655
 6104TIP3   OH239802   4.876   1.352   3.122  0.2273 -0.1666 -0.1584
 6104TIP3    H139803   4.968   1.378   3.113  0.6301 -0.2188  2.7182
 6104TIP3    H239804   4.849   1.326   3.034  3.5185 -1.9881 -0.7879
 6105TIP3   OH239805   0.306   4.600  14.505 -0.2328 -0.3359 -0.3993
 6105TIP3    H139806   0.256   4.559  14.575 -0.0920 -0.7356 -0.5292
 6105TIP3    H239807   0.264   4.685  14.493  0.6140  0.3199  1.1105
 6106TIP3   OH239808   3.951   4.941   2.767  0.0567 -0.1007  0.0390
 6106TIP3    H139809   4.011   4.943   2.841 -0.5586 -3.8128  0.8390
 6106TIP3    H239810   4.008   4.949   2.690  0.8001  2.7798  0.7558
 6107TIP3   OH239811   5.603   1.370   0.591 -0.2691  0.2751 -0.2424
 6107TIP3    H139812   5.529   1.348   0.648 -0.0966  0.3721  0.0200
 6107TIP3    H239813   5.564   1.376   0.503 -0.6069  0.4999 -0.0806
 6108TIP3   OH239814   5.888   3.701   2.677  0.0736 -0.2651  0.2088
 6108TIP3    H139815   5.969   3.657   2.650 -0.9959 -2.4195  0.3100
 6108TIP3    H239816   5.860   3.748   2.599  1.1954  0.1818  0.0542
 6109TIP3   OH239817   1.300   2.647   1.430 -0.2619  0.5207  0.6549
 6109TIP3    H139818   1.334   2.735   1.414  0.9825  0.0780  0.7474
 6109TIP3    H239819   1.282   2.612   1.342 -0.2099  0.6642  0.5867
 6110TIP3   OH239820   0.675   1.894  12.216  0.1149  0.1636 -1.0342
 6110TIP3    H139821   0.614   1.853  12.156 -0.9787  1.0074 -0.5292
 6110TIP3    H239822   0.761   1.874  12.180 -0.2875 -2.8299 -0.6571
 6111TIP3   OH239823   0.759   1.104  11.442  0.3482  0.6217 -0.2409
 6111TIP3    H139824   0.718   1.054  11.371  0.0240  0.1257  0.2834
 6111TIP3    H239825   0.815   1.168  11.397  1.0308 -0.4230 -0.9193
 6112TIP3   OH239826   0.601   5.540  16.364  0.2098 -0.0676  0.0639
 6112TIP3    H139827   0.632   5.515  16.277 -1.3367 -0.0396 -0.5204
 6112TIP3    H239828   0.547   5.466  16.393 -1.5586  1.0603 -0.2123
 6113TIP3   OH239829   0.077   0.653   3.331 -0.3472 -0.0875  0.0285
 6113TIP3    H139830   0.114   0.652   3.243 -0.7487  0.9679 -0.1773
 6113TIP3    H239831   0.074   0.561   3.357  0.1518 -0.3826 -0.8962
 6114TIP3   OH239832   5.823   2.897  16.814  0.3565  0.4011  0.0864
 6114TIP3    H139833   5.887   2.853  16.758  0.5531  0.5642  0.1800
 6114TIP3    H239834   5.823   2.988  16.783  0.8776  0.6234  0.7091
 6115TIP3   OH239835   4.840   6.220  15.996 -0.4864 -0.0558  0.2677
 6115TIP3    H139836   4.892   6.203  15.918 -0.0256  0.9888  0.3377
 6115TIP3    H239837   4.904   6.222  16.068 -0.5557  1.5576  0.3121
 6116TIP3   OH239838   1.516   6.397   6.120 -0.0760  0.0852 -0.4294
 6116TIP3    H139839   1.592   6.452   6.099 -0.0563  0.3319  0.2752
 6116TIP3    H239840   1.462   6.452   6.176 -0.3395 -0.4103 -0.1960
 6117TIP3   OH239841   2.084   1.555   5.289 -0.6502 -0.2168  0.2060
 6117TIP3    H139842   2.074   1.526   5.199 -0.2308  1.1645 -0.3055
 6117TIP3    H239843   1.996   1.551   5.326 -0.8666 -0.5474 -0.3432
 6118TIP3   OH239844   5.378   4.109   1.245 -0.0045  0.1960 -0.1978
 6118TIP3    H139845   5.431   4.050   1.192 -0.4530  0.1628 -0.6215
 6118TIP3    H239846   5.290   4.072   1.241  0.0745 -0.1843  1.1339
 6119TIP3   OH239847   5.491   0.301  14.260  0.0526  0.2549  0.5175
 6119TIP3    H139848   5.453   0.389  14.254  0.9518  0.5763 -1.3890
 6119TIP3    H239849   5.427   0.244  14.217  0.6342  0.4222 -0.6003
 6120TIP3   OH239850   3.660   6.598   3.037 -0.1733  1.0007 -0.0852
 6120TIP3    H139851   3.617   6.519   3.005  0.8835  1.3913 -2.7622
 6120TIP3    H239852   3.595   6.667   3.023  0.0029  1.0462 -0.7308
 6121TIP3   OH239853   2.734   0.075  15.792 -0.3094 -0.1072 -0.1468
 6121TIP3    H139854   2.748   0.076  15.886 -0.9422 -0.9858 -0.0230
 6121TIP3    H239855   2.755  -0.015  15.766  0.6983  0.3562 -0.9872
 6122TIP3   OH239856   3.614   5.558  12.409  0.4190  0.0049  0.5017
 6122TIP3    H139857   3.576   5.646  12.417 -2.2276 -1.0981  1.3208
 6122TIP3    H239858   3.658   5.558  12.324 -2.8253  1.0002 -1.3405
 6123TIP3   OH239859   4.119   2.762   1.477 -0.5188 -0.5880  0.0097
 6123TIP3    H139860   4.090   2.691   1.534 -1.7641  0.3889  0.6439
 6123TIP3    H239861   4.181   2.811   1.531 -0.5786 -0.5049  0.0030
 6124TIP3   OH239862   6.582   4.319   4.363 -0.5447 -0.0374 -0.7375
 6124TIP3    H139863   6.669   4.279   4.358 -0.7878 -0.5558 -0.9438
 6124TIP3    H239864   6.596   4.412   4.344  0.2644  0.3120  1.3781
 6125TIP3   OH239865   2.496   0.638   2.506 -0.2963  0.1849 -0.2920
 6125TIP3    H139866   2.512   0.610   2.416 -0.3089  2.8484 -1.2143
 6125TIP3    H239867   2.459   0.561   2.549 -1.6992 -0.7562 -2.9561
 6126TIP3   OH239868   4.472   5.856   4.350  0.0241  0.1282 -0.3754
 6126TIP3    H139869   4.566   5.863   4.336  0.0932  1.0388  0.4189
 6126TIP3    H239870   4.448   5.938   4.393 -0.8722 -0.6934  0.7777
 6127TIP3   OH239871   3.506   5.357  14.319  0.3319  0.0895  0.0474
 6127TIP3    H139872   3.568   5.288  14.295  0.5370  0.6301 -1.0743
 6127TIP3    H239873   3.438   5.313  14.369  0.9734 -0.7396  0.2080
 6128TIP3   OH239874   2.241   2.548   0.913 -0.5502  0.4383 -0.2304
 6128TIP3    H139875   2.150   2.530   0.937 -0.8477  1.7570 -0.2533
 6128TIP3    H239876   2.245   2.644   0.907  0.5000  0.3471 -1.5426
 6129TIP3   OH239877   1.605   3.002  13.430 -0.6526  0.1570 -0.1816
 6129TIP3    H139878   1.588   3.012  13.524  0.7798  0.2221  0.0957
 6129TIP3    H239879   1.623   2.908  13.420  2.2898  0.5698  0.2272
 6130TIP3   OH239880   0.261   1.963  13.697  0.0990  0.1788 -0.4384
 6130TIP3    H139881   0.204   1.955  13.773 -1.7927  2.2832 -1.4865
 6130TIP3    H239882   0.263   1.876  13.658 -2.9649  0.0997 -0.6487
 6131TIP3   OH239883   3.719   1.773  14.870 -0.3608  0.4430  0.3083
 6131TIP3    H139884   3.685   1.736  14.789 -2.4913  2.0794  0.3556
 6131TIP3    H239885   3.712   1.702  14.934  1.8363 -1.0284 -0.9723
 6132TIP3   OH239886   1.910   6.018   3.043 -0.7979 -0.0222 -0.0188
 6132TIP3    H139887   1.838   6.002   2.982 -0.5462 -0.1854 -0.2783
 6132TIP3    H239888   1.890   6.102   3.082 -1.9551 -0.7866  1.0910
 6133TIP3   OH239889   0.537   1.407  11.426 -0.1626  0.0420  0.2354
 6133TIP3    H139890   0.631   1.404  11.440 -0.2755 -0.5658  0.9195
 6133TIP3    H239891   0.510   1.493  11.460  0.3064  0.7616 -1.1329
 6134TIP3   OH239892   0.616   3.697  14.469  0.0322  0.6546 -0.8849
 6134TIP3    H139893   0.596   3.606  14.444  1.6363 -0.4063  1.3453
 6134TIP3    H239894   0.671   3.730  14.399  3.3957 -1.7863  0.3498
 6135TIP3   OH239895   6.727   4.446  14.180 -0.3067 -0.6739  0.3742
 6135TIP3    H139896   6.699   4.498  14.104 -1.1385 -1.5915  0.0246
 6135TIP3    H239897   6.674   4.479  14.252  1.1138  0.8168  0.8047
 6136TIP3   OH239898   0.696   3.462  14.650 -0.2802 -0.0248 -0.3141
 6136TIP3    H139899   0.645   3.477  14.729  1.2169 -2.3803  1.2537
 6136TIP3    H239900   0.783   3.497  14.670  0.2702 -1.1364 -0.6732
 6137TIP3   OH239901   2.550   4.767  14.355  0.2704 -0.2601  0.1898
 6137TIP3    H139902   2.462   4.803  14.361 -0.5813 -2.2489  0.5306
 6137TIP3    H239903   2.576   4.782  14.264 -2.3573 -3.6058 -1.3564
 6138TIP3   OH239904   1.701   3.556   5.197  0.4974  1.0462  0.2900
 6138TIP3    H139905   1.634   3.586   5.259  0.8846  0.0033  1.2488
 6138TIP3    H239906   1.784   3.589   5.233  0.4936  3.0992 -1.3545
 6139TIP3   OH239907   3.016   2.108   1.814 -0.0773 -0.2880 -0.2685
 6139TIP3    H139908   3.091   2.154   1.852 -0.0018 -1.1099  0.5939
 6139TIP3    H239909   2.962   2.084   1.889 -1.8684  1.3826 -0.9434
 6140TIP3   OH239910   3.796   2.485   3.778 -0.0692 -0.4487 -0.3812
 6140TIP3    H139911   3.728   2.533   3.827 -0.5956 -1.7574  0.2080
 6140TIP3    H239912   3.756   2.466   3.694  0.2637  0.4003 -0.7499
 6141TIP3   OH239913   0.306   5.576   2.230  0.1701 -0.0182  0.1241
 6141TIP3    H139914   0.376   5.525   2.270  2.0897  0.9906 -1.7714
 6141TIP3    H239915   0.267   5.516   2.166  2.8581  0.8578 -2.5820
 6142TIP3   OH239916   5.495   2.382   0.995 -0.0213 -0.6329  0.3486
 6142TIP3    H139917   5.557   2.371   1.067  0.3915 -0.2775  0.0571
 6142TIP3    H239918   5.458   2.469   1.008  0.0003 -0.5969  0.1771
 6143TIP3   OH239919   1.385   0.707   0.470  0.2290  0.0119  0.1657
 6143TIP3    H139920   1.365   0.615   0.451 -0.7987  0.2071  0.2577
 6143TIP3    H239921   1.322   0.757   0.417  1.9122  0.7252 -1.2479
 6144TIP3   OH239922   3.981   4.727  13.828  0.2700  0.0284  0.0517
 6144TIP3    H139923   4.052   4.784  13.797  0.5220 -1.0739 -1.5012
 6144TIP3    H239924   4.010   4.697  13.913  1.9094 -0.7530 -0.7415
 6145TIP3   OH239925   4.866   4.415   1.327 -0.0647  0.4821 -0.2225
 6145TIP3    H139926   4.924   4.361   1.273 -0.3170  0.7814 -0.8044
 6145TIP3    H239927   4.805   4.454   1.264  0.5205  1.9757  0.0950
 6146TIP3   OH239928   2.775   2.439   3.227 -0.4894  0.3424  0.5023
 6146TIP3    H139929   2.842   2.430   3.295 -1.3702  0.1809  1.3618
 6146TIP3    H239930   2.749   2.531   3.231  0.3395  0.6414 -0.4857
 6147TIP3   OH239931   3.695   5.717   1.180 -0.4360 -0.5425  0.0655
 6147TIP3    H139932   3.738   5.791   1.223 -0.7278  0.5497 -1.4396
 6147TIP3    H239933   3.631   5.686   1.245  1.4518 -1.1933  1.7193
 6148TIP3   OH239934   6.658   5.358  12.112 -0.2235  0.5758  0.2312
 6148TIP3    H139935   6.590   5.319  12.057 -0.4188  0.4893  0.5303
 6148TIP3    H239936   6.690   5.433  12.061  0.0919  0.0877 -0.3112
 6149TIP3   OH239937   4.142   6.219  14.170 -0.2512 -0.3493 -0.1202
 6149TIP3    H139938   4.201   6.245  14.240  0.1410 -1.3019 -0.0898
 6149TIP3    H239939   4.166   6.276  14.096 -0.5977  0.5810  0.4545
 6150TIP3   OH239940   4.533   0.467   1.151 -0.3555 -0.4730  0.3056
 6150TIP3    H139941   4.500   0.557   1.151  1.8473  0.3936 -0.3245
 6150TIP3    H239942   4.455   0.413   1.135 -2.1183  1.0965  2.8600
 6151TIP3   OH239943   1.848   3.903   3.709  0.0205 -0.1578 -0.7377
 6151TIP3    H139944   1.837   3.977   3.768  0.3639 -0.9891  0.4011
 6151TIP3    H239945   1.763   3.894   3.665 -0.0125  0.9108 -0.9248
 6152TIP3   OH239946   2.012   1.038   6.127  0.5011 -0.1352  0.2661
 6152TIP3    H139947   2.009   1.102   6.198 -0.7749 -0.5266  0.5886
 6152TIP3    H239948   2.020   1.090   6.048 -1.5833  0.5343  0.4379
 6153TIP3   OH239949   3.730   2.815   0.502 -0.0291 -0.0820 -0.2205
 6153TIP3    H139950   3.674   2.737   0.503 -0.1154 -0.0191  0.8191
 6153TIP3    H239951   3.676   2.883   0.541  0.6368  0.0861  0.4163
 6154TIP3   OH239952   3.249   5.172  16.522  0.1493  0.6717 -0.5767
 6154TIP3    H139953   3.294   5.251  16.494 -0.8200  0.7273 -2.1034
 6154TIP3    H239954   3.308   5.101  16.499 -0.3713  0.7604 -2.3139
 6155TIP3   OH239955   4.129   4.302  11.301 -0.1726  0.1254  0.7001
 6155TIP3    H139956   4.151   4.320  11.392 -1.9177 -2.6561  1.8059
 6155TIP3    H239957   4.040   4.337  11.290  0.2325  0.9401 -0.1490
 6156TIP3   OH239958   6.299   4.152   4.051 -0.5379  0.2624  0.9740
 6156TIP3    H139959   6.298   4.230   4.107 -2.0523  0.7646  0.3153
 6156TIP3    H239960   6.208   4.122   4.052  0.0853 -1.7780  1.5488
 6157TIP3   OH239961   1.250   2.571   2.691  0.7599 -0.2747  0.0460
 6157TIP3    H139962   1.240   2.517   2.613  0.5523  1.6990 -1.3646
 6157TIP3    H239963   1.198   2.526   2.758 -0.3238 -1.2157 -1.3739
 6158TIP3   OH239964   1.364   0.582  11.878 -0.3922  0.3367  0.0421
 6158TIP3    H139965   1.289   0.636  11.854 -1.1833 -0.2165  1.1472
 6158TIP3    H239966   1.440   0.635  11.857 -1.0305  0.4449 -2.2449
 6159TIP3   OH239967   6.274   1.804  16.579  0.0590 -0.2662 -0.3316
 6159TIP3    H139968   6.365   1.776  16.579  0.1442  0.0100 -0.5922
 6159TIP3    H239969   6.249   1.806  16.671  0.8459  1.3805 -0.1245
 6160TIP3   OH239970   6.474   2.131   5.223 -0.0249  0.0780 -0.4775
 6160TIP3    H139971   6.403   2.075   5.194 -0.2377  1.4730 -3.0015
 6160TIP3    H239972   6.538   2.072   5.262 -1.7739 -1.4141  0.2457
 6161TIP3   OH239973   5.639   4.517   0.522  0.3856  0.3564  0.2155
 6161TIP3    H139974   5.614   4.608   0.538 -0.0303  0.6392 -1.8459
 6161TIP3    H239975   5.556   4.470   0.515  0.5374  0.2634 -1.0718
 6162TIP3   OH239976   4.222   0.651   0.325 -0.1656 -0.5805 -0.0236
 6162TIP3    H139977   4.220   0.596   0.246  0.4016  0.2058 -0.6021
 6162TIP3    H239978   4.249   0.592   0.395  0.9719 -0.9481 -0.7336
 6163TIP3   OH239979   0.618   0.709   2.033  0.1096 -0.1153  0.2556
 6163TIP3    H139980   0.613   0.613   2.034  0.0006 -0.1199 -0.4759
 6163TIP3    H239981   0.527   0.738   2.022  0.1630  0.0690  0.2956
 6164TIP3   OH239982   6.615   5.028   5.701  0.0284 -0.4404  0.2485
 6164TIP3    H139983   6.644   4.974   5.773 -0.1684 -1.1303 -0.1789
 6164TIP3    H239984   6.636   4.978   5.622  1.1241  0.7194 -0.2361
 6165TIP3   OH239985   0.402   2.891   0.051  0.2115  0.2462 -0.3976
 6165TIP3    H139986   0.403   2.816  -0.009  1.1001  0.3242 -0.4944
 6165TIP3    H239987   0.368   2.856   0.133  0.6774 -0.2776 -0.4258
 6166TIP3   OH239988   0.105   5.272   5.857  0.0167 -0.3129 -0.3840
 6166TIP3    H139989   0.106   5.192   5.909  0.7393  0.3202  0.6087
 6166TIP3    H239990   0.142   5.247   5.773  0.3270 -0.9924 -0.0495
 6167TIP3   OH239991   6.768   0.469  11.977  0.6324  0.1492 -0.7096
 6167TIP3    H139992   6.719   0.401  12.023  0.4659  1.1681  0.6706
 6167TIP3    H239993   6.719   0.483  11.896 -1.1046  0.7797  0.3972
 6168TIP3   OH239994   5.398   1.802   1.917  0.6691 -0.1890  0.1303
 6168TIP3    H139995   5.362   1.769   1.835  0.3620  0.7526 -0.1278
 6168TIP3    H239996   5.484   1.761   1.924 -0.0557 -1.7385  0.2915
 6169TIP3   OH239997   0.858   0.324   5.849  0.0450  0.0828 -0.1222
 6169TIP3    H139998   0.866   0.235   5.883  1.9731 -0.4998 -1.8997
 6169TIP3    H239999   0.919   0.375   5.902 -0.7404  0.3009  0.6059
 6170TIP3   OH240000   2.831   6.420  16.378  0.3066  0.1299 -0.8030
 6170TIP3    H140001   2.758   6.364  16.405 -2.1969  2.5585 -2.1187
 6170TIP3    H240002   2.861   6.382  16.296  1.7485 -1.8317  0.5311
 6171TIP3   OH240003   2.709   3.008  13.263  0.0384  0.8037 -0.0896
 6171TIP3    H140004   2.798   3.035  13.241  0.1875  0.4570  0.0812
 6171TIP3    H240005   2.657   3.029  13.185  0.3724  0.5100 -0.3946
 6172TIP3   OH240006   1.984   4.037  14.793 -1.0552 -0.2508  0.2954
 6172TIP3    H140007   1.923   4.101  14.829 -0.0177  0.8143  0.2116
 6172TIP3    H240008   2.012   4.074  14.710 -0.5699 -0.8974  0.1570
 6173TIP3   OH240009   2.265   6.728  13.908 -0.0088  0.1228 -0.5428
 6173TIP3    H140010   2.263   6.673  13.985  0.0354  2.3445  1.1477
 6173TIP3    H240011   2.352   6.714  13.870  0.2236 -0.4957  0.2072
 6174TIP3   OH240012   5.715   4.590  13.518  0.2137  0.6615  0.2588
 6174TIP3    H140013   5.624   4.563  13.530  0.2558  0.1304 -0.5293
 6174TIP3    H240014   5.729   4.584  13.424  1.0081  0.9356  0.3547
 6175TIP3   OH240015   0.544   2.990   4.679 -0.4370 -0.1347 -0.3657
 6175TIP3    H140016   0.580   3.025   4.760 -1.1865 -0.5683  0.1678
 6175TIP3    H240017   0.619   2.979   4.622  0.1999 -0.5132  0.5300
 6176TIP3   OH240018   5.826   0.107  15.090  0.6732  0.0049 -0.0266
 6176TIP3    H140019   5.776   0.146  15.017  1.6128 -0.0368 -0.7117
 6176TIP3    H240020   5.762   0.056  15.139 -0.1405  0.6845 -0.3635
 6177TIP3   OH240021   3.418   3.304  16.164 -0.4520 -0.2892 -0.4514
 6177TIP3    H140022   3.337   3.254  16.148  0.5037 -1.9692 -0.2464
 6177TIP3    H240023   3.387   3.387  16.200 -2.0606 -1.3583  0.7987
 6178TIP3   OH240024   3.698   2.545   1.185  0.3636  0.4322 -0.5807
 6178TIP3    H140025   3.694   2.450   1.180  0.9561  0.3371  0.3012
 6178TIP3    H240026   3.611   2.575   1.160 -0.1928 -0.4097  0.2583
 6179TIP3   OH240027   2.892   2.475  11.893  0.3170  0.5274  0.0348
 6179TIP3    H140028   2.967   2.535  11.888  0.9445 -0.1761  0.6850
 6179TIP3    H240029   2.907   2.413  11.821  0.0752  0.6979 -0.1637
 6180TIP3   OH240030   6.209   6.744  15.758  0.3752  0.1617  0.9160
 6180TIP3    H140031   6.279   6.682  15.740 -1.2939 -1.2170 -1.4703
 6180TIP3    H240032   6.140   6.692  15.799 -0.8096  0.5310 -0.5319
 6181TIP3   OH240033   6.006   5.626   0.212 -0.2129  0.2675 -0.8573
 6181TIP3    H140034   5.947   5.695   0.241  0.1876 -0.2500  1.3697
 6181TIP3    H240035   6.086   5.671   0.187 -0.7225  0.7726 -1.6197
 6182TIP3   OH240036   1.823   2.960   3.294 -0.2070  0.1894  0.1886
 6182TIP3    H140037   1.782   2.913   3.367 -1.0866 -0.1457 -0.4982
 6182TIP3    H240038   1.806   2.904   3.218 -1.1026  1.5004 -0.6162
 6183TIP3   OH240039   4.530   0.366  12.605  0.0122  0.5392 -0.5545
 6183TIP3    H140040   4.484   0.290  12.570 -1.2537  0.1876  1.6819
 6183TIP3    H240041   4.494   0.440  12.557 -0.5173 -0.0580 -1.0896
 6184TIP3   OH240042   1.076   5.690  11.832 -0.8290 -0.2479 -0.7267
 6184TIP3    H140043   1.107   5.669  11.744 -1.6935  0.6728 -1.2695
 6184TIP3    H240044   1.125   5.768  11.857 -0.8623 -0.2814 -0.5556
 6185TIP3   OH240045   0.600   5.189  14.890 -0.3500  0.6748  0.1661
 6185TIP3    H140046   0.570   5.123  14.952  1.6607  1.6055  2.2719
 6185TIP3    H240047   0.543   5.264  14.905 -2.1724 -0.2170 -1.7322
 6186TIP3   OH240048   6.749   5.400   6.302  0.1334 -0.0980  0.5760
 6186TIP3    H140049   6.800   5.319   6.304  0.4544  0.0683 -0.3461
 6186TIP3    H240050   6.790   5.453   6.234  0.5511  1.2757  1.8366
 6187TIP3   OH240051   5.176   0.531  13.973  0.2244 -0.0447 -0.1037
 6187TIP3    H140052   5.150   0.483  14.052  0.2345 -1.6301 -1.0093
 6187TIP3    H240053   5.266   0.503  13.957 -0.1983 -0.7523 -1.3725
 6188TIP3   OH240054   5.319   1.100   5.024  0.1176  0.3412  0.1012
 6188TIP3    H140055   5.329   1.072   5.115 -2.2862  0.1919  0.3904
 6188TIP3    H240056   5.407   1.095   4.987  0.8788 -1.1456  1.9740
 6189TIP3   OH240057   3.580   0.215   3.843 -0.5074 -0.4992 -0.3130
 6189TIP3    H140058   3.566   0.275   3.770  0.1979 -2.3771 -2.0963
 6189TIP3    H240059   3.506   0.230   3.902 -1.0639  1.1186 -1.3836
 6190TIP3   OH240060   5.954   0.359   3.052  0.3049 -0.7782  0.4209
 6190TIP3    H140061   5.936   0.414   2.975 -1.9980 -2.3244 -0.2503
 6190TIP3    H240062   6.049   0.357   3.058  0.5115  1.5046 -0.8085
 6191TIP3   OH240063   6.666   5.889  12.818  0.9015 -0.2853 -0.2595
 6191TIP3    H140064   6.593   5.898  12.879  0.8543  0.9599 -0.4879
 6191TIP3    H240065   6.733   5.948  12.850  1.8806 -1.4927  0.0033
 6192TIP3   OH240066   0.239   3.649  11.410  0.4069 -0.2737 -0.3908
 6192TIP3    H140067   0.333   3.664  11.396  0.4276 -1.1960 -1.2969
 6192TIP3    H240068   0.213   3.592  11.338 -0.7649 -0.3706  0.1001
 6193TIP3   OH240069   1.734   4.413   1.870  0.3399 -0.5191 -0.0538
 6193TIP3    H140070   1.671   4.406   1.798 -0.0702 -1.4072  0.3679
 6193TIP3    H240071   1.709   4.493   1.917  0.3554 -0.1604 -0.6463
 6194TIP3   OH240072   4.592   0.602  11.874  0.2832 -0.2688 -0.8274
 6194TIP3    H140073   4.680   0.566  11.882  0.0196 -0.4380  2.9238
 6194TIP3    H240074   4.606   0.695  11.858  1.1466 -0.3083 -0.3793
 6195TIP3   OH240075   1.469   2.353   4.093 -0.2913 -0.1484 -0.2428
 6195TIP3    H140076   1.394   2.300   4.067  0.7498 -0.4924 -2.7384
 6195TIP3    H240077   1.536   2.290   4.117  0.5184  0.0020 -1.9754
 6196TIP3   OH240078   4.948   1.904  15.440  0.5547  0.4888 -0.1664
 6196TIP3    H140079   4.967   1.905  15.346  1.1652  0.1467 -0.0518
 6196TIP3    H240080   5.034   1.901  15.482  0.2760  0.2700  0.3992
 6197TIP3   OH240081   0.727   4.837  14.708 -0.1147  0.4725  0.5903
 6197TIP3    H140082   0.711   4.747  14.737 -0.8654  0.8093  1.2275
 6197TIP3    H240083   0.816   4.856  14.738  0.0573 -0.0616  0.4306
 6198TIP3   OH240084   3.789   0.634  12.504 -0.2812 -0.0339  0.3438
 6198TIP3    H140085   3.746   0.557  12.539 -0.6192 -0.4933 -1.0158
 6198TIP3    H240086   3.751   0.646  12.417  0.8401  0.7838 -0.0656
 6199TIP3   OH240087   6.532   2.232   0.321 -1.0576 -0.1571 -0.7256
 6199TIP3    H140088   6.495   2.166   0.379 -0.3079 -1.7577 -2.0171
 6199TIP3    H240089   6.459   2.256   0.263 -1.7603  1.3253  0.6764
 6200TIP3   OH240090   3.453   0.006   4.711  0.0284  0.3446  0.6870
 6200TIP3    H140091   3.475   0.060   4.635 -1.7385 -1.3303 -1.1131
 6200TIP3    H240092   3.506  -0.073   4.700 -1.1146 -0.4148  0.5230
 6201TIP3   OH240093   4.540   4.454   4.013 -0.7614  0.8258  0.0339
 6201TIP3    H140094   4.610   4.441   3.950 -1.9328 -1.0773 -0.9805
 6201TIP3    H240095   4.460   4.437   3.963 -1.9111  1.9800  1.3806
 6202TIP3   OH240096   1.657   3.927   2.308  0.4558  0.1876  0.4048
 6202TIP3    H140097   1.579   3.918   2.362  0.1696 -0.7687 -0.1574
 6202TIP3    H240098   1.675   4.021   2.309 -0.4377  0.3689  0.8990
 6203TIP3   OH240099   2.053   2.425  15.459  0.4927 -0.1445 -0.3639
 6203TIP3    H140100   2.117   2.438  15.529  1.2215 -1.1048 -0.8258
 6203TIP3    H240101   1.973   2.399  15.505  0.7244  0.0314  0.1552
 6204TIP3   OH240102   2.190   2.836  11.650 -0.2767 -0.0409 -0.0285
 6204TIP3    H140103   2.191   2.760  11.592  0.1481  0.8436 -1.2264
 6204TIP3    H240104   2.109   2.827  11.701  0.2094 -1.7331  0.4896
 6205TIP3   OH240105   3.519   2.338   2.259 -0.2037  0.0557  0.0669
 6205TIP3    H140106   3.548   2.292   2.338 -0.6009 -0.1771  0.0754
 6205TIP3    H240107   3.558   2.425   2.267  3.0714 -1.0982 -1.3555
 6206TIP3   OH240108   4.798   0.502   2.907 -0.0271 -1.0315  0.0992
 6206TIP3    H140109   4.716   0.457   2.929 -0.0327 -1.4276 -0.6731
 6206TIP3    H240110   4.854   0.433   2.872  0.1103 -0.5043 -0.7384
 6207TIP3   OH240111   6.689   3.888  15.544 -0.0137  0.2075  0.3126
 6207TIP3    H140112   6.689   3.853  15.633  0.9216 -1.2758 -0.2348
 6207TIP3    H240113   6.702   3.982  15.555  1.3254 -0.1045  1.7169
 6208TIP3   OH240114   4.865   3.882  11.082  0.4274  0.5114  0.2668
 6208TIP3    H140115   4.946   3.914  11.044  1.4142 -1.5093  0.5310
 6208TIP3    H240116   4.861   3.923  11.169  0.5688  1.4978 -0.1861
 6209TIP3   OH240117   4.508   3.155  11.356 -1.0868 -0.4050 -0.2829
 6209TIP3    H140118   4.551   3.221  11.409  3.4391 -3.7824  0.8631
 6209TIP3    H240119   4.526   3.180  11.265  0.9943 -0.2248  0.1412
 6210TIP3   OH240120   0.620   0.239  14.432  0.1081 -0.1351  0.1394
 6210TIP3    H140121   0.606   0.269  14.522 -2.0662 -1.5004  0.3515
 6210TIP3    H240122   0.670   0.308  14.391  0.3758  0.9550  2.1507
 6211TIP3   OH240123   5.554   0.494   5.448  0.8995  0.1068  0.4260
 6211TIP3    H140124   5.468   0.478   5.409  1.6500  0.4070 -1.4794
 6211TIP3    H240125   5.602   0.544   5.381  3.4024 -2.1670  0.3147
 6212TIP3   OH240126   2.389   0.729  11.830 -0.3957 -0.3090  0.4313
 6212TIP3    H140127   2.483   0.713  11.841  0.6240  2.2890 -2.7557
 6212TIP3    H240128   2.372   0.807  11.883 -0.1828  0.5078 -0.6737
 6213TIP3   OH240129   4.329   3.739  13.459  0.5538 -0.1270 -0.3963
 6213TIP3    H140130   4.237   3.737  13.485 -0.1793  1.8534 -2.5444
 6213TIP3    H240131   4.372   3.790  13.528 -0.1406 -0.1191  0.0444
 6214TIP3   OH240132   6.025   5.735  15.232  0.0817  0.5520  0.9466
 6214TIP3    H140133   5.932   5.720  15.215  0.3143  0.2342 -0.0696
 6214TIP3    H240134   6.063   5.754  15.147  1.2792 -1.0879  1.0699
 6215TIP3   OH240135   2.742   6.753  10.993  0.6024 -0.4821 -0.5896
 6215TIP3    H140136   2.774   6.674  11.035 -0.6130 -1.3057 -1.1776
 6215TIP3    H240137   2.681   6.722  10.926 -1.3424  1.0071  0.3912
 6216TIP3   OH240138   0.352   2.812  17.079  0.8815  0.3824 -0.2350
 6216TIP3    H140139   0.289   2.816  17.007  1.6240 -0.2420 -0.9343
 6216TIP3    H240140   0.330   2.732  17.125 -0.2893  1.3220  0.9192
 6217TIP3   OH240141   4.977   5.130   3.007 -0.8748 -0.1768  0.7585
 6217TIP3    H140142   4.940   5.103   3.091 -1.0835 -2.7234 -0.0522
 6217TIP3    H240143   5.071   5.116   3.016 -0.6300  1.5535  1.2016
 6218TIP3   OH240144   4.213   0.092   4.040  0.4700 -0.6304 -0.2261
 6218TIP3    H140145   4.221   0.147   3.963  2.3000  1.3489  1.2577
 6218TIP3    H240146   4.247   0.007   4.013 -0.2642 -0.4228 -1.9365
 6219TIP3   OH240147   3.048   3.729  16.543 -0.8155 -0.3738 -0.3300
 6219TIP3    H140148   2.974   3.748  16.601 -0.5483 -0.1563 -0.0549
 6219TIP3    H240149   3.117   3.699  16.602 -0.7673 -0.8363 -0.6112
 6220TIP3   OH240150   0.797   1.929  14.909 -0.2544 -0.5301 -0.5588
 6220TIP3    H140151   0.807   2.008  14.963 -2.4725 -0.3352 -0.3597
 6220TIP3    H240152   0.862   1.868  14.944  0.8857  0.8777 -0.1307
 6221TIP3   OH240153   4.742   1.378   1.251  0.6445  1.3409 -0.4109
 6221TIP3    H140154   4.733   1.283   1.249  1.0032  1.2958  0.0965
 6221TIP3    H240155   4.665   1.409   1.298  1.8290  1.1144  1.7887
 6222TIP3   OH240156   0.603   1.622  12.368  0.2044 -0.3434 -0.7443
 6222TIP3    H140157   0.699   1.625  12.378  0.2777 -1.3138 -1.0409
 6222TIP3    H240158   0.582   1.528  12.370 -0.4685 -0.3013 -3.1529
 6223TIP3   OH240159   2.410   1.072  10.964 -0.0361  0.1766  0.8412
 6223TIP3    H140160   2.480   1.008  10.953 -0.4853 -0.4056  1.3246
 6223TIP3    H240161   2.418   1.130  10.887  0.6348 -0.2004  0.6208
 6224TIP3   OH240162   1.942   5.067  17.338  0.0376 -0.1312  0.0899
 6224TIP3    H140163   1.934   5.161  17.358 -1.3148 -0.1465 -0.2592
 6224TIP3    H240164   2.034   5.047  17.351  0.2445  1.1329  0.7112
 6225TIP3   OH240165   1.697   0.733   3.258  0.8557  0.5783 -0.4395
 6225TIP3    H140166   1.695   0.693   3.345 -1.3355  0.3648 -0.5251
 6225TIP3    H240167   1.759   0.805   3.267 -2.0902  3.1222  2.5872
 6226TIP3   OH240168   4.457   4.219   2.122  0.2014 -0.7902  0.0366
 6226TIP3    H140169   4.545   4.249   2.099  0.3106 -1.3659 -0.3125
 6226TIP3    H240170   4.457   4.217   2.218  0.1623  0.3754  0.0803
 6227TIP3   OH240171   3.683   1.410   0.251 -0.6622  0.4641 -0.0119
 6227TIP3    H140172   3.692   1.486   0.194 -0.5287  1.3310  1.1412
 6227TIP3    H240173   3.627   1.440   0.323  1.5182  0.3280  1.8555
 6228TIP3   OH240174   0.819   3.617   3.850 -0.1379 -0.2852 -0.0202
 6228TIP3    H140175   0.873   3.696   3.856  0.2631 -0.5736  0.1257
 6228TIP3    H240176   0.866   3.561   3.789 -0.4165 -0.4215 -0.1092
 6229TIP3   OH240177   1.429   0.083  10.780 -0.6346  0.2522 -0.2840
 6229TIP3    H140178   1.499   0.144  10.802 -1.1655  0.9653 -0.5338
 6229TIP3    H240179   1.436   0.014  10.846 -0.2294  0.7470  0.2023
 6230TIP3   OH240180   1.651   5.043   5.382 -0.0708 -0.1986 -0.6957
 6230TIP3    H140181   1.712   4.970   5.373  1.4352  1.1200 -1.5815
 6230TIP3    H240182   1.705   5.117   5.410 -1.5449  0.6369  0.0907
 6231TIP3   OH240183   1.518   6.741   3.475  0.0560 -0.1488  0.6067
 6231TIP3    H140184   1.575   6.690   3.418 -1.2794 -1.9527  0.7906
 6231TIP3    H240185   1.565   6.745   3.558  0.8722  0.3153  0.1429
 6232TIP3   OH240186   2.551   1.972  14.790 -0.1444 -0.1160 -0.1698
 6232TIP3    H140187   2.577   1.965  14.882  0.9150  0.9265 -0.3661
 6232TIP3    H240188   2.567   2.064  14.768  0.4438 -0.5430 -1.6364
 6233TIP3   OH240189   0.510   0.297  15.037  0.5590 -0.1071  0.0654
 6233TIP3    H140190   0.576   0.233  15.011 -0.0403 -1.0277  0.7379
 6233TIP3    H240191   0.432   0.245  15.058  0.2851  0.7717  1.3598
 6234TIP3   OH240192   0.745   1.170   1.252  0.4688 -0.0873  0.3074
 6234TIP3    H140193   0.741   1.266   1.259  1.4729 -0.0591  0.5834
 6234TIP3    H240194   0.832   1.152   1.216  0.7646 -0.9444  1.3979
 6235TIP3   OH240195   2.769   5.122  15.807 -0.2163  0.1613 -0.2382
 6235TIP3    H140196   2.709   5.052  15.779  0.0582  0.2396 -1.0380
 6235TIP3    H240197   2.757   5.126  15.902 -1.3826  0.0777 -0.3565
 6236TIP3   OH240198   4.738   3.133  14.462 -0.6823 -0.1888  0.0114
 6236TIP3    H140199   4.649   3.159  14.487  0.2168  2.4752  0.7398
 6236TIP3    H240200   4.777   3.212  14.426  1.3763 -1.3394 -0.4582
 6237TIP3   OH240201   4.717   2.742   2.506  0.5771  0.2324 -0.0417
 6237TIP3    H140202   4.645   2.710   2.452  0.0759  2.7996 -1.0086
 6237TIP3    H240203   4.779   2.669   2.508 -1.7810 -1.9470  0.5097
 6238TIP3   OH240204   4.755   5.702  16.541  0.6238  0.8102 -0.1287
 6238TIP3    H140205   4.797   5.780  16.505 -0.5516  2.0054  1.0125
 6238TIP3    H240206   4.721   5.656  16.464  2.9479  0.3746 -0.9971
 6239TIP3   OH240207   3.289   2.934   1.418 -0.1443  0.1821  0.8195
 6239TIP3    H140208   3.221   2.868   1.430  1.0191 -1.0728  0.6957
 6239TIP3    H240209   3.251   3.014   1.455 -1.2339 -0.7536  1.8150
 6240TIP3   OH240210   2.290   5.868  14.362  0.0883  0.5674  0.4002
 6240TIP3    H140211   2.365   5.857  14.420  0.9234  0.0873 -0.7407
 6240TIP3    H240212   2.266   5.961  14.372 -0.5827  0.2269  2.4087
 6241TIP3   OH240213   2.435   2.996   4.527 -0.2083  0.7262 -0.5136
 6241TIP3    H140214   2.362   3.044   4.566 -0.6185  0.3147 -0.7648
 6241TIP3    H240215   2.464   3.051   4.455  0.3399  1.3345  0.1501
 6242TIP3   OH240216   1.867   5.576  15.122 -0.0059 -0.0022 -0.0642
 6242TIP3    H140217   1.856   5.577  15.218 -2.2507  1.3700 -0.2553
 6242TIP3    H240218   1.835   5.490  15.096 -0.8287  0.1693  0.3314
 6243TIP3   OH240219   4.662   4.148   4.039 -0.2761  0.0915  0.1590
 6243TIP3    H140220   4.634   4.134   3.949  0.2219  1.5305 -0.2407
 6243TIP3    H240221   4.758   4.151   4.035 -0.2557  0.3260  0.6986
 6244TIP3   OH240222   6.497   3.070   6.449 -0.3270 -0.4817 -0.0867
 6244TIP3    H140223   6.515   2.979   6.425 -0.6706 -0.1031 -1.9770
 6244TIP3    H240224   6.583   3.111   6.453 -0.0930 -1.0783  1.7691
 6245TIP3   OH240225   5.241   2.548   5.103 -0.2467  0.3825  0.5934
 6245TIP3    H140226   5.219   2.641   5.099 -2.3138 -0.0968 -0.5145
 6245TIP3    H240227   5.313   2.537   5.041  0.1720  1.2685  0.9086
 6246TIP3   OH240228   4.881   6.707  11.846  0.5519 -0.0687  0.6967
 6246TIP3    H140229   4.899   6.703  11.752 -1.3671  1.3612  0.1931
 6246TIP3    H240230   4.897   6.619  11.877 -0.0955 -0.9460 -1.2698
 6247TIP3   OH240231   5.194   2.319  14.529  0.1231  0.0312  0.0883
 6247TIP3    H140232   5.216   2.247  14.470 -0.9248  0.0804 -0.3864
 6247TIP3    H240233   5.190   2.396  14.472  0.2976  0.3002  0.4366
 6248TIP3   OH240234   2.035   0.275   2.178  0.1661  0.0520  0.1367
 6248TIP3    H140235   2.032   0.231   2.263 -1.8291 -0.5444 -0.2002
 6248TIP3    H240236   2.087   0.217   2.123 -1.7069 -1.5080 -0.0626
 6249TIP3   OH240237   1.053   5.250   4.064 -0.4633 -0.7820  0.1237
 6249TIP3    H140238   0.989   5.238   4.134 -1.2368 -1.2694 -0.6621
 6249TIP3    H240239   1.109   5.172   4.070  0.6859  0.0894  1.4211
 6250TIP3   OH240240   6.104   3.338  15.146  0.4823 -0.6346 -0.1157
 6250TIP3    H140241   6.137   3.349  15.057  0.8404  1.0572  0.1872
 6250TIP3    H240242   6.155   3.266  15.183  2.5756  0.6685 -0.2882
 6251TIP3   OH240243   2.631   0.886  12.067  0.3356  0.4348  0.2560
 6251TIP3    H140244   2.622   0.849  12.154  0.2154  1.3116  0.6273
 6251TIP3    H240245   2.607   0.814  12.008 -0.2066  0.0224  0.9571
 6252TIP3   OH240246   1.993   0.873   5.835  0.3741 -0.4972 -0.5792
 6252TIP3    H140247   2.001   0.919   5.751  0.8177 -0.3499 -0.4561
 6252TIP3    H240248   2.082   0.868   5.869 -0.0273  1.3283  0.8989
 6253TIP3   OH240249   4.574   4.475  13.366 -0.1207 -0.0530  0.1687
 6253TIP3    H140250   4.652   4.509  13.322  0.4139 -0.2207  0.9686
 6253TIP3    H240251   4.502   4.494  13.306  0.3972  0.9934 -0.1418
 6254TIP3   OH240252   5.857   3.766  11.582 -0.2599 -0.4034 -0.1493
 6254TIP3    H140253   5.793   3.711  11.536 -0.1429  0.5009 -1.4583
 6254TIP3    H240254   5.940   3.721  11.571 -0.1096  0.1548 -1.4970
 6255TIP3   OH240255   2.902   2.294  13.269  0.2978 -0.0499 -0.7767
 6255TIP3    H140256   2.967   2.352  13.228  2.0207 -2.0049 -1.0021
 6255TIP3    H240257   2.869   2.241  13.197 -0.5766  0.0310 -0.4384
 6256TIP3   OH240258   6.584   4.660   4.677  0.4986 -0.6593  0.2054
 6256TIP3    H140259   6.531   4.645   4.599 -0.7331  0.9481  0.6811
 6256TIP3    H240260   6.568   4.751   4.700  4.2297  0.2477 -0.1488
 6257TIP3   OH240261   3.072   6.463  12.554 -0.3631 -0.3282  0.0038
 6257TIP3    H140262   3.022   6.382  12.561  0.5325 -0.7894  1.5383
 6257TIP3    H240263   3.098   6.484  12.644  0.7832  0.7835 -0.5427
 6258TIP3   OH240264   3.719   1.665   1.667  0.2504  0.0326 -0.2352
 6258TIP3    H140265   3.630   1.684   1.638  0.3175  1.4812  0.4085
 6258TIP3    H240266   3.767   1.644   1.587 -0.6508 -0.6951 -0.5924
 6259TIP3   OH240267   1.032   1.575   2.405 -0.1637 -0.2029  0.2508
 6259TIP3    H140268   1.111   1.613   2.444  0.6527  0.4695 -1.8749
 6259TIP3    H240269   1.045   1.481   2.411  1.2252 -0.1124 -0.7600
 6260TIP3   OH240270   6.390   6.477  15.797 -0.2965 -0.2294  0.4912
 6260TIP3    H140271   6.466   6.528  15.771 -1.5834  1.1482 -0.8341
 6260TIP3    H240272   6.418   6.386  15.790  1.7216  0.2409  1.8101
 6261TIP3   OH240273   4.394   0.581  14.114 -0.6128 -0.2526  0.2402
 6261TIP3    H140274   4.324   0.629  14.069 -1.2658 -2.1278 -0.8321
 6261TIP3    H240275   4.427   0.520  14.049  1.6948  0.2100  0.9070
 6262TIP3   OH240276   5.870   2.605   5.603  0.0445 -0.0052  0.1106
 6262TIP3    H140277   5.950   2.566   5.638 -0.6936 -1.6621  0.0648
 6262TIP3    H240278   5.831   2.652   5.676  0.5331 -0.0776  0.4199
 6263TIP3   OH240279   0.639   3.527   1.086  0.1883 -0.1097 -0.0265
 6263TIP3    H140280   0.688   3.542   1.004  0.4089 -2.3725 -0.3827
 6263TIP3    H240281   0.700   3.554   1.155  0.6419  0.2631 -0.5573
 6264TIP3   OH240282   6.005   4.052  13.772  0.3068  0.3169  0.6449
 6264TIP3    H140283   5.930   4.106  13.746 -0.7064 -1.1364  0.4218
 6264TIP3    H240284   6.027   4.084  13.860 -0.4115  0.9287  0.6165
 6265TIP3   OH240285   6.220   0.569  10.734 -0.0764  0.5013 -0.1847
 6265TIP3    H140286   6.200   0.482  10.769 -1.1369  0.4802 -0.7821
 6265TIP3    H240287   6.313   0.582  10.752  0.3548 -1.1876 -1.0116
 6266TIP3   OH240288   3.447   0.357  15.982  0.1371  0.2489 -0.6536
 6266TIP3    H140289   3.441   0.449  16.009 -1.2730  0.9843 -3.0957
 6266TIP3    H240290   3.374   0.314  16.026  1.0822  0.1503  0.8729
 6267TIP3   OH240291   5.977   4.300   4.814  0.0786 -0.0021 -0.0941
 6267TIP3    H140292   6.053   4.324   4.868  0.1397  2.9535 -1.2635
 6267TIP3    H240293   6.014   4.287   4.727 -0.3370 -2.2758  0.0341
 6268TIP3   OH240294   1.349   2.528  16.522 -0.3627 -0.3477 -0.5306
 6268TIP3    H140295   1.381   2.512  16.433  0.0682 -2.1158 -0.1015
 6268TIP3    H240296   1.360   2.444  16.567 -0.5708  0.4977  1.1991
 6269TIP3   OH240297   1.206   1.063   3.277 -0.1167 -0.3825  0.2375
 6269TIP3    H140298   1.180   1.009   3.202 -2.0185 -0.6295  1.0227
 6269TIP3    H240299   1.191   1.153   3.248  0.0495 -0.4240  0.0170
 6270TIP3   OH240300   0.904   3.743   2.919  0.2035 -0.0847 -0.1198
 6270TIP3    H140301   0.858   3.800   2.981  1.4213  0.0371  0.7109
 6270TIP3    H240302   0.845   3.737   2.844  0.0471  2.3053 -0.2665
 6271TIP3   OH240303   0.957   2.177  15.502  0.6639  0.0155 -0.4772
 6271TIP3    H140304   0.989   2.127  15.577 -0.9699 -2.6465 -1.4165
 6271TIP3    H240305   0.957   2.115  15.429 -1.9978  1.1732 -1.6183
 6272TIP3   OH240306   2.378   3.782   4.532 -0.6736 -0.2527  0.1463
 6272TIP3    H140307   2.326   3.791   4.452  1.0968  0.4691 -0.9856
 6272TIP3    H240308   2.380   3.869   4.570 -0.7209 -0.3865  0.4551
 6273TIP3   OH240309   0.180   4.529   3.056  0.3252 -0.2670  0.0985
 6273TIP3    H140310   0.232   4.493   2.984  1.8985  0.4791  0.8203
 6273TIP3    H240311   0.142   4.609   3.020  2.5625  1.0772  0.5673
 6274TIP3   OH240312   5.898   1.895  16.976 -0.3923  0.7146  0.0813
 6274TIP3    H140313   5.942   1.973  16.942 -1.3774  0.9551 -0.6827
 6274TIP3    H240314   5.950   1.822  16.941 -0.2681  1.0055 -0.3574
 6275TIP3   OH240315   2.627   6.778  14.512 -0.0873  0.5723 -0.2375
 6275TIP3    H140316   2.562   6.773  14.442 -1.4521 -1.3370  1.0670
 6275TIP3    H240317   2.709   6.752  14.470 -0.6830  0.3585 -1.3137
 6276TIP3   OH240318   1.858   2.702   1.484 -0.3287 -0.2070 -0.5387
 6276TIP3    H140319   1.948   2.672   1.467  0.2768  1.1706  0.1442
 6276TIP3    H240320   1.853   2.788   1.443 -0.9572  0.2502  0.4748
 6277TIP3   OH240321   4.884   2.991  15.487 -0.5699 -0.5573 -0.8659
 6277TIP3    H140322   4.919   3.031  15.566  1.5017  0.1723 -2.0579
 6277TIP3    H240323   4.845   2.908  15.517  0.5278 -0.5045  0.8473
 6278TIP3   OH240324   5.550   0.513  15.604 -0.0413 -0.1811  0.0358
 6278TIP3    H140325   5.546   0.509  15.699 -0.5920  0.7217  0.0607
 6278TIP3    H240326   5.599   0.435  15.579  1.5552  0.4099  1.1419
 6279TIP3   OH240327   0.834   4.598  17.388  0.2745  0.3514 -0.4502
 6279TIP3    H140328   0.829   4.516  17.338  1.2618 -1.5006  2.2821
 6279TIP3    H240329   0.750   4.604  17.433 -0.0028  1.1935 -1.0375
 6280TIP3   OH240330   3.127   3.014  11.561 -0.0928  0.1193 -0.4316
 6280TIP3    H140331   3.107   3.107  11.566  3.7063  1.0229  0.7754
 6280TIP3    H240332   3.057   2.972  11.611 -1.6744  2.3077 -0.6550
 6281TIP3   OH240333   2.807   1.202  13.595 -0.6071 -0.4068  0.3940
 6281TIP3    H140334   2.724   1.163  13.621 -0.3267  0.0459  2.0605
 6281TIP3    H240335   2.827   1.265  13.664  0.3755  0.6048 -0.7611
 6282TIP3   OH240336   6.515   2.393  14.864  0.3543  0.7561  0.6358
 6282TIP3    H140337   6.534   2.316  14.811 -2.6329 -0.1974  0.7844
 6282TIP3    H240338   6.536   2.467  14.807 -1.5795 -0.2240 -1.4860
 6283TIP3   OH240339   0.632   1.491  16.387  0.3219 -0.2704 -0.0006
 6283TIP3    H140340   0.689   1.545  16.441  0.6229 -0.2312 -0.3504
 6283TIP3    H240341   0.648   1.522  16.297  0.0130 -0.4986 -0.1363
 6284TIP3   OH240342   4.153   3.526  11.940 -0.1064  0.3832 -0.9343
 6284TIP3    H140343   4.130   3.580  12.016 -0.2284 -0.5544 -0.2796
 6284TIP3    H240344   4.212   3.580  11.889  0.8744  0.6373  0.4165
 6285TIP3   OH240345   3.252   1.187   0.940 -0.4599  0.4956  0.3552
 6285TIP3    H140346   3.240   1.183   1.035  0.9038  0.1619  0.5405
 6285TIP3    H240347   3.324   1.249   0.928  1.4741 -1.7243 -0.2091
 6286TIP3   OH240348   0.071   1.530  14.264 -0.0533 -0.3898 -0.5918
 6286TIP3    H140349   0.132   1.590  14.309  1.3610 -1.6063 -0.8167
 6286TIP3    H240350   0.003   1.587  14.229  0.8093  1.0020 -0.0881
 6287TIP3   OH240351   6.095   4.359   2.099 -0.3929 -0.1512 -0.1116
 6287TIP3    H140352   6.040   4.429   2.064 -0.6374 -0.0149  0.5452
 6287TIP3    H240353   6.034   4.291   2.127 -0.1768 -0.4427 -0.3433
 6288TIP3   OH240354   2.600   1.126   3.622 -0.4105 -0.3225 -0.3723
 6288TIP3    H140355   2.587   1.071   3.700  0.8046 -1.3038 -0.8155
 6288TIP3    H240356   2.611   1.063   3.551  0.4105  0.5144 -1.0013
 6289TIP3   OH240357   6.757   4.102   3.101 -0.3131 -0.1115 -0.3229
 6289TIP3    H140358   6.713   4.045   3.039 -1.7362  0.1276  0.4185
 6289TIP3    H240359   6.756   4.054   3.184 -0.1472  0.3449 -0.0472
 6290TIP3   OH240360   6.497   5.527   4.592  0.1218 -0.0955  0.2586
 6290TIP3    H140361   6.477   5.493   4.679 -2.4761  0.7627  0.0808
 6290TIP3    H240362   6.413   5.526   4.546  0.6653  2.9166 -1.0026
 6291TIP3   OH240363   2.965   2.920   0.246  0.2467 -0.7831  0.2129
 6291TIP3    H140364   3.033   2.882   0.189  0.9529  0.6268  0.0679
 6291TIP3    H240365   3.014   2.962   0.317 -0.4775  0.0135  0.2602
 6292TIP3   OH240366   0.392   6.153   4.223 -0.1677 -0.2913  0.1411
 6292TIP3    H140367   0.407   6.059   4.229  1.5006 -0.1700 -1.2356
 6292TIP3    H240368   0.468   6.192   4.265 -0.5116  0.4443  0.0900
 6293TIP3   OH240369   2.074   4.642  12.962  0.3171 -0.2837 -0.0993
 6293TIP3    H140370   2.052   4.729  12.995 -0.9107 -0.2382 -0.9593
 6293TIP3    H240371   2.136   4.658  12.891 -0.5354 -0.0130 -0.8115
 6294TIP3   OH240372   6.598   3.887  13.239  0.0485  0.0276  0.5998
 6294TIP3    H140373   6.657   3.869  13.313 -1.2316 -0.7760  1.4838
 6294TIP3    H240374   6.635   3.965  13.197  1.8066 -0.5255  1.0057
 6295TIP3   OH240375   1.587   6.069  15.503  0.2472 -0.4334 -0.6732
 6295TIP3    H140376   1.498   6.043  15.479 -0.1850  0.7307 -0.3828
 6295TIP3    H240377   1.605   6.021  15.584 -0.2560 -0.3990 -0.5369
 6296TIP3   OH240378   3.982   5.392   5.550  0.2508 -0.4442  0.0236
 6296TIP3    H140379   3.961   5.429   5.636 -3.5849 -1.0368 -0.4501
 6296TIP3    H240380   4.068   5.427   5.529 -0.1049  2.4571  2.6405
 6297TIP3   OH240381   5.821   1.942  11.595 -0.6005  0.3020 -0.1360
 6297TIP3    H140382   5.815   1.976  11.684  0.8443 -1.5511  0.7271
 6297TIP3    H240383   5.909   1.965  11.566 -0.9879  0.7123 -1.0491
 6298TIP3   OH240384   0.408   0.142  13.848  0.6748 -0.1048  0.4747
 6298TIP3    H140385   0.402   0.046  13.848  0.4238 -0.2334 -3.1035
 6298TIP3    H240386   0.319   0.172  13.864  0.6748 -0.4579  1.1656
 6299TIP3   OH240387   3.559   6.597   5.285 -0.2097  0.5252  0.0903
 6299TIP3    H140388   3.563   6.617   5.191 -1.9931 -0.6282 -0.2765
 6299TIP3    H240389   3.523   6.676   5.325 -2.0366  0.0962 -0.6045
 6300TIP3   OH240390   4.266   3.502  14.071 -0.3300 -0.5557  0.2979
 6300TIP3    H140391   4.293   3.451  14.147  2.1279 -1.1364 -0.8591
 6300TIP3    H240392   4.185   3.460  14.042 -0.7223 -0.9948  1.9344
 6301TIP3   OH240393   3.903   2.939  13.769  0.0588 -0.3594  0.2346
 6301TIP3    H140394   3.844   2.989  13.714  1.1468 -0.0052 -0.6492
 6301TIP3    H240395   3.853   2.922  13.849 -1.2611 -0.1817 -0.5247
 6302TIP3   OH240396   0.969   3.725  13.220 -0.1094 -0.2278 -0.4763
 6302TIP3    H140397   0.939   3.655  13.161 -0.0809 -0.8288  0.2118
 6302TIP3    H240398   0.947   3.694  13.308  1.0901  0.0292 -0.0627
 6303TIP3   OH240399   4.604   0.191   4.600 -0.6618  0.3429 -0.0667
 6303TIP3    H140400   4.595   0.244   4.679  0.1406  0.3621  0.0139
 6303TIP3    H240401   4.690   0.150   4.607 -1.6935 -1.9084  0.4380
 6304TIP3   OH240402   5.999   3.345  13.869  0.0306 -0.1709 -0.0012
 6304TIP3    H140403   5.912   3.306  13.878 -0.5302  0.7744 -1.0953
 6304TIP3    H240404   6.005   3.408  13.940 -0.0588 -0.4290  0.2382
 6305TIP3   OH240405   1.773   2.935  13.053 -0.2440  0.3582  0.0613
 6305TIP3    H140406   1.773   2.999  13.124 -0.6801 -0.6525  0.9840
 6305TIP3    H240407   1.685   2.940  13.016 -0.2345  0.3740  0.0406
 6306TIP3   OH240408   6.769   0.101   6.241 -0.7974 -0.0220  0.0319
 6306TIP3    H140409   6.726   0.139   6.318 -1.1783 -0.4007  0.0074
 6306TIP3    H240410   6.822   0.030   6.276  2.1259  2.1945  0.4613
 6307TIP3   OH240411   5.196   2.342   6.574  0.1370  0.0446  0.3179
 6307TIP3    H140412   5.262   2.387   6.626 -1.3913  1.0630  1.4685
 6307TIP3    H240413   5.218   2.363   6.483  1.2335  0.5469  0.6860
 6308TIP3   OH240414   6.621   5.040  17.189  0.5895  0.1267  0.4365
 6308TIP3    H140415   6.573   5.109  17.236  0.3198  0.5660 -0.4580
 6308TIP3    H240416   6.553   4.986  17.150  0.8107  0.7142 -0.7884
 6309TIP3   OH240417   3.542   3.861   1.785 -0.1555  0.3994 -0.2296
 6309TIP3    H140418   3.559   3.851   1.879  0.3570  0.8847 -0.2639
 6309TIP3    H240419   3.474   3.797   1.766  0.3390 -0.2916  0.3038
 6310TIP3   OH240420   4.042   4.365  12.014  0.2141  0.2836 -0.1123
 6310TIP3    H140421   3.955   4.358  12.053 -1.6306  0.2732 -3.7914
 6310TIP3    H240422   4.058   4.459  12.007  0.1430  0.2916 -0.1653
 6311TIP3   OH240423   1.666   4.562   2.611  0.2104 -0.5247 -0.6910
 6311TIP3    H140424   1.657   4.519   2.526 -0.9318  0.6358 -1.1880
 6311TIP3    H240425   1.723   4.503   2.661  0.1400 -1.7071 -1.9233
 6312TIP3   OH240426   0.764   4.448   1.675  0.0889 -0.0619  0.0727
 6312TIP3    H140427   0.689   4.458   1.616 -0.0971 -0.4895  0.2342
 6312TIP3    H240428   0.795   4.537   1.689  0.9040 -0.0402 -1.6654
 6313TIP3   OH240429   1.715   5.871   2.882 -0.5639  0.0585 -0.3492
 6313TIP3    H140430   1.686   5.839   2.797  0.5395 -1.6097 -0.1567
 6313TIP3    H240431   1.810   5.854   2.883 -0.6277 -0.3948  1.3597
 6314TIP3   OH240432   5.815   3.563   1.946 -0.0458 -0.0270  0.4480
 6314TIP3    H140433   5.881   3.609   1.999  0.7690 -0.1921 -0.3950
 6314TIP3    H240434   5.731   3.595   1.980  0.4722  2.5218 -0.4439
 6315TIP3   OH240435   5.468   1.397   2.660 -0.4831 -0.0878  0.1089
 6315TIP3    H140436   5.416   1.354   2.593 -0.7278  1.6932 -0.9083
 6315TIP3    H240437   5.416   1.474   2.685  0.8218  0.7384  0.3816
 6316TIP3   OH240438   5.696   1.082  16.839  0.5524 -0.1130  0.3477
 6316TIP3    H140439   5.666   1.164  16.877  0.4492 -0.3926  0.8680
 6316TIP3    H240440   5.673   1.015  16.903  0.7283 -0.5389 -0.0273
 6317TIP3   OH240441   1.458   5.357   5.375 -0.2712 -0.2006 -1.0382
 6317TIP3    H140442   1.423   5.428   5.429  1.7566 -0.2613  0.4868
 6317TIP3    H240443   1.492   5.400   5.297  0.2627  0.4427 -0.4654
 6318TIP3   OH240444   5.259   1.791  10.911  0.2939  0.3172  0.0570
 6318TIP3    H140445   5.191   1.851  10.880 -0.5931 -0.0996  1.1279
 6318TIP3    H240446   5.215   1.706  10.916  0.9444  0.0105  0.6152
 6319TIP3   OH240447   6.084   4.751   3.125  0.8487  0.0530 -0.0442
 6319TIP3    H140448   6.166   4.787   3.091  0.5701  2.2630  1.4395
 6319TIP3    H240449   6.098   4.742   3.219 -0.5964  0.4988  0.2460
 6320TIP3   OH240450   0.546   3.991   2.833 -0.4278 -0.3021  0.3903
 6320TIP3    H140451   0.542   3.925   2.765 -0.2078  1.4787 -1.4549
 6320TIP3    H240452   0.639   4.014   2.839 -0.7379  1.3567 -0.6008
 6321TIP3   OH240453   5.942   6.749  12.765 -0.7978 -0.2782  0.0866
 6321TIP3    H140454   6.013   6.788  12.816 -0.5869  0.2578 -0.6085
 6321TIP3    H240455   5.909   6.821  12.710 -0.9049 -0.8850 -0.6588
 6322TIP3   OH240456   4.439   1.220   5.320 -0.1016  0.1780  0.1538
 6322TIP3    H140457   4.528   1.250   5.302  0.8265 -2.3957  0.0913
 6322TIP3    H240458   4.449   1.128   5.344 -2.5944  0.2440  1.7740
 6323TIP3   OH240459   0.298   1.618   5.112  0.3767 -0.1593 -0.4238
 6323TIP3    H140460   0.315   1.548   5.049  0.8916  0.8085 -1.4167
 6323TIP3    H240461   0.381   1.632   5.157  0.4302  0.1540 -0.6110
 6324TIP3   OH240462   6.002   2.885   2.143 -0.3552 -0.0936 -0.3846
 6324TIP3    H140463   6.043   2.813   2.096  3.9600  1.8112  0.0587
 6324TIP3    H240464   5.981   2.848   2.229 -0.5088 -1.3796 -0.9419
 6325TIP3   OH240465   3.589   4.106  16.396 -0.2361  0.2073  0.6119
 6325TIP3    H140466   3.638   4.032  16.359 -0.9825 -0.2287  0.4843
 6325TIP3    H240467   3.551   4.071  16.476 -1.2054  0.2292  0.1712
 6326TIP3   OH240468   5.165   2.520   3.756  0.1305 -0.3475  0.0855
 6326TIP3    H140469   5.204   2.465   3.824  1.6759  0.7418  0.1353
 6326TIP3    H240470   5.170   2.467   3.677  1.6763 -0.3073  0.1117
 6327TIP3   OH240471   5.889   2.975   5.453 -0.1858 -0.0990 -0.2786
 6327TIP3    H140472   5.968   3.008   5.411 -0.7057 -1.0423 -2.0967
 6327TIP3    H240473   5.903   2.881   5.463 -0.3395  0.0097  1.1083
 6328TIP3   OH240474   2.528   1.315  16.612 -0.1671 -0.3845 -0.1227
 6328TIP3    H140475   2.579   1.392  16.636 -2.1522  0.9286  0.1177
 6328TIP3    H240476   2.593   1.250  16.586  1.7621  0.3575  2.4177
 6329TIP3   OH240477   1.273   3.279  17.177 -0.3042 -0.8358  0.0550
 6329TIP3    H140478   1.243   3.313  17.261 -3.7147 -0.5862 -1.0978
 6329TIP3    H240479   1.281   3.357  17.121  1.7985 -1.0092  0.0308
 6330TIP3   OH240480   1.901   0.393   2.765 -0.0612  0.9970  0.2287
 6330TIP3    H140481   1.850   0.412   2.687 -1.5333  2.4264  1.4590
 6330TIP3    H240482   1.946   0.311   2.745  0.1819  1.6751 -2.3518
 6331TIP3   OH240483   3.766   3.973   3.146 -0.2571  0.4599  0.4834
 6331TIP3    H140484   3.681   3.958   3.106 -0.5082  0.5035  0.9981
 6331TIP3    H240485   3.821   4.006   3.074 -0.4159 -0.4172 -0.0578
 6332TIP3   OH240486   6.561   1.819  17.288 -0.3497 -0.1522  0.2890
 6332TIP3    H140487   6.604   1.775  17.362  1.8758  0.5088 -0.5371
 6332TIP3    H240488   6.560   1.753  17.219 -0.6432 -0.1490  0.2895
 6333TIP3   OH240489   1.062   0.020   6.366  0.3116  0.0966 -0.4459
 6333TIP3    H140490   1.084  -0.071   6.389 -0.4643  0.0169  0.0181
 6333TIP3    H240491   1.130   0.072   6.408 -0.7046 -0.1004  1.5537
 6334TIP3   OH240492   4.897   0.318  14.722 -0.1329  0.0113 -0.0190
 6334TIP3    H140493   4.925   0.409  14.729 -0.6036  0.0380  2.9694
 6334TIP3    H240494   4.968   0.268  14.764  0.2096 -1.0821 -1.7690
 6335TIP3   OH240495   5.306   2.022  13.599  0.1826 -0.5737  0.3144
 6335TIP3    H140496   5.280   2.080  13.528 -0.8406  0.5642  1.5390
 6335TIP3    H240497   5.396   2.045  13.618  0.2868 -0.5048 -0.2484
 6336TIP3   OH240498   5.208   4.745  14.098 -0.1453 -0.9908  0.3870
 6336TIP3    H140499   5.296   4.776  14.121 -0.5403  0.4178  0.1523
 6336TIP3    H240500   5.215   4.650  14.093  1.8644 -0.8080 -1.6809
 6337TIP3   OH240501   2.043   1.621   2.629  0.2940 -0.1402 -0.1857
 6337TIP3    H140502   2.082   1.708   2.638  0.5908 -0.3427  0.5589
 6337TIP3    H240503   2.060   1.578   2.713  2.7201 -1.9481 -1.4749
 6338TIP3   OH240504   5.446   2.379   2.219 -0.6221 -0.4790  0.0679
 6338TIP3    H140505   5.525   2.324   2.220 -0.0414  0.3241  2.0723
 6338TIP3    H240506   5.388   2.338   2.283 -0.9122  0.2264  0.2542
 6339TIP3   OH240507   0.220   0.890   0.548  0.4182  1.1738  0.6409
 6339TIP3    H140508   0.287   0.835   0.507  1.0947  2.2520  0.2753
 6339TIP3    H240509   0.242   0.888   0.641  0.7558  1.2503  0.5629
 6340TIP3   OH240510   3.950   0.380   5.314  0.0703  0.0275 -0.4101
 6340TIP3    H140511   3.952   0.343   5.403  0.2500  2.5607  0.7357
 6340TIP3    H240512   3.858   0.401   5.299  0.1358  0.2410 -0.5186
 6341TIP3   OH240513   4.323   5.661  12.408 -0.6580 -0.4608 -0.2275
 6341TIP3    H140514   4.396   5.668  12.469  2.0780 -0.1883 -3.2225
 6341TIP3    H240515   4.269   5.738  12.425  0.2626 -0.1596  1.4771
 6342TIP3   OH240516   3.405   3.813   4.278  0.5837 -0.1239  0.4229
 6342TIP3    H140517   3.368   3.901   4.275 -0.7286 -0.6739 -1.2662
 6342TIP3    H240518   3.329   3.755   4.280  1.4246 -1.2469  1.2934
 6343TIP3   OH240519   3.686   4.415   3.347  0.2394  1.2380 -0.1998
 6343TIP3    H140520   3.604   4.374   3.375 -0.3470  2.2353 -0.4202
 6343TIP3    H240521   3.715   4.464   3.423 -0.0159  1.8769 -0.5112
 6344TIP3   OH240522   2.318   4.529  15.398  0.0981  0.4865 -0.1794
 6344TIP3    H140523   2.409   4.558  15.408 -0.5453  2.3874  0.6460
 6344TIP3    H240524   2.291   4.563  15.313  0.3401 -0.6464 -0.7200
 6345TIP3   OH240525   6.099   6.290  17.314  0.2793  0.3655 -0.1974
 6345TIP3    H140526   6.100   6.260  17.223 -0.3089 -1.3500  0.3321
 6345TIP3    H240527   6.071   6.382  17.308  3.3565  1.3248 -1.9525
 6346TIP3   OH240528   6.555   1.566  14.609 -0.3598  0.1093  0.0351
 6346TIP3    H140529   6.544   1.604  14.522  0.1207  1.6526  0.6115
 6346TIP3    H240530   6.479   1.510  14.621 -2.3868  2.6560  0.0022
 6347TIP3   OH240531   0.390   2.795   3.665 -1.5724  0.4954 -0.3315
 6347TIP3    H140532   0.349   2.803   3.579 -2.3556 -0.2714 -0.0495
 6347TIP3    H240533   0.324   2.751   3.719 -1.4988  1.8864  0.9405
 6348TIP3   OH240534   6.366   3.870  15.204  0.1207  0.2636  0.0895
 6348TIP3    H140535   6.326   3.930  15.268  1.7191  0.5344  0.9127
 6348TIP3    H240536   6.460   3.891  15.208  0.5759 -1.4968 -0.4759
 6349TIP3   OH240537   1.211   3.166  16.148 -0.0076  0.5220  0.1866
 6349TIP3    H140538   1.270   3.172  16.073 -0.1812 -1.0159 -0.1085
 6349TIP3    H240539   1.125   3.184  16.112 -0.0006  0.4890  0.1525
 6350TIP3   OH240540   0.556   2.392  15.339  0.1349  0.0716  0.2148
 6350TIP3    H140541   0.546   2.350  15.425  0.0430  0.7047  0.5204
 6350TIP3    H240542   0.649   2.384  15.319  0.2361  0.3183  0.5794
 6351TIP3   OH240543   2.970   0.919  13.648 -0.3101 -0.3123  0.5744
 6351TIP3    H140544   2.891   0.970  13.625  0.3671 -0.0830 -1.4305
 6351TIP3    H240545   3.006   0.965  13.724 -1.6000  0.1160  0.9653
 6352TIP3   OH240546   0.317   3.133  16.951 -0.6913  0.6367 -0.3083
 6352TIP3    H140547   0.264   3.068  16.997  1.0559 -0.8520 -0.2915
 6352TIP3    H240548   0.353   3.188  17.021 -1.0129  0.7017 -0.1955
 6353TIP3   OH240549   0.280   6.388   1.653  0.3009  0.5521  0.4014
 6353TIP3    H140550   0.304   6.386   1.561 -0.3857  1.4784  0.1893
 6353TIP3    H240551   0.220   6.314   1.664  2.1327 -0.9774  0.6458
 6354TIP3   OH240552   4.148   2.211   4.231 -0.1081 -0.1055  0.7593
 6354TIP3    H140553   4.226   2.264   4.212  0.4000 -0.1138  2.6287
 6354TIP3    H240554   4.077   2.255   4.182  1.1708 -0.6555 -1.7701
 6355TIP3   OH240555   0.277   4.153   4.137 -0.6410  0.0099 -0.2718
 6355TIP3    H140556   0.329   4.192   4.208 -1.0717 -0.9886  0.6265
 6355TIP3    H240557   0.343   4.115   4.078 -0.2251 -2.9965  1.8548
 6356TIP3   OH240558   5.706   2.695   1.593  0.3441  0.4763  0.3864
 6356TIP3    H140559   5.734   2.779   1.629 -0.3477  1.4591 -1.2529
 6356TIP3    H240560   5.613   2.706   1.575 -0.0472 -1.0880  1.3096
 6357TIP3   OH240561   4.529   5.407  15.368  0.0175  1.0432 -0.5618
 6357TIP3    H140562   4.603   5.350  15.389  0.7580  1.8386 -0.9604
 6357TIP3    H240563   4.485   5.364  15.295  0.3574  0.8008 -0.6244
 6358TIP3   OH240564   4.127   2.506   1.103  0.0347  0.0032  0.4042
 6358TIP3    H140565   4.050   2.475   1.151  0.7575  0.7096  2.0850
 6358TIP3    H240566   4.197   2.507   1.168  1.3410 -0.0946 -0.9620
 6359TIP3   OH240567   1.517   3.580   1.125  0.0609 -0.3507 -0.3275
 6359TIP3    H140568   1.514   3.641   1.051 -0.5772  1.7041  1.2949
 6359TIP3    H240569   1.479   3.500   1.091 -1.0584  0.8054 -1.9851
 6360TIP3   OH240570   6.081   3.595  14.598 -0.4402 -0.2647 -0.5300
 6360TIP3    H140571   6.087   3.660  14.528  1.3760 -1.4408 -1.5511
 6360TIP3    H240572   6.075   3.511  14.551 -0.6842 -0.9816  0.7387
 6361TIP3   OH240573   5.085   5.615  14.338 -0.1956  0.0840 -0.2660
 6361TIP3    H140574   5.019   5.560  14.296 -1.5908  0.7491  0.9358
 6361TIP3    H240575   5.048   5.635  14.424 -0.2083  3.5774 -0.9218
 6362TIP3   OH240576   2.641   4.033   3.601 -0.1227  0.1283 -0.3088
 6362TIP3    H140577   2.573   4.098   3.583  0.9413  1.5766  0.6654
 6362TIP3    H240578   2.622   3.961   3.541 -1.9042  0.9172 -0.7608
 6363TIP3   OH240579   2.094   4.861  15.296 -0.0749  0.1036  0.0958
 6363TIP3    H140580   2.129   4.816  15.219  0.8972 -0.9599  1.0997
 6363TIP3    H240581   2.149   4.938  15.306 -0.4451  0.4454 -0.4810
 6364TIP3   OH240582   5.736   3.538   2.816 -0.7458  0.4878 -0.5515
 6364TIP3    H140583   5.797   3.483   2.864 -1.0016 -0.6815 -1.5300
 6364TIP3    H240584   5.792   3.603   2.773 -0.2002 -0.3926 -1.2035
 6365TIP3   OH240585   1.236   5.044   4.742  0.2116  0.9678 -0.0485
 6365TIP3    H140586   1.308   4.996   4.700 -0.0037  0.6382 -0.0448
 6365TIP3    H240587   1.269   5.064   4.830  0.6231  1.5653 -0.3337
 6366TIP3   OH240588   0.387   2.476  13.375 -0.0494 -0.2301 -0.0421
 6366TIP3    H140589   0.349   2.458  13.461 -2.7324 -0.3826 -1.1699
 6366TIP3    H240590   0.353   2.562  13.351  0.0215 -0.5288 -1.2765
 6367TIP3   OH240591   1.332   0.244   5.593 -0.6200 -0.1095 -0.5107
 6367TIP3    H140592   1.286   0.272   5.673  0.3323 -0.5876  0.2256
 6367TIP3    H240593   1.297   0.157   5.575 -0.0551 -0.4459  0.0104
 6368TIP3   OH240594   3.217   2.149  12.917 -0.3957 -0.8551 -0.1198
 6368TIP3    H140595   3.204   2.226  12.972 -0.8550 -0.3484 -0.9181
 6368TIP3    H240596   3.295   2.107  12.953 -0.6816 -0.5354  0.9061
 6369TIP3   OH240597   6.077   5.096   4.527  0.4510  0.6566  0.4848
 6369TIP3    H140598   6.153   5.047   4.495  1.3254  1.4045  1.3398
 6369TIP3    H240599   6.106   5.133   4.611 -0.3260  2.2699  0.0843
 6370TIP3   OH240600   6.314   4.343   1.591  0.0025  0.1121 -0.2707
 6370TIP3    H140601   6.289   4.387   1.672 -3.4117 -3.4787  0.9196
 6370TIP3    H240602   6.407   4.321   1.603 -0.0350  0.9490  2.0223
 6371TIP3   OH240603   5.921   3.005   3.559  0.1412  0.1772 -0.0870
 6371TIP3    H140604   5.922   2.921   3.513  1.6876 -1.3791  2.5429
 6371TIP3    H240605   5.845   3.000   3.617 -0.6443  1.2779 -0.9808
 6372TIP3   OH240606   6.087   4.626  14.677 -0.4303 -0.1554  0.2207
 6372TIP3    H140607   6.103   4.534  14.656 -0.4991  0.1825 -1.4789
 6372TIP3    H240608   6.174   4.662  14.696 -0.1746 -0.2098 -0.7887
 6373TIP3   OH240609   2.598   6.737  16.584 -0.1572  0.3168  0.5483
 6373TIP3    H140610   2.570   6.686  16.508  0.2303  1.0787 -0.1203
 6373TIP3    H240611   2.639   6.673  16.642  1.2984  0.0062 -0.7554
 6374TIP3   OH240612   2.584   4.141   5.489 -0.2220 -0.2394  0.1294
 6374TIP3    H140613   2.647   4.213   5.481 -0.1056 -0.3252  0.2682
 6374TIP3    H240614   2.529   4.165   5.563  0.8108 -1.0413  1.1901
 6375TIP3   OH240615   6.790   1.125   5.455 -0.2947 -0.4947  0.0211
 6375TIP3    H140616   6.882   1.151   5.457 -0.6565  0.8849 -0.0877
 6375TIP3    H240617   6.778   1.086   5.368 -0.1968  0.9497 -0.6824
 6376TIP3   OH240618   4.804   1.910   3.955  0.7390 -0.2392  0.1932
 6376TIP3    H140619   4.771   1.994   3.923  0.0403 -0.5252  0.1556
 6376TIP3    H240620   4.821   1.859   3.875 -1.5236 -1.1546  0.2172
 6377TIP3   OH240621   4.273   5.175   3.374 -0.4547  0.0115 -0.1772
 6377TIP3    H140622   4.361   5.149   3.402 -0.0523 -1.9511 -2.9403
 6377TIP3    H240623   4.216   5.108   3.410 -1.1635  1.9487  2.6960
 6378TIP3   OH240624   3.386   4.500  14.881 -0.1391  0.3729  0.4604
 6378TIP3    H140625   3.364   4.590  14.855 -0.7215  0.2120  0.3787
 6378TIP3    H240626   3.316   4.475  14.941 -0.6767 -0.4535 -0.4627
 6379TIP3   OH240627   4.040   0.484  16.870 -0.0951  0.5021 -0.0694
 6379TIP3    H140628   4.134   0.476  16.883 -0.0995 -3.7384 -1.3108
 6379TIP3    H240629   4.032   0.522  16.782  0.5110 -0.3724 -0.5153
 6380TIP3   OH240630   0.208   5.319  16.661  0.1654  0.0519 -0.4477
 6380TIP3    H140631   0.181   5.321  16.569 -0.0856  0.4662 -0.3648
 6380TIP3    H240632   0.203   5.410  16.690 -2.8749 -0.4093  0.8572
 6381TIP3   OH240633   4.627   4.885   2.265  0.0565 -0.3093  0.3593
 6381TIP3    H140634   4.560   4.817   2.254  0.1854 -0.1123 -2.4219
 6381TIP3    H240635   4.579   4.968   2.260  0.4320 -0.1383 -2.5271
 6382TIP3   OH240636   4.156   3.236  15.451  0.1920  0.2525  0.3597
 6382TIP3    H140637   4.222   3.247  15.382  0.4906  2.9400  0.9883
 6382TIP3    H240638   4.199   3.181  15.516  1.6586  1.5035  0.4998
 6383TIP3   OH240639   1.210   1.567  15.376 -0.0473 -0.4276 -0.1790
 6383TIP3    H140640   1.258   1.636  15.421 -1.2849  0.4875 -0.2030
 6383TIP3    H240641   1.200   1.599  15.286 -0.4023 -0.7637 -0.2619
 6384TIP3   OH240642   6.290   6.659   2.347  0.6241  0.2573  0.4735
 6384TIP3    H140643   6.366   6.687   2.295  0.8072  0.4482  0.8390
 6384TIP3    H240644   6.262   6.739   2.393  0.3866  0.1187  0.5723
 6385TIP3   OH240645   0.593   1.528   5.047 -0.0606 -0.4387 -0.1965
 6385TIP3    H140646   0.669   1.585   5.059  1.4866 -2.2714 -0.6827
 6385TIP3    H240647   0.619   1.445   5.087 -2.3889 -0.7345  0.8584
 6386TIP3   OH240648   3.865   3.935   2.230 -0.2809  0.1929 -0.2643
 6386TIP3    H140649   3.936   4.000   2.230  0.3241 -0.4453  1.0500
 6386TIP3    H240650   3.786   3.987   2.212  0.3038  1.1528 -0.1597
 6387TIP3   OH240651   1.205   2.774   1.172 -0.0914 -0.1614  0.7692
 6387TIP3    H140652   1.174   2.855   1.213  1.0531 -0.3463  2.1014
 6387TIP3    H240653   1.125   2.729   1.144 -0.7409  1.4470 -0.0897
 6388TIP3   OH240654   6.154   6.584  12.471 -0.1006 -0.4983  0.3840
 6388TIP3    H140655   6.186   6.553  12.556  0.7716  0.4350  0.4204
 6388TIP3    H240656   6.120   6.671  12.489 -0.1008 -0.3765 -0.1861
 6389TIP3   OH240657   0.996   5.589   2.088 -0.1774  0.9503  0.2385
 6389TIP3    H140658   1.069   5.650   2.078 -0.1899  1.1469  1.2059
 6389TIP3    H240659   1.013   5.545   2.171  0.6344 -1.4897 -1.1003
 6390TIP3   OH240660   6.568   6.224   3.765  0.0347 -0.1482 -0.2093
 6390TIP3    H140661   6.496   6.208   3.704  0.5403 -0.6471 -0.6899
 6390TIP3    H240662   6.551   6.165   3.838 -0.7934  0.7444  0.3309
 6391TIP3   OH240663   1.068   3.371  14.575 -0.1153  0.1776 -0.0047
 6391TIP3    H140664   1.142   3.317  14.548 -0.7876 -0.3002 -0.9681
 6391TIP3    H240665   1.107   3.441  14.628  1.1573  0.4688 -1.2531
 6392TIP3   OH240666   4.450   2.086   1.666  0.4191  0.1886  0.4181
 6392TIP3    H140667   4.360   2.053   1.669  1.0942 -1.9815 -0.8009
 6392TIP3    H240668   4.451   2.146   1.591 -0.1123  0.6140  0.7431
 6393TIP3   OH240669   5.218   2.931  14.520 -0.3675  0.3762 -0.3168
 6393TIP3    H140670   5.161   2.866  14.478  0.4821 -0.0770 -0.7860
 6393TIP3    H240671   5.188   3.015  14.486 -1.9361  0.3361  0.8124
 6394TIP3   OH240672   6.580   0.243   5.212 -0.1117  0.1336  0.3249
 6394TIP3    H140673   6.522   0.242   5.288 -0.8056 -0.9491 -0.1864
 6394TIP3    H240674   6.654   0.189   5.238 -1.2494 -1.8844 -0.3824
 6395TIP3   OH240675   1.905   5.061   5.101 -0.9598  0.1639 -0.0967
 6395TIP3    H140676   1.863   5.147   5.095 -0.9907  0.0179 -4.0669
 6395TIP3    H240677   1.833   4.998   5.101 -0.8729  0.0595 -0.9718
 6396TIP3   OH240678   6.692   0.819   2.887 -0.2708  0.1562  0.5827
 6396TIP3    H140679   6.665   0.905   2.854 -1.9005 -0.7005 -0.4096
 6396TIP3    H240680   6.736   0.777   2.813  0.2820  0.0250  0.9803
 6397TIP3   OH240681   3.517   1.627  12.180 -0.7587  0.0189 -0.6767
 6397TIP3    H140682   3.589   1.648  12.239 -1.7916 -0.0265  0.6724
 6397TIP3    H240683   3.458   1.703  12.187 -0.7517  0.1558 -1.9237
 6398TIP3   OH240684   3.656   5.777  14.497  0.2715  0.3474  0.5531
 6398TIP3    H140685   3.648   5.836  14.423  0.0671  0.0514  0.3358
 6398TIP3    H240686   3.566   5.748  14.515  0.2231  0.9349  1.3451
 6399TIP3   OH240687   1.522   2.550  12.588  0.6182  0.1687 -0.2720
 6399TIP3    H140688   1.602   2.499  12.572  0.8855  0.3867  0.3505
 6399TIP3    H240689   1.463   2.489  12.632  1.4233  0.7371  1.6934
 6400TIP3   OH240690   5.398   0.154   2.330 -0.3727  0.6730  0.8156
 6400TIP3    H140691   5.337   0.134   2.258 -1.3180 -1.7035  2.1671
 6400TIP3    H240692   5.473   0.097   2.314 -0.6853 -0.0338  1.7950
 6401TIP3   OH240693   4.874   3.730  17.345  0.0644 -0.6182 -0.0635
 6401TIP3    H140694   4.854   3.638  17.362  0.0690 -0.6467 -0.2134
 6401TIP3    H240695   4.789   3.774  17.348  0.2455 -0.3090  1.9495
 6402TIP3   OH240696   2.074   5.766  17.410  0.3413 -0.4508 -0.6707
 6402TIP3    H140697   2.117   5.720  17.482 -1.2136  3.5847  3.3492
 6402TIP3    H240698   2.003   5.707  17.383  0.8360 -2.0839  1.3103
 6403TIP3   OH240699   3.336   4.403  11.599 -0.1196 -0.0609 -0.7756
 6403TIP3    H140700   3.425   4.373  11.578  0.0079 -0.1795 -0.0834
 6403TIP3    H240701   3.305   4.342  11.665 -1.0742 -0.5783 -1.6779
 6404TIP3   OH240702   0.680   4.305   2.111 -0.7511  0.0975  0.5570
 6404TIP3    H140703   0.770   4.312   2.142  0.1028 -2.1231 -1.2011
 6404TIP3    H240704   0.687   4.288   2.017 -2.9494 -0.9258  0.5008
 6405TIP3   OH240705   4.472   5.219   2.571  0.4248 -0.3707  0.4148
 6405TIP3    H140706   4.476   5.182   2.659 -0.0042  1.2786  1.1759
 6405TIP3    H240707   4.505   5.309   2.581 -0.8768  0.2898 -0.8339
 6406TIP3   OH240708   4.066   2.933   6.492  0.0014 -0.2459  0.8087
 6406TIP3    H140709   4.028   2.963   6.409 -1.4938  1.0464  1.8758
 6406TIP3    H240710   4.093   3.014   6.536  2.2413 -1.0171  0.9430
 6407TIP3   OH240711   3.206   4.758   0.490  0.6415 -0.1728 -0.6706
 6407TIP3    H140712   3.178   4.667   0.488  2.2525 -0.8443  2.0403
 6407TIP3    H240713   3.299   4.754   0.512  0.1955  2.1195  2.2245
 6408TIP3   OH240714   1.737   2.378  12.622  0.3882 -0.4048 -0.2213
 6408TIP3    H140715   1.777   2.328  12.551  1.5381  1.5256 -1.0201
 6408TIP3    H240716   1.691   2.313  12.675  0.7661 -2.1034 -1.8788
 6409TIP3   OH240717   2.910   1.141  16.919 -0.4064  0.7218 -0.0506
 6409TIP3    H140718   2.987   1.086  16.935 -1.5037 -0.5625  0.9973
 6409TIP3    H240719   2.917   1.212  16.982 -0.4058  0.2530  0.4787
 6410TIP3   OH240720   6.394   0.559  12.235 -0.4662 -0.0141 -0.5028
 6410TIP3    H140721   6.419   0.592  12.322  0.3457 -2.4716  0.2620
 6410TIP3    H240722   6.441   0.615  12.174 -0.1170  1.0163  0.6709
 6411TIP3   OH240723   4.429   2.758   3.816 -0.2515  0.3089  0.4668
 6411TIP3    H140724   4.452   2.808   3.737  0.4607 -0.6952  0.0188
 6411TIP3    H240725   4.499   2.778   3.878 -1.0339  1.4337  1.0267
 6412TIP3   OH240726   5.374   2.839  11.845  0.5746 -0.0458 -0.4204
 6412TIP3    H140727   5.390   2.761  11.898 -0.6958  0.4127  0.6800
 6412TIP3    H240728   5.314   2.810  11.776  1.9777 -0.5673 -1.4597
 6413TIP3   OH240729   0.950   5.144  12.600  0.0316  0.3009  1.2229
 6413TIP3    H140730   0.915   5.199  12.670 -0.2789  1.3022  0.3108
 6413TIP3    H240731   0.918   5.184  12.520  2.1985  0.5099  0.3980
 6414TIP3   OH240732   5.753   6.594  15.048 -0.3103 -0.1529  0.6844
 6414TIP3    H140733   5.728   6.645  15.125  2.2374  0.0065  1.4913
 6414TIP3    H240734   5.794   6.516  15.083  1.7274  0.3332 -0.4371
 6415TIP3   OH240735   0.421   5.594  13.156 -0.5355 -0.0019  0.1500
 6415TIP3    H140736   0.474   5.655  13.106 -1.1758  1.2871  0.9843
 6415TIP3    H240737   0.343   5.580  13.101 -0.7351  0.5420  0.2878
 6416TIP3   OH240738   2.354   4.487   0.508  0.1352  0.1770 -0.2982
 6416TIP3    H140739   2.367   4.521   0.420  0.9799 -1.4999 -0.8749
 6416TIP3    H240740   2.389   4.398   0.504 -1.8071 -0.7268  1.1304
 6417TIP3   OH240741   0.807   4.040   2.505 -0.2617  0.2420  0.4695
 6417TIP3    H140742   0.739   4.054   2.439 -0.5113 -2.2908  0.1101
 6417TIP3    H240743   0.860   4.120   2.502 -0.0590  0.1060 -3.0229
 6418TIP3   OH240744   4.890   0.937   5.622  0.0301  0.1286  0.1408
 6418TIP3    H140745   4.810   0.916   5.575  0.6649 -1.0772 -0.4390
 6418TIP3    H240746   4.863   0.943   5.714 -0.4583 -1.8689  0.1581
 6419TIP3   OH240747   5.310   3.698   2.030 -0.1260 -0.0304  0.2613
 6419TIP3    H140748   5.338   3.691   1.939  0.8084 -0.6508  0.5819
 6419TIP3    H240749   5.226   3.652   2.032 -1.1314  1.6694 -0.6675
 6420TIP3   OH240750   4.169   6.216  12.492  0.3539  0.2273  1.1410
 6420TIP3    H140751   4.195   6.307  12.508 -0.2201  0.6685 -0.2312
 6420TIP3    H240752   4.237   6.181  12.435 -0.9660  0.8286 -0.9548
 6421TIP3   OH240753   0.684   6.286   1.332 -0.3251 -0.0911  0.4523
 6421TIP3    H140754   0.721   6.206   1.295 -0.8421 -0.2151  0.1963
 6421TIP3    H240755   0.738   6.356   1.297 -1.5242 -0.0884 -1.5516
 6422TIP3   OH240756   4.144   6.049  13.059 -0.0959 -0.1165 -0.7252
 6422TIP3    H140757   4.217   6.040  13.119  0.0371  0.3375 -0.8204
 6422TIP3    H240758   4.177   6.103  12.987 -0.9483  1.3750 -0.0435
 6423TIP3   OH240759   2.436   2.021   1.266 -0.2013  0.1629 -0.0000
 6423TIP3    H140760   2.353   2.028   1.219 -0.2184  1.0658  0.1394
 6423TIP3    H240761   2.456   2.111   1.293  1.4531  0.1761 -1.1209
 6424TIP3   OH240762   0.986   6.392  10.406 -0.4029 -0.1189  0.4929
 6424TIP3    H140763   1.001   6.451  10.479  0.6252  0.6982 -0.3404
 6424TIP3    H240764   1.072   6.385  10.363 -1.1176 -0.0546 -1.0092
 6425TIP3   OH240765   3.066   1.403  13.717  0.3454  0.2137 -0.0358
 6425TIP3    H140766   3.153   1.415  13.755  0.8070  1.4341 -1.3935
 6425TIP3    H240767   3.023   1.341  13.776  1.7180  0.4691  1.3132
 6426TIP3   OH240768   2.213   2.574  12.686 -0.3938 -0.0433  0.3944
 6426TIP3    H140769   2.138   2.547  12.635 -0.7766  0.0926  0.8725
 6426TIP3    H240770   2.189   2.556  12.777 -0.5751  1.6237  0.7211
 6427TIP3   OH240771   5.532   3.360   5.443  0.4180  0.5527 -0.1864
 6427TIP3    H140772   5.443   3.328   5.457  0.0271  1.4717 -0.5466
 6427TIP3    H240773   5.587   3.282   5.455 -0.2705  0.3166  1.7665
 6428TIP3   OH240774   5.178   4.898   5.478  0.3209  0.2218 -0.0190
 6428TIP3    H140775   5.272   4.897   5.496  0.1561  0.7038  0.9423
 6428TIP3    H240776   5.171   4.870   5.387  1.4128  0.4207 -0.1820
 6429TIP3   OH240777   2.300   3.485   1.299  0.6665  0.2128 -0.1839
 6429TIP3    H140778   2.214   3.450   1.273  0.6553 -0.7742  1.0674
 6429TIP3    H240779   2.280   3.561   1.353  0.6167  0.5646 -0.6904
 6430TIP3   OH240780   6.729   3.444  13.811  0.0805  0.5472 -0.0856
 6430TIP3    H140781   6.758   3.535  13.800  0.1065  0.4734 -0.6579
 6430TIP3    H240782   6.790   3.394  13.757  0.2694  0.1544  0.4923
 6431TIP3   OH240783   3.210   5.921  11.517  0.7007  0.3334  0.0323
 6431TIP3    H140784   3.279   5.904  11.453  2.1288  2.6382  0.8514
 6431TIP3    H240785   3.251   5.904  11.602 -0.7241 -1.2304  0.4724
 6432TIP3   OH240786   0.466   1.638  16.709 -0.1808  0.1731 -1.1263
 6432TIP3    H140787   0.377   1.672  16.725 -0.3392  0.8253 -3.1366
 6432TIP3    H240788   0.494   1.681  16.628  1.4226 -1.1166 -1.3050
 6433TIP3   OH240789   5.565   6.372   1.790 -0.0300  0.1797  0.0892
 6433TIP3    H140790   5.503   6.442   1.813  0.8236  0.6057  1.1862
 6433TIP3    H240791   5.534   6.296   1.839  0.3141  0.3954  0.6451
 6434TIP3   OH240792   6.238   4.564  14.959 -0.3820 -0.1081  0.2371
 6434TIP3    H140793   6.193   4.583  15.041 -0.9501 -0.4416  0.0062
 6434TIP3    H240794   6.329   4.588  14.976 -1.1182  3.6972 -0.3057
 6435TIP3   OH240795   1.101   6.295  14.208  0.0186 -0.0245 -0.0844
 6435TIP3    H140796   1.093   6.383  14.172  1.1311  0.4596  0.7709
 6435TIP3    H240797   1.022   6.283  14.261  1.3246  1.8133  2.4863
 6436TIP3   OH240798   2.833   2.165   5.742 -0.3401 -0.2037  0.1905
 6436TIP3    H140799   2.800   2.123   5.821  1.1549 -1.5986  0.1252
 6436TIP3    H240800   2.770   2.235   5.724 -0.0232  1.0680  3.3560
 6437TIP3   OH240801   1.605   0.965   0.846  0.2731 -0.9207  0.1066
 6437TIP3    H140802   1.623   0.961   0.939 -1.1506 -0.0158  0.4566
 6437TIP3    H240803   1.646   0.887   0.809 -0.1413 -1.9070  1.6629
 6438TIP3   OH240804   3.183   4.028   1.808 -0.0981 -0.1928  0.5718
 6438TIP3    H140805   3.236   4.084   1.752 -1.2662  1.6280  1.1762
 6438TIP3    H240806   3.099   4.074   1.813 -1.8446 -3.0520 -0.5280
 6439TIP3   OH240807   0.058   2.946   3.817  0.4705 -0.3149 -0.2945
 6439TIP3    H140808   0.006   3.008   3.766  1.0240 -0.6322 -1.2565
 6439TIP3    H240809   0.007   2.865   3.817 -0.1384  0.0457  0.7612
 6440TIP3   OH240810   3.181   4.011  16.491  0.2920  0.1499 -0.1707
 6440TIP3    H140811   3.141   3.924  16.486  0.3018  0.1093  0.4264
 6440TIP3    H240812   3.267   3.996  16.530  0.8651  0.2578 -1.3268
 6441TIP3   OH240813   5.668   0.640   3.968  0.3702  0.1305  0.1879
 6441TIP3    H140814   5.672   0.608   3.879 -1.8156 -2.3269  0.8571
 6441TIP3    H240815   5.593   0.700   3.969 -0.1896 -0.5576  0.5296
 6442TIP3   OH240816   5.344   3.157   3.287  0.2470  0.7955 -0.2597
 6442TIP3    H140817   5.315   3.106   3.363  3.3330  1.7818  1.7662
 6442TIP3    H240818   5.283   3.231   3.285 -2.4174 -1.2507 -1.4143
 6443TIP3   OH240819   0.377   5.617   2.546 -0.0639  0.4156  0.1509
 6443TIP3    H140820   0.449   5.574   2.499 -0.7325  0.8475 -1.3431
 6443TIP3    H240821   0.309   5.628   2.479 -1.3038  0.5249  1.3924
 6444TIP3   OH240822   1.999   0.268   6.533 -0.1165 -0.2145 -0.0397
 6444TIP3    H140823   2.003   0.325   6.610  0.7889 -0.8348  0.3939
 6444TIP3    H240824   1.974   0.183   6.568  1.2291 -0.7272 -0.2873
 6445TIP3   OH240825   4.007   3.530   2.788 -0.4507 -0.8849  0.7057
 6445TIP3    H140826   3.937   3.469   2.809 -0.2675 -1.2087  0.3779
 6445TIP3    H240827   4.088   3.486   2.816 -0.1090 -1.7071 -1.4158
 6446TIP3   OH240828   2.576   5.986  13.033 -0.1945  0.8188  0.1605
 6446TIP3    H140829   2.552   5.994  12.941 -2.0998 -0.5456  0.4846
 6446TIP3    H240830   2.648   5.924  13.034  0.0383  1.0697 -0.4195
 6447TIP3   OH240831   5.474   3.264  14.066  0.0305  0.4945  0.4904
 6447TIP3    H140832   5.441   3.308  14.145  1.6590  3.8011 -0.4990
 6447TIP3    H240833   5.411   3.287  13.998  0.9491  1.4913 -0.0574
 6448TIP3   OH240834   4.680   1.797  13.299  0.5381 -0.4032 -0.1856
 6448TIP3    H140835   4.740   1.821  13.228  1.1977 -1.8092 -0.1337
 6448TIP3    H240836   4.686   1.702  13.304  1.3986 -0.2826  2.5223
 6449TIP3   OH240837   3.568   3.544   1.673 -0.6888 -0.0622  0.0747
 6449TIP3    H140838   3.640   3.567   1.732 -0.4781  0.9086 -0.5400
 6449TIP3    H240839   3.572   3.448   1.667  0.3801 -0.0398  0.2617
 6450TIP3   OH240840   1.038   5.465   6.588  0.0423 -0.2799 -0.7887
 6450TIP3    H140841   1.064   5.373   6.580  0.0598 -0.2524 -1.0601
 6450TIP3    H240842   0.967   5.476   6.524 -1.0472 -0.4988  0.3395
 6451TIP3   OH240843   2.303   3.340  12.602  0.1443  0.2430  0.3540
 6451TIP3    H140844   2.273   3.281  12.672 -0.2655 -1.1501 -0.9532
 6451TIP3    H240845   2.267   3.426  12.626 -1.7002 -0.6116  0.8224
 6452TIP3   OH240846   3.898   6.216  13.863 -0.6312 -0.1617  0.6931
 6452TIP3    H140847   3.846   6.253  13.791 -0.6581  0.6696  1.1362
 6452TIP3    H240848   3.947   6.290  13.898 -0.2288 -0.6628  1.2079
 6453TIP3   OH240849   6.727   1.902   2.361 -0.1289  0.1575  0.1910
 6453TIP3    H140850   6.699   1.811   2.363  1.5164 -0.3700  0.0904
 6453TIP3    H240851   6.756   1.917   2.271  1.4957  0.1673  0.6912
 6454TIP3   OH240852   4.124   4.765  16.546 -0.7268  0.5503 -0.3147
 6454TIP3    H140853   4.036   4.733  16.566 -1.1435  0.9264 -1.4751
 6454TIP3    H240854   4.111   4.828  16.475  0.3732  1.3314  0.1437
 6455TIP3   OH240855   1.941   1.377  12.255 -0.6709  0.1427 -0.5115
 6455TIP3    H140856   2.003   1.394  12.326 -0.7173 -3.0085  0.4512
 6455TIP3    H240857   1.855   1.384  12.297 -0.7983  0.6102 -0.8526
 6456TIP3   OH240858   1.405   0.651   2.034 -0.5452 -0.2110  0.5909
 6456TIP3    H140859   1.350   0.696   1.969  1.4231  0.8123 -0.4395
 6456TIP3    H240860   1.348   0.642   2.111 -2.4824 -0.1581 -0.7616
 6457TIP3   OH240861   5.959   1.915   1.799  0.2576 -0.3794 -0.2067
 6457TIP3    H140862   5.928   1.860   1.871 -0.4613 -0.1455 -0.3285
 6457TIP3    H240863   5.956   1.857   1.722 -1.9962  0.2107 -0.6424
 6458TIP3   OH240864   0.335   4.473   4.860 -0.0612  0.0895  0.4920
 6458TIP3    H140865   0.294   4.426   4.933  0.5838 -0.5042  0.4779
 6458TIP3    H240866   0.349   4.407   4.793 -0.9813  0.7014 -0.3422
 6459TIP3   OH240867   1.084   0.968   4.266  0.5798  0.5510 -0.8316
 6459TIP3    H140868   0.988   0.960   4.269  0.7022 -1.2488 -0.6079
 6459TIP3    H240869   1.104   0.983   4.174  0.0289  2.2554 -0.7074
 6460TIP3   OH240870   2.983   2.094   0.955  0.6175 -0.1575 -0.3867
 6460TIP3    H140871   2.953   2.070   0.867 -1.5582  0.6301  0.0604
 6460TIP3    H240872   2.934   2.036   1.013  1.9306 -0.5715  0.3383
 6461TIP3   OH240873   5.347   6.370  14.290  0.0182  0.5598  0.1943
 6461TIP3    H140874   5.349   6.291  14.236 -0.8625  0.5741  0.1397
 6461TIP3    H240875   5.358   6.339  14.379  1.2398  0.5160  0.0566
 6462TIP3   OH240876   2.044   3.126  15.260 -0.2283  0.3382 -0.1045
 6462TIP3    H140877   2.091   3.079  15.191 -1.1233 -1.0470  0.1871
 6462TIP3    H240878   1.968   3.071  15.279 -1.0080  1.6313  0.6812
 6463TIP3   OH240879   1.966   0.652   0.807 -0.0245 -0.6002 -0.9020
 6463TIP3    H140880   1.983   0.728   0.862 -1.8666 -0.7436 -0.0597
 6463TIP3    H240881   2.044   0.644   0.752  1.4560  0.1357  0.9936
 6464TIP3   OH240882   3.242   2.716   1.919 -0.0020 -0.4948 -0.3618
 6464TIP3    H140883   3.270   2.636   1.963  1.1876 -0.3052 -0.7390
 6464TIP3    H240884   3.246   2.695   1.825 -0.7063 -0.3160 -0.4382
 6465TIP3   OH240885   4.774   4.441  11.922  0.2189 -0.1238 -0.2509
 6465TIP3    H140886   4.833   4.433  11.847 -0.0486 -1.6677 -0.3314
 6465TIP3    H240887   4.689   4.461  11.884  0.5145  1.4692 -0.1723
 6466TIP3   OH240888   1.992   6.176  17.110 -0.0636  0.6825 -0.7469
 6466TIP3    H140889   2.054   6.170  17.038  0.1542  1.8999 -0.6785
 6466TIP3    H240890   1.966   6.085  17.127  2.2671  0.0415 -0.2450
 6467TIP3   OH240891   3.586   5.406  13.571  0.6105  0.2001  0.3515
 6467TIP3    H140892   3.490   5.410  13.574  0.6667  1.2224  1.5082
 6467TIP3    H240893   3.615   5.476  13.629  2.0748  0.0707 -0.1800
 6468TIP3   OH240894   5.140   2.673   0.356 -0.3036  0.3254 -0.3377
 6468TIP3    H140895   5.138   2.668   0.452  0.6983 -0.5298 -0.3381
 6468TIP3    H240896   5.099   2.757   0.335  1.5095  1.6153  0.9648
 6469TIP3   OH240897   4.418   5.790   2.576 -0.1616  0.2451 -0.2804
 6469TIP3    H140898   4.345   5.731   2.592 -1.1338  0.9218 -1.9625
 6469TIP3    H240899   4.423   5.843   2.656  1.6388 -2.8757  1.8917
 6470TIP3   OH240900   2.131   2.037  17.400  0.1111  0.0720  0.0159
 6470TIP3    H140901   2.173   2.099  17.461  0.3509 -0.4480  0.3826
 6470TIP3    H240902   2.038   2.055  17.409 -0.0222 -1.3313  2.0280
 6471TIP3   OH240903   3.041   4.123   0.079  0.1811 -0.1137 -0.1264
 6471TIP3    H140904   3.087   4.164   0.153  0.0015 -1.2167  0.6238
 6471TIP3    H240905   3.098   4.050   0.053 -0.2368 -0.3436 -0.4116
 6472TIP3   OH240906   4.787   5.494  11.759 -0.4341  0.2976 -0.1265
 6472TIP3    H140907   4.838   5.547  11.820  0.7601 -1.0147  0.0795
 6472TIP3    H240908   4.840   5.492  11.679 -1.0202  0.3526 -0.5273
 6473TIP3   OH240909   1.124   4.007  13.660 -0.4185 -0.5576 -0.4038
 6473TIP3    H140910   1.139   4.090  13.614 -0.0326 -0.3643  0.0616
 6473TIP3    H240911   1.176   4.014  13.740  0.6307 -1.7781 -0.9486
 6474TIP3   OH240912   1.296   6.362  12.610 -0.0735 -0.1980 -0.5905
 6474TIP3    H140913   1.387   6.389  12.620 -0.6609  1.1640  2.2011
 6474TIP3    H240914   1.274   6.322  12.694 -2.0137 -0.5823 -1.2359
 6475TIP3   OH240915   4.114   6.565   1.911 -0.1247  0.3154 -0.1589
 6475TIP3    H140916   4.110   6.647   1.862  1.3835 -0.2013 -1.2069
 6475TIP3    H240917   4.189   6.576   1.970  1.1158 -0.8567 -1.4395
 6476TIP3   OH240918   3.430   5.340   3.789 -0.4958  0.5953 -0.6344
 6476TIP3    H140919   3.337   5.318   3.788 -1.0607  2.6409 -2.3158
 6476TIP3    H240920   3.468   5.282   3.722 -0.3512 -0.8235  0.6287
 6477TIP3   OH240921   0.809   0.902  13.085 -0.4560  0.0899  0.2980
 6477TIP3    H140922   0.844   0.955  13.157  3.1220  0.0551 -1.2200
 6477TIP3    H240923   0.856   0.819  13.092 -0.8769 -0.3219 -1.3836
 6478TIP3   OH240924   3.537   2.882  12.344 -0.3893 -0.3008  0.6165
 6478TIP3    H140925   3.575   2.912  12.262 -3.8758 -1.1858 -1.5310
 6478TIP3    H240926   3.569   2.792  12.355  0.9746  0.1948  0.9037
 6479TIP3   OH240927   4.112   3.122   6.683 -0.1635 -0.7380 -0.1358
 6479TIP3    H140928   4.198   3.164   6.683 -0.3057 -0.4453  0.1956
 6479TIP3    H240929   4.129   3.033   6.713  0.2437 -1.1434 -1.5161
 6480TIP3   OH240930   4.585   5.566  16.251  0.0693  0.0269 -1.2383
 6480TIP3    H140931   4.665   5.578  16.200 -1.5461 -1.2664 -4.4116
 6480TIP3    H240932   4.572   5.471  16.253 -1.4267  0.2102 -0.9193
 6481TIP3   OH240933   5.912   0.041   3.277 -0.2893  0.6073  0.5051
 6481TIP3    H140934   5.873   0.128   3.270  0.2810  0.8183 -0.3239
 6481TIP3    H240935   6.006   0.056   3.266 -0.1805 -0.1078  0.3883
 6482TIP3   OH240936   6.038   1.335  17.176 -0.2120  0.2771  0.3440
 6482TIP3    H140937   5.951   1.347  17.214  0.3250  0.2627  1.6214
 6482TIP3    H240938   6.053   1.414  17.124 -0.5007  0.8327  1.0959
 6483TIP3   OH240939   4.438   3.239   2.587  0.4088 -0.2560  0.1670
 6483TIP3    H140940   4.487   3.249   2.669 -0.2264  0.5266  0.4631
 6483TIP3    H240941   4.455   3.149   2.560  0.4806 -0.5839  1.2588
 6484TIP3   OH240942   4.059   2.461   0.184  0.5959 -0.2452 -0.0566
 6484TIP3    H140943   4.067   2.552   0.154  1.0318 -0.2098  0.1693
 6484TIP3    H240944   4.100   2.460   0.270 -0.4357 -0.4084  0.4464
 6485TIP3   OH240945   3.741   5.468   5.427  0.4812  0.4976  0.2361
 6485TIP3    H140946   3.744   5.560   5.401  1.7526  0.6845  0.9540
 6485TIP3    H240947   3.826   5.452   5.470  0.6310 -1.2311 -0.6052
 6486TIP3   OH240948   5.037   2.590   6.634  0.5402  0.5969  0.1293
 6486TIP3    H140949   5.121   2.566   6.673  0.8009 -0.3369 -0.9314
 6486TIP3    H240950   5.011   2.512   6.584  0.4609  1.8571 -1.9017
 6487TIP3   OH240951   0.558   1.108  14.266  0.3523  0.0538  0.0625
 6487TIP3    H140952   0.512   1.164  14.328 -0.1139 -0.5640  0.2950
 6487TIP3    H240953   0.524   1.020  14.285  1.9967 -0.5011  0.5647
 6488TIP3   OH240954   2.563   3.688   5.570  0.6929 -0.1860  0.2082
 6488TIP3    H140955   2.622   3.760   5.591  0.8796 -0.2156 -0.2203
 6488TIP3    H240956   2.496   3.692   5.638 -2.1175  3.4042 -2.4548
 6489TIP3   OH240957   4.648   3.682   1.281  0.2227  1.4958  0.1251
 6489TIP3    H140958   4.728   3.699   1.231  2.7420 -2.8181  2.1817
 6489TIP3    H240959   4.590   3.637   1.219  1.3071  0.5866 -0.2645
 6490TIP3   OH240960   3.226   1.464  15.569  0.4813 -0.0543  0.3955
 6490TIP3    H140961   3.251   1.372  15.559  0.8540 -0.0670  1.3735
 6490TIP3    H240962   3.289   1.500  15.631  0.4504  0.9186 -0.1091
 6491TIP3   OH240963   2.141   4.576  14.216 -0.4536  0.3792 -0.2931
 6491TIP3    H140964   2.064   4.609  14.169 -0.0909  0.8338 -0.5789
 6491TIP3    H240965   2.112   4.494  14.256 -0.9364  0.2848 -0.8265
 6492TIP3   OH240966   3.497   6.609   6.213  1.1771  0.8354  0.8690
 6492TIP3    H140967   3.416   6.651   6.186  0.7070 -0.6048 -0.1262
 6492TIP3    H240968   3.547   6.600   6.132  1.3505 -0.2704  1.0839
 6493TIP3   OH240969   3.803   3.991  15.664  0.2253  0.1414 -0.4484
 6493TIP3    H140970   3.809   3.929  15.591 -1.9055 -0.3176 -0.3018
 6493TIP3    H240971   3.710   4.017  15.666  0.2811  0.3577  1.9056
 6494TIP3   OH240972   1.633   1.530   6.125  0.3021 -0.3726  0.4427
 6494TIP3    H140973   1.580   1.460   6.087  0.4834 -0.4369  0.3109
 6494TIP3    H240974   1.573   1.605   6.129 -0.1675 -0.7783  1.4229
 6495TIP3   OH240975   0.260   0.678   4.467  0.4135  0.5069  0.3978
 6495TIP3    H140976   0.328   0.642   4.523  1.2790  0.9663 -0.3245
 6495TIP3    H240977   0.276   0.773   4.469  0.3110  0.5437 -0.4368
 6496TIP3   OH240978   3.720   3.088  16.781 -0.1893  0.1650 -0.4357
 6496TIP3    H140979   3.672   3.008  16.762 -1.4302  0.3777  1.5096
 6496TIP3    H240980   3.734   3.129  16.695 -0.6227 -1.5044 -1.3392
 6497TIP3   OH240981   3.519   5.177   3.554 -0.4471  0.3331 -0.2687
 6497TIP3    H140982   3.600   5.226   3.542  0.4226 -1.1170 -0.4306
 6497TIP3    H240983   3.546   5.093   3.590 -1.9978  0.2905  0.8884
 6498TIP3   OH240984   4.897   5.780   4.692  0.0276 -0.0925 -0.1150
 6498TIP3    H140985   4.952   5.816   4.763  0.2381 -0.3870 -0.1267
 6498TIP3    H240986   4.943   5.805   4.612 -2.5560  4.3821 -0.4823
 6499TIP3   OH240987   5.506   0.741  14.908 -0.0208 -0.0140  0.6916
 6499TIP3    H140988   5.502   0.654  14.868 -1.3215 -1.5902  3.8716
 6499TIP3    H240989   5.516   0.801  14.834  0.1083 -2.7700 -1.7156
 6500TIP3   OH240990   0.605   4.880  12.041  0.0895  0.0407 -0.2353
 6500TIP3    H140991   0.522   4.833  12.049 -0.5515  1.0626 -0.5636
 6500TIP3    H240992   0.630   4.900  12.132 -0.8797  1.1287 -0.1873
 6501TIP3   OH240993   3.197   0.390   5.405  0.2033 -0.3892  0.0698
 6501TIP3    H140994   3.231   0.325   5.344  0.1901  0.2660 -0.6473
 6501TIP3    H240995   3.109   0.408   5.375  0.9253  1.5355 -1.0724
 6502TIP3   OH240996   3.569   6.305   3.522 -0.7958 -0.7053 -0.1844
 6502TIP3    H140997   3.649   6.253   3.529 -0.3206 -0.3694 -2.3315
 6502TIP3    H240998   3.550   6.307   3.428 -2.3995  0.6393  0.1190
 6503TIP3   OH240999   5.163   2.506  16.943 -0.3520  0.2363  0.1775
 6503TIP3    H141000   5.239   2.474  16.991 -1.5567 -0.1336  1.9284
 6503TIP3    H241001   5.138   2.587  16.988 -0.8102  0.5313 -0.5777
 6504TIP3   OH241002   0.648   0.082   3.503  0.5594 -0.2271 -0.3851
 6504TIP3    H141003   0.715   0.029   3.547 -0.2016 -0.8934  0.0068
 6504TIP3    H241004   0.570   0.025   3.501  0.1747  0.3133 -1.3598
 6505TIP3   OH241005   3.043   3.406   2.684  0.4063  0.1480 -0.3999
 6505TIP3    H141006   3.105   3.397   2.611  0.4791 -1.4978 -0.1762
 6505TIP3    H241007   3.013   3.317   2.700 -0.4336  0.6436  0.8872
 6506TIP3   OH241008   0.893   2.705  13.576  0.9563  0.6970  0.0224
 6506TIP3    H141009   0.809   2.749  13.582  1.8641  2.4312  0.9365
 6506TIP3    H241010   0.873   2.612  13.585 -1.0511  0.8676 -2.0141
 6507TIP3   OH241011   4.263   1.057   4.981  0.3003 -0.4434 -0.1572
 6507TIP3    H141012   4.205   1.133   4.981 -0.8211 -1.2637 -0.2472
 6507TIP3    H241013   4.337   1.083   4.926  0.3083  0.8285  0.4078
 6508TIP3   OH241014   1.636   3.635   0.501 -0.0336 -0.0143  0.6687
 6508TIP3    H141015   1.647   3.576   0.426  0.1250  0.8263  0.0164
 6508TIP3    H241016   1.616   3.720   0.462 -1.0250  0.2044  1.6226
 6509TIP3   OH241017   1.522   1.992  13.559  0.1953 -0.1179 -0.3601
 6509TIP3    H141018   1.571   1.921  13.600 -0.7169 -0.0084  0.9452
 6509TIP3    H241019   1.589   2.058  13.538  0.7214 -0.2771  0.7404
 6510TIP3   OH241020   6.784   2.625   5.285  0.2640 -0.5360  0.6722
 6510TIP3    H141021   6.730   2.701   5.264  0.3044 -0.6815  0.0090
 6510TIP3    H241022   6.873   2.653   5.266  0.1805 -1.0871 -0.6529
 6511TIP3   OH241023   4.931   0.841   3.728  0.2808 -0.1937  0.0225
 6511TIP3    H141024   4.953   0.913   3.787  0.1338  0.2953 -0.5174
 6511TIP3    H241025   5.006   0.835   3.668 -0.2303  0.2903 -0.6782
 6512TIP3   OH241026   6.052   4.579   0.253  0.0823  0.3952  0.2820
 6512TIP3    H141027   6.005   4.568   0.336 -0.4816  1.1579  0.0696
 6512TIP3    H241028   6.142   4.552   0.273 -0.4001 -0.9825  0.7234
 6513TIP3   OH241029   4.652   0.482  16.733 -0.3208  0.2647  0.4009
 6513TIP3    H141030   4.617   0.556  16.783 -2.0869 -0.3868  0.1868
 6513TIP3    H241031   4.644   0.510  16.641  0.5228  0.4398  0.3768
 6514TIP3   OH241032   3.819   3.494   2.081  0.0227 -0.1668  0.1441
 6514TIP3    H141033   3.792   3.431   2.148  0.8849  0.7113  1.3398
 6514TIP3    H241034   3.892   3.542   2.120  0.8731  0.0585 -1.5996
 6515TIP3   OH241035   0.007   1.283  12.017  0.0391  0.0298 -0.0790
 6515TIP3    H141036  -0.067   1.300  11.958 -0.1835 -0.9667 -0.1127
 6515TIP3    H241037   0.070   1.352  11.997 -0.4113  0.2300 -0.8542
 6516TIP3   OH241038   4.747   1.868  14.032 -0.2390  0.1408  0.3079
 6516TIP3    H141039   4.702   1.920  14.099 -2.2453 -0.3001 -0.6211
 6516TIP3    H241040   4.800   1.931  13.983  1.4139  0.4459  2.3459
 6517TIP3   OH241041   3.208   4.889   3.520 -0.0052 -0.1144 -0.0520
 6517TIP3    H141042   3.286   4.909   3.467  0.4404 -2.9881 -0.6431
 6517TIP3    H241043   3.135   4.908   3.461  0.2422  1.4527  0.0930
 6518TIP3   OH241044   5.694   2.578   5.360 -0.2889  0.3196 -0.0276
 6518TIP3    H141045   5.704   2.660   5.312  1.7103  0.5195  0.6182
 6518TIP3    H241046   5.734   2.595   5.446 -2.0945 -0.5816  1.0579
 6519TIP3   OH241047   4.522   5.500  11.685 -0.0479 -0.3255  0.2177
 6519TIP3    H141048   4.600   5.507  11.741 -0.3900  0.7706  0.5822
 6519TIP3    H241049   4.540   5.426  11.627  2.6820  1.7727 -1.8902
 6520TIP3   OH241050   4.845   5.737  11.490 -0.7093  0.2550 -0.2302
 6520TIP3    H141051   4.751   5.725  11.475 -0.7228  0.4037 -0.2682
 6520TIP3    H241052   4.884   5.736  11.403 -0.5522 -0.8096 -0.1584
 6521TIP3   OH241053   3.381   0.312  14.266  0.2729  0.2821 -0.3399
 6521TIP3    H141054   3.368   0.375  14.336  0.1094 -0.3755  0.2297
 6521TIP3    H241055   3.299   0.312  14.217 -0.6659 -1.2667  1.1300
 6522TIP3   OH241056   5.890   5.496  16.278  0.8079  0.1239 -0.0186
 6522TIP3    H141057   5.936   5.413  16.278  0.1451 -0.2607  1.1621
 6522TIP3    H241058   5.860   5.507  16.187  1.1967 -0.7484 -0.2586
 6523TIP3   OH241059   2.114   5.964   2.848  0.2895  0.1422  0.1389
 6523TIP3    H141060   2.055   5.991   2.918  0.0124  0.4682 -0.2137
 6523TIP3    H241061   2.056   5.934   2.778  0.5784 -1.0903  0.3950
 6524TIP3   OH241062   3.463   6.274   5.099  0.1659 -0.0120 -0.2760
 6524TIP3    H141063   3.442   6.190   5.059  0.5663 -0.3110  0.1371
 6524TIP3    H241064   3.499   6.252   5.185 -1.1281  0.6438  0.4603
 6525TIP3   OH241065   0.420   6.195  10.726 -0.3585 -0.1017  0.0556
 6525TIP3    H141066   0.511   6.193  10.753 -0.8734 -0.9280  1.9090
 6525TIP3    H241067   0.412   6.122  10.664  0.1112 -0.4518  0.3993
 6526TIP3   OH241068   2.621   2.886  15.665 -0.2228 -0.4325  0.1632
 6526TIP3    H141069   2.699   2.876  15.719 -0.4360  0.1725  0.5850
 6526TIP3    H241070   2.618   2.978  15.641 -0.0604 -0.7061 -1.0077
 6527TIP3   OH241071   1.567   6.788   0.728  0.0428  0.5863  0.1973
 6527TIP3    H141072   1.657   6.763   0.708 -0.2045  0.6811 -1.1451
 6527TIP3    H241073   1.550   6.748   0.813  0.8167 -0.8752 -0.2878
 6528TIP3   OH241074   4.873   2.373  15.872  0.1947  0.1634  0.2892
 6528TIP3    H141075   4.830   2.425  15.940  0.7976  1.6203 -0.3894
 6528TIP3    H241076   4.913   2.438  15.814  0.6845 -1.0687 -0.8106
 6529TIP3   OH241077   2.359   3.921   1.487 -0.1300  0.2557 -0.2513
 6529TIP3    H141078   2.425   3.973   1.534 -0.8374 -1.7996  3.4771
 6529TIP3    H241079   2.405   3.841   1.462 -0.9590 -1.0052  1.9952
 6530TIP3   OH241080   3.134   4.419   1.920 -0.1836  0.2251  0.1501
 6530TIP3    H141081   3.209   4.459   1.966  0.9921 -0.2066 -1.3167
 6530TIP3    H241082   3.169   4.394   1.835 -2.5509  2.0225 -1.4823
 6531TIP3   OH241083   1.343   4.078   3.611 -0.0805 -0.1439  0.5701
 6531TIP3    H141084   1.322   4.143   3.678  0.4749  0.7468 -0.1125
 6531TIP3    H241085   1.258   4.045   3.583 -0.3507  0.0227  1.1777
 6532TIP3   OH241086   1.482   2.201   4.727 -0.2814 -0.4123  0.1914
 6532TIP3    H141087   1.407   2.224   4.782 -1.3531  1.2298 -1.8248
 6532TIP3    H241088   1.533   2.282   4.720 -0.2070 -0.5539 -1.2460
 6533TIP3   OH241089   3.625   6.250   0.563  0.0075 -0.4873 -0.2261
 6533TIP3    H141090   3.562   6.312   0.526 -0.6296 -0.7429  0.4065
 6533TIP3    H241091   3.672   6.301   0.630  1.7215  0.2095 -1.8630
 6534TIP3   OH241092   3.927   0.145  12.576  0.0455  0.4011 -0.8501
 6534TIP3    H141093   3.952   0.088  12.504  0.5448 -0.1346 -0.2587
 6534TIP3    H241094   3.953   0.098  12.655  1.3964  1.8762 -0.3575
 6535TIP3   OH241095   0.362   3.793  17.387  0.8346 -0.2466  0.3904
 6535TIP3    H141096   0.285   3.773  17.441 -1.8043  0.7301 -2.6553
 6535TIP3    H241097   0.396   3.707  17.362 -0.8262 -0.8001 -0.1263
 6536TIP3   OH241098   0.681   3.268   1.002 -0.4129 -0.4081  0.2569
 6536TIP3    H141099   0.655   3.340   1.058 -0.2874 -0.4064  0.3146
 6536TIP3    H241100   0.773   3.251   1.026 -0.1945 -0.0572 -0.3158
 6537TIP3   OH241101   0.755   3.943  16.639  0.2662 -0.2256 -0.0519
 6537TIP3    H141102   0.670   3.985  16.652  0.3464 -0.3076  0.7912
 6537TIP3    H241103   0.733   3.856  16.607 -0.0277 -0.6033  1.1006
 6538TIP3   OH241104   6.560   6.416  16.779  0.2702  0.0151  0.1440
 6538TIP3    H141105   6.575   6.322  16.778 -0.3420 -0.0902 -0.5239
 6538TIP3    H241106   6.640   6.454  16.743  0.4929 -0.2592  0.3525
 6539TIP3   OH241107   5.537   0.251  16.039 -0.2687 -0.5389 -0.1970
 6539TIP3    H141108   5.561   0.325  15.982  0.4768 -1.9457 -1.7982
 6539TIP3    H241109   5.615   0.236  16.092 -0.2336 -0.4943 -0.2349
 6540TIP3   OH241110   4.943   5.648   3.518  0.4812 -0.1626  0.5581
 6540TIP3    H141111   4.854   5.680   3.530  0.0426 -1.0729 -0.0780
 6540TIP3    H241112   4.973   5.624   3.606  1.0640  2.4722  1.1571
 6541TIP3   OH241113   3.927   5.423  14.294  0.2912 -0.1349  0.0712
 6541TIP3    H141114   3.857   5.368  14.329  1.8142 -2.1033  0.1699
 6541TIP3    H241115   3.974   5.455  14.371  0.4802 -0.1478 -0.0369
 6542TIP3   OH241116   0.852   6.136  14.624 -0.0239 -0.6459 -0.0519
 6542TIP3    H141117   0.781   6.196  14.645 -0.5336 -1.3007  0.1417
 6542TIP3    H241118   0.905   6.133  14.704  0.9595  0.8153 -0.6142
 6543TIP3   OH241119   5.661   6.232   0.026 -0.0257  0.2796 -0.5796
 6543TIP3    H141120   5.643   6.314  -0.020 -1.0511 -0.1343 -0.9433
 6543TIP3    H241121   5.630   6.247   0.115 -1.2535 -0.0846 -0.9389
 6544TIP3   OH241122   1.378   0.769  12.807 -0.1024 -0.0033  0.0168
 6544TIP3    H141123   1.414   0.789  12.721  0.1799  3.0199  0.7334
 6544TIP3    H241124   1.454   0.764  12.865 -0.4356  0.2319  0.4842
 6545TIP3   OH241125   3.504   6.156  14.863  0.4367  0.9274 -0.0273
 6545TIP3    H141126   3.422   6.131  14.821 -0.0790  0.1310  1.3854
 6545TIP3    H241127   3.571   6.139  14.797 -0.3755  0.0772 -0.6580
 6546TIP3   OH241128   5.252   3.985   2.235  0.1127 -0.4606 -0.1587
 6546TIP3    H141129   5.313   4.051   2.268  1.1395 -0.3349 -2.1575
 6546TIP3    H241130   5.290   3.901   2.263 -0.7345 -0.3004  1.6297
 6547TIP3   OH241131   3.968   4.863  12.833 -0.4786  0.1102  0.1667
 6547TIP3    H141132   4.022   4.899  12.763 -0.0775  1.6622  1.2264
 6547TIP3    H241133   4.019   4.877  12.912 -0.3870 -2.6834  0.7121
 6548TIP3   OH241134   2.502   4.956  10.919  0.1140  0.1684  0.1426
 6548TIP3    H141135   2.522   5.045  10.891 -3.0254  0.0639 -3.1479
 6548TIP3    H241136   2.544   4.900  10.853  0.7075 -0.7474  1.2607
 6549TIP3   OH241137   0.224   5.177   0.671  0.2983 -0.0686  0.1728
 6549TIP3    H141138   0.217   5.082   0.665  1.8467 -0.1769 -0.6022
 6549TIP3    H241139   0.318   5.193   0.685 -0.1220  1.2935  1.7547
 6550TIP3   OH241140   3.304   3.704  14.301  0.4840 -0.6676 -0.1178
 6550TIP3    H141141   3.241   3.774  14.321  0.3712 -0.5130 -0.9583
 6550TIP3    H241142   3.387   3.749  14.286 -0.3162 -0.1912 -4.3547
 6551TIP3   OH241143   5.706   5.725   1.209  0.2032 -0.1324  0.6519
 6551TIP3    H141144   5.750   5.710   1.292  1.7171 -1.5929 -0.3531
 6551TIP3    H241145   5.777   5.748   1.148 -0.8185  0.5277 -0.3372
 6552TIP3   OH241146   5.556   4.168  15.212 -0.1046  1.4228  0.4221
 6552TIP3    H141147   5.636   4.118  15.232 -0.2655  0.1824 -1.7142
 6552TIP3    H241148   5.485   4.112  15.244 -0.2078  1.1409 -0.2760
 6553TIP3   OH241149   3.833   3.346   2.880 -0.0302  0.2547 -0.3454
 6553TIP3    H141150   3.841   3.301   2.795  1.7507  0.6253 -0.4050
 6553TIP3    H241151   3.744   3.383   2.879 -1.6645 -3.2204 -0.2665
 6554TIP3   OH241152   1.354   6.761  14.776  0.1572 -0.5495 -0.6151
 6554TIP3    H141153   1.423   6.801  14.723 -0.0518  0.4239 -0.1786
 6554TIP3    H241154   1.323   6.688  14.724  0.9323 -0.4782 -1.2012
 6555TIP3   OH241155   5.665   4.571  12.986  0.5496  0.3478 -0.3558
 6555TIP3    H141156   5.730   4.519  12.940  2.5476  1.3318  1.2079
 6555TIP3    H241157   5.645   4.521  13.065  0.0408  0.4510 -0.4152
 6556TIP3   OH241158   0.844   2.631   3.469 -0.0554 -0.3493 -0.6459
 6556TIP3    H141159   0.833   2.561   3.404  1.2604 -0.7698 -0.4443
 6556TIP3    H241160   0.844   2.586   3.553 -0.7220  0.0843 -0.4040
 6557TIP3   OH241161   3.776   6.000  16.166 -0.2816  0.1246 -0.4310
 6557TIP3    H141162   3.797   5.917  16.124 -0.5899 -0.4526  0.5365
 6557TIP3    H241163   3.747   6.057  16.095 -1.0727 -0.9212 -0.9547
 6558TIP3   OH241164   3.972   0.960  15.103 -0.1502 -0.1857 -0.2964
 6558TIP3    H141165   3.928   0.987  15.183  1.0305  1.2191 -0.0843
 6558TIP3    H241166   4.045   0.906  15.133  3.0776  3.9013  0.1141
 6559TIP3   OH241167   0.274   4.355  10.961 -0.0849 -0.4933  0.7244
 6559TIP3    H141168   0.188   4.355  10.919  1.1188  0.6717 -1.9822
 6559TIP3    H241169   0.308   4.266  10.946  0.2676 -0.1389 -0.7841
 6560TIP3   OH241170   2.475   1.270   1.736  0.0988 -0.2006 -0.2418
 6560TIP3    H141171   2.540   1.208   1.768 -0.8877 -1.5152 -0.6698
 6560TIP3    H241172   2.485   1.268   1.641  0.1843  0.4408 -0.2462
 6561TIP3   OH241173   4.074   3.058  12.086 -0.4858 -0.4646  0.7484
 6561TIP3    H141174   3.993   3.103  12.109 -1.2100 -1.6067  0.5313
 6561TIP3    H241175   4.133   3.076  12.159 -1.4326 -0.7892  1.6170
 6562TIP3   OH241176   5.848   5.917   1.550  0.1730  0.4904  0.2793
 6562TIP3    H141177   5.777   5.922   1.487  2.2311  0.2971 -2.2327
 6562TIP3    H241178   5.823   5.846   1.609 -1.8086  0.6415 -0.3050
 6563TIP3   OH241179   5.303   0.281   4.121 -0.1699 -0.1505 -0.0369
 6563TIP3    H141180   5.390   0.289   4.082 -0.1036 -2.3755 -0.4552
 6563TIP3    H241181   5.254   0.355   4.085  1.5611  1.3101  0.4039
 6564TIP3   OH241182   5.025   3.390   5.523  0.3038  0.4044  0.0250
 6564TIP3    H141183   5.070   3.469   5.552  1.0823 -0.1243  0.2755
 6564TIP3    H241184   4.971   3.365   5.598 -0.5418  1.1182 -0.3272
 6565TIP3   OH241185   3.574   3.867  11.325 -0.2766  0.4195  0.4437
 6565TIP3    H141186   3.485   3.854  11.291 -0.2556 -1.0802  0.8944
 6565TIP3    H241187   3.566   3.846  11.418  0.2682  1.7051  0.8060
 6566TIP3   OH241188   4.204   0.865   6.330 -0.1484 -0.7521  0.0253
 6566TIP3    H141189   4.286   0.837   6.371 -0.1837 -1.4684 -0.3753
 6566TIP3    H241190   4.173   0.937   6.385  1.1498  0.0758 -0.2859
 6567TIP3   OH241191   2.921   5.912  13.698 -0.2659  0.1774 -0.2065
 6567TIP3    H141192   2.936   5.906  13.604  1.3270 -0.1778  0.0462
 6567TIP3    H241193   2.827   5.930  13.706 -1.0589 -2.7314 -1.7537
 6568TIP3   OH241194   3.893   4.617  12.266 -0.1931 -0.4736 -0.3967
 6568TIP3    H141195   3.802   4.635  12.239 -0.1715 -0.5259 -0.5033
 6568TIP3    H241196   3.908   4.679  12.338 -0.8561 -1.5550  0.7235
 6569TIP3   OH241197   5.055   4.981   2.392  0.2948  0.7505 -0.2314
 6569TIP3    H141198   5.145   4.991   2.362  0.0568  1.0286 -0.8776
 6569TIP3    H241199   5.061   4.930   2.472  1.0936  1.3971  0.1349
 6570TIP3   OH241200   5.838   1.539   0.600  0.4143 -0.7107 -0.1135
 6570TIP3    H141201   5.832   1.622   0.646  1.4439 -0.2056 -0.8426
 6570TIP3    H241202   5.757   1.493   0.620 -1.7181  1.8195 -2.2992
 6571TIP3   OH241203   6.743   1.480  12.430 -0.2988  0.2021  0.0727
 6571TIP3    H141204   6.666   1.502  12.378 -0.5228 -2.6132 -0.9860
 6571TIP3    H241205   6.717   1.402  12.479  1.4036  0.0593  0.8276
 6572TIP3   OH241206   3.692   3.542   2.654  0.6828  0.1565 -0.4600
 6572TIP3    H141207   3.725   3.584   2.575 -3.6222  0.7009 -2.2304
 6572TIP3    H241208   3.664   3.615   2.710 -2.8873 -0.0242 -1.7310
 6573TIP3   OH241209   1.591   5.338   6.037  0.3693  0.3487  0.2825
 6573TIP3    H141210   1.605   5.287   5.958  0.6864  0.8425  0.0210
 6573TIP3    H241211   1.519   5.397   6.015 -1.4060 -1.3419  1.2266
 6574TIP3   OH241212   5.659   3.664   6.614  0.2546 -0.2704 -0.1209
 6574TIP3    H141213   5.567   3.690   6.617  0.6724  1.2198  1.4471
 6574TIP3    H241214   5.658   3.571   6.638 -0.7418  0.1327  1.5529
 6575TIP3   OH241215   3.726   1.166   3.820  0.3891 -1.4718 -0.0594
 6575TIP3    H141216   3.768   1.239   3.773 -0.1185 -0.4577  1.0072
 6575TIP3    H241217   3.789   1.143   3.888  0.0865 -1.3085  0.2754
 6576TIP3   OH241218   0.084   6.012  12.263  0.2879  0.8194 -0.2000
 6576TIP3    H141219   0.014   5.950  12.243 -0.0213  0.9903  0.3469
 6576TIP3    H241220   0.154   5.990  12.201 -0.4334  0.9662 -1.0992
 6577TIP3   OH241221   4.131   5.360   2.002  0.1095 -0.1962 -0.2293
 6577TIP3    H141222   4.077   5.325   1.931 -0.8565  1.0230 -0.1306
 6577TIP3    H241223   4.149   5.450   1.976 -0.4522  0.3476  1.1565
 6578TIP3   OH241224   1.592   0.378  11.523  0.7321 -0.0018 -1.0020
 6578TIP3    H141225   1.540   0.364  11.602 -0.5088 -0.4300 -1.8606
 6578TIP3    H241226   1.673   0.419  11.554 -0.6076  1.8500  0.2631
 6579TIP3   OH241227   2.564   0.011   6.063 -0.0020  0.3859 -0.2958
 6579TIP3    H141228   2.524  -0.044   6.131  2.3082 -1.7589 -0.5096
 6579TIP3    H241229   2.622   0.070   6.110 -0.0179  0.3649 -0.2497
 6580TIP3   OH241230   0.233   5.974   0.080 -0.3315  0.3818 -0.3075
 6580TIP3    H141231   0.310   5.919   0.065 -0.3778 -0.3619  1.8224
 6580TIP3    H241232   0.268   6.053   0.122 -0.5269  0.9722 -1.2303
 6581TIP3   OH241233   4.384   2.400  15.948  0.2349 -0.8019 -0.2408
 6581TIP3    H141234   4.292   2.391  15.973 -0.0899  0.3139 -0.9681
 6581TIP3    H241235   4.417   2.310  15.946 -0.5720 -1.1536  0.9707
 6582TIP3   OH241236   1.076   4.011   5.392 -0.5278 -0.1566  0.2141
 6582TIP3    H141237   1.138   4.066   5.344 -0.2623  0.7154  1.4983
 6582TIP3    H241238   1.082   3.925   5.350  2.1532 -0.3235  0.7878
 6583TIP3   OH241239   0.051   0.423   1.144  0.1166 -0.1954 -0.2055
 6583TIP3    H141240   0.034   0.513   1.172  0.4627 -0.2107  0.0622
 6583TIP3    H241241  -0.020   0.403   1.083  0.6460  0.6472 -1.1490
 6584TIP3   OH241242   4.083   5.938   1.994  0.1980 -0.0200  0.2806
 6584TIP3    H141243   4.030   6.018   1.992 -1.1244 -0.8582  0.4913
 6584TIP3    H241244   4.112   5.926   1.903  2.0687  1.7128  0.5615
 6585TIP3   OH241245   5.134   6.644  14.092 -0.5019  0.3701  0.4942
 6585TIP3    H141246   5.069   6.574  14.091  0.4496 -0.5686  1.6591
 6585TIP3    H241247   5.146   6.667  13.999 -1.2757 -0.5840  0.1447
 6586TIP3   OH241248   3.208   2.780   6.073  0.0861  0.0148 -0.2592
 6586TIP3    H141249   3.274   2.805   6.139  1.9057  1.0240 -2.3360
 6586TIP3    H241250   3.131   2.832   6.095  0.8855  0.8469  0.6660
 6587TIP3   OH241251   3.265   5.558   5.875  0.3297 -0.2038 -0.0818
 6587TIP3    H141252   3.221   5.474   5.891 -0.0618  0.0487  0.1994
 6587TIP3    H241253   3.342   5.556   5.932  1.4272 -1.1900 -1.5126
 6588TIP3   OH241254   6.502   1.870   4.067 -0.9847 -0.6607 -0.1158
 6588TIP3    H141255   6.424   1.909   4.105 -1.0678 -2.0462  1.2140
 6588TIP3    H241256   6.529   1.804   4.130  2.4064  1.0506  0.4531
 6589TIP3   OH241257   4.254   1.697   0.528  0.2883  0.1054  0.1812
 6589TIP3    H141258   4.180   1.739   0.484 -0.3024 -0.7719  0.3084
 6589TIP3    H241259   4.331   1.746   0.499 -0.4608  1.8758  1.0904
 6590TIP3   OH241260   4.030   1.571  13.868 -0.6453 -0.3548 -0.0893
 6590TIP3    H141261   4.070   1.572  13.956 -1.2443 -0.6587  0.1918
 6590TIP3    H241262   3.991   1.658  13.859  0.3907  0.0867 -0.5230
 6591TIP3   OH241263   1.362   6.251   1.891 -0.5199  0.1094  0.4494
 6591TIP3    H141264   1.363   6.284   1.801 -1.3078  0.9831  0.7450
 6591TIP3    H241265   1.312   6.170   1.886 -2.1271  1.0594  0.3648
 6592TIP3   OH241266   0.886   4.108  16.118  0.1708  0.5998  0.1030
 6592TIP3    H141267   0.934   4.171  16.063 -0.1986 -0.4414 -1.4974
 6592TIP3    H241268   0.845   4.049  16.055 -0.1805 -0.7408  1.5425
 6593TIP3   OH241269   5.870   6.364   2.828  0.2242 -0.1834  0.0401
 6593TIP3    H141270   5.921   6.284   2.812  1.8789  0.0783  3.2012
 6593TIP3    H241271   5.902   6.397   2.912 -2.2079  2.4454  0.1055
 6594TIP3   OH241272   1.066   2.384   2.815  0.5317 -0.8988  0.0115
 6594TIP3    H141273   1.005   2.322   2.775  0.1498  0.0348 -0.8831
 6594TIP3    H241274   1.149   2.336   2.820 -0.0543 -1.8943  0.4793
 6595TIP3   OH241275   2.097   5.986   5.749  0.5089  0.1038 -0.3471
 6595TIP3    H141276   2.130   5.904   5.714 -0.7858 -0.6366  0.0891
 6595TIP3    H241277   2.120   6.051   5.683 -0.3934 -0.9880 -1.7950
 6596TIP3   OH241278   5.735   1.486   3.792  0.4722  0.1112 -0.5195
 6596TIP3    H141279   5.690   1.441   3.720 -2.8603  1.4954  0.4857
 6596TIP3    H241280   5.764   1.568   3.753 -1.5309  0.9620 -0.3545
 6597TIP3   OH241281   3.561   2.328   4.828 -0.5197 -0.0087 -0.0416
 6597TIP3    H141282   3.571   2.302   4.919 -3.9469  0.8412  0.7223
 6597TIP3    H241283   3.503   2.262   4.790 -1.4159  1.1294 -0.7452
 6598TIP3   OH241284   2.215   5.817   5.588 -0.6027  0.2859 -0.0878
 6598TIP3    H141285   2.192   5.739   5.538  0.2893 -0.2209  0.2644
 6598TIP3    H241286   2.258   5.874   5.524  1.5487 -0.8194  0.2597
 6599TIP3   OH241287   4.588   2.759  16.986 -0.3970  0.5820 -0.5223
 6599TIP3    H141288   4.630   2.703  16.920  0.3138  0.6201 -0.1055
 6599TIP3    H241289   4.509   2.711  17.011 -1.2350  1.0383 -2.1341
 6600TIP3   OH241290   6.743   1.604   1.282 -0.3010 -0.3885 -0.4227
 6600TIP3    H141291   6.703   1.609   1.195  0.2666  1.8433 -0.6089
 6600TIP3    H241292   6.837   1.599   1.265 -0.0266  2.2317  0.0165
 6601TIP3   OH241293   5.009   6.128  15.789 -0.1577  0.2341  0.0999
 6601TIP3    H141294   5.077   6.084  15.737 -0.4765 -0.7666  0.5061
 6601TIP3    H241295   5.001   6.215  15.750  1.4239  0.4072  0.0971
 6602TIP3   OH241296   4.988   0.153  16.859 -0.2630 -0.3855 -0.1158
 6602TIP3    H141297   5.068   0.191  16.820  1.1192 -1.6976  1.3127
 6602TIP3    H241298   4.917   0.188  16.805  1.2254  1.1762 -1.1893
 6603TIP3   OH241299   3.750   0.843   2.959  0.2897 -0.4081 -0.1573
 6603TIP3    H141300   3.671   0.896   2.964  0.6350  0.2712 -1.6044
 6603TIP3    H241301   3.816   0.893   3.007  0.0643 -0.5851  0.3447
 6604TIP3   OH241302   0.660   0.681   2.819 -0.1141  0.1456  0.5032
 6604TIP3    H141303   0.673   0.625   2.896  0.0841 -3.1030 -1.6774
 6604TIP3    H241304   0.748   0.693   2.783 -0.4304 -0.6538 -0.6127
 6605TIP3   OH241305   3.122   2.414  14.540 -0.2453  0.2623 -0.1269
 6605TIP3    H141306   3.049   2.476  14.538 -1.1991 -0.8269 -0.6969
 6605TIP3    H241307   3.094   2.347  14.603 -1.7717 -2.4453 -3.3420
 6606TIP3   OH241308   4.042   6.615   1.120 -0.5873 -0.1266  0.2852
 6606TIP3    H141309   4.115   6.602   1.180 -2.3690  1.0316  2.8926
 6606TIP3    H241310   3.996   6.531   1.119 -0.5382 -0.1552  0.4950
 6607TIP3   OH241311   4.403   6.408   0.104  0.0194 -0.0100  0.0853
 6607TIP3    H141312   4.427   6.319   0.081  0.7991  0.0343  0.6724
 6607TIP3    H241313   4.314   6.402   0.136 -0.4802 -0.3341 -1.2781
 6608TIP3   OH241314   2.913   5.061   3.549  0.1624 -0.9298 -0.4341
 6608TIP3    H141315   2.992   5.028   3.593  0.6664 -1.7751 -1.8934
 6608TIP3    H241316   2.841   5.011   3.587  0.5732 -1.5399 -0.4384
 6609TIP3   OH241317   0.625   1.015   0.222 -0.9187 -0.0760 -0.5732
 6609TIP3    H141318   0.622   1.027   0.127 -0.5276  0.5081 -0.5202
 6609TIP3    H241319   0.536   1.032   0.252 -1.3929 -1.6795 -0.9778
 6610TIP3   OH241320   3.694   0.022   2.302 -1.1151  0.1053  1.0106
 6610TIP3    H141321   3.609   0.034   2.344 -0.4422 -0.1345  2.5172
 6610TIP3    H241322   3.750  -0.011   2.372  0.2614  0.4109  0.0818
 6611TIP3   OH241323   0.792   1.117   4.990  0.5283 -0.5122 -0.0540
 6611TIP3    H141324   0.861   1.057   5.020 -0.1252 -1.7251 -0.8571
 6611TIP3    H241325   0.804   1.121   4.895 -0.8881 -1.2887 -0.2921
 6612TIP3   OH241326   5.667   1.432   2.935 -0.3825  0.1869 -0.3202
 6612TIP3    H141327   5.642   1.515   2.976  0.3036 -0.1584  0.8424
 6612TIP3    H241328   5.757   1.446   2.907 -0.5507  0.1170 -0.9005
 6613TIP3   OH241329   1.579   1.322  10.758  0.0712 -0.5644  0.8425
 6613TIP3    H141330   1.648   1.385  10.774 -2.4260  2.0563  2.1556
 6613TIP3    H241331   1.598   1.250  10.819  1.9995 -0.2864  0.6277
 6614TIP3   OH241332   1.843   1.777  14.017 -0.8189  0.1863  0.0802
 6614TIP3    H141333   1.873   1.798  13.929 -0.5928  1.5523  0.4648
 6614TIP3    H241334   1.748   1.784  14.012 -0.7790  0.7381  0.0546
 6615TIP3   OH241335   1.553   5.672  14.397  0.3486 -0.0749  0.3537
 6615TIP3    H141336   1.525   5.700  14.310  1.2544 -1.3783 -0.3951
 6615TIP3    H241337   1.562   5.577  14.390  0.8745 -0.1495  1.7358
 6616TIP3   OH241338   1.127   0.995   0.706  0.1590  0.6239 -0.3930
 6616TIP3    H141339   1.076   0.953   0.637  0.3223  1.2092 -0.8802
 6616TIP3    H241340   1.209   0.946   0.709 -0.9572 -1.3266  1.4496
 6617TIP3   OH241341   6.044   0.523  12.984  0.1508 -0.0162 -0.5028
 6617TIP3    H141342   6.054   0.568  12.900  1.4244  0.7498  0.0161
 6617TIP3    H241343   6.048   0.594  13.049  2.8847 -0.8456  0.3846
 6618TIP3   OH241344   2.992   3.958   4.294 -0.0523 -0.5527 -0.0059
 6618TIP3    H141345   2.953   3.873   4.276 -0.2379 -0.6419  0.7762
 6618TIP3    H241346   2.986   3.968   4.389  1.0074 -0.1756  0.0419
 6619TIP3   OH241347   0.304   6.196   0.728 -0.4156  0.1151 -0.6019
 6619TIP3    H141348   0.392   6.216   0.761  0.1995 -0.8323 -1.6019
 6619TIP3    H241349   0.246   6.246   0.785  0.7215  0.2086  0.5466
 6620TIP3   OH241350   1.356   5.961   1.216  0.3104 -0.1473  0.3009
 6620TIP3    H141351   1.284   5.899   1.214  0.1041  0.1098 -0.2915
 6620TIP3    H241352   1.359   5.999   1.128  0.3026  0.8234  0.7049
 6621TIP3   OH241353   4.440   3.570  14.890  0.5590 -0.1043  0.6368
 6621TIP3    H141354   4.508   3.551  14.956 -0.7453 -2.4577  1.4264
 6621TIP3    H241355   4.439   3.493  14.834 -1.5677 -0.2081  0.7560
 6622TIP3   OH241356   2.547   0.561  15.884 -0.2334  0.8978  0.5535
 6622TIP3    H141357   2.546   0.615  15.963  0.7483  1.4816  0.1923
 6622TIP3    H241358   2.640   0.546  15.867 -0.4272  0.9352 -0.5975
 6623TIP3   OH241359   2.103   0.463   4.710 -0.0596  0.2114  0.4896
 6623TIP3    H141360   2.139   0.394   4.766  1.5741  0.6902  0.0580
 6623TIP3    H241361   2.120   0.434   4.621 -2.1450 -0.2641  0.1756
 6624TIP3   OH241362   3.616   0.327  11.963 -0.8347  0.5651 -0.4649
 6624TIP3    H141363   3.538   0.294  12.008  0.1088 -0.4210  0.5287
 6624TIP3    H241364   3.647   0.252  11.912 -0.0585  0.6516 -0.1440
 6625TIP3   OH241365   3.987   3.327   6.588  0.0306 -0.0783  0.0204
 6625TIP3    H141366   3.984   3.234   6.609 -1.6006 -0.0768 -0.1319
 6625TIP3    H241367   3.906   3.363   6.623  1.2488  1.5822  1.2880
 6626TIP3   OH241368   3.180   1.168  15.727  0.1928 -0.3425  0.1878
 6626TIP3    H141369   3.274   1.158  15.714  0.4004  1.1392  0.3879
 6626TIP3    H241370   3.141   1.127  15.649  1.0419 -0.0646 -0.4004
 6627TIP3   OH241371   3.673   5.289  15.445 -0.7729 -0.5417 -0.0658
 6627TIP3    H141372   3.584   5.293  15.480 -1.3541 -0.5218 -1.4895
 6627TIP3    H241373   3.702   5.381  15.444 -1.2873 -0.3765 -0.9242
 6628TIP3   OH241374   0.483   4.016   1.874 -0.4131 -1.0752  0.0621
 6628TIP3    H141375   0.519   3.927   1.879 -0.1147 -0.9526  0.1523
 6628TIP3    H241376   0.560   4.073   1.877 -0.3196 -0.8638 -3.2100
 6629TIP3   OH241377   1.136   0.529  15.314 -0.2530 -0.1518  0.1977
 6629TIP3    H141378   1.063   0.468  15.305  0.2000 -0.6229 -0.3220
 6629TIP3    H241379   1.099   0.614  15.290 -1.1164 -0.0470  1.7698
 6630TIP3   OH241380   4.915   0.886  13.553 -0.2969 -0.0924  0.2959
 6630TIP3    H141381   4.992   0.855  13.505 -0.5398 -0.3311  0.0554
 6630TIP3    H241382   4.877   0.954  13.497 -1.0659 -0.9667 -0.2639
 6631TIP3   OH241383   0.870   1.825   0.568 -0.4703 -0.1580  0.7894
 6631TIP3    H141384   0.838   1.838   0.478  0.5551 -0.7831  0.3165
 6631TIP3    H241385   0.961   1.799   0.557 -0.1334  0.4611  2.0620
 6632TIP3   OH241386   5.773   6.284  16.645 -0.4942 -0.8885 -0.0260
 6632TIP3    H141387   5.768   6.380  16.649  0.7950 -0.8402  1.0774
 6632TIP3    H241388   5.692   6.258  16.600 -1.0613  0.6872  0.0081
 6633TIP3   OH241389   1.555   1.754  16.714  0.2674 -0.3434  0.3519
 6633TIP3    H141390   1.642   1.793  16.728  0.0217 -0.0721  1.1604
 6633TIP3    H241391   1.564   1.704  16.633  0.6522  1.2651 -0.6446
 6634TIP3   OH241392   0.571   5.679  11.438  0.0014  0.1561 -0.2422
 6634TIP3    H141393   0.577   5.720  11.352 -0.8493  0.7914 -0.0130
 6634TIP3    H241394   0.644   5.717  11.488  0.2639  0.0771 -0.5665
 6635TIP3   OH241395   3.141   1.895  15.668  0.1482  0.0325 -0.1402
 6635TIP3    H141396   3.148   1.862  15.757 -1.4376 -0.8173 -0.2901
 6635TIP3    H241397   3.082   1.970  15.675  2.0329  1.5833 -0.1287
 6636TIP3   OH241398   1.558   3.293   4.153 -0.0859 -0.1283 -0.6616
 6636TIP3    H141399   1.548   3.269   4.061  0.0879 -2.3727 -0.1511
 6636TIP3    H241400   1.515   3.223   4.201  0.0632  0.8572  1.0042
 6637TIP3   OH241401   6.168   1.350   2.005 -0.3017  0.0548  0.3448
 6637TIP3    H141402   6.099   1.325   1.944  0.6757  1.3312 -1.3896
 6637TIP3    H241403   6.122   1.388   2.080 -1.5158  0.9217 -0.7907
 6638TIP3   OH241404   3.914   1.808  13.903 -0.0873  0.0550 -0.5591
 6638TIP3    H141405   3.849   1.745  13.871 -0.6988  0.9468 -1.1109
 6638TIP3    H241406   3.869   1.893  13.898  0.9625  0.6233 -0.4943
 6639TIP3   OH241407   3.320   3.189   3.016 -0.0735  0.6650 -0.0778
 6639TIP3    H141408   3.290   3.161   3.102 -0.1115 -1.1322 -0.6306
 6639TIP3    H241409   3.326   3.108   2.965  2.7210  1.3133 -0.9361
 6640TIP3   OH241410   2.847   0.273   4.809  0.6362 -0.4365  0.2638
 6640TIP3    H141411   2.755   0.247   4.817  0.3287  0.7288  0.6484
 6640TIP3    H241412   2.872   0.301   4.897  1.1490 -0.0492 -0.0031
 6641TIP3   OH241413   1.090   1.420   5.472  0.2152  0.0458 -0.4030
 6641TIP3    H141414   1.154   1.467   5.420  1.4733  0.8295  1.7428
 6641TIP3    H241415   1.135   1.399   5.554 -1.8913 -0.4429  0.7213
 6642TIP3   OH241416   0.400   4.661   2.814 -0.1244 -0.1911 -0.4101
 6642TIP3    H141417   0.482   4.653   2.862 -0.1141 -1.2667 -0.5845
 6642TIP3    H241418   0.361   4.574   2.818 -0.6000 -0.0505 -1.5063
 6643TIP3   OH241419   4.774   5.541   4.630 -0.1613 -0.3394 -0.1772
 6643TIP3    H141420   4.754   5.537   4.537 -0.1353 -0.6373 -0.1696
 6643TIP3    H241421   4.802   5.632   4.644  2.0731 -0.8328 -0.9279
 6644TIP3   OH241422   2.595   5.840   5.765 -0.0896 -0.2112  0.1718
 6644TIP3    H141423   2.592   5.931   5.735  0.2267  0.5973  2.3961
 6644TIP3    H241424   2.506   5.822   5.796 -0.1506 -0.6836 -0.2555
 6645TIP3   OH241425   3.464   5.182   5.999  0.2813  0.5959 -0.1791
 6645TIP3    H141426   3.500   5.126   6.067 -0.5167  2.3331  1.7553
 6645TIP3    H241427   3.385   5.219   6.037 -1.1296  0.3891 -2.6666
 6646TIP3   OH241428   6.396   5.158   5.634  0.3429 -0.0694 -0.1282
 6646TIP3    H141429   6.342   5.118   5.567 -0.6801  0.4907  0.3343
 6646TIP3    H241430   6.481   5.115   5.626  0.2701  0.0427 -1.8149
 6647TIP3   OH241431   6.387   5.138   0.924 -0.1699  0.0915  0.3147
 6647TIP3    H141432   6.293   5.154   0.920 -0.2024 -0.1263  0.1466
 6647TIP3    H241433   6.425   5.206   0.868 -0.1471  0.7696  1.1388
 6648TIP3   OH241434   4.061   1.429   6.392  0.5335 -0.0593  0.7593
 6648TIP3    H141435   4.051   1.522   6.371 -0.3987 -0.1624  0.7020
 6648TIP3    H241436   4.019   1.419   6.478 -2.5078 -1.0116 -0.6777
 6649TIP3   OH241437   3.260   5.899   1.752 -0.4575 -0.2813  0.0155
 6649TIP3    H141438   3.271   5.864   1.841 -0.4128 -2.1615 -0.7022
 6649TIP3    H241439   3.180   5.951   1.757 -1.3499 -1.6608  0.8020
 6650TIP3   OH241440   6.413   0.464   4.402 -0.7434 -0.2859 -0.4722
 6650TIP3    H141441   6.502   0.486   4.376 -1.5370  2.6936 -1.0361
 6650TIP3    H241442   6.416   0.459   4.498  0.2093 -1.3002 -0.5420
 6651TIP3   OH241443   6.659   5.367  16.946  0.1337  0.3355 -0.5290
 6651TIP3    H141444   6.574   5.337  16.979 -0.3149  2.0678 -0.0257
 6651TIP3    H241445   6.652   5.359  16.851  0.0916 -1.2265 -0.4278
 6652TIP3   OH241446   3.009   4.787   1.694 -0.3667 -0.0880  0.1254
 6652TIP3    H141447   3.056   4.805   1.775  0.4416  0.4029 -0.4361
 6652TIP3    H241448   3.074   4.744   1.638  0.1591  2.5510 -1.4681
 6653TIP3   OH241449   2.517   1.124   4.035  0.3099 -0.0268 -0.0916
 6653TIP3    H141450   2.423   1.136   4.047  0.5179  1.2157  0.3775
 6653TIP3    H241451   2.554   1.212   4.041  1.5395 -0.5278  0.0007
 6654TIP3   OH241452   5.280   0.268  15.983  0.2040 -0.4488 -1.4434
 6654TIP3    H141453   5.372   0.257  16.007  0.1584  0.9507 -0.5356
 6654TIP3    H241454   5.231   0.223  16.051  0.1814 -0.2703 -1.3424
 6655TIP3   OH241455   1.210   1.471  16.431 -0.1921 -0.1296  0.0794
 6655TIP3    H141456   1.282   1.413  16.458 -1.0099 -0.0918  2.6143
 6655TIP3    H241457   1.251   1.557  16.422  0.4321 -0.4790 -0.5267
 6656TIP3   OH241458   2.136   2.898   3.313  0.3529  0.2381  0.2128
 6656TIP3    H141459   2.148   2.982   3.269 -1.1837  1.3001  1.6912
 6656TIP3    H241460   2.159   2.915   3.404 -1.4101 -0.5165  0.8486
 6657TIP3   OH241461   6.232   5.731   0.757 -0.3570 -0.5342 -0.2402
 6657TIP3    H141462   6.271   5.694   0.836 -1.0104 -1.0106 -0.1366
 6657TIP3    H241463   6.150   5.683   0.746  0.2636 -1.2761 -1.8683
 6658TIP3   OH241464   2.157   1.684  13.926 -0.2373 -0.4678  0.2248
 6658TIP3    H141465   2.185   1.598  13.959  1.0814 -0.1307  0.0393
 6658TIP3    H241466   2.114   1.665  13.843  1.3952 -0.8564 -0.5777
 6659TIP3   OH241467   4.550   3.504  11.321 -0.0201 -0.0361  0.1661
 6659TIP3    H141468   4.627   3.548  11.285  1.4100 -2.5834 -0.1730
 6659TIP3    H241469   4.476   3.546  11.278  1.1234  2.4695  0.4390
 6660TIP3   OH241470   1.656   3.904  14.314 -0.2143 -0.7049 -0.3719
 6660TIP3    H141471   1.683   3.978  14.368 -1.9154 -1.4278  1.6170
 6660TIP3    H241472   1.611   3.845  14.375 -0.2509 -2.6630 -2.1804
 6661TIP3   OH241473   0.779   1.274  11.922 -0.9585  0.0962 -0.3845
 6661TIP3    H141474   0.761   1.214  11.994  2.9129 -0.0680  0.6741
 6661TIP3    H241475   0.750   1.226  11.844 -0.4977 -2.0287  0.6567
 6662TIP3   OH241476   1.485   4.580   0.300  0.2399 -0.4586  0.0017
 6662TIP3    H141477   1.579   4.597   0.295  0.5110 -1.5660  0.9546
 6662TIP3    H241478   1.448   4.631   0.228  1.3462  1.4166  0.6616
 6663TIP3   OH241479   0.674   5.829   5.834  0.5463 -1.1797  0.4377
 6663TIP3    H141480   0.734   5.901   5.820  0.2270 -0.6034  1.8076
 6663TIP3    H241481   0.660   5.827   5.929 -2.2787 -0.6942  0.1253
 6664TIP3   OH241482   5.793   4.466   3.635  0.5418 -0.3168 -0.0655
 6664TIP3    H141483   5.851   4.474   3.559  0.0873 -0.8773 -0.4790
 6664TIP3    H241484   5.706   4.485   3.601  0.1918 -1.5594  0.0814
 6665TIP3   OH241485   0.692   3.615  15.164  0.1575 -0.1448 -0.3618
 6665TIP3    H141486   0.598   3.624  15.151 -0.1324  0.1992  1.5939
 6665TIP3    H241487   0.731   3.647  15.083 -1.3719  0.8377 -0.7461
 6666TIP3   OH241488   3.928   4.053  16.973  0.0135  0.3845  0.0249
 6666TIP3    H141489   3.987   4.004  16.915  0.3973  0.7107  0.1309
 6666TIP3    H241490   3.856   4.080  16.917 -0.7013 -1.1152  0.1716
 6667TIP3   OH241491   3.629   1.883   4.107  0.5626  0.4548 -0.6445
 6667TIP3    H141492   3.698   1.917   4.164  0.6773 -1.0577  0.1748
 6667TIP3    H241493   3.605   1.956   4.051  1.9557  1.3608 -0.0877
 6668TIP3   OH241494   3.748   3.648   2.386 -0.0753 -0.0328 -0.2705
 6668TIP3    H141495   3.692   3.573   2.364 -1.3163  1.0821 -1.0963
 6668TIP3    H241496   3.699   3.724   2.354  0.5106  1.2648  1.7444
 6669TIP3   OH241497   2.857   2.276  15.490 -0.1034  0.3083  0.4375
 6669TIP3    H141498   2.867   2.213  15.561  2.2494  0.7995  0.6416
 6669TIP3    H241499   2.768   2.309  15.498 -0.7236 -1.5143  1.5426
 6670TIP3   OH241500   2.138   4.182   5.903  0.0528  0.1773 -0.4278
 6670TIP3    H141501   2.057   4.212   5.944  0.5316  1.9670 -0.7215
 6670TIP3    H241502   2.205   4.242   5.935  1.0871 -0.6321 -1.0088
 6671TIP3   OH241503   2.943   3.986   4.559 -0.3273 -0.2525  0.1261
 6671TIP3    H141504   2.925   3.901   4.600  0.0910 -0.1219  0.5943
 6671TIP3    H241505   2.932   4.050   4.630 -2.3453  0.2949 -0.6122
 6672TIP3   OH241506   1.170   1.062  13.059 -0.0850  0.1998 -0.3365
 6672TIP3    H141507   1.253   1.068  13.106 -0.4494  2.5238  0.1369
 6672TIP3    H241508   1.161   1.146  13.015 -2.5785  0.3958  0.3615
 6673TIP3   OH241509   0.136   1.274   5.145  0.7438  0.4325 -0.2778
 6673TIP3    H141510   0.175   1.305   5.063 -1.3511  1.4592 -0.9618
 6673TIP3    H241511   0.089   1.194   5.121 -0.2325  0.9686 -0.1931
 6674TIP3   OH241512   4.404   5.607  14.845  0.3430 -0.2325 -0.4966
 6674TIP3    H141513   4.464   5.590  14.772 -0.6146  1.5871 -1.8026
 6674TIP3    H241514   4.340   5.536  14.839  1.6835 -1.5647  0.2284
 6675TIP3   OH241515   1.160   3.677  12.614 -0.3422 -0.2823  0.4072
 6675TIP3    H141516   1.210   3.730  12.553 -1.5842 -1.9163 -2.2097
 6675TIP3    H241517   1.226   3.634  12.670  1.0010 -0.3161 -1.1449
 6676TIP3   OH241518   5.470   3.191  14.522 -0.4730  0.3428  0.2721
 6676TIP3    H141519   5.484   3.135  14.599 -2.2656 -0.2205  0.2505
 6676TIP3    H241520   5.541   3.254  14.524  1.4478 -1.7020  0.5104
 6677TIP3   OH241521   4.911   4.540   4.842 -0.4440 -0.5156 -0.1790
 6677TIP3    H141522   4.997   4.498   4.852 -0.5788 -0.4248  1.7938
 6677TIP3    H241523   4.931   4.628   4.808  0.3495 -0.1819  1.0814
 6678TIP3   OH241524   2.846   5.246   4.918  0.3224 -0.5135 -0.3460
 6678TIP3    H141525   2.758   5.266   4.887  0.8657  0.7316 -1.1725
 6678TIP3    H241526   2.876   5.175   4.861  0.2671 -0.1473 -0.8400
 6679TIP3   OH241527   4.035   0.353  15.309  0.2284  0.4123  0.1396
 6679TIP3    H141528   4.119   0.394  15.329  0.4255  0.7871 -1.3167
 6679TIP3    H241529   3.970   0.415  15.340  0.5120  0.8402 -0.1065
 6680TIP3   OH241530   3.036   5.510   5.192  0.1990  0.4600 -0.5628
 6680TIP3    H141531   3.126   5.541   5.203  0.7938 -1.5785  0.6518
 6680TIP3    H241532   2.982   5.585   5.219  1.5390  1.2137  0.1384
 6681TIP3   OH241533   5.049   3.535  15.416 -0.2040 -0.1964  0.6626
 6681TIP3    H141534   5.073   3.442  15.421 -0.3009 -0.2244  0.6000
 6681TIP3    H241535   4.976   3.538  15.354  0.3329  0.0239  0.0304
 6682TIP3   OH241536   1.673   6.336  16.382 -0.3094  0.2370  0.4316
 6682TIP3    H141537   1.645   6.405  16.442  0.8857  1.9483 -0.8888
 6682TIP3    H241538   1.763   6.318  16.408 -0.4240 -0.4303  0.3819
 6683TIP3   OH241539   1.085   5.678  16.531 -0.1179 -0.3535 -0.7227
 6683TIP3    H141540   1.125   5.733  16.599 -1.2024  0.0820 -0.4198
 6683TIP3    H241541   1.032   5.615  16.580 -0.4803 -0.3808 -1.1490
 6684TIP3   OH241542   0.588   4.517   2.264 -0.2676  0.5178  0.8235
 6684TIP3    H141543   0.620   4.433   2.230  0.9280  1.7109 -1.1419
 6684TIP3    H241544   0.514   4.538   2.207  0.7507  1.7676 -0.0895
 6685TIP3   OH241545   3.917   3.577  13.330  0.5469 -0.2653  0.7277
 6685TIP3    H141546   3.825   3.581  13.357  0.3774 -1.2506  0.3398
 6685TIP3    H241547   3.936   3.483  13.324 -0.0787 -0.3453 -4.6669
 6686TIP3   OH241548   5.927   4.598   2.982  0.2009  0.1845 -0.4358
 6686TIP3    H141549   5.977   4.517   2.972 -0.4092 -0.3419  0.6057
 6686TIP3    H241550   5.971   4.645   3.053  0.2764  0.5533 -0.7263
 6687TIP3   OH241551   3.559   2.048   5.388 -0.2821  0.8739 -0.1424
 6687TIP3    H141552   3.542   2.008   5.302  0.6278  2.2091 -0.9937
 6687TIP3    H241553   3.559   2.142   5.370  1.3096  1.1386  1.0397
 6688TIP3   OH241554   5.456   0.064   5.652 -0.4716  0.0402  0.0492
 6688TIP3    H141555   5.473  -0.005   5.715  0.4732 -1.8688 -2.1549
 6688TIP3    H241556   5.484   0.028   5.568 -1.6350  2.4448 -1.4984
 6689TIP3   OH241557   5.086   2.788   0.052  0.5088  0.0974 -0.6928
 6689TIP3    H141558   5.094   2.774   0.147  0.0744 -0.3495 -0.7140
 6689TIP3    H241559   5.157   2.848   0.030  0.8760 -0.1319 -0.1524
 6690TIP3   OH241560   0.324   5.413  13.760  0.0075  0.1423  0.4019
 6690TIP3    H141561   0.348   5.497  13.721 -1.3904 -0.0840 -1.1129
 6690TIP3    H241562   0.355   5.348  13.697 -0.9773 -0.3205  0.3661
 6691TIP3   OH241563   5.557   6.621   1.027  0.0494 -0.6190  0.1981
 6691TIP3    H141564   5.493   6.630   1.097 -0.8428  0.1126 -0.6757
 6691TIP3    H241565   5.572   6.711   0.997  0.9931 -0.8451 -0.0544
 6692TIP3   OH241566   2.833   3.277   4.277  0.1628 -0.5693  0.1706
 6692TIP3    H141567   2.778   3.353   4.255 -1.8710 -2.2502 -0.9873
 6692TIP3    H241568   2.812   3.258   4.369 -1.2815 -1.1858 -0.2559
 6693TIP3   OH241569   4.016   5.194  13.388  0.0184 -0.2429  0.1085
 6693TIP3    H141570   4.036   5.258  13.457  0.4827  0.1953 -0.4236
 6693TIP3    H241571   3.987   5.116  13.436 -0.1294  0.2131  0.7830
 6694TIP3   OH241572   0.424   1.288  17.275  0.0895 -0.0719 -0.2161
 6694TIP3    H141573   0.475   1.341  17.337 -2.9465 -0.2821  2.7600
 6694TIP3    H241574   0.489   1.230  17.235  2.5556  1.4941  1.2347
 6695TIP3   OH241575   3.255   0.281  16.157 -0.0608 -0.1339 -0.5929
 6695TIP3    H141576   3.251   0.342  16.231  0.7564 -0.2417 -0.4420
 6695TIP3    H241577   3.172   0.292  16.112  0.5472  2.0454 -1.3171
 6696TIP3   OH241578   4.664   6.167  14.726 -0.8567 -0.1677 -0.2706
 6696TIP3    H141579   4.636   6.245  14.679 -0.7286  0.3772  0.5315
 6696TIP3    H241580   4.732   6.198  14.786 -1.6079 -0.6743  0.8856
 6697TIP3   OH241581   2.856   2.289  14.346 -0.0899 -0.0522  0.1662
 6697TIP3    H141582   2.812   2.254  14.424 -3.0222 -0.4875 -1.5096
 6697TIP3    H241583   2.915   2.219  14.319 -0.5833 -0.7586  0.8475
 6698TIP3   OH241584   2.872   2.663  13.974 -0.2740 -0.1185  0.2959
 6698TIP3    H141585   2.811   2.604  13.929 -0.9169 -0.7071  1.8901
 6698TIP3    H241586   2.923   2.607  14.031  1.2456  0.4877 -0.4117
 6699TIP3   OH241587   3.798   5.285   3.111  0.4006 -0.2364 -0.4033
 6699TIP3    H141588   3.807   5.336   3.031 -0.3538  1.0665  0.3139
 6699TIP3    H241589   3.886   5.250   3.128  0.6087 -0.3464 -1.6637
 6700TIP3   OH241590   1.801   5.252   5.433  0.0562  0.9641 -0.0427
 6700TIP3    H141591   1.896   5.241   5.428 -0.1889 -0.9318 -1.2223
 6700TIP3    H241592   1.788   5.309   5.509  2.1220  1.2614  0.1497
 6701TIP3   OH241593   0.307   1.890   0.056 -0.2270  0.0493 -0.4588
 6701TIP3    H141594   0.344   1.973   0.027  1.8125 -0.2608  0.9615
 6701TIP3    H241595   0.338   1.826  -0.008 -2.1223  0.3802 -1.7723
 6702TIP3   OH241596   2.765   6.561   5.651 -0.0289 -0.2491 -0.5095
 6702TIP3    H141597   2.768   6.523   5.563  1.0333  0.4204 -0.7914
 6702TIP3    H241598   2.811   6.645   5.641 -0.7329  0.2632  0.4792
 6703TIP3   OH241599   6.467   1.439  14.910 -0.2267  0.3331  0.1126
 6703TIP3    H141600   6.423   1.366  14.866 -0.1629  1.0803 -1.2576
 6703TIP3    H241601   6.416   1.516  14.884  1.6976  1.1999 -1.3533
 6704TIP3   OH241602   5.708   2.144   0.718 -0.1425  0.4319  0.2972
 6704TIP3    H141603   5.746   2.126   0.632 -0.2835  0.4072  0.2389
 6704TIP3    H241604   5.656   2.223   0.705  0.9944  1.2659  0.7116
 6705TIP3   OH241605   6.698   3.137  17.332 -0.2695  0.3774  0.5789
 6705TIP3    H141606   6.745   3.054  17.327 -3.6406 -1.7933  1.3468
 6705TIP3    H241607   6.743   3.186  17.401  1.0552 -1.3433  1.0041
 6706TIP3   OH241608   5.835   0.337  17.269  0.2717  0.1178  0.2654
 6706TIP3    H141609   5.825   0.359  17.362  0.8140 -0.3913  0.4514
 6706TIP3    H241610   5.745   0.338  17.234  0.0261 -0.0521  0.8783
 6707TIP3   OH241611   6.076   2.224   3.952 -0.4900  0.2424 -0.0942
 6707TIP3    H141612   6.141   2.154   3.938 -0.9115 -0.1023 -0.3672
 6707TIP3    H241613   6.044   2.210   4.041 -0.4203  0.2156 -0.0730
 6708TIP3   OH241614   2.977   4.682  12.903  0.0527  0.1402  0.1076
 6708TIP3    H141615   2.912   4.725  12.848 -0.4134 -0.3378  0.2847
 6708TIP3    H241616   2.932   4.669  12.987  0.7891  0.9802  0.6617
 6709TIP3   OH241617   6.466   5.496   1.201  0.4426  0.4395 -0.1488
 6709TIP3    H141618   6.440   5.530   1.287  0.7007  0.2783 -0.0047
 6709TIP3    H241619   6.472   5.401   1.214 -2.6169  0.0249 -1.1538
 6710TIP3   OH241620   4.878   1.631   5.291  0.4027  0.2815  0.0627
 6710TIP3    H141621   4.793   1.677   5.291 -0.6908 -1.5955  1.3881
 6710TIP3    H241622   4.863   1.555   5.235  1.1062 -0.2709  0.6198
 6711TIP3   OH241623   2.630   3.311   1.824 -0.0930 -0.5358  0.0189
 6711TIP3    H141624   2.540   3.288   1.801 -0.2616 -0.9604  1.0571
 6711TIP3    H241625   2.660   3.241   1.882  0.6787 -0.0663  0.2149
 6712TIP3   OH241626   4.541   0.006   4.143 -0.4197 -0.2584 -0.2189
 6712TIP3    H141627   4.457  -0.039   4.131 -0.7372 -0.2250  1.5533
 6712TIP3    H241628   4.532   0.049   4.228  0.8928  0.9114 -0.6362
 6713TIP3   OH241629   1.620   1.224  12.617 -0.0128  0.0141  0.3504
 6713TIP3    H141630   1.572   1.187  12.691  3.0551  0.0822  2.6271
 6713TIP3    H241631   1.652   1.148  12.569 -2.9917 -0.0384 -1.7924
 6714TIP3   OH241632   3.220   4.021   3.575  0.6820 -0.0542 -0.5736
 6714TIP3    H141633   3.216   4.112   3.544  2.7761  0.1996 -0.2548
 6714TIP3    H241634   3.135   3.985   3.552 -0.2720  2.0230 -0.5858
 6715TIP3   OH241635   4.676   5.150  16.507 -0.6129  0.2040  0.0604
 6715TIP3    H141636   4.607   5.165  16.572 -0.1676  1.5735  0.2438
 6715TIP3    H241637   4.715   5.236  16.493  0.5813 -0.4215 -0.5879
 6716TIP3   OH241638   6.395   3.180   1.439  0.5741 -0.6490 -0.1751
 6716TIP3    H141639   6.490   3.186   1.435  0.6205  1.6199  1.9592
 6716TIP3    H241640   6.364   3.239   1.370  0.6391 -1.9223 -1.3443
 6717TIP3   OH241641   1.816   6.259   0.674 -0.6098  0.3610 -0.0963
 6717TIP3    H141642   1.741   6.283   0.730 -0.0917  3.1954 -0.4681
 6717TIP3    H241643   1.866   6.340   0.666  0.8478 -0.6891 -2.4145
 6718TIP3   OH241644   4.662   5.705   5.274 -0.1229  0.5674  0.3307
 6718TIP3    H141645   4.745   5.704   5.322  0.5213 -0.6919 -0.7119
 6718TIP3    H241646   4.614   5.630   5.308  0.4298 -0.4683 -1.0516
 6719TIP3   OH241647   2.271   3.325  12.138 -0.4015  0.1542  0.1298
 6719TIP3    H141648   2.240   3.282  12.217  1.1192  0.6676  1.0458
 6719TIP3    H241649   2.236   3.414  12.144 -1.1469 -0.0976 -0.3192
 6720TIP3   OH241650   1.629   6.234  13.542 -0.0004  0.1468  0.0621
 6720TIP3    H141651   1.641   6.322  13.578  2.3875  1.0178 -2.5357
 6720TIP3    H241652   1.589   6.248  13.456  0.3161 -1.2903 -0.3488
 6721TIP3   OH241653   2.211   5.764  15.603 -0.0273  0.0511  0.0396
 6721TIP3    H141654   2.300   5.792  15.580 -0.3494  1.1928  0.1268
 6721TIP3    H241655   2.161   5.773  15.522 -0.3242  0.5061  0.2748
 6722TIP3   OH241656   5.415   5.735   3.552 -0.3621  0.3173 -0.2310
 6722TIP3    H141657   5.449   5.761   3.467  1.3589  0.0583  0.3392
 6722TIP3    H241658   5.330   5.695   3.533  0.6766 -1.2042 -2.0200
 6723TIP3   OH241659   1.532   5.504   5.156 -0.3408  0.0420 -0.1024
 6723TIP3    H141660   1.586   5.580   5.137  1.1643 -1.4150 -2.1258
 6723TIP3    H241661   1.515   5.465   5.070 -2.5873 -0.9267  0.7141
 6724TIP3   OH241662   1.976   2.411   3.134 -0.0578  0.1757  0.1956
 6724TIP3    H141663   1.999   2.382   3.223  0.1869 -0.3975 -0.0481
 6724TIP3    H241664   1.973   2.507   3.140  0.8409  0.1934  0.6172
 6725TIP3   OH241665   2.523   4.549   1.588 -0.1080 -0.0913  0.3188
 6725TIP3    H141666   2.610   4.569   1.621 -0.2100  0.1445  0.4481
 6725TIP3    H241667   2.529   4.459   1.556  0.0753 -0.2140  0.6965
 6726TIP3   OH241668   0.876   4.648   6.279  0.7253  0.1557  0.0451
 6726TIP3    H141669   0.784   4.634   6.304 -0.6360  1.4628 -3.5638
 6726TIP3    H241670   0.908   4.712   6.343 -1.4701  1.0216  0.3974
 6727TIP3   OH241671   5.937   3.910  17.124 -0.2594  0.2248  0.4619
 6727TIP3    H141672   5.941   3.816  17.103  2.5464  0.1238  1.0537
 6727TIP3    H241673   5.854   3.921  17.170 -1.5821 -1.5535 -1.3020
 6728TIP3   OH241674   2.878   5.564   6.128  0.0098 -0.1005  0.1450
 6728TIP3    H141675   2.868   5.479   6.086  1.0839  0.6460 -1.7622
 6728TIP3    H241676   2.961   5.557   6.177  0.9914  0.3231 -1.3858
 6729TIP3   OH241677   0.522   2.030  11.818 -0.4812 -0.2401 -0.5050
 6729TIP3    H141678   0.557   1.950  11.779 -0.7589  0.0029 -1.2827
 6729TIP3    H241679   0.572   2.043  11.898  0.2451 -0.6509 -0.8860
 6730TIP3   OH241680   6.487   4.067   6.223  0.4982 -0.7149  0.1660
 6730TIP3    H141681   6.478   3.975   6.197 -0.0652 -1.1524  1.7833
 6730TIP3    H241682   6.545   4.065   6.299 -0.9591  0.0224  1.3537
 6731TIP3   OH241683   1.823   1.182   2.276 -0.0344  0.4703 -0.3786
 6731TIP3    H141684   1.885   1.255   2.278 -0.1789  0.5819  0.2880
 6731TIP3    H241685   1.789   1.182   2.187  0.6591  0.6304 -0.6437
 6732TIP3   OH241686   2.918   2.115   4.867  0.2997 -0.0841 -0.1912
 6732TIP3    H141687   2.913   2.210   4.880  1.3077 -0.1047  0.4899
 6732TIP3    H241688   2.843   2.080   4.914 -1.3013  0.4965 -2.1683
 6733TIP3   OH241689   6.208   4.348   0.694  0.2817 -0.7807  0.8880
 6733TIP3    H141690   6.115   4.330   0.681  0.4050 -2.0669  1.6366
 6733TIP3    H241691   6.211   4.409   0.768  0.0118 -0.0402  0.3068
 6734TIP3   OH241692   1.883   3.737  13.289 -0.5127  0.0240  0.0435
 6734TIP3    H141693   1.857   3.822  13.324 -1.6807  0.4203 -1.6471
 6734TIP3    H241694   1.839   3.673  13.345 -0.5879  0.5650  0.6036
 6735TIP3   OH241695   4.307   0.513   5.290 -0.6234 -0.8535  0.3412
 6735TIP3    H141696   4.343   0.572   5.223 -1.5768 -0.9788 -0.3128
 6735TIP3    H241697   4.234   0.563   5.328 -0.7064 -1.1662  0.5892
 6736TIP3   OH241698   2.406   3.476  13.188  1.0881  0.3331  0.3829
 6736TIP3    H141699   2.404   3.528  13.108  1.2462  0.8694  0.7209
 6736TIP3    H241700   2.399   3.385  13.158 -0.9421  0.6035 -0.1081
 6737TIP3   OH241701   2.345   6.029  16.187 -0.1038  0.6121 -0.4343
 6737TIP3    H141702   2.337   6.070  16.101  0.0621 -0.2391 -0.8673
 6737TIP3    H241703   2.283   5.956  16.184 -1.4297  1.6080  0.8196
 6738TIP3   OH241704   5.619   6.752  12.810 -0.2945  0.6586 -0.1348
 6738TIP3    H141705   5.659   6.833  12.780  0.0290  0.4369 -0.3102
 6738TIP3    H241706   5.687   6.709  12.863 -0.8552  1.0470  0.9438
 6739TIP3   OH241707   1.967   4.344   3.007  0.4197 -0.0304 -0.4810
 6739TIP3    H141708   1.932   4.284   3.073 -1.8733  0.8106 -0.8316
 6739TIP3    H241709   2.053   4.309   2.986  1.4185 -0.1628  3.1605
 6740TIP3   OH241710   6.757   3.696   4.910 -0.2894 -0.6729  0.0746
 6740TIP3    H141711   6.746   3.658   4.823  2.2273  0.3295 -0.7839
 6740TIP3    H241712   6.842   3.663   4.939  1.2299  2.7917  0.0064
 6741TIP3   OH241713   5.022   1.317   0.143 -0.2976 -0.0829 -0.0147
 6741TIP3    H141714   4.969   1.396   0.156 -3.1623 -1.7029 -0.9534
 6741TIP3    H241715   5.101   1.333   0.196 -0.0506  3.8964 -1.2055
 6742TIP3   OH241716   1.713   6.196  17.235 -0.1431  0.0184 -0.1091
 6742TIP3    H141717   1.728   6.263  17.168 -0.1325  0.4449  0.3105
 6742TIP3    H241718   1.773   6.125  17.213 -0.7892 -0.2558 -1.0926
 6743TIP3   OH241719   6.127   5.384  12.778 -0.9236  0.2033  0.3817
 6743TIP3    H141720   6.043   5.338  12.781 -0.9631  0.2964  0.7268
 6743TIP3    H241721   6.160   5.380  12.868  0.1930 -1.2074 -0.0436
 6744TIP3   OH241722   6.221   1.753   1.402  0.0140 -0.3047  0.0122
 6744TIP3    H141723   6.255   1.840   1.380 -0.1746  0.8968  3.8017
 6744TIP3    H241724   6.294   1.694   1.383  1.4423  1.1719  0.6446
 6745TIP3   OH241725   3.519   3.618  14.512  0.2972 -0.1474  0.1131
 6745TIP3    H141726   3.511   3.668  14.431 -0.4957  0.5339  0.5916
 6745TIP3    H241727   3.582   3.549  14.492 -1.5184 -1.3781 -1.7819
 6746TIP3   OH241728   4.092   0.236  15.876  0.3094  0.2732  0.2021
 6746TIP3    H141729   4.035   0.178  15.825  1.0612 -0.3880  0.0957
 6746TIP3    H241730   4.120   0.302  15.813 -0.1700  0.4864  0.2040
 6747TIP3   OH241731   4.614   6.773  11.832  0.4345 -0.1424 -0.5445
 6747TIP3    H141732   4.559   6.696  11.823 -1.3063  1.1026 -1.0707
 6747TIP3    H241733   4.702   6.738  11.849 -0.3367 -2.2029 -0.5306
 6748TIP3   OH241734   0.751   0.006  12.472 -0.2028 -0.6523  0.4216
 6748TIP3    H141735   0.709   0.082  12.432 -1.4637 -0.7143  1.5481
 6748TIP3    H241736   0.844   0.017  12.452 -0.6583 -0.1778 -1.6239
 6749TIP3   OH241737   4.142   2.021  15.876 -0.6641  0.0702  0.2551
 6749TIP3    H141738   4.049   2.020  15.855 -1.2259  0.9616  2.4312
 6749TIP3    H241739   4.153   1.953  15.942  0.7936 -1.8413 -1.8230
 6750TIP3   OH241740   0.668   2.049   1.484  0.1801 -0.2740 -0.2292
 6750TIP3    H141741   0.710   2.134   1.488  0.2122 -0.2747 -0.5452
 6750TIP3    H241742   0.632   2.044   1.396 -2.3484  0.6007  0.6787
 6751TIP3   OH241743   0.496   1.812  13.083 -0.4099  0.0273  0.2779
 6751TIP3    H141744   0.493   1.870  13.159  0.2210 -0.2708  0.5340
 6751TIP3    H241745   0.581   1.829  13.043 -0.4834 -0.2666 -0.0074
 6752TIP3   OH241746   3.448   2.906   1.933  0.2843 -0.3332  0.4495
 6752TIP3    H141747   3.439   2.938   1.843  2.3253  0.5394  0.5178
 6752TIP3    H241748   3.375   2.845   1.944 -0.0843 -0.3496 -1.7408
 6753TIP3   OH241749   3.521   3.734   6.708  0.1158  0.1362  0.7367
 6753TIP3    H141750   3.440   3.758   6.664  0.0814  0.8642  1.1754
 6753TIP3    H241751   3.496   3.721   6.799  0.1390 -1.6141  0.5253
 6754TIP3   OH241752   6.290   6.435   3.715 -0.4668 -0.5583 -0.2525
 6754TIP3    H141753   6.212   6.471   3.757  0.7760  2.0595  0.0036
 6754TIP3    H241754   6.288   6.471   3.627 -0.2825 -1.6999 -0.7442
 6755TIP3   OH241755   4.219   0.442  12.185  0.0480  0.5467  0.3188
 6755TIP3    H141756   4.308   0.475  12.173  0.7155 -0.8632  1.0833
 6755TIP3    H241757   4.208   0.378  12.114  0.4228 -0.7367  1.3678
 6756TIP3   OH241758   0.058   4.372  11.376 -0.0224 -0.0752  0.5029
 6756TIP3    H141759  -0.008   4.387  11.308 -0.0616  0.4476  0.6445
 6756TIP3    H241760   0.016   4.402  11.456 -0.2144 -1.3069  0.8680
 6757TIP3   OH241761   3.309   4.232   4.891  0.4887  0.2818  0.4834
 6757TIP3    H141762   3.338   4.146   4.858 -1.8905 -0.0737 -0.8955
 6757TIP3    H241763   3.224   4.214   4.931  0.2562  1.9006  0.7635
 6758TIP3   OH241764   4.578   4.036   5.262  1.2426 -0.1330 -0.8854
 6758TIP3    H141765   4.575   4.028   5.167  0.6307  1.4666 -1.0287
 6758TIP3    H241766   4.527   4.115   5.282  0.0194 -1.2756  0.9038
 6759TIP3   OH241767   4.811   2.213   2.315  0.1226 -0.3207 -0.3915
 6759TIP3    H141768   4.840   2.134   2.270 -0.5871 -0.9404  0.2209
 6759TIP3    H241769   4.755   2.182   2.386  0.9793  0.6486  0.7641
 6760TIP3   OH241770   6.451   5.417   3.395  0.1835  0.2103 -0.0343
 6760TIP3    H141771   6.378   5.466   3.432  0.9872  0.5489  1.1670
 6760TIP3    H241772   6.528   5.472   3.412  1.2355 -1.6932  2.0269
 6761TIP3   OH241773   5.825   4.415  12.317 -0.5373  0.1193 -0.2419
 6761TIP3    H141774   5.835   4.376  12.230 -0.6291  1.4988 -0.8976
 6761TIP3    H241775   5.853   4.506  12.306  1.3907 -0.1511  1.6496
 6762TIP3   OH241776   0.015   1.899   0.022 -0.3349  0.8700  0.6971
 6762TIP3    H141777   0.025   1.976  -0.034 -0.7702  0.8237  0.5563
 6762TIP3    H241778   0.099   1.852   0.013 -0.5600  0.6264 -0.2723
 6763TIP3   OH241779   3.341   2.557   1.350 -0.0360  0.0925 -0.9854
 6763TIP3    H141780   3.348   2.622   1.280 -0.1785  0.2213 -0.8808
 6763TIP3    H241781   3.285   2.488   1.313 -0.3984  0.3234 -0.8789
 6764TIP3   OH241782   6.198   6.471   1.323  0.6742 -0.3619  0.2412
 6764TIP3    H141783   6.175   6.564   1.325  2.5031  0.1371 -0.4916
 6764TIP3    H241784   6.234   6.456   1.236 -0.4800 -2.0322 -0.0144
 6765TIP3   OH241785   6.387   3.894  12.557  0.8836  0.7736 -0.4355
 6765TIP3    H141786   6.308   3.847  12.529 -0.2230  1.1932  1.7597
 6765TIP3    H241787   6.363   3.986  12.550  0.8830  0.9001  0.8998
 6766TIP3   OH241788   5.942   1.284   1.875 -0.4158 -0.5717  0.6602
 6766TIP3    H141789   5.902   1.356   1.923  0.4590 -0.2913  0.9938
 6766TIP3    H241790   5.951   1.317   1.786  1.5347  0.4214  1.1624
 6767TIP3   OH241791   3.349   6.334  12.752 -0.0769  0.0066 -0.3560
 6767TIP3    H141792   3.275   6.338  12.813  0.1095 -0.7538 -0.0698
 6767TIP3    H241793   3.398   6.414  12.769 -0.1970 -0.0475  0.2761
 6768TIP3   OH241794   2.319   0.593  14.698 -0.5471  0.2705 -0.1169
 6768TIP3    H141795   2.238   0.581  14.648 -0.6640  0.9392 -0.0961
 6768TIP3    H241796   2.362   0.508  14.695 -1.7338 -0.3862  0.7131
 6769TIP3   OH241797   4.699   1.292  15.838  0.1621  0.1717 -0.1018
 6769TIP3    H141798   4.635   1.242  15.787  1.4904 -1.6360 -0.0802
 6769TIP3    H241799   4.737   1.353  15.774  0.9673 -1.2555 -1.0449
 6770TIP3   OH241800   2.460   1.120  16.895 -0.2683 -0.0063  0.1899
 6770TIP3    H141801   2.459   1.185  16.824  0.6444 -0.3507 -0.1522
 6770TIP3    H241802   2.547   1.081  16.891 -1.0206 -1.7705 -0.0944
 6771TIP3   OH241803   0.715   6.632   6.629 -0.0207  0.0516  0.1346
 6771TIP3    H141804   0.803   6.596   6.636  0.7874  2.0008  0.8785
 6771TIP3    H241805   0.657   6.558   6.645  1.5374 -0.8507  1.9937
 6772TIP3   OH241806   3.701   6.353  17.413 -0.3301 -0.2277 -0.5515
 6772TIP3    H141807   3.621   6.330  17.365 -0.9874 -0.4771  0.6435
 6772TIP3    H241808   3.673   6.418  17.477  0.4726 -0.1519 -0.2663
 6773TIP3   OH241809   0.883   2.460   1.663  0.0355 -0.0741 -0.3650
 6773TIP3    H141810   0.910   2.380   1.708 -2.8162 -0.7692  0.2947
 6773TIP3    H241811   0.919   2.451   1.574  2.6143 -0.4229  0.6437
 6774TIP3   OH241812   5.060   6.686  14.612  0.0069 -1.0645  0.4550
 6774TIP3    H141813   5.126   6.749  14.640  0.4012 -1.3819  0.2550
 6774TIP3    H241814   5.094   6.650  14.530 -2.1389  1.4448 -1.7410
 6775TIP3   OH241815   3.439   4.213   5.173  0.1302  0.0683  0.4390
 6775TIP3    H141816   3.395   4.278   5.227  0.4134  0.3039  0.3884
 6775TIP3    H241817   3.369   4.171   5.124 -0.0232  0.5549  0.2371
 6776TIP3   OH241818   3.001   2.375   0.233  0.1107  0.3431  0.1804
 6776TIP3    H141819   3.013   2.282   0.253 -0.6585  0.4173  1.0614
 6776TIP3    H241820   2.981   2.377   0.140 -1.5146 -0.5610  0.4606
 6777TIP3   OH241821   0.923   4.682  13.178 -0.2910 -0.3679  0.2126
 6777TIP3    H141822   0.852   4.641  13.129  0.3936  1.4225 -2.4874
 6777TIP3    H241823   0.999   4.626  13.161  0.1389  0.6853 -1.6368
 6778TIP3   OH241824   0.089   1.183   3.747 -0.1775 -0.1170 -0.2063
 6778TIP3    H141825   0.128   1.164   3.832  1.7761 -0.5314 -1.1423
 6778TIP3    H241826   0.055   1.099   3.716  1.3167 -0.5088 -0.8678
 6779TIP3   OH241827   6.001   1.842   6.386  0.0762  0.5097 -0.9440
 6779TIP3    H141828   6.085   1.838   6.341  0.0439  1.0873 -1.0603
 6779TIP3    H241829   5.957   1.760   6.362  1.4955 -0.9138  0.9359
 6780TIP3   OH241830   4.617   6.372  11.972  0.0504  0.0901  0.2582
 6780TIP3    H141831   4.683   6.369  11.903 -1.0904 -0.7312 -0.8600
 6780TIP3    H241832   4.599   6.280  11.993 -1.8607  0.1979 -0.6441
 6781TIP3   OH241833   3.405   0.198   4.063 -0.0012 -0.1748 -0.7878
 6781TIP3    H141834   3.416   0.103   4.058 -0.3923 -0.1807 -2.0924
 6781TIP3    H241835   3.435   0.222   4.151  2.7488 -1.1600 -1.3367
 6782TIP3   OH241836   4.245   6.473  13.344  0.0029  0.1424 -0.8301
 6782TIP3    H141837   4.332   6.498  13.376  0.9088 -0.4706 -2.6861
 6782TIP3    H241838   4.244   6.502  13.253 -1.1777 -1.2025 -1.2737
 6783TIP3   OH241839   0.710   4.007   4.162  0.3770 -0.1488 -0.6314
 6783TIP3    H141840   0.760   3.975   4.086 -1.1469  0.4520 -1.9491
 6783TIP3    H241841   0.745   4.093   4.180  1.0576 -0.4806 -0.3524
 6784TIP3   OH241842   4.080   3.369  13.048  0.1159  0.0780  0.6994
 6784TIP3    H141843   4.060   3.455  13.010  0.1941  0.2288  1.0024
 6784TIP3    H241844   4.176   3.363  13.045  0.1228  0.0986  0.8969
 6785TIP3   OH241845   6.239   6.495  13.493 -0.0130 -0.1360 -0.4127
 6785TIP3    H141846   6.213   6.407  13.518 -1.9064  0.9116  1.5862
 6785TIP3    H241847   6.178   6.520  13.423 -1.6190  0.6914  1.2159
 6786TIP3   OH241848   1.216   2.808   0.301  0.5592 -0.3251 -0.3758
 6786TIP3    H141849   1.282   2.849   0.358  0.3597  0.7064 -0.8733
 6786TIP3    H241850   1.165   2.753   0.360  1.3072 -0.4545  0.1728
 6787TIP3   OH241851   1.742   6.025  13.656  0.3513  0.0703 -0.0906
 6787TIP3    H141852   1.821   6.074  13.635 -0.4204  1.0369 -0.8147
 6787TIP3    H241853   1.670   6.080  13.625 -0.5465 -1.5381 -0.9823
 6788TIP3   OH241854   0.677   1.015  15.518  1.1058  0.2823 -0.5424
 6788TIP3    H141855   0.648   0.924  15.521  3.0297 -0.4100 -1.3792
 6788TIP3    H241856   0.597   1.065  15.498  0.0296 -1.2055 -0.1253
 6789TIP3   OH241857   5.965   0.099   0.040 -0.1266 -0.0323  0.1669
 6789TIP3    H141858   5.919   0.152   0.105 -1.6547 -1.8664  0.6625
 6789TIP3    H241859   6.023   0.042   0.091 -0.5074 -0.7064 -0.1368
 6790TIP3   OH241860   5.256   2.359  12.537  0.1665  0.5673 -0.2860
 6790TIP3    H141861   5.311   2.281  12.541 -0.5095  0.0961 -0.0238
 6790TIP3    H241862   5.175   2.333  12.580 -0.1564  1.3422 -0.4177
 6791TIP3   OH241863   6.165   4.052  17.081 -0.2022  0.3165 -0.4236
 6791TIP3    H141864   6.159   4.148  17.086 -0.4251  0.4489 -2.6095
 6791TIP3    H241865   6.078   4.022  17.105 -0.6674  0.7753 -1.4615
 6792TIP3   OH241866   0.683   6.599   1.239  0.0060  0.4041 -0.5068
 6792TIP3    H141867   0.621   6.672   1.231 -0.7581 -0.1274  0.3268
 6792TIP3    H241868   0.761   6.629   1.193 -0.4920  1.5257 -0.6620
 6793TIP3   OH241869   0.702   1.636   0.710  0.0832 -0.2165 -0.4963
 6793TIP3    H141870   0.784   1.685   0.701 -0.3001  0.3692 -0.9038
 6793TIP3    H241871   0.641   1.681   0.651 -0.5606 -0.5695 -0.1090
 6794TIP3   OH241872   1.692   5.692  14.922  0.2295 -0.0129 -0.6792
 6794TIP3    H141873   1.751   5.667  14.993  1.1925 -0.4193 -1.5848
 6794TIP3    H241874   1.613   5.639  14.936  0.6978 -0.6311 -0.3252
 6795TIP3   OH241875   4.346   6.110  11.087  0.4156  0.1962  0.4685
 6795TIP3    H141876   4.373   6.041  11.027 -0.5919 -0.9515  1.3007
 6795TIP3    H241877   4.423   6.167  11.095  1.0161 -0.4076 -0.7947
 6796TIP3   OH241878   5.621   3.678  11.463 -0.2804  0.5912 -0.2031
 6796TIP3    H141879   5.671   3.631  11.396  1.5607  0.2144  1.3458
 6796TIP3    H241880   5.558   3.730  11.414  1.2162  0.5899 -2.2481
 6797TIP3   OH241881   4.224   1.441  13.697  0.6938 -0.2497  0.6486
 6797TIP3    H141882   4.141   1.468  13.737  0.0434 -2.0784  0.6223
 6797TIP3    H241883   4.238   1.505  13.627 -1.4178 -0.6549 -0.2370
 6798TIP3   OH241884   4.609   0.030   3.495  0.3510 -0.2008 -0.0227
 6798TIP3    H141885   4.582  -0.051   3.452  1.2030 -0.5499  0.0835
 6798TIP3    H241886   4.703   0.019   3.510  0.3573  0.5576  0.5355
 6799TIP3   OH241887   0.355   6.099  14.261  0.2281 -0.0252  0.2623
 6799TIP3    H141888   0.307   6.145  14.192  0.0735 -0.7311 -0.1046
 6799TIP3    H241889   0.338   6.150  14.340 -2.2016 -0.9631  0.4198
 6800TIP3   OH241890   5.494   2.242  13.802 -0.0867  0.2168  0.0127
 6800TIP3    H141891   5.530   2.156  13.781 -1.0012 -0.5588  1.4434
 6800TIP3    H241892   5.570   2.295  13.826  0.3930 -0.5011  0.0964
 6801TIP3   OH241893   5.291   6.529  12.770  0.0952 -0.0167  0.1556
 6801TIP3    H141894   5.233   6.485  12.708 -1.6149  0.9023  1.0216
 6801TIP3    H241895   5.308   6.615  12.731 -1.1590  0.6466  0.9943
 6802TIP3   OH241896   2.603   4.134  16.144  0.2372 -0.8365 -0.5297
 6802TIP3    H141897   2.521   4.161  16.103  0.5431  2.0734  0.5994
 6802TIP3    H241898   2.671   4.173  16.090  0.7396  0.0318  0.7051
 6803TIP3   OH241899   5.762   5.715  15.124 -0.0208 -0.0676  0.0746
 6803TIP3    H141900   5.778   5.715  15.029  1.3879 -2.3732  0.2375
 6803TIP3    H241901   5.668   5.700  15.133  0.1154 -1.8131 -1.0036
 6804TIP3   OH241902   1.068   6.073  15.764  0.0703  0.5779  0.0342
 6804TIP3    H141903   1.126   6.081  15.689 -0.0474  1.1166 -0.0001
 6804TIP3    H241904   1.028   6.159  15.774 -0.4716  0.3113  0.2621
 6805TIP3   OH241905   0.926   1.832  17.131  0.0747  0.1507  0.3909
 6805TIP3    H141906   0.906   1.804  17.221  2.1132  1.0408  1.1888
 6805TIP3    H241907   0.926   1.752  17.080 -0.1202 -0.5107  1.3959
 6806TIP3   OH241908   5.851   1.489   6.390 -0.0713  0.3428  0.4098
 6806TIP3    H141909   5.789   1.424   6.421  0.3602  0.8395  2.4105
 6806TIP3    H241910   5.800   1.543   6.329 -0.8187 -0.9179 -0.1314
 6807TIP3   OH241911   4.716   5.256  12.337 -0.3741  0.2789 -0.0835
 6807TIP3    H141912   4.741   5.251  12.430 -2.3121  0.8976  0.5201
 6807TIP3    H241913   4.799   5.269  12.291  0.7941 -1.3743  1.4043
 6808TIP3   OH241914   2.169   1.792  13.517  0.2015 -0.1866  0.5241
 6808TIP3    H141915   2.186   1.837  13.599 -1.7736 -0.0359  0.8917
 6808TIP3    H241916   2.101   1.843  13.475  1.5565  0.0735 -1.5233
 6809TIP3   OH241917   0.097   5.151   3.606 -0.7430  0.7359  0.2481
 6809TIP3    H141918   0.178   5.101   3.612 -1.7602 -0.9873  0.0344
 6809TIP3    H241919   0.098   5.208   3.683 -1.0864 -1.9843  2.4195
 6810TIP3   OH241920   6.303   0.796  13.883 -0.2048  0.2066  0.2904
 6810TIP3    H141921   6.272   0.707  13.894 -0.2593  0.2196  0.2461
 6810TIP3    H241922   6.340   0.820  13.968 -0.1037  0.1084  0.2742
 6811TIP3   OH241923   4.625   6.426   0.569  0.3422 -0.2253 -0.1844
 6811TIP3    H141924   4.692   6.493   0.556  2.1984 -2.0908 -0.7791
 6811TIP3    H241925   4.630   6.371   0.491  0.8550 -2.6605  1.4491
 6812TIP3   OH241926   5.639   3.988   2.049 -0.6017  0.0571 -0.2403
 6812TIP3    H141927   5.670   4.069   2.008 -4.5978  1.9908  0.0399
 6812TIP3    H241928   5.658   3.919   1.986  1.0624  1.5464 -1.4299
 6813TIP3   OH241929   0.772   5.174  14.646 -0.2530  0.1752 -0.3205
 6813TIP3    H141930   0.699   5.198  14.589  0.8097  1.4686 -1.1932
 6813TIP3    H241931   0.737   5.186  14.735 -0.1137  4.6048 -0.6228
 6814TIP3   OH241932   3.940   2.836  16.630  0.6919 -0.3676  0.2595
 6814TIP3    H141933   3.947   2.855  16.724  0.7205  3.6321 -0.3844
 6814TIP3    H241934   3.846   2.835  16.613  0.6608 -1.8466  0.3903
 6815TIP3   OH241935   5.698   2.441  12.234  0.1841  0.2853 -0.1686
 6815TIP3    H141936   5.682   2.348  12.245  0.6181  0.0809 -1.1666
 6815TIP3    H241937   5.707   2.475  12.323 -1.9055 -0.2502  0.2874
 6816TIP3   OH241938   2.386   2.331  12.626  0.2969  0.5672  0.1020
 6816TIP3    H141939   2.420   2.367  12.708 -0.4880 -0.3842  0.8754
 6816TIP3    H241940   2.302   2.374  12.614  0.5274  0.8998 -0.3564
 6817TIP3   OH241941   4.849   5.372  15.948  0.0443  0.0370  0.1388
 6817TIP3    H141942   4.852   5.293  15.895 -0.7986 -1.0110  1.5882
 6817TIP3    H241943   4.920   5.361  16.012 -1.4935 -0.6982  1.8140
 6818TIP3   OH241944   2.289   1.918  11.803  1.1188 -0.8849 -0.0405
 6818TIP3    H141945   2.309   1.921  11.896 -0.9833  1.3781  0.4373
 6818TIP3    H241946   2.223   1.849  11.795 -1.3907  1.2188  0.8928
 6819TIP3   OH241947   3.319   3.229  13.730  0.0971  1.1685  0.0505
 6819TIP3    H141948   3.228   3.205  13.710 -0.1010  1.5854  0.4384
 6819TIP3    H241949   3.312   3.291  13.803  0.7225  0.8162  0.4194
 6820TIP3   OH241950   6.192   3.110  13.479 -0.1836  0.1144 -0.2673
 6820TIP3    H141951   6.100   3.085  13.469  0.0599 -0.6703 -0.6973
 6820TIP3    H241952   6.207   3.174  13.410 -0.6813  1.0804  0.4993
 6821TIP3   OH241953   2.642   6.449   3.349  0.4347 -0.2406  0.4385
 6821TIP3    H141954   2.664   6.382   3.413 -1.9910  0.4552  2.1576
 6821TIP3    H241955   2.577   6.408   3.292 -0.8833  0.4850  1.3530
 6822TIP3   OH241956   6.081   5.607  10.620  0.4606 -0.4630  0.0206
 6822TIP3    H141957   6.012   5.657  10.664 -0.1794 -1.5492  0.2784
 6822TIP3    H241958   6.052   5.601  10.529 -0.0351 -1.3075  0.2214
 6823TIP3   OH241959   5.297   6.091  14.315  0.0089 -0.5165 -0.2410
 6823TIP3    H141960   5.328   6.057  14.399  0.8589 -0.3528 -0.4768
 6823TIP3    H241961   5.355   6.052  14.250  0.8478  1.1452 -0.5482
 6824TIP3   OH241962   4.770   5.855  17.001 -0.0172  0.1652  0.3472
 6824TIP3    H141963   4.726   5.938  16.983 -0.9491 -0.1245  1.1762
 6824TIP3    H241964   4.789   5.819  16.914 -0.8997  0.5802 -0.0325
 6825TIP3   OH241965   2.685   2.937  15.328 -0.1510  0.4343 -0.2029
 6825TIP3    H141966   2.639   3.010  15.369  1.6999  1.6302 -0.1518
 6825TIP3    H241967   2.632   2.860  15.351 -0.8638  1.4336  1.8045
 6826TIP3   OH241968   4.531   0.189   4.340 -0.1644 -0.3690 -0.0412
 6826TIP3    H141969   4.554   0.160   4.428 -1.5334 -0.3377  0.3596
 6826TIP3    H241970   4.557   0.281   4.337 -0.0491 -0.3892  0.3135
 6827TIP3   OH241971   2.955   4.016   1.428  0.3038  0.2363 -0.1987
 6827TIP3    H141972   2.894   3.944   1.413 -0.4067  1.2362 -2.6323
 6827TIP3    H241973   2.980   4.007   1.520 -1.5593 -1.7011  0.2155
 6828TIP3   OH241974   0.306   1.596  12.808 -0.5245  0.2461  0.4817
 6828TIP3    H141975   0.275   1.663  12.868 -0.7057  0.4421  0.1712
 6828TIP3    H241976   0.228   1.546  12.784 -0.3326 -0.3423  1.0278
 6829TIP3   OH241977   6.702   4.399  13.802 -0.2779  0.1297 -0.1307
 6829TIP3    H141978   6.743   4.341  13.866 -1.2586 -1.4055 -0.8161
 6829TIP3    H241979   6.756   4.390  13.723 -0.0093  0.7341 -0.0181
 6830TIP3   OH241980   5.917   3.983  13.108 -0.4468  0.8675 -0.3675
 6830TIP3    H141981   5.831   3.957  13.073 -2.4702  0.2852  4.2630
 6830TIP3    H241982   5.970   3.904  13.100 -1.3127  0.3066 -0.8026
 6831TIP3   OH241983   3.888   6.776  13.921  0.5604  0.5074  0.0633
 6831TIP3    H141984   3.930   6.711  13.977  0.5678  0.8098  0.4094
 6831TIP3    H241985   3.955   6.798  13.856  0.8068  0.6932  0.3756
 6832TIP3   OH241986   6.622   5.985   2.681 -0.0468  0.1295 -0.4530
 6832TIP3    H141987   6.709   5.961   2.647  0.4112 -1.1117  1.3759
 6832TIP3    H241988   6.575   6.019   2.606  1.6105 -0.3585 -1.7833
 6833TIP3   OH241989   4.952   1.462   1.447 -0.0797  0.3750  0.0593
 6833TIP3    H141990   4.908   1.544   1.472 -0.3097  0.8542 -1.7549
 6833TIP3    H241991   4.891   1.420   1.387  1.0300 -0.0003 -0.8244
 6834TIP3   OH241992   2.605   3.377   2.734  0.1429  0.1747  0.1495
 6834TIP3    H141993   2.523   3.417   2.708 -0.7408 -0.8134  1.2825
 6834TIP3    H241994   2.596   3.285   2.709  1.2942  0.2236 -0.5488
 6835TIP3   OH241995   2.442   2.080   3.594 -0.2401  0.4497  0.7255
 6835TIP3    H141996   2.463   2.158   3.644  0.3883  0.5031  0.3923
 6835TIP3    H241997   2.527   2.044   3.569 -0.5303 -0.0794  0.4727
 6836TIP3   OH241998   1.053   3.920   4.115  0.3215 -0.5237  0.0530
 6836TIP3    H141999   1.021   3.898   4.202 -0.2038 -1.6217 -0.4001
 6836TIP3    H242000   1.148   3.921   4.123  0.2714 -0.5470  0.6546
 6837TIP3   OH242001   5.469   0.395  16.619 -0.0374 -0.0120 -0.6331
 6837TIP3    H142002   5.456   0.481  16.660  3.5933 -0.4257  1.8070
 6837TIP3    H242003   5.505   0.416  16.533  0.2990  0.9289 -0.2785
 6838TIP3   OH242004   2.419   4.978   1.920 -0.0206  0.4872 -0.0178
 6838TIP3    H142005   2.359   4.930   1.863  1.5865 -0.5156 -0.9740
 6838TIP3    H242006   2.395   4.951   2.008 -0.1821 -0.9089 -0.4553
 6839TIP3   OH242007   3.761   0.108  11.780 -0.2811  0.8564 -0.5939
 6839TIP3    H142008   3.848   0.146  11.794 -0.2251  0.3675  0.4922
 6839TIP3    H242009   3.758   0.089  11.686  1.7027 -1.3300 -0.2980
 6840TIP3   OH242010   3.818   1.709  15.454  0.9608 -0.3669  0.0180
 6840TIP3    H142011   3.767   1.648  15.508  0.5665 -0.4539 -0.4411
 6840TIP3    H242012   3.754   1.747  15.394  1.0161  1.2760  0.9556
 6841TIP3   OH242013   5.063   6.250   0.273  0.1375 -0.8922  0.1295
 6841TIP3    H142014   5.014   6.194   0.333  2.1213 -4.1647 -1.0577
 6841TIP3    H242015   5.037   6.220   0.186  0.9458  0.4074 -0.5884
 6842TIP3   OH242016   6.256   3.650   5.186 -0.4965 -0.0707 -0.0703
 6842TIP3    H142017   6.251   3.731   5.135 -0.2887  0.0485  0.0976
 6842TIP3    H242018   6.179   3.655   5.244 -0.6237 -0.1136 -0.2333
 6843TIP3   OH242019   2.845   5.215   4.025 -0.0153 -0.0804 -0.2033
 6843TIP3    H142020   2.873   5.282   4.087  1.5622 -0.0560 -0.8812
 6843TIP3    H242021   2.852   5.133   4.072  1.9481 -0.1467 -0.5331
 6844TIP3   OH242022   0.975   1.897  10.666 -0.7508  0.3233 -0.4107
 6844TIP3    H142023   0.889   1.936  10.656 -0.7289  0.2457 -0.9637
 6844TIP3    H242024   0.971   1.816  10.615 -0.6628 -0.1849  0.3813
 6845TIP3   OH242025   5.470   6.158   0.855  0.4219 -0.3264 -0.1148
 6845TIP3    H142026   5.546   6.171   0.911  0.1829  1.6892 -0.1648
 6845TIP3    H242027   5.500   6.181   0.767 -0.1254  0.0663 -0.2042
 6846TIP3   OH242028   3.948   6.625   0.058 -0.0628 -0.3154 -0.2256
 6846TIP3    H142029   3.922   6.540   0.094  1.0115 -0.3770  0.4448
 6846TIP3    H242030   3.973   6.677   0.134  0.6484  0.1192 -0.7430
 6847TIP3   OH242031   1.148   1.990   3.765 -0.0670 -0.3952 -0.2631
 6847TIP3    H142032   1.231   1.974   3.721  1.6511 -0.3577  2.7077
 6847TIP3    H242033   1.125   1.906   3.805 -0.2556  0.1330  0.7846
 6848TIP3   OH242034   4.776   5.980   0.925  0.3689  0.2205 -0.3114
 6848TIP3    H142035   4.762   6.020   0.840 -0.9477 -0.3249 -0.3755
 6848TIP3    H242036   4.789   5.887   0.907 -0.9098 -0.0682  0.1231
 6849TIP3   OH242037   1.661   2.948   4.024  0.2584  0.0723 -0.0280
 6849TIP3    H142038   1.589   2.989   4.072  1.4915  1.7448  0.4955
 6849TIP3    H242039   1.676   2.865   4.069 -1.8685 -0.7330 -0.6872
 6850TIP3   OH242040   0.720   1.668   3.779 -1.0468  0.1196 -0.6584
 6850TIP3    H142041   0.730   1.763   3.764  0.2864 -0.0011 -0.6225
 6850TIP3    H242042   0.648   1.643   3.720 -0.1932  0.8330 -2.0642
 6851TIP3   OH242043   2.181   1.746   0.601  0.4429  0.1781 -0.0347
 6851TIP3    H142044   2.258   1.706   0.641  1.8971  1.4392 -1.4113
 6851TIP3    H242045   2.148   1.679   0.541  2.0762  0.4821 -1.3576
 6852TIP3   OH242046   1.779   5.071  15.025 -0.0408  0.4669  0.1886
 6852TIP3    H142047   1.857   5.088  14.972  0.9113  1.7126  1.8921
 6852TIP3    H242048   1.795   4.986  15.065  0.6090  0.8609  0.7793
 6853TIP3   OH242049   2.738   2.031  11.614  0.0889  0.3082  0.3531
 6853TIP3    H142050   2.724   1.962  11.549 -0.1453  0.7691 -0.0923
 6853TIP3    H242051   2.785   1.988  11.686  1.3277  0.0175 -0.5897
 6854TIP3   OH242052   3.114   4.560   5.174  0.6566 -0.3262  0.0881
 6854TIP3    H142053   3.092   4.515   5.092  2.7891 -0.4754 -0.4643
 6854TIP3    H242054   3.133   4.650   5.148  0.2736 -0.0939  0.5993
 6855TIP3   OH242055   1.577   6.221   3.799 -0.3812  0.2673 -0.2631
 6855TIP3    H142056   1.558   6.153   3.734  1.0423  0.1865 -0.6231
 6855TIP3    H242057   1.663   6.198   3.834 -1.1490  0.2568  1.7421
 6856TIP3   OH242058   5.348   6.580   3.498  0.4715  0.1182 -0.2127
 6856TIP3    H142059   5.302   6.505   3.458 -2.0711  0.9130  1.0080
 6856TIP3    H242060   5.419   6.540   3.549  0.5319 -1.2690 -1.2975
 6857TIP3   OH242061   0.966   1.969   2.173  0.4875 -0.7998 -0.5438
 6857TIP3    H142062   0.973   2.062   2.151  2.8059 -0.4866  1.1113
 6857TIP3    H242063   0.908   1.966   2.249 -1.8341 -1.0947 -2.2325
 6858TIP3   OH242064   5.067   1.638   2.648  0.4243 -0.0667  0.2558
 6858TIP3    H142065   5.069   1.611   2.556  1.5023  2.9707 -0.7047
 6858TIP3    H242066   4.986   1.688   2.656  0.3731 -0.2590  0.9458
 6859TIP3   OH242067   3.660   5.462   4.108 -0.0128  0.0053 -0.0618
 6859TIP3    H142068   3.586   5.455   4.168 -0.8867 -0.4750 -1.1514
 6859TIP3    H242069   3.622   5.498   4.028  1.0582  0.3212 -0.4441
 6860TIP3   OH242070   0.728   5.089  14.133  0.2041 -0.2028 -0.5179
 6860TIP3    H142071   0.748   5.182  14.148 -0.5903 -0.4679  3.0142
 6860TIP3    H242072   0.633   5.085  14.133  0.2288 -1.0160 -0.8678
 6861TIP3   OH242073   0.782   3.856  12.307  0.0060 -0.0040  0.1964
 6861TIP3    H142074   0.814   3.780  12.356  1.1678  1.0154  1.0951
 6861TIP3    H242075   0.693   3.833  12.283  0.1649 -1.4533  0.8657
 6862TIP3   OH242076   2.128   6.318   4.443 -0.1686  0.0778 -0.8449
 6862TIP3    H142077   2.072   6.261   4.495 -0.5270  0.8862 -0.3295
 6862TIP3    H242078   2.174   6.372   4.507  0.3256  0.2232 -1.3175
 6863TIP3   OH242079   3.714   3.047   1.186  0.2008  0.8080  0.6200
 6863TIP3    H142080   3.656   3.033   1.111  1.2101 -0.4275  0.0403
 6863TIP3    H242081   3.798   3.073   1.148  0.5246  0.8850  1.3603
 6864TIP3   OH242082   0.841   4.596   0.334  0.0512  0.1884  0.4682
 6864TIP3    H142083   0.852   4.531   0.403  0.2510 -0.8991 -0.5564
 6864TIP3    H242084   0.924   4.594   0.286 -0.9979 -1.0297 -1.4141
 6865TIP3   OH242085   0.853   0.828   5.696 -0.6418  0.2784 -0.0914
 6865TIP3    H142086   0.800   0.783   5.761  0.2590 -1.5510 -0.5283
 6865TIP3    H242087   0.934   0.850   5.742 -0.7515  0.6946 -0.0982
 6866TIP3   OH242088   3.105   3.511   0.060  0.1743  0.6029  0.4139
 6866TIP3    H142089   3.023   3.550   0.091  0.3671  0.6218  0.9176
 6866TIP3    H242090   3.132   3.453   0.131 -0.3915 -0.8944 -0.5655
 6867TIP3   OH242091   2.658   1.547  16.721  0.5506 -0.4621 -0.0275
 6867TIP3    H142092   2.617   1.632  16.738  1.6379  0.0969 -0.1385
 6867TIP3    H242093   2.686   1.517  16.807 -0.8914 -1.2947  0.1884
 6868TIP3   OH242094   2.369   0.115   0.222 -0.0861 -0.0271 -0.4098
 6868TIP3    H142095   2.373   0.207   0.196 -0.3244 -0.3757 -1.7918
 6868TIP3    H242096   2.371   0.067   0.139  2.6346 -1.3800  0.3243
 6869TIP3   OH242097   6.048   1.758   2.543 -0.5144  0.6618 -0.0707
 6869TIP3    H142098   6.087   1.834   2.500  1.1034 -0.2479 -0.3045
 6869TIP3    H242099   6.015   1.792   2.626  2.2430  1.2675  0.8941
 6870TIP3   OH242100   2.843   1.213   4.729  0.1962  0.1580 -0.2718
 6870TIP3    H142101   2.933   1.244   4.739  1.3943 -2.8360 -0.8026
 6870TIP3    H242102   2.830   1.208   4.634 -0.1672 -0.3893 -0.1942
 6871TIP3   OH242103   4.571   5.452   0.478 -0.3775  0.0383  0.2606
 6871TIP3    H142104   4.666   5.449   0.490 -0.4788 -0.4864  0.9651
 6871TIP3    H242105   4.549   5.544   0.491 -0.0366  0.0666  0.6764
 6872TIP3   OH242106   2.731   0.210  11.463 -0.3755 -0.1241  0.3974
 6872TIP3    H142107   2.642   0.206  11.496 -0.9078  0.7202 -0.8705
 6872TIP3    H242108   2.724   0.181  11.372  0.5454  0.5223  0.1064
 6873TIP3   OH242109   0.169   1.847  11.828 -0.4571 -0.3278  0.7373
 6873TIP3    H142110   0.134   1.758  11.815  0.5918 -0.5016 -1.3094
 6873TIP3    H242111   0.221   1.841  11.908 -1.0886 -1.3157  1.0980
 6874TIP3   OH242112   5.129   5.129  14.334 -0.3367  0.1265  0.0529
 6874TIP3    H142113   5.116   5.116  14.428 -1.5087  0.4578 -0.0443
 6874TIP3    H242114   5.218   5.164  14.327 -1.2119  2.9273  1.3531
 6875TIP3   OH242115   5.958   4.951  12.574 -0.2017  0.1669 -0.0333
 6875TIP3    H142116   5.918   4.964  12.660  0.5476 -3.4675  1.0553
 6875TIP3    H242117   6.030   5.013  12.571 -0.9567  1.1671  1.4678
 6876TIP3   OH242118   1.410   6.604  15.552  0.8564  0.2191  0.5015
 6876TIP3    H142119   1.352   6.545  15.504 -0.3604  0.7854  1.2407
 6876TIP3    H242120   1.498   6.581  15.521  0.2484 -0.6097 -0.6913
 6877TIP3   OH242121   1.860   2.509  16.492  0.0888 -1.6310 -0.0546
 6877TIP3    H142122   1.788   2.452  16.521  0.2770 -1.8282  0.0266
 6877TIP3    H242123   1.915   2.520  16.569 -1.0441  0.3940  0.5370
 6878TIP3   OH242124   6.442   1.459   0.817 -0.1368 -0.3821  0.0004
 6878TIP3    H142125   6.451   1.412   0.734  1.7726 -0.6514  0.3139
 6878TIP3    H242126   6.487   1.542   0.803 -0.7767  0.0534  0.4367
 6879TIP3   OH242127   5.278   0.295  16.791 -0.8701 -0.3053  0.0043
 6879TIP3    H142128   5.342   0.306  16.721 -1.4845 -0.2744 -0.5626
 6879TIP3    H242129   5.312   0.348  16.863  1.5539 -2.9363  1.0202
 6880TIP3   OH242130   1.752   4.691   3.038 -0.3507 -0.1626 -0.5782
 6880TIP3    H142131   1.811   4.631   3.083  0.6983 -0.5807 -2.4094
 6880TIP3    H242132   1.793   4.777   3.047 -0.4312 -0.1546 -0.2833
 6881TIP3   OH242133   5.066   0.410  15.624 -0.6138 -0.3185  0.2246
 6881TIP3    H142134   5.043   0.358  15.701 -0.8685  0.4529  0.6845
 6881TIP3    H242135   5.129   0.357  15.576 -0.3966 -0.7726  1.0099
 6882TIP3   OH242136   1.362   4.967   3.118  0.3456 -0.2363 -0.3490
 6882TIP3    H142137   1.298   4.915   3.167  0.1632 -0.2978 -0.6458
 6882TIP3    H242138   1.444   4.918   3.124  0.4541  0.0341  0.3531
 6883TIP3   OH242139   1.043   0.873   6.587  0.5730  0.0396  0.3206
 6883TIP3    H142140   1.100   0.809   6.543 -0.0247  0.2731 -0.8431
 6883TIP3    H242141   0.955   0.850   6.558  0.3386  1.3398 -0.0588
 6884TIP3   OH242142   1.019   1.122   4.684  0.6092 -0.3611 -0.7411
 6884TIP3    H142143   1.051   1.176   4.756  0.9201 -1.2857 -0.1566
 6884TIP3    H242144   0.925   1.139   4.681 -0.0685 -2.7125  2.0984
 6885TIP3   OH242145   1.741   2.696   4.729 -0.4012  0.2996 -0.2804
 6885TIP3    H142146   1.716   2.775   4.778  0.4879  1.2931 -1.3792
 6885TIP3    H242147   1.749   2.628   4.796  0.1052  1.4491  0.8756
 6886TIP3   OH242148   0.513   3.887   3.305  0.3983 -0.5847 -0.0181
 6886TIP3    H142149   0.479   3.863   3.218  1.9732 -1.1721 -0.5065
 6886TIP3    H242150   0.562   3.810   3.334  0.4362 -0.1517  1.1042
 6887TIP3   OH242151   5.540   6.238  16.864 -0.0097 -0.1183  0.2125
 6887TIP3    H142152   5.576   6.274  16.946 -0.4276 -0.4720  0.5606
 6887TIP3    H242153   5.538   6.312  16.804 -0.7521  0.4267  0.8845
 6888TIP3   OH242154   0.722   2.280  13.371  0.0799 -0.0602  0.4171
 6888TIP3    H142155   0.817   2.291  13.365  0.0586 -0.3282 -0.5018
 6888TIP3    H242156   0.709   2.185  13.368 -0.2818  0.0150 -0.6372
 6889TIP3   OH242157   4.647   3.542  17.114  0.0182  0.2529  0.3588
 6889TIP3    H142158   4.577   3.494  17.158  0.8000 -0.9104  0.3977
 6889TIP3    H242159   4.721   3.537  17.175 -0.3819  3.2697  1.2896
 6890TIP3   OH242160   5.127   5.007   6.053 -0.4880 -0.0573 -0.0138
 6890TIP3    H142161   5.164   5.078   6.106 -0.1659  0.1946 -0.5692
 6890TIP3    H242162   5.035   5.003   6.079 -0.4335  0.3515  0.2543
 6891TIP3   OH242163   4.856   3.946   6.444  0.3094 -0.7003 -0.6937
 6891TIP3    H142164   4.853   4.037   6.413  0.9126 -0.5184 -0.2459
 6891TIP3    H242165   4.811   3.948   6.528  4.5337  0.2922  1.8587
 6892TIP3   OH242166   2.835   4.106  16.650  0.8624 -0.3661 -0.0276
 6892TIP3    H142167   2.859   4.019  16.682 -0.7118 -0.6614  0.4601
 6892TIP3    H242168   2.860   4.105  16.558  0.1159 -1.6747 -0.2487
 6893TIP3   OH242169   6.468   1.614   1.410  0.2943  0.6653  0.3678
 6893TIP3    H142170   6.461   1.538   1.468  0.3912  1.1493  1.0281
 6893TIP3    H242171   6.560   1.615   1.383 -0.2524 -1.0739 -1.9320
 6894TIP3   OH242172   1.319   3.372  15.250  0.3524 -0.0656  0.2507
 6894TIP3    H142173   1.240   3.400  15.297 -0.1413  1.9912 -1.6116
 6894TIP3    H242174   1.389   3.377  15.314 -0.5901  0.8637  1.2431
 6895TIP3   OH242175   3.561   4.264  11.903  0.5342 -0.0463  0.3305
 6895TIP3    H142176   3.521   4.249  11.988  1.1404  0.6533  0.7581
 6895TIP3    H242177   3.524   4.347  11.873 -0.7655 -0.9992 -0.7630
 6896TIP3   OH242178   0.141   5.907   0.906 -0.5247  0.6696  0.1135
 6896TIP3    H142179   0.136   5.917   1.001 -2.2047 -4.5201  0.9007
 6896TIP3    H242180   0.197   5.831   0.893  0.2718  1.6838 -3.1998
 6897TIP3   OH242181   4.213   6.367  12.125 -0.6137  0.2171 -0.0339
 6897TIP3    H142182   4.231   6.284  12.081 -1.1173 -0.4612  0.9953
 6897TIP3    H242183   4.119   6.364  12.145 -0.7922  1.3471 -0.5904
 6898TIP3   OH242184   6.652   2.808   2.116 -0.4116 -0.4896  0.5799
 6898TIP3    H142185   6.641   2.862   2.038  2.1812 -1.4597 -0.5995
 6898TIP3    H242186   6.637   2.718   2.086 -0.6477 -0.7697  1.5055
 6899TIP3   OH242187   3.370   4.300   2.951  0.1816 -0.7249 -0.4171
 6899TIP3    H142188   3.462   4.308   2.976  0.2255  0.0619 -0.7985
 6899TIP3    H242189   3.323   4.356   3.013 -0.2190 -2.1905  0.6595
 6900TIP3   OH242190   0.180   4.234   3.163  0.4546  0.1459 -0.0493
 6900TIP3    H142191   0.253   4.222   3.102 -0.5908 -1.7555 -1.0055
 6900TIP3    H242192   0.111   4.176   3.130 -0.4210 -0.3976  2.5399
 6901TIP3   OH242193   5.946   1.209  16.762  0.1757 -0.0752  0.0000
 6901TIP3    H142194   5.931   1.242  16.673 -0.3608 -1.0406 -0.2861
 6901TIP3    H242195   5.883   1.137  16.772  0.8170 -0.5401  0.8532
 6902TIP3   OH242196   3.452   5.255   1.183 -0.1185  0.1633 -0.1445
 6902TIP3    H142197   3.505   5.278   1.107 -1.4490  1.8469 -0.6265
 6902TIP3    H242198   3.389   5.190   1.150 -0.4049  0.5543 -0.3701
 6903TIP3   OH242199   2.032   2.026   6.097 -0.4777  0.1686  0.1471
 6903TIP3    H142200   2.059   1.971   6.170  0.4932  0.8263  0.3106
 6903TIP3    H242201   2.053   1.974   6.019 -1.3784 -0.4715  0.3248
 6904TIP3   OH242202   3.988   5.535  12.856 -0.0639 -0.4073  0.2518
 6904TIP3    H142203   4.040   5.477  12.800  0.6884 -0.8259  1.3573
 6904TIP3    H242204   4.052   5.595  12.894 -0.6460  0.2262  0.2425
 6905TIP3   OH242205   3.000   1.712   0.967  0.5217  0.1619 -0.5216
 6905TIP3    H142206   3.043   1.782   0.918 -0.0540  0.5007 -0.5519
 6905TIP3    H242207   2.930   1.681   0.908  0.5025 -0.1447 -0.3387
 6906TIP3   OH242208   2.086   2.551  17.361  0.3549  0.1097 -0.2060
 6906TIP3    H142209   2.115   2.612  17.429 -0.7383 -1.1437  1.4853
 6906TIP3    H242210   2.030   2.603  17.304  1.2069  1.1757 -0.0979
 6907TIP3   OH242211   2.464   0.195   1.273 -0.2701 -0.6175 -0.1578
 6907TIP3    H142212   2.532   0.258   1.252 -1.4487  0.4789 -0.8429
 6907TIP3    H242213   2.489   0.115   1.226  0.2954 -0.0906 -0.7657
 6908TIP3   OH242214   3.971   0.313  11.732  0.1253 -0.1494  0.5068
 6908TIP3    H142215   3.981   0.363  11.813 -1.4558  0.6955  0.2237
 6908TIP3    H242216   4.061   0.299  11.701  0.6672  2.3489  0.7203
 6909TIP3   OH242217   2.221   3.838  12.865  0.1240 -0.8874 -0.0783
 6909TIP3    H142218   2.175   3.920  12.847 -0.1708 -1.3146 -1.3910
 6909TIP3    H242219   2.161   3.789  12.921 -0.5563 -0.9905 -0.8801
 6910TIP3   OH242220   3.761   3.605   5.489  0.3938  0.0368 -0.0570
 6910TIP3    H142221   3.842   3.616   5.540  1.5422 -1.5951 -1.3988
 6910TIP3    H242222   3.778   3.529   5.434 -1.0025  1.3062 -2.4241
 6911TIP3   OH242223   1.941   2.805  16.899 -0.1952 -0.3372 -0.4703
 6911TIP3    H142224   1.973   2.788  16.810  0.8091  1.0793 -0.4039
 6911TIP3    H242225   1.961   2.897  16.915  3.3600 -1.3920  2.6958
 6912TIP3   OH242226   0.976   6.133   5.909 -0.9326  0.0423 -0.0097
 6912TIP3    H142227   1.026   6.126   5.990 -2.4104 -0.5416  0.8983
 6912TIP3    H242228   1.000   6.055   5.859  0.8872  1.0011 -0.7071
 6913TIP3   OH242229   6.492   2.495  11.671 -0.2935 -0.5200  0.2572
 6913TIP3    H142230   6.568   2.522  11.619 -0.8755 -0.3209 -0.5154
 6913TIP3    H242231   6.493   2.552  11.747  2.0180 -2.4491  1.8188
 6914TIP3   OH242232   0.761   0.689  14.766 -0.1990  0.8899 -0.4594
 6914TIP3    H142233   0.717   0.693  14.851  0.2623 -0.9373 -0.0761
 6914TIP3    H242234   0.690   0.673  14.703 -0.4788  1.6723 -0.3478
 6915TIP3   OH242235   3.814   3.177   0.745 -0.1682 -0.1262  0.1261
 6915TIP3    H142236   3.866   3.111   0.790 -1.3618 -1.2073 -0.0197
 6915TIP3    H242237   3.825   3.157   0.652 -0.0431  0.2688  0.0546
 6916TIP3   OH242238   4.220   3.792  12.500 -0.4991  0.3397  0.3095
 6916TIP3    H142239   4.257   3.706  12.520 -0.4176  0.2676 -0.1315
 6916TIP3    H242240   4.242   3.846  12.575  1.6133  0.6481 -0.4544
 6917TIP3   OH242241   0.843   0.266   0.094  0.3571 -0.4046 -0.1893
 6917TIP3    H142242   0.808   0.255   0.183  0.6870 -0.6310 -0.0866
 6917TIP3    H242243   0.921   0.210   0.092  1.3077  0.8576 -0.0806
 6918TIP3   OH242244   6.491   5.741  14.020 -0.4016  0.1915  0.1320
 6918TIP3    H142245   6.530   5.740  14.107  2.1347 -0.8655 -0.9106
 6918TIP3    H242246   6.549   5.686  13.967 -2.0336  0.5177 -2.1668
 6919TIP3   OH242247   5.391   2.426   0.616 -0.1309 -0.3039 -0.3938
 6919TIP3    H142248   5.407   2.422   0.522  0.3368  2.2429 -0.5015
 6919TIP3    H242249   5.361   2.338   0.639 -0.6299 -0.8989 -2.9695
 6920TIP3   OH242250   1.495   5.294   1.982 -0.5762 -0.2939 -0.4708
 6920TIP3    H142251   1.564   5.358   1.963 -2.3682  2.1283  0.5873
 6920TIP3    H242252   1.541   5.220   2.022  1.4837  0.9189 -0.4476
 6921TIP3   OH242253   4.431   4.720   0.833  0.3481 -0.8625  0.1291
 6921TIP3    H142254   4.383   4.735   0.751  1.4888  0.5791 -0.3456
 6921TIP3    H242255   4.365   4.727   0.902 -0.0386  2.2631 -0.4098
 6922TIP3   OH242256   0.043   6.506  11.781  0.1306 -0.0265 -0.4436
 6922TIP3    H142257   0.007   6.587  11.818  0.5863  0.7033 -1.5291
 6922TIP3    H242258   0.137   6.523  11.773  0.0255 -0.0527 -2.0998
 6923TIP3   OH242259   4.940   4.300  16.139 -0.3748  0.4370  0.1915
 6923TIP3    H142260   4.997   4.377  16.135  1.3403 -0.8173 -1.0624
 6923TIP3    H242261   4.923   4.278  16.047  0.1518 -1.3322  0.4847
 6924TIP3   OH242262   1.372   0.445  15.109  0.1790  0.3447  0.2031
 6924TIP3    H142263   1.289   0.404  15.084  0.0231  1.6400 -1.5748
 6924TIP3    H242264   1.410   0.385  15.174 -0.4385 -2.1777 -1.5939
 6925TIP3   OH242265   1.733   3.120  11.810  0.3186 -0.2815  0.3739
 6925TIP3    H142266   1.674   3.070  11.753  0.1370 -0.1178  0.4166
 6925TIP3    H242267   1.693   3.114  11.896 -0.2144  0.7263  0.2109
 6926TIP3   OH242268   4.444   4.160  12.437 -1.0249  0.9457  0.0989
 6926TIP3    H142269   4.366   4.155  12.382 -0.5625 -0.9497 -0.4511
 6926TIP3    H242270   4.442   4.080  12.489  0.7204  0.6880 -0.1627
 6927TIP3   OH242271   1.007   3.185  15.300  0.0822  0.3056 -0.6025
 6927TIP3    H142272   1.039   3.102  15.334 -0.4319  0.7845  1.1687
 6927TIP3    H242273   1.075   3.248  15.324  0.2598  0.4951 -1.5407
 6928TIP3   OH242274   6.342   1.820   6.012  0.0173  0.3046  0.2733
 6928TIP3    H142275   6.334   1.837   6.106  1.7157 -1.1088  0.7160
 6928TIP3    H242276   6.320   1.728   6.001  1.8593 -0.1022 -0.3764
 6929TIP3   OH242277   2.708   0.028   2.720  0.7111 -0.3999 -0.0137
 6929TIP3    H142278   2.625   0.030   2.674  1.9992 -1.7271 -2.6198
 6929TIP3    H242279   2.685   0.016   2.812 -1.9853  1.7932 -0.2798
 6930TIP3   OH242280   2.192   4.203  11.460 -0.0331  0.0058 -0.4657
 6930TIP3    H142281   2.255   4.272  11.440  0.5697 -0.7961 -1.3988
 6930TIP3    H242282   2.214   4.132  11.400 -0.9952 -0.7914  0.0975
 6931TIP3   OH242283   1.735   5.703   0.747 -0.3172  0.1003 -0.3628
 6931TIP3    H142284   1.815   5.652   0.738 -1.1477 -1.0605 -1.7398
 6931TIP3    H242285   1.664   5.640   0.732 -1.5137  1.0400  1.0407
 6932TIP3   OH242286   4.168   3.978  15.505  0.1863  0.6541 -0.4732
 6932TIP3    H142287   4.148   4.070  15.521  0.1864  0.7486 -1.0172
 6932TIP3    H242288   4.140   3.934  15.585  0.5224  1.1703 -0.0611
 6933TIP3   OH242289   3.158   0.883   0.588  0.8061  0.2931 -0.2482
 6933TIP3    H142290   3.147   0.935   0.667 -0.0589 -0.7939  0.3749
 6933TIP3    H242291   3.175   0.947   0.519  2.0624  1.2288  0.8780
 6934TIP3   OH242292   1.790   0.980   5.546  0.4803  0.0409 -0.0738
 6934TIP3    H142293   1.859   1.033   5.505 -0.5612  1.8782  0.4353
 6934TIP3    H242294   1.801   0.893   5.507  1.8899  0.7498 -1.4024
 6935TIP3   OH242295   3.987   1.384  12.567 -0.0635 -0.2619  0.4473
 6935TIP3    H142296   3.997   1.460  12.510  1.0738 -0.4904  0.3230
 6935TIP3    H242297   3.893   1.378  12.582 -0.1237  1.7437  1.2391
 6936TIP3   OH242298   2.900   4.871  14.912  0.0103 -0.3083  0.5235
 6936TIP3    H142299   2.939   4.794  14.954 -2.2512 -1.1932  1.1957
 6936TIP3    H242300   2.894   4.847  14.820 -0.4306 -0.8707  0.6872
 6937TIP3   OH242301   0.945   3.308  14.821 -0.1977  1.0222  0.1085
 6937TIP3    H142302   0.914   3.395  14.843  1.5331  1.6865  0.1345
 6937TIP3    H242303   0.949   3.308  14.725 -1.2401  0.5594  0.0530
 6938TIP3   OH242304   3.271   2.548   0.016 -0.0768  0.1910 -0.1217
 6938TIP3    H142305   3.306   2.545  -0.073  0.7354 -1.5159  0.2305
 6938TIP3    H242306   3.258   2.457   0.041  0.6719  0.5625  1.8726
 6939TIP3   OH242307   2.119   5.507  11.500 -0.1210  0.0450  0.4154
 6939TIP3    H142308   2.149   5.418  11.516 -1.4192 -0.2931  1.0586
 6939TIP3    H242309   2.153   5.528  11.413  1.9083 -0.3051  1.0521
 6940TIP3   OH242310   6.416   1.975   4.628  0.4182  0.0360 -0.5011
 6940TIP3    H142311   6.479   2.019   4.685  2.1078 -2.1528 -0.5426
 6940TIP3    H242312   6.355   1.932   4.688  0.1393  0.5143 -0.4339
 6941TIP3   OH242313   2.464   4.244  17.035 -0.7531  0.1628  0.0886
 6941TIP3    H142314   2.480   4.168  16.980  3.3178 -0.0846  1.2508
 6941TIP3    H242315   2.450   4.316  16.974  0.2806 -0.6853 -1.2080
 6942TIP3   OH242316   6.764   0.945  15.290 -0.0426  0.7156 -0.1109
 6942TIP3    H142317   6.837   1.004  15.311  0.8232 -0.3768  0.0934
 6942TIP3    H242318   6.686   0.991  15.320  0.8199  0.7233  2.3750
 6943TIP3   OH242319   6.496   1.072  16.498 -0.2248  0.2868 -0.2913
 6943TIP3    H142320   6.492   1.115  16.413 -0.7276 -2.0074 -1.4877
 6943TIP3    H242321   6.576   1.105  16.538  0.5279  0.6724 -2.0500
 6944TIP3   OH242322   5.672   4.377  15.658 -0.4946  0.3650  0.5401
 6944TIP3    H142323   5.633   4.390  15.572 -0.8128 -1.3394  0.3811
 6944TIP3    H242324   5.606   4.409  15.719 -0.8011  0.4313  0.1772
 6945TIP3   OH242325   6.102   2.711   6.290 -0.3447 -0.3946  0.3132
 6945TIP3    H142326   6.110   2.642   6.357  0.5114 -1.7432 -1.1135
 6945TIP3    H242327   6.171   2.691   6.227 -0.3153  1.5935 -0.3323
 6946TIP3   OH242328   1.067   6.485   4.664 -0.4552 -0.6073 -0.0634
 6946TIP3    H142329   1.102   6.555   4.719 -1.0842 -0.3559  0.0135
 6946TIP3    H242330   0.994   6.449   4.714 -0.8024 -0.6163 -0.5749
 6947TIP3   OH242331   1.234   3.109  13.964 -0.1281 -0.2382  0.1320
 6947TIP3    H142332   1.170   3.144  13.902 -0.4838  1.3051  1.3047
 6947TIP3    H242333   1.183   3.080  14.039  0.4392 -0.2235  0.5359
 6948TIP3   OH242334   4.455   2.969  15.300  0.0701 -0.4110  0.5249
 6948TIP3    H142335   4.419   3.058  15.306  1.3053  0.1244  0.1754
 6948TIP3    H242336   4.485   2.961  15.210  0.3438 -1.0438  0.6685
 6949TIP3   OH242337   1.725   4.511  16.114 -0.0220  0.8068 -0.0966
 6949TIP3    H142338   1.664   4.438  16.121  0.7562  0.1625  0.0633
 6949TIP3    H242339   1.674   4.588  16.140 -0.5166  0.1500  0.9010
 6950TIP3   OH242340   0.191   5.113  12.159 -0.0497  0.0655 -0.8505
 6950TIP3    H142341   0.195   5.066  12.075  0.9791  1.7772 -1.8317
 6950TIP3    H242342   0.273   5.090  12.203  0.5853  1.0628 -1.4528
 6951TIP3   OH242343   0.585   1.484  11.037  0.6544 -0.5248  0.3346
 6951TIP3    H142344   0.512   1.501  10.977  0.2982  0.1094  0.9393
 6951TIP3    H242345   0.632   1.411  10.996  0.4951 -0.0333 -0.7794
 6952TIP3   OH242346   5.666   6.329   0.683 -0.9061 -0.3942 -0.1898
 6952TIP3    H142347   5.709   6.375   0.755 -0.1420  0.3161 -1.0745
 6952TIP3    H242348   5.727   6.337   0.610 -1.3135 -1.7828 -0.7068
 6953TIP3   OH242349   4.281   6.686  16.113  0.1009 -0.4977  0.1359
 6953TIP3    H142350   4.205   6.628  16.104 -1.7341  1.0310  3.6371
 6953TIP3    H242351   4.345   6.635  16.163  0.7919 -1.2377 -1.4381
 6954TIP3   OH242352   5.246   2.273   0.909 -0.7552 -0.0265  0.6663
 6954TIP3    H142353   5.194   2.353   0.913  0.4485  0.8353 -0.3398
 6954TIP3    H242354   5.335   2.300   0.931  0.2768 -0.4529 -2.4162
 6955TIP3   OH242355   5.371   4.484   5.725  0.5451 -0.3685 -0.4230
 6955TIP3    H142356   5.310   4.458   5.656 -1.0965  2.1655 -0.0873
 6955TIP3    H242357   5.450   4.509   5.679  0.0102 -0.1830 -1.2586
 6956TIP3   OH242358   6.166   5.993   1.762  0.0137  0.0088 -0.3473
 6956TIP3    H142359   6.089   6.046   1.785  0.6111  0.9329 -0.4439
 6956TIP3    H242360   6.157   5.914   1.816  0.4989  1.3766  1.8860
 6957TIP3   OH242361   2.158   2.835   0.853 -0.4630  0.0043 -0.2610
 6957TIP3    H142362   2.123   2.872   0.772 -1.4460  0.5802  0.4031
 6957TIP3    H242363   2.131   2.896   0.922 -0.2064 -0.7990  0.5862
 6958TIP3   OH242364   3.856   4.657   5.763  0.2170 -0.1463  0.7160
 6958TIP3    H142365   3.774   4.690   5.800 -1.8377 -0.1952 -3.1717
 6958TIP3    H242366   3.843   4.562   5.757  0.2774 -0.0998 -0.3982
 6959TIP3   OH242367   1.146   6.672  15.655 -0.0990 -0.2209 -0.0790
 6959TIP3    H142368   1.212   6.656  15.587 -1.0701 -0.8894 -0.8898
 6959TIP3    H242369   1.190   6.650  15.737  0.5538 -1.0992 -0.6473
 6960TIP3   OH242370   4.027   4.442   2.808 -0.4681 -0.3561  0.1807
 6960TIP3    H142371   3.965   4.514   2.795 -0.8983 -0.0715  3.0075
 6960TIP3    H242372   4.015   4.418   2.900  4.1206  0.2659  1.1740
 6961TIP3   OH242373   4.629   3.792   0.798 -0.0954 -0.8483 -0.6483
 6961TIP3    H142374   4.591   3.822   0.880 -1.9342  0.5537 -1.9289
 6961TIP3    H242375   4.555   3.785   0.738  1.3315 -0.5505 -2.5494
 6962TIP3   OH242376   0.026   2.122  13.617  0.2094  0.5902 -0.4223
 6962TIP3    H142377   0.024   2.178  13.695  0.6458 -1.8374  1.4452
 6962TIP3    H242378   0.113   2.082  13.618 -1.0257 -2.3034  0.0440
 6963TIP3   OH242379   4.974   2.784   4.514  0.1053  0.4212 -0.6801
 6963TIP3    H142380   5.027   2.861   4.535 -1.1017  0.5392  2.4699
 6963TIP3    H242381   4.888   2.803   4.552 -0.2822 -2.3982  0.0374
 6964TIP3   OH242382   1.936   3.788   5.938 -0.2944  0.4877  0.8259
 6964TIP3    H142383   1.897   3.778   6.024  1.2396  0.3471  1.5323
 6964TIP3    H242384   1.926   3.881   5.917  0.0272  0.6782  1.5045
 6965TIP3   OH242385   3.823   6.427   1.802 -0.5743  0.0937  0.1739
 6965TIP3    H142386   3.906   6.391   1.770  0.1262 -0.3688  2.3880
 6965TIP3    H242387   3.845   6.515   1.834 -0.5762 -0.5813  2.1395
 6966TIP3   OH242388   0.617   2.489  13.237  0.1319 -0.0306  0.1920
 6966TIP3    H142389   0.672   2.417  13.269  0.8824  0.9683  1.2292
 6966TIP3    H242390   0.534   2.479  13.284 -0.5041 -1.3272 -1.1105
 6967TIP3   OH242391   3.044   0.846  16.567  0.2306 -0.1241 -0.4294
 6967TIP3    H142392   3.132   0.826  16.536  0.2480  0.0304 -0.4786
 6967TIP3    H242393   3.048   0.937  16.594  0.3333 -0.3778  0.4435
 6968TIP3   OH242394   2.007   2.192   0.435  0.1186 -0.4861  0.0491
 6968TIP3    H142395   2.059   2.261   0.394  2.4468 -1.8518  0.4755
 6968TIP3    H242396   1.954   2.237   0.501  1.1542  0.9700 -0.0637
 6969TIP3   OH242397   6.141   2.466  10.801  0.2727  0.0492  0.9302
 6969TIP3    H142398   6.151   2.549  10.848 -0.2879  1.2931 -1.0166
 6969TIP3    H242399   6.055   2.433  10.829  0.3580  0.2858  1.4841
 6970TIP3   OH242400   1.132   6.471   5.192 -0.0843 -0.8016 -0.5023
 6970TIP3    H142401   1.157   6.542   5.133  0.3552 -0.7824 -0.2999
 6970TIP3    H242402   1.129   6.393   5.136 -0.7263 -0.5992 -0.7565
 6971TIP3   OH242403   3.164   2.446   3.170  0.4480 -0.3938  0.2175
 6971TIP3    H142404   3.245   2.400   3.193  0.4665 -0.6803 -0.4169
 6971TIP3    H242405   3.100   2.414   3.234  0.6218 -0.8191  0.1836
 6972TIP3   OH242406   2.828   5.161  13.835 -0.4266 -0.2299  0.2927
 6972TIP3    H142407   2.752   5.121  13.877 -2.5382  0.7421 -2.3412
 6972TIP3    H242408   2.876   5.087  13.798 -1.1136 -0.7580  0.4393
 6973TIP3   OH242409   0.109   6.539   3.866 -0.1602  0.5219  0.5317
 6973TIP3    H142410   0.192   6.524   3.820 -0.2757 -0.1040  0.5181
 6973TIP3    H242411   0.050   6.474   3.829  0.2550 -1.3765  2.9252
 6974TIP3   OH242412   4.212   6.187   1.173  0.2495 -0.2484 -0.0759
 6974TIP3    H142413   4.226   6.169   1.080  0.5130 -0.3326 -0.0184
 6974TIP3    H242414   4.134   6.243   1.174 -0.6432 -1.4270 -0.2601
 6975TIP3   OH242415   6.158   1.266  11.497  0.0525 -0.1408 -0.3028
 6975TIP3    H142416   6.206   1.185  11.509  1.7138  0.8575  0.0882
 6975TIP3    H242417   6.141   1.271  11.403  0.1389 -0.8106 -0.3592
 6976TIP3   OH242418   6.718   5.777  10.611 -0.2767  0.1685  0.1260
 6976TIP3    H142419   6.809   5.767  10.639  1.3724  2.8006 -3.4222
 6976TIP3    H242420   6.679   5.835  10.676  1.4362  1.1164  0.3713
 6977TIP3   OH242421   1.925   3.589  16.453 -0.5468  0.2273  0.2045
 6977TIP3    H142422   1.942   3.675  16.490  2.0898 -0.3969  0.6488
 6977TIP3    H242423   1.956   3.595  16.363 -3.7254  0.7163 -0.9758
 6978TIP3   OH242424   0.049   3.139  14.310  0.0158 -0.3028 -0.7281
 6978TIP3    H142425   0.118   3.190  14.267 -0.5194  0.2159 -0.9918
 6978TIP3    H242426   0.044   3.058  14.260  0.3098 -0.2615 -0.8243
 6979TIP3   OH242427   6.711   2.246  15.926 -0.4992 -0.2359  0.1883
 6979TIP3    H142428   6.708   2.208  16.014 -0.1180  2.1399  1.3058
 6979TIP3    H242429   6.623   2.283  15.914 -0.0613  0.8767  0.2918
 6980TIP3   OH242430   4.691   0.238  11.092  0.6034 -0.5337 -0.2569
 6980TIP3    H142431   4.755   0.183  11.047  0.4406 -0.0103 -1.1540
 6980TIP3    H242432   4.700   0.324  11.050  0.9642  0.1682  1.2247
 6981TIP3   OH242433   4.287   4.522  16.933  0.2002 -0.1483 -0.8819
 6981TIP3    H142434   4.340   4.578  16.990 -0.2188 -0.7452  0.1246
 6981TIP3    H242435   4.310   4.549  16.844  0.5191  1.1419 -0.4312
 6982TIP3   OH242436   3.674   0.841   5.175 -0.4017  1.0177 -0.4614
 6982TIP3    H142437   3.596   0.819   5.226 -0.6679 -0.0132 -1.2550
 6982TIP3    H242438   3.733   0.883   5.237 -0.8937  0.2242  0.5731
 6983TIP3   OH242439   2.246   1.151   4.111 -0.4135  0.6598 -0.3064
 6983TIP3    H142440   2.171   1.146   4.051 -1.1975 -0.1634  0.6894
 6983TIP3    H242441   2.220   1.096   4.185  1.8313 -0.9419 -0.6156
 6984TIP3   OH242442   1.826   0.975   2.047 -0.1016 -0.2936  0.7794
 6984TIP3    H142443   1.906   0.957   1.998 -1.1566 -0.9322 -0.7877
 6984TIP3    H242444   1.816   0.900   2.105 -1.3547 -2.0450 -1.5276
 6985TIP3   OH242445   1.659   6.508   2.018 -0.0258 -0.1068  0.3739
 6985TIP3    H142446   1.674   6.570   1.947 -1.6544 -0.8736 -0.6975
 6985TIP3    H242447   1.745   6.495   2.057  0.9822  0.0856 -1.6736
 6986TIP3   OH242448   2.249   0.753  17.163 -0.3907  0.2120 -0.5996
 6986TIP3    H142449   2.314   0.716  17.103  0.7567  0.6381  0.3307
 6986TIP3    H242450   2.289   0.834  17.195 -0.8202 -0.1514  0.9542
 6987TIP3   OH242451   1.759   0.176   4.755 -0.0422  0.0337  0.6320
 6987TIP3    H142452   1.772   0.242   4.686 -2.3583  0.4859  0.5660
 6987TIP3    H242453   1.692   0.118   4.720 -1.8789  0.7474  2.7930
 6988TIP3   OH242454   4.380   2.149   1.416 -0.0899 -0.1804 -0.0077
 6988TIP3    H142455   4.292   2.185   1.429 -0.1409 -0.3726  0.1933
 6988TIP3    H242456   4.392   2.146   1.321  0.2097  1.0894 -0.0362
 6989TIP3   OH242457   6.397   5.312   0.197  0.5940  0.0512  0.0813
 6989TIP3    H142458   6.305   5.338   0.196  0.3537 -0.7462 -0.7471
 6989TIP3    H242459   6.399   5.235   0.254  0.7611  0.1032  0.1458
 6990TIP3   OH242460   0.772   6.178   2.424  0.2696  0.4291  0.1657
 6990TIP3    H142461   0.817   6.182   2.340  0.9803  1.0906  0.5620
 6990TIP3    H242462   0.821   6.239   2.480  1.1216 -1.5177  1.6755
 6991TIP3   OH242463   2.285   0.651   4.931 -0.0100  1.0691 -0.0114
 6991TIP3    H142464   2.329   0.661   4.847  0.1575  1.8706  0.1639
 6991TIP3    H242465   2.191   0.653   4.910  0.0200 -0.2726 -0.3415
 6992TIP3   OH242466   4.791   5.846   0.630  0.0323 -0.0302 -0.3099
 6992TIP3    H142467   4.769   5.936   0.607 -2.0892 -0.1651  0.9007
 6992TIP3    H242468   4.707   5.805   0.653  1.2198 -1.4949  1.8653
 6993TIP3   OH242469   3.248   6.316   4.453 -0.3671 -0.1245 -0.8708
 6993TIP3    H142470   3.165   6.330   4.406 -0.9122 -1.4891 -0.3544
 6993TIP3    H242471   3.224   6.317   4.545 -0.1630 -2.4043 -0.7480
 6994TIP3   OH242472   0.052   0.250   2.645  0.3300 -0.9774 -0.2039
 6994TIP3    H142473   0.144   0.249   2.674  0.1646  1.0348  0.5219
 6994TIP3    H242474   0.029   0.157   2.638  2.2177 -1.5350  0.2391
 6995TIP3   OH242475   6.645   1.772   5.051 -0.0529  0.4208 -0.3490
 6995TIP3    H142476   6.584   1.753   5.123  0.5083  1.1915  0.3494
 6995TIP3    H242477   6.641   1.695   4.996 -0.4247 -0.2392  0.5656
 6996TIP3   OH242478   0.957   6.018  17.171 -0.7448 -0.3233  0.3322
 6996TIP3    H142479   1.004   6.100  17.184 -0.0428 -1.0412  2.8332
 6996TIP3    H242480   0.929   5.991  17.258 -3.3568 -1.4193 -0.7231
 6997TIP3   OH242481   0.891   4.683   5.015  0.0536  0.4056  0.6802
 6997TIP3    H142482   0.978   4.653   5.040  1.1039  2.3167 -0.4256
 6997TIP3    H242483   0.851   4.608   4.971  1.8516  0.0303 -0.4152
 6998TIP3   OH242484   6.452   0.813  15.370 -0.9822 -0.4120 -0.1101
 6998TIP3    H142485   6.389   0.783  15.436 -2.1066  0.1766 -0.8799
 6998TIP3    H242486   6.514   0.741  15.362 -2.2899 -1.5609 -0.2359
 6999TIP3   OH242487   4.678   3.108   5.014 -1.1569  0.0923  0.2798
 6999TIP3    H142488   4.746   3.106   5.080 -0.9648 -0.1278  0.0774
 6999TIP3    H242489   4.712   3.167   4.946 -0.8277 -0.6278 -0.1849
 7000TIP3   OH242490   4.863   6.786   6.221  0.3136  0.1897  0.0649
 7000TIP3    H142491   4.904   6.873   6.223 -0.7645  0.7002  1.3843
 7000TIP3    H242492   4.854   6.761   6.312 -2.0725  0.0356 -0.1348
 7001TIP3   OH242493   4.735   2.257  16.465  0.0954 -0.3859 -0.3836
 7001TIP3    H142494   4.811   2.260  16.523 -0.1812 -3.4494  0.3244
 7001TIP3    H242495   4.660   2.258  16.525 -0.3913  0.9996 -0.9869
 7002TIP3   OH242496   0.896   4.768   5.465  0.2378 -0.7464  0.4541
 7002TIP3    H142497   0.851   4.757   5.382  0.1760 -2.0015  0.6289
 7002TIP3    H242498   0.826   4.779   5.530  0.2753 -0.1167  0.3934
 7003TIP3   OH242499   5.007   4.175  15.410 -0.1216 -0.0545 -0.7404
 7003TIP3    H142500   4.934   4.222  15.370 -1.8118 -1.1485  0.8874
 7003TIP3    H242501   5.032   4.110  15.344 -0.7112  0.2466 -1.2787
 7004TIP3   OH242502   1.082   0.199   3.677 -0.1605  0.1860 -0.6595
 7004TIP3    H142503   1.096   0.197   3.771  0.8879 -0.4852 -0.8157
 7004TIP3    H242504   1.169   0.188   3.639 -0.6151  0.0540 -1.7029
 7005TIP3   OH242505   6.296   0.872   3.328 -0.0947  0.0990  0.1327
 7005TIP3    H142506   6.334   0.836   3.248  0.8100  1.9100 -0.2925
 7005TIP3    H242507   6.208   0.900   3.303  0.4151  1.2570 -0.4274
 7006TIP3   OH242508   2.669   2.545   6.257 -0.1087 -0.2978  0.1191
 7006TIP3    H142509   2.581   2.517   6.232 -0.0313 -1.3804  0.9797
 7006TIP3    H242510   2.706   2.471   6.305  2.0517 -0.7105 -1.9550
 7007TIP3   OH242511   4.284   5.527   5.103 -0.2044  0.3113  0.2213
 7007TIP3    H142512   4.326   5.588   5.043 -0.6900  0.9690  0.5439
 7007TIP3    H242513   4.325   5.443   5.084 -1.7277  0.0716 -2.4516
 7008TIP3   OH242514   0.394   0.034   0.248 -0.4024  0.0107 -0.4065
 7008TIP3    H142515   0.415  -0.057   0.223  3.0551  0.6607 -0.4004
 7008TIP3    H242516   0.431   0.086   0.176 -0.4034  1.4692  0.6294
 7009TIP3   OH242517   5.205   1.545   5.570  0.2895 -0.1310 -0.7486
 7009TIP3    H142518   5.243   1.524   5.656  1.3864  0.8081 -0.9676
 7009TIP3    H242519   5.111   1.535   5.582  0.3813  0.4571  0.7163
 7010TIP3   OH242520   3.917   0.381   2.367 -0.2691  1.0857 -0.1396
 7010TIP3    H142521   3.960   0.309   2.321 -0.6427  0.9313 -0.2514
 7010TIP3    H242522   3.919   0.355   2.459 -0.8484  0.6956 -0.2340
 7011TIP3   OH242523   6.689   5.117   3.081  0.3630  0.6437 -0.0258
 7011TIP3    H142524   6.683   5.195   3.136  0.7767 -0.5718  1.8484
 7011TIP3    H242525   6.780   5.117   3.049  0.5934  0.5582  0.6058
 7012TIP3   OH242526   2.549   4.308  12.242  0.4402 -0.3287  0.0774
 7012TIP3    H142527   2.553   4.349  12.328  1.0215 -2.0768  0.9145
 7012TIP3    H242528   2.459   4.278  12.234 -0.2343  1.7792 -0.9088
 7013TIP3   OH242529   4.357   4.940   5.230  0.0467 -0.3384  0.4778
 7013TIP3    H142530   4.442   4.985   5.226  1.3315 -2.6258 -0.2893
 7013TIP3    H242531   4.297   4.997   5.182  1.6521  0.3926 -0.7666
 7014TIP3   OH242532   4.660   3.407  15.684  0.1137  0.1615 -0.0250
 7014TIP3    H142533   4.714   3.476  15.646  0.1312  0.6371  0.8407
 7014TIP3    H242534   4.717   3.366  15.750 -0.5719  0.7025  0.9389
 7015TIP3   OH242535   6.666   2.283   1.892  0.0407  0.0410 -0.0120
 7015TIP3    H142536   6.633   2.196   1.870  0.0165  0.0282  0.0748
 7015TIP3    H242537   6.601   2.343   1.856  1.7633  0.1906 -3.2547
 7016TIP3   OH242538   6.661   0.833  14.795 -0.6622 -0.4783  0.4553
 7016TIP3    H142539   6.614   0.816  14.876  1.5479 -1.5269  1.5953
 7016TIP3    H242540   6.689   0.747  14.764 -2.8647 -0.3202 -2.4195
 7017TIP3   OH242541   0.480   3.431   4.899 -0.3194 -0.3544 -0.2853
 7017TIP3    H142542   0.555   3.478   4.937 -0.0620  0.1830 -1.3928
 7017TIP3    H242543   0.513   3.343   4.883 -0.6243 -0.7813  1.2662
 7018TIP3   OH242544   6.444   5.292   2.652  0.2432 -0.0684  0.5282
 7018TIP3    H142545   6.368   5.305   2.595  1.2450 -0.7996 -1.0595
 7018TIP3    H242546   6.437   5.201   2.681  1.1977 -0.6011 -0.7823
 7019TIP3   OH242547   5.194   6.644   0.564  0.6325 -0.1503  0.0126
 7019TIP3    H142548   5.273   6.593   0.582  0.5397 -0.5071 -0.5482
 7019TIP3    H242549   5.179   6.632   0.470 -1.7888 -2.5904  0.5566
 7020TIP3   OH242550   4.397   6.032   3.369  1.0405 -0.1079 -0.3600
 7020TIP3    H142551   4.331   5.966   3.346  1.3744 -1.4059  2.0914
 7020TIP3    H242552   4.380   6.105   3.309 -1.4182 -1.1279 -1.0132
 7021TIP3   OH242553   2.105   1.523  15.979  0.5150 -0.0357  0.2745
 7021TIP3    H142554   2.071   1.459  16.042  1.3560 -0.2812  0.4993
 7021TIP3    H242555   2.168   1.473  15.926 -0.9744 -0.1247 -1.5156
 7022TIP3   OH242556   2.350   2.201   1.877  0.0550 -0.0954 -0.4374
 7022TIP3    H142557   2.310   2.118   1.900 -0.1869 -0.0253 -0.5934
 7022TIP3    H242558   2.358   2.198   1.781  1.1639 -0.4406 -0.3553
 7023TIP3   OH242559   1.541   0.953  11.933 -0.2145 -0.0999  0.5060
 7023TIP3    H142560   1.493   0.922  12.010 -1.7832 -1.6300 -0.9947
 7023TIP3    H242561   1.528   0.884  11.868  0.7457  1.3161 -1.2541
 7024TIP3   OH242562   0.441   3.578  13.615  0.1963 -0.4873  0.0653
 7024TIP3    H142563   0.391   3.659  13.619 -1.8086 -1.5692 -1.1157
 7024TIP3    H242564   0.533   3.605  13.620 -0.4138  1.8185 -0.2173
 7025TIP3   OH242565   3.926   3.573  15.708  0.1329 -1.0565  0.0536
 7025TIP3    H142566   3.975   3.551  15.629  3.2830 -1.0344  1.8464
 7025TIP3    H242567   3.874   3.495  15.726  2.5802 -2.7746  0.1656
 7026TIP3   OH242568   2.129   6.578   4.866 -0.0394 -0.4057  0.1956
 7026TIP3    H142569   2.086   6.663   4.856 -1.0158 -0.6382  2.0655
 7026TIP3    H242570   2.181   6.586   4.946  2.9371 -0.3843 -1.5882
 7027TIP3   OH242571   3.811   6.626  13.107 -0.3778  0.0936  0.0372
 7027TIP3    H142572   3.783   6.559  13.044  1.2506 -0.2180 -0.4114
 7027TIP3    H242573   3.906   6.618  13.108 -0.3315  0.5986  2.0187
 7028TIP3   OH242574   2.061   3.051  13.404 -0.5495 -0.5279 -0.4397
 7028TIP3    H142575   1.982   3.084  13.362 -1.1585  0.4407  1.3361
 7028TIP3    H242576   2.124   3.042  13.333 -1.4936  1.0655 -1.5461
 7029TIP3   OH242577   0.847   1.375   6.686 -0.3746 -0.0876  0.0684
 7029TIP3    H142578   0.753   1.392   6.685 -1.0058 -2.3879  3.0614
 7029TIP3    H242579   0.855   1.284   6.656  0.9497  0.1546 -0.3988
 7030TIP3   OH242580   1.164   6.773  16.895 -0.4814 -0.4159  0.3514
 7030TIP3    H142581   1.147   6.793  16.803  1.0308 -1.8891 -0.3114
 7030TIP3    H242582   1.246   6.818  16.915 -0.8676  0.0021  1.0373
 7031TIP3   OH242583   0.042   1.233  13.552 -0.5481 -0.8116 -0.0091
 7031TIP3    H142584  -0.005   1.238  13.469 -1.6960 -2.3435  0.4890
 7031TIP3    H242585  -0.004   1.295  13.609 -0.3721 -0.4769 -0.2247
 7032TIP3   OH242586   1.872   2.393  14.094  0.5768  0.3534 -0.0527
 7032TIP3    H142587   1.890   2.305  14.127 -0.3054  0.2603  0.1945
 7032TIP3    H242588   1.950   2.416  14.044  0.5529 -0.8211 -0.6589
 7033TIP3   OH242589   6.629   4.591   1.138 -0.3924 -0.3551  0.2804
 7033TIP3    H142590   6.587   4.660   1.190 -0.4846 -1.9849  2.5295
 7033TIP3    H242591   6.698   4.635   1.089 -0.0496  1.2524  2.1172
 7034TIP3   OH242592   5.742   2.394   5.764  0.5599  0.3399 -0.0846
 7034TIP3    H142593   5.794   2.423   5.689  1.0751  1.7077  0.7590
 7034TIP3    H242594   5.795   2.325   5.805  2.0382  2.0505  1.0537
 7035TIP3   OH242595   2.757   1.871  11.392  0.2667 -0.3988  0.6496
 7035TIP3    H142596   2.850   1.852  11.386  0.0314 -2.3237  2.3140
 7035TIP3    H242597   2.719   1.829  11.314  0.6913 -0.2085  0.3361
 7036TIP3   OH242598   6.438   0.542  12.534  0.2856  0.1781 -0.9188
 7036TIP3    H142599   6.477   0.503  12.612  2.2699  1.1309 -1.3572
 7036TIP3    H242600   6.501   0.608  12.506 -1.7528  1.9541 -1.6431
 7037TIP3   OH242601   1.725   2.225  11.621  0.3890  0.0400 -0.1822
 7037TIP3    H142602   1.794   2.289  11.607  1.0121 -0.8608 -1.4837
 7037TIP3    H242603   1.661   2.270  11.676  1.1398  1.5223 -0.4649
 7038TIP3   OH242604   3.451   1.117   3.536  0.2870 -0.7523 -0.2779
 7038TIP3    H142605   3.477   1.171   3.461 -0.6691  0.9051  0.5369
 7038TIP3    H242606   3.525   1.058   3.550  1.1400 -0.0217 -1.5412
 7039TIP3   OH242607   5.539   6.641   3.083 -0.7939 -0.0575  0.2469
 7039TIP3    H142608   5.606   6.698   3.047  0.3975 -0.8977  1.0845
 7039TIP3    H242609   5.499   6.691   3.154  1.0718 -0.6490  1.7939
 7040TIP3   OH242610   5.216   3.516  11.311 -0.8642 -0.1514  0.3419
 7040TIP3    H142611   5.218   3.575  11.236  1.2509 -1.3078 -0.6059
 7040TIP3    H242612   5.255   3.565  11.383 -2.1737  0.6879  0.5132
 7041TIP3   OH242613   4.092   3.325  13.673 -0.3409 -0.3684 -0.7347
 7041TIP3    H142614   4.153   3.386  13.632  1.8977 -2.9019 -1.4829
 7041TIP3    H242615   4.038   3.292  13.600  0.1092 -1.0322 -0.7776
 7042TIP3   OH242616   2.719   0.734  17.125  0.3583 -0.7333 -0.6343
 7042TIP3    H142617   2.766   0.720  17.043  0.7350 -1.7575 -0.2660
 7042TIP3    H242618   2.780   0.705  17.193 -0.4613 -1.2319 -0.0885
 7043TIP3   OH242619   2.762   1.669  11.679  0.1564 -0.1159  0.2302
 7043TIP3    H142620   2.703   1.744  11.678 -0.9420 -0.9349  1.1020
 7043TIP3    H242621   2.720   1.605  11.621  0.1621 -0.7154  0.8737
 7044TIP3   OH242622   2.614   1.672  12.573 -0.0885  0.6599 -0.2588
 7044TIP3    H142623   2.656   1.750  12.537  1.5021  0.0711  0.2222
 7044TIP3    H242624   2.683   1.606  12.575 -1.1659 -0.5095  0.1627
 7045TIP3   OH242625   0.251   0.076  15.028 -0.1263  0.0780  0.5282
 7045TIP3    H142626   0.263   0.093  15.122 -0.5562  0.3746  0.5318
 7045TIP3    H242627   0.171   0.123  15.005  0.4190  0.6869 -0.1672
 7046TIP3   OH242628   0.444   5.463   3.855 -0.1991  0.2375 -0.7635
 7046TIP3    H142629   0.530   5.460   3.896 -0.7565 -0.6706  0.4180
 7046TIP3    H242630   0.459   5.436   3.764  0.6126 -1.1261 -0.2525
 7047TIP3   OH242631   1.553   6.289   5.537  0.3171  0.2345 -0.4313
 7047TIP3    H142632   1.498   6.211   5.536 -1.4471  1.3554  1.2710
 7047TIP3    H242633   1.501   6.356   5.492  1.0070  0.9157 -0.2460
 7048TIP3   OH242634   4.691   6.129  17.239 -0.5562 -0.3033  0.1771
 7048TIP3    H142635   4.646   6.163  17.162  0.6755  0.3530 -0.2809
 7048TIP3    H242636   4.721   6.042  17.214  1.4860  0.6124 -0.8202
 7049TIP3   OH242637   1.306   4.820  14.692  0.0954  0.2195  0.2465
 7049TIP3    H142638   1.247   4.756  14.731  1.3506 -1.2997 -0.2080
 7049TIP3    H242639   1.372   4.836  14.759  0.5393 -0.0347 -0.1171
 7050TIP3   OH242640   2.002   1.442  17.317  0.1101 -0.0219 -0.2530
 7050TIP3    H142641   2.057   1.386  17.372  1.4921 -0.1626 -1.7004
 7050TIP3    H242642   1.921   1.392  17.304  0.6729 -0.9646 -0.1900
 7051TIP3   OH242643   1.927   2.342   0.636 -0.4766  0.4702  0.0370
 7051TIP3    H142644   1.940   2.262   0.686  0.4329  0.4086 -0.2821
 7051TIP3    H242645   1.832   2.355   0.636 -0.8141 -1.5874 -1.4176
 7052TIP3   OH242646   4.797   4.810   4.329  0.0716 -0.0130 -0.1988
 7052TIP3    H142647   4.743   4.796   4.251 -0.3014 -1.5574  0.3112
 7052TIP3    H242648   4.735   4.845   4.393  0.5924  2.2830 -0.8640
 7053TIP3   OH242649   4.998   2.029  13.274  0.3297 -0.2234 -0.0054
 7053TIP3    H142650   4.982   2.081  13.353  2.0837  1.2040 -0.5268
 7053TIP3    H242651   4.960   2.081  13.203  1.1057 -0.1933 -0.4065
 7054TIP3   OH242652   2.702   0.546  15.336 -0.0406 -0.3692 -0.4806
 7054TIP3    H142653   2.732   0.467  15.293  2.5083  0.6095 -0.6871
 7054TIP3    H242654   2.771   0.610  15.320 -0.5140  0.9947  2.3171
 7055TIP3   OH242655   5.353   6.492   2.194  0.0873  0.1451 -0.3778
 7055TIP3    H142656   5.327   6.560   2.255 -1.9544 -1.3311  0.5313
 7055TIP3    H242657   5.286   6.495   2.125  0.2546 -0.6056 -0.5815
 7056TIP3   OH242658   3.729   3.242  12.042  0.2515 -0.4969 -0.4517
 7056TIP3    H142659   3.663   3.262  11.975 -0.4385  0.4068  0.4581
 7056TIP3    H242660   3.811   3.276  12.006 -0.2843  0.8767 -0.4435
 7057TIP3   OH242661   2.407   5.126   3.067  0.0532  0.3317  0.3804
 7057TIP3    H142662   2.492   5.085   3.083  0.8929  1.0710 -1.8387
 7057TIP3    H242663   2.427   5.219   3.059 -0.8316  0.4338 -0.9050
 7058TIP3   OH242664   4.007   5.848  10.715  0.1454 -0.0359  0.1366
 7058TIP3    H142665   3.947   5.777  10.740  1.3978 -1.5904 -1.0506
 7058TIP3    H242666   3.949   5.919  10.687 -1.1552 -1.1762 -0.1970
 7059TIP3   OH242667   3.784   3.751  16.955  0.5909 -0.1390  0.4158
 7059TIP3    H142668   3.877   3.730  16.962  1.0165  1.6115  0.6801
 7059TIP3    H242669   3.752   3.746  17.045  0.7957  0.6836  0.5445
 7060TIP3   OH242670   0.378   6.495  12.233 -0.0215  0.3983 -0.8437
 7060TIP3    H142671   0.294   6.510  12.276 -0.4157 -0.4788 -1.2984
 7060TIP3    H242672   0.441   6.491  12.305 -0.7495 -1.6223 -0.2387
 7061TIP3   OH242673   3.984   0.732   6.590  0.1524 -0.3986  0.5098
 7061TIP3    H142674   3.938   0.758   6.670  0.9728  0.1833  0.8022
 7061TIP3    H242675   3.978   0.808   6.533 -1.1654 -1.0954 -0.3515
 7062TIP3   OH242676   4.205   2.802   5.184  0.2973 -0.1485 -0.6216
 7062TIP3    H142677   4.216   2.882   5.234  0.9231 -1.4950  1.5332
 7062TIP3    H242678   4.111   2.784   5.186  0.1014  0.6848 -1.4540
 7063TIP3   OH242679   3.222   2.259   0.065  0.4431  0.1050 -0.6680
 7063TIP3    H142680   3.257   2.223   0.146  2.2053 -0.0992 -1.4865
 7063TIP3    H242681   3.222   2.186   0.004  0.0558  0.4934 -1.1390
 7064TIP3   OH242682   6.756   2.309   3.302 -0.1456  0.1787  0.4822
 7064TIP3    H142683   6.799   2.384   3.261  0.5385 -0.0650  0.7350
 7064TIP3    H242684   6.767   2.322   3.396  2.2820 -1.4878  0.5272
 7065TIP3   OH242685   1.127   1.972  11.161 -0.1918  0.0017  0.8296
 7065TIP3    H142686   1.104   2.062  11.141  0.1684  0.2875  1.6410
 7065TIP3    H242687   1.223   1.971  11.158 -0.2294 -0.6995 -0.5839
 7066TIP3   OH242688   5.408   0.762   4.209 -0.3488 -0.3196 -0.3147
 7066TIP3    H142689   5.437   0.853   4.217  0.0826 -0.5405  0.6962
 7066TIP3    H242690   5.327   0.758   4.259 -1.4583 -0.0360 -2.0011
 7067TIP3   OH242691   4.342   4.808   5.458 -0.3765  0.4696  0.2428
 7067TIP3    H142692   4.316   4.722   5.426  2.8138  0.3299 -2.4672
 7067TIP3    H242693   4.334   4.865   5.382  3.4242  1.0952  0.1085
 7068TIP3   OH242694   1.866   3.534   1.587 -0.8004 -0.3340  0.8940
 7068TIP3    H142695   1.883   3.527   1.681 -1.9685  2.2518  1.4020
 7068TIP3    H242696   1.810   3.611   1.579 -0.4654 -0.2819 -1.9696
 7069TIP3   OH242697   4.602   2.569   0.396 -0.0683  0.1221  0.5830
 7069TIP3    H142698   4.627   2.479   0.418  2.2224  0.6060  0.1576
 7069TIP3    H242699   4.663   2.624   0.445  0.2095  1.3694 -1.0695
 7070TIP3   OH242700   4.642   3.541   1.983 -0.3291 -0.2645 -0.0663
 7070TIP3    H142701   4.590   3.591   1.920  0.9044 -0.7228 -1.4942
 7070TIP3    H242702   4.686   3.608   2.036 -1.1051  0.1271  0.0987
 7071TIP3   OH242703   1.395   3.336   4.406 -0.1536  0.1078  0.0425
 7071TIP3    H142704   1.445   3.399   4.355  0.7885 -0.0569  0.7200
 7071TIP3    H242705   1.305   3.345   4.375  0.3307  0.2261 -1.3956
 7072TIP3   OH242706   0.551   1.345  13.671 -0.5314 -0.4370  0.3992
 7072TIP3    H142707   0.618   1.372  13.608 -0.6918 -1.0449 -0.0375
 7072TIP3    H242708   0.474   1.328  13.617 -1.0622  0.3085  0.9008
 7073TIP3   OH242709   1.175   3.837  14.301 -0.1836 -0.3753  0.1495
 7073TIP3    H142710   1.117   3.897  14.348 -0.1811 -1.8113  2.0803
 7073TIP3    H242711   1.117   3.784  14.247 -0.2351  0.9080 -1.1167
 7074TIP3   OH242712   3.317   0.896   2.358 -0.0864  0.3343  0.0990
 7074TIP3    H142713   3.394   0.903   2.301  0.2201  0.2167  0.4961
 7074TIP3    H242714   3.329   0.813   2.403 -0.1846  0.5644  0.5469
 7075TIP3   OH242715   3.982   3.571  13.891  0.0223  0.1206  0.0641
 7075TIP3    H142716   3.941   3.552  13.976  1.6575 -0.7624  0.6931
 7075TIP3    H242717   3.938   3.512  13.830 -0.2337 -0.2088  0.5583
 7076TIP3   OH242718   1.821   0.492  12.323 -0.4175 -0.4442 -0.0615
 7076TIP3    H142719   1.844   0.401  12.344 -0.2314 -1.2887 -3.3854
 7076TIP3    H242720   1.898   0.525  12.275 -0.9883  1.0604  0.0222
 7077TIP3   OH242721   4.339   1.201   1.724 -0.0505  0.1388  0.1939
 7077TIP3    H142722   4.256   1.203   1.771 -0.6594 -0.1927 -0.8457
 7077TIP3    H242723   4.391   1.133   1.768 -0.5524 -0.0656  0.4688
 7078TIP3   OH242724   1.203   0.716   1.095 -0.4054 -0.4416  0.5962
 7078TIP3    H142725   1.161   0.798   1.070  1.1685  0.1293 -0.3653
 7078TIP3    H242726   1.279   0.742   1.147  0.3495 -1.2327 -0.0619
 7079TIP3   OH242727   3.418   2.591   6.017  0.1951  0.0976  0.1772
 7079TIP3    H142728   3.362   2.668   6.021 -1.1502 -0.8266 -0.0105
 7079TIP3    H242729   3.401   2.554   5.930 -1.9625 -2.3621  1.5157
 7080TIP3   OH242730   0.806   0.237   3.840  1.2396  0.3566 -0.1159
 7080TIP3    H142731   0.835   0.326   3.861 -0.4547  1.0837 -0.7087
 7080TIP3    H242732   0.814   0.190   3.923 -1.4982  2.1221  1.3260
 7081TIP3   OH242733   2.448   3.226  16.813 -0.0294  0.8169 -0.6174
 7081TIP3    H142734   2.534   3.192  16.839  1.2659  1.0956 -4.0094
 7081TIP3    H242735   2.452   3.319  16.836  0.4683  0.7746 -0.5074
 7082TIP3   OH242736   4.697   4.323   2.057 -0.2091 -0.1868  0.0234
 7082TIP3    H142737   4.722   4.231   2.066 -0.3498 -0.2919 -0.6203
 7082TIP3    H242738   4.769   4.363   2.009 -0.0234  0.1022  0.5352
 7083TIP3   OH242739   4.085   1.687  16.293 -0.3207 -0.8494  0.0027
 7083TIP3    H142740   4.020   1.750  16.264 -1.2574 -0.9264  1.8268
 7083TIP3    H242741   4.162   1.740  16.316 -2.0648  0.1653  4.4155
 7084TIP3   OH242742   0.530   2.753  14.306 -1.0966  0.0654  0.1267
 7084TIP3    H142743   0.576   2.727  14.386 -1.7819  0.3961  0.6285
 7084TIP3    H242744   0.533   2.849  14.307  1.1968  0.1145 -1.5865
 7085TIP3   OH242745   4.696   3.893   1.812  0.3535 -0.8310  0.1634
 7085TIP3    H142746   4.645   3.815   1.832  0.8738 -1.0630  0.5845
 7085TIP3    H242747   4.687   3.903   1.717 -0.4352 -0.8902  0.2214
 7086TIP3   OH242748   5.291   6.033  13.478 -0.9038 -0.1078  0.1878
 7086TIP3    H142749   5.224   6.008  13.415 -0.5138  0.6246 -0.5283
 7086TIP3    H242750   5.269   6.122  13.504  1.8265  1.7585 -2.9971
 7087TIP3   OH242751   6.716   6.380  15.056 -1.0210 -0.0232 -0.3498
 7087TIP3    H142752   6.681   6.453  15.106 -0.0432 -1.3930  2.5677
 7087TIP3    H242753   6.697   6.402  14.965 -1.2957  3.5350  0.4180
 7088TIP3   OH242754   1.900   5.965  17.285  0.6053  0.6630  0.0850
 7088TIP3    H142755   1.820   5.915  17.301 -0.0857  1.2680 -1.3334
 7088TIP3    H242756   1.970   5.902  17.301 -0.0965  0.2328  1.7645
 7089TIP3   OH242757   1.908   3.644  15.747  0.1144  0.2435  0.2488
 7089TIP3    H142758   1.998   3.675  15.760 -0.1310  1.2594 -0.4077
 7089TIP3    H242759   1.861   3.720  15.713 -0.8575 -0.4498  0.0103
 7090TIP3   OH242760   5.122   0.581   4.781 -0.1890 -0.3337 -0.2791
 7090TIP3    H142761   5.069   0.561   4.858 -1.2373 -2.7831 -1.5150
 7090TIP3    H242762   5.119   0.677   4.773 -2.8796 -0.2517  0.7883
 7091TIP3   OH242763   5.557   2.977   2.772  0.7685 -0.1403 -0.3059
 7091TIP3    H142764   5.537   3.006   2.683 -0.7762 -0.3033 -0.0438
 7091TIP3    H242765   5.599   3.052   2.813 -0.7277  0.8206 -0.4531
 7092TIP3   OH242766   3.115   1.970  15.004  0.2381  0.5239  0.2901
 7092TIP3    H142767   3.172   1.947  14.931 -0.2688  0.4553 -0.0889
 7092TIP3    H242768   3.096   1.886  15.046 -0.5648  0.3882 -0.3184
 7093TIP3   OH242769   6.269   6.697   3.103 -0.7961 -0.5254 -0.2104
 7093TIP3    H142770   6.291   6.618   3.152 -1.7497 -0.1268  0.8958
 7093TIP3    H242771   6.227   6.665   3.023 -0.1451 -1.1562 -0.3049
 7094TIP3   OH242772   1.814   5.776  15.836 -0.3037 -0.0608  0.2584
 7094TIP3    H142773   1.902   5.756  15.868 -0.7234  0.8674  2.1481
 7094TIP3    H242774   1.758   5.767  15.913 -1.7397  0.1893 -0.7189
 7095TIP3   OH242775   1.035   3.323  14.258 -0.3925 -0.8395 -0.4576
 7095TIP3    H142776   1.019   3.346  14.350  1.5229 -2.9818  0.5385
 7095TIP3    H242777   0.995   3.236  14.248  1.7188 -1.8610 -0.7528
 7096TIP3   OH242778   2.113   4.540  16.424 -0.3097  0.1715 -0.0759
 7096TIP3    H142779   2.099   4.616  16.368  1.6140  0.3086 -0.4663
 7096TIP3    H242780   2.170   4.572  16.494 -0.6560 -0.5754  0.5554
 7097TIP3   OH242781   2.207   5.576  11.893 -0.6263 -0.3868 -0.1966
 7097TIP3    H142782   2.214   5.485  11.923  2.0051 -0.0804  0.3551
 7097TIP3    H242783   2.247   5.627  11.964  0.5280  0.9046 -1.7251
 7098TIP3   OH242784   1.955   6.492  16.119 -0.0924  0.3185  0.0907
 7098TIP3    H142785   1.896   6.457  16.186 -0.5990 -1.1623 -1.0809
 7098TIP3    H242786   1.898   6.514  16.046  0.5506  1.1699 -0.1712
 7099TIP3   OH242787   3.070   2.874   5.703 -0.6156  0.3962  0.3274
 7099TIP3    H142788   3.089   2.824   5.623 -0.1686 -1.1815  1.3582
 7099TIP3    H242789   3.156   2.888   5.743 -0.7565  1.8903  0.1606
 7100TIP3   OH242790   6.113   6.724  11.144  0.4868  0.1889  0.0370
 7100TIP3    H142791   6.039   6.721  11.084  1.3829 -0.6027 -1.0712
 7100TIP3    H242792   6.102   6.647  11.200  0.1555  0.4104  0.2811
 7101TIP3   OH242793   1.758   1.988   0.612  0.3336  0.0830  0.4115
 7101TIP3    H142794   1.751   1.908   0.560  0.0417  0.7002 -0.5312
 7101TIP3    H242795   1.671   2.000   0.650  0.2807  0.1288  0.2775
 7102TIP3   OH242796   4.732   4.743   6.596  0.6859  0.0141 -0.2193
 7102TIP3    H142797   4.778   4.798   6.533  0.1781 -0.2816 -0.8677
 7102TIP3    H242798   4.647   4.786   6.609 -0.5059 -1.5558 -2.2115
 7103TIP3   OH242799   5.566   5.915   0.633 -0.1556 -0.3075 -0.5474
 7103TIP3    H142800   5.505   5.974   0.589  0.1417  0.0840 -0.4335
 7103TIP3    H242801   5.624   5.883   0.564 -1.1041 -1.4838 -0.8561
 7104TIP3   OH242802   5.356   2.711   5.339  0.0599  0.0467 -0.6125
 7104TIP3    H142803   5.363   2.786   5.397  2.2770  0.6366 -1.5452
 7104TIP3    H242804   5.282   2.731   5.282 -2.3836 -0.6972  2.0615
 7105TIP3   OH242805   1.133   4.845  11.353 -0.2964 -0.5401  0.2490
 7105TIP3    H142806   1.227   4.847  11.340 -0.1496 -1.6122  0.9886
 7105TIP3    H242807   1.119   4.779  11.421 -1.5859 -0.4650  0.0960
 7106TIP3   OH242808   4.494   5.131   3.177 -0.0720  0.3966 -0.4535
 7106TIP3    H142809   4.486   5.222   3.205 -1.8214  0.1450 -0.0129
 7106TIP3    H242810   4.429   5.121   3.108  1.4786 -0.0329 -1.9334
 7107TIP3   OH242811   2.940   0.215  17.055 -0.7447  0.6897  0.8898
 7107TIP3    H142812   2.943   0.177  16.967  1.0549 -1.0784  1.6396
 7107TIP3    H242813   2.860   0.267  17.056 -0.2378  1.7262 -2.1502
 7108TIP3   OH242814   1.642   1.269   1.292  0.4143 -0.5926 -0.1332
 7108TIP3    H142815   1.698   1.228   1.226 -0.4310 -3.6127  0.8615
 7108TIP3    H242816   1.681   1.244   1.376 -1.1884 -0.9817  0.5332
 7109TIP3   OH242817   0.838   4.731  16.632  0.0779  0.0872 -0.4038
 7109TIP3    H142818   0.910   4.774  16.585  0.4783  0.2230  0.3139
 7109TIP3    H242819   0.759   4.771  16.596  0.4112  0.7976 -0.3733
 7110TIP3   OH242820   3.753   2.469   1.768 -0.2870 -0.3412 -0.1345
 7110TIP3    H142821   3.736   2.495   1.677  1.7385 -0.8682 -0.7266
 7110TIP3    H242822   3.836   2.513   1.790  0.8308 -2.5977  0.3953
 7111TIP3   OH242823   3.523   3.520  14.979 -0.8801 -0.1216  1.2228
 7111TIP3    H142824   3.472   3.600  14.966  1.9498  1.4823 -0.8800
 7111TIP3    H242825   3.611   3.550  15.001  0.4454 -2.6050 -0.2308
 7112TIP3   OH242826   0.784   1.234   2.841  0.7018  0.3166 -0.3088
 7112TIP3    H142827   0.785   1.197   2.929  1.5903  0.2114 -0.3544
 7112TIP3    H242828   0.725   1.177   2.792  1.7764 -0.8625 -0.2890
 7113TIP3   OH242829   6.515   5.912   2.402 -0.4015 -0.1463  0.5182
 7113TIP3    H142830   6.590   5.971   2.400  0.5818 -1.3525  0.6178
 7113TIP3    H242831   6.447   5.958   2.351 -0.1668  1.6686  1.7346
 7114TIP3   OH242832   6.428   0.507  14.689  0.2998 -0.4379 -0.2948
 7114TIP3    H142833   6.361   0.557  14.642  1.1986  0.7464 -0.3547
 7114TIP3    H242834   6.453   0.437  14.629 -0.8176 -0.8581 -0.2946
 7115TIP3   OH242835   3.664   1.765  12.401  0.0328 -0.4417 -0.2168
 7115TIP3    H142836   3.587   1.823  12.401  1.1636  1.1757  0.9442
 7115TIP3    H242837   3.652   1.709  12.478 -0.1500 -0.4013 -0.2161
 7116TIP3   OH242838   2.402   0.307  14.735 -0.0577  0.3177  0.3473
 7116TIP3    H142839   2.463   0.234  14.744  1.9865  1.5871 -1.7440
 7116TIP3    H242840   2.364   0.296  14.647  0.2864  1.6930 -0.0110
 7117TIP3   OH242841   4.627   5.628  15.718 -0.8309 -0.1581  0.8654
 7117TIP3    H142842   4.557   5.599  15.660 -0.9688 -1.0803  1.4698
 7117TIP3    H242843   4.707   5.592  15.680 -0.6792  0.7450  0.2758
 7118TIP3   OH242844   6.162   3.563   2.079 -0.0198 -0.3369 -0.0184
 7118TIP3    H142845   6.233   3.537   2.138  1.6669  0.8050 -1.4517
 7118TIP3    H242846   6.162   3.496   2.010  1.3118  0.8740 -1.2773
 7119TIP3   OH242847   3.356   2.813   4.700  0.0826  0.0175 -0.3966
 7119TIP3    H142848   3.262   2.803   4.687 -0.0895  0.5646  0.3610
 7119TIP3    H242849   3.393   2.806   4.612 -0.4282 -2.5367 -0.4904
 7120TIP3   OH242850   4.036   0.095  14.647 -0.3369 -0.9542  0.0774
 7120TIP3    H142851   4.068   0.161  14.585 -0.0832 -1.3177 -0.1819
 7120TIP3    H242852   4.010   0.145  14.724  0.9564 -0.6628  0.3391
 7121TIP3   OH242853   5.822   2.388  14.226 -0.6783 -0.4386 -0.0211
 7121TIP3    H142854   5.910   2.398  14.189 -0.7799  1.7453  0.2424
 7121TIP3    H242855   5.781   2.322  14.170  0.7218 -0.6263 -0.8869
 7122TIP3   OH242856   0.979   2.318  16.297 -0.4573  0.0836 -0.0315
 7122TIP3    H142857   1.030   2.240  16.277  0.5619  0.3575  1.3343
 7122TIP3    H242858   0.945   2.347  16.213  0.1054 -1.1646 -0.7159
 7123TIP3   OH242859   3.256   6.259   2.118  0.0409  0.6402 -0.3533
 7123TIP3    H142860   3.298   6.282   2.035 -1.8574  0.3992 -1.4311
 7123TIP3    H242861   3.266   6.164   2.124  1.9610  0.8641  0.7550
 7124TIP3   OH242862   6.712   1.532  13.484 -1.1984  0.1521 -0.1284
 7124TIP3    H142863   6.756   1.616  13.499  0.7439 -0.8948  0.2327
 7124TIP3    H242864   6.703   1.493  13.571  0.0559 -1.0345 -0.5049
 7125TIP3   OH242865   1.296   6.482  15.804  0.2530  0.4536 -0.0584
 7125TIP3    H142866   1.298   6.444  15.891 -0.6529 -0.1433 -0.2835
 7125TIP3    H242867   1.387   6.505  15.785  0.6154 -0.3932  0.6156
 7126TIP3   OH242868   1.601   6.562  12.384 -0.0994 -0.1534 -0.4266
 7126TIP3    H142869   1.554   6.618  12.446  0.3622  0.5809 -0.7237
 7126TIP3    H242870   1.662   6.621  12.340  1.6710 -1.1938  0.4810
 7127TIP3   OH242871   4.869   3.190  16.662 -0.7190 -0.2276 -0.0382
 7127TIP3    H142872   4.910   3.220  16.580  0.6861  0.1250  0.7521
 7127TIP3    H242873   4.794   3.247  16.674  0.2672  1.1182 -0.0401
 7128TIP3   OH242874   4.712   3.874   6.031 -0.0501  0.3692  0.3160
 7128TIP3    H142875   4.661   3.911   6.102 -1.5559 -1.3318  0.2091
 7128TIP3    H242876   4.666   3.792   6.009  1.5992 -0.2261 -1.1532
 7129TIP3   OH242877   4.046   6.316  16.697 -0.2027  0.1009 -0.1617
 7129TIP3    H142878   4.071   6.256  16.767  1.0468 -0.1279 -0.7684
 7129TIP3    H242879   3.955   6.339  16.716  0.4557  1.0109  2.2177
 7130TIP3   OH242880   6.490   1.740   3.249  0.2337 -0.2586  0.3733
 7130TIP3    H142881   6.562   1.679   3.266  3.4203  2.4470 -1.8975
 7130TIP3    H242882   6.486   1.745   3.153 -1.4114  1.4093  0.4790
 7131TIP3   OH242883   1.557   3.491  11.819 -0.2426 -0.3438  0.2307
 7131TIP3    H142884   1.579   3.577  11.855 -1.0521 -0.1044  0.1603
 7131TIP3    H242885   1.641   3.456  11.790 -0.1377  1.3382 -1.7420
 7132TIP3   OH242886   5.253   1.712  16.943  0.2814  0.1229 -0.3733
 7132TIP3    H142887   5.158   1.717  16.939  0.0501 -1.5022  1.5119
 7132TIP3    H242888   5.281   1.698  16.852 -1.4250 -1.0754 -0.7584
 7133TIP3   OH242889   2.606   4.405   1.348  0.0219 -0.3628  0.0406
 7133TIP3    H142890   2.561   4.321   1.344 -1.6792  0.5042 -0.1701
 7133TIP3    H242891   2.696   4.384   1.372 -0.2840 -2.2556 -0.3417
 7134TIP3   OH242892   0.156   5.315  16.384 -0.3495  0.2338  0.4347
 7134TIP3    H142893   0.072   5.356  16.362 -0.3738  1.1102  2.0162
 7134TIP3    H242894   0.204   5.313  16.301 -2.1457 -0.9031 -0.6625
 7135TIP3   OH242895   5.400   5.603   0.289  0.3917  0.4602  0.6444
 7135TIP3    H142896   5.369   5.650   0.211 -1.2154  0.0323  0.9872
 7135TIP3    H242897   5.490   5.633   0.301 -0.1642  2.4502  0.1009
 7136TIP3   OH242898   6.390   1.606   2.673 -0.0042  0.5900 -0.2268
 7136TIP3    H142899   6.304   1.611   2.715  1.2410 -1.2530  2.8566
 7136TIP3    H242900   6.394   1.517   2.637  1.3152 -0.1129  1.5292
 7137TIP3   OH242901   6.586   5.749  11.653 -0.1220  0.3281 -0.2850
 7137TIP3    H142902   6.669   5.702  11.663  0.2574  0.5623 -1.9493
 7137TIP3    H242903   6.539   5.702  11.584 -0.4390  1.4052 -0.8415
 7138TIP3   OH242904   4.319   5.001   5.654  0.1772 -0.2740 -0.0155
 7138TIP3    H142905   4.331   4.918   5.608  0.6546  0.1825 -0.7325
 7138TIP3    H242906   4.253   5.047   5.604  1.3655  0.6137 -0.8225
 7139TIP3   OH242907   4.374   1.137  15.194  0.1312 -0.2045 -0.1240
 7139TIP3    H142908   4.325   1.201  15.245 -0.0781 -0.6163  0.2026
 7139TIP3    H242909   4.446   1.186  15.155 -0.5105  0.4003 -0.5658
 7140TIP3   OH242910   5.256   0.138   1.661  0.0229 -0.2124  0.6181
 7140TIP3    H142911   5.168   0.135   1.698 -0.4898 -0.9528 -0.5732
 7140TIP3    H242912   5.313   0.157   1.735 -1.0518 -0.5572  1.5682
 7141TIP3   OH242913   3.462   6.054   2.265  0.0458 -0.4703 -0.2683
 7141TIP3    H142914   3.520   5.994   2.312  1.0869  1.1470  0.6163
 7141TIP3    H242915   3.468   6.137   2.313 -1.1245  0.4463 -1.5839
 7142TIP3   OH242916   5.248   3.393   2.097 -0.2800 -0.6861  0.6175
 7142TIP3    H142917   5.224   3.303   2.121  1.3269 -1.2127  0.4183
 7142TIP3    H242918   5.285   3.430   2.177 -0.8375 -0.2409  0.6677
 7143TIP3   OH242919   3.953   2.316   0.980  0.3992 -0.4165  0.0264
 7143TIP3    H142920   3.972   2.226   0.955  1.4277 -0.5751  1.2885
 7143TIP3    H242921   3.961   2.317   1.075  0.4661  1.0278  0.0242
 7144TIP3   OH242922   4.346   4.828  14.303 -0.5901  0.4018 -0.0300
 7144TIP3    H142923   4.372   4.857  14.215 -0.3637  1.4005  0.3627
 7144TIP3    H242924   4.401   4.751  14.319 -0.6660  0.1769 -0.7749
 7145TIP3   OH242925   1.046   3.224  13.787  0.4062 -0.3700 -0.0695
 7145TIP3    H142926   1.046   3.272  13.870 -0.2314 -0.2647 -0.1245
 7145TIP3    H242927   0.962   3.247  13.746  2.2824  2.7953 -2.5945
 7146TIP3   OH242928   6.489   6.545  12.269 -0.1131  0.2168  0.2477
 7146TIP3    H142929   6.409   6.515  12.226  0.5921 -2.0457  0.3705
 7146TIP3    H242930   6.488   6.502  12.354  0.4847  1.4257  0.8923
 7147TIP3   OH242931   5.756   1.203   4.152  0.5000  0.4715 -0.0007
 7147TIP3    H142932   5.798   1.277   4.109 -0.0639  0.2440 -0.9768
 7147TIP3    H242933   5.725   1.147   4.080 -1.1905  0.4896  0.6549
 7148TIP3   OH242934   5.867   2.255   5.481 -0.7805 -0.2180 -0.1220
 7148TIP3    H142935   5.867   2.272   5.387  0.8541  1.9001  0.1899
 7148TIP3    H242936   5.780   2.285   5.510 -0.2169  2.1102 -0.5707
 7149TIP3   OH242937   4.662   2.149   3.150  0.4430 -0.5322  0.2292
 7149TIP3    H142938   4.667   2.062   3.110 -1.4153 -0.4041 -0.3973
 7149TIP3    H242939   4.747   2.189   3.133  0.6585 -1.5268 -1.1853
 7150TIP3   OH242940   1.009   5.701   0.480 -0.2858 -0.4750  0.8346
 7150TIP3    H142941   0.971   5.653   0.407 -0.1250  1.2779 -0.4712
 7150TIP3    H242942   0.935   5.728   0.534 -1.2157  3.3202 -1.9311
 7151TIP3   OH242943   4.787   5.677  15.359 -0.2028  0.3726  0.1314
 7151TIP3    H142944   4.772   5.613  15.428  0.1841 -0.0900 -0.1995
 7151TIP3    H242945   4.821   5.625  15.286  0.5721  1.0161  0.0190
 7152TIP3   OH242946   3.359   3.352   0.506 -0.0298  0.1702  0.4428
 7152TIP3    H142947   3.323   3.371   0.592 -0.4698  1.4001 -0.0033
 7152TIP3    H242948   3.283   3.349   0.448  0.2287 -0.9835  0.1389
 7153TIP3   OH242949   4.166   1.221  13.538 -0.2064 -0.2833  0.1725
 7153TIP3    H142950   4.247   1.192  13.496 -1.2322 -1.4147 -1.1156
 7153TIP3    H242951   4.188   1.306  13.575  1.9564 -1.1523  1.0851
 7154TIP3   OH242952   5.709   4.676   5.766  0.3196 -0.7292  0.6330
 7154TIP3    H142953   5.774   4.741   5.792  0.6210 -1.2137  1.1283
 7154TIP3    H242954   5.754   4.592   5.776 -0.0648 -1.0146  0.0115
 7155TIP3   OH242955   2.721   3.386  16.428 -0.1741  0.6077  0.5274
 7155TIP3    H142956   2.657   3.315  16.421  2.8590 -2.2229 -1.8468
 7155TIP3    H242957   2.794   3.348  16.475  0.6911  3.0302  1.3031
 7156TIP3   OH242958   1.445   1.807  12.846  0.2382  0.6644  0.0856
 7156TIP3    H142959   1.514   1.862  12.883  0.5148 -0.1536  0.8089
 7156TIP3    H242960   1.427   1.742  12.913 -3.5924  2.7021  1.3697
 7157TIP3   OH242961   5.419   3.720  11.238 -0.6900  0.2658  0.5890
 7157TIP3    H142962   5.429   3.712  11.143  2.3063 -0.1269  0.8640
 7157TIP3    H242963   5.460   3.642  11.274 -0.7276  0.9688  2.2640
 7158TIP3   OH242964   2.375   5.107   4.973 -0.2377 -0.3815 -0.7235
 7158TIP3    H142965   2.385   5.088   5.067 -1.7648  2.4787  0.1358
 7158TIP3    H242966   2.440   5.051   4.930  4.4654  1.9805  2.4682
 7159TIP3   OH242967   3.825   1.314   5.417  0.2712 -0.5286 -0.0294
 7159TIP3    H142968   3.834   1.242   5.480 -0.3675 -0.5207  0.0705
 7159TIP3    H242969   3.740   1.353   5.436  0.3479 -0.1237 -0.4856
 7160TIP3   OH242970   5.131   2.472   1.715 -0.2407  0.4699 -0.1931
 7160TIP3    H142971   5.207   2.413   1.708 -0.3390  0.4244 -0.8875
 7160TIP3    H242972   5.129   2.496   1.808 -0.2885 -0.7415  0.1361
 7161TIP3   OH242973   1.795   4.745   5.708  0.3421  0.9696  0.2619
 7161TIP3    H142974   1.713   4.772   5.668  0.9032  2.1531 -0.1420
 7161TIP3    H242975   1.771   4.720   5.797 -0.6079  0.2566 -0.1722
 7162TIP3   OH242976   5.263   3.932   2.540 -0.5213  0.1265 -0.0496
 7162TIP3    H142977   5.210   3.935   2.620  1.5665 -2.1750  1.5744
 7162TIP3    H242978   5.248   3.844   2.505  1.4705 -0.2565 -0.0434
 7163TIP3   OH242979   6.449   5.872   1.437  0.1494  0.4527  0.1174
 7163TIP3    H142980   6.399   5.915   1.506  0.6422 -0.7441  1.2570
 7163TIP3    H242981   6.414   5.908   1.356 -2.5512 -0.2794  0.8503
 7164TIP3   OH242982   4.660   4.443  11.564 -0.3355 -0.1368 -0.9621
 7164TIP3    H142983   4.602   4.470  11.635 -0.0261  1.3023 -1.2153
 7164TIP3    H242984   4.745   4.481  11.586 -0.1218 -0.0482 -1.8722
 7165TIP3   OH242985   6.594   1.841   3.002  0.0254  0.2981 -0.3372
 7165TIP3    H142986   6.642   1.760   2.984  2.2025  1.2383  0.8300
 7165TIP3    H242987   6.658   1.910   2.985 -0.9929  1.6417  1.0532
 7166TIP3   OH242988   5.172   5.030   0.913  0.4030  0.1643 -0.0532
 7166TIP3    H142989   5.138   5.116   0.886 -1.7920  0.4208  2.9859
 7166TIP3    H242990   5.175   4.979   0.833  2.5905  3.2427 -2.1483
 7167TIP3   OH242991   5.558   3.567   2.054  0.3468 -0.0805 -0.2133
 7167TIP3    H142992   5.535   3.509   1.981 -0.0647 -1.2144  0.7789
 7167TIP3    H242993   5.474   3.606   2.080  0.0954 -1.4121  1.0694
 7168TIP3   OH242994   0.358   0.723  12.052  0.1995  0.3319 -0.1691
 7168TIP3    H142995   0.316   0.777  12.119  2.1474  0.3988  1.0493
 7168TIP3    H242996   0.301   0.646  12.045 -1.4301  1.4841 -0.3624
 7169TIP3   OH242997   2.933   5.568   3.527  0.1954 -0.4941  0.0388
 7169TIP3    H142998   2.966   5.577   3.617 -0.4065 -0.7529  0.2963
 7169TIP3    H242999   2.951   5.478   3.503  1.5504 -0.0700 -0.6051
 7170TIP3   OH243000   4.427   6.537  14.581 -0.2063  0.1360 -0.2708
 7170TIP3    H143001   4.389   6.592  14.512  0.7839 -0.0685 -1.0063
 7170TIP3    H243002   4.484   6.597  14.630 -0.5144  0.1668  0.0494
 7171TIP3   OH243003   5.321   0.919   1.068 -0.0004 -0.2930 -0.0696
 7171TIP3    H143004   5.331   0.977   0.992  0.9773  0.0225  0.2891
 7171TIP3    H243005   5.409   0.886   1.086 -0.0822  0.1569  1.3188
 7172TIP3   OH243006   2.611   4.228   4.047  0.6170 -0.0307 -0.3623
 7172TIP3    H143007   2.576   4.314   4.025  1.8912  0.4817 -0.4377
 7172TIP3    H243008   2.549   4.193   4.112  0.8628  1.5595  0.7961
 7173TIP3   OH243009   1.122   4.815  12.979 -0.0670  0.1442 -0.1300
 7173TIP3    H143010   1.069   4.762  13.038 -0.4694  0.1912 -0.4461
 7173TIP3    H243011   1.169   4.752  12.925 -0.5356  0.1024 -0.4961
 7174TIP3   OH243012   3.870   3.603   3.495  0.1856  0.3740 -0.0818
 7174TIP3    H143013   3.918   3.639   3.569 -3.0266  0.0342  2.3890
 7174TIP3    H243014   3.817   3.676   3.462  0.3686  0.1085 -1.0070
 7175TIP3   OH243015   4.836   0.845   1.446  0.0866 -0.3692 -0.4392
 7175TIP3    H143016   4.793   0.843   1.531  1.4913  0.1648  0.3079
 7175TIP3    H243017   4.802   0.923   1.403 -0.7473 -0.7288 -0.4480
 7176TIP3   OH243018   6.226   5.355   3.911  0.3361 -0.1080 -0.0875
 7176TIP3    H143019   6.245   5.387   3.823  0.1860  0.3715  0.0528
 7176TIP3    H243020   6.183   5.271   3.897  0.0135  0.1167 -0.4830
 7177TIP3   OH243021   6.207   0.501   3.998  0.1132 -0.0413 -0.6622
 7177TIP3    H143022   6.184   0.481   4.088 -0.3594  0.5660 -0.6382
 7177TIP3    H243023   6.126   0.486   3.949  0.3050 -0.1472 -0.9477
 7178TIP3   OH243024   2.386   0.040  15.809  0.0255 -0.3848  0.4947
 7178TIP3    H143025   2.428   0.067  15.728  0.5102  0.6721  1.0703
 7178TIP3    H243026   2.453  -0.009  15.856 -0.4618 -1.5714 -0.0050
 7179TIP3   OH243027   0.619   6.492   1.919  0.2594  0.1668  0.1696
 7179TIP3    H143028   0.624   6.556   1.848 -0.7895  0.5695  0.4336
 7179TIP3    H243029   0.549   6.432   1.893  1.0994 -0.7712  0.0217
 7180TIP3   OH243030   4.721   1.525   3.915 -0.0230 -0.5491 -0.2536
 7180TIP3    H143031   4.653   1.475   3.870 -0.2687  0.7513 -1.3779
 7180TIP3    H243032   4.704   1.616   3.892  0.3198  0.1162  1.8600
 7181TIP3   OH243033   3.702   4.986  17.031 -0.1218  0.2273 -0.2809
 7181TIP3    H143034   3.776   4.958  16.977 -1.0249 -0.0841 -1.4221
 7181TIP3    H243035   3.685   5.076  17.004  0.5784  0.7226  0.8566
 7182TIP3   OH243036   6.016   1.670  16.873 -0.0243  0.3126  0.0668
 7182TIP3    H143037   5.940   1.649  16.927 -3.2515  0.5507 -3.8363
 7182TIP3    H243038   6.074   1.595  16.881 -1.0458 -0.2946  2.5264
 7183TIP3   OH243039   1.119   3.481  16.857  0.0475 -0.7765 -0.2053
 7183TIP3    H143040   1.099   3.399  16.812 -0.2063 -0.8475  0.0363
 7183TIP3    H243041   1.037   3.531  16.854 -0.0223 -0.8527  0.3254
 7184TIP3   OH243042   0.631   2.470   1.829 -0.2876 -0.2808  0.2320
 7184TIP3    H143043   0.538   2.487   1.842 -0.2494  0.6967 -0.7422
 7184TIP3    H243044   0.645   2.478   1.735  0.5750 -1.5508  0.2216
 7185TIP3   OH243045   4.713   0.786   3.144 -0.6328  0.3715  0.1298
 7185TIP3    H143046   4.777   0.715   3.153 -0.8519  0.2368  0.6485
 7185TIP3    H243047   4.655   0.776   3.220 -1.3972  0.3663 -0.4436
 7186TIP3   OH243048   0.989   0.991   2.136 -0.7098  0.1297  0.1779
 7186TIP3    H143049   1.068   0.937   2.129 -0.0968  1.2020 -3.1316
 7186TIP3    H243050   1.017   1.069   2.183  1.2154  1.7820 -3.2741
 7187TIP3   OH243051   5.058   5.188   1.408 -0.2086 -0.1079  0.0413
 7187TIP3    H143052   5.151   5.183   1.432 -0.2350  2.2242  0.9322
 7187TIP3    H243053   5.029   5.097   1.405  1.8143 -0.8497  0.9626
 7188TIP3   OH243054   2.589   0.628   1.048  0.1330  0.0437  0.0093
 7188TIP3    H143055   2.542   0.613   0.966  0.0782 -0.3661  0.1095
 7188TIP3    H243056   2.682   0.623   1.025  0.1174 -0.0476 -0.0329
 7189TIP3   OH243057   1.164   2.906  13.338 -0.7554  0.0328 -0.0569
 7189TIP3    H143058   1.073   2.878  13.323 -0.6860  0.0764 -0.5821
 7189TIP3    H243059   1.173   2.909  13.433 -1.3154  0.0588 -0.0013
 7190TIP3   OH243060   1.061   0.073   0.183 -0.5166 -0.0103 -0.7648
 7190TIP3    H143061   1.107   0.085   0.266 -0.9305  2.2015 -0.8078
 7190TIP3    H243062   1.039  -0.020   0.182  2.5650 -0.8583 -0.0447
 7191TIP3   OH243063   2.093   5.239   5.412 -0.2247 -0.0567 -0.1003
 7191TIP3    H143064   2.122   5.259   5.323 -0.7864  1.6721  0.0717
 7191TIP3    H243065   2.126   5.311   5.465  2.4565 -2.3559  1.6694
 7192TIP3   OH243066   0.402   3.963   3.686 -0.1809 -0.3624 -0.0965
 7192TIP3    H143067   0.344   3.910   3.631 -1.1094 -0.2630  0.7459
 7192TIP3    H243068   0.490   3.934   3.663 -0.5509 -0.4876 -1.4442
 7193TIP3   OH243069   1.566   5.490   3.668  0.7321 -0.0659 -0.0556
 7193TIP3    H143070   1.547   5.571   3.621  2.1946  1.0374  1.1502
 7193TIP3    H243071   1.589   5.427   3.600  0.7319  0.8707 -0.9405
 7194TIP3   OH243072   1.170   1.186   5.215 -0.1570  0.2307 -0.1083
 7194TIP3    H143073   1.082   1.178   5.251 -1.3516 -2.8945 -3.2187
 7194TIP3    H243074   1.162   1.247   5.142  0.4414  0.4619  0.0089
 7195TIP3   OH243075   1.834   6.127   3.938 -0.2495  0.3869  0.1373
 7195TIP3    H143076   1.839   6.080   3.855 -0.0473 -0.2569  0.5025
 7195TIP3    H243077   1.810   6.060   4.002 -0.3341  0.8576  0.6086
 7196TIP3   OH243078   4.187   5.851   3.342  0.2986  0.3148  0.0678
 7196TIP3    H143079   4.155   5.912   3.409  0.9757  0.5345  0.1973
 7196TIP3    H243080   4.172   5.764   3.380  0.3739  0.4295  0.3657
 7197TIP3   OH243081   5.098   5.287  16.883 -0.0521  0.5789 -0.2993
 7197TIP3    H143082   5.190   5.310  16.896 -0.1715  0.5504  0.6937
 7197TIP3    H243083   5.100   5.201  16.841  0.3926 -0.0039  0.8650
 7198TIP3   OH243084   1.687   1.150  14.886 -0.0300 -0.2090  0.4123
 7198TIP3    H143085   1.694   1.055  14.889 -0.0338 -0.2214 -0.0060
 7198TIP3    H243086   1.764   1.179  14.838 -1.3240 -0.1703 -1.7444
 7199TIP3   OH243087   3.595   3.308  15.378  0.6554  0.2351  0.4742
 7199TIP3    H143088   3.623   3.227  15.335 -0.0971 -0.2310  0.8333
 7199TIP3    H243089   3.516   3.334  15.331  0.7270  0.5989  0.5512
 7200TIP3   OH243090   6.516   4.846   5.204 -0.3884  0.5911 -0.3246
 7200TIP3    H143091   6.580   4.836   5.134  1.1505  3.6504  0.4805
 7200TIP3    H243092   6.463   4.921   5.179 -2.3263 -0.5613  0.0786
 7201TIP3   OH243093   4.327   0.395   2.001 -0.6911 -0.2765 -0.0754
 7201TIP3    H143094   4.317   0.444   1.919 -1.2587 -0.9947 -0.4503
 7201TIP3    H243095   4.418   0.366   2.000 -0.4841  0.3622 -0.0819
 7202TIP3   OH243096   1.679   2.641  12.211  0.1174  0.6398 -0.5426
 7202TIP3    H143097   1.683   2.715  12.273 -0.4727 -1.6518  2.4642
 7202TIP3    H243098   1.764   2.597  12.223 -1.5174 -2.2014  2.0443
 7203TIP3   OH243099   2.739   0.783  15.857 -0.5716 -0.0220  0.4990
 7203TIP3    H143100   2.667   0.847  15.853  0.1126  0.7899  0.8199
 7203TIP3    H243101   2.766   0.784  15.948  0.5986  0.5589  0.1727
 7204TIP3   OH243102   2.860   1.132  12.332  0.1915  0.8223 -0.1233
 7204TIP3    H143103   2.950   1.164  12.342  0.0095  2.7961 -3.3943
 7204TIP3    H243104   2.814   1.202  12.286 -2.5920 -0.8244 -0.0770
 7205TIP3   OH243105   4.208   2.066   1.966 -0.3225  0.4211 -0.0590
 7205TIP3    H143106   4.145   2.091   2.033  0.5756  3.0461 -0.0712
 7205TIP3    H243107   4.282   2.125   1.980  1.1839 -1.0264 -1.4716
 7206TIP3   OH243108   6.714   0.950   6.716  0.4112  0.2503 -0.0904
 7206TIP3    H143109   6.726   0.913   6.628  2.9113 -0.8242  0.6175
 7206TIP3    H243110   6.681   0.878   6.769  1.2985  0.1819  0.3856
 7207TIP3   OH243111   1.302   0.533  13.302 -0.7575  0.2247 -0.2366
 7207TIP3    H143112   1.280   0.441  13.311  1.3286 -0.4187 -0.9886
 7207TIP3    H243113   1.357   0.552  13.378  0.1315  0.3872 -0.9057
 7208TIP3   OH243114   3.476   2.935  17.399  0.8777  0.1716  0.0581
 7208TIP3    H143115   3.450   2.848  17.429 -2.3557 -0.2800 -3.3194
 7208TIP3    H243116   3.445   2.994  17.467  0.0332 -1.1172  0.8386
 7209TIP3   OH243117   2.298   2.170  16.968 -0.1682  0.4882  0.1781
 7209TIP3    H143118   2.228   2.200  16.910 -0.6493 -4.6756 -2.4011
 7209TIP3    H243119   2.252   2.131  17.043  0.0566 -0.3691 -0.1261
 7210TIP3   OH243120   4.132   0.301  13.463 -0.0084  0.1917 -0.2959
 7210TIP3    H143121   4.228   0.295  13.468  0.3309  2.6979 -1.8752
 7210TIP3    H243122   4.113   0.294  13.369 -0.9472  3.0488 -0.4274
 7211TIP3   OH243123   2.116   5.418  12.140  0.1526  0.3445  0.3144
 7211TIP3    H143124   2.034   5.405  12.188  0.2566  1.8879  0.9747
 7211TIP3    H243125   2.166   5.480  12.194  1.6067 -0.2949 -0.2487
 7212TIP3   OH243126   0.888   0.537  11.824  0.1983 -0.1563  0.0407
 7212TIP3    H143127   0.890   0.606  11.890  0.6431  1.5302 -1.6546
 7212TIP3    H243128   0.971   0.491  11.835 -0.7629 -1.5449  2.2256
 7213TIP3   OH243129   2.336   6.778   0.758  0.3117  0.4593 -0.3558
 7213TIP3    H143130   2.375   6.694   0.734 -0.5481 -0.0293 -0.0589
 7213TIP3    H243131   2.272   6.757   0.825 -1.6364  0.9995 -1.9487
 7214TIP3   OH243132   1.085   4.966   5.090  0.1560 -0.0280 -0.0891
 7214TIP3    H143133   1.178   4.973   5.069  0.0960 -1.4961 -0.9748
 7214TIP3    H243134   1.083   4.945   5.183  0.7619 -0.7997 -0.2429
 7215TIP3   OH243135   1.476   4.265   2.138 -0.4455 -0.3560 -0.3571
 7215TIP3    H143136   1.516   4.347   2.164  1.2391 -1.2662  0.0485
 7215TIP3    H243137   1.402   4.254   2.198  0.8242 -0.3439  1.2507
 7216TIP3   OH243138   1.014   6.326   2.329  0.6848  0.1465 -0.3810
 7216TIP3    H143139   1.050   6.312   2.241 -1.8024 -1.0895 -1.3011
 7216TIP3    H243140   0.923   6.354   2.314  0.0002 -0.6881  1.7977
 7217TIP3   OH243141   4.980   3.097   0.185 -0.1550  0.3322  0.0817
 7217TIP3    H143142   5.002   3.190   0.185 -0.1711  0.3425  0.9796
 7217TIP3    H243143   4.914   3.088   0.116  0.2480  0.8873 -0.3828
 7218TIP3   OH243144   2.830   4.118   2.530 -0.1058 -0.4132  0.2470
 7218TIP3    H143145   2.878   4.142   2.609  0.0292  0.2836 -0.0359
 7218TIP3    H243146   2.896   4.119   2.460 -0.4613  0.2291 -0.0871
 7219TIP3   OH243147   1.001   3.965   0.079  0.1823  0.1054 -0.0312
 7219TIP3    H143148   0.905   3.961   0.081  0.0919  1.2726 -0.8351
 7219TIP3    H243149   1.025   3.923  -0.003  0.2651  0.9604 -0.4527
 7220TIP3   OH243150   2.728   2.170  15.757 -0.1594  0.6666 -0.4090
 7220TIP3    H143151   2.674   2.248  15.747 -0.6793  0.2756 -0.6742
 7220TIP3    H243152   2.673   2.109  15.807  0.8293  1.0435  1.2184
 7221TIP3   OH243153   4.538   5.132   2.280 -0.1990  0.1349  0.8193
 7221TIP3    H143154   4.505   5.167   2.363 -1.2176  1.1749  0.0029
 7221TIP3    H243155   4.578   5.208   2.237  2.4116 -0.8567  1.3113
 7222TIP3   OH243156   5.599   1.940   4.507 -0.1983 -0.2946  0.1865
 7222TIP3    H143157   5.664   1.891   4.458 -0.1543 -0.6888  0.6315
 7222TIP3    H243158   5.540   1.975   4.440  0.5581  0.2090 -0.2301
 7223TIP3   OH243159   5.551   3.074  11.215 -0.3389  0.2836 -0.1209
 7223TIP3    H143160   5.517   3.024  11.289  1.9789 -2.2990 -0.6265
 7223TIP3    H243161   5.549   3.013  11.141  0.8876  1.5545 -1.2756
 7224TIP3   OH243162   4.046   1.868  12.862  0.1885  0.4233 -0.0071
 7224TIP3    H143163   4.025   1.824  12.945 -0.2527  0.7786  0.0758
 7224TIP3    H243164   4.141   1.874  12.862  0.5059 -2.7465 -1.1661
 7225TIP3   OH243165   4.822   0.015   4.523 -0.0850  0.5233  0.4545
 7225TIP3    H143166   4.816   0.057   4.438  0.2820  0.1868  0.2594
 7225TIP3    H243167   4.909   0.038   4.556  0.3567 -0.5384  0.0906
 7226TIP3   OH243168   4.917   0.288  11.927 -0.0827  0.4435 -0.3682
 7226TIP3    H143169   4.835   0.267  11.973 -0.1857  1.0280 -0.2806
 7226TIP3    H243170   4.902   0.256  11.837  1.1168 -3.2085  0.5491
 7227TIP3   OH243171   2.038   3.541  15.217  0.2787 -0.6650 -0.4742
 7227TIP3    H143172   2.018   3.488  15.294  3.4368 -1.4104 -0.0218
 7227TIP3    H243173   2.013   3.630  15.242  0.5635 -1.0095  1.1734
 7228TIP3   OH243174   3.061   3.763  15.668  0.1318 -0.4924 -0.3552
 7228TIP3    H143175   3.056   3.838  15.610  1.1739  0.4899  0.7662
 7228TIP3    H243176   3.100   3.797  15.749 -1.4636 -1.7608  1.0204
 7229TIP3   OH243177   5.635   1.062   3.956  0.4564  0.1372  0.3740
 7229TIP3    H143178   5.694   1.000   3.914 -1.6587 -2.0904  0.4700
 7229TIP3    H243179   5.597   1.112   3.883  0.8713  0.1186  0.1410
 7230TIP3   OH243180   3.147   1.126   2.025  0.1419 -0.0104 -0.2045
 7230TIP3    H143181   3.179   1.083   1.946  0.5469  1.3745 -0.8302
 7230TIP3    H243182   3.199   1.206   2.032 -0.9648  0.6810  0.5636
 7231TIP3   OH243183   0.928   2.973  15.625  0.1734 -0.0675  0.3078
 7231TIP3    H143184   0.869   2.902  15.653  0.5024 -1.3144 -1.9199
 7231TIP3    H243185   0.873   3.051  15.625 -0.6269 -0.6033  1.2653
 7232TIP3   OH243186   4.543   5.557   1.947 -0.2935  0.5830  0.0468
 7232TIP3    H143187   4.507   5.603   2.023 -2.7919 -1.6256  0.3625
 7232TIP3    H243188   4.470   5.553   1.885  1.0515  0.4724 -1.6168
 7233TIP3   OH243189   3.137   0.348  14.704  0.5645 -0.0700 -0.3051
 7233TIP3    H143190   3.232   0.337  14.704  0.5745 -0.5142  1.9069
 7233TIP3    H243191   3.113   0.350  14.612  2.7558  0.4519 -0.9243
 7234TIP3   OH243192   3.878   4.129  11.162 -0.0172  0.2331 -0.9407
 7234TIP3    H143193   3.824   4.206  11.183 -0.0018  0.4348 -1.5928
 7234TIP3    H243194   3.881   4.079  11.243  2.0381  2.1533  0.2994
 7235TIP3   OH243195   2.762   0.527   3.318 -0.0810  0.1178  0.0004
 7235TIP3    H143196   2.763   0.622   3.304  3.6132  0.2407  0.0166
 7235TIP3    H243197   2.718   0.516   3.402 -1.4788  1.6709 -0.4617
 7236TIP3   OH243198   6.308   6.062   2.304 -0.5354  0.6350 -0.2576
 7236TIP3    H143199   6.233   6.059   2.364 -1.0899  0.6239 -0.9304
 7236TIP3    H243200   6.317   6.155   2.282  0.0335  0.7109  0.2925
 7237TIP3   OH243201   5.162   3.322   4.828 -0.0953  0.7424 -0.1136
 7237TIP3    H143202   5.149   3.385   4.757  2.5780  0.6678 -0.7771
 7237TIP3    H243203   5.252   3.337   4.856 -0.2070 -1.1393  1.3829
 7238TIP3   OH243204   1.856   5.195   1.262  0.1320  0.5087 -0.6468
 7238TIP3    H143205   1.854   5.106   1.228  1.2771 -0.3663  1.3688
 7238TIP3    H243206   1.933   5.235   1.222  0.8421 -0.1485  0.0185
 7239TIP3   OH243207   1.990   4.979  13.726 -0.0078 -0.0968 -0.0750
 7239TIP3    H143208   2.018   5.029  13.803 -0.6976  0.3262 -0.0891
 7239TIP3    H243209   2.043   4.899  13.728 -1.0932 -0.8365  1.7441
 7240TIP3   OH243210   4.034   6.118   4.257  0.0848  0.0417 -0.7140
 7240TIP3    H143211   4.045   6.144   4.166  0.2762 -1.2815 -1.0886
 7240TIP3    H243212   4.106   6.162   4.303  0.2038  0.4288 -1.2595
 7241TIP3   OH243213   0.335   6.047  15.294 -0.3527 -0.0867  0.5822
 7241TIP3    H143214   0.268   5.999  15.343  0.0785 -0.6170  0.6601
 7241TIP3    H243215   0.344   5.998  15.212  1.5118 -1.3656  1.4610
 7242TIP3   OH243216   3.430   6.291  17.300 -0.1193  0.2810  0.2858
 7242TIP3    H143217   3.371   6.348  17.252 -0.6917 -0.8703 -0.4343
 7242TIP3    H243218   3.395   6.203  17.285  1.2629 -0.3447  0.6042
 7243TIP3   OH243219   0.680   1.140  11.695 -0.1115 -0.1099 -0.5652
 7243TIP3    H143220   0.684   1.159  11.602 -0.3319  0.4589 -0.4586
 7243TIP3    H243221   0.650   1.049  11.700  1.6275 -0.7445 -1.0922
 7244TIP3   OH243222   3.492   4.424  16.143 -0.0336  0.0453 -0.0888
 7244TIP3    H143223   3.514   4.475  16.221  1.9421 -0.6966 -0.1021
 7244TIP3    H243224   3.506   4.485  16.070 -1.2450  0.5430  0.0764
 7245TIP3   OH243225   1.005   1.172   1.189 -0.1218  0.7958  0.1821
 7245TIP3    H143226   1.050   1.256   1.185  0.5515  0.4472  0.3750
 7245TIP3    H243227   1.009   1.147   1.281 -2.4337  1.6753  0.6103
 7246TIP3   OH243228   3.885   4.048  14.985 -0.1800 -0.4816  1.1027
 7246TIP3    H143229   3.847   4.132  14.958  0.4744 -1.1192 -2.2593
 7246TIP3    H243230   3.811   3.989  14.993 -0.3767 -1.0366 -2.7646
 7247TIP3   OH243231   5.718   6.035  13.439  0.0411 -0.0541  0.0705
 7247TIP3    H143232   5.657   5.962  13.429  0.7347 -0.9591  1.9661
 7247TIP3    H243233   5.744   6.056  13.349  0.2971 -2.5643 -0.5351
 7248TIP3   OH243234   0.577   1.887   2.095 -0.1586 -0.0461 -0.9840
 7248TIP3    H143235   0.530   1.846   2.022 -0.4501  0.6694 -1.2085
 7248TIP3    H243236   0.627   1.815   2.134 -1.2504 -0.7816 -0.8822
 7249TIP3   OH243237   1.168   3.685   5.831 -0.7716 -0.4045 -0.4927
 7249TIP3    H143238   1.157   3.708   5.923 -2.4384 -2.8185  0.0110
 7249TIP3    H243239   1.260   3.706   5.813 -0.5324  0.6265  1.5346
 7250TIP3   OH243240   3.099   0.010  14.599  0.2572  0.4871 -0.0691
 7250TIP3    H143241   3.166   0.078  14.595  1.2011 -0.4105 -0.0170
 7250TIP3    H243242   3.048   0.031  14.677  1.1934  0.5543  0.5398
 7251TIP3   OH243243   1.429   3.082  15.857 -0.3873  0.5043 -0.6704
 7251TIP3    H143244   1.345   3.117  15.827 -0.4513  0.7655 -0.2060
 7251TIP3    H243245   1.483   3.160  15.874 -1.3166  0.6002  2.6695
 7252TIP3   OH243246   1.340   3.419   3.069  0.4590  0.1766 -0.1726
 7252TIP3    H143247   1.401   3.472   3.120  1.2676 -0.3338 -0.5940
 7252TIP3    H243248   1.323   3.342   3.123 -1.9285  1.5132  1.1376
 7253TIP3   OH243249   1.977   4.227  12.443  0.6394  0.8187 -0.6977
 7253TIP3    H143250   2.066   4.192  12.449 -0.6876 -2.6612  1.8903
 7253TIP3    H243251   1.956   4.254  12.533 -1.1598  0.7793 -1.0703
 7254TIP3   OH243252   2.387   2.963  14.639 -0.0664 -0.2121  0.2044
 7254TIP3    H143253   2.392   2.924  14.726  0.3718 -0.0071  0.2771
 7254TIP3    H243254   2.299   3.000  14.634  0.7041  1.9549  1.5193
 7255TIP3   OH243255   2.496   3.834  10.497  0.2407 -0.4896 -0.1606
 7255TIP3    H143256   2.500   3.886  10.578 -0.9076 -2.0306  0.9365
 7255TIP3    H243257   2.510   3.744  10.526  1.1884 -0.9325 -1.8924
 7256TIP3   OH243258   6.537   3.938  10.820 -0.2125 -0.1550  0.1247
 7256TIP3    H143259   6.588   3.864  10.787  0.5648  0.2442  0.4047
 7256TIP3    H243260   6.586   4.015  10.792 -0.6009  0.2308  0.4921
 7257TIP3   OH243261   0.444   6.267  16.108  0.4401  0.0937  0.4485
 7257TIP3    H143262   0.425   6.356  16.136  0.4031  0.4249 -0.5862
 7257TIP3    H243263   0.525   6.274  16.058  1.2104 -0.6908  1.5649
 7258TIP3   OH243264   6.742   0.590  17.396  0.5340 -0.5160  0.0713
 7258TIP3    H143265   6.686   0.602  17.473  0.9066 -0.2907  0.3129
 7258TIP3    H243266   6.796   0.513  17.418  1.3310  0.1290  0.4700
 7259TIP3   OH243267   3.174   1.276  13.448 -0.1695  0.1265  0.5046
 7259TIP3    H143268   3.131   1.329  13.514  0.9783  1.4415  0.2315
 7259TIP3    H243269   3.201   1.197  13.495  1.6485  1.5203  1.9441
 7260TIP3   OH243270   1.454   6.289  11.538  0.3611 -0.0594 -0.0057
 7260TIP3    H143271   1.428   6.231  11.610 -0.8520  3.5083  2.7710
 7260TIP3    H243272   1.549   6.280  11.533  0.1898 -2.4223  0.0892
 7261TIP3   OH243273   2.149   3.259   1.618 -0.2203 -0.7311  0.2761
 7261TIP3    H143274   2.214   3.208   1.667  0.0025  0.1737  0.9563
 7261TIP3    H243275   2.201   3.320   1.566 -0.4659 -1.4794 -0.9022
 7262TIP3   OH243276   4.950   2.818  14.376 -0.3564 -0.0683  0.1855
 7262TIP3    H143277   4.871   2.817  14.322 -1.0331 -0.5611  1.1567
 7262TIP3    H243278   4.918   2.819  14.466  0.7504  0.2570  0.5916
 7263TIP3   OH243279   4.637   5.082   4.895 -0.2943  0.2872  0.3535
 7263TIP3    H143280   4.676   5.156   4.849  1.2998 -0.2506  0.7597
 7263TIP3    H243281   4.618   5.018   4.827 -1.4393  0.9324  0.0338
 7264TIP3   OH243282   2.639   2.444  11.648  0.0603  0.3327 -0.0139
 7264TIP3    H143283   2.616   2.536  11.661 -0.3902  0.0946  1.0038
 7264TIP3    H243284   2.600   2.421  11.563  0.5805  1.1962 -0.4967
 7265TIP3   OH243285   1.284   5.016   0.201 -0.0219 -0.0326  1.2549
 7265TIP3    H143286   1.315   5.104   0.181 -0.2246  0.1324  1.6685
 7265TIP3    H243287   1.189   5.022   0.192 -0.2002  0.2516  3.0445
 7266TIP3   OH243288   4.485   2.360   6.261 -0.1422  0.1382 -0.4747
 7266TIP3    H143289   4.447   2.275   6.283 -1.6460  0.7170 -0.7689
 7266TIP3    H243290   4.413   2.422   6.269  0.8880  1.3752 -0.4452
 7267TIP3   OH243291   0.967   5.278  16.306  0.7505 -0.2455  0.1097
 7267TIP3    H143292   1.024   5.206  16.278 -1.2465 -1.4426 -1.0298
 7267TIP3    H243293   0.953   5.261  16.400 -0.9823 -2.3580 -0.4500
 7268TIP3   OH243294   5.230   5.893  14.697 -0.0058  0.1521  0.0275
 7268TIP3    H143295   5.220   5.978  14.740 -0.7960  0.8134 -1.3773
 7268TIP3    H243296   5.142   5.855  14.698  0.7259 -1.6829  2.5779
 7269TIP3   OH243297   4.657   2.597  16.746  0.1919 -0.3985  0.5622
 7269TIP3    H143298   4.627   2.665  16.685  0.4514 -0.5198  0.2961
 7269TIP3    H243299   4.594   2.525  16.734 -0.3575 -0.0358  1.1801
 7270TIP3   OH243300   2.728   2.308   4.721 -0.0522  0.2276 -0.9211
 7270TIP3    H143301   2.655   2.324   4.781 -0.8897 -1.1657 -1.5085
 7270TIP3    H243302   2.802   2.353   4.761 -0.3089 -1.4649  1.7621
 7271TIP3   OH243303   4.008   1.266   1.501 -0.2384  0.6462 -0.1673
 7271TIP3    H143304   4.056   1.246   1.421 -0.6964  0.3142 -0.3641
 7271TIP3    H243305   3.924   1.302   1.471 -0.9519 -0.7019  0.1196
 7272TIP3   OH243306   0.325   1.464  14.785  0.3748  0.1395 -0.2403
 7272TIP3    H143307   0.259   1.533  14.795 -1.5983 -1.3303 -2.3879
 7272TIP3    H243308   0.288   1.403  14.721  3.4517 -1.2402 -0.8921
 7273TIP3   OH243309   1.251   5.100  14.348 -0.3255 -0.1577  0.1908
 7273TIP3    H143310   1.288   5.185  14.324 -0.5530 -0.4395 -1.2419
 7273TIP3    H243311   1.174   5.091  14.292  0.0917 -1.6094 -0.1788
 7274TIP3   OH243312   4.141   5.281   0.230 -0.0264 -0.4559  0.5246
 7274TIP3    H143313   4.138   5.192   0.194 -0.6133 -0.1463 -0.2277
 7274TIP3    H243314   4.122   5.269   0.323  0.8800 -1.2116  0.6301
 7275TIP3   OH243315   0.220   6.784   5.180  0.4203  0.6275  0.2482
 7275TIP3    H143316   0.310   6.758   5.201 -0.3816 -0.5210  2.5357
 7275TIP3    H243317   0.227   6.876   5.156  2.4961 -0.0031 -1.9805
 7276TIP3   OH243318   5.457   1.496  13.698 -0.0810 -0.1694  0.0686
 7276TIP3    H143319   5.474   1.568  13.759 -0.5757 -0.4745  0.5763
 7276TIP3    H243320   5.536   1.442  13.702  1.1419  1.3634 -1.8027
 7277TIP3   OH243321   3.892   2.441   6.494 -0.0637  0.5465  0.0774
 7277TIP3    H143322   3.947   2.518   6.483  1.0652  0.0917  2.0919
 7277TIP3    H243323   3.949   2.376   6.535 -1.1368 -1.1982 -1.0572
 7278TIP3   OH243324   2.840   0.096   2.468 -0.7131 -0.2663 -0.1893
 7278TIP3    H143325   2.784   0.074   2.543 -0.3836  0.3679  0.2591
 7278TIP3    H243326   2.882   0.013   2.444 -1.7320 -0.7225 -0.4474
 7279TIP3   OH243327   4.825   2.103   6.151  0.2531 -0.3019 -0.1208
 7279TIP3    H143328   4.864   2.126   6.067 -1.6774  1.0027 -0.7267
 7279TIP3    H243329   4.816   2.187   6.197  0.2202 -0.8563  0.9126
 7280TIP3   OH243330   6.324   5.361  15.992 -0.7001 -0.6027  0.3797
 7280TIP3    H143331   6.397   5.348  16.053 -0.9206 -1.4282  0.4794
 7280TIP3    H243332   6.284   5.274  15.983 -0.6844 -0.4921 -0.9350
 7281TIP3   OH243333   0.281   6.543  16.455  0.0169 -0.4598  0.4320
 7281TIP3    H143334   0.268   6.503  16.369  1.0789 -0.9156  0.4702
 7281TIP3    H243335   0.291   6.637  16.435 -1.3047 -0.3315  0.2344
 7282TIP3   OH243336   6.023   3.776  13.325 -0.3986 -0.8063 -0.5454
 7282TIP3    H143337   6.031   3.867  13.297 -1.6076  0.1536  1.9412
 7282TIP3    H243338   6.017   3.727  13.243  1.2968  1.1831 -1.9948
 7283TIP3   OH243339   3.342   6.608   1.792 -0.4726  0.1357 -0.2979
 7283TIP3    H143340   3.251   6.627   1.769 -0.1472  1.9145 -0.2372
 7283TIP3    H243341   3.387   6.601   1.709 -0.6331 -0.6808 -0.3262
 7284TIP3   OH243342   4.078   1.580  11.368  0.2844  0.4320  0.6275
 7284TIP3    H143343   4.017   1.598  11.296  0.7198  0.8895  0.3697
 7284TIP3    H243344   4.030   1.606  11.447  0.0754  0.6039  0.4453
 7285TIP3   OH243345   0.268   0.060   1.281 -0.0984  0.0691 -0.6045
 7285TIP3    H143346   0.289   0.139   1.332 -0.0548  0.7727 -1.6885
 7285TIP3    H243347   0.304   0.077   1.194  0.2389 -1.3147 -0.7597
 7286TIP3   OH243348   4.164   0.707  13.981  0.7669  0.2758  0.2366
 7286TIP3    H143349   4.161   0.763  14.059 -0.6205 -2.9197  2.7232
 7286TIP3    H243350   4.072   0.687  13.963  1.2143 -2.8504  0.8898
 7287TIP3   OH243351   0.485   0.873   0.728  0.5383 -1.1154 -0.5199
 7287TIP3    H143352   0.415   0.896   0.789  0.9796 -0.6164 -0.1845
 7287TIP3    H243353   0.520   0.958   0.698  0.4258 -1.3594 -1.3510
 7288TIP3   OH243354   5.294   1.273   0.563 -0.1278 -0.3515 -0.4554
 7288TIP3    H143355   5.209   1.276   0.606 -0.6638 -0.0466 -1.5087
 7288TIP3    H243356   5.342   1.205   0.610 -0.3311  0.6219  1.2481
 7289TIP3   OH243357   1.513   4.646  14.278 -0.0987  0.3319  0.5869
 7289TIP3    H143358   1.450   4.700  14.326  0.8277  1.7842  0.2311
 7289TIP3    H243359   1.548   4.705  14.211  2.3409 -0.1265  1.3627
 7290TIP3   OH243360   6.173   4.958  17.051  0.4040  0.3729 -0.4637
 7290TIP3    H143361   6.224   5.030  17.088 -1.5793  2.8311 -2.1814
 7290TIP3    H243362   6.233   4.917  16.988  0.6948  2.4539 -1.6152
 7291TIP3   OH243363   3.190   1.760   0.092 -0.0528 -0.4540  0.7372
 7291TIP3    H143364   3.267   1.706   0.076  0.2891  0.2919 -0.2683
 7291TIP3    H243365   3.116   1.700   0.085  0.4022 -1.0885  1.2664
 7292TIP3   OH243366   1.197   6.705   4.463 -0.1723 -0.3283 -0.5890
 7292TIP3    H143367   1.149   6.623   4.469  0.3503 -0.6566 -0.8517
 7292TIP3    H243368   1.156   6.762   4.529 -0.8478 -0.6339 -0.7429
 7293TIP3   OH243369   5.091   5.966  15.227 -0.1274  0.8218 -0.1130
 7293TIP3    H143370   5.001   5.956  15.196  0.1855 -2.0345 -0.2760
 7293TIP3    H243371   5.082   5.970  15.323 -0.4460  1.2388 -0.1536
 7294TIP3   OH243372   1.206   0.334   5.856 -0.0571  0.1811  0.0113
 7294TIP3    H143373   1.203   0.430   5.862  2.3378  0.4630 -1.9473
 7294TIP3    H243374   1.272   0.309   5.921 -0.9785 -0.2124  0.8138
 7295TIP3   OH243375   6.412   3.438  13.281  0.0748 -0.2769 -0.1078
 7295TIP3    H143376   6.370   3.352  13.290  0.3454 -0.3464  0.5734
 7295TIP3    H243377   6.366   3.494  13.343  0.5356 -0.1842  0.1548
 7296TIP3   OH243378   5.279   5.460   1.089 -0.5499  0.0666  0.2119
 7296TIP3    H143379   5.236   5.545   1.100 -0.3774  0.2235 -0.3246
 7296TIP3    H243380   5.349   5.476   1.026  0.4977 -0.1174  1.2841
 7297TIP3   OH243381   4.262   1.980   3.550  0.5690 -0.2754  0.1921
 7297TIP3    H143382   4.170   2.006   3.540  0.9029  0.6120 -0.7841
 7297TIP3    H243383   4.309   2.034   3.486  2.0537  0.8812  2.1458
 7298TIP3   OH243384   5.774   0.595  13.229 -0.2081 -0.3814  0.4075
 7298TIP3    H143385   5.692   0.605  13.277  1.4122  2.0268  3.0118
 7298TIP3    H243386   5.801   0.504  13.245 -1.7020 -0.8154  0.5918
 7299TIP3   OH243387   4.621   5.380   2.231  0.0274 -0.5394 -0.0981
 7299TIP3    H143388   4.546   5.420   2.275 -0.8895  0.2102 -2.2544
 7299TIP3    H243389   4.696   5.431   2.263 -0.5341 -0.3510  0.9678
 7300TIP3   OH243390   2.021   6.386   5.291 -0.4573 -0.1881 -0.1558
 7300TIP3    H143391   2.061   6.421   5.370  1.1626  0.3083 -1.1435
 7300TIP3    H243392   1.934   6.357   5.318 -0.0589  0.2711  1.7118
 7301TIP3   OH243393   3.770   2.148   1.399 -0.4932  0.2787  0.1334
 7301TIP3    H143394   3.702   2.130   1.464 -0.4183  1.6836  0.6351
 7301TIP3    H243395   3.809   2.062   1.381 -2.5965 -0.5958 -0.4230
 7302TIP3   OH243396   1.266   6.150  15.606 -0.1174 -0.0738  0.0949
 7302TIP3    H143397   1.327   6.101  15.662  0.2767 -0.9845 -1.0894
 7302TIP3    H243398   1.305   6.237  15.598  1.5056 -0.8652 -1.2935
 7303TIP3   OH243399   6.583   5.799  16.039 -0.0275  0.4837  0.1872
 7303TIP3    H143400   6.538   5.798  16.124  0.2225  0.0517  0.3146
 7303TIP3    H243401   6.657   5.858  16.053 -0.6449  1.3438 -0.0749
 7304TIP3   OH243402   3.894   0.768   5.706 -0.0316 -0.4465 -0.7462
 7304TIP3    H143403   3.886   0.822   5.628  0.0117 -1.0092 -1.1489
 7304TIP3    H243404   3.818   0.791   5.759  0.7224  1.0196 -0.2617
 7305TIP3   OH243405   4.836   3.164  17.346 -0.2885  0.4219 -0.3264
 7305TIP3    H143406   4.766   3.117  17.300  0.0844 -0.5141  0.0233
 7305TIP3    H243407   4.913   3.150  17.291  0.0418 -0.2489  0.2871
 7306TIP3   OH243408   1.376   1.208  17.415  0.2633 -0.1879  0.2140
 7306TIP3    H143409   1.320   1.280  17.445 -1.4946 -1.2463 -0.3450
 7306TIP3    H243410   1.436   1.248  17.352 -0.4536  0.8370  0.1603
 7307TIP3   OH243411   0.004   4.717  12.765  0.1091  0.4700  0.0253
 7307TIP3    H143412   0.015   4.747  12.856  0.9473  0.6922 -0.1379
 7307TIP3    H243413   0.013   4.797  12.713  2.2683  0.0133 -0.4133
 7308TIP3   OH243414   4.323   6.300   5.229  0.1328  0.3401  0.2855
 7308TIP3    H143415   4.358   6.375   5.181 -0.1559  1.4279  1.6788
 7308TIP3    H243416   4.252   6.337   5.282 -4.6093 -2.0036 -3.6393
 7309TIP3   OH243417   1.537   6.719   1.002  0.2084  0.7394 -0.8723
 7309TIP3    H143418   1.585   6.689   1.079  0.5547  1.7778 -0.6629
 7309TIP3    H243419   1.488   6.796   1.032 -0.5499  0.4851 -1.4120
 7310TIP3   OH243420   0.249   3.149   2.964  0.6219 -0.0600 -0.2640
 7310TIP3    H143421   0.328   3.182   3.007 -0.2604  0.6784  0.8580
 7310TIP3    H243422   0.188   3.133   3.036 -0.1618 -0.8709 -1.0857
 7311TIP3   OH243423   2.034   6.404  17.251  0.1289  0.1632 -0.3846
 7311TIP3    H143424   2.008   6.328  17.198 -0.0653 -0.0690  0.0385
 7311TIP3    H243425   2.100   6.449  17.198  1.1250 -0.9560 -0.1408
 7312TIP3   OH243426   0.678   0.455   6.546 -0.4771  0.1207  1.3369
 7312TIP3    H143427   0.754   0.414   6.587 -1.3881 -3.3437 -0.0976
 7312TIP3    H243428   0.605   0.433   6.604 -0.8001  1.1566  1.3481
 7313TIP3   OH243429   5.309   5.499   5.288 -0.1107 -0.0662  0.1478
 7313TIP3    H143430   5.248   5.551   5.340  0.6909  0.2851  0.7676
 7313TIP3    H243431   5.375   5.469   5.351  1.4857  1.2491 -0.8018
 7314TIP3   OH243432   5.621   4.060  16.643 -0.0801 -0.0174  0.0264
 7314TIP3    H143433   5.704   4.012  16.639  0.4301  0.9255 -1.9677
 7314TIP3    H243434   5.563   4.004  16.694  1.3243 -1.4204  0.1609
 7315TIP3   OH243435   5.873   5.376  10.954  0.1215 -0.4501 -0.1970
 7315TIP3    H143436   5.893   5.469  10.942 -0.2963 -0.4966 -1.4416
 7315TIP3    H243437   5.798   5.361  10.897 -1.1920 -1.0869  1.6439
 7316TIP3   OH243438   2.145   4.121   0.003  0.3685  0.3054  0.0680
 7316TIP3    H143439   2.192   4.166  -0.067 -1.5452  1.5500 -0.4512
 7316TIP3    H243440   2.157   4.176   0.080 -0.7305  0.9605 -0.2149
 7317TIP3   OH243441   1.322   2.740  12.761  0.8058 -0.0979 -0.1621
 7317TIP3    H143442   1.393   2.680  12.783  0.6171  0.0594  0.9351
 7317TIP3    H243443   1.280   2.760  12.845 -3.5825 -3.9016 -1.0330
 7318TIP3   OH243444   5.221   3.861  13.074  0.1642 -0.6879  0.0224
 7318TIP3    H143445   5.218   3.864  12.978  0.3072  0.1564  0.0432
 7318TIP3    H243446   5.132   3.883  13.101  0.1225 -0.9333  0.0925
 7319TIP3   OH243447   1.281   2.293   4.876  0.4820  0.2336 -0.0254
 7319TIP3    H143448   1.231   2.212   4.886  2.1165 -0.7425  0.5086
 7319TIP3    H243449   1.228   2.346   4.815  0.3377 -2.0396 -2.0215
 7320TIP3   OH243450   3.236   4.888  16.282 -0.2245 -0.4316 -0.5098
 7320TIP3    H143451   3.173   4.959  16.268 -1.6875 -1.4063  0.8566
 7320TIP3    H243452   3.266   4.866  16.194  0.2753  1.8298 -0.9831
 7321TIP3   OH243453   4.224   4.828  16.802  0.1883 -0.4945 -0.2748
 7321TIP3    H143454   4.199   4.821  16.709  0.1479 -3.8108 -0.1408
 7321TIP3    H243455   4.146   4.802  16.849  0.6293 -0.1745  0.6448
 7322TIP3   OH243456   3.159   2.002  11.726  0.0417  0.0431 -0.2727
 7322TIP3    H143457   3.203   2.029  11.807  0.7881 -2.2658  0.1623
 7322TIP3    H243458   3.230   1.993  11.662 -0.2172 -0.5643 -0.4799
 7323TIP3   OH243459   0.550   5.452   0.401  0.8852 -0.5259 -0.6767
 7323TIP3    H143460   0.456   5.448   0.421  1.0469 -0.6459  0.0912
 7323TIP3    H243461   0.563   5.387   0.332  0.5796 -1.2705 -0.0472
 7324TIP3   OH243462   3.119   5.320  13.025  0.8127 -0.7032  0.1465
 7324TIP3    H143463   3.175   5.367  12.963 -1.1400  2.2986  0.4280
 7324TIP3    H243464   3.171   5.314  13.105  1.4411  0.2520 -0.1737
 7325TIP3   OH243465   4.012   4.939  11.213  0.5235 -0.1741  0.4581
 7325TIP3    H143466   3.966   4.861  11.183  1.6276 -1.1816  1.2917
 7325TIP3    H243467   3.943   5.003  11.230 -0.4553 -1.2088  0.4567
 7326TIP3   OH243468   2.059   5.281  11.200 -0.0405 -0.5074  0.1277
 7326TIP3    H143469   2.026   5.270  11.111 -1.1591  0.0011  0.4636
 7326TIP3    H243470   2.154   5.294  11.189  0.0893 -2.0686 -0.8451
 7327TIP3   OH243471   5.633   3.879  11.883  0.4858 -0.9285 -0.1459
 7327TIP3    H143472   5.589   3.845  11.961 -1.9133 -1.2168 -1.5063
 7327TIP3    H243473   5.687   3.806  11.853  0.3082 -1.3164  0.4604
 7328TIP3   OH243474   2.419   2.975   2.422  0.0971  0.3739  0.4840
 7328TIP3    H143475   2.343   2.985   2.479 -0.8124  0.0311 -0.6524
 7328TIP3    H243476   2.439   3.064   2.394 -0.6952  0.3315 -0.2429
 7329TIP3   OH243477   2.905   5.469  11.264 -0.2176  0.0830 -0.8665
 7329TIP3    H143478   2.832   5.421  11.226  0.5699 -1.4292 -0.5465
 7329TIP3    H243479   2.872   5.500  11.349 -0.9549  0.7640 -1.3820
 7330TIP3   OH243480   6.662   0.405  15.861  0.2672  0.1104 -0.3727
 7330TIP3    H143481   6.599   0.433  15.795  0.4510 -0.9689 -1.0347
 7330TIP3    H243482   6.744   0.448  15.835  0.2484 -0.0025 -0.6263
 7331TIP3   OH243483   0.796   3.189   5.122  0.0039  0.1895  0.3766
 7331TIP3    H143484   0.859   3.201   5.051  0.6269  1.9596  1.1628
 7331TIP3    H243485   0.847   3.149   5.193 -0.3711 -0.6448  0.1833
 7332TIP3   OH243486   4.835   3.434  17.406  0.0975  0.0187  0.3977
 7332TIP3    H143487   4.823   3.345  17.373  0.1149  0.0176  0.3939
 7332TIP3    H243488   4.924   3.434  17.442 -1.0042 -0.9649  3.4735
 7333TIP3   OH243489   2.652   0.982  16.313 -0.2158  0.4141  0.1738
 7333TIP3    H143490   2.708   0.923  16.363  0.1636  1.7716  1.4051
 7333TIP3    H243491   2.710   1.052  16.284 -1.1892  1.7047  1.2430
 7334TIP3   OH243492   2.480   0.170  11.597  0.0175  0.1440  0.4769
 7334TIP3    H143493   2.508   0.079  11.609  2.5700  1.1770  3.8568
 7334TIP3    H243494   2.386   0.169  11.614 -0.2381 -1.9402 -0.6671
 7335TIP3   OH243495   0.450   6.797   5.631  0.3681  0.2331 -0.2626
 7335TIP3    H143496   0.438   6.703   5.643  1.2714  0.0364 -0.8185
 7335TIP3    H243497   0.487   6.827   5.714  0.4260  0.0314 -0.2156
 7336TIP3   OH243498   2.282   4.696  12.566  0.1935  0.0341  0.3766
 7336TIP3    H143499   2.342   4.722  12.496  3.2565 -1.4235  2.2734
 7336TIP3    H243500   2.211   4.651  12.520  2.2957 -1.2583 -1.8538
 7337TIP3   OH243501   5.235   5.857   2.017 -0.4050 -0.3503 -0.0307
 7337TIP3    H143502   5.163   5.816   2.066 -0.1620 -3.0550 -1.7080
 7337TIP3    H243503   5.234   5.949   2.045 -2.6474 -0.9152  2.1320
 7338TIP3   OH243504   2.107   6.107  16.412 -0.0141  0.0842  0.3646
 7338TIP3    H143505   2.077   6.052  16.484  0.4664 -0.5672  0.0761
 7338TIP3    H243506   2.088   6.057  16.333  0.8071  0.1359  0.1191
 7339TIP3   OH243507   4.024   2.307  15.309  0.7413  0.1430 -0.6536
 7339TIP3    H143508   3.932   2.291  15.328  0.2353  2.2581 -1.0818
 7339TIP3    H243509   4.071   2.242  15.361 -0.9681 -0.7848 -0.2009
 7340TIP3   OH243510   0.602   1.776  17.189 -0.4791 -0.3319 -0.1600
 7340TIP3    H143511   0.619   1.711  17.121  0.2590 -1.0366  0.6731
 7340TIP3    H243512   0.507   1.775  17.200 -0.4840 -1.2794 -0.1618
 7341TIP3   OH243513   6.048   5.716  13.607  0.5184 -0.5150 -0.2993
 7341TIP3    H143514   6.134   5.704  13.647  1.0368  0.6670 -0.9877
 7341TIP3    H243515   6.016   5.799  13.642  0.5705  0.0726 -1.5733
 7342TIP3   OH243516   4.956   2.853   6.045  0.2819  0.4928  0.3915
 7342TIP3    H143517   4.930   2.769   6.007  0.5477  0.3660  0.4929
 7342TIP3    H243518   4.873   2.894   6.072  0.2268 -0.2310  1.3769
 7343TIP3   OH243519   6.576   4.200   1.502  0.2783  0.6000 -0.0064
 7343TIP3    H143520   6.599   4.286   1.467 -0.9844  0.7772 -0.4720
 7343TIP3    H243521   6.642   4.182   1.569  0.7314  1.7932 -0.1153
 7344TIP3   OH243522   1.222   1.642   3.594  0.5462 -0.4665 -0.2736
 7344TIP3    H143523   1.308   1.604   3.577  0.4238 -0.1781 -1.6918
 7344TIP3    H243524   1.167   1.567   3.617  1.1418 -0.6607  0.5782
 7345TIP3   OH243525   0.560   6.438   2.464 -0.9994 -0.8405  0.2709
 7345TIP3    H143526   0.525   6.512   2.513  1.2927 -0.1355  0.9489
 7345TIP3    H243527   0.540   6.361   2.518 -1.7119 -0.5093  0.4902
 7346TIP3   OH243528   6.005   1.279  14.545 -0.2917 -0.5137  0.4256
 7346TIP3    H143529   5.935   1.214  14.539 -2.4154  1.6296  0.3031
 7346TIP3    H243530   6.043   1.264  14.632 -1.3243 -1.3508  0.7711
 7347TIP3   OH243531   1.799   2.614  13.107 -0.5206  0.1511 -0.0566
 7347TIP3    H143532   1.743   2.668  13.051 -1.2027 -1.0633 -0.5839
 7347TIP3    H243533   1.797   2.528  13.066  2.8997  0.3323 -0.9609
 7348TIP3   OH243534   4.894   2.367   4.787  0.3737  0.8045 -0.0864
 7348TIP3    H143535   4.969   2.369   4.846 -0.2510  0.5900  0.7384
 7348TIP3    H243536   4.857   2.455   4.793  1.2776  1.3078 -1.4709
 7349TIP3   OH243537   5.769   5.410   0.530  0.3808  0.4259  0.0634
 7349TIP3    H143538   5.797   5.374   0.446  0.2503 -2.0859  1.0235
 7349TIP3    H243539   5.844   5.396   0.589  0.3045  1.7341  0.5213
 7350TIP3   OH243540   3.085   5.011  14.154  0.1630 -0.1401 -0.6959
 7350TIP3    H143541   3.141   5.081  14.187 -0.3866 -0.0776  0.1194
 7350TIP3    H243542   3.010   5.057  14.115 -1.4751 -0.2493  2.0810
 7351TIP3   OH243543   5.935   4.121   5.048 -0.5620 -0.5188 -0.0479
 7351TIP3    H143544   5.870   4.131   5.118  0.2936  2.7301  0.4619
 7351TIP3    H243545   5.915   4.192   4.987  2.1126  0.2524 -0.1489
 7352TIP3   OH243546   3.676   0.633   3.120 -0.2530 -0.2647  0.1411
 7352TIP3    H143547   3.693   0.711   3.067 -1.1060  1.0030  1.6434
 7352TIP3    H243548   3.758   0.583   3.117  0.2243  0.5576 -1.0489
 7353TIP3   OH243549   5.300   6.268  12.156 -0.7216 -0.4903  0.9391
 7353TIP3    H143550   5.213   6.244  12.124 -0.3114 -0.2604 -0.4401
 7353TIP3    H243551   5.284   6.345  12.211 -1.5247 -1.2527  1.8195
 7354TIP3   OH243552   5.153   1.191  10.582  0.4069  0.1300  0.6612
 7354TIP3    H143553   5.075   1.160  10.628 -0.8139  1.1279 -0.6366
 7354TIP3    H243554   5.169   1.126  10.514  0.7616 -0.0930  0.9483
 7355TIP3   OH243555   4.615   5.433  13.910  0.2824 -0.4617  0.1161
 7355TIP3    H143556   4.708   5.458  13.911 -0.0921  1.0958 -0.4380
 7355TIP3    H243557   4.575   5.490  13.976 -0.6754  0.7667 -1.4352
 7356TIP3   OH243558   3.069   3.227   0.504  0.1009 -0.2843 -0.2788
 7356TIP3    H143559   3.008   3.208   0.575  1.3139 -0.2277  0.8246
 7356TIP3    H243560   3.119   3.145   0.493 -0.8463 -0.6852 -1.8919
 7357TIP3   OH243561   6.714   0.947  11.442  0.8213 -0.3471 -0.1551
 7357TIP3    H143562   6.646   0.947  11.375 -0.3416 -1.1328  0.9718
 7357TIP3    H243563   6.738   1.039  11.453 -1.6207  0.2340  0.9054
 7358TIP3   OH243564   4.436   1.398  11.956  0.4228 -0.2991 -0.4127
 7358TIP3    H143565   4.492   1.324  11.933 -0.6795 -1.3929  0.2239
 7358TIP3    H243566   4.349   1.372  11.925 -0.1695  0.2808  0.7103
 7359TIP3   OH243567   1.656   2.069  15.529  0.0610 -0.1908  0.7929
 7359TIP3    H143568   1.585   2.071  15.593  0.3421  0.2082  1.0953
 7359TIP3    H243569   1.712   1.997  15.557  1.1354  1.0858  2.0381
 7360TIP3   OH243570   3.446   0.875  16.174 -0.3724  0.6327  0.5449
 7360TIP3    H143571   3.353   0.897  16.185 -0.1705  1.4689  0.5837
 7360TIP3    H243572   3.445   0.783  16.147 -1.2388  0.7833  0.0243
 7361TIP3   OH243573   0.527   2.964   0.461  0.1381 -0.1185 -0.4561
 7361TIP3    H143574   0.564   2.932   0.378  0.3127 -0.6421 -0.1801
 7361TIP3    H243575   0.601   3.004   0.507  0.0420  0.1681 -0.5511
 7362TIP3   OH243576   0.059   0.132  11.933  0.0755 -0.1993 -0.3912
 7362TIP3    H143577   0.003   0.158  12.006 -0.0685  0.7189 -0.8237
 7362TIP3    H243578   0.147   0.156  11.960  0.3686 -2.1108  0.5084
 7363TIP3   OH243579   5.966   2.388   0.986  0.7805 -0.7897 -0.5057
 7363TIP3    H143580   6.036   2.452   0.980  0.7112 -0.6795 -0.1943
 7363TIP3    H243581   5.895   2.423   0.931  1.0944 -1.0708 -1.0942
 7364TIP3   OH243582   2.932   4.895  16.306 -0.8393  0.4191  0.7379
 7364TIP3    H143583   2.915   4.801  16.299  0.9879 -0.0605  1.9034
 7364TIP3    H243584   2.977   4.917  16.225  1.0860 -0.3469  1.5318
 7365TIP3   OH243585   3.238   3.139   4.689 -0.1504  0.2234 -0.2844
 7365TIP3    H143586   3.222   3.133   4.595  0.3748  1.1194 -0.4341
 7365TIP3    H243587   3.220   3.230   4.711  2.7937  0.8472 -0.1118
 7366TIP3   OH243588   0.679   6.288   5.230 -0.4118 -0.1531  0.0730
 7366TIP3    H143589   0.626   6.336   5.166 -0.6241 -1.1198 -0.4894
 7366TIP3    H243590   0.693   6.202   5.191 -2.0070 -1.4118  2.0251
 7367TIP3   OH243591   1.722   6.760   3.662 -0.1349 -0.3564 -0.6296
 7367TIP3    H143592   1.770   6.839   3.686 -0.9739  0.7269 -2.3086
 7367TIP3    H243593   1.717   6.709   3.743  2.2471  0.3032  0.0073
 7368TIP3   OH243594   5.102   2.147  16.257 -0.2751 -0.3447  0.0410
 7368TIP3    H143595   5.066   2.198  16.185 -2.8218 -0.9364  0.8042
 7368TIP3    H243596   5.060   2.182  16.335  2.7044  0.5555  1.3990
 7369TIP3   OH243597   2.394   4.100  14.432  0.3870 -0.2728  0.4746
 7369TIP3    H143598   2.349   4.016  14.423 -0.4767  0.2322 -0.0623
 7369TIP3    H243599   2.464   4.083  14.496 -0.3453 -1.1642  1.0735
 7370TIP3   OH243600   1.542   4.997   0.507 -0.3805 -0.0833  0.4554
 7370TIP3    H143601   1.565   4.977   0.597  1.3304 -0.6297 -0.0722
 7370TIP3    H243602   1.479   4.930   0.482 -0.1960 -0.4448  0.9684
 7371TIP3   OH243603   0.876   1.418  10.785  0.4426  0.0715  0.0984
 7371TIP3    H143604   0.960   1.373  10.800 -0.1033 -0.8206  0.5432
 7371TIP3    H243605   0.811   1.363  10.829 -0.3032  1.0906  0.3030
 7372TIP3   OH243606   5.308   3.814  13.390 -0.6997  0.2035  0.0120
 7372TIP3    H143607   5.260   3.893  13.414 -1.2631  0.2463 -1.1821
 7372TIP3    H243608   5.240   3.747  13.380 -0.7532  0.5273 -2.8201
 7373TIP3   OH243609   1.947   5.689   4.967  0.5148  0.1059  0.1498
 7373TIP3    H143610   2.036   5.702   5.001 -0.0772  1.1977  1.4169
 7373TIP3    H243611   1.948   5.730   4.881  2.0157 -2.5513 -1.2093
 7374TIP3   OH243612   4.996   4.268  16.415  0.0897 -0.1728  0.2064
 7374TIP3    H143613   4.962   4.298  16.331 -1.5391 -1.0816  0.4966
 7374TIP3    H243614   4.950   4.321  16.480  1.1432  0.3414  0.5470
 7375TIP3   OH243615   2.473   6.560   4.533 -0.0100 -1.1281  0.7146
 7375TIP3    H143616   2.564   6.563   4.563 -0.0523  1.7388  0.8287
 7375TIP3    H243617   2.460   6.643   4.487 -2.7557 -1.1876  1.2262
 7376TIP3   OH243618   2.648   5.024  14.888  0.6664  0.7573  0.1912
 7376TIP3    H143619   2.664   5.072  14.807  0.3182  0.0152 -0.3331
 7376TIP3    H243620   2.724   4.966  14.897  0.4745  0.4905  0.1244
 7377TIP3   OH243621   2.973   2.653   1.004  0.1730  0.0328  0.2299
 7377TIP3    H143622   2.921   2.732   1.020  1.1597  0.6588  0.4178
 7377TIP3    H243623   2.938   2.618   0.922  1.5201  2.2099 -1.3842
 7378TIP3   OH243624   4.240   0.863  15.166  0.4532  0.7771 -0.1291
 7378TIP3    H143625   4.287   0.946  15.174  0.2023  1.1020 -1.6533
 7378TIP3    H243626   4.305   0.802  15.131  0.9254  0.0016  1.9245
 7379TIP3   OH243627   0.061   6.703  17.342 -0.1229 -0.0340  0.1671
 7379TIP3    H143628   0.014   6.689  17.260  0.5142 -0.2622 -0.1632
 7379TIP3    H243629   0.074   6.798  17.346  1.8639 -0.1953 -1.1510
 7380TIP3   OH243630   1.074   4.177   3.904  0.0363 -0.4855  0.1681
 7380TIP3    H143631   0.982   4.165   3.881  0.8047 -2.6044 -2.3139
 7380TIP3    H243632   1.093   4.106   3.966 -0.0613  0.2753  1.1074
 7381TIP3   OH243633   5.786   1.077  13.573 -0.5543 -0.1592  0.0599
 7381TIP3    H143634   5.725   1.041  13.637 -0.0701  0.0198  0.6249
 7381TIP3    H243635   5.824   1.000  13.531  2.1504 -0.5001  2.8007
 7382TIP3   OH243636   0.431   0.042   6.071 -0.3408 -0.4864  0.2124
 7382TIP3    H143637   0.469   0.068   5.987  1.3437  1.5986  1.5279
 7382TIP3    H243638   0.401  -0.048   6.056  1.9179 -1.0079 -1.9749
 7383TIP3   OH243639   5.786   0.825  15.663 -0.4192 -0.1196  0.0338
 7383TIP3    H143640   5.821   0.737  15.654  0.4751  0.3359 -1.2381
 7383TIP3    H243641   5.834   0.862  15.737 -0.8273 -0.7002  0.5982
 7384TIP3   OH243642   6.194   3.697  12.263 -0.5167 -0.3351  0.1597
 7384TIP3    H143643   6.158   3.762  12.203  1.5736 -0.2268 -1.0503
 7384TIP3    H243644   6.163   3.724  12.350 -0.6053  1.6143 -0.4486
 7385TIP3   OH243645   3.101   1.017  14.651 -0.2147 -0.0276  0.2589
 7385TIP3    H143646   3.180   1.055  14.613  0.2777 -1.5524 -0.3187
 7385TIP3    H243647   3.089   1.064  14.733  0.4042  1.2783 -0.3659
 7386TIP3   OH243648   0.948   2.621   5.787  0.4628 -0.2484 -0.0065
 7386TIP3    H143649   0.986   2.627   5.875  0.3854 -1.1376  0.0954
 7386TIP3    H243650   0.859   2.655   5.797  0.2454 -0.9229  0.3957
 7387TIP3   OH243651   4.452   0.436  17.339 -0.1619 -0.0667  1.1355
 7387TIP3    H143652   4.539   0.455  17.304 -0.5887  1.5608  0.8777
 7387TIP3    H243653   4.412   0.377  17.274 -0.0696  0.9995  0.0850
 7388TIP3   OH243654   6.471   1.433   3.975  0.6233  0.4235 -0.8668
 7388TIP3    H143655   6.487   1.339   3.971  0.2782  0.3796 -1.1850
 7388TIP3    H243656   6.475   1.463   3.884  2.9349  1.0945 -0.6061
 7389TIP3   OH243657   0.256   6.415   0.415  0.3459  0.5945  0.0458
 7389TIP3    H143658   0.335   6.465   0.394  0.3336  1.1682  1.3008
 7389TIP3    H243659   0.262   6.399   0.509  0.5306 -2.1131 -0.3502
 7390TIP3   OH243660   2.890   4.121  13.962  0.4823 -0.3072  0.4995
 7390TIP3    H143661   2.819   4.082  14.013 -1.5298 -0.8593 -2.4726
 7390TIP3    H243662   2.948   4.047  13.942 -0.2371 -0.6507 -0.3414
 7391TIP3   OH243663   1.016   3.467  11.291 -0.1728 -0.0112  0.2485
 7391TIP3    H143664   1.051   3.484  11.203 -0.2520 -0.1043  0.1979
 7391TIP3    H243665   1.026   3.550  11.337  0.4135 -0.1294  0.3382
 7392TIP3   OH243666   6.626   2.881   1.423  0.0538  0.3985 -0.4990
 7392TIP3    H143667   6.618   2.856   1.515  0.8622 -1.3923 -0.8731
 7392TIP3    H243668   6.663   2.804   1.380 -2.0717  0.4543 -2.6830
 7393TIP3   OH243669   5.343   4.364   2.373  0.4142  0.4488 -0.1062
 7393TIP3    H143670   5.297   4.301   2.429  0.1685  0.6520 -0.0770
 7393TIP3    H243671   5.408   4.405   2.430 -0.2751  1.1280  0.2089
 7394TIP3   OH243672   1.728   1.945   1.220  0.5033 -1.1746  0.4711
 7394TIP3    H143673   1.758   2.020   1.272 -1.1869 -1.7526  2.3928
 7394TIP3    H243674   1.762   1.962   1.132  3.1294  0.0641  1.6185
 7395TIP3   OH243675   6.086   6.657   5.557  0.2852  0.1610 -0.0596
 7395TIP3    H143676   6.027   6.729   5.535 -1.5771 -1.3966 -0.4004
 7395TIP3    H243677   6.062   6.633   5.647  0.0299 -0.8096 -0.3765
 7396TIP3   OH243678   4.598   6.594  11.394 -0.6469 -0.3572  0.2577
 7396TIP3    H143679   4.671   6.654  11.379 -0.8145  0.1449  1.3810
 7396TIP3    H243680   4.639   6.513  11.424 -0.3725 -1.0708 -1.8294
 7397TIP3   OH243681   0.247   2.606   2.131 -0.2519 -0.5769  0.3418
 7397TIP3    H143682   0.322   2.554   2.160 -0.5523 -0.7855  0.7661
 7397TIP3    H243683   0.214   2.559   2.055 -0.1434 -0.6623  0.3470
 7398TIP3   OH243684   4.044   2.991  14.717  0.0103  0.4353  0.0649
 7398TIP3    H143685   4.080   3.073  14.749 -0.8751  0.8702 -0.0330
 7398TIP3    H243686   4.000   3.013  14.635 -1.5463  0.1863  0.7852
 7399TIP3   OH243687   0.583   2.247   4.096 -0.1193 -0.1951  0.0192
 7399TIP3    H143688   0.490   2.235   4.078 -0.1141  0.0019 -0.1473
 7399TIP3    H243689   0.597   2.204   4.180 -0.6280  0.8635  0.6656
 7400TIP3   OH243690   6.166   1.078  15.002 -0.1175 -0.2352 -0.0040
 7400TIP3    H143691   6.115   1.040  14.931  0.4886  0.0207 -0.5904
 7400TIP3    H243692   6.103   1.125  15.055 -0.9139 -2.0581  0.7669
 7401TIP3   OH243693   6.525   2.699  16.132 -0.3477  0.3726 -0.1612
 7401TIP3    H143694   6.554   2.627  16.189 -0.4107  0.5643  0.1140
 7401TIP3    H243695   6.430   2.701  16.142 -0.2074  1.6118  1.1895
 7402TIP3   OH243696   3.452   4.769   3.634  0.2957  0.0756  0.0581
 7402TIP3    H143697   3.389   4.787   3.564 -0.0947 -0.1663  0.3426
 7402TIP3    H243698   3.479   4.856   3.664 -1.6871  0.2746  1.5232
 7403TIP3   OH243699   0.350   2.113  11.448 -0.4036  0.2109 -0.1573
 7403TIP3    H143700   0.434   2.071  11.433 -0.4845 -0.0896  0.1996
 7403TIP3    H243701   0.300   2.097  11.367 -0.7436 -1.1501  0.2861
 7404TIP3   OH243702   0.723   4.206   5.976  0.6007 -0.0204  0.0761
 7404TIP3    H143703   0.691   4.291   6.004 -2.4485 -0.4324 -1.7664
 7404TIP3    H243704   0.753   4.219   5.886 -0.6204 -1.0062 -0.5018
 7405TIP3   OH243705   0.861   2.904  13.968 -0.6004  1.0134  0.0665
 7405TIP3    H143706   0.775   2.946  13.954 -0.4887  0.6803 -1.9702
 7405TIP3    H243707   0.920   2.978  13.984 -0.7635  1.5255 -1.5067
 7406TIP3   OH243708   5.521   5.386   4.819 -0.5587 -0.1538 -0.0039
 7406TIP3    H143709   5.469   5.414   4.894 -0.9456 -0.2983 -0.2174
 7406TIP3    H243710   5.579   5.460   4.802 -0.9828  0.1803 -0.0251
 7407TIP3   OH243711   4.132   0.237  11.283 -0.3115  0.3352 -0.0037
 7407TIP3    H143712   4.091   0.151  11.293  1.2782 -0.7117 -1.7941
 7407TIP3    H243713   4.219   0.227  11.322 -0.0641  1.0779 -0.3405
 7408TIP3   OH243714   3.302   6.772  15.308  0.4180 -0.1852 -0.2038
 7408TIP3    H143715   3.306   6.681  15.336  0.4479 -0.3727 -0.7932
 7408TIP3    H243716   3.329   6.770  15.216  0.7762  0.4667 -0.1209
 7409TIP3   OH243717   1.460   3.841   3.347  0.0148  0.2863 -0.0737
 7409TIP3    H143718   1.432   3.871   3.434 -0.4514 -1.6211  0.4870
 7409TIP3    H243719   1.453   3.918   3.291  1.7085  1.9615  1.8536
 7410TIP3   OH243720   4.383   2.582  17.025  0.5277  0.0308 -0.1442
 7410TIP3    H143721   4.404   2.489  17.025  0.9228  0.1210 -0.3969
 7410TIP3    H243722   4.305   2.589  17.081 -0.0619 -0.5812 -0.8600
 7411TIP3   OH243723   5.938   2.697   2.347 -0.2792 -0.2926  0.5328
 7411TIP3    H143724   5.913   2.612   2.312 -0.4007  0.2947 -0.8769
 7411TIP3    H243725   6.026   2.684   2.382 -0.9639 -1.4036  1.9640
 7412TIP3   OH243726   3.859   4.606  12.922 -0.2095 -0.3660 -0.1116
 7412TIP3    H143727   3.904   4.553  12.856  1.4789  0.8455 -0.0006
 7412TIP3    H243728   3.892   4.695  12.908 -1.5214  0.3224  0.9331
 7413TIP3   OH243729   2.315   3.673  17.063  0.2810 -0.2131 -0.0302
 7413TIP3    H143730   2.380   3.676  16.993  0.5961  0.8960  0.3016
 7413TIP3    H243731   2.362   3.634  17.137  0.6821  0.8697  0.3047
 7414TIP3   OH243732   3.251   0.731  12.000  0.0092  0.5185 -0.0009
 7414TIP3    H143733   3.177   0.716  11.943  1.5357  0.0508 -1.9715
 7414TIP3    H243734   3.297   0.805  11.961  1.9429 -0.7827 -0.3406
 7415TIP3   OH243735   5.258   2.593  14.691  0.0909  0.0867 -0.3630
 7415TIP3    H143736   5.250   2.565  14.600  1.1471  1.2261 -0.8387
 7415TIP3    H243737   5.332   2.654  14.691  1.4262 -1.4086  1.6310
 7416TIP3   OH243738   6.100   1.484   4.945 -0.6637  0.4100  0.1823
 7416TIP3    H143739   6.024   1.430   4.963 -0.2151 -0.2306  0.1852
 7416TIP3    H243740   6.087   1.562   4.999 -0.1898 -0.7233  2.0273
 7417TIP3   OH243741   0.870   2.746   0.483  0.2023  0.0230 -0.3285
 7417TIP3    H143742   0.962   2.750   0.511 -0.3482  3.2132  1.5607
 7417TIP3    H243743   0.868   2.793   0.399  0.1836  0.8927  0.1479
 7418TIP3   OH243744   0.342   4.001  15.041 -0.4924 -0.4431 -0.0518
 7418TIP3    H143745   0.267   4.014  14.984 -1.7573  0.5260  1.7585
 7418TIP3    H243746   0.406   4.067  15.012  0.6672 -2.5975 -2.9839
 7419TIP3   OH243747   6.345   6.160   3.613  0.4597 -0.1483  0.0181
 7419TIP3    H143748   6.298   6.229   3.659 -0.7508 -0.6356 -0.4597
 7419TIP3    H243749   6.277   6.103   3.578  1.2670  0.2863 -2.5155
 7420TIP3   OH243750   5.751   4.981  13.762  0.0085  0.1164  0.0460
 7420TIP3    H143751   5.712   4.901  13.726 -1.9406  0.3434  1.4956
 7420TIP3    H243752   5.736   5.048  13.696 -1.6725  0.0694  0.3389
 7421TIP3   OH243753   4.684   6.403  17.305  0.4498  0.1627  0.5344
 7421TIP3    H143754   4.686   6.310  17.282  0.6279  0.2406  0.2347
 7421TIP3    H243755   4.750   6.443  17.250 -1.2120  0.8454 -1.0735
 7422TIP3   OH243756   6.075   0.235   6.173  0.6859  0.3326 -0.1141
 7422TIP3    H143757   6.086   0.320   6.131  0.0158  0.5772  0.1719
 7422TIP3    H243758   6.025   0.255   6.253  0.1645 -0.3764 -0.2496
 7423TIP3   OH243759   6.259   2.634  11.523 -0.4869  0.1265  0.6967
 7423TIP3    H143760   6.231   2.613  11.612 -0.5188  1.2812  0.9767
 7423TIP3    H243761   6.284   2.550  11.485 -1.6828 -0.5584  1.3655
 7424TIP3   OH243762   0.013   1.974  14.208 -0.3541  0.1870 -0.1116
 7424TIP3    H143763  -0.057   1.931  14.258 -1.6307  3.2936  1.0533
 7424TIP3    H243764   0.046   1.906  14.150 -2.5969 -2.1295  1.0890
 7425TIP3   OH243765   4.245   2.309  11.427  0.1853  0.4275  0.2809
 7425TIP3    H143766   4.171   2.369  11.425  0.1134  0.3229 -0.1946
 7425TIP3    H243767   4.308   2.347  11.366  0.8650  0.9529  1.2865
 7426TIP3   OH243768   6.419   4.559   3.118  0.2617  0.8827  0.0771
 7426TIP3    H143769   6.430   4.638   3.172  0.6998  0.9306 -0.0749
 7426TIP3    H243770   6.394   4.593   3.032 -0.1980  0.8193  0.1836
 7427TIP3   OH243771   4.815   2.349  10.671 -0.3243 -0.6318  0.6250
 7427TIP3    H143772   4.898   2.393  10.690 -0.6669 -0.1645  1.0970
 7427TIP3    H243773   4.748   2.410  10.703 -0.9335 -0.1695 -1.3712
 7428TIP3   OH243774   5.862   6.207  13.900  0.1727 -0.1059  0.7308
 7428TIP3    H143775   5.861   6.299  13.928 -1.0071  0.0369  0.2767
 7428TIP3    H243776   5.950   6.176  13.922  0.0514  0.6533  2.4345
 7429TIP3   OH243777   2.668   0.473   3.837 -0.0323 -0.0388  0.0764
 7429TIP3    H143778   2.585   0.448   3.877  0.3932 -1.2681  0.2369
 7429TIP3    H243779   2.723   0.395   3.845  0.5441  0.1448 -1.6392
 7430TIP3   OH243780   2.748   4.669   0.744 -0.6538  0.1382  0.3257
 7430TIP3    H143781   2.785   4.595   0.794  0.8091  1.8841  2.0112
 7430TIP3    H243782   2.654   4.659   0.754 -0.4550 -0.7843  1.7013
 7431TIP3   OH243783   2.206   0.727   5.626  0.8476 -0.0236 -0.1051
 7431TIP3    H143784   2.241   0.702   5.540 -0.2451 -2.0477 -0.0108
 7431TIP3    H243785   2.283   0.740   5.681  1.5312  0.3906 -1.1370
 7432TIP3   OH243786   0.139   3.490   2.615  0.1412  0.5621 -0.2541
 7432TIP3    H143787   0.207   3.439   2.660 -0.0956  0.8398  0.4402
 7432TIP3    H243788   0.118   3.440   2.537 -1.0658 -1.1235  1.0917
 7433TIP3   OH243789   3.489   1.122  12.218  0.4993  0.2157  0.0867
 7433TIP3    H143790   3.501   1.204  12.172 -1.9674  0.3524 -0.4370
 7433TIP3    H243791   3.533   1.057  12.163  2.7073  1.1366  0.6406
 7434TIP3   OH243792   4.358   3.678  11.850  0.2313  0.1901 -0.1320
 7434TIP3    H143793   4.415   3.633  11.788 -0.2258  0.7594 -0.9924
 7434TIP3    H243794   4.335   3.760  11.806 -1.6072 -0.2233  0.0006
 7435TIP3   OH243795   2.837   5.747   5.044 -0.4942  0.1316  0.5151
 7435TIP3    H143796   2.831   5.833   5.003  0.3934 -0.2803 -0.5182
 7435TIP3    H243797   2.819   5.763   5.137 -1.3449  1.2601  0.1710
 7436TIP3   OH243798   1.105   6.531   5.733  0.4545 -0.1754 -0.3788
 7436TIP3    H143799   1.062   6.616   5.721 -0.4880 -0.5252  0.4004
 7436TIP3    H243800   1.139   6.510   5.646  0.6459  0.9644 -0.6006
 7437TIP3   OH243801   6.583   2.061   5.668 -0.1733 -0.2018  0.6880
 7437TIP3    H143802   6.505   2.095   5.712  0.0874  0.1671  0.8738
 7437TIP3    H243803   6.586   1.968   5.692 -0.9514 -0.3942  0.0930
 7438TIP3   OH243804   0.418   0.070   2.056  0.4992  0.5979 -0.6878
 7438TIP3    H143805   0.422   0.116   2.140  2.4855  1.2631 -1.0725
 7438TIP3    H243806   0.491   0.106   2.006  0.3648 -0.9527 -2.1047
 7439TIP3   OH243807   5.173   6.341  15.469  0.1554 -0.0354  0.0163
 7439TIP3    H143808   5.108   6.271  15.459  0.0558 -0.2059  1.6135
 7439TIP3    H243809   5.236   6.306  15.532  0.7841  0.8481 -0.1069
 7440TIP3   OH243810   6.021   4.178   4.154  0.0048 -0.2876 -0.4913
 7440TIP3    H143811   6.023   4.182   4.250  2.2541  0.5254 -0.5080
 7440TIP3    H243812   5.996   4.266   4.126  1.9041  0.2461 -0.6244
 7441TIP3   OH243813   0.171   1.494  16.116  0.6123  0.7099 -0.2822
 7441TIP3    H143814   0.211   1.514  16.200  0.1068  0.4473  0.0227
 7441TIP3    H243815   0.244   1.500  16.053  1.4966 -1.3624  0.4773
 7442TIP3   OH243816   3.699   1.443  13.269 -0.6111  0.5670 -0.4423
 7442TIP3    H143817   3.616   1.480  13.300 -2.5080 -1.9787 -1.9942
 7442TIP3    H243818   3.714   1.486  13.185 -2.0126 -0.9042 -1.5304
 7443TIP3   OH243819   3.871   6.441  12.645  0.4459 -0.1857 -0.0550
 7443TIP3    H143820   3.793   6.494  12.629  1.0987  0.7749 -0.2039
 7443TIP3    H243821   3.882   6.390  12.565 -0.2398 -0.6037  0.1176
 7444TIP3   OH243822   6.585   1.287  12.522  0.5397  0.3399 -0.4343
 7444TIP3    H143823   6.504   1.336  12.505 -1.1184 -1.4557  1.7395
 7444TIP3    H243824   6.588   1.222  12.451 -0.3365 -0.0397 -0.1400
 7445TIP3   OH243825   4.400   3.770  17.184  0.4092 -0.2116 -0.2796
 7445TIP3    H143826   4.364   3.791  17.097  0.1831 -0.7480 -0.3221
 7445TIP3    H243827   4.324   3.742  17.234  0.6629 -0.6743 -0.1513
 7446TIP3   OH243828   1.739   1.668  12.893  0.4743 -0.1381  0.0629
 7446TIP3    H143829   1.832   1.668  12.868  0.4839  0.9136  0.0587
 7446TIP3    H243830   1.734   1.728  12.967  0.0371 -1.3818  1.0704
 7447TIP3   OH243831   5.173   5.340   3.821  0.3636  0.2560  0.3951
 7447TIP3    H143832   5.156   5.332   3.728  0.1364  0.9475  0.3771
 7447TIP3    H243833   5.262   5.305   3.832  0.8659  1.2770 -0.2691
 7448TIP3   OH243834   3.834   0.374   2.914  0.6690 -0.4106 -0.1055
 7448TIP3    H143835   3.806   0.465   2.907  0.5336 -0.4715 -0.3835
 7448TIP3    H243836   3.869   0.353   2.828  0.1147 -0.8132 -0.2375
 7449TIP3   OH243837   6.329   0.899  12.481 -0.6943 -0.3224  0.2367
 7449TIP3    H143838   6.327   0.988  12.445  1.1845 -0.0269  0.7412
 7449TIP3    H243839   6.409   0.860  12.444 -0.0027 -0.8269  2.1632
 7450TIP3   OH243840   2.623   2.143   5.920 -0.7714  0.3325  0.1533
 7450TIP3    H143841   2.665   2.084   5.982 -0.1273 -1.1737 -1.6397
 7450TIP3    H243842   2.560   2.088   5.873 -0.2595  1.0767 -1.4682
 7451TIP3   OH243843   5.947   6.787   1.105  0.4428 -0.3218 -0.4980
 7451TIP3    H143844   5.884   6.823   1.042  0.1897  1.0426  0.4813
 7451TIP3    H243845   5.919   6.697   1.118 -1.6411  0.3783  0.2653
 7452TIP3   OH243846   0.826   3.269  15.836 -0.3018  0.4845 -0.0300
 7452TIP3    H143847   0.769   3.201  15.800 -1.7367  1.4503  0.3424
 7452TIP3    H243848   0.840   3.330  15.763 -0.1515  0.5108  0.0208
 7453TIP3   OH243849   1.060   5.257  14.538 -0.2441 -0.1734  1.0086
 7453TIP3    H143850   1.116   5.331  14.518 -1.5053  1.1983  2.2643
 7453TIP3    H243851   0.983   5.268  14.482  0.2702 -1.5148 -0.0254
 7454TIP3   OH243852   4.903   2.341   0.882 -0.0841 -0.6170 -0.0464
 7454TIP3    H143853   4.916   2.248   0.900  1.1972 -0.2443  1.0943
 7454TIP3    H243854   4.986   2.369   0.843  0.0624  0.3436  0.9306
 7455TIP3   OH243855   5.937   4.885   1.246 -0.2748 -0.0941 -0.1605
 7455TIP3    H143856   5.967   4.859   1.159 -2.1254  0.7454 -1.1165
 7455TIP3    H243857   5.884   4.964   1.231  0.2884  0.7409  1.8787
 7456TIP3   OH243858   4.742   4.060   2.089  0.2853 -0.1608  0.3683
 7456TIP3    H143859   4.790   4.004   2.029 -1.3278 -1.1066 -0.0810
 7456TIP3    H243860   4.675   4.004   2.127 -1.4611  1.4414 -0.1702
 7457TIP3   OH243861   1.031   1.148  11.350 -0.7564  0.3323  0.4686
 7457TIP3    H143862   1.036   1.061  11.310 -0.4129  0.2977  0.5833
 7457TIP3    H243863   1.003   1.205  11.279  0.5544  0.3961 -0.0320
 7458TIP3   OH243864   2.831   1.540   4.765  0.0153 -0.0506  0.0716
 7458TIP3    H143865   2.817   1.508   4.676 -1.0697 -0.1956  0.2803
 7458TIP3    H243866   2.903   1.603   4.757  0.2128 -0.3826 -0.8321
 7459TIP3   OH243867   4.739   0.150   0.261  0.1926 -0.9680 -0.2123
 7459TIP3    H143868   4.654   0.152   0.217 -0.1316  0.2181  0.4123
 7459TIP3    H243869   4.720   0.114   0.347  0.2034 -0.1394  0.1419
 7460TIP3   OH243870   0.739   5.620   1.327  0.5398  0.3890  0.3519
 7460TIP3    H143871   0.684   5.690   1.293  0.9308  1.5403  1.9689
 7460TIP3    H243872   0.678   5.556   1.363  0.2102  1.6122  2.0516
 7461TIP3   OH243873   4.108   6.168   1.705 -0.1710  0.1039  0.3043
 7461TIP3    H143874   4.096   6.074   1.716  0.4505 -0.1539 -1.0558
 7461TIP3    H243875   4.135   6.199   1.792 -0.9763 -0.8580  0.9202
 7462TIP3   OH243876   6.434   3.384  17.177  0.1692  0.8458  0.0092
 7462TIP3    H143877   6.494   3.365  17.105  0.2522 -1.3501  0.5930
 7462TIP3    H243878   6.350   3.402  17.134  0.8012  2.2176 -0.7207
 7463TIP3   OH243879   6.458   2.676  11.310 -0.2341  0.1198 -0.2743
 7463TIP3    H143880   6.451   2.726  11.229  1.9301  0.2704 -0.4162
 7463TIP3    H243881   6.402   2.723  11.372 -1.2009  0.5235 -1.4121
 7464TIP3   OH243882   2.717   5.699  16.609  0.2412 -0.2055  0.1711
 7464TIP3    H143883   2.802   5.664  16.633  0.1183 -0.6460 -0.0255
 7464TIP3    H243884   2.691   5.754  16.684  1.3042  1.0557 -0.3495
 7465TIP3   OH243885   1.413   5.859  11.549 -0.3881  0.1333  0.1993
 7465TIP3    H143886   1.462   5.871  11.467  1.3503  2.5930  1.4507
 7465TIP3    H243887   1.439   5.772  11.580  0.9321  0.1833 -0.6634
 7466TIP3   OH243888   0.351   1.616  11.174 -0.7009  0.3082  0.1264
 7466TIP3    H143889   0.330   1.595  11.083  0.4324  2.1390 -0.6275
 7466TIP3    H243890   0.447   1.611  11.178 -0.5813  2.2707  0.6092
 7467TIP3   OH243891   4.429   2.682   1.043  0.1564 -0.6884 -0.1068
 7467TIP3    H143892   4.422   2.649   1.133  1.1022  2.1756  1.1381
 7467TIP3    H243893   4.518   2.660   1.017  0.5753  0.2905  0.4727
 7468TIP3   OH243894   6.427   2.304   5.799  0.0412 -0.3745  0.1467
 7468TIP3    H143895   6.331   2.305   5.808  0.0957  0.4545  0.6665
 7468TIP3    H243896   6.455   2.389   5.831  0.9155 -0.3807 -0.5683
 7469TIP3   OH243897   6.632   0.054  12.827 -0.7891  0.2448  0.1816
 7469TIP3    H143898   6.684   0.022  12.753 -0.9865  0.6043 -0.1148
 7469TIP3    H243899   6.566   0.111  12.787 -2.2114 -1.1595  0.4178
 7470TIP3   OH243900   2.838   1.445   1.483 -0.4753  0.8359  0.2740
 7470TIP3    H143901   2.852   1.356   1.515 -1.6099  1.0696  1.4929
 7470TIP3    H243902   2.780   1.435   1.407  0.2298  0.4700 -0.2260
 7471TIP3   OH243903   2.421   6.561  16.389  0.3426 -0.2798 -0.1244
 7471TIP3    H143904   2.374   6.623  16.333  0.7521 -0.5092 -0.7328
 7471TIP3    H243905   2.397   6.475  16.354  0.9191 -0.4091 -0.2024
 7472TIP3   OH243906   5.268   2.938  13.088  0.2830  0.0290  0.1373
 7472TIP3    H143907   5.264   2.901  13.177  0.1888  1.0844  0.5839
 7472TIP3    H243908   5.185   2.913  13.048  0.8850 -1.6401 -0.1530
 7473TIP3   OH243909   3.521   2.354  11.872 -0.2238  0.1928  0.6016
 7473TIP3    H143910   3.596   2.377  11.817 -1.7340  0.4737 -1.4443
 7473TIP3    H243911   3.551   2.280  11.924  0.9285 -0.8718 -1.4640
 7474TIP3   OH243912   1.717   2.203  13.857 -0.3846 -0.1061 -1.0041
 7474TIP3    H143913   1.642   2.213  13.798 -0.1276  0.5546 -1.2367
 7474TIP3    H243914   1.678   2.186  13.942 -0.7856 -0.2626 -1.2152
 7475TIP3   OH243915   0.052   0.344   0.251 -0.3162  0.3248  0.0213
 7475TIP3    H143916  -0.041   0.351   0.229 -0.8246  1.2512  2.1905
 7475TIP3    H243917   0.054   0.350   0.346  1.9615 -0.0282  0.0379
 7476TIP3   OH243918   1.469   5.544  14.992 -0.0859  0.0944  0.4384
 7476TIP3    H143919   1.436   5.555  15.082 -2.6286 -3.5738  0.2059
 7476TIP3    H243920   1.390   5.546  14.938  1.1041 -0.2994 -1.3832
 7477TIP3   OH243921   5.719   3.925  15.205 -0.4730  0.1937 -0.1777
 7477TIP3    H143922   5.812   3.909  15.220 -0.4349  1.5145  1.2729
 7477TIP3    H243923   5.675   3.854  15.252 -0.2157  0.2900  0.2121
 7478TIP3   OH243924   3.037   1.435   6.179  0.0368  0.2576 -0.4609
 7478TIP3    H143925   3.108   1.376   6.152  1.3450  1.8904 -0.7611
 7478TIP3    H243926   3.051   1.448   6.273  0.4235  0.9234 -0.6037
 7479TIP3   OH243927   0.632   5.337  11.537  0.0137 -0.0116 -0.2917
 7479TIP3    H143928   0.595   5.393  11.605 -2.0344 -0.8587 -0.6206
 7479TIP3    H243929   0.661   5.259  11.584 -2.0826 -0.9195 -0.3920
 7480TIP3   OH243930   5.207   2.458  12.286 -0.4834 -0.1020 -0.0818
 7480TIP3    H143931   5.238   2.404  12.358  0.3733  1.0740  0.4740
 7480TIP3    H243932   5.270   2.443  12.215  1.2728  1.9902  0.9157
 7481TIP3   OH243933   0.113   4.658  12.351  0.6204 -0.3349  0.0730
 7481TIP3    H143934   0.108   4.728  12.416 -2.5097  1.2772 -1.6944
 7481TIP3    H243935   0.044   4.596  12.376  2.0959 -1.8993  0.5145
 7482TIP3   OH243936   2.952   6.693  16.147  0.3179 -0.1094 -0.2689
 7482TIP3    H143937   3.009   6.707  16.223  0.6496  0.8136 -0.6669
 7482TIP3    H243938   2.864   6.711  16.180  0.4608  0.2986 -0.0920
 7483TIP3   OH243939   6.540   5.346   5.009  0.6438  0.3861  0.4989
 7483TIP3    H143940   6.615   5.400   4.984  0.2386  0.3845 -0.8146
 7483TIP3    H243941   6.579   5.265   5.042  1.2248  0.7572  0.7436
 7484TIP3   OH243942   1.803   2.938   1.364  0.3677 -0.9697  0.4819
 7484TIP3    H143943   1.849   2.990   1.298 -0.0922 -1.2346 -0.0476
 7484TIP3    H243944   1.776   3.003   1.430 -0.6401 -0.4465 -0.4165
 7485TIP3   OH243945   4.683   4.386   3.236 -0.6029  0.3993 -0.0306
 7485TIP3    H143946   4.658   4.461   3.182 -3.2078  0.8026  1.5656
 7485TIP3    H243947   4.615   4.321   3.219  0.4683 -0.8313  0.2068
 7486TIP3   OH243948   3.069   1.518   1.166 -0.0586 -0.1540 -0.1771
 7486TIP3    H143949   2.985   1.474   1.167  0.4944 -1.3506  2.8036
 7486TIP3    H243950   3.053   1.599   1.117 -1.9423 -1.9780 -2.8827
 7487TIP3   OH243951   1.951   2.988  16.642  0.4304  0.4354  0.5758
 7487TIP3    H143952   2.016   2.938  16.692 -0.0671  1.2946  2.1321
 7487TIP3    H243953   1.870   2.939  16.653  0.4888  0.1771 -0.1081
 7488TIP3   OH243954   3.895   4.511   6.004 -0.0990 -0.6963  0.0783
 7488TIP3    H143955   3.909   4.422   5.971 -0.3308 -0.1965 -1.4111
 7488TIP3    H243956   3.804   4.530   5.985  0.1822  0.1951 -0.4432
 7489TIP3   OH243957   4.886   3.323  15.858  0.1830 -0.0083  0.3793
 7489TIP3    H143958   4.958   3.386  15.853  3.2951 -3.1577  1.1150
 7489TIP3    H243959   4.879   3.303  15.952 -0.2604 -1.1530  0.1198
 7490TIP3   OH243960   4.844   0.988  16.434 -0.1559  1.1444  0.2283
 7490TIP3    H143961   4.778   1.054  16.456 -0.8997  0.0562  1.3519
 7490TIP3    H243962   4.801   0.933  16.368 -0.2238  0.6670  0.6727
 7491TIP3   OH243963   3.191   5.236   3.756  0.3636 -0.4225  0.4638
 7491TIP3    H143964   3.221   5.236   3.665  1.1547 -0.3576  0.7100
 7491TIP3    H243965   3.196   5.144   3.782  1.7478 -0.2449  0.9265
 7492TIP3   OH243966   3.387   0.877  15.299 -0.3928 -0.2819  0.0986
 7492TIP3    H143967   3.388   0.782  15.307 -0.3807 -0.4671 -1.7243
 7492TIP3    H243968   3.474   0.899  15.266 -0.5522  0.3267  0.0676
 7493TIP3   OH243969   5.444   4.482  15.196  0.0980  0.1573  0.0016
 7493TIP3    H143970   5.499   4.483  15.117 -0.2177 -0.7564 -0.2409
 7493TIP3    H243971   5.506   4.470  15.268  0.1802 -1.5292 -0.3199
 7494TIP3   OH243972   5.034   4.927  14.915  0.0287 -0.2907  0.1425
 7494TIP3    H143973   5.068   4.857  14.859  3.4033  0.4341  1.0818
 7494TIP3    H243974   5.094   4.931  14.989 -0.8917  2.6341  0.8864
 7495TIP3   OH243975   2.476   1.957   2.227 -0.0024 -0.4917  0.6040
 7495TIP3    H143976   2.552   2.012   2.210  0.4129 -1.8284 -2.6272
 7495TIP3    H243977   2.401   2.012   2.204  0.2671 -0.4636 -0.2391
 7496TIP3   OH243978   3.119   3.813  11.101  0.0819 -0.3074 -0.3764
 7496TIP3    H143979   3.099   3.891  11.049 -0.5465 -0.6591 -0.6813
 7496TIP3    H243980   3.090   3.740  11.046 -2.0031 -0.6296  1.0393
 7497TIP3   OH243981   0.284   4.788  10.745  0.1940  0.2781  0.6651
 7497TIP3    H143982   0.353   4.729  10.775  0.5908  0.1359 -0.4862
 7497TIP3    H243983   0.299   4.869  10.794  0.2582 -0.2354  1.5149
 7498TIP3   OH243984   3.633   3.912  13.656 -0.3409 -0.6840 -0.4281
 7498TIP3    H143985   3.562   3.849  13.645 -1.2259  0.0976  0.5707
 7498TIP3    H243986   3.678   3.884  13.736 -0.9978  0.1724  0.2566
 7499TIP3   OH243987   2.509   0.415  14.467  0.1278 -0.0271  0.3261
 7499TIP3    H143988   2.512   0.508  14.489  0.0936  0.2255 -0.6755
 7499TIP3    H243989   2.601   0.391  14.451 -0.0658  0.4392 -1.7208
 7500TIP3   OH243990   1.360   1.161   1.890 -0.0937 -0.6503 -0.0909
 7500TIP3    H143991   1.447   1.170   1.850  0.1079 -0.5806  0.3592
 7500TIP3    H243992   1.369   1.086   1.949 -0.4645 -0.9191 -0.3721
 7501TIP3   OH243993   6.497   0.750  15.910  0.5629  0.3132  0.0183
 7501TIP3    H143994   6.559   0.799  15.854 -0.2130  1.0116 -0.2484
 7501TIP3    H243995   6.411   0.770  15.873  0.0343  0.8020  1.4751
 7502TIP3   OH243996   3.711   5.049  14.853 -0.5341 -0.4697  0.2601
 7502TIP3    H143997   3.762   5.099  14.918 -0.9829 -0.9545  0.9967
 7502TIP3    H243998   3.634   5.020  14.901  0.1890 -2.7353  0.1561
 7503TIP3   OH243999   0.772   5.630   0.046 -0.0521 -0.0870  0.2299
 7503TIP3    H144000   0.678   5.616   0.038 -0.0397 -0.5321  0.7635
 7503TIP3    H244001   0.811   5.578  -0.023 -0.1792 -0.2030  0.2465
 7504TIP3   OH244002   0.322   3.954   0.835 -0.2793  0.4403  0.1149
 7504TIP3    H144003   0.331   4.029   0.895  0.9758  0.3711  0.0435
 7504TIP3    H244004   0.411   3.921   0.825 -0.7943 -0.9968  0.0373
 7505TIP3   OH244005   0.513   2.905   1.645  0.7943 -0.1555  0.1459
 7505TIP3    H144006   0.472   2.893   1.731 -0.8606 -0.4556 -0.6393
 7505TIP3    H244007   0.594   2.952   1.663  0.2497  0.1967  1.8198
 7506TIP3   OH244008   0.515   4.758  16.244  0.6018  0.6112  0.5734
 7506TIP3    H144009   0.462   4.732  16.170  0.6428 -0.3118  0.8591
 7506TIP3    H244010   0.454   4.803  16.303  0.5378  1.2039  0.0646
 7507TIP3   OH244011   0.875   2.373   4.746 -0.1402  0.4807 -0.2805
 7507TIP3    H144012   0.851   2.283   4.725 -1.2903  0.8718 -0.7223
 7507TIP3    H244013   0.903   2.370   4.838  1.0811 -0.5347 -0.6493
 7508TIP3   OH244014   2.419   1.678   2.255 -0.4080  0.4144 -0.1636
 7508TIP3    H144015   2.412   1.763   2.212  2.0978  0.3933 -0.7448
 7508TIP3    H244016   2.505   1.679   2.298 -1.5135 -0.7490  2.2792
 7509TIP3   OH244017   5.300   6.659   4.808  0.2437 -0.1778  0.0815
 7509TIP3    H144018   5.250   6.611   4.742  3.0984 -2.6350 -0.5321
 7509TIP3    H244019   5.248   6.653   4.887 -0.4379 -2.7722 -0.4639
 7510TIP3   OH244020   1.181   5.661  11.062 -0.4497  0.4333  0.4790
 7510TIP3    H144021   1.155   5.745  11.100  0.6641  0.6980  0.6719
 7510TIP3    H244022   1.135   5.595  11.115 -0.0580  0.8563  1.3495
 7511TIP3   OH244023   0.217   3.260  13.937 -0.1354 -0.7419 -0.3322
 7511TIP3    H144024   0.297   3.302  13.905  0.1671  0.3214  1.6481
 7511TIP3    H244025   0.154   3.332  13.944  0.5585 -0.2648  3.6814
 7512TIP3   OH244026   4.683   6.775   3.912 -0.2238 -0.6639  0.1534
 7512TIP3    H144027   4.632   6.715   3.856  1.1635 -1.9380  0.2031
 7512TIP3    H244028   4.640   6.770   3.997 -0.4902 -1.1213 -0.0004
 7513TIP3   OH244029   0.494   0.830  12.557  0.7064 -0.1299 -0.1772
 7513TIP3    H144030   0.436   0.831  12.634 -0.7636 -0.3723 -1.2347
 7513TIP3    H244031   0.531   0.918  12.555 -3.3849  1.7905 -2.1093
 7514TIP3   OH244032   1.202   0.882  14.260  0.3388  0.4836  0.2191
 7514TIP3    H144033   1.140   0.954  14.247  0.2177  0.4739  0.7177
 7514TIP3    H244034   1.223   0.885  14.353 -0.2016 -0.5507  0.3960
 7515TIP3   OH244035   1.631   5.714   4.984  0.0446 -0.0804 -0.3808
 7515TIP3    H144036   1.561   5.714   4.919  0.9034 -1.4436 -1.3555
 7515TIP3    H244037   1.712   5.715   4.933  0.7455  0.0808  0.6952
 7516TIP3   OH244038   1.135   2.543   4.089  0.0979  0.4723  0.0332
 7516TIP3    H144039   1.152   2.633   4.061  0.4281  0.6552  0.7858
 7516TIP3    H244040   1.064   2.551   4.153 -0.3557  0.1157 -0.4220
 7517TIP3   OH244041   1.517   5.473  13.098 -0.3253  0.5105  0.1066
 7517TIP3    H144042   1.539   5.443  13.010 -0.9509 -1.7584  0.6699
 7517TIP3    H244043   1.542   5.565  13.098 -0.1854  0.5489 -2.3886
 7518TIP3   OH244044   2.291   2.290   2.465 -0.5181  0.2738 -0.2037
 7518TIP3    H144045   2.234   2.328   2.398 -1.3346 -0.9083 -0.2167
 7518TIP3    H244046   2.258   2.200   2.475  1.4367 -0.4963 -0.3182
 7519TIP3   OH244047   6.141   1.615   2.312 -0.2888  0.2165 -0.9627
 7519TIP3    H144048   6.088   1.673   2.367 -2.0052  1.7825 -3.9760
 7519TIP3    H244049   6.078   1.567   2.259  1.2040 -2.7804 -0.2656
 7520TIP3   OH244050   3.835   1.995  15.822  0.1662  0.4691 -0.3936
 7520TIP3    H144051   3.827   1.992  15.727 -0.9624  1.6120 -0.3710
 7520TIP3    H244052   3.789   1.917  15.853  0.6113  0.0496 -0.7811
 7521TIP3   OH244053   2.625   0.426   5.680  0.1997  0.4661  0.2496
 7521TIP3    H144054   2.693   0.359   5.676 -0.6582 -0.5521  1.7412
 7521TIP3    H244055   2.554   0.392   5.625 -0.6042 -0.3360  1.7311
 7522TIP3   OH244056   2.196   0.438  11.123  0.4740 -0.6467 -1.0477
 7522TIP3    H144057   2.217   0.362  11.068 -0.1344 -1.2406 -0.4726
 7522TIP3    H244058   2.281   0.477  11.143  0.6827 -0.0427 -2.9054
 7523TIP3   OH244059   0.683   4.031  12.580  0.0755 -0.2039  0.2677
 7523TIP3    H144060   0.685   3.937  12.598  0.7301 -0.2281  0.1026
 7523TIP3    H244061   0.613   4.042  12.516 -0.9670 -0.3799  1.3465
 7524TIP3   OH244062   0.266   3.399   1.563 -0.6823  0.0214 -0.1055
 7524TIP3    H144063   0.212   3.363   1.493 -2.1045 -0.1457  1.0353
 7524TIP3    H244064   0.356   3.378   1.537 -1.1157  0.4971 -2.1526
 7525TIP3   OH244065   3.239   2.180   0.942 -0.0447 -0.2652 -0.5754
 7525TIP3    H144066   3.236   2.275   0.926 -0.1621  0.1097  1.4540
 7525TIP3    H244067   3.152   2.159   0.976  0.3608 -0.9012  0.0831
 7526TIP3   OH244068   4.937   6.112  12.916  0.3144  0.3916  0.6649
 7526TIP3    H144069   4.965   6.100  12.825  1.4110 -0.4273  1.1005
 7526TIP3    H244070   5.014   6.145  12.961  0.3161 -0.9008  1.6639
 7527TIP3   OH244071   6.039   1.963  15.226 -0.0436 -0.6982  0.1487
 7527TIP3    H144072   5.962   1.921  15.264  0.3656 -2.2094 -0.6405
 7527TIP3    H244073   6.073   1.899  15.164 -0.1099  1.2676 -2.0446
 7528TIP3   OH244074   2.105   2.305   2.882 -0.6658  0.1422  0.1699
 7528TIP3    H144075   2.106   2.317   2.977 -0.8258  0.4734  0.1313
 7528TIP3    H244076   2.029   2.355   2.852 -0.1587  0.6927 -0.2184
 7529TIP3   OH244077   1.866   0.741   2.581 -0.1047 -0.6376 -0.0853
 7529TIP3    H144078   1.902   0.797   2.513 -0.8144  0.2649  0.2720
 7529TIP3    H244079   1.872   0.792   2.661  0.0357 -1.4048  0.4101
 7530TIP3   OH244080   3.468   6.734  12.211  0.3869 -0.5343 -0.4434
 7530TIP3    H144081   3.453   6.729  12.117 -1.7709 -0.9697 -0.1253
 7530TIP3    H244082   3.489   6.644  12.237 -1.9048 -1.0428 -0.1366
 7531TIP3   OH244083   1.720   0.333   6.955  0.0143 -0.0506  0.1403
 7531TIP3    H144084   1.646   0.390   6.976  0.3484 -0.2047  1.8292
 7531TIP3    H244085   1.797   0.387   6.972  0.3236 -0.2135 -0.6784
 7532TIP3   OH244086   5.213   0.643   2.055 -0.0822 -0.2698 -0.0863
 7532TIP3    H144087   5.146   0.633   1.988  1.1323 -0.8284 -1.2659
 7532TIP3    H244088   5.296   0.629   2.009  0.9909  1.9544  0.9598
 7533TIP3   OH244089   5.126   0.866  14.612 -0.2330 -0.4669  0.0960
 7533TIP3    H144090   5.143   0.807  14.685  0.2461  0.4742  0.7589
 7533TIP3    H244091   5.033   0.886  14.619  0.0102  0.3988  1.0585
 7534TIP3   OH244092   0.229   0.488  14.112 -0.1146 -0.2705 -0.1704
 7534TIP3    H144093   0.190   0.548  14.048 -2.0294 -1.2421  0.0315
 7534TIP3    H244094   0.211   0.401  14.078  2.2485 -0.8091 -0.2284
 7535TIP3   OH244095   5.928   4.515  16.096 -0.2053 -0.3697 -0.3934
 7535TIP3    H144096   5.982   4.442  16.127 -3.7697 -2.6722  0.9912
 7535TIP3    H244097   5.921   4.502  16.002  0.0445 -1.2164 -0.3013
 7536TIP3   OH244098   1.731   2.312   1.893  0.4940 -0.2737 -0.2366
 7536TIP3    H144099   1.656   2.268   1.934 -0.4815  1.5993  0.1384
 7536TIP3    H244100   1.805   2.293   1.951 -0.4111  0.5480  1.2423
 7537TIP3   OH244101   3.109   2.719  14.327  0.8819  0.1541  0.0693
 7537TIP3    H144102   3.077   2.799  14.284  1.0015 -0.6719 -1.6337
 7537TIP3    H244103   3.106   2.740  14.420 -2.1447  1.0287 -0.1177
 7538TIP3   OH244104   5.999   3.864  15.587 -0.3456  0.2010  0.1780
 7538TIP3    H144105   5.990   3.852  15.682  0.2581  0.3143  0.2573
 7538TIP3    H244106   6.045   3.948  15.579 -0.0270 -0.0102 -0.2013
 7539TIP3   OH244107   1.462   0.804   2.404  0.0950  0.4568 -0.2025
 7539TIP3    H144108   1.527   0.741   2.373  1.0959  0.3344  1.9344
 7539TIP3    H244109   1.477   0.809   2.498 -1.4824  2.1984  0.0165
 7540TIP3   OH244110   4.905   1.121   0.411  0.9043  0.4510  0.0282
 7540TIP3    H144111   4.907   1.034   0.453  0.7433  0.4413  0.0169
 7540TIP3    H244112   4.995   1.137   0.385  0.9974  0.4348  0.3352
 7541TIP3   OH244113   6.496   5.721   6.008 -0.2322  0.0799 -0.7261
 7541TIP3    H144114   6.582   5.759   6.024 -1.0753  0.8017  3.6182
 7541TIP3    H244115   6.511   5.627   6.004  0.7833  0.1214  0.9533
 7542TIP3   OH244116   3.435   1.749  13.721 -0.5899 -0.1344 -0.4011
 7542TIP3    H144117   3.400   1.794  13.799  0.3036  0.3657 -0.2733
 7542TIP3    H244118   3.493   1.814  13.681 -0.0443 -0.8449 -0.7681
 7543TIP3   OH244119   6.046   4.060   0.946 -0.0419 -0.3932  0.3561
 7543TIP3    H144120   6.035   4.101   0.860  1.2763 -3.5144 -1.4463
 7543TIP3    H244121   6.133   4.087   0.975  0.2868 -0.8539 -0.1951
 7544TIP3   OH244122   0.513   5.259   0.204 -0.3130 -0.3843  0.3382
 7544TIP3    H144123   0.577   5.188   0.211 -0.8179 -0.9249 -0.4129
 7544TIP3    H244124   0.506   5.276   0.110 -2.1629 -1.1703  0.2923
 7545TIP3   OH244125   0.651   1.696   5.759  0.0770  0.1687 -0.1077
 7545TIP3    H144126   0.626   1.613   5.719 -1.1546  0.6523 -0.3674
 7545TIP3    H244127   0.724   1.727   5.706 -0.6802  0.1567 -1.1890
 7546TIP3   OH244128   5.781   4.240  12.568  0.1145 -0.2948  0.1571
 7546TIP3    H144129   5.777   4.300  12.494  1.2571 -1.9362 -1.3289
 7546TIP3    H244130   5.695   4.246  12.609  0.1801  2.2662  0.0520
 7547TIP3   OH244131   4.144   0.270   3.256  0.3496 -0.2747 -0.3729
 7547TIP3    H144132   4.097   0.322   3.321 -0.0930  1.5209 -2.0276
 7547TIP3    H244133   4.089   0.274   3.178  3.1389  1.9361 -2.4166
 7548TIP3   OH244134   6.554   1.053  16.943  0.4767 -0.1342 -0.1492
 7548TIP3    H144135   6.611   1.114  16.990 -0.0755  0.6211 -0.4381
 7548TIP3    H244136   6.614   1.001  16.889  1.0770 -0.7157  1.0383
 7549TIP3   OH244137   2.639   2.943  16.038 -0.2587 -0.5658  0.8171
 7549TIP3    H144138   2.701   2.944  15.965  3.1953  0.8317  3.4864
 7549TIP3    H244139   2.613   3.035  16.048 -2.6084 -1.0724  0.0105
 7550TIP3   OH244140   5.491   2.710   1.318  0.2324 -0.3315  0.1877
 7550TIP3    H144141   5.465   2.663   1.397 -1.4360  1.7531  0.9834
 7550TIP3    H244142   5.515   2.797   1.348 -0.9888  0.7051 -1.5991
 7551TIP3   OH244143   1.468   2.268  13.738 -0.0455  0.2873 -0.5135
 7551TIP3    H144144   1.397   2.292  13.797 -1.8000 -1.0172 -1.9745
 7551TIP3    H244145   1.431   2.199  13.683  1.5171  1.3019 -3.0174
 7552TIP3   OH244146   1.735   1.439  12.384 -0.2488 -0.3574 -0.7738
 7552TIP3    H144147   1.770   1.435  12.473 -0.9854 -2.4697 -0.5304
 7552TIP3    H244148   1.643   1.464  12.395 -0.2932 -0.4342 -0.9651
 7553TIP3   OH244149   4.940   1.718  14.738  0.4688 -0.5230  0.0427
 7553TIP3    H144150   4.877   1.754  14.675 -0.4119 -0.2712  1.0453
 7553TIP3    H244151   5.020   1.704  14.686  0.3103  1.2846 -0.7629
 7554TIP3   OH244152   2.829   6.199  12.362 -0.1682  0.3479 -0.3757
 7554TIP3    H144153   2.741   6.230  12.385 -0.3781  0.1543 -0.9096
 7554TIP3    H244154   2.858   6.149  12.439 -0.5413  0.3750 -0.2172
 7555TIP3   OH244155   4.254   0.494   5.912 -0.1108 -0.1964  0.3271
 7555TIP3    H144156   4.218   0.550   5.842  0.6758  0.0637  0.1201
 7555TIP3    H244157   4.282   0.555   5.979  0.6670 -0.3440  0.1415
 7556TIP3   OH244158   1.152   5.835  16.012 -0.1496 -0.0790 -0.1675
 7556TIP3    H144159   1.123   5.766  16.071 -0.0175 -2.6181 -2.8559
 7556TIP3    H244160   1.245   5.818  15.998 -0.7168 -1.3771 -3.1573
 7557TIP3   OH244161   0.341   6.277  17.316 -0.3763  0.8568 -0.1015
 7557TIP3    H144162   0.275   6.215  17.346  1.1950 -0.3289  1.1272
 7557TIP3    H244163   0.335   6.351  17.377 -1.3982  1.3664 -0.7917
 7558TIP3   OH244164   6.670   4.318   0.040 -0.2648  0.3225 -1.1854
 7558TIP3    H144165   6.714   4.268  -0.028 -1.2672 -1.8319 -0.3337
 7558TIP3    H244166   6.721   4.300   0.120 -0.7258  0.5229 -0.8406
 7559TIP3   OH244167   4.653   5.163  14.838 -0.3621 -0.1178  0.7530
 7559TIP3    H144168   4.646   5.230  14.770  0.7888  0.1376  0.8603
 7559TIP3    H244169   4.735   5.183  14.883 -0.2909 -1.2565  1.1682
 7560TIP3   OH244170   6.308   0.334   5.754 -0.1595  0.5119 -0.6535
 7560TIP3    H144171   6.347   0.316   5.840 -1.1880  0.1441 -0.2456
 7560TIP3    H244172   6.278   0.425   5.760 -1.5326  0.0534 -0.0747
 7561TIP3   OH244173   1.833   3.420  14.663  0.2276 -0.2176 -0.2873
 7561TIP3    H144174   1.794   3.335  14.686 -1.2282  0.8443  1.4790
 7561TIP3    H244175   1.784   3.483  14.715  0.7199  1.8340 -2.1876
 7562TIP3   OH244176   1.348   3.051  12.776  0.2861  0.1187 -0.2319
 7562TIP3    H144177   1.256   3.073  12.760  0.5908  0.1689 -2.1442
 7562TIP3    H244178   1.375   3.002  12.699  2.0354  0.6560 -0.0089
 7563TIP3   OH244179   2.738   0.242  14.425  0.1697  1.0498 -0.2114
 7563TIP3    H144180   2.697   0.221  14.341  0.3920 -0.4558  0.0213
 7563TIP3    H244181   2.720   0.165  14.480  0.4185  1.8126  0.9757
 7564TIP3   OH244182   0.981   2.583  16.594  0.1299 -0.7012 -0.5633
 7564TIP3    H144183   1.003   2.490  16.588  0.0924 -0.7185 -0.4254
 7564TIP3    H244184   0.935   2.602  16.512  2.3373 -0.2045 -1.7798
 7565TIP3   OH244185   2.620   1.309   3.236  0.0134 -0.2587 -0.5396
 7565TIP3    H144186   2.641   1.360   3.158  0.0893 -0.6811 -0.8000
 7565TIP3    H244187   2.693   1.324   3.295  0.3929 -0.6464 -0.9069
 7566TIP3   OH244188   3.834   6.421  14.844 -0.4153 -0.3107 -0.6851
 7566TIP3    H144189   3.858   6.401  14.754  1.2407 -0.1630 -0.3077
 7566TIP3    H244190   3.913   6.460  14.882 -0.3045 -2.3449  1.4345
 7567TIP3   OH244191   1.747   2.617   3.571  0.3358  0.5182  0.5753
 7567TIP3    H144192   1.834   2.654   3.585  0.8953 -0.6423  0.2779
 7567TIP3    H244193   1.760   2.548   3.505 -0.9689  0.9497 -0.1690
 7568TIP3   OH244194   3.660   6.547   0.266 -0.2836  0.2493  0.2895
 7568TIP3    H144195   3.653   6.629   0.219 -0.1738  0.3246  0.4056
 7568TIP3    H244196   3.677   6.572   0.357  1.6462  0.0670  0.0068
 7569TIP3   OH244197   0.907   2.063  16.856  0.4802 -0.0528 -0.4438
 7569TIP3    H144198   0.978   2.026  16.909  0.8688 -1.2742 -1.7499
 7569TIP3    H244199   0.827   2.040  16.903  0.8723  0.1115  0.3225
 7570TIP3   OH244200   4.119   3.143  12.801 -0.4152 -0.4865 -0.2891
 7570TIP3    H144201   4.132   3.102  12.886 -0.5477  0.0712  0.0095
 7570TIP3    H244202   4.138   3.074  12.738  0.8755 -0.5895  0.1670
 7571TIP3   OH244203   0.129   0.265   4.184 -0.2669  0.5987 -0.6250
 7571TIP3    H144204   0.053   0.257   4.126  1.9643 -0.1582 -3.6709
 7571TIP3    H244205   0.157   0.175   4.199  0.3526  0.8909  0.0474
 7572TIP3   OH244206   4.137   2.602   4.316  0.1600 -0.0307 -0.1682
 7572TIP3    H144207   4.153   2.542   4.243  1.0057 -0.4378  0.3435
 7572TIP3    H244208   4.058   2.650   4.290 -0.9168 -1.7871 -0.3210
 7573TIP3   OH244209   2.543   5.458   5.892  0.7308  0.2412  0.6026
 7573TIP3    H144210   2.487   5.532   5.865 -3.0399 -2.5930 -0.2518
 7573TIP3    H244211   2.518   5.441   5.982  0.4505 -0.8489  0.3308
 7574TIP3   OH244212   4.786   5.443  12.896  0.0295 -0.0598  0.1503
 7574TIP3    H144213   4.782   5.450  12.991 -0.2750 -1.4949  0.2587
 7574TIP3    H244214   4.694   5.438  12.869  0.1166  0.2975 -0.2310
 7575TIP3   OH244215   4.707   3.029  15.828 -0.9049  0.5383  0.4310
 7575TIP3    H144216   4.659   3.078  15.894 -1.8008 -1.6625  1.5054
 7575TIP3    H244217   4.653   3.035  15.749 -1.4414  0.5471  0.7961
 7576TIP3   OH244218   3.578   1.515  17.059 -0.5029 -0.5551 -0.1048
 7576TIP3    H144219   3.658   1.463  17.055  0.5348  0.8713  0.8753
 7576TIP3    H244220   3.596   1.591  17.003 -1.1346 -0.1828  0.1829
 7577TIP3   OH244221   2.889   4.849  11.887  0.2229  0.0169  0.1040
 7577TIP3    H144222   2.895   4.934  11.843  0.9558 -0.5778 -0.9883
 7577TIP3    H244223   2.905   4.869  11.979 -0.6786  1.1995  0.0343
 7578TIP3   OH244224   5.766   6.054  14.645  0.1663 -0.0911  0.0128
 7578TIP3    H144225   5.728   6.140  14.665 -0.4580  0.1598 -1.9913
 7578TIP3    H244226   5.850   6.074  14.603  0.8510 -0.5413  1.1330
 7579TIP3   OH244227   0.355   0.548  15.075  0.3340 -0.0199 -0.1106
 7579TIP3    H144228   0.296   0.558  15.000 -0.1124 -2.9136 -0.2421
 7579TIP3    H244229   0.397   0.464  15.062 -0.0715 -0.8651  3.0965
 7580TIP3   OH244230   1.547   0.069  14.395 -0.1682 -0.1958  0.4078
 7580TIP3    H144231   1.625   0.103  14.439 -0.8932  0.6520  1.0941
 7580TIP3    H244232   1.513   0.002  14.454  0.2551 -0.8328 -0.0737
 7581TIP3   OH244233   6.364   2.057   3.244 -0.4607  0.3480 -0.8282
 7581TIP3    H144234   6.268   2.061   3.240 -0.4827 -0.6840 -2.9316
 7581TIP3    H244235   6.393   2.111   3.171  0.5488  0.2025 -0.5530
 7582TIP3   OH244236   3.286   0.756  16.454  0.1507 -0.3829 -0.4509
 7582TIP3    H144237   3.312   0.724  16.541  1.8450  0.6249 -0.5386
 7582TIP3    H244238   3.342   0.707  16.393  0.1943  0.1426 -0.8390
 7583TIP3   OH244239   6.264   0.828  14.319 -0.2247 -0.7372 -0.4351
 7583TIP3    H144240   6.196   0.830  14.251  1.6558  0.4986 -2.4470
 7583TIP3    H244241   6.338   0.785  14.277  1.2690  0.7649  0.5267
 7584TIP3   OH244242   0.605   5.760   2.302  0.1829  0.4177  0.3120
 7584TIP3    H144243   0.645   5.742   2.388 -0.4709 -0.3889  0.4603
 7584TIP3    H244244   0.616   5.678   2.253  1.4381  1.1828 -0.7545
 7585TIP3   OH244245   2.693   1.982  11.054  0.1928  0.3709 -0.0708
 7585TIP3    H144246   2.734   2.037  10.987 -0.0551 -0.7384 -1.1637
 7585TIP3    H244247   2.701   1.893  11.020 -1.9847 -0.0054  0.2512
 7586TIP3   OH244248   5.420   5.425  14.542  0.3500  0.1016  0.2421
 7586TIP3    H144249   5.515   5.426  14.558  0.3806 -0.8071  0.1483
 7586TIP3    H244250   5.407   5.351  14.483 -0.3438  0.6222 -0.2596
 7587TIP3   OH244251   0.476   3.915   0.178 -0.6435  0.3191  0.3271
 7587TIP3    H144252   0.425   3.877   0.106  0.2575  0.5626 -0.4572
 7587TIP3    H244253   0.478   3.846   0.245  0.4021 -0.7910 -0.8024
 7588TIP3   OH244254   1.359   0.310  11.878  0.5570  0.3158  0.0264
 7588TIP3    H144255   1.347   0.405  11.881  0.4201  0.2711  1.0962
 7588TIP3    H244256   1.339   0.286  11.787 -1.6984  1.0177  0.2672
 7589TIP3   OH244257   5.064   1.415  14.843  0.2340 -0.4164 -0.1618
 7589TIP3    H144258   5.070   1.365  14.762 -1.1657 -0.8568 -0.0183
 7589TIP3    H244259   4.995   1.480  14.827  0.1823 -0.2829  0.5524
 7590TIP3   OH244260   2.385   2.148   3.016 -0.7997  0.9928 -0.9930
 7590TIP3    H144261   2.427   2.071   2.978  1.7870  2.0910 -0.6357
 7590TIP3    H244262   2.324   2.114   3.081 -1.3344 -0.7600 -2.3503
 7591TIP3   OH244263   2.636   6.104   5.676  0.0965  0.1459  0.2695
 7591TIP3    H144264   2.563   6.157   5.643 -0.7203 -1.2400 -0.2084
 7591TIP3    H244265   2.692   6.167   5.722 -0.0957  1.7013 -1.4857
 7592TIP3   OH244266   1.516   1.356   5.937  0.3931  0.4041  0.0710
 7592TIP3    H144267   1.558   1.343   5.852  1.4698 -0.0583  0.6533
 7592TIP3    H244268   1.482   1.270   5.960 -1.5992  0.9203 -0.7292
 7593TIP3   OH244269   0.832   4.600  12.795  0.1768  0.1888  0.5237
 7593TIP3    H144270   0.813   4.528  12.855  0.1772 -0.6276 -0.4297
 7593TIP3    H244271   0.906   4.570  12.744  0.1551  0.8560  0.0860
 7594TIP3   OH244272   6.578   0.767  12.465 -0.0428  0.1376 -0.1728
 7594TIP3    H144273   6.597   0.812  12.548 -1.7030 -0.6893  0.6935
 7594TIP3    H244274   6.633   0.812  12.401  1.9945  0.2171  1.5077
 7595TIP3   OH244275   5.869   4.046   5.390 -0.0654 -0.4322 -0.3064
 7595TIP3    H144276   5.822   4.087   5.317 -0.3650 -1.1475 -0.5256
 7595TIP3    H244277   5.834   3.957   5.394  2.5290 -1.6468 -1.6973
 7596TIP3   OH244278   0.095   2.061   1.724 -0.1308  0.0518 -0.1703
 7596TIP3    H144279   0.114   2.109   1.644 -0.2638  3.4226  1.6657
 7596TIP3    H244280   0.001   2.044   1.720  0.0866 -1.0603 -1.2884
 7597TIP3   OH244281   5.559   0.047   4.733  0.3997  0.4088  0.1011
 7597TIP3    H144282   5.481  -0.000   4.762  1.2751 -0.3144  1.3649
 7597TIP3    H244283   5.538   0.139   4.747 -2.2174  0.8042 -4.4840
 7598TIP3   OH244284   1.338   0.670  12.326 -0.6086  0.1665 -0.3113
 7598TIP3    H144285   1.384   0.589  12.304  0.0928  0.8780 -1.5498
 7598TIP3    H244286   1.278   0.645  12.396 -2.9238 -2.2564 -2.9224
 7599TIP3   OH244287   1.200   5.819   6.134 -0.1433 -0.2304  0.1193
 7599TIP3    H144288   1.276   5.831   6.077  0.0448 -0.0023  0.4132
 7599TIP3    H244289   1.125   5.841   6.079 -0.0229 -0.7735 -0.2688
 7600TIP3   OH244290   4.509   4.379   1.190  0.7339  0.1606 -0.1477
 7600TIP3    H144291   4.563   4.440   1.140  0.4780  2.4386  2.1334
 7600TIP3    H244292   4.554   4.371   1.275 -0.2280 -1.4005  0.2609
 7601TIP3   OH244293   1.328   2.306   0.388 -0.3256  0.0337 -0.1962
 7601TIP3    H144294   1.251   2.356   0.412 -0.7908 -0.1829 -1.1548
 7601TIP3    H244295   1.379   2.299   0.468 -0.4002  1.7440  0.0345
 7602TIP3   OH244296   2.519   0.277  15.253 -0.1047 -0.3517  0.1027
 7602TIP3    H144297   2.438   0.255  15.299  0.9613  1.0684  2.9217
 7602TIP3    H244298   2.585   0.221  15.292  0.5634 -0.3847 -1.0318
 7603TIP3   OH244299   0.961   4.006   0.766 -0.4377  0.8489  0.0445
 7603TIP3    H144300   1.005   3.994   0.850  0.1438  1.9755 -0.0735
 7603TIP3    H244301   1.031   3.999   0.701 -1.1432 -1.7072 -0.5143
 7604TIP3   OH244302   4.638   2.086  17.068  0.0567 -0.1416 -0.7512
 7604TIP3    H144303   4.703   2.068  17.000  1.1994 -1.2519  0.5798
 7604TIP3    H244304   4.689   2.123  17.140 -1.3206  2.3484 -0.9423
 7605TIP3   OH244305   2.498   4.424   3.648 -0.1908  0.2322 -0.1506
 7605TIP3    H144306   2.496   4.411   3.554 -0.6429 -1.6339  0.0747
 7605TIP3    H244307   2.585   4.394   3.674  0.0124  0.9451  0.0125
 7606TIP3   OH244308   1.578   6.489  15.300  0.0835  0.2036 -0.2776
 7606TIP3    H144309   1.585   6.513  15.207 -2.4813 -2.5190 -1.3399
 7606TIP3    H244310   1.640   6.417  15.311 -2.1083 -1.9146 -0.9722
 7607TIP3   OH244311   3.059   2.826   6.810  0.2065 -0.0314  0.0115
 7607TIP3    H144312   2.982   2.820   6.868 -0.7419 -0.1406 -1.2212
 7607TIP3    H244313   3.104   2.743   6.823 -0.4900 -0.4311 -0.0668
 7608TIP3   OH244314   0.916   2.500   4.252  0.4542  0.3240 -0.2949
 7608TIP3    H144315   0.868   2.486   4.170  0.9762 -0.1499 -0.5329
 7608TIP3    H244316   0.859   2.465   4.320 -0.2513  1.2786 -0.3814
 7609TIP3   OH244317   0.844   6.256  12.919  0.1068  0.2646 -0.0744
 7609TIP3    H144318   0.854   6.172  12.962  0.6186  0.1487 -0.4146
 7609TIP3    H244319   0.870   6.240  12.828 -0.1769  0.6951 -0.2355
 7610TIP3   OH244320   1.541   4.832   5.614  0.1379 -0.6114  0.5683
 7610TIP3    H144321   1.501   4.918   5.604  0.9572 -0.4221 -1.6830
 7610TIP3    H244322   1.467   4.771   5.612 -0.2760 -0.2049 -2.5909
 7611TIP3   OH244323   1.596   3.896   0.793 -0.3238  0.2172  0.2111
 7611TIP3    H144324   1.650   3.909   0.715 -1.0417  0.0647 -0.3203
 7611TIP3    H244325   1.604   3.978   0.842 -0.7944  0.7509 -0.6008
 7612TIP3   OH244326   6.080   4.029   0.268 -0.0994 -0.9608 -0.1404
 7612TIP3    H144327   6.150   4.086   0.300 -0.6896 -0.7932  0.8933
 7612TIP3    H244328   6.000   4.081   0.278 -0.7434 -2.1781  1.4841
 7613TIP3   OH244329   4.731   2.241   1.403 -0.4092  0.2579  0.1786
 7613TIP3    H144330   4.704   2.233   1.311 -0.9703 -0.8904  0.4167
 7613TIP3    H244331   4.822   2.213   1.404  0.4711  2.8355 -0.4161
 7614TIP3   OH244332   2.088   5.322   1.689 -0.4531 -0.0598 -0.1773
 7614TIP3    H144333   1.994   5.326   1.674 -0.2979  0.6077 -1.0525
 7614TIP3    H244334   2.126   5.373   1.618  0.5434  0.1170  0.4559
 7615TIP3   OH244335   3.315   2.549  14.232  0.0980  0.4058 -0.0347
 7615TIP3    H144336   3.290   2.488  14.162  2.0207 -1.1636  0.5599
 7615TIP3    H244337   3.237   2.603  14.245 -1.2291 -1.0243 -1.5262
 7616TIP3   OH244338   2.058   3.863  12.538  0.2678  0.6189  0.1080
 7616TIP3    H144339   2.007   3.851  12.458  2.1324 -1.3500 -0.8911
 7616TIP3    H244340   1.993   3.879  12.606 -1.4451  1.2140 -1.6004
 7617TIP3   OH244341   1.511   2.522  11.048 -0.5677 -0.1245  0.3444
 7617TIP3    H144342   1.586   2.466  11.030 -1.6326 -1.7698  0.7848
 7617TIP3    H244343   1.537   2.571  11.126  0.5722  0.3887 -0.3297
 7618TIP3   OH244344   1.611   2.776   5.133  0.2344  0.0129 -0.2828
 7618TIP3    H144345   1.635   2.867   5.118 -1.7878  0.9909  1.7867
 7618TIP3    H244346   1.516   2.775   5.125 -0.0254 -1.3344  2.1964
 7619TIP3   OH244347   0.756   2.663   1.367  0.2855 -0.2433 -0.5338
 7619TIP3    H144348   0.843   2.642   1.334  0.4171  1.1911 -1.1926
 7619TIP3    H244349   0.772   2.709   1.450  0.2391  0.9433 -1.1580
 7620TIP3   OH244350   0.883   4.293  13.311 -0.2467 -0.5595 -0.6006
 7620TIP3    H144351   0.858   4.211  13.354 -2.1040 -0.2458 -0.9538
 7620TIP3    H244352   0.907   4.351  13.382 -0.9047 -0.8066 -0.1583
 7621TIP3   OH244353   6.470   2.926   1.837 -0.2509 -0.2760  0.0122
 7621TIP3    H144354   6.518   2.844   1.827  1.0911  0.3284  1.1401
 7621TIP3    H244355   6.429   2.940   1.752  1.1587 -1.1095 -0.8456
 7622TIP3   OH244356   6.262   5.115   0.600 -0.1455 -0.4847 -0.0810
 7622TIP3    H144357   6.214   5.059   0.661  2.3043 -0.7789  1.7017
 7622TIP3    H244358   6.296   5.186   0.654 -1.0751  1.4497 -1.8561
 7623TIP3   OH244359   4.415   5.747  16.886  0.0985 -0.1147  0.4787
 7623TIP3    H144360   4.468   5.815  16.927  0.3013  0.2095 -0.3061
 7623TIP3    H244361   4.432   5.756  16.792 -1.0251 -0.2783  0.2398
 7624TIP3   OH244362   3.460   2.096  10.821 -0.0155  0.2057  0.2805
 7624TIP3    H144363   3.433   2.145  10.744  0.6738  0.0367 -0.0755
 7624TIP3    H244364   3.546   2.132  10.843 -0.4322  0.6219  1.2952
 7625TIP3   OH244365   0.981   1.491  16.203 -0.5709  0.1700  0.0525
 7625TIP3    H144366   1.035   1.547  16.147 -0.5162 -0.8917 -1.0150
 7625TIP3    H244367   0.904   1.544  16.223 -0.7477  0.4664 -1.3271
 7626TIP3   OH244368   2.714   0.826  14.769 -0.0168 -0.2559  0.1458
 7626TIP3    H144369   2.802   0.820  14.732  0.1306  1.8995 -0.0251
 7626TIP3    H244370   2.685   0.736  14.778  1.0684 -0.9856 -2.5511
 7627TIP3   OH244371   2.821   6.517   1.944 -0.1918  0.7859 -0.2146
 7627TIP3    H144372   2.828   6.442   2.003  1.7090  1.6486  0.7474
 7627TIP3    H244373   2.781   6.586   1.997  2.5452  1.9235  0.5915
 7628TIP3   OH244374   6.765   6.167   3.221  0.1577 -0.0425  0.4082
 7628TIP3    H144375   6.828   6.228   3.259  2.5464 -2.1629  0.1239
 7628TIP3    H244376   6.747   6.104   3.291 -0.0987 -0.5750 -0.1228
 7629TIP3   OH244377   1.714   3.502   5.812 -0.0243 -0.1692 -0.5769
 7629TIP3    H144378   1.777   3.478   5.880  0.2841  1.4417 -0.2413
 7629TIP3    H244379   1.629   3.496   5.856  0.1466  0.5139 -0.1238
 7630TIP3   OH244380   3.837   2.160  12.253 -0.4195  0.4102 -0.3587
 7630TIP3    H144381   3.866   2.070  12.268  0.1348  0.3069 -1.9233
 7630TIP3    H244382   3.746   2.160  12.284  0.2816 -0.0141  1.9056
 7631TIP3   OH244383   0.474   5.854  14.194 -0.2479  0.4698 -0.2614
 7631TIP3    H144384   0.430   5.939  14.188 -0.2669  0.4228 -0.9567
 7631TIP3    H244385   0.566   5.875  14.208 -0.6256  0.5552  2.6126
 7632TIP3   OH244386   5.384   1.165  14.751  0.1180  0.1744  1.3272
 7632TIP3    H144387   5.323   1.163  14.825  0.2833 -0.4380  1.4483
 7632TIP3    H244388   5.376   1.254  14.717 -1.6766 -0.2053  0.6379
 7633TIP3   OH244389   0.979   0.250  11.781 -0.2459 -0.4659 -0.7880
 7633TIP3    H144390   1.029   0.315  11.732 -0.4835  0.8850  0.6899
 7633TIP3    H244391   0.967   0.178  11.719  1.4083  0.2031 -1.9510
 7634TIP3   OH244392   3.975   1.564  13.512 -0.5538 -0.4827 -0.5460
 7634TIP3    H144393   3.927   1.486  13.484  0.8949 -1.4180 -0.4915
 7634TIP3    H244394   4.063   1.552  13.478  0.0207  0.5647  0.4898
 7635TIP3   OH244395   2.084   4.040   1.265 -0.6473 -0.4943 -0.1017
 7635TIP3    H144396   2.089   3.949   1.297 -2.2411 -0.3742  0.5618
 7635TIP3    H244397   2.080   4.093   1.344 -0.5476  0.1049 -0.4941
 7636TIP3   OH244398   3.403   5.116  11.440 -0.0046  0.8310  0.0815
 7636TIP3    H144399   3.464   5.164  11.496  2.3188 -0.9152 -0.7861
 7636TIP3    H244400   3.431   5.137  11.351 -0.3787 -0.3737 -0.3388
 7637TIP3   OH244401   6.376   1.771   2.307 -0.1113  0.0388 -0.5135
 7637TIP3    H144402   6.315   1.697   2.300 -0.4234  0.2772 -0.3525
 7637TIP3    H244403   6.445   1.738   2.365 -0.5144  0.0377 -0.0167
 7638TIP3   OH244404   4.248   6.481  11.856  0.3711 -0.0059 -0.0583
 7638TIP3    H144405   4.271   6.468  11.948 -1.4218  0.3177  0.4932
 7638TIP3    H244406   4.331   6.490  11.811  1.3061 -0.6434  1.4631
 7639TIP3   OH244407   1.747   0.757  12.464 -0.3694 -0.1194 -0.2662
 7639TIP3    H144408   1.717   0.766  12.374 -1.0244  0.1370 -0.0326
 7639TIP3    H244409   1.779   0.667  12.470 -0.2036 -0.0962 -0.7872
 7640TIP3   OH244410   4.990   1.496   6.080  0.4838  0.0827 -0.7582
 7640TIP3    H144411   4.976   1.402   6.065  1.3788  0.0409 -1.4285
 7640TIP3    H244412   5.081   1.511   6.055  0.7929  0.8650  0.7495
 7641TIP3   OH244413   4.593   0.173  16.100  0.2674 -0.0135  0.2948
 7641TIP3    H144414   4.519   0.138  16.051  1.1308 -1.0462 -0.2982
 7641TIP3    H244415   4.647   0.216  16.034  0.6715 -0.0721  0.5897
 7642TIP3   OH244416   2.707   6.086  12.748  0.0694  0.1027 -0.4507
 7642TIP3    H144417   2.613   6.088  12.766  0.3214 -0.9107  1.2686
 7642TIP3    H244418   2.718   6.017  12.683 -0.3809  0.3750 -0.8233
 7643TIP3   OH244419   6.460   2.379  14.012  0.3169 -0.3741 -0.5317
 7643TIP3    H144420   6.523   2.332  14.067  0.3426  1.5922  1.2667
 7643TIP3    H244421   6.465   2.469  14.043 -1.2051  0.4215 -2.4291
 7644TIP3   OH244422   4.802   3.068   1.636  0.2181  0.2608  0.3123
 7644TIP3    H144423   4.711   3.059   1.664 -0.0948  3.1221  0.5137
 7644TIP3    H244424   4.803   3.028   1.548 -1.6389  1.5236 -0.3482
 7645TIP3   OH244425   0.900   6.540   3.632  0.0021  0.4027 -0.2467
 7645TIP3    H144426   0.964   6.557   3.563 -0.1969 -1.4705 -0.9272
 7645TIP3    H244427   0.898   6.622   3.682  0.8055  1.5039 -1.9037
 7646TIP3   OH244428   2.796   5.584  11.523 -0.0003 -0.9803 -0.4690
 7646TIP3    H144429   2.888   5.611  11.520  0.2093 -1.7971 -2.0720
 7646TIP3    H244430   2.748   5.663  11.499  0.4664 -1.2305 -2.4020
 7647TIP3   OH244431   2.337   5.736   4.584 -0.0877 -0.1580  0.2843
 7647TIP3    H144432   2.326   5.809   4.523 -0.2390  0.9447  1.5808
 7647TIP3    H244433   2.274   5.754   4.654  1.1416 -0.5552  1.5205
 7648TIP3   OH244434   4.865   6.639  11.570  0.3836 -0.7910 -0.0015
 7648TIP3    H144435   4.884   6.563  11.514 -0.8389 -1.5817  0.5977
 7648TIP3    H244436   4.834   6.706  11.509  0.4068 -1.1585 -0.4277
 7649TIP3   OH244437   1.918   1.426   6.657  0.5833 -0.5405 -0.5184
 7649TIP3    H144438   1.921   1.508   6.707  0.3696 -0.2891 -0.9187
 7649TIP3    H244439   1.825   1.409   6.645  0.6270  0.2561 -2.2251
 7650TIP3   OH244440   5.590   5.551  13.403 -0.5934 -0.6420  0.7478
 7650TIP3    H144441   5.649   5.508  13.341 -0.8257  0.5115 -0.3106
 7650TIP3    H244442   5.517   5.490  13.412 -0.4099 -0.9668  0.1248
 7651TIP3   OH244443   6.027   2.785  16.665 -0.6078 -0.0978  0.1706
 7651TIP3    H144444   6.017   2.696  16.697  0.2635  0.2849  1.6359
 7651TIP3    H244445   6.118   2.808  16.685 -0.9830  1.3195  0.4260
 7652TIP3   OH244446   0.195   1.463  15.285  0.6390  0.2496  0.2374
 7652TIP3    H144447   0.214   1.529  15.351 -0.1105  0.1495  0.5636
 7652TIP3    H244448   0.183   1.382  15.335 -1.5045  0.4711  0.1780
 7653TIP3   OH244449   2.337   2.088  16.175  0.0015 -0.1014  0.3153
 7653TIP3    H144450   2.249   2.115  16.200  0.3383  0.2997  1.0946
 7653TIP3    H244451   2.356   2.139  16.096 -0.0985  0.5154  0.6890
 7654TIP3   OH244452   0.214   1.857  13.021  0.1001  0.0296 -0.6485
 7654TIP3    H144453   0.196   1.943  13.059 -1.7599 -0.7638  0.3860
 7654TIP3    H244454   0.309   1.848  13.024  0.3013  1.8933 -0.4730
 7655TIP3   OH244455   4.108   5.009  14.584  0.1694  0.0053  0.5776
 7655TIP3    H144456   4.072   4.992  14.671 -0.6042  2.0335  0.7287
 7655TIP3    H244457   4.202   5.023  14.599  0.3959 -1.5328  0.7619
 7656TIP3   OH244458   4.321   4.275   2.605  0.3173 -0.4968  0.3540
 7656TIP3    H144459   4.341   4.281   2.698  1.5007 -1.4913  0.1905
 7656TIP3    H244460   4.228   4.295   2.599  0.3988  0.4052  1.6392
 7657TIP3   OH244461   5.843   4.906  11.823 -0.3181 -0.2672 -0.2361
 7657TIP3    H144462   5.911   4.948  11.770 -1.5609  1.0161 -0.8641
 7657TIP3    H244463   5.761   4.923  11.776 -1.1338 -1.4909  0.6744
 7658TIP3   OH244464   6.224   2.305   2.725 -0.1425  0.3531 -0.3366
 7658TIP3    H144465   6.296   2.349   2.679  0.4398 -0.8007 -0.5828
 7658TIP3    H244466   6.155   2.371   2.731 -0.5159  0.4415 -3.4837
 7659TIP3   OH244467   3.876   2.159   3.277 -0.0688  0.0443 -0.4430
 7659TIP3    H144468   3.969   2.172   3.257 -0.4793  2.6415 -1.1157
 7659TIP3    H244469   3.846   2.096   3.211  0.3792  2.4268 -3.1626
 7660TIP3   OH244470   4.055   4.671  16.923 -0.6291 -0.1299 -0.1366
 7660TIP3    H144471   3.976   4.643  16.877 -1.3024 -0.1836  0.9976
 7660TIP3    H244472   4.099   4.589  16.945  0.1351 -0.0761 -1.3969
 7661TIP3   OH244473   6.643   2.678  17.358 -0.0206  0.2201  0.9083
 7661TIP3    H144474   6.562   2.691  17.407 -1.0734  0.1303 -0.7273
 7661TIP3    H244475   6.641   2.746  17.291  1.8880  0.9972  1.5908
 7662TIP3   OH244476   2.618   3.844  12.038 -0.3648  0.0774 -0.3556
 7662TIP3    H144477   2.669   3.807  12.110 -3.4450  0.8486  2.4514
 7662TIP3    H244478   2.557   3.774  12.013 -2.5136  1.2472  1.2202
 7663TIP3   OH244479   6.459   5.179  16.379  0.0670  0.0855  0.2272
 7663TIP3    H144480   6.438   5.261  16.424 -0.8444  0.1739 -0.3417
 7663TIP3    H244481   6.499   5.124  16.447  1.1690  1.1822  0.4848
 7664TIP3   OH244482   4.957   5.722   5.917  0.0570  0.3709  0.1698
 7664TIP3    H144483   4.895   5.700   5.986 -2.1242 -1.6833 -2.2271
 7664TIP3    H244484   5.012   5.644   5.909  0.6731  0.8211 -0.0244
 7665TIP3   OH244485   5.860   4.188  13.365  0.5896 -0.4784  0.6244
 7665TIP3    H144486   5.877   4.235  13.284  1.4121 -0.8038  0.5898
 7665TIP3    H244487   5.936   4.131  13.375  0.1675 -0.9408  1.2678
 7666TIP3   OH244488   4.480   4.997  11.385 -0.7252 -0.4447 -0.3603
 7666TIP3    H144489   4.450   5.087  11.378  1.5987  0.5049  0.9370
 7666TIP3    H244490   4.518   4.978  11.299 -3.0062 -0.9609 -1.3220
 7667TIP3   OH244491   5.916   1.361  12.555 -0.2535  0.2484  0.2475
 7667TIP3    H144492   5.822   1.378  12.565 -0.3388  0.9957 -1.5989
 7667TIP3    H244493   5.958   1.435  12.598 -0.5882  2.1745 -2.5360
 7668TIP3   OH244494   2.132   1.678  12.323  0.3138 -0.3626 -0.3654
 7668TIP3    H144495   2.040   1.659  12.305  0.6167 -0.9536 -1.4446
 7668TIP3    H244496   2.154   1.624  12.399 -0.3415  0.1435  0.1908
 7669TIP3   OH244497   3.781   1.933   5.095  0.3916  0.0587 -0.0815
 7669TIP3    H144498   3.823   1.958   5.177 -0.0880 -1.5948  0.7251
 7669TIP3    H244499   3.737   1.850   5.116 -1.5664  0.6880 -1.4249
 7670TIP3   OH244500   1.820   3.287   4.197 -0.0212 -0.3911  0.0842
 7670TIP3    H144501   1.839   3.194   4.195  0.6803 -0.3631 -4.0907
 7670TIP3    H244502   1.727   3.293   4.217 -0.0562 -1.9677  0.4528
 7671TIP3   OH244503   0.220   5.022  12.985  0.2522 -0.7196 -0.6361
 7671TIP3    H144504   0.182   5.091  13.040  0.0638 -2.0617  0.9967
 7671TIP3    H244505   0.280   5.068  12.927 -0.4709  0.9160 -0.1428
 7672TIP3   OH244506   0.422   3.728  14.141 -0.5569  0.0165  0.4761
 7672TIP3    H144507   0.504   3.702  14.098 -1.6824 -0.4750 -1.4926
 7672TIP3    H244508   0.413   3.667  14.214  0.7489 -0.0167  0.6440
 7673TIP3   OH244509   0.747   0.929  12.309  0.4421 -0.0622  0.4372
 7673TIP3    H144510   0.758   1.023  12.324  1.0235 -0.1233  0.4113
 7673TIP3    H244511   0.652   0.915  12.312  0.2947  0.6615 -0.3632
 7674TIP3   OH244512   3.666   4.975   3.249 -0.1409 -0.3343 -0.4869
 7674TIP3    H144513   3.718   5.029   3.309 -2.5735  0.8169  0.7038
 7674TIP3    H244514   3.693   5.003   3.162  0.1919  1.2652  0.0941
 7675TIP3   OH244515   2.205   2.682   3.025  0.0297  0.3451  0.0727
 7675TIP3    H144516   2.136   2.669   2.961 -1.3232  0.3599  1.4655
 7675TIP3    H244517   2.159   2.690   3.109  1.6212  1.6145  0.8957
 7676TIP3   OH244518   3.741   3.009   6.142 -0.8630 -0.1072 -0.3140
 7676TIP3    H144519   3.777   3.071   6.207 -1.1198 -0.5426  0.2546
 7676TIP3    H244520   3.646   3.021   6.149 -0.8850 -0.0618 -0.7079
 7677TIP3   OH244521   5.721   2.464  12.722 -0.0623 -0.5113  0.3595
 7677TIP3    H144522   5.754   2.538  12.773 -0.6020 -0.5235  0.7328
 7677TIP3    H244523   5.715   2.497  12.632  1.1399 -0.5700  0.2496
 7678TIP3   OH244524   1.407   0.848   4.156  0.1463 -0.1164 -0.5294
 7678TIP3    H144525   1.360   0.781   4.107 -0.5962 -0.2351  0.3132
 7678TIP3    H244526   1.378   0.931   4.119 -1.3861 -0.1496  0.4908
 7679TIP3   OH244527   3.997   5.569   5.773 -0.3919 -0.1220  0.0110
 7679TIP3    H144528   4.025   5.571   5.864 -1.0757 -0.5256  0.2348
 7679TIP3    H244529   3.908   5.603   5.774 -1.3961 -2.5689 -0.1103
 7680TIP3   OH244530   2.789   4.693   5.350  0.4554 -0.4405 -0.0903
 7680TIP3    H144531   2.789   4.684   5.255 -1.8122 -0.9740 -0.0927
 7680TIP3    H244532   2.785   4.788   5.365 -0.3071 -0.3867 -0.5727
 7681TIP3   OH244533   1.555   5.517   1.814  0.6115  0.4949  0.2096
 7681TIP3    H144534   1.469   5.559   1.821  1.3075  1.9616  0.5916
 7681TIP3    H244535   1.609   5.581   1.767  1.1499 -1.0066 -1.3342
 7682TIP3   OH244536   4.631   3.531   0.885 -0.2432  0.0240  0.0780
 7682TIP3    H144537   4.620   3.619   0.850 -0.1871  0.5274  1.2724
 7682TIP3    H244538   4.601   3.537   0.976 -1.0035 -1.3809 -0.0430
 7683TIP3   OH244539   2.461   1.562   4.291  0.9247  0.1767  0.1332
 7683TIP3    H144540   2.452   1.656   4.306  0.6496  0.1804 -0.0582
 7683TIP3    H244541   2.395   1.523   4.348 -0.7400  0.2280 -1.6655
 7684TIP3   OH244542   1.701   5.937  16.635 -0.4973 -0.3098  0.5288
 7684TIP3    H144543   1.693   6.032  16.643  2.8230  0.0683  0.7909
 7684TIP3    H244544   1.662   5.903  16.716 -2.7104  0.6601 -0.0454
 7685TIP3   OH244545   1.159   3.716   6.103  0.5693 -0.2674 -0.0991
 7685TIP3    H144546   1.105   3.639   6.085 -1.4985  0.6628  1.6957
 7685TIP3    H244547   1.097   3.781   6.137  2.4169  1.8394 -0.5331
 7686TIP3   OH244548   5.907   5.119   2.956 -0.2265 -0.5810 -0.0200
 7686TIP3    H144549   5.829   5.159   2.917  1.0511 -1.4792 -3.9748
 7686TIP3    H244550   5.891   5.025   2.949  0.4626 -0.7767  0.8957
 7687TIP3   OH244551   0.651   4.139  15.549 -0.0275  0.1540 -0.2521
 7687TIP3    H144552   0.702   4.137  15.630 -0.6602 -1.5366  0.1483
 7687TIP3    H244553   0.704   4.090  15.486 -0.0888  0.4206 -0.5126
 7688TIP3   OH244554   3.040   0.562  16.666  0.3800  0.0209  0.4788
 7688TIP3    H144555   3.067   0.636  16.611  0.7028 -1.4714 -1.4661
 7688TIP3    H244556   3.118   0.542  16.719  0.6566  0.3820  0.2114
 7689TIP3   OH244557   6.302   2.263  15.056 -0.5351  0.4676  0.3378
 7689TIP3    H144558   6.210   2.278  15.038 -0.8896 -2.2246 -0.6182
 7689TIP3    H244559   6.345   2.272  14.971 -0.1032  0.4758  0.5523
 7690TIP3   OH244560   1.626   1.763   0.845 -0.7822 -0.2373 -0.1961
 7690TIP3    H144561   1.619   1.734   0.936 -1.9535 -0.0350 -0.2007
 7690TIP3    H244562   1.598   1.855   0.847 -1.6221 -0.4612 -0.8671
 7691TIP3   OH244563   6.425   4.341  14.275  0.1158 -0.1227 -0.3635
 7691TIP3    H144564   6.395   4.317  14.187  1.6058  0.9074 -1.1828
 7691TIP3    H244565   6.434   4.257  14.320 -0.3684 -0.6970 -1.2824
 7692TIP3   OH244566   2.383   2.660  15.233 -0.0366  0.3958 -0.6886
 7692TIP3    H144567   2.299   2.623  15.260  0.1476  0.0996 -0.5163
 7692TIP3    H244568   2.426   2.684  15.315  0.4813 -0.4086 -0.7200
 7693TIP3   OH244569   4.941   4.985  11.318 -0.4993  0.3167 -0.3405
 7693TIP3    H144570   4.900   4.995  11.404 -1.4434 -2.1896 -0.4208
 7693TIP3    H244571   4.873   4.944  11.264  1.5720 -2.7079 -0.8793
 7694TIP3   OH244572   3.283   5.712   4.899  0.3301 -0.8058  0.4879
 7694TIP3    H144573   3.349   5.759   4.848 -1.2306  1.1022  0.1310
 7694TIP3    H244574   3.266   5.632   4.848 -1.2931  1.1021 -2.1972
 7695TIP3   OH244575   5.757   2.436  11.537 -0.0862 -0.6683 -0.0120
 7695TIP3    H144576   5.725   2.347  11.552  1.7176 -1.9407 -2.8597
 7695TIP3    H244577   5.679   2.486  11.512 -1.1145 -1.4029  1.5638
 7696TIP3   OH244578   5.179   4.499   0.059 -0.6617 -0.0002  0.0416
 7696TIP3    H144579   5.156   4.450  -0.020 -0.2636 -0.9263  0.4820
 7696TIP3    H244580   5.233   4.571   0.027 -1.3693  0.2523 -0.6344
 7697TIP3   OH244581   5.587   4.488  12.566 -0.1139  0.1315 -0.4818
 7697TIP3    H144582   5.568   4.535  12.485 -1.0794  1.5978  0.5503
 7697TIP3    H244583   5.680   4.505  12.582 -0.1863  0.7566 -0.7041
 7698TIP3   OH244584   6.012   4.011  14.407 -0.1397 -0.6497 -0.1617
 7698TIP3    H144585   6.091   4.055  14.438 -1.2606  0.6673  0.9390
 7698TIP3    H244586   6.044   3.949  14.341  1.7711  0.0246  0.0580
 7699TIP3   OH244587   2.993   2.982  13.337  0.0018 -0.0720  0.2273
 7699TIP3    H144588   2.980   2.918  13.407 -1.0448  0.4454  0.5300
 7699TIP3    H244589   3.082   3.015  13.351  0.3906 -1.1226  0.3314
 7700TIP3   OH244590   4.856   2.206  17.228  0.4604 -0.3294 -0.2273
 7700TIP3    H144591   4.951   2.206  17.212  0.9554  0.4283  2.2452
 7700TIP3    H244592   4.847   2.174  17.318 -1.5398  0.6945 -0.0155
 7701TIP3   OH244593   6.190   4.947   4.907 -0.1747 -0.4487 -0.3653
 7701TIP3    H144594   6.102   4.968   4.940 -0.0368 -0.2368 -0.1283
 7701TIP3    H244595   6.183   4.856   4.878 -0.4455 -0.4689 -0.2481
 7702TIP3   OH244596   0.287   4.425  15.592  0.3128  0.3314 -0.0479
 7702TIP3    H144597   0.351   4.390  15.530 -1.7255  1.0616 -2.7300
 7702TIP3    H244598   0.301   4.519  15.591 -0.0280  0.3888  0.2754
 7703TIP3   OH244599   4.374   4.858   0.582  0.1441 -0.1711  0.5100
 7703TIP3    H144600   4.399   4.821   0.497  1.9393  0.9392  0.4816
 7703TIP3    H244601   4.445   4.919   0.602 -1.5295  1.5070  1.6162
 7704TIP3   OH244602   6.286   2.761   3.187  0.2773 -0.6176  0.2767
 7704TIP3    H144603   6.317   2.717   3.266  0.0062 -0.7293  0.3217
 7704TIP3    H244604   6.193   2.774   3.202  0.3117 -0.2286  0.1674
 7705TIP3   OH244605   0.272   3.372  14.559  0.3181 -0.3600  0.2026
 7705TIP3    H144606   0.229   3.287  14.554  0.4874 -0.4012 -0.6262
 7705TIP3    H244607   0.272   3.393  14.653  0.3481 -1.3039  0.4234
 7706TIP3   OH244608   5.123   4.023   1.165  0.1823  0.3970 -0.8173
 7706TIP3    H144609   5.140   3.931   1.188  0.7061  0.4639 -0.9323
 7706TIP3    H244610   5.105   4.021   1.071 -1.9206  0.1295 -0.4648
 7707TIP3   OH244611   1.250   4.224   0.674  0.1010  0.3371 -0.0199
 7707TIP3    H144612   1.195   4.162   0.627 -1.5435  1.1611  0.7284
 7707TIP3    H244613   1.242   4.305   0.623 -0.7265  0.9036  0.9887
 7708TIP3   OH244614   4.658   4.319  16.283 -0.2682 -0.6578 -0.4031
 7708TIP3    H144615   4.672   4.265  16.205 -1.2923  0.0008 -1.0710
 7708TIP3    H244616   4.576   4.286  16.320  0.2162 -0.9692  0.4186
 7709TIP3   OH244617   0.489   6.447  15.598  0.1301  0.7455  0.1736
 7709TIP3    H144618   0.522   6.364  15.565  0.3513 -0.6521  3.4936
 7709TIP3    H244619   0.401   6.454  15.562 -0.2998 -1.4989  0.6388
 7710TIP3   OH244620   5.108   5.416   2.671 -0.2441 -0.5867  0.0220
 7710TIP3    H144621   5.145   5.332   2.698 -0.3862 -1.7012 -2.8441
 7710TIP3    H244622   5.016   5.411   2.696  0.1906 -0.3481  1.7628
 7711TIP3   OH244623   6.632   3.275  14.421  0.0347 -0.2433  0.0317
 7711TIP3    H144624   6.646   3.272  14.516 -0.0574 -2.4565  0.0148
 7711TIP3    H244625   6.695   3.213  14.386 -0.7416 -0.3384 -1.2484
 7712TIP3   OH244626   5.756   3.889   5.986 -0.5075  0.1577 -0.2284
 7712TIP3    H144627   5.686   3.830   5.961 -1.7400  0.4024  2.3358
 7712TIP3    H244628   5.726   3.930   6.067  0.6341  3.6933 -1.3687
 7713TIP3   OH244629   2.164   3.228  12.371 -0.2217 -0.5498 -0.1450
 7713TIP3    H144630   2.192   3.260  12.457  2.0528  0.8080 -1.2970
 7713TIP3    H244631   2.081   3.273  12.355 -0.4204 -0.4236  1.0915
 7714TIP3   OH244632   1.691   2.643   5.886 -0.2356  0.6642  0.8641
 7714TIP3    H144633   1.700   2.719   5.829 -0.7388  0.6647  0.7828
 7714TIP3    H244634   1.650   2.576   5.831  0.1963  0.3355  0.9379
 7715TIP3   OH244635   0.675   1.665   0.258 -0.0654 -0.4401  0.0256
 7715TIP3    H144636   0.604   1.690   0.199 -0.2460 -0.2311  0.3285
 7715TIP3    H244637   0.738   1.736   0.253  0.6640 -1.1365 -1.0921
 7716TIP3   OH244638   5.579   0.449   3.080  0.3642 -0.1395  0.1523
 7716TIP3    H144639   5.516   0.511   3.043  1.3757  1.5181  1.0737
 7716TIP3    H244640   5.640   0.431   3.008  0.0515 -0.1033 -0.1272
 7717TIP3   OH244641   5.878   6.776  11.028 -0.0570  0.4257  0.3624
 7717TIP3    H144642   5.912   6.827  10.955  1.7294  0.1764  0.9808
 7717TIP3    H244643   5.800   6.733  10.993  1.3511 -0.5651 -1.7329
 7718TIP3   OH244644   0.975   2.403   5.209 -0.1010  0.1528  0.2897
 7718TIP3    H144645   0.903   2.354   5.169  0.3132  0.5157 -0.9427
 7718TIP3    H244646   1.002   2.466   5.142  1.0509  0.3535  0.9112
 7719TIP3   OH244647   1.139   1.768  12.394 -0.3513  0.0494 -0.3903
 7719TIP3    H144648   1.188   1.846  12.366 -1.6666  1.7488  1.7758
 7719TIP3    H244649   1.166   1.755  12.485 -1.6164 -0.8532 -0.1334
 7720TIP3   OH244650   3.580   0.879   2.222 -0.2676 -0.8027 -0.2152
 7720TIP3    H144651   3.632   0.807   2.187  0.9222 -0.0163 -0.1129
 7720TIP3    H244652   3.641   0.952   2.229 -1.1463 -0.1317  0.8484
 7721TIP3   OH244653   5.323   3.947  16.794  0.8284  0.1597 -0.5117
 7721TIP3    H144654   5.227   3.940  16.797  0.5131  3.2456  0.3420
 7721TIP3    H244655   5.353   3.905  16.875  0.3487 -1.7296 -1.2604
 7722TIP3   OH244656   3.891   4.070   2.917  0.6654 -0.0095 -0.0496
 7722TIP3    H144657   3.986   4.060   2.909  0.5908 -0.0050 -0.9752
 7722TIP3    H244658   3.854   4.010   2.853 -0.0510 -2.0489  2.0991
 7723TIP3   OH244659   6.739   3.307  16.157  0.7115 -0.0181  0.4040
 7723TIP3    H144660   6.757   3.393  16.119  0.4250  0.3785  1.1506
 7723TIP3    H244661   6.826   3.268  16.169  0.7906 -0.3869 -1.1526
 7724TIP3   OH244662   2.702   1.835   0.953 -0.5121 -0.1384  0.2098
 7724TIP3    H144663   2.656   1.917   0.934 -0.4723 -0.4105 -1.1759
 7724TIP3    H244664   2.772   1.860   1.013  0.3690  1.1086 -1.2576
 7725TIP3   OH244665   3.274   3.074  12.625 -0.1690 -0.0038 -0.1022
 7725TIP3    H144666   3.356   3.026  12.636  0.2441  0.8273  0.5919
 7725TIP3    H244667   3.231   3.032  12.551  0.3517 -1.1881  0.2522
 7726TIP3   OH244668   4.060   0.858   4.718 -0.5265  0.3664 -0.8437
 7726TIP3    H144669   4.104   0.888   4.638 -1.0303 -1.4506 -1.8727
 7726TIP3    H244670   4.053   0.763   4.706 -0.6960  0.0642  1.3493
 7727TIP3   OH244671   1.107   3.618  15.908 -0.4075  0.1526  0.1178
 7727TIP3    H144672   1.029   3.633  15.854 -1.0484  0.7605  1.1830
 7727TIP3    H244673   1.076   3.623  15.998  0.5928 -1.1609  0.5658
 7728TIP3   OH244674   3.069   3.840  15.999 -0.2298  0.4163 -0.2639
 7728TIP3    H144675   3.109   3.918  15.961  1.1946 -0.5664 -0.8952
 7728TIP3    H244676   2.982   3.869  16.028  0.5155  2.3805  0.1638
 7729TIP3   OH244677   5.705   3.387  16.786  0.0634 -0.7351 -0.3303
 7729TIP3    H144678   5.778   3.427  16.834 -1.0286  0.2614  0.5494
 7729TIP3    H244679   5.662   3.460  16.742 -1.2212 -1.0798  0.2981
 7730TIP3   OH244680   4.938   5.449   6.000 -0.4210  0.0574  0.7281
 7730TIP3    H144681   4.933   5.497   6.083  0.0731 -1.0206  1.4050
 7730TIP3    H244682   4.896   5.364   6.018 -0.3102 -0.1941 -0.1230
 7731TIP3   OH244683   3.712   0.852   0.375 -0.3051 -0.6042  0.2315
 7731TIP3    H144684   3.745   0.941   0.362  1.2359 -1.0576  0.8083
 7731TIP3    H244685   3.653   0.858   0.449 -2.9296  0.5278 -1.7953
 7732TIP3   OH244686   1.657   5.864  17.294 -0.1731  0.2763  0.0166
 7732TIP3    H144687   1.596   5.896  17.360 -0.3212  0.2705 -0.1174
 7732TIP3    H244688   1.631   5.774  17.278  0.5234 -0.0572  0.7217
 7733TIP3   OH244689   5.394   6.697   5.168 -0.4693  0.8067  0.0777
 7733TIP3    H144690   5.440   6.652   5.096 -1.5571  0.7788 -0.6318
 7733TIP3    H244691   5.396   6.634   5.240 -1.3649 -0.1392 -0.6818
 7734TIP3   OH244692   0.220   2.544   2.647 -0.1770  0.4111 -0.4791
 7734TIP3    H144693   0.214   2.608   2.576  0.3526 -0.5163 -1.3896
 7734TIP3    H244694   0.220   2.459   2.603 -5.0487 -0.5832  0.8066
 7735TIP3   OH244695   6.676   3.178  16.386  0.0006  0.0189  0.0563
 7735TIP3    H144696   6.668   3.094  16.341 -2.7161  0.4258 -0.3909
 7735TIP3    H244697   6.715   3.237  16.321 -2.0064  0.0977 -1.1599
 7736TIP3   OH244698   6.476   5.071  14.268  0.0232  0.4388  0.1694
 7736TIP3    H144699   6.440   5.065  14.356  0.3346 -0.3023  0.2452
 7736TIP3    H244700   6.533   4.996  14.259  2.4419  2.1349  0.4245
 7737TIP3   OH244701   2.228   6.450  12.928 -0.1811 -0.0591 -0.9185
 7737TIP3    H144702   2.260   6.446  13.018 -0.1885  1.3944 -0.8171
 7737TIP3    H244703   2.304   6.428  12.874 -0.2438 -1.1916 -0.5646
 7738TIP3   OH244704   0.937   0.160   1.054 -0.5081  0.2676 -0.0880
 7738TIP3    H144705   0.854   0.197   1.085 -0.7314  0.3323 -0.7383
 7738TIP3    H244706   0.973   0.228   0.996 -0.0677  0.1843  0.0873
 7739TIP3   OH244707   4.823   2.216  16.726  0.3223 -0.0917  0.0014
 7739TIP3    H144708   4.728   2.218  16.737 -0.0031 -1.0571 -2.0802
 7739TIP3    H244709   4.853   2.299  16.763 -1.3505  0.3794  0.4057
 7740TIP3   OH244710   1.502   5.877  17.071 -0.5979 -0.1529 -0.1750
 7740TIP3    H144711   1.447   5.809  17.111  0.9735 -2.5241 -1.7961
 7740TIP3    H244712   1.571   5.892  17.134 -2.2283  1.8528  1.2710
 7741TIP3   OH244713   2.810   1.250  12.069  0.3374  0.3114  0.9477
 7741TIP3    H144714   2.895   1.290  12.052  0.8649 -0.9507  0.4450
 7741TIP3    H244715   2.822   1.158  12.043 -1.0432  0.0139  1.3053
 7742TIP3   OH244716   4.570   0.340  14.378  0.6445  0.4287  0.2513
 7742TIP3    H144717   4.629   0.302  14.444 -0.3855  1.1033  1.6025
 7742TIP3    H244718   4.579   0.435  14.390  0.6160  0.5738 -0.7683
 7743TIP3   OH244719   2.686   1.532   4.984  0.0502  0.0206 -0.4007
 7743TIP3    H144720   2.740   1.550   5.061 -0.0153  0.4907 -0.4619
 7743TIP3    H244721   2.748   1.527   4.912  0.3014 -1.9940 -0.1047
 7744TIP3   OH244722   0.687   3.819   1.979  1.1392  0.4940 -0.6300
 7744TIP3    H144723   0.678   3.732   1.940 -0.8245  0.6723 -0.6790
 7744TIP3    H244724   0.624   3.819   2.051  1.0824  1.8863 -0.6599
 7745TIP3   OH244725   3.917   4.042  15.287 -0.5792  0.1923  0.4115
 7745TIP3    H144726   3.903   3.951  15.314 -1.4087  0.7116  1.8101
 7745TIP3    H244727   3.895   4.043  15.194 -0.9330 -0.9627  0.4712
 7746TIP3   OH244728   5.141   2.202  11.658  0.3568  0.1006 -0.3320
 7746TIP3    H144729   5.051   2.186  11.628 -0.5194  1.1752  1.5603
 7746TIP3    H244730   5.134   2.203  11.754  2.3370  0.5226 -0.1667
 7747TIP3   OH244731   2.731   2.299   1.899 -0.3261 -0.0918 -0.5769
 7747TIP3    H144732   2.699   2.256   1.819 -0.6952 -1.4490  0.2703
 7747TIP3    H244733   2.818   2.332   1.875  0.0393 -1.4571 -1.2407
 7748TIP3   OH244734   2.086   5.826  11.977  0.3784 -0.2846 -0.2066
 7748TIP3    H144735   2.030   5.774  11.920  1.1685 -1.7573  0.3252
 7748TIP3    H244736   2.026   5.870  12.037 -0.2841 -0.6822 -0.5675
 7749TIP3   OH244737   6.404   5.221  12.597 -0.2563 -0.2956  0.4704
 7749TIP3    H144738   6.314   5.201  12.569  0.6437 -1.4980 -1.8189
 7749TIP3    H244739   6.416   5.170  12.677 -1.0996 -1.4676 -0.1139
 7750TIP3   OH244740   1.178   0.829   2.825 -0.2967  0.1250  0.1148
 7750TIP3    H144741   1.209   0.750   2.781 -0.3484 -0.0765  0.4346
 7750TIP3    H244742   1.192   0.811   2.918 -2.2653 -0.3850  0.3747
 7751TIP3   OH244743   0.821   0.763   6.474  0.4930  0.2721 -0.1173
 7751TIP3    H144744   0.826   0.685   6.420  0.7191 -0.1158  0.4527
 7751TIP3    H244745   0.753   0.744   6.539  3.6166 -1.4095  3.0074
 7752TIP3   OH244746   6.333   4.176   1.333  0.4749 -0.0915 -0.2186
 7752TIP3    H144747   6.409   4.198   1.387 -1.1328  2.6453  1.0884
 7752TIP3    H244748   6.269   4.141   1.394  0.0463 -0.8655 -1.0715
 7753TIP3   OH244749   1.819   4.414   4.328  0.5074  0.1829  0.0610
 7753TIP3    H144750   1.884   4.410   4.398  1.1535  1.9827 -0.3908
 7753TIP3    H244751   1.761   4.340   4.346  1.6079 -0.3844  1.5300
 7754TIP3   OH244752   2.005   6.170  12.446 -0.4371  0.5257 -0.4162
 7754TIP3    H144753   1.949   6.131  12.513  1.6469 -0.0759  1.0560
 7754TIP3    H244754   1.983   6.264  12.448 -2.1892  0.1575 -0.7408
 7755TIP3   OH244755   2.876   4.833   1.441  0.5818  0.3153 -0.1012
 7755TIP3    H144756   2.915   4.815   1.527  0.0885  3.5867  0.9686
 7755TIP3    H244757   2.950   4.847   1.383  0.9479 -3.2569 -0.6826
 7756TIP3   OH244758   1.612   3.662  12.509  0.3541 -0.1010 -0.2174
 7756TIP3    H144759   1.686   3.620  12.552  0.7672  1.6732  0.9350
 7756TIP3    H244760   1.548   3.592  12.495  1.2663 -1.2023  0.9729
 7757TIP3   OH244761   5.148   3.822   4.664  0.2265 -0.1826  0.0936
 7757TIP3    H144762   5.225   3.871   4.636  1.2303 -1.5613  0.3605
 7757TIP3    H244763   5.084   3.890   4.689  0.9797  0.9937 -1.0447
 7758TIP3   OH244764   4.269   1.128   4.404 -0.5257  0.1687  0.2523
 7758TIP3    H144765   4.212   1.205   4.405 -0.2753  0.3617 -0.1237
 7758TIP3    H244766   4.260   1.093   4.316 -0.7617 -0.3289  0.4737
 7759TIP3   OH244767   1.965   0.378   1.169  0.8455  0.7328 -0.5337
 7759TIP3    H144768   2.056   0.357   1.148  0.2864 -0.2953 -2.1314
 7759TIP3    H244769   1.923   0.393   1.084 -0.5729  0.7503  0.1298
 7760TIP3   OH244770   4.335   4.046   0.517 -0.0118 -0.2769 -0.2426
 7760TIP3    H144771   4.307   4.133   0.545 -0.4412 -1.2185  2.6520
 7760TIP3    H244772   4.399   4.062   0.448 -0.7754  2.2657 -0.4798
 7761TIP3   OH244773   2.068   3.686   2.792 -0.0579  0.2663 -0.6368
 7761TIP3    H144774   2.119   3.701   2.712  1.8182 -1.3890  0.1332
 7761TIP3    H244775   2.133   3.690   2.862 -1.3543 -0.0562  0.6288
 7762TIP3   OH244776   0.525   5.390   3.593  0.0381  0.5188 -0.5965
 7762TIP3    H144777   0.494   5.346   3.513  0.3736  1.5088 -1.2930
 7762TIP3    H244778   0.550   5.478   3.564  2.6357  0.1017  0.0759
 7763TIP3   OH244779   3.491   0.646  16.003 -0.4047 -0.1904  0.0064
 7763TIP3    H144780   3.549   0.676  15.934 -0.9543  1.5607  0.2603
 7763TIP3    H244781   3.404   0.678  15.977 -0.6954  0.0779  1.2495
 7764TIP3   OH244782   6.571   5.602  14.663  0.3160  0.0679 -0.3669
 7764TIP3    H144783   6.552   5.690  14.630 -2.2412 -0.1533  0.2370
 7764TIP3    H244784   6.492   5.551  14.641 -0.3017 -0.8486  3.2739
 7765TIP3   OH244785   6.269   1.236  15.309  0.1418  0.1412  0.2049
 7765TIP3    H144786   6.181   1.200  15.298  0.6354 -0.4019 -2.9089
 7765TIP3    H244787   6.257   1.331  15.304 -0.5362  0.2919  3.0105
 7766TIP3   OH244788   2.837   5.165   6.176  0.1623 -0.2598 -0.5706
 7766TIP3    H144789   2.814   5.079   6.213  3.5331 -0.5580  1.1960
 7766TIP3    H244790   2.833   5.225   6.250  1.6225  0.2903 -0.9142
 7767TIP3   OH244791   5.468   5.615  11.598  0.2230 -0.2087 -0.3416
 7767TIP3    H144792   5.564   5.619  11.599  0.2969 -1.4480  0.9297
 7767TIP3    H244793   5.444   5.622  11.691 -0.8144 -1.6011 -0.4870
 7768TIP3   OH244794   0.343   3.274   6.081  0.0720 -0.4990 -0.0873
 7768TIP3    H144795   0.426   3.290   6.036  0.1642 -2.0411 -0.5092
 7768TIP3    H244796   0.333   3.349   6.140  0.3686  1.1591 -2.0206
 7769TIP3   OH244797   3.404   0.567   4.165  0.0153  0.0308 -0.6566
 7769TIP3    H144798   3.416   0.484   4.210 -1.6452  1.4716  2.8043
 7769TIP3    H244799   3.451   0.631   4.219 -0.5460  1.6589 -2.0000
 7770TIP3   OH244800   2.262   3.540  16.667  0.3738  0.2836  0.8232
 7770TIP3    H144801   2.247   3.582  16.582 -0.6115  0.3254  1.0077
 7770TIP3    H244802   2.176   3.508  16.693  1.0202 -1.4634  0.9061
 7771TIP3   OH244803   5.934   6.604  16.324  0.0516 -0.1033 -0.5535
 7771TIP3    H144804   6.007   6.635  16.377  0.1877  0.0004 -0.7954
 7771TIP3    H244805   5.902   6.683  16.280 -0.2942 -0.1269 -0.3422
 7772TIP3   OH244806   0.965   3.063   5.338  1.0392 -0.1204  0.0989
 7772TIP3    H144807   1.053   3.026   5.343  1.0458 -0.3288 -1.2031
 7772TIP3    H244808   0.915   3.015   5.404  1.4363 -1.3937 -0.5009
 7773TIP3   OH244809   2.714   1.636   6.030 -0.4461 -0.4034  0.3208
 7773TIP3    H144810   2.625   1.632   6.065  0.1755 -2.0328  1.8835
 7773TIP3    H244811   2.764   1.679   6.098  0.3239 -1.3077  0.3420
 7774TIP3   OH244812   2.042   4.721  15.532  0.5318  0.1337 -0.1673
 7774TIP3    H144813   2.040   4.761  15.445  0.8426 -0.2425 -0.3508
 7774TIP3    H244814   2.134   4.699  15.546  0.5457  0.5412  0.4194
 7775TIP3   OH244815   6.334   2.478   2.179  0.0125 -0.3317  0.3970
 7775TIP3    H144816   6.321   2.473   2.274  3.0470 -0.3680  0.8826
 7775TIP3    H244817   6.325   2.387   2.149  0.8477 -0.6122  0.9564
 7776TIP3   OH244818   5.927   1.323   3.061 -0.5356  0.1184  0.5234
 7776TIP3    H144819   5.976   1.361   3.134  1.6289 -0.7749 -0.3793
 7776TIP3    H244820   5.929   1.390   2.993  1.4404 -0.7178 -0.3057
 7777TIP3   OH244821   1.731   5.155  14.010 -0.8274  0.1918 -0.2468
 7777TIP3    H144822   1.655   5.106  13.978 -0.3410 -0.3037 -0.6448
 7777TIP3    H244823   1.712   5.246  13.987 -0.4464 -0.1498 -2.0906
 7778TIP3   OH244824   5.041   1.322   5.139  0.1824 -0.0378 -0.0402
 7778TIP3    H144825   5.086   1.277   5.211  1.3008  0.0786 -0.6463
 7778TIP3    H244826   5.075   1.412   5.142 -0.7868  0.3363  0.1220
 7779TIP3   OH244827   6.042   5.637   4.735 -0.3877 -0.1241 -0.5284
 7779TIP3    H144828   6.109   5.705   4.732 -1.4033  0.9149 -0.2613
 7779TIP3    H244829   5.984   5.658   4.661 -1.5632  0.2345  0.4660
 7780TIP3   OH244830   1.291   6.380  11.776 -0.0199  0.0102  0.3804
 7780TIP3    H144831   1.320   6.377  11.685 -1.7207 -1.1070 -0.1582
 7780TIP3    H244832   1.220   6.316  11.781 -0.3412  0.4646  2.3610
 7781TIP3   OH244833   4.708   2.932  16.549  0.0333 -0.8633 -0.3733
 7781TIP3    H144834   4.677   2.918  16.459  0.1397 -3.3683 -0.0908
 7781TIP3    H244835   4.630   2.920  16.603  0.0371  0.3236 -0.0801
 7782TIP3   OH244836   0.730   0.961   2.123  0.0958 -0.0731  0.1523
 7782TIP3    H144837   0.707   0.872   2.098 -0.5213  0.4102 -1.0697
 7782TIP3    H244838   0.825   0.966   2.111  0.0126 -0.3110 -0.6117
 7783TIP3   OH244839   0.577   6.128  16.862  0.0481 -0.3177  0.8574
 7783TIP3    H144840   0.620   6.210  16.839 -0.3581  0.3453  2.3550
 7783TIP3    H244841   0.533   6.146  16.945 -2.4633 -1.2187 -0.1792
 7784TIP3   OH244842   1.822   4.940  12.564  0.5388  0.0635  0.1479
 7784TIP3    H144843   1.913   4.944  12.535  1.3602 -1.9453  2.0878
 7784TIP3    H244844   1.823   4.977  12.652 -0.6604  0.5772 -0.0381
 7785TIP3   OH244845   0.412   0.573   3.793 -0.6119  0.1348  0.5262
 7785TIP3    H144846   0.369   0.579   3.708  0.6372  2.6787 -0.0201
 7785TIP3    H244847   0.368   0.640   3.847 -0.9574 -1.0042  1.7056
 7786TIP3   OH244848   4.764   4.975   1.100  0.2399  0.2481  0.1744
 7786TIP3    H144849   4.681   5.022   1.087  0.9183  2.4857  2.9997
 7786TIP3    H244850   4.747   4.915   1.173  0.9224  0.1921  0.2930
 7787TIP3   OH244851   0.079   5.744   0.572 -0.0185 -0.2362  0.0712
 7787TIP3    H144852   0.138   5.819   0.571 -2.1543  1.5744  0.7641
 7787TIP3    H244853   0.101   5.697   0.653 -0.5790  1.3863  1.2298
 7788TIP3   OH244854   0.774   6.287   3.239  0.5811 -0.2921 -0.2895
 7788TIP3    H144855   0.771   6.380   3.218 -0.7560  0.0887  1.3445
 7788TIP3    H244856   0.794   6.243   3.156 -0.4911  1.3272 -1.4372
 7789TIP3   OH244857   3.207   3.787  11.510 -0.2547  0.4388 -0.0791
 7789TIP3    H144858   3.229   3.824  11.596 -1.2831 -0.6914  0.7017
 7789TIP3    H244859   3.123   3.828  11.487 -0.4557  0.0254 -0.0922
 7790TIP3   OH244860   0.079   0.711   3.648  0.8342 -0.4856 -0.5520
 7790TIP3    H144861   0.034   0.663   3.718  0.1424 -0.9907 -1.3229
 7790TIP3    H244862   0.075   0.653   3.572 -0.5076  0.9581 -1.6676
 7791TIP3   OH244863   4.666   2.195   5.905 -1.0982 -0.1894  0.0400
 7791TIP3    H144864   4.668   2.286   5.935  1.6716 -0.6305  1.5765
 7791TIP3    H244865   4.576   2.167   5.919 -2.0629  2.3276 -0.6355
 7792TIP3   OH244866   5.514   6.499  15.293  0.3571  0.5182  0.1629
 7792TIP3    H144867   5.573   6.427  15.312 -0.1348 -0.6830 -2.3531
 7792TIP3    H244868   5.571   6.570  15.264  0.6928 -0.7548 -2.6133
 7793TIP3   OH244869   2.295   1.850  16.940  0.1260  0.1848  0.3232
 7793TIP3    H144870   2.219   1.846  16.881 -1.1328  1.9176  1.7025
 7793TIP3    H244871   2.343   1.927  16.912  0.3913  0.1159  0.5850
 7794TIP3   OH244872   0.272   5.627  15.301 -0.1930 -0.1855 -0.0013
 7794TIP3    H144873   0.266   5.533  15.287 -1.0693  0.0781 -1.6332
 7794TIP3    H244874   0.222   5.642  15.382 -0.0340 -1.1089  0.2802
 7795TIP3   OH244875   5.952   4.889   3.973  0.0475 -0.0673 -0.2711
 7795TIP3    H144876   5.867   4.931   3.981 -0.5588 -1.0480 -1.2247
 7795TIP3    H244877   5.935   4.811   3.920  1.1261 -1.5143  1.4196
 7796TIP3   OH244878   4.897   4.400   1.866 -0.6661 -0.2635 -0.0050
 7796TIP3    H144879   4.881   4.449   1.785  0.8653 -1.5251 -1.1163
 7796TIP3    H244880   4.992   4.403   1.877 -0.4529 -3.2497 -0.3379
 7797TIP3   OH244881   4.135   4.233  15.596  0.4241  0.1719  0.0029
 7797TIP3    H144882   4.078   4.277  15.533  1.2532 -0.2986 -1.0896
 7797TIP3    H244883   4.216   4.284  15.595 -0.5307  2.0218  2.9763
 7798TIP3   OH244884   6.290   0.212  11.211 -0.4553  0.2578  0.0735
 7798TIP3    H144885   6.360   0.252  11.263  0.7227 -2.4734  0.7828
 7798TIP3    H244886   6.280   0.269  11.135  2.3591  0.9298  0.1071
 7799TIP3   OH244887   6.012   5.034  12.837  0.1621 -0.0006  0.4179
 7799TIP3    H144888   6.074   4.967  12.809 -1.5102 -2.0339  1.3315
 7799TIP3    H244889   6.022   5.038  12.932 -0.6592  0.1097  0.5067
 7800TIP3   OH244890   6.417   4.768   2.306  0.2012 -0.5294  0.4484
 7800TIP3    H144891   6.436   4.828   2.235  1.4063  1.2299  2.1434
 7800TIP3    H244892   6.482   4.789   2.374 -1.0451 -1.9083  2.1876
 7801TIP3   OH244893   4.428   3.423   5.858 -0.0824  0.1412 -0.8599
 7801TIP3    H144894   4.382   3.344   5.829  0.1153  0.0977 -1.0627
 7801TIP3    H244895   4.383   3.449   5.938  1.4846 -1.6935  0.7137
 7802TIP3   OH244896   0.366   2.196   5.640 -0.5242 -0.1111 -0.1665
 7802TIP3    H144897   0.348   2.112   5.599 -0.8356 -0.9911  1.6545
 7802TIP3    H244898   0.280   2.231   5.663 -0.3699  0.4837 -0.4782
 7803TIP3   OH244899   2.098   2.808  11.089 -0.2196 -0.5132  0.6281
 7803TIP3    H144900   2.076   2.808  10.996  1.0176  0.0323  0.3025
 7803TIP3    H244901   2.145   2.726  11.102  2.0640  0.6061  0.0757
 7804TIP3   OH244902   5.487   6.334  11.649  0.2775 -0.0621 -0.0671
 7804TIP3    H144903   5.425   6.270  11.614  0.0505  0.0950  0.0479
 7804TIP3    H244904   5.464   6.340  11.742  0.8224 -0.4189  0.0941
 7805TIP3   OH244905   0.248   6.086   4.979 -0.2041 -0.2534  0.1792
 7805TIP3    H144906   0.237   6.181   4.979  0.7474 -0.1234  0.6889
 7805TIP3    H244907   0.328   6.072   5.030  0.0545 -1.2827 -0.4836
 7806TIP3   OH244908   0.802   2.958  17.182 -0.4054  0.0736  0.3151
 7806TIP3    H144909   0.856   2.899  17.130 -0.8875 -1.8515  1.8791
 7806TIP3    H244910   0.720   2.965  17.134 -0.3367 -0.5145  0.1120
 7807TIP3   OH244911   5.704   5.048  17.127  0.0057 -0.3735  0.4220
 7807TIP3    H144912   5.779   4.989  17.126  1.1952  1.0900 -0.5848
 7807TIP3    H244913   5.668   5.044  17.038 -0.1889  0.0445  0.4759
 7808TIP3   OH244914   1.191   5.203  16.978  0.2378 -0.6364 -0.4321
 7808TIP3    H144915   1.112   5.151  16.987 -0.5908  0.2707 -2.0424
 7808TIP3    H244916   1.168   5.289  17.015  0.7217 -0.5871 -0.2305
 7809TIP3   OH244917   2.278   6.582   2.864  0.0023 -0.1292 -1.0808
 7809TIP3    H144918   2.366   6.559   2.835 -0.1723  0.1316 -1.8375
 7809TIP3    H244919   2.286   6.673   2.895  0.1065 -0.2804 -0.6557
 7810TIP3   OH244920   3.261   3.577   4.644  0.2288  0.3673  0.1261
 7810TIP3    H144921   3.217   3.602   4.563  0.8583 -0.3774 -0.4464
 7810TIP3    H244922   3.346   3.543   4.617  0.8130  0.9380  1.1620
 7811TIP3   OH244923   3.812   0.945  16.672  0.0441 -0.3138 -0.6588
 7811TIP3    H144924   3.765   0.909  16.747 -0.3944 -1.3899 -1.4225
 7811TIP3    H244925   3.858   1.021  16.707 -0.8773 -0.2563  0.4896
 7812TIP3   OH244926   2.316   4.685  13.250  0.3173 -0.3472  0.3709
 7812TIP3    H144927   2.266   4.762  13.223 -0.0047  0.5354  3.1295
 7812TIP3    H244928   2.251   4.615  13.256  0.4141 -0.5895 -1.0892
 7813TIP3   OH244929   6.250   4.126  11.874 -0.2956 -0.0723  0.1654
 7813TIP3    H144930   6.346   4.128  11.873 -0.2708 -1.0571 -0.2635
 7813TIP3    H244931   6.228   4.039  11.905 -1.0593  0.1145  0.1649
 7814TIP3   OH244932   1.558   6.511  13.643  0.1834 -0.4127  0.2949
 7814TIP3    H144933   1.653   6.510  13.648  0.1804 -2.0602  0.5337
 7814TIP3    H244934   1.529   6.516  13.734  0.0823 -2.0186  0.3881
 7815TIP3   OH244935   4.700   4.536  12.673 -0.2930  0.3101  0.7546
 7815TIP3    H144936   4.776   4.534  12.616  0.6181  2.1722  1.7844
 7815TIP3    H244937   4.625   4.536  12.614  0.5189 -0.5543 -0.3070
 7816TIP3   OH244938   1.486   1.913   1.312  0.2397 -0.0491 -0.6797
 7816TIP3    H144939   1.570   1.905   1.267  0.6502  1.2871 -0.2138
 7816TIP3    H244940   1.484   1.839   1.373  1.5914  0.4999  0.0777
 7817TIP3   OH244941   4.314   4.957   1.580 -0.0605 -0.1002  0.5287
 7817TIP3    H144942   4.354   4.918   1.502  1.1332  1.5352  0.2695
 7817TIP3    H244943   4.382   5.015   1.615 -0.1166 -1.6248  3.4939
 7818TIP3   OH244944   2.790   2.755  16.701 -0.2201  0.1803 -0.4123
 7818TIP3    H144945   2.790   2.698  16.777 -2.1156  0.5136 -0.1199
 7818TIP3    H244946   2.739   2.832  16.728 -2.8438 -0.6194 -2.6327
 7819TIP3   OH244947   5.282   6.130   2.044  0.0549 -0.1434 -0.1299
 7819TIP3    H144948   5.315   6.173   2.123  0.2407 -1.7489  0.7063
 7819TIP3    H244949   5.360   6.111   1.992 -0.0378  0.6195 -0.5569
 7820TIP3   OH244950   4.652   3.001  11.724 -0.5125 -0.0418 -0.3822
 7820TIP3    H144951   4.653   2.989  11.629 -0.2517  0.7982 -0.4947
 7820TIP3    H244952   4.564   3.034  11.743 -0.2960  0.5884 -0.4465
 7821TIP3   OH244953   2.072   1.180  12.095  0.0833  0.3118  0.1239
 7821TIP3    H144954   2.144   1.198  12.156 -0.3464 -1.2464  1.1648
 7821TIP3    H244955   1.994   1.211  12.141 -0.0074  1.3709 -0.7099
 7822TIP3   OH244956   6.491   5.112  14.743  0.0546 -0.3885  0.1516
 7822TIP3    H144957   6.586   5.118  14.730  0.0902  0.5643  0.7163
 7822TIP3    H244958   6.464   5.203  14.758 -1.2495 -0.3811 -1.9492
 7823TIP3   OH244959   3.506   4.011   3.471 -0.3574 -0.3700  0.2210
 7823TIP3    H144960   3.483   4.073   3.402  0.1499 -1.1943 -0.7191
 7823TIP3    H244961   3.423   3.972   3.497 -0.5761  0.1036  0.2449
 7824TIP3   OH244962   6.325   2.045  17.379  0.1122 -0.0193  0.1837
 7824TIP3    H144963   6.254   1.981  17.380 -0.2637  0.3525 -1.1440
 7824TIP3    H244964   6.404   1.992  17.362  0.1201 -0.3753  1.2262
 7825TIP3   OH244965   3.392   2.107   4.813 -0.1487 -0.0464 -0.0496
 7825TIP3    H144966   3.455   2.040   4.786 -0.0999 -0.0208 -0.0025
 7825TIP3    H244967   3.307   2.064   4.809 -0.2411  0.2161 -1.0894
 7826TIP3   OH244968   4.044   4.631  12.056 -0.1614  0.1139 -0.6245
 7826TIP3    H144969   4.023   4.714  12.012 -1.1651 -0.4552 -1.2675
 7826TIP3    H244970   4.006   4.640  12.143  2.0171  1.3332  0.2833
 7827TIP3   OH244971   3.130   4.835   0.238 -0.6375  0.0219  0.3625
 7827TIP3    H144972   3.140   4.811   0.330 -0.7404 -2.3825 -0.1673
 7827TIP3    H244973   3.182   4.770   0.190 -2.1532 -0.0311 -1.3528
 7828TIP3   OH244974   3.935   5.495  16.941 -0.0804  0.1359 -0.1228
 7828TIP3    H144975   3.981   5.562  16.890 -2.6644  2.0284 -0.1979
 7828TIP3    H244976   4.003   5.453  16.993  1.9868  1.2447 -1.7846
 7829TIP3   OH244977   1.781   0.088   1.200  0.2931 -0.1972  0.4179
 7829TIP3    H144978   1.737   0.169   1.225  2.0163  1.5956 -1.8651
 7829TIP3    H244979   1.873   0.103   1.223  1.2183 -0.0816 -2.8560
 7830TIP3   OH244980   2.636   3.837   4.196 -0.2596  0.4962 -0.1839
 7830TIP3    H144981   2.544   3.863   4.195 -0.3187  0.3299 -2.2723
 7830TIP3    H244982   2.640   3.759   4.140  1.2753  1.0615 -0.9143
 7831TIP3   OH244983   1.479   6.139   6.198 -0.1803  0.8841 -0.3545
 7831TIP3    H144984   1.492   6.231   6.174 -2.7578  1.8088  1.3931
 7831TIP3    H244985   1.394   6.117   6.160 -0.0774 -0.4687  0.1612
 7832TIP3   OH244986   0.862   0.044  13.845 -0.0881 -0.0078  0.4717
 7832TIP3    H144987   0.902   0.110  13.901  0.7429 -0.7292  0.7418
 7832TIP3    H244988   0.893   0.064  13.757 -1.4192  1.1451  0.2199
 7833TIP3   OH244989   5.756   0.541   2.291 -0.0235 -0.3254 -0.1570
 7833TIP3    H144990   5.686   0.488   2.328 -0.8080 -0.8992 -2.3756
 7833TIP3    H244991   5.804   0.483   2.232  0.8308  0.6948 -0.5211
 7834TIP3   OH244992   0.539   2.472  16.530 -0.2621  0.6364  0.0584
 7834TIP3    H144993   0.628   2.498  16.508  0.0848  2.0646  2.7234
 7834TIP3    H244994   0.533   2.485  16.625 -2.9707 -0.5052  0.1342
 7835TIP3   OH244995   0.593   2.955  13.901 -0.3637 -0.4199 -0.0265
 7835TIP3    H144996   0.535   2.988  13.833 -1.2460 -1.1876  0.3290
 7835TIP3    H244997   0.564   2.865  13.916 -0.5271 -0.1162  1.6949
 7836TIP3   OH244998   2.374   3.514   1.639 -0.5746  0.7658 -0.5674
 7836TIP3    H144999   2.376   3.599   1.595 -2.0916  0.6101 -1.0148
 7836TIP3    H245000   2.308   3.524   1.707 -0.7537 -0.0278 -0.6076
 7837TIP3   OH245001   5.585   2.788  16.383 -0.0743  0.4977  0.0474
 7837TIP3    H145002   5.642   2.804  16.307 -1.4638  1.4929 -0.8458
 7837TIP3    H245003   5.585   2.693  16.394  0.1072  0.3211 -1.2656
 7838TIP3   OH245004   5.178   4.296   1.814 -0.5233  0.7665  0.2099
 7838TIP3    H145005   5.232   4.240   1.758 -1.8051 -0.3421  0.0397
 7838TIP3    H245006   5.233   4.373   1.830  1.3281 -0.5392  0.5242
 7839TIP3   OH245007   6.154   6.297   2.981 -0.0974  0.0884  0.6492
 7839TIP3    H145008   6.100   6.231   2.937 -0.1183  1.1680 -1.0127
 7839TIP3    H245009   6.119   6.301   3.070 -1.5680 -0.5252  0.1229
 7840TIP3   OH245010   4.098   0.951   5.552  0.5368  0.3069 -0.2277
 7840TIP3    H145011   4.076   1.024   5.610 -0.5260  1.9964 -2.5995
 7840TIP3    H245012   4.171   0.907   5.596 -0.5380  1.1158  2.6169
 7841TIP3   OH245013   2.242   0.728   1.693 -0.0670 -0.3795 -0.4871
 7841TIP3    H145014   2.159   0.767   1.666 -0.2259 -0.3167  0.0843
 7841TIP3    H245015   2.296   0.803   1.717 -0.0805 -0.4590 -0.2050
 7842TIP3   OH245016   1.168   2.345   3.565  0.2037  0.5293  0.0898
 7842TIP3    H145017   1.254   2.304   3.563 -0.8222 -1.7508 -0.1937
 7842TIP3    H245018   1.170   2.409   3.494  1.3721 -0.1072 -0.4779
 7843TIP3   OH245019   4.135   0.332  13.185  0.0045 -0.0386  0.1274
 7843TIP3    H145020   4.123   0.334  13.090  0.7527 -1.9182 -0.0614
 7843TIP3    H245021   4.184   0.412  13.205 -0.8151  0.7612 -0.9452
 7844TIP3   OH245022   5.099   1.306  15.581 -0.0023 -0.4638 -0.0240
 7844TIP3    H145023   5.195   1.307  15.577 -0.0093  1.3601 -0.4487
 7844TIP3    H245024   5.073   1.252  15.507  0.6842 -1.3459  0.3505
 7845TIP3   OH245025   1.026   6.153   0.743  0.1245  0.1739  0.1660
 7845TIP3    H145026   1.117   6.145   0.713  0.0862  1.3105 -0.3155
 7845TIP3    H245027   0.974   6.155   0.663 -0.2692  0.1132  0.4196
 7846TIP3   OH245028   2.413   6.387  14.686 -0.2585 -0.7463 -0.3826
 7846TIP3    H145029   2.462   6.458  14.643 -0.4685 -0.5400 -0.2809
 7846TIP3    H245030   2.334   6.429  14.720 -0.7654 -1.1722 -0.9957
 7847TIP3   OH245031   1.171   2.301   4.354  0.0101  0.0536 -0.1660
 7847TIP3    H145032   1.225   2.376   4.331 -0.0057  0.2090  0.2888
 7847TIP3    H245033   1.231   2.227   4.355  0.2721  0.2659  0.5847
 7848TIP3   OH245034   1.237   0.947  14.997  0.5496 -0.0365 -0.9671
 7848TIP3    H145035   1.295   0.960  15.072  1.1871 -0.2367 -1.4070
 7848TIP3    H245036   1.214   0.854  15.000  2.1816 -0.5236 -2.1095
 7849TIP3   OH245037   0.586   2.111  13.128 -0.0408  0.6979 -0.0229
 7849TIP3    H145038   0.663   2.117  13.072 -0.5508  0.7796 -0.7240
 7849TIP3    H245039   0.515   2.146  13.075 -0.5688  0.5812  0.6010
 7850TIP3   OH245040   6.270   4.598  13.551  0.2597  0.1822 -0.3601
 7850TIP3    H145041   6.314   4.522  13.589 -0.6635 -0.0220  0.3457
 7850TIP3    H245042   6.181   4.567  13.534 -0.4333  1.3796  0.8883
 7851TIP3   OH245043   2.305   0.116   2.260  0.1839  0.7761 -0.3218
 7851TIP3    H145044   2.343   0.203   2.275  2.5250  0.4255 -3.3066
 7851TIP3    H245045   2.271   0.120   2.171 -2.1069 -0.6445  0.3971
 7852TIP3   OH245046   1.345   1.141   1.529 -0.0523 -0.2792 -0.1362
 7852TIP3    H145047   1.409   1.076   1.560 -0.5923 -2.5524 -3.2932
 7852TIP3    H245048   1.260   1.104   1.553 -0.3526 -0.7007 -1.7011
 7853TIP3   OH245049   1.781   2.349   0.208 -0.0474  0.6508  0.3614
 7853TIP3    H145050   1.713   2.361   0.141  1.3259 -1.9810 -1.6644
 7853TIP3    H245051   1.741   2.291   0.272  0.0383 -0.3469 -0.4730
 7854TIP3   OH245052   6.380   4.862  15.139 -0.3355 -1.1008 -0.3017
 7854TIP3    H145053   6.429   4.908  15.209 -0.4749  0.0725 -0.9441
 7854TIP3    H245054   6.411   4.903  15.058 -2.9223  0.2711 -0.7061
 7855TIP3   OH245055   6.060   1.156  13.168 -0.1153 -0.5927 -0.6358
 7855TIP3    H145056   6.026   1.227  13.223  0.2060 -0.9555  0.0466
 7855TIP3    H245057   6.108   1.200  13.099  0.2188 -0.1401 -0.1216
 7856TIP3   OH245058   4.171   3.035  15.179 -0.4311  0.0030  0.2342
 7856TIP3    H145059   4.177   2.996  15.266  1.6480 -1.8607 -0.6446
 7856TIP3    H245060   4.238   3.104  15.179 -1.1394  0.6973  0.4228
 7857TIP3   OH245061   6.652   1.362   2.777 -0.2365 -0.6894  0.1250
 7857TIP3    H145062   6.732   1.395   2.819 -0.7414  1.3112 -0.3818
 7857TIP3    H245063   6.661   1.388   2.685 -0.8948 -1.6058 -0.2081
 7858TIP3   OH245064   2.260   4.032   2.064  0.2364 -0.5062  0.5113
 7858TIP3    H145065   2.173   4.000   2.038 -0.2473 -0.0313  1.5328
 7858TIP3    H245066   2.288   4.085   1.989  1.0043 -3.0817 -1.1993
 7859TIP3   OH245067   1.473   6.467   5.714 -0.0061  0.0282  0.5151
 7859TIP3    H145068   1.509   6.389   5.672  2.9363  0.1005  2.5799
 7859TIP3    H245069   1.474   6.533   5.645  3.2596 -0.2381  0.1297
 7860TIP3   OH245070   0.988   3.246   4.739  0.1350 -0.3284 -0.2959
 7860TIP3    H145071   0.996   3.282   4.651 -0.0218 -1.0954 -0.6299
 7860TIP3    H245072   0.959   3.320   4.793  1.5414  0.4870 -0.6165
 7861TIP3   OH245073   5.544   2.190   3.373  0.1821 -0.0232  0.8285
 7861TIP3    H145074   5.522   2.283   3.375  0.7450  0.1412 -0.1275
 7861TIP3    H245075   5.517   2.161   3.286 -0.9310 -1.0048  1.4823
 7862TIP3   OH245076   5.133   6.743   4.454 -0.2259  0.0796 -0.1602
 7862TIP3    H145077   5.178   6.827   4.444 -0.1035  0.1536  0.8589
 7862TIP3    H245078   5.125   6.709   4.365  1.9159  0.0236 -0.3961
 7863TIP3   OH245079   0.057   1.172   6.631  0.2698  0.8761 -0.0366
 7863TIP3    H145080  -0.023   1.210   6.593  0.8446  1.2954 -0.8437
 7863TIP3    H245081   0.025   1.100   6.686 -0.6714  1.1160 -0.2496
 7864TIP3   OH245082   5.729   4.222   5.536  0.2133  0.1243  0.4920
 7864TIP3    H145083   5.677   4.166   5.593 -1.5989  0.5128 -0.6645
 7864TIP3    H245084   5.781   4.162   5.483  0.5027 -0.3099  1.2516
 7865TIP3   OH245085   4.630   5.079  15.730 -0.4621 -0.3274  0.4728
 7865TIP3    H145086   4.673   4.995  15.748 -1.7347 -1.1593 -0.2198
 7865TIP3    H245087   4.537   5.063  15.747 -0.8063  0.7766 -0.2438
 7866TIP3   OH245088   4.484   3.829  12.098  0.3353 -0.0057  0.3312
 7866TIP3    H145089   4.548   3.810  12.030 -0.7106 -1.6234 -0.2708
 7866TIP3    H245090   4.402   3.792  12.065 -0.7206  1.1712  1.4802
 7867TIP3   OH245091   3.866   1.897   1.379 -0.1049 -0.0201 -0.0665
 7867TIP3    H145092   3.956   1.925   1.358 -0.9153  2.0723 -1.0160
 7867TIP3    H245093   3.869   1.802   1.373  2.1541 -0.0300  0.3389
 7868TIP3   OH245094   5.417   1.208  13.352  0.3023 -0.4649 -0.5389
 7868TIP3    H145095   5.486   1.235  13.292 -0.8522  1.4070 -1.1416
 7868TIP3    H245096   5.384   1.290  13.388 -0.1995 -1.4417  1.3639
 7869TIP3   OH245097   6.524   6.300  16.359 -0.3321 -0.1377  0.0876
 7869TIP3    H145098   6.586   6.369  16.382  0.6822 -0.7135 -0.8109
 7869TIP3    H245099   6.542   6.230  16.421 -0.1832 -0.2552 -0.0898
 7870TIP3   OH245100   0.165   3.749   0.199  0.3915  0.6852 -0.1751
 7870TIP3    H145101   0.137   3.779   0.285 -0.9929  0.5132 -0.5424
 7870TIP3    H245102   0.181   3.655   0.211  1.5321  0.9239  0.2073
 7871TIP3   OH245103   6.599   1.652  15.750  0.5061 -0.3833 -0.4218
 7871TIP3    H145104   6.627   1.584  15.811 -0.4436 -0.1397  0.2890
 7871TIP3    H245105   6.516   1.684  15.784  0.3190  0.2751 -1.4342
 7872TIP3   OH245106   1.420   3.519  13.574 -0.0988  0.1948 -0.2203
 7872TIP3    H145107   1.391   3.536  13.664  1.0924 -1.0596  0.4530
 7872TIP3    H245108   1.502   3.469  13.585 -0.7411 -1.3547 -1.9853
 7873TIP3   OH245109   0.144   5.093   2.987 -0.0108  0.2648  0.2146
 7873TIP3    H145110   0.150   5.176   2.940 -1.9860  0.1447 -0.3500
 7873TIP3    H245111   0.166   5.026   2.922  0.4965  0.2747  0.3718
 7874TIP3   OH245112   5.770   1.903   5.240  0.3565 -0.4051  0.0492
 7874TIP3    H145113   5.718   1.823   5.253 -0.3211 -0.6610 -3.3266
 7874TIP3    H245114   5.732   1.944   5.163  1.0731  2.9545  1.3365
 7875TIP3   OH245115   1.365   1.944   2.450 -0.6907  0.6014  0.1112
 7875TIP3    H145116   1.385   1.925   2.358  1.2152  0.3233  0.5324
 7875TIP3    H245117   1.450   1.942   2.493 -1.5929  0.3800  1.9659
 7876TIP3   OH245118   3.635   6.007   0.217  0.1664  0.3423  0.1939
 7876TIP3    H145119   3.686   5.941   0.169 -0.7062  1.1179 -1.9229
 7876TIP3    H245120   3.588   5.957   0.284  0.8108 -0.9159 -0.2551
 7877TIP3   OH245121   3.775   4.155  13.292  0.6082 -0.2179 -0.1683
 7877TIP3    H145122   3.745   4.067  13.269 -0.0272 -0.1229  0.2548
 7877TIP3    H245123   3.831   4.181  13.219  2.2440 -1.6488  0.5168
 7878TIP3   OH245124   0.474   4.824   2.567  0.5064 -0.0564  0.0608
 7878TIP3    H145125   0.407   4.770   2.611 -0.2345  1.6958  1.2239
 7878TIP3    H245126   0.557   4.787   2.597  0.1083 -1.9649 -1.0113
 7879TIP3   OH245127   2.798   5.441  15.012  0.0650 -0.0637  0.1567
 7879TIP3    H145128   2.765   5.519  14.968  3.3709  1.9680  0.8792
 7879TIP3    H245129   2.810   5.377  14.941 -1.7155  0.3931 -0.6208
 7880TIP3   OH245130   4.592   1.796  14.808 -0.5389 -0.2881  0.4957
 7880TIP3    H145131   4.499   1.809  14.790 -0.8862 -2.2650  0.6486
 7880TIP3    H245132   4.635   1.810  14.724 -1.1570 -0.8934  0.0736
 7881TIP3   OH245133   2.218   6.470   5.123 -0.2932  0.5861  0.5759
 7881TIP3    H145134   2.245   6.378   5.128 -1.2775  0.2927  0.9172
 7881TIP3    H245135   2.141   6.474   5.180 -0.2613  1.6272  0.5501
 7882TIP3   OH245136   6.698   2.160  14.455  0.2885  0.2907 -0.2652
 7882TIP3    H145137   6.792   2.140  14.455  0.6898  1.7942  1.9259
 7882TIP3    H245138   6.655   2.075  14.447  1.8070 -0.4029 -1.6683
 7883TIP3   OH245139   5.014   3.803  11.463 -0.1278  0.4187  0.0177
 7883TIP3    H145140   5.013   3.871  11.530  0.8948  0.7930 -0.3316
 7883TIP3    H245141   5.065   3.840  11.391 -1.4772  0.1484 -1.1252
 7884TIP3   OH245142   0.217   1.256  16.580 -0.4565 -0.2134  0.8298
 7884TIP3    H145143   0.231   1.253  16.486  0.7633  1.3133  0.9155
 7884TIP3    H245144   0.280   1.321  16.612  0.0037 -1.5641  2.8671
 7885TIP3   OH245145   0.227   6.650   6.049 -0.5397 -0.4502  0.4340
 7885TIP3    H145146   0.176   6.644   6.129 -1.5320  1.9398  0.0830
 7885TIP3    H245147   0.176   6.710   5.993  1.9857  1.0532 -0.4345
 7886TIP3   OH245148   2.557   3.601  13.940  0.1029 -0.1698 -0.1104
 7886TIP3    H145149   2.555   3.680  13.887  0.1605  0.1037  0.2871
 7886TIP3    H245150   2.642   3.604  13.984 -0.1481 -0.1236  0.3865
 7887TIP3   OH245151   6.672   0.064   2.385 -0.2141 -0.9403 -0.7342
 7887TIP3    H145152   6.632  -0.016   2.419  0.3286 -1.5418 -1.4821
 7887TIP3    H245153   6.605   0.131   2.397 -0.2045 -1.2028  1.1251
 7888TIP3   OH245154   0.031   2.573   2.870 -0.3225 -0.2227  0.5755
 7888TIP3    H145155   0.094   2.593   2.800  0.4266  1.5844  1.6945
 7888TIP3    H245156  -0.021   2.653   2.878  0.5083  0.1515  2.9695
 7889TIP3   OH245157   3.630   4.229  14.246 -0.4125  0.6720 -0.1275
 7889TIP3    H145158   3.614   4.169  14.319 -1.1007  0.2959 -0.5736
 7889TIP3    H245159   3.725   4.232  14.238 -0.3301  0.6203  0.6956
 7890TIP3   OH245160   4.270   3.700   4.241  0.6422  0.4339  0.5407
 7890TIP3    H145161   4.306   3.636   4.303  0.7081  0.4420  0.5112
 7890TIP3    H245162   4.325   3.778   4.253  0.7131  0.4048  0.4063
 7891TIP3   OH245163   1.246   2.916  14.487 -0.4605 -0.0409  0.0896
 7891TIP3    H145164   1.167   2.864  14.501  0.3576 -1.8007 -1.3764
 7891TIP3    H245165   1.315   2.852  14.470  1.2352  1.4504  0.9399
 7892TIP3   OH245166   2.801   5.791   0.966  0.0527  0.4445  0.4182
 7892TIP3    H145167   2.751   5.720   1.008 -0.8567 -0.2185 -1.6493
 7892TIP3    H245168   2.737   5.861   0.955  0.1798  0.4742 -0.1469
 7893TIP3   OH245169   0.628   5.938   5.379  0.1975 -0.0994 -0.2017
 7893TIP3    H145170   0.692   5.965   5.314 -0.1631  0.1027 -0.4760
 7893TIP3    H245171   0.649   5.847   5.398 -0.5840 -0.6057 -1.6651
 7894TIP3   OH245172   0.776   6.336   1.578 -0.3121 -0.1735 -0.1556
 7894TIP3    H145173   0.733   6.314   1.495  1.0848 -1.6968 -0.5212
 7894TIP3    H245174   0.762   6.259   1.633  2.1214 -0.8518 -0.3978
 7895TIP3   OH245175   4.946   6.754  12.386 -0.0055 -0.2206  0.0056
 7895TIP3    H145176   4.999   6.818  12.433  0.7509 -0.5526 -0.3814
 7895TIP3    H245177   4.956   6.777  12.294 -1.8218  0.6901 -0.0150
 7896TIP3   OH245178   6.318   5.117   1.499 -0.0585  0.2587 -0.0765
 7896TIP3    H145179   6.327   5.198   1.550  0.1464  0.3262 -0.2180
 7896TIP3    H245180   6.228   5.118   1.468 -0.8949 -0.8508  2.0894
 7897TIP3   OH245181   3.505   4.621  11.575  0.3279  0.4183  0.6311
 7897TIP3    H145182   3.431   4.563  11.596  0.2374  0.2747 -0.0705
 7897TIP3    H245183   3.465   4.695  11.530  0.7642 -0.3939 -1.1681
 7898TIP3   OH245184   2.161   5.315  16.872 -0.0236  0.5454 -0.1334
 7898TIP3    H145185   2.173   5.407  16.851 -0.7490  1.0674  1.5795
 7898TIP3    H245186   2.206   5.304  16.957 -1.9168 -0.0878  0.8378
 7899TIP3   OH245187   3.580   1.696  15.628  0.5188 -0.8185  0.4324
 7899TIP3    H145188   3.524   1.764  15.590  0.6129 -0.9842 -0.0110
 7899TIP3    H245189   3.520   1.637  15.673  0.3818 -0.7259  0.3718
 7900TIP3   OH245190   6.092   3.523   1.161  0.1361  0.4408 -0.6357
 7900TIP3    H145191   6.088   3.429   1.143  1.9374  0.4374 -1.2202
 7900TIP3    H245192   6.128   3.529   1.249  1.7988  0.5608 -1.2836
 7901TIP3   OH245193   0.009   6.752   5.681  0.5993  0.0289 -0.1537
 7901TIP3    H145194  -0.032   6.689   5.621 -1.6920 -1.7652  3.0034
 7901TIP3    H245195  -0.042   6.833   5.669 -0.6958 -0.7024  0.2326
 7902TIP3   OH245196   3.442   0.786  12.277  0.2021 -0.4515  0.4920
 7902TIP3    H145197   3.349   0.761  12.275  0.3815 -1.1004  0.2101
 7902TIP3    H245198   3.440   0.882  12.270 -0.4366 -0.4798  0.1515
 7903TIP3   OH245199   3.708   1.000   4.713 -0.0209  0.2628 -0.2564
 7903TIP3    H145200   3.659   0.997   4.631 -0.6182 -0.8264  0.1151
 7903TIP3    H245201   3.799   0.989   4.687 -0.3275 -1.4656 -0.6900
 7904TIP3   OH245202   1.866   3.855   0.901 -0.0123  0.2019 -0.1008
 7904TIP3    H145203   1.770   3.855   0.903 -0.0763  0.2090 -1.7561
 7904TIP3    H245204   1.891   3.945   0.921 -0.3208  0.0549  0.9699
 7905TIP3   OH245205   6.231   0.696   2.618  0.4337  0.6125 -0.0918
 7905TIP3    H145206   6.274   0.778   2.643 -0.3859  0.8548  0.6271
 7905TIP3    H245207   6.296   0.628   2.634  0.4434  0.9283  1.3493
 7906TIP3   OH245208   4.424   4.567  13.076 -0.4111  0.0857  0.3676
 7906TIP3    H145209   4.476   4.623  13.018 -0.6166  0.8350  0.8933
 7906TIP3    H245210   4.384   4.502  13.018  0.0731  0.2945 -0.2068
 7907TIP3   OH245211   5.804   5.948   6.679  0.2723  0.1548 -0.1917
 7907TIP3    H145212   5.852   5.870   6.706  1.7605  0.6832 -1.2270
 7907TIP3    H245213   5.721   5.914   6.645  0.5815 -0.9060  0.0746
 7908TIP3   OH245214   6.080   4.896  14.980  0.4808 -0.6839 -0.2400
 7908TIP3    H145215   6.172   4.871  14.979  0.9653  0.9174 -1.8481
 7908TIP3    H245216   6.080   4.989  14.957 -1.5012 -0.4642  0.4304
 7909TIP3   OH245217   3.173   2.908  15.262  1.1378 -0.0095 -0.1845
 7909TIP3    H145218   3.260   2.932  15.294  1.8618 -1.9991 -0.5372
 7909TIP3    H245219   3.166   2.814  15.279 -0.5906 -0.0552 -0.9717
 7910TIP3   OH245220   3.638   3.025  15.821  0.3822 -0.4413  0.4397
 7910TIP3    H145221   3.727   2.995  15.838  0.5120 -0.0324  0.5081
 7910TIP3    H245222   3.647   3.089  15.751  0.2149 -0.0258  0.7873
 7911TIP3   OH245223   3.920   1.958  14.901 -0.2656 -0.4191  0.3619
 7911TIP3    H145224   3.866   1.882  14.881  0.4466 -0.5994 -0.9663
 7911TIP3    H245225   3.890   1.987  14.987 -2.4459 -0.5120 -0.3101
 7912TIP3   OH245226   4.144   3.478   2.140  0.3116 -0.1410  0.2147
 7912TIP3    H145227   4.099   3.547   2.189 -0.2883 -1.8989  2.3162
 7912TIP3    H245228   4.097   3.397   2.163  2.3648 -1.5721 -0.3082
 7913TIP3   OH245229   2.750   3.072   1.921  0.6566 -0.0418 -0.6811
 7913TIP3    H145230   2.716   3.052   2.008  0.0981  0.1259 -0.8530
 7913TIP3    H245231   2.831   3.021   1.914 -0.0065 -1.1304 -0.5922
 7914TIP3   OH245232   1.165   5.782  11.584 -0.5410  0.5513  0.1640
 7914TIP3    H145233   1.257   5.799  11.562 -1.0966  0.6014 -2.5102
 7914TIP3    H245234   1.118   5.860  11.553 -1.6133 -0.0410  0.2375
 7915TIP3   OH245235   0.435   2.846   5.530  0.2256  0.5269  0.1283
 7915TIP3    H145236   0.344   2.816   5.538  0.8911 -2.5056 -1.9292
 7915TIP3    H245237   0.437   2.899   5.451  0.1581  1.0834  0.4951
 7916TIP3   OH245238   6.043   6.553  16.812  0.0817 -0.6924 -0.1187
 7916TIP3    H145239   6.038   6.599  16.896  1.5603  1.0301 -0.8949
 7916TIP3    H245240   6.135   6.527  16.805 -0.3991 -2.4245 -0.4255
 7917TIP3   OH245241   3.394   0.409  12.649  0.4844 -0.2737 -0.0466
 7917TIP3    H145242   3.373   0.483  12.707  0.3198 -0.4247  0.0852
 7917TIP3    H245243   3.445   0.349  12.704 -0.8130 -1.0526  0.3396
 7918TIP3   OH245244   1.886   1.772  10.616  0.2737 -0.3210 -0.0335
 7918TIP3    H145245   1.851   1.786  10.529 -0.9133 -1.9011  0.1296
 7918TIP3    H245246   1.898   1.859  10.653  0.6631  0.3567 -1.7015
 7919TIP3   OH245247   1.422   1.602   0.438  0.5033 -0.0930 -0.2347
 7919TIP3    H145248   1.411   1.563   0.351 -0.4831  1.4168 -0.8245
 7919TIP3    H245249   1.389   1.535   0.498  0.5734 -0.8976 -1.0549
 7920TIP3   OH245250   0.486   3.553   4.233 -0.3895 -0.3765  0.0036
 7920TIP3    H145251   0.572   3.574   4.267 -0.4391  0.1055 -0.1547
 7920TIP3    H245252   0.495   3.561   4.138 -1.5371  3.6230  0.0528
 7921TIP3   OH245253   5.384   0.729   5.867 -0.5619  0.7108 -0.0334
 7921TIP3    H145254   5.453   0.778   5.823  1.0816 -0.0544  1.5443
 7921TIP3    H245255   5.408   0.732   5.960  0.0415 -3.5097  0.1407
 7922TIP3   OH245256   5.410   3.828   5.035 -0.1622  0.3888 -0.5124
 7922TIP3    H145257   5.492   3.792   5.000 -0.0923  1.1472 -1.1642
 7922TIP3    H245258   5.391   3.903   4.979 -1.9087 -0.4228 -1.0764
 7923TIP3   OH245259   4.928   6.073   2.694 -0.3606 -0.5353  0.5368
 7923TIP3    H145260   4.940   6.167   2.683 -0.1153 -0.6267 -0.0347
 7923TIP3    H245261   4.996   6.046   2.756  0.3207 -0.5152 -0.1780
 7924TIP3   OH245262   0.682   3.079  15.678  0.0868 -0.4429  0.1534
 7924TIP3    H145263   0.588   3.093  15.686 -0.0839  0.5272 -2.4920
 7924TIP3    H245264   0.702   3.100  15.587  3.0304  0.3143  0.8510
 7925TIP3   OH245265   5.920   2.199   2.802 -0.4895  0.2273  0.2036
 7925TIP3    H145266   5.949   2.160   2.720  0.3646  0.1468  0.5350
 7925TIP3    H245267   5.924   2.293   2.787  0.3804  0.2257  0.3842
 7926TIP3   OH245268   1.904   1.262   0.263  0.2980  0.0018  0.5240
 7926TIP3    H145269   1.873   1.352   0.258  1.3588  0.3741  0.3592
 7926TIP3    H245270   1.825   1.209   0.252 -0.3199  0.9042  0.4762
 7927TIP3   OH245271   2.621   5.370   0.426  0.7144  0.2542 -0.2087
 7927TIP3    H145272   2.622   5.366   0.330  0.4602 -2.0764 -0.1610
 7927TIP3    H245273   2.680   5.300   0.453  0.5820  0.7145  1.3617
 7928TIP3   OH245274   0.891   1.099  16.226  0.5437  0.1998  1.0529
 7928TIP3    H145275   0.957   1.075  16.161  0.6654  0.9148  0.9056
 7928TIP3    H245276   0.812   1.118  16.174  0.4416  0.0991  1.1701
 7929TIP3   OH245277   1.107   0.666   4.643  0.1202  1.0743  0.4824
 7929TIP3    H145278   1.097   0.740   4.703  0.0528  1.1275  0.4054
 7929TIP3    H245279   1.124   0.591   4.701 -2.0574  0.7091  0.7434
 7930TIP3   OH245280   5.244   3.000   2.448  0.7075  0.1783 -0.3361
 7930TIP3    H145281   5.283   2.942   2.383  0.1066  1.2372 -1.7008
 7930TIP3    H245282   5.317   3.024   2.505  1.7090  0.7001 -1.7682
 7931TIP3   OH245283   4.660   1.206  16.123 -0.1104  0.2997 -0.1486
 7931TIP3    H145284   4.618   1.120  16.128  0.8482 -0.2667 -1.2548
 7931TIP3    H245285   4.663   1.225  16.029  0.2347  1.2575  0.0500
 7932TIP3   OH245286   2.060   6.141   0.095 -0.0260 -0.6967 -0.1604
 7932TIP3    H145287   1.989   6.118   0.155 -0.5866 -0.5682 -0.7693
 7932TIP3    H245288   2.029   6.115   0.009 -0.1462  1.0762 -0.7008
 7933TIP3   OH245289   3.990   2.405  15.609 -0.3047  0.9064 -0.1289
 7933TIP3    H145290   4.034   2.325  15.582  0.3542  1.6449 -1.3266
 7933TIP3    H245291   3.986   2.458  15.529 -2.3323  1.3444  0.2109
 7934TIP3   OH245292   5.123   0.460   3.346 -0.1223  0.3176  0.1018
 7934TIP3    H145293   5.071   0.529   3.386  1.4929  0.7742  1.5195
 7934TIP3    H245294   5.140   0.398   3.416  1.4070  0.2951 -0.2569
 7935TIP3   OH245295   4.849   5.276   3.338 -0.0898  0.4827 -0.2388
 7935TIP3    H145296   4.928   5.278   3.283  1.5608  0.2889  1.9718
 7935TIP3    H245297   4.815   5.366   3.335  0.2541  0.5909 -1.1461
 7936TIP3   OH245298   6.295   0.005   6.226  0.2782 -0.0464  0.3278
 7936TIP3    H145299   6.389  -0.010   6.211  0.2521 -0.4264  0.5581
 7936TIP3    H245300   6.254  -0.079   6.210  0.2140 -0.4370  2.2932
 7937TIP3   OH245301   5.132   4.040  16.995 -0.2163  0.6430  0.2908
 7937TIP3    H145302   5.119   3.952  17.028 -0.1662  0.3713 -0.3880
 7937TIP3    H245303   5.198   4.078  17.052  0.8735 -0.2835 -0.3060
 7938TIP3   OH245304   2.929   5.839  11.154  0.0012 -1.2399 -0.3105
 7938TIP3    H145305   2.905   5.879  11.238 -1.4704  0.2613 -1.3691
 7938TIP3    H245306   2.861   5.869  11.093 -0.1574 -3.9663 -1.6281
 7939TIP3   OH245307   0.956   3.465  12.291  0.0124 -0.2431  0.0705
 7939TIP3    H145308   0.922   3.536  12.345  0.9346 -0.8001  1.4603
 7939TIP3    H245309   0.883   3.440  12.234 -0.9858  0.4210  1.0169
 7940TIP3   OH245310   5.054   1.142  17.059 -0.1918  0.2755  0.1989
 7940TIP3    H145311   5.000   1.179  17.129  0.0821 -0.7662  0.9744
 7940TIP3    H245312   4.995   1.137  16.984 -1.5832 -1.9690  1.3551
 7941TIP3   OH245313   5.501   0.881   4.584 -0.2479 -0.1602  0.4595
 7941TIP3    H145314   5.568   0.939   4.619 -0.0152 -0.1498 -0.0004
 7941TIP3    H245315   5.434   0.940   4.550 -0.3379 -0.1685  0.6205
 7942TIP3   OH245316   3.881   4.232  16.275  0.0946 -0.3668  0.0228
 7942TIP3    H145317   3.928   4.165  16.225  0.2114 -0.6241  0.4697
 7942TIP3    H245318   3.802   4.248  16.225  0.8191  0.3336 -0.9397
 7943TIP3   OH245319   4.821   0.130   1.459  0.0086 -0.2129 -0.1965
 7943TIP3    H145320   4.852   0.173   1.539  0.4796 -1.3817  0.2836
 7943TIP3    H245321   4.729   0.155   1.452 -0.3947 -1.0823  1.4368
 7944TIP3   OH245322   0.772   2.445  13.654 -0.4972  0.5832 -0.5199
 7944TIP3    H145323   0.750   2.401  13.572 -0.3680 -0.3979 -0.0451
 7944TIP3    H245324   0.719   2.400  13.720  1.0671 -0.1755  0.2662
 7945TIP3   OH245325   1.868   0.242  15.373 -0.0329  0.6868 -0.0753
 7945TIP3    H145326   1.806   0.315  15.379  0.4552  1.1412 -0.3947
 7945TIP3    H245327   1.823   0.168  15.414 -1.3272  0.6352 -1.5195
 7946TIP3   OH245328   2.521   5.654  14.543 -0.4499 -0.1859 -0.2749
 7946TIP3    H145329   2.441   5.606  14.562  0.7849 -2.9998 -1.6072
 7946TIP3    H245330   2.591   5.590  14.557  1.4532  1.7123 -0.6319
 7947TIP3   OH245331   4.354   6.214   5.570  0.0350  0.5324  0.2432
 7947TIP3    H145332   4.283   6.273   5.595 -0.4738  0.3050 -0.6097
 7947TIP3    H245333   4.427   6.272   5.547 -0.1103  0.7900  0.4240
 7948TIP3   OH245334   1.165   2.705  16.108  0.3864 -0.3743  1.1384
 7948TIP3    H145335   1.224   2.630  16.111  0.4324 -0.3760  0.2887
 7948TIP3    H245336   1.116   2.700  16.191  1.7167 -0.2332  1.9698
 7949TIP3   OH245337   5.875   3.377   0.203  0.2551  0.6543  0.2171
 7949TIP3    H145338   5.901   3.308   0.263 -0.6560  0.1532  0.0574
 7949TIP3    H245339   5.803   3.422   0.247  0.2634  0.9392 -0.0541
 7950TIP3   OH245340   1.762   2.917  15.067 -0.1303 -0.2956 -0.1924
 7950TIP3    H145341   1.707   2.995  15.069 -0.8977 -0.8447  0.6244
 7950TIP3    H245342   1.735   2.871  14.987 -1.3687 -0.9045  0.5476
 7951TIP3   OH245343   1.639   0.956  14.313 -0.1692  0.3321 -0.4588
 7951TIP3    H145344   1.591   1.011  14.251 -0.8023 -0.3078 -0.5390
 7951TIP3    H245345   1.608   0.983  14.399  0.9166  1.4204 -0.3773
 7952TIP3   OH245346   6.417   3.481   1.562  0.1639 -0.0532 -0.1330
 7952TIP3    H145347   6.431   3.392   1.531 -1.2742 -0.0782 -0.7882
 7952TIP3    H245348   6.495   3.501   1.614  1.0526 -1.2552 -0.9499
 7953TIP3   OH245349   0.545   6.523   0.321 -0.0020 -0.0904  0.1214
 7953TIP3    H145350   0.606   6.512   0.394 -0.0807 -1.2282  0.0289
 7953TIP3    H245351   0.563   6.450   0.262 -1.1602 -0.2087 -0.1180
 7954TIP3   OH245352   3.178   0.210   0.786 -0.5445  0.0998 -0.0438
 7954TIP3    H145353   3.188   0.296   0.746  0.5160 -0.2505 -0.5718
 7954TIP3    H245354   3.139   0.156   0.718  0.5665 -0.3055 -0.3873
 7955TIP3   OH245355   2.186   6.525  11.934  0.1157 -0.6444 -0.1833
 7955TIP3    H145356   2.245   6.467  11.982 -0.4507 -0.8313  0.2973
 7955TIP3    H245357   2.131   6.564  12.002  0.3896  0.3514 -0.5073
 7956TIP3   OH245358   3.327   4.131   0.514 -0.3123  0.2155 -0.3519
 7956TIP3    H145359   3.399   4.075   0.484  1.7349  3.4769 -2.0451
 7956TIP3    H245360   3.354   4.161   0.600  0.3082  1.2945 -0.9100
 7957TIP3   OH245361   5.628   1.089  15.480 -0.7283  0.0549  0.1820
 7957TIP3    H145362   5.666   1.176  15.479 -0.2381 -0.1602 -0.5305
 7957TIP3    H245363   5.610   1.070  15.388 -0.2576 -0.8407  0.2649
 7958TIP3   OH245364   5.976   5.454   5.267 -0.2808  0.4222 -0.4248
 7958TIP3    H145365   5.969   5.503   5.186 -0.7828  0.9136 -0.0906
 7958TIP3    H245366   5.889   5.458   5.306 -0.0903  0.0494  0.0588
 7959TIP3   OH245367   5.959   6.022   0.534 -0.5502  0.1514 -0.4165
 7959TIP3    H145368   6.045   6.059   0.552  0.0867 -1.2831 -0.3289
 7959TIP3    H245369   5.900   6.066   0.595 -0.0820  1.8503 -1.1217
 7960TIP3   OH245370   0.700   3.864  16.991  0.3759  0.3559  0.1521
 7960TIP3    H145371   0.627   3.921  16.969  1.2189  1.6388  0.5595
 7960TIP3    H245372   0.677   3.780  16.953 -1.1990  0.7887  0.0768
 7961TIP3   OH245373   5.923   0.572  12.362  0.0690  0.0982  0.0092
 7961TIP3    H145374   5.963   0.640  12.417  0.3405  0.4250 -0.5787
 7961TIP3    H245375   5.997   0.528  12.320 -0.1487  0.4896 -0.8278
 7962TIP3   OH245376   5.272   2.996   0.065  0.0915 -0.2114  0.8838
 7962TIP3    H145377   5.225   3.059   0.120 -1.1637  1.4210 -1.8433
 7962TIP3    H245378   5.358   3.034   0.052 -0.4870  0.7750 -0.3163
 7963TIP3   OH245379   0.136   6.591  16.870 -0.5199 -0.5298  0.2548
 7963TIP3    H145380   0.098   6.624  16.789 -0.2373  0.7612  0.6315
 7963TIP3    H245381   0.228   6.619  16.867 -0.4155 -0.7939  0.8529
 7964TIP3   OH245382   2.824   2.787  12.650  0.0143 -0.1351  0.6218
 7964TIP3    H145383   2.770   2.841  12.593  1.0629  0.5955  0.2943
 7964TIP3    H245384   2.895   2.755  12.594  1.0701  0.6056  1.4995
 7965TIP3   OH245385   6.298   4.280   6.132 -0.0423 -0.0400 -0.3057
 7965TIP3    H145386   6.267   4.217   6.067 -2.2437 -1.8821  2.2850
 7965TIP3    H245387   6.331   4.225   6.204 -0.6243  1.7937  1.4345
 7966TIP3   OH245388   1.778   1.733   1.357  0.0220  0.3559  0.1405
 7966TIP3    H145389   1.728   1.669   1.307  2.4780 -0.2494 -1.7230
 7966TIP3    H245390   1.790   1.806   1.297  0.3319  1.0185  0.9934
 7967TIP3   OH245391   0.421   4.601   0.885  0.4250  0.3943  0.0704
 7967TIP3    H145392   0.483   4.659   0.929  0.4216  2.4724 -2.4124
 7967TIP3    H245393   0.354   4.582   0.951  0.4985  3.1584  1.0910
 7968TIP3   OH245394   6.750   4.147  13.128 -0.3651  0.3475 -0.7195
 7968TIP3    H145395   6.834   4.106  13.107 -0.0550  1.1320 -1.0395
 7968TIP3    H245396   6.772   4.239  13.146 -1.0111  0.3155  0.2621
 7969TIP3   OH245397   6.288   0.318  14.154  0.1518 -0.0640  0.0249
 7969TIP3    H145398   6.211   0.339  14.102  1.1179  0.9006 -1.0723
 7969TIP3    H245399   6.303   0.224  14.139  0.6221  0.2687 -1.7661
 7970TIP3   OH245400   2.458   5.394  14.342  0.4102  0.1242 -0.0681
 7970TIP3    H145401   2.514   5.470  14.324  2.2882 -0.4057  2.8213
 7970TIP3    H245402   2.397   5.425  14.409 -1.7242  0.1892 -1.9406
 7971TIP3   OH245403   3.372   5.686   4.425  0.4543 -0.1155 -0.0291
 7971TIP3    H145404   3.288   5.713   4.388 -0.4829 -3.1889 -0.4353
 7971TIP3    H245405   3.435   5.700   4.354 -0.5135 -1.6335 -1.2515
 7972TIP3   OH245406   4.464   5.925  10.918 -0.6584 -0.0945 -0.6670
 7972TIP3    H145407   4.404   5.881  10.859  0.5474 -0.1389 -1.9218
 7972TIP3    H245408   4.550   5.917  10.875  0.4248 -0.8416  1.4797
 7973TIP3   OH245409   3.843   1.945  15.553  0.4671 -0.4776  0.5830
 7973TIP3    H145410   3.934   1.923  15.534  0.5049 -0.2130  0.4611
 7973TIP3    H245411   3.792   1.886  15.497  0.5795  0.8599 -1.0034
 7974TIP3   OH245412   4.516   3.281   0.867 -0.6327  0.2135 -0.1755
 7974TIP3    H145413   4.540   3.371   0.849 -0.9264 -0.1860 -2.9722
 7974TIP3    H245414   4.435   3.267   0.818 -0.9768 -1.3843  0.7608
 7975TIP3   OH245415   5.131   2.508   1.020 -0.1392 -0.4524 -0.3516
 7975TIP3    H145416   5.215   2.553   1.033  0.1194 -0.3358 -2.1730
 7975TIP3    H245417   5.107   2.477   1.108  0.4895  1.7958  0.6974
 7976TIP3   OH245418   3.114   0.247   1.924 -0.2037 -0.3086  0.4187
 7976TIP3    H145419   3.190   0.301   1.903 -0.1645 -0.6168 -0.2480
 7976TIP3    H245420   3.075   0.227   1.839  0.1496 -1.8811  0.5979
 7977TIP3   OH245421   4.959   0.047   2.596  0.0900  0.1162 -0.7600
 7977TIP3    H145422   4.959   0.013   2.686 -1.0289 -0.1593 -0.8577
 7977TIP3    H245423   5.043   0.017   2.560  1.3143  1.5862  0.6666
 7978TIP3   OH245424   5.449   5.731   1.079  0.3704 -0.8909  0.3077
 7978TIP3    H145425   5.480   5.776   1.001  0.4369 -3.6729 -1.3919
 7978TIP3    H245426   5.528   5.721   1.133  0.3397  0.9624  0.7854
 7979TIP3   OH245427   3.095   1.589   2.007  0.1007  0.1554 -0.1948
 7979TIP3    H145428   3.089   1.684   2.008 -0.1235  0.1449  1.3876
 7979TIP3    H245429   3.093   1.566   1.914  0.9230  1.7274 -0.6304
 7980TIP3   OH245430   5.623   3.792   2.931 -0.0966 -0.0083  0.2192
 7980TIP3    H145431   5.557   3.802   2.862 -0.7904  1.1332  1.0052
 7980TIP3    H245432   5.654   3.702   2.923 -1.2285 -0.3343 -0.6462
 7981TIP3   OH245433   0.729   5.938   3.509 -0.3004 -0.0822 -0.2647
 7981TIP3    H145434   0.791   5.963   3.577  0.0896  1.0741 -1.0208
 7981TIP3    H245435   0.784   5.916   3.433 -0.7488 -0.8190 -0.3831
 7982TIP3   OH245436   3.855   6.139  12.052  0.3697 -0.2989  0.1336
 7982TIP3    H145437   3.791   6.140  11.981  0.1714  0.3703  0.3127
 7982TIP3    H245438   3.938   6.114  12.010 -0.1906 -2.2571  0.0764
 7983TIP3   OH245439   0.934   0.202   4.606 -0.2146  0.2073  0.4613
 7983TIP3    H145440   1.025   0.215   4.633 -0.1751  1.7674 -0.2731
 7983TIP3    H245441   0.885   0.198   4.687  0.4438 -0.1342  0.8555
 7984TIP3   OH245442   3.312   0.420   1.828  0.5599  0.1792 -0.0548
 7984TIP3    H145443   3.359   0.497   1.797 -0.4603  0.6723 -0.3829
 7984TIP3    H245444   3.331   0.353   1.762  1.0946  0.2585  0.0084
 7985TIP3   OH245445   1.786   1.193   3.044  0.3481 -0.0938  0.1567
 7985TIP3    H145446   1.843   1.238   3.106  0.2624  1.5776 -0.9188
 7985TIP3    H245447   1.729   1.140   3.098  0.9169  0.5712  1.4470
 7986TIP3   OH245448   5.607   1.056   1.230 -0.1271  0.7559  0.7954
 7986TIP3    H145449   5.673   1.126   1.234 -0.4749  1.0403  2.3238
 7986TIP3    H245450   5.527   1.100   1.202  0.2901  0.3942 -1.1509
 7987TIP3   OH245451   5.867   3.100  15.326  0.5942 -0.1078 -0.4731
 7987TIP3    H145452   5.904   3.014  15.307 -2.3339 -1.6263  0.0642
 7987TIP3    H245453   5.841   3.135  15.241  0.5423 -0.4048 -0.5794
 7988TIP3   OH245454   1.931   1.846  10.882  0.1393 -0.0217 -0.0745
 7988TIP3    H145455   2.010   1.886  10.918 -0.1545  0.2468  0.2895
 7988TIP3    H245456   1.884   1.919  10.841  0.1397 -0.2006 -0.3953
 7989TIP3   OH245457   0.224   4.373   2.124 -0.0629  0.2949 -0.2624
 7989TIP3    H145458   0.134   4.402   2.138  0.0006  0.2369  0.2846
 7989TIP3    H245459   0.252   4.340   2.209  0.2641 -0.2744 -0.5868
 7990TIP3   OH245460   1.282   6.270  13.903  0.0323 -0.2951 -0.0084
 7990TIP3    H145461   1.278   6.365  13.914  0.9226 -0.0863 -1.2163
 7990TIP3    H245462   1.197   6.246  13.868 -0.4056 -0.0334  0.8645
 7991TIP3   OH245463   3.049   0.661   0.728 -0.2229  0.1259  0.1575
 7991TIP3    H145464   3.109   0.689   0.658  1.8429 -0.3496  1.6404
 7991TIP3    H245465   3.060   0.566   0.732 -0.0619  0.1833  1.3230
 7992TIP3   OH245466   3.882   3.484   0.370  0.0786 -0.5214  0.4860
 7992TIP3    H145467   3.965   3.531   0.375  1.0266 -2.1075  0.3742
 7992TIP3    H245468   3.850   3.484   0.460  0.1941  0.1002  0.5327
 7993TIP3   OH245469   3.652   3.140   0.103 -0.7042  0.2566  0.3143
 7993TIP3    H145470   3.669   3.128   0.010  0.0661 -1.1648  0.6239
 7993TIP3    H245471   3.650   3.052   0.139 -1.2584  0.7768  1.6128
 7994TIP3   OH245472   1.985   2.671   3.226  0.1009 -0.1032 -0.3670
 7994TIP3    H145473   1.911   2.729   3.207  0.5584  0.0554 -1.7695
 7994TIP3    H245474   2.053   2.729   3.260 -0.1491 -0.1353  0.1954
 7995TIP3   OH245475   5.014   1.699   1.123  0.1416 -0.1916 -0.7469
 7995TIP3    H145476   5.109   1.699   1.114  0.2459 -1.0559  0.1762
 7995TIP3    H245477   4.985   1.622   1.075 -0.1754  0.4804 -1.6555
 7996TIP3   OH245478   3.651   1.675  12.695 -0.6074  0.2519  0.2152
 7996TIP3    H145479   3.599   1.596  12.708 -0.4107 -0.0227 -0.6089
 7996TIP3    H245480   3.613   1.739  12.755 -1.1869 -0.2717  0.4165
 7997TIP3   OH245481   0.860   3.390  15.581 -0.2212  0.0952  0.2800
 7997TIP3    H145482   0.840   3.346  15.499  0.0251 -2.9313  1.7052
 7997TIP3    H245483   0.826   3.479  15.570 -1.8950 -0.7732 -2.3734
 7998TIP3   OH245484   0.538   4.339   3.050  0.2243  0.5057  0.7187
 7998TIP3    H145485   0.570   4.311   3.136  0.4512 -0.8337  0.2339
 7998TIP3    H245486   0.455   4.293   3.040 -0.1660  1.2488  0.5300
 7999TIP3   OH245487   2.472   1.640  12.226  0.1852 -0.3094  0.0629
 7999TIP3    H145488   2.421   1.685  12.294 -0.1426 -1.6455  0.7390
 7999TIP3    H245489   2.553   1.691  12.219 -0.8348  1.3244 -0.3814
 8000TIP3   OH245490   3.649   5.736   5.592  0.4619  0.1653  0.2243
 8000TIP3    H145491   3.680   5.737   5.501  0.7933  0.4365  0.3392
 8000TIP3    H245492   3.554   5.745   5.585  0.4102 -0.5991 -0.1270
 8001TIP3   OH245493   2.249   4.741   0.634 -0.0409 -0.7653  0.1700
 8001TIP3    H145494   2.321   4.678   0.626  1.9926  1.2467  1.2162
 8001TIP3    H245495   2.218   4.732   0.724  3.4968  2.6583  2.0656
 8002TIP3   OH245496   5.965   1.064   0.835 -0.3029 -0.6894  0.1339
 8002TIP3    H145497   5.894   1.050   0.772 -3.1090  0.4462  2.7689
 8002TIP3    H245498   5.959   1.158   0.856  2.0031 -0.5739  0.4957
 8003TIP3   OH245499   5.093   5.947  12.074 -0.1258 -0.0504 -0.4631
 8003TIP3    H145500   5.109   5.939  12.168  0.7477 -0.1846 -0.6222
 8003TIP3    H245501   5.179   5.955  12.034 -0.4759 -0.1674 -1.2764
 8004TIP3   OH245502   3.792   5.755  11.257 -0.5647  0.6010  0.0369
 8004TIP3    H145503   3.817   5.723  11.170 -0.6111  0.3761  0.1057
 8004TIP3    H245504   3.741   5.834  11.239  0.8563  1.5084 -0.0694
 8005TIP3   OH245505   6.620   4.943   4.795  0.5926 -0.6023  0.3972
 8005TIP3    H145506   6.703   4.899   4.812  1.6801  1.3526  0.4298
 8005TIP3    H245507   6.585   4.962   4.882  0.5432 -0.6229  0.3822
 8006TIP3   OH245508   5.030   1.178   6.082  0.6350 -0.7004  0.1227
 8006TIP3    H145509   5.052   1.191   6.175  3.0038  2.2443 -0.6754
 8006TIP3    H245510   5.102   1.125   6.048  0.2012 -1.0941 -0.1765
 8007TIP3   OH245511   5.882   1.792  15.381 -0.0831 -0.1801 -0.2221
 8007TIP3    H145512   5.907   1.708  15.343 -0.9501 -1.0140  0.9845
 8007TIP3    H245513   5.787   1.785  15.393 -0.2909  1.2935 -0.8481
 8008TIP3   OH245514   5.682   2.534  16.402  0.0963 -0.2873  0.1476
 8008TIP3    H145515   5.768   2.572  16.385  0.5615 -1.0811  0.6549
 8008TIP3    H245516   5.683   2.451  16.354 -0.1131 -0.6253  0.7190
 8009TIP3   OH245517   6.580   0.113  10.638  0.6757  0.1046  0.0415
 8009TIP3    H145518   6.646   0.173  10.675  1.3028 -0.9789  0.7475
 8009TIP3    H245519   6.524   0.169  10.584  1.8505  1.1529 -0.1426
 8010TIP3   OH245520   0.829   0.594   0.263 -0.1454 -0.0402 -0.4078
 8010TIP3    H145521   0.778   0.671   0.240 -0.5614 -0.3920 -0.6659
 8010TIP3    H245522   0.788   0.522   0.215  0.4008 -0.3778 -0.3777
 8011TIP3   OH245523   4.039   1.049   2.186 -0.0132  0.2819  0.4136
 8011TIP3    H145524   4.007   1.015   2.270  0.2043  0.6488  0.6518
 8011TIP3    H245525   4.065   1.139   2.206  2.4666 -0.3832  0.5925
 8012TIP3   OH245526   5.597   4.951  16.034 -0.0340 -0.0991 -0.1973
 8012TIP3    H145527   5.503   4.951  16.018  0.1057 -0.1930 -1.0805
 8012TIP3    H245528   5.628   4.870  15.994  0.4360 -0.0335  0.0265
 8013TIP3   OH245529   3.431   5.506  15.166  0.4127 -0.2102  0.2248
 8013TIP3    H145530   3.344   5.510  15.206 -0.1289  1.9954 -1.0142
 8013TIP3    H245531   3.488   5.548  15.230  0.8043 -2.4486  1.4361
 8014TIP3   OH245532   2.674   0.786   2.674  0.8261 -0.0637  0.0362
 8014TIP3    H145533   2.671   0.737   2.756  1.5947  2.3711  1.6177
 8014TIP3    H245534   2.605   0.747   2.621 -0.0996 -1.3466  2.0432
 8015TIP3   OH245535   1.490   3.020   3.099 -0.0915  0.2208 -0.6233
 8015TIP3    H145536   1.566   3.076   3.091 -1.5610  2.6674  1.0975
 8015TIP3    H245537   1.521   2.945   3.150  1.3822  0.6790 -0.8102
 8016TIP3   OH245538   5.311   1.445   5.820  0.1798 -0.6132 -0.0226
 8016TIP3    H145539   5.259   1.495   5.883 -2.7877  0.8836 -3.2924
 8016TIP3    H245540   5.331   1.363   5.864 -2.0784  0.1432  2.6846
 8017TIP3   OH245541   2.794   4.966   1.767  0.3173 -0.0142  0.2447
 8017TIP3    H145542   2.864   4.903   1.748  1.1222  0.7327  0.7117
 8017TIP3    H245543   2.787   4.966   1.863 -1.5250 -1.3628  0.1714
 8018TIP3   OH245544   4.824   4.052  16.131 -0.6535  0.3024  0.1095
 8018TIP3    H145545   4.846   4.003  16.210  0.6150 -0.9218 -0.9357
 8018TIP3    H245546   4.887   4.124  16.129  0.6403 -0.8046 -0.7511
 8019TIP3   OH245547   3.121   1.968  12.702  0.0238 -0.3824 -0.8551
 8019TIP3    H145548   3.052   1.993  12.641 -0.9096 -1.5005 -0.3059
 8019TIP3    H245549   3.137   2.047  12.754  1.1163  0.7023 -2.7660
 8020TIP3   OH245550   6.078   6.311  16.058 -0.0961  0.0051 -0.6115
 8020TIP3    H145551   6.137   6.370  16.104  0.6151 -0.2809 -1.1396
 8020TIP3    H245552   5.990   6.336  16.087  0.3261 -0.1001  0.7946
 8021TIP3   OH245553   0.608   6.163   3.684  0.8246 -0.8127 -0.7144
 8021TIP3    H145554   0.578   6.074   3.706  0.9781 -0.6171  0.3175
 8021TIP3    H245555   0.625   6.159   3.590 -0.6074 -1.4577 -0.9773
 8022TIP3   OH245556   1.119   0.449  11.672  0.2328  0.3854  0.2477
 8022TIP3    H145557   1.187   0.450  11.604  1.3069 -1.0732  1.2473
 8022TIP3    H245558   1.137   0.527  11.725  0.3106  0.7122 -0.2528
 8023TIP3   OH245559   5.919   2.071  14.622  0.1772  0.4351  0.4777
 8023TIP3    H145560   5.923   2.015  14.545  0.6520  0.1119  0.7363
 8023TIP3    H245561   5.969   2.149  14.598  0.4307  0.2807  0.5008
 8024TIP3   OH245562   2.612   2.096  13.891  0.0839  0.0415 -0.0484
 8024TIP3    H145563   2.637   2.133  13.806  1.4348  0.9099  0.6767
 8024TIP3    H245564   2.643   2.006  13.888 -0.1157 -0.0079 -0.5817
 8025TIP3   OH245565   2.120   2.280  16.169  0.3063  0.1607 -0.0209
 8025TIP3    H145566   2.135   2.367  16.133  0.8264  0.8069  1.6523
 8025TIP3    H245567   2.025   2.268  16.165  0.1614  1.0842  0.3053
 8026TIP3   OH245568   2.937   2.230  16.180 -0.7221  0.3966 -0.1789
 8026TIP3    H145569   3.025   2.219  16.217  0.0474  1.1450 -1.6791
 8026TIP3    H245570   2.883   2.165  16.225  0.3388  0.6784  1.5778
 8027TIP3   OH245571   4.794   0.014  16.221  0.6916  0.1283  0.7028
 8027TIP3    H145572   4.719   0.069  16.202  0.4972  0.3952  2.1696
 8027TIP3    H245573   4.759  -0.058  16.274  1.2782 -0.3639  0.4430
 8028TIP3   OH245574   5.234   2.285  13.094 -0.1517 -0.6476 -0.5429
 8028TIP3    H145575   5.146   2.256  13.118 -0.0917  0.8469  1.7911
 8028TIP3    H245576   5.221   2.337  13.015 -1.2494 -1.1211 -0.6926
 8029TIP3   OH245577   3.102   3.582  15.121 -0.4358 -0.3067  0.5194
 8029TIP3    H145578   3.031   3.640  15.148  0.3292  0.4387  0.9969
 8029TIP3    H245579   3.128   3.536  15.201 -0.7633 -1.0137  0.2276
 8030TIP3   OH245580   1.961   4.369  12.692 -0.1297  0.5575  0.0018
 8030TIP3    H145581   1.954   4.464  12.695 -1.4508  0.4560  2.2344
 8030TIP3    H245582   1.982   4.344  12.782 -1.0668 -1.3361 -0.2567
 8031TIP3   OH245583   1.223   2.051   1.496 -0.2695 -0.2281  0.1779
 8031TIP3    H145584   1.224   2.114   1.424  0.1928  0.6582  0.9401
 8031TIP3    H245585   1.217   1.966   1.453  1.3105  0.2041 -0.9893
 8032TIP3   OH245586   1.704   4.687   0.873 -0.1466  0.4333  0.0639
 8032TIP3    H145587   1.693   4.733   0.956 -1.1108 -0.4512  0.4562
 8032TIP3    H245588   1.773   4.623   0.890  0.9957  1.4977 -0.3994
 8033TIP3   OH245589   2.547   2.186  12.467  0.1536 -0.1326 -0.1219
 8033TIP3    H145590   2.625   2.167  12.519  0.4611 -1.3233 -0.9696
 8033TIP3    H245591   2.501   2.254  12.516  1.1617 -0.2005  0.9548
 8034TIP3   OH245592   2.199   5.832   1.597 -0.7591  0.2540 -0.6352
 8034TIP3    H145593   2.270   5.767   1.596 -2.4097 -1.6437 -1.8609
 8034TIP3    H245594   2.226   5.896   1.531  0.4999  0.4101 -0.0144
 8035TIP3   OH245595   3.892   3.055   1.698 -0.2047  0.4799 -0.0861
 8035TIP3    H145596   3.944   3.068   1.619  0.9490 -0.5172  0.4754
 8035TIP3    H245597   3.853   2.968   1.687  0.8992 -0.1709  0.9226
 8036TIP3   OH245598   5.562   6.010  14.806  0.1516  0.1793 -0.1039
 8036TIP3    H145599   5.565   6.012  14.902  0.7871 -0.4878 -0.0982
 8036TIP3    H245600   5.651   6.034  14.779 -0.3186  1.4697 -0.5576
 8037TIP3   OH245601   6.733   6.387  17.245  0.1734  0.5167  0.1211
 8037TIP3    H145602   6.769   6.459  17.192 -1.4631  0.3201 -1.3529
 8037TIP3    H245603   6.640   6.408  17.254 -0.4149 -1.5398 -0.6165
 8038TIP3   OH245604   4.661   1.208   5.574  0.0482  0.0449  0.0031
 8038TIP3    H145605   4.627   1.135   5.523  1.6699 -1.0570  0.4087
 8038TIP3    H245606   4.673   1.172   5.662  2.2547  0.3350 -0.1385
 8039TIP3   OH245607   2.583   5.546  16.458  0.3391 -0.0555  0.3943
 8039TIP3    H145608   2.511   5.600  16.424 -0.9357  0.2085  3.2435
 8039TIP3    H245609   2.642   5.608  16.500  0.3231 -0.6142  1.2591
 8040TIP3   OH245610   1.078   2.082  17.346 -0.1202  0.0290 -0.4684
 8040TIP3    H145611   1.072   2.136  17.424 -2.1717 -0.5971 -0.1448
 8040TIP3    H245612   1.127   2.135  17.283 -0.5771  1.5460  0.4196
 8041TIP3   OH245613   0.582   5.346   4.530 -0.0571  0.0847 -0.2531
 8041TIP3    H145614   0.490   5.358   4.554 -0.1371 -1.8196  0.5202
 8041TIP3    H245615   0.579   5.289   4.453  0.4635  1.0231 -0.9959
 8042TIP3   OH245616   0.036   2.147   1.417 -0.1550 -0.3760 -0.1548
 8042TIP3    H145617   0.045   2.233   1.459 -0.9517 -0.0523 -0.6192
 8042TIP3    H245618  -0.043   2.155   1.364 -0.3986 -1.4973  0.0207
 8043TIP3   OH245619   5.455   0.386  11.805 -0.1655 -0.3397 -0.3666
 8043TIP3    H145620   5.506   0.318  11.762 -0.8501 -1.2804  0.2762
 8043TIP3    H245621   5.398   0.421  11.737  0.9583  0.3748 -0.9680
 8044TIP3   OH245622   3.334   0.619   3.238 -0.1497 -0.1829 -0.3844
 8044TIP3    H145623   3.347   0.704   3.197  2.6841 -0.2649  0.1205
 8044TIP3    H245624   3.318   0.559   3.165 -1.1297  0.6048 -0.8252
 8045TIP3   OH245625   6.517   5.550  12.950 -0.1825 -0.3228 -0.1382
 8045TIP3    H145626   6.452   5.493  12.991 -1.8763  2.3837  1.2113
 8045TIP3    H245627   6.589   5.553  13.013 -0.0711 -0.9468 -0.2269
 8046TIP3   OH245628   4.381   5.426   5.679 -0.5077  0.2105 -0.2208
 8046TIP3    H145629   4.311   5.362   5.669  0.6723 -0.8399 -2.5553
 8046TIP3    H245630   4.417   5.437   5.591  0.1366  3.2411  0.2851
 8047TIP3   OH245631   2.659   1.993  15.029 -0.3902  0.1524  0.3133
 8047TIP3    H145632   2.722   2.064  15.015 -0.4554 -0.0508 -1.1658
 8047TIP3    H245633   2.710   1.924  15.071  0.1483  0.3365 -0.0269
 8048TIP3   OH245634   6.583   1.447  10.915  0.0073  0.3726  0.3339
 8048TIP3    H145635   6.569   1.504  10.840 -0.1084 -0.0376  0.0397
 8048TIP3    H245636   6.573   1.505  10.991 -3.4569  0.1772  0.1905
 8049TIP3   OH245637   5.426   3.777  17.014  0.1698  0.1440  0.1858
 8049TIP3    H145638   5.392   3.805  17.099 -0.1185 -0.3741  0.2458
 8049TIP3    H245639   5.390   3.689  17.002  2.2656 -0.8430  0.6924
 8050TIP3   OH245640   4.362   4.551   2.475  0.2989 -0.8219  0.2280
 8050TIP3    H145641   4.314   4.528   2.396  1.4247 -1.4735 -0.2883
 8050TIP3    H245642   4.421   4.478   2.490  2.4138  0.6939 -0.1939
 8051TIP3   OH245643   3.307   1.673  14.986  0.1995  0.7897 -0.2606
 8051TIP3    H145644   3.237   1.696  15.047  1.2639  0.2827  1.2304
 8051TIP3    H245645   3.358   1.754  14.976  1.1557  0.4044  1.1442
 8052TIP3   OH245646   0.733   0.759  15.247 -0.3497  0.4882 -0.1931
 8052TIP3    H145647   0.720   0.851  15.223 -0.4993  0.4207 -0.3669
 8052TIP3    H245648   0.683   0.748  15.328  0.7515  0.9093  0.5675
 8053TIP3   OH245649   0.883   2.885  13.339  0.3048  0.0419  0.2771
 8053TIP3    H145650   0.877   2.859  13.431  1.0489  1.0101  0.6191
 8053TIP3    H245651   0.795   2.871  13.304 -0.1046  0.0982  1.2567
 8054TIP3   OH245652   5.028   6.205  12.078 -0.0809 -0.4774  0.2730
 8054TIP3    H145653   4.967   6.202  12.151 -0.4735 -0.7302 -0.0576
 8054TIP3    H245654   5.027   6.116  12.042  1.2312 -0.7556  0.8589
 8055TIP3   OH245655   6.571   3.493  13.071 -0.6435  0.3833  0.3168
 8055TIP3    H145656   6.662   3.472  13.093 -0.7424  0.4222  0.7873
 8055TIP3    H245657   6.520   3.449  13.140 -1.2165 -2.4849 -1.7419
 8056TIP3   OH245658   4.950   0.026   3.610  0.1430 -0.6622 -0.6357
 8056TIP3    H145659   4.936   0.102   3.667  1.0803 -0.4217 -0.7176
 8056TIP3    H245660   4.987  -0.040   3.668 -0.0863 -0.8522 -0.7033
 8057TIP3   OH245661   0.180   2.115  12.738 -0.1660 -0.1035  0.0156
 8057TIP3    H145662   0.226   2.138  12.657  2.3393 -1.5352  0.9351
 8057TIP3    H245663   0.162   2.022  12.731  1.6644 -0.6533  1.7700
 8058TIP3   OH245664   1.872   3.645   3.161  0.3017  0.1319 -0.0104
 8058TIP3    H145665   1.950   3.617   3.209  0.3654 -1.6550 -1.0559
 8058TIP3    H245666   1.884   3.738   3.147  1.9321  0.0134  0.4520
 8059TIP3   OH245667   1.261   1.780  16.837  0.5498  0.1256  0.4828
 8059TIP3    H145668   1.331   1.733  16.793 -0.5723 -0.7542 -0.4413
 8059TIP3    H245669   1.295   1.799  16.924  2.0085 -0.0488 -0.0329
 8060TIP3   OH245670   0.208   4.292   5.039  0.5367  0.4254  0.2782
 8060TIP3    H145671   0.184   4.200   5.036  0.7495  0.3840 -0.3511
 8060TIP3    H245672   0.152   4.330   5.107 -0.1787  0.0146 -0.0794
 8061TIP3   OH245673   3.708   2.433  16.106 -0.0757 -0.2501 -0.1515
 8061TIP3    H145674   3.792   2.424  16.061  1.0553  1.3485  1.5069
 8061TIP3    H245675   3.707   2.523  16.137 -2.4156 -0.2424 -0.0802
 8062TIP3   OH245676   4.954   4.767   5.209 -0.4873 -0.2669 -0.1618
 8062TIP3    H145677   4.950   4.831   5.280 -0.2235 -0.0641 -0.3314
 8062TIP3    H245678   4.974   4.684   5.253  3.3074  0.4193 -0.2935
 8063TIP3   OH245679   4.995   2.363  14.281 -0.5459 -0.7844  0.0489
 8063TIP3    H145680   5.001   2.425  14.208  2.1943 -0.4472  0.4857
 8063TIP3    H245681   5.008   2.277  14.240 -2.1155 -0.9180 -0.2387
 8064TIP3   OH245682   0.115   1.094  16.821  0.3690  0.3990  0.1922
 8064TIP3    H145683   0.104   1.056  16.908  0.6108 -0.9239 -0.3286
 8064TIP3    H245684   0.201   1.063  16.792  0.5033  1.2320 -0.3284
 8065TIP3   OH245685   6.229   2.324  12.924  0.4787 -0.2634  0.0248
 8065TIP3    H145686   6.297   2.268  12.887  0.9108  0.6290 -0.5776
 8065TIP3    H245687   6.235   2.309  13.018  1.5873 -0.1351 -0.0066
 8066TIP3   OH245688   2.524   2.402  12.901 -0.3934  0.0136 -0.6599
 8066TIP3    H145689   2.573   2.350  12.837 -0.2636  1.1475 -1.5335
 8066TIP3    H245690   2.555   2.492  12.886 -1.4452  0.5017  0.0024
 8067TIP3   OH245691   2.808   6.682  17.009 -0.8461 -0.4326  0.9148
 8067TIP3    H145692   2.796   6.636  17.092 -0.6443 -0.4941  0.9120
 8067TIP3    H245693   2.903   6.685  16.997 -0.8843 -2.2519 -0.3020
 8068TIP3   OH245694   4.674   4.364   5.426 -0.3285  0.2151  0.0299
 8068TIP3    H145695   4.619   4.385   5.501 -0.1727 -0.7726  0.4340
 8068TIP3    H245696   4.692   4.448   5.385  0.2748  0.8923  1.5860
 8069TIP3   OH245697   5.779   1.972   2.315  0.0427 -0.1725  0.0611
 8069TIP3    H145698   5.743   1.892   2.275  1.7098 -0.7925 -0.3015
 8069TIP3    H245699   5.728   2.043   2.276 -1.0841 -1.0163 -0.0609
 8070TIP3   OH245700   6.077   6.492   4.727 -0.3230  0.6038 -0.6004
 8070TIP3    H145701   6.031   6.574   4.744  1.0490  1.5753 -1.3630
 8070TIP3    H245702   6.009   6.432   4.696 -1.3406  1.4629 -0.0807
 8071TIP3   OH245703   1.875   2.373   4.731  0.1910 -0.0038 -0.3014
 8071TIP3    H145704   1.786   2.409   4.728  0.0215 -0.1423  1.8663
 8071TIP3    H245705   1.864   2.282   4.704 -0.4821 -0.2297  0.6613
 8072TIP3   OH245706   6.276   5.286  11.960  0.4161  0.5262 -0.1582
 8072TIP3    H145707   6.347   5.343  11.930  0.0842  0.7854 -0.4603
 8072TIP3    H245708   6.321   5.211  12.001  0.8859  0.1642 -1.2849
 8073TIP3   OH245709   3.609   3.168  12.863 -0.2772 -0.0129 -0.2428
 8073TIP3    H145710   3.692   3.215  12.874 -0.3743 -0.1309  1.0725
 8073TIP3    H245711   3.599   3.117  12.943 -2.2816  1.0448  0.2500
 8074TIP3   OH245712   1.515   0.111   4.304 -0.2145 -0.6992 -0.4405
 8074TIP3    H145713   1.507   0.206   4.296 -2.6634 -0.9139 -1.2028
 8074TIP3    H245714   1.608   0.093   4.287  0.3965  1.5710  0.1805
 8075TIP3   OH245715   4.096   5.298  17.041  0.1770 -0.1629  0.3001
 8075TIP3    H145716   4.047   5.216  17.033 -1.2451  0.3665  2.7169
 8075TIP3    H245717   4.172   5.286  16.983 -1.1383 -2.2605 -1.1436
 8076TIP3   OH245718   6.284   5.397   6.427  0.2302  0.0964 -0.4383
 8076TIP3    H145719   6.369   5.438   6.437  0.1860 -0.2573  2.2334
 8076TIP3    H245720   6.303   5.310   6.392  0.9610  0.1231 -0.1245
 8077TIP3   OH245721   4.123   0.029  13.096 -0.6365  0.4531 -0.3415
 8077TIP3    H145722   4.079   0.111  13.120  0.3909  1.5753 -2.1019
 8077TIP3    H245723   4.198   0.025  13.154 -0.9346  0.5080  0.0555
 8078TIP3   OH245724   5.243   0.944   0.011  0.0714  0.0487  0.4923
 8078TIP3    H145725   5.231   0.989   0.095 -2.0320 -0.1548  0.3658
 8078TIP3    H245726   5.154   0.921  -0.016  0.8727 -1.8781 -0.7178
 8079TIP3   OH245727   6.346   2.931   5.243  0.2533  0.0843  0.0344
 8079TIP3    H145728   6.323   2.846   5.204 -1.1290  0.9668 -1.1711
 8079TIP3    H245729   6.395   2.976   5.174  1.6638 -0.0085  0.9513
 8080TIP3   OH245730   3.117   0.277  11.992  0.4981  0.2499  0.0293
 8080TIP3    H145731   3.145   0.304  12.079  0.1643  0.5583  0.0428
 8080TIP3    H245732   3.028   0.246  12.004  0.1963  0.9582 -0.3193
 8081TIP3   OH245733   3.839   6.158   1.133 -0.0288 -0.1255 -0.0349
 8081TIP3    H145734   3.904   6.207   1.184  1.5645 -0.3373 -1.7578
 8081TIP3    H245735   3.774   6.224   1.109  0.3934  0.4575  0.3738
 8082TIP3   OH245736   0.192   2.636   1.403 -0.1352 -0.1483  0.2940
 8082TIP3    H145737   0.195   2.557   1.350 -1.0090  0.8772 -1.3546
 8082TIP3    H245738   0.284   2.652   1.427  0.3059 -0.5277 -1.0825
 8083TIP3   OH245739   0.790   1.874  15.671  0.4446 -0.1257  0.0489
 8083TIP3    H145740   0.805   1.832  15.755 -3.1328 -0.5596  0.6196
 8083TIP3    H245741   0.793   1.802  15.607  1.2866 -0.1010  0.0589
 8084TIP3   OH245742   0.914   1.823  12.085 -0.2901  0.2295  0.3410
 8084TIP3    H145743   1.002   1.833  12.047  0.5103 -0.2647  2.0007
 8084TIP3    H245744   0.885   1.737  12.055 -0.5064  0.6653 -0.7540
 8085TIP3   OH245745   5.813   0.773  13.775  0.2759  0.1522  0.6163
 8085TIP3    H145746   5.755   0.844  13.802  1.0101  0.2009  2.1632
 8085TIP3    H245747   5.754   0.702  13.750 -0.4559  0.5219  1.2671
 8086TIP3   OH245748   2.732   2.703   2.134  0.0478 -0.0842 -0.2369
 8086TIP3    H145749   2.709   2.624   2.184  2.7119 -0.6744  0.2248
 8086TIP3    H245750   2.793   2.750   2.190 -2.4486  3.1493  0.0921
 8087TIP3   OH245751   3.396   3.350   5.020 -0.4423 -0.2642  0.7038
 8087TIP3    H145752   3.376   3.440   4.994  1.2881 -0.0497  0.0022
 8087TIP3    H245753   3.462   3.359   5.088  0.3384 -1.0128  0.0640
 8088TIP3   OH245754   1.319   1.251  13.542 -0.0998  0.1893  0.5406
 8088TIP3    H145755   1.244   1.192  13.550 -0.2388  0.2476 -0.1941
 8088TIP3    H245756   1.363   1.247  13.627 -2.3017  2.0106  1.8861
 8089TIP3   OH245757   5.076   0.387   0.828  0.0305 -0.6902  0.1371
 8089TIP3    H145758   5.162   0.376   0.869 -0.0813  1.2360  1.0069
 8089TIP3    H245759   5.071   0.481   0.809 -2.1216 -0.6522  0.6815
 8090TIP3   OH245760   0.068   0.274   5.138 -0.2373 -0.2574  0.4450
 8090TIP3    H145761   0.066   0.363   5.103  0.0609 -0.2163  0.5224
 8090TIP3    H245762   0.068   0.286   5.233 -0.7152 -0.3568  0.4583
 8091TIP3   OH245763   3.170   3.513  11.995  0.7248  0.4208  0.1272
 8091TIP3    H145764   3.201   3.570  11.925  2.0290 -1.2925 -0.7924
 8091TIP3    H245765   3.200   3.426  11.969  1.3742 -0.2750  2.8674
 8092TIP3   OH245766   3.561   3.830   2.328 -0.6965  0.1612 -0.4408
 8092TIP3    H145767   3.490   3.770   2.354 -1.7746  0.9204 -1.5184
 8092TIP3    H245768   3.516   3.906   2.292  0.6717  1.2345  0.0268
 8093TIP3   OH245769   0.261   5.775   4.190  0.3038  0.8003  0.1374
 8093TIP3    H145770   0.257   5.690   4.146 -1.1459  1.3851 -0.9416
 8093TIP3    H245771   0.191   5.771   4.255 -0.4173  1.4823 -0.5653
 8094TIP3   OH245772   6.363   1.424  16.668  0.0630  0.1768 -0.0603
 8094TIP3    H145773   6.393   1.514  16.652  1.2908 -0.5626 -2.1798
 8094TIP3    H245774   6.333   1.392  16.583 -1.6937 -1.0035  0.9272
 8095TIP3   OH245775   1.150   6.565  13.584  0.0216  0.1704  0.0056
 8095TIP3    H145776   1.182   6.655  13.575 -0.9569  0.4642 -0.6672
 8095TIP3    H245777   1.106   6.547  13.501 -1.4677 -0.2351  0.8498
 8096TIP3   OH245778   5.624   4.868   5.266  0.3738  0.2005 -0.0292
 8096TIP3    H145779   5.568   4.796   5.236 -1.0215  0.4009  1.8670
 8096TIP3    H245780   5.569   4.946   5.259  0.7416  0.5611  0.9460
 8097TIP3   OH245781   5.465   1.288   5.301 -0.1686 -0.4501  0.9213
 8097TIP3    H145782   5.373   1.312   5.312  0.0452 -0.3618  2.7734
 8097TIP3    H245783   5.512   1.348   5.358  1.1375 -0.0189 -0.5545
 8098TIP3   OH245784   4.546   6.419  12.563  0.1623  0.1264  0.7542
 8098TIP3    H145785   4.625   6.466  12.536 -0.1639  0.6097  0.6386
 8098TIP3    H245786   4.490   6.419  12.485 -0.4177  0.7674  1.1585
 8099TIP3   OH245787   4.938   6.388   4.961 -0.2624  0.1522 -0.5582
 8099TIP3    H145788   4.900   6.457   5.015  0.6595 -0.2942  0.7098
 8099TIP3    H245789   4.867   6.362   4.902 -0.3913  2.7317 -1.6667
 8100TIP3   OH245790   5.592   1.381   6.158  0.4297  0.4596  0.1341
 8100TIP3    H145791   5.510   1.337   6.178  1.5365 -0.4725  3.1935
 8100TIP3    H245792   5.598   1.451   6.223  0.4449  2.8978 -2.3197
 8101TIP3   OH245793   4.422   3.335  14.735 -0.0663  0.0069  0.0218
 8101TIP3    H145794   4.463   3.401  14.680  2.3431 -1.2365  0.2286
 8101TIP3    H245795   4.388   3.270  14.674  1.0531 -0.4970 -0.0831
 8102TIP3   OH245796   4.605   5.168  15.129 -0.3701 -0.1816  0.0906
 8102TIP3    H145797   4.551   5.220  15.069  1.4798  1.4840 -0.2289
 8102TIP3    H245798   4.681   5.142  15.077  0.3093 -0.4040  1.1547
 8103TIP3   OH245799   5.562   4.628   5.558  0.0707 -0.1499  0.0523
 8103TIP3    H145800   5.611   4.561   5.510 -0.1060 -0.5502  0.4189
 8103TIP3    H245801   5.627   4.669   5.614  0.5557  1.2053 -1.4351
 8104TIP3   OH245802   6.056   1.823  14.965  0.0178 -0.1652  0.8172
 8104TIP3    H145803   5.982   1.824  14.904  0.3333 -0.6716  0.4151
 8104TIP3    H245804   6.127   1.867  14.918  0.4979 -1.2493  0.5018
 8105TIP3   OH245805   5.167   1.524   1.256 -0.4061  0.3203 -0.7805
 8105TIP3    H145806   5.122   1.450   1.297 -1.9003  1.3137 -0.5358
 8105TIP3    H245807   5.100   1.592   1.250  1.2424  2.1368  0.1973
 8106TIP3   OH245808   5.914   1.116   4.365 -0.3168 -0.1402 -0.5000
 8106TIP3    H145809   5.863   1.144   4.289  0.2120 -0.2070 -0.8786
 8106TIP3    H245810   5.997   1.087   4.329  0.6424  1.5304  0.2809
 8107TIP3   OH245811   0.122   2.990  17.083 -0.0038  0.4438 -0.1933
 8107TIP3    H145812   0.050   2.946  17.128  1.0276  0.3099  1.4370
 8107TIP3    H245813   0.081   3.059  17.032 -1.3902 -0.4988 -0.4149
 8108TIP3   OH245814   2.234   6.561   5.888  0.5554 -0.7925 -0.3833
 8108TIP3    H145815   2.164   6.497   5.898  0.1731 -0.3017  0.2119
 8108TIP3    H245816   2.312   6.517   5.921 -0.0027 -0.4509  1.5033
 8109TIP3   OH245817   1.470   3.855   1.804 -0.0742  0.3907  0.2682
 8109TIP3    H145818   1.515   3.815   1.878  0.2758 -1.3262 -0.8265
 8109TIP3    H245819   1.416   3.785   1.767 -1.6411  1.6889 -0.0470
 8110TIP3   OH245820   6.273   0.922   4.834  0.6311 -0.4853 -0.0242
 8110TIP3    H145821   6.202   0.987   4.833  2.3007  1.6213  2.5880
 8110TIP3    H245822   6.228   0.838   4.840 -1.6321  0.6088 -0.3459
 8111TIP3   OH245823   5.759   5.252   5.428 -0.0064 -0.3237 -0.0194
 8111TIP3    H145824   5.775   5.330   5.483  1.9932 -0.2208 -0.6652
 8111TIP3    H245825   5.666   5.231   5.443 -0.7026  2.3516 -0.0480
 8112TIP3   OH245826   2.055   4.756   2.374  0.1925 -0.0982 -0.0808
 8112TIP3    H145827   2.118   4.758   2.447 -0.6847 -2.3145  0.8076
 8112TIP3    H245828   1.971   4.775   2.415 -0.0345  0.7574 -0.9132
 8113TIP3   OH245829   6.413   1.517   0.127 -0.3171 -0.1998  0.1034
 8113TIP3    H145830   6.450   1.542   0.042 -2.7717  0.9667 -0.7178
 8113TIP3    H245831   6.416   1.597   0.179  0.3067 -0.6722  0.8079
 8114TIP3   OH245832   0.579   6.259   5.722  0.0854 -0.8438 -0.4370
 8114TIP3    H145833   0.669   6.290   5.728  0.8734 -2.6425 -1.8407
 8114TIP3    H245834   0.575   6.185   5.783 -1.0513  0.3940  1.0685
 8115TIP3   OH245835   4.301   2.314  11.713 -0.2113  0.3559 -0.2813
 8115TIP3    H145836   4.216   2.270  11.706 -1.1644  2.1989 -1.2623
 8115TIP3    H245837   4.342   2.301  11.628  0.8645 -1.1507  0.4302
 8116TIP3   OH245838   2.975   3.737  14.487 -0.7939 -0.1737  0.7669
 8116TIP3    H145839   3.012   3.820  14.519  1.0768 -0.2682 -0.9332
 8116TIP3    H245840   2.969   3.749  14.392 -2.5348 -1.2638  0.6937
 8117TIP3   OH245841   1.470   6.120   2.840 -0.0859 -0.1581  0.0420
 8117TIP3    H145842   1.515   6.164   2.768  0.8612 -1.4769 -0.2222
 8117TIP3    H245843   1.379   6.113   2.812 -0.2491  1.5549  0.0851
 8118TIP3   OH245844   3.693   4.606  11.361 -0.4021 -0.2607  0.0422
 8118TIP3    H145845   3.746   4.531  11.388  1.0532  0.4849 -0.6202
 8118TIP3    H245846   3.626   4.614  11.429  0.3737 -1.2081  0.9495
 8119TIP3   OH245847   5.304   6.456   2.711 -0.5805 -0.2220 -0.4142
 8119TIP3    H145848   5.283   6.539   2.669 -1.1141 -0.5654 -0.8495
 8119TIP3    H245849   5.320   6.478   2.803  2.3825  0.8327 -1.0536
 8120TIP3   OH245850   3.960   1.806   2.774  0.0887 -0.4646  0.2365
 8120TIP3    H145851   4.052   1.780   2.788  0.0879 -0.5452  0.0870
 8120TIP3    H245852   3.926   1.742   2.712 -0.1505 -0.6035  0.5091
 8121TIP3   OH245853   3.274   2.139   4.352  0.2469 -0.1530 -0.2001
 8121TIP3    H145854   3.190   2.176   4.378  0.9170  0.1822  1.6585
 8121TIP3    H245855   3.269   2.047   4.380  0.0214 -0.4921 -1.3064
 8122TIP3   OH245856   6.323   4.571  12.822 -0.7271  0.2773 -0.6377
 8122TIP3    H145857   6.380   4.634  12.866 -1.4389 -0.0823  0.8603
 8122TIP3    H245858   6.368   4.551  12.740  0.7927  0.7639  0.0479
 8123TIP3   OH245859   1.351   1.431   0.632 -0.0755 -0.1228  0.6281
 8123TIP3    H145860   1.407   1.356   0.652  1.4662  0.9583  0.5307
 8123TIP3    H245861   1.268   1.411   0.675  0.7041 -1.3126  1.6527
 8124TIP3   OH245862   2.069   1.446   1.858  0.1235  0.3075 -0.3096
 8124TIP3    H145863   2.125   1.373   1.829  0.0530 -0.1329  0.6268
 8124TIP3    H245864   2.043   1.489   1.777 -1.6397 -2.0241 -1.1038
 8125TIP3   OH245865   3.650   0.624  11.997  0.4792 -0.8242  0.1615
 8125TIP3    H145866   3.598   0.545  12.006 -0.5505 -0.0655  1.0473
 8125TIP3    H245867   3.593   0.686  11.951  0.6503 -0.0625  0.9371
 8126TIP3   OH245868   1.069   4.723  14.515 -0.5885 -0.6209 -0.1968
 8126TIP3    H145869   1.033   4.799  14.560  1.7162 -0.4660  1.5673
 8126TIP3    H245870   1.044   4.649  14.570  1.1311 -0.5720  0.7165
 8127TIP3   OH245871   4.231   2.897  13.737  0.6086  0.1935 -0.4598
 8127TIP3    H145872   4.191   2.979  13.707  0.7067 -0.2764 -1.9662
 8127TIP3    H245873   4.202   2.832  13.673 -0.0354 -1.1122  1.0992
 8128TIP3   OH245874   1.955   0.384   5.284 -0.2577 -0.7185 -0.2312
 8128TIP3    H145875   2.013   0.453   5.316 -0.5803 -0.4132 -0.3020
 8128TIP3    H245876   1.937   0.408   5.194 -0.6225 -0.7257 -0.1616
 8129TIP3   OH245877   3.372   1.835  17.019  0.2362  0.4062  0.2537
 8129TIP3    H145878   3.294   1.890  17.030 -0.7296 -0.8509 -0.0184
 8129TIP3    H245879   3.397   1.848  16.927  0.4849  0.9694  0.3951
 8130TIP3   OH245880   2.823   1.891  14.233 -0.1932 -0.3520 -0.2933
 8130TIP3    H145881   2.859   1.814  14.277  1.7988  0.5322 -0.2512
 8130TIP3    H245882   2.736   1.864  14.204  0.2147 -2.4057  0.2381
 8131TIP3   OH245883   0.976   5.021  14.240  0.1661 -0.1638  0.2672
 8131TIP3    H145884   0.894   5.011  14.192 -0.4837  1.5161  0.9687
 8131TIP3    H245885   0.959   4.984  14.326  0.2324 -0.0273  0.3386
 8132TIP3   OH245886   2.578   3.950  14.828 -0.5394 -0.0679  0.2544
 8132TIP3    H145887   2.567   3.885  14.897 -2.6805 -0.5825 -0.5022
 8132TIP3    H245888   2.646   4.009  14.861 -0.0911 -1.4470  1.8962
 8133TIP3   OH245889   3.896   6.459  11.815  0.4508  0.4329 -0.4702
 8133TIP3    H145890   3.967   6.469  11.878 -0.6783 -0.6565  1.0494
 8133TIP3    H245891   3.918   6.520  11.744  1.9571  1.4225  0.7792
 8134TIP3   OH245892   4.832   1.050   3.161  0.3661 -0.2889 -0.0788
 8134TIP3    H145893   4.778   1.006   3.096 -0.7604  1.1519 -0.1624
 8134TIP3    H245894   4.852   1.135   3.122 -0.7504  0.8170  1.6186
 8135TIP3   OH245895   1.896   3.857  14.977  0.5044  0.5272  0.0589
 8135TIP3    H145896   1.808   3.836  14.947 -0.0439  1.7841  0.6959
 8135TIP3    H245897   1.938   3.899  14.901  0.0168  1.3183  0.2167
 8136TIP3   OH245898   0.260   3.690  14.859 -0.6098  0.0348  0.3486
 8136TIP3    H145899   0.207   3.744  14.801 -1.5314 -0.1496  1.0056
 8136TIP3    H245900   0.277   3.746  14.935 -0.9696 -0.3466  0.7167
 8137TIP3   OH245901   1.548   1.148  11.490  0.2263 -0.0096 -0.1612
 8137TIP3    H145902   1.571   1.241  11.482  0.6971 -0.2615 -2.1021
 8137TIP3    H245903   1.583   1.123  11.576  0.0935  1.5894  0.3991
 8138TIP3   OH245904   6.498   2.831  13.751 -0.1365  0.3269  0.3140
 8138TIP3    H145905   6.482   2.865  13.663 -0.2828 -1.5394 -0.4269
 8138TIP3    H245906   6.410   2.822  13.789 -0.4360 -2.2186 -0.7378
 8139TIP3   OH245907   0.604   6.094  12.254  0.1716  0.6145 -0.2221
 8139TIP3    H145908   0.614   6.065  12.345  0.3962  1.3621 -0.0080
 8139TIP3    H245909   0.599   6.189  12.259 -2.4178  0.5825 -0.7488
 8140TIP3   OH245910   4.121   1.976  11.720  0.3840  0.4633 -0.5095
 8140TIP3    H145911   4.051   1.976  11.654  0.0404 -1.8085 -0.2265
 8140TIP3    H245912   4.077   2.001  11.801  0.6129  2.3180 -0.9284
 8141TIP3   OH245913   4.933   5.873  17.250 -0.2030  0.2997  0.0381
 8141TIP3    H145914   4.868   5.864  17.181  0.0369  1.5389 -0.3686
 8141TIP3    H245915   4.895   5.825  17.324 -0.5167 -0.9369 -0.8863
 8142TIP3   OH245916   0.717   3.099   1.999  0.3198  0.1308 -0.0180
 8142TIP3    H145917   0.693   3.058   2.082  0.2819 -0.8266 -0.4831
 8142TIP3    H245918   0.780   3.167   2.022 -0.1828  0.3172  0.8546
 8143TIP3   OH245919   0.647   5.095  12.663  0.0874  0.1178 -1.1132
 8143TIP3    H145920   0.707   5.032  12.702  0.1279 -0.2963 -1.8188
 8143TIP3    H245921   0.584   5.041  12.614 -1.1697  0.5071  0.0149
 8144TIP3   OH245922   3.185   2.547   0.393 -0.1917 -0.2913 -0.5365
 8144TIP3    H145923   3.134   2.548   0.475 -0.7611 -0.3619 -0.8849
 8144TIP3    H245924   3.120   2.533   0.325 -0.0358  2.0247 -1.2400
 8145TIP3   OH245925   5.906   3.862  15.855  0.3183 -0.3169 -0.0317
 8145TIP3    H145926   5.927   3.894  15.943 -0.0725  0.8153 -0.3300
 8145TIP3    H245927   5.851   3.784  15.870  1.5231 -1.0513  0.7134
 8146TIP3   OH245928   2.841   1.937   2.331 -0.0963 -0.6693 -0.0642
 8146TIP3    H145929   2.880   1.850   2.318 -1.4272 -0.9944 -2.5459
 8146TIP3    H245930   2.896   1.995   2.278  0.5482 -0.0130  1.2695
 8147TIP3   OH245931   1.088   5.075   0.545 -0.8337 -0.1125 -0.0262
 8147TIP3    H145932   1.075   4.988   0.582 -1.9375  0.1658  0.2702
 8147TIP3    H245933   1.021   5.130   0.586 -1.3852  0.4499 -1.5799
 8148TIP3   OH245934   5.613   3.076  13.261  0.1233 -0.1157 -0.5366
 8148TIP3    H145935   5.614   2.980  13.268 -1.9067 -0.1476 -0.0844
 8148TIP3    H245936   5.604   3.093  13.167  0.8579 -0.3257 -0.6584
 8149TIP3   OH245937   2.989   6.004  16.979 -0.0098 -0.0539 -0.1965
 8149TIP3    H145938   2.901   6.038  16.996  0.0645 -0.1281  0.3600
 8149TIP3    H245939   2.996   6.000  16.883 -1.0306 -1.0912 -0.2543
 8150TIP3   OH245940   3.867   5.787  13.650  0.3961 -0.2637  0.3966
 8150TIP3    H145941   3.781   5.761  13.682  0.8613 -2.0719  0.2558
 8150TIP3    H245942   3.928   5.727  13.693  1.6658  1.3189  0.8936
 8151TIP3   OH245943   5.487   5.419   2.872  0.7519  0.3849  0.1664
 8151TIP3    H145944   5.469   5.513   2.880  1.6392  0.5197  0.7528
 8151TIP3    H245945   5.507   5.406   2.779  0.9797  0.8448  0.1487
 8152TIP3   OH245946   3.839   1.409   4.237  0.0492  0.6526 -0.0071
 8152TIP3    H145947   3.897   1.372   4.171 -0.6372 -1.7015  0.6284
 8152TIP3    H245948   3.872   1.377   4.320  1.7023  4.6436  1.0977
 8153TIP3   OH245949   4.010   1.512   4.587  0.4475  0.0909 -0.4946
 8153TIP3    H145950   4.052   1.522   4.672 -1.4198 -0.4494  0.5511
 8153TIP3    H245951   3.950   1.587   4.580  0.6515  0.1879 -1.3851
 8154TIP3   OH245952   0.234   3.765  13.383 -0.8268 -0.0193 -0.4004
 8154TIP3    H145953   0.152   3.813  13.394 -1.4443 -1.2300  0.5156
 8154TIP3    H245954   0.302   3.829  13.399 -1.6107  0.7706 -0.1792
 8155TIP3   OH245955   0.869   2.562   2.718 -0.7914  0.2261 -0.3396
 8155TIP3    H145956   0.952   2.540   2.759 -1.0617 -3.2435 -1.2978
 8155TIP3    H245957   0.892   2.620   2.645  0.8259 -0.6401 -0.5642
 8156TIP3   OH245958   3.039   3.969   0.864  0.4771  0.1277  0.0252
 8156TIP3    H145959   3.079   3.882   0.866 -2.5669 -1.4185 -0.5319
 8156TIP3    H245960   3.030   3.994   0.956 -0.9554 -1.3807  0.3353
 8157TIP3   OH245961   5.475   3.109   1.999  0.2977  0.5741  0.0289
 8157TIP3    H145962   5.570   3.110   1.986  0.5097  0.2237  1.4016
 8157TIP3    H245963   5.464   3.089   2.092 -1.1287  0.3338 -0.1744
 8158TIP3   OH245964   5.124   2.089   3.428  0.1717 -0.1858  0.1275
 8158TIP3    H145965   5.193   2.023   3.427 -1.3071 -1.8945 -2.5011
 8158TIP3    H245966   5.153   2.156   3.366 -0.5838 -1.0651 -1.2258
 8159TIP3   OH245967   1.765   1.624  16.194  0.5023 -0.1404 -0.1226
 8159TIP3    H145968   1.806   1.674  16.264 -0.7031  1.5607 -0.5584
 8159TIP3    H245969   1.695   1.575  16.236  0.6133 -0.1529  0.0492
 8160TIP3   OH245970   3.434   3.005  15.365  1.0823 -0.5502 -0.4508
 8160TIP3    H145971   3.475   3.059  15.297  0.1734 -0.4881 -0.9724
 8160TIP3    H245972   3.496   2.933  15.379  1.6937 -0.0805 -0.7069
 8161TIP3   OH245973   4.737   3.384  16.285 -0.2725  0.5718 -0.5789
 8161TIP3    H145974   4.757   3.314  16.223  1.4174  0.7161 -0.2462
 8161TIP3    H245975   4.816   3.393  16.338 -1.3881  0.9565  1.1352
 8162TIP3   OH245976   2.172   3.692  13.419  0.3309  0.0645  0.1243
 8162TIP3    H145977   2.128   3.738  13.490  0.0369 -0.6751  0.4264
 8162TIP3    H245978   2.114   3.703  13.343  0.3136  0.2769  0.1677
 8163TIP3   OH245979   1.024   4.553  16.727 -0.5292 -0.5859 -0.3326
 8163TIP3    H145980   0.960   4.623  16.720 -0.6143 -0.4781  1.3534
 8163TIP3    H245981   0.994   4.499  16.800  2.0126  0.2535  1.4465
 8164TIP3   OH245982   1.895   6.425  13.571  0.4085 -1.1265  0.0340
 8164TIP3    H145983   1.928   6.347  13.527  0.4814 -1.8823  1.3591
 8164TIP3    H245984   1.955   6.437  13.645 -0.5468 -0.7791  0.7766
 8165TIP3   OH245985   6.302   4.124  11.140 -0.5248  0.3723  0.3603
 8165TIP3    H145986   6.271   4.056  11.200  0.7429 -0.6538 -0.1004
 8165TIP3    H245987   6.302   4.081  11.054 -2.2328  1.7875 -0.4042
 8166TIP3   OH245988   2.355   5.951   1.946 -0.0654  0.5198  0.6651
 8166TIP3    H145989   2.301   5.953   2.025 -0.1648 -1.4185  0.6796
 8166TIP3    H245990   2.340   6.037   1.905 -2.0320  0.5732  1.3900
 8167TIP3   OH245991   4.568   5.652  12.595 -0.9009  0.4790  0.3646
 8167TIP3    H145992   4.654   5.684  12.568 -1.8024  2.0129 -0.8428
 8167TIP3    H245993   4.551   5.578  12.537  0.0415 -0.5562  1.3557
 8168TIP3   OH245994   0.169   3.662   5.536  0.1524 -0.4038 -0.2112
 8168TIP3    H145995   0.258   3.691   5.515  0.6977 -0.0511  2.2103
 8168TIP3    H245996   0.182   3.576   5.576 -0.5543 -0.2731  0.3126
 8169TIP3   OH245997   2.552   5.053  13.860 -0.2326 -0.1812  0.1887
 8169TIP3    H145998   2.525   5.127  13.914 -0.1773 -0.8596  1.1908
 8169TIP3    H245999   2.532   5.079  13.770 -1.3812  0.5383  0.6308
 8170TIP3   OH246000   5.267   0.567   5.395 -0.5477  0.5968 -0.3724
 8170TIP3    H146001   5.251   0.586   5.487 -0.7970 -1.0910 -0.0398
 8170TIP3    H246002   5.204   0.622   5.348 -3.0746 -1.2055  0.6540
 8171TIP3   OH246003   4.841   5.878  15.129  0.0638 -0.4570 -0.0415
 8171TIP3    H146004   4.849   5.830  15.211  0.6577 -0.8078 -0.2930
 8171TIP3    H246005   4.758   5.925  15.136  0.0658 -0.5495  0.7194
 8172TIP3   OH246006   2.492   0.687   5.104  0.1650  0.1324  0.0929
 8172TIP3    H146007   2.472   0.637   5.024 -0.1877  0.8432 -0.2726
 8172TIP3    H246008   2.464   0.776   5.084  2.7716  0.9863 -0.0816
 8173TIP3   OH246009   5.728   3.012   0.157  0.9092  0.3691  0.1106
 8173TIP3    H146010   5.634   3.025   0.169  0.4559 -1.5606 -0.9925
 8173TIP3    H246011   5.767   3.094   0.189 -1.1417  1.3738  0.2465
 8174TIP3   OH246012   1.525   0.254  16.430  0.0179  0.1845 -0.0350
 8174TIP3    H146013   1.469   0.322  16.392 -0.6205  0.1753  0.8525
 8174TIP3    H246014   1.604   0.300  16.457  0.2307  0.2926 -0.8365
 8175TIP3   OH246015   6.028   1.161  16.245  0.3692  0.2383  0.3226
 8175TIP3    H146016   5.972   1.211  16.304  1.2134  1.0226  0.4932
 8175TIP3    H246017   6.048   1.222  16.174  0.7916 -0.1054  0.1403
 8176TIP3   OH246018   6.232   5.489  10.820  0.5907  0.6375 -0.1270
 8176TIP3    H146019   6.191   5.519  10.739 -0.3595 -1.9736 -0.6985
 8176TIP3    H246020   6.179   5.527  10.889  0.4306  1.5831 -0.7503
 8177TIP3   OH246021   5.909   4.534  13.973  0.3895  0.5426  0.1732
 8177TIP3    H146022   5.860   4.597  13.921  0.1922 -0.2585 -0.6471
 8177TIP3    H246023   5.970   4.587  14.025  1.1594  1.3298 -1.4652
 8178TIP3   OH246024   5.362   5.528   4.019  0.0781  0.5173  0.4526
 8178TIP3    H146025   5.268   5.539   4.006  0.0951  0.0903 -0.0711
 8178TIP3    H246026   5.401   5.555   3.936  0.4843  1.4635  0.9337
 8179TIP3   OH246027   0.212   1.873   3.173  0.1270  0.0905  0.2042
 8179TIP3    H146028   0.147   1.930   3.216 -3.0062 -1.0167 -2.5988
 8179TIP3    H246029   0.256   1.931   3.111  1.2342  0.6275  1.4318
 8180TIP3   OH246030   0.548   3.776  12.168  0.4209 -0.3616  0.0063
 8180TIP3    H146031   0.477   3.839  12.156 -2.0480 -2.5319  2.0426
 8180TIP3    H246032   0.562   3.740  12.080 -0.4440  0.6253 -0.5714
 8181TIP3   OH246033   6.001   0.557   3.231 -0.0204  0.7861 -0.5201
 8181TIP3    H146034   5.954   0.507   3.165 -0.1456  0.6468 -0.3283
 8181TIP3    H246035   6.019   0.493   3.301 -0.4668  1.0820 -0.1283
 8182TIP3   OH246036   2.879   4.028  12.959 -0.0005  0.0652 -0.3801
 8182TIP3    H146037   2.961   4.073  12.981 -1.2564  1.5236  1.7073
 8182TIP3    H246038   2.875   3.955  13.021 -0.8116  0.7279  0.3734
 8183TIP3   OH246039   6.406   4.404   5.144  0.2891 -0.1393 -0.0202
 8183TIP3    H146040   6.491   4.427   5.183  1.3952  1.2109 -2.8697
 8183TIP3    H246041   6.421   4.414   5.050 -2.2241 -2.8893 -0.8292
 8184TIP3   OH246042   5.822   2.513   5.061  0.5419 -0.5576 -0.1532
 8184TIP3    H146043   5.770   2.554   4.992 -2.9244 -1.2785  1.8118
 8184TIP3    H246044   5.876   2.583   5.095 -1.8463  1.2929  0.0784
 8185TIP3   OH246045   5.149   2.085   4.910  0.4730  1.2354  0.5505
 8185TIP3    H146046   5.242   2.080   4.891  0.0257  2.1844 -2.3330
 8185TIP3    H246047   5.135   2.174   4.943  0.4079  1.5547 -0.3210
 8186TIP3   OH246048   1.834   3.671   3.512  0.3023 -0.1809 -0.3077
 8186TIP3    H146049   1.815   3.719   3.431 -0.1842 -0.1974 -0.2066
 8186TIP3    H246050   1.750   3.671   3.559  0.8496  0.8208  0.7179
 8187TIP3   OH246051   4.245   3.889  12.942  0.0609 -0.4292 -0.5401
 8187TIP3    H146052   4.250   3.875  13.036 -0.0894  0.8057 -0.3252
 8187TIP3    H246053   4.267   3.805  12.903  1.4489 -0.6077  0.5767
 8188TIP3   OH246054   5.805   6.020   3.682 -0.7881  0.2317  0.0097
 8188TIP3    H146055   5.899   6.028   3.698 -0.2022 -0.3718 -2.6838
 8188TIP3    H246056   5.767   6.094   3.730  1.3536  2.0643 -0.9246
 8189TIP3   OH246057   1.262   6.108   2.433  0.4952 -0.0840 -0.2580
 8189TIP3    H146058   1.265   6.186   2.489 -1.0163 -0.5248  0.5039
 8189TIP3    H246059   1.286   6.139   2.346  3.0889  0.6003  0.6217
 8190TIP3   OH246060   5.289   2.648  12.537  0.0590  0.0048 -0.1547
 8190TIP3    H146061   5.298   2.554  12.552  2.6766  0.2496  0.4620
 8190TIP3    H246062   5.338   2.664  12.456 -0.4045  0.8257 -0.2838
 8191TIP3   OH246063   4.983   5.656  13.406  0.9564  0.7892  0.7369
 8191TIP3    H146064   5.066   5.671  13.452  0.8216  1.4038  0.7876
 8191TIP3    H246065   4.925   5.619  13.473  0.7896  1.5956  1.0517
 8192TIP3   OH246066   6.768   1.752   3.390 -0.2254 -0.1021 -0.7469
 8192TIP3    H146067   6.698   1.784   3.447 -1.2631 -1.0768 -1.4247
 8192TIP3    H246068   6.807   1.831   3.352  1.2439  0.6555  2.0820
 8193TIP3   OH246069   4.911   4.154   2.759  0.1684 -0.3013  0.0096
 8193TIP3    H146070   4.855   4.177   2.834  0.2594  0.4759 -0.1562
 8193TIP3    H246071   4.873   4.202   2.685 -0.3215 -1.5881 -0.5947
 8194TIP3   OH246072   4.356   2.136  13.467  0.4172 -0.2891 -0.1134
 8194TIP3    H146073   4.317   2.098  13.389  1.3165 -0.9358 -0.2723
 8194TIP3    H246074   4.348   2.230  13.456  0.5259 -0.3782 -0.9820
 8195TIP3   OH246075   3.197   0.737   5.971  0.7554  0.9688 -0.3292
 8195TIP3    H146076   3.284   0.758   6.005  0.7481  0.0231  0.3182
 8195TIP3    H246077   3.139   0.800   6.014  0.6681 -0.5249  1.9360
 8196TIP3   OH246078   4.214   6.487   6.681  0.0207 -0.0748 -0.5198
 8196TIP3    H146079   4.167   6.546   6.742  1.2416 -0.2259  0.6121
 8196TIP3    H246080   4.290   6.458   6.731  1.1983 -0.0186 -2.2377
 8197TIP3   OH246081   2.001   3.184   1.256  0.1048 -0.3559  0.1949
 8197TIP3    H146082   2.006   3.239   1.178  1.6304  1.2965  1.3717
 8197TIP3    H246083   1.976   3.245   1.326 -1.4951 -1.8417  0.9976
 8198TIP3   OH246084   2.119   0.561   2.450  0.4773  0.0195 -0.0843
 8198TIP3    H146085   2.164   0.480   2.428  1.0731  0.1257  0.6825
 8198TIP3    H246086   2.026   0.541   2.439  0.6919 -0.2785 -1.4366
 8199TIP3   OH246087   5.419   2.601   4.220  0.3876  0.6145 -0.1768
 8199TIP3    H146088   5.506   2.579   4.254  0.1777  1.0493  0.6804
 8199TIP3    H246089   5.370   2.519   4.227  0.7719  0.3260 -0.8157
 8200TIP3   OH246090   1.389   1.601   0.858  0.1454 -0.2039  0.5163
 8200TIP3    H146091   1.431   1.685   0.838 -0.1865 -0.2142 -0.2539
 8200TIP3    H246092   1.383   1.556   0.773 -0.5161 -0.6229  0.7749
 8201TIP3   OH246093   6.235   0.597   5.699  0.6250  0.1265  0.0453
 8201TIP3    H146094   6.158   0.605   5.756 -0.3208 -3.0651 -0.5503
 8201TIP3    H246095   6.204   0.625   5.613  0.6000  0.3869  0.1392
 8202TIP3   OH246096   4.943   3.415  11.805  0.0182  0.6512 -0.0008
 8202TIP3    H146097   4.906   3.350  11.865 -0.0076  0.2404 -0.4607
 8202TIP3    H246098   5.034   3.388  11.794  0.0880  0.8646  0.0325
 8203TIP3   OH246099   2.792   6.701  12.163 -0.3151  0.0849 -0.1258
 8203TIP3    H146100   2.702   6.683  12.190 -0.0150 -0.9920  0.2005
 8203TIP3    H246101   2.807   6.645  12.087  1.0203 -2.1168  1.6227
 8204TIP3   OH246102   3.020   0.705  12.756 -0.3732 -0.0871 -0.9225
 8204TIP3    H146103   2.973   0.745  12.829 -0.1712  1.8172 -1.7792
 8204TIP3    H246104   3.108   0.689  12.790 -0.3117  0.6860 -0.7010
 8205TIP3   OH246105   2.372   5.059  12.712  0.0891  0.1012 -0.3721
 8205TIP3    H146106   2.406   5.032  12.627  1.2522 -0.6600  0.3009
 8205TIP3    H246107   2.433   5.127  12.741  1.8480 -2.0733  1.3582
 8206TIP3   OH246108   3.760   2.745   6.216  0.0917 -0.0327  0.2711
 8206TIP3    H146109   3.763   2.841   6.208  0.1036  0.1493  1.9799
 8206TIP3    H246110   3.673   2.727   6.251 -0.8874 -0.9234 -2.3857
 8207TIP3   OH246111   1.531   2.533   0.257 -0.6041  0.1498 -0.2280
 8207TIP3    H146112   1.494   2.619   0.237 -1.7998 -0.2027  0.3896
 8207TIP3    H246113   1.461   2.471   0.235 -0.0598 -0.6074  0.1152
 8208TIP3   OH246114   6.615   5.442  16.659 -0.3574  0.1069  0.7292
 8208TIP3    H146115   6.595   5.533  16.677  0.2103  0.1061  1.4569
 8208TIP3    H246116   6.530   5.399  16.651 -0.6856  1.0811 -1.8924
 8209TIP3   OH246117   2.854   1.510  13.465  0.2838 -0.1384  0.4051
 8209TIP3    H146118   2.846   1.554  13.549  1.2701  0.5484  0.1560
 8209TIP3    H246119   2.946   1.524  13.439  0.7601 -2.6628  0.4921
 8210TIP3   OH246120   3.694   0.192  13.985 -0.2783 -0.1628 -0.1616
 8210TIP3    H146121   3.707   0.255  13.915 -0.8897 -2.3802 -2.4097
 8210TIP3    H246122   3.781   0.159  14.005  0.0204  1.1764  0.8962
 8211TIP3   OH246123   1.885   1.128  15.183 -0.2604  0.2224 -0.2144
 8211TIP3    H146124   1.905   1.220  15.166  1.3957 -0.2248 -0.9363
 8211TIP3    H246125   1.951   1.100  15.247  0.0278 -0.7444 -0.9053
 8212TIP3   OH246126   1.271   6.705  12.750  0.4511  0.4149 -0.3504
 8212TIP3    H146127   1.250   6.639  12.817 -0.4722  0.5226 -0.5134
 8212TIP3    H246128   1.186   6.724  12.709  0.9824  0.4267 -1.4757
 8213TIP3   OH246129   5.915   5.750  14.398 -0.0002 -0.0081 -0.3859
 8213TIP3    H146130   5.823   5.773  14.382  0.7288  3.5746 -0.2876
 8213TIP3    H246131   5.956   5.753  14.311  0.2639 -0.4141 -0.2788
 8214TIP3   OH246132   1.687   5.533  11.459 -0.3929  0.4539 -0.1259
 8214TIP3    H146133   1.608   5.573  11.496 -0.5625  0.0645 -0.0606
 8214TIP3    H246134   1.747   5.524  11.533 -0.2715  0.7788 -0.1816
 8215TIP3   OH246135   5.539   5.709  15.478 -0.2555 -0.5230  0.3118
 8215TIP3    H146136   5.478   5.645  15.440 -0.4981 -0.2910  0.3036
 8215TIP3    H246137   5.625   5.671  15.464 -0.3478 -0.5051 -0.3606
 8216TIP3   OH246138   4.643   0.763   5.431 -0.0883  0.4689 -0.3257
 8216TIP3    H146139   4.621   0.704   5.359  1.5528  1.4537 -1.7210
 8216TIP3    H246140   4.627   0.711   5.510 -1.5698 -0.7790 -1.3793
 8217TIP3   OH246141   0.932   0.362   0.495  0.1055  0.8495  0.3143
 8217TIP3    H146142   0.858   0.309   0.464  0.3045  0.6416  0.1927
 8217TIP3    H246143   0.954   0.324   0.580  0.4050  0.5780  0.1184
 8218TIP3   OH246144   6.200   0.966   1.601 -0.1303  0.1127  0.2801
 8218TIP3    H146145   6.286   1.008   1.594  0.7073 -1.5717 -0.0739
 8218TIP3    H246146   6.143   1.018   1.545  1.6533 -1.1103 -2.9010
 8219TIP3   OH246147   5.360   0.405  17.019  0.0159  0.3965  0.5585
 8219TIP3    H146148   5.437   0.440  16.974  0.0695 -0.5346 -0.1023
 8219TIP3    H246149   5.389   0.391  17.109  1.4113 -2.2049 -0.1960
 8220TIP3   OH246150   0.706   4.382  12.916 -0.2917  0.3134  0.4916
 8220TIP3    H146151   0.623   4.379  12.868 -0.7758 -1.2619  1.3648
 8220TIP3    H246152   0.685   4.429  12.996  0.7418  3.8328 -1.0892
 8221TIP3   OH246153   4.846   1.836   5.033 -0.0251  0.3895  0.9792
 8221TIP3    H146154   4.865   1.910   4.976  0.4414 -1.9243 -2.1901
 8221TIP3    H246155   4.926   1.822   5.083  1.6466 -0.5780 -1.7295
 8222TIP3   OH246156   4.066   0.821   3.257 -0.0542  0.0813 -0.3042
 8222TIP3    H146157   4.026   0.764   3.323 -0.4571  0.1116 -0.5194
 8222TIP3    H246158   4.043   0.910   3.285 -2.3897  0.0553 -1.7917
 8223TIP3   OH246159   2.877   3.070   5.606  0.0434  0.3710 -0.6448
 8223TIP3    H146160   2.940   3.135   5.637 -0.0535  0.1201  0.0921
 8223TIP3    H246161   2.926   2.987   5.605 -0.3319  0.1349  0.1463
 8224TIP3   OH246162   5.001   0.383   5.389  0.4502  0.1990 -0.2550
 8224TIP3    H146163   5.005   0.314   5.323  0.7423 -1.2761  1.2471
 8224TIP3    H246164   5.019   0.464   5.340  0.9696 -0.8679 -1.9072
 8225TIP3   OH246165   2.037   6.002   1.321  0.2171  0.1202  0.4085
 8225TIP3    H146166   2.017   5.987   1.229 -0.0132  2.7290 -0.0383
 8225TIP3    H246167   2.068   5.917   1.353  1.5976 -0.5562 -2.3996
 8226TIP3   OH246168   6.313   6.380  16.192  0.0547 -0.0773 -0.0442
 8226TIP3    H146169   6.313   6.462  16.141 -0.9862 -0.0882 -0.0825
 8226TIP3    H246170   6.404   6.369  16.220  0.2801  0.8972 -0.3569
 8227TIP3   OH246171   2.964   6.508   0.225  0.0579  0.8233 -0.3604
 8227TIP3    H146172   2.881   6.553   0.239 -0.3455  0.1121 -0.4307
 8227TIP3    H246173   2.959   6.475   0.136 -0.4465 -0.9584  0.2911
 8228TIP3   OH246174   4.929   0.658   0.102  0.1984 -0.4176 -0.8394
 8228TIP3    H146175   4.962   0.703   0.179 -0.6130  0.2455 -0.8656
 8228TIP3    H246176   4.837   0.639   0.123 -0.3477  0.7213 -2.0335
 8229TIP3   OH246177   4.780   1.814  11.839 -0.0619  0.5783 -0.3109
 8229TIP3    H146178   4.708   1.752  11.849 -0.5980  1.2196 -0.0701
 8229TIP3    H246179   4.815   1.798  11.752  0.3229 -0.5917  0.0485
 8230TIP3   OH246180   3.451   0.789  10.424 -0.2199 -0.7856  0.0603
 8230TIP3    H146181   3.477   0.709  10.380 -0.3331 -0.6654 -0.2273
 8230TIP3    H246182   3.510   0.796  10.499  0.4956 -0.5833 -0.5100
 8231TIP3   OH246183   5.578   1.978   2.573 -0.0074  0.3015 -0.2343
 8231TIP3    H146184   5.665   1.944   2.553  0.4622  1.9456 -1.1326
 8231TIP3    H246185   5.531   1.974   2.490 -0.5727  0.0772  0.0898
 8232TIP3   OH246186   0.823   5.125  12.326  0.2186 -0.1298  0.6964
 8232TIP3    H146187   0.851   5.034  12.338  2.3467  0.4733  0.6802
 8232TIP3    H246188   0.800   5.132  12.234 -0.9372 -0.8772  0.9118
 8233TIP3   OH246189   3.458   6.015   5.006  0.3271 -0.2552 -0.3627
 8233TIP3    H146190   3.530   5.957   4.980  0.3247 -0.5247  0.2006
 8233TIP3    H246191   3.407   5.963   5.068  0.6770  0.5606  0.6439
 8234TIP3   OH246192   0.905   4.309   0.755 -0.4293  0.1768 -0.0005
 8234TIP3    H146193   0.910   4.214   0.766 -0.4802  0.2514  0.7042
 8234TIP3    H246194   0.879   4.321   0.663  1.4417 -0.4439 -0.6596
 8235TIP3   OH246195   2.668   3.686   4.484  0.0474  0.4632  0.2152
 8235TIP3    H146196   2.578   3.672   4.515  0.8850  0.0138  2.7110
 8235TIP3    H246197   2.710   3.735   4.555  2.0624 -0.3310 -0.3605
 8236TIP3   OH246198   2.042   0.986   1.144  0.5019  0.0904 -0.0166
 8236TIP3    H146199   1.958   0.975   1.189 -2.6600  0.8713 -4.9454
 8236TIP3    H246200   2.076   1.069   1.177 -0.0232 -0.7085  2.8095
 8237TIP3   OH246201   5.107   5.940  16.284  0.1258  0.4653 -0.2822
 8237TIP3    H146202   5.093   5.928  16.190  0.9495  2.0285 -0.6488
 8237TIP3    H246203   5.189   5.895  16.302  0.9442  1.7146 -0.7351
 8238TIP3   OH246204   6.221   0.325  16.804 -0.2482 -0.1438 -0.2915
 8238TIP3    H146205   6.146   0.283  16.845  0.3392 -0.1315  0.8384
 8238TIP3    H246206   6.294   0.307  16.864  0.3086  1.2401 -0.5149
 8239TIP3   OH246207   2.587   3.579  17.147  0.1227  0.1377 -0.4678
 8239TIP3    H146208   2.629   3.586  17.061  1.3272 -0.3779  0.0584
 8239TIP3    H246209   2.578   3.485  17.163 -0.3086  0.2315 -0.1278
 8240TIP3   OH246210   2.246   5.216   0.762  0.1062 -0.3063 -0.3443
 8240TIP3    H146211   2.305   5.143   0.740 -1.0128 -0.6770 -2.3876
 8240TIP3    H246212   2.298   5.295   0.747  0.3713 -0.6423 -1.2188
 8241TIP3   OH246213   2.535   3.358  17.316 -0.4400  0.3887  0.7707
 8241TIP3    H146214   2.464   3.405  17.358 -0.6041  0.0712  0.8542
 8241TIP3    H246215   2.604   3.354  17.381 -0.9097 -0.6108  1.2324
 8242TIP3   OH246216   5.562   4.151  13.323 -0.1106 -0.5992 -0.0876
 8242TIP3    H146217   5.656   4.164  13.334  0.1609 -0.1273 -2.5142
 8242TIP3    H246218   5.535   4.105  13.402  2.2838 -1.4234  0.3246
 8243TIP3   OH246219   5.297   6.425  15.022 -0.9557 -0.0100  0.0078
 8243TIP3    H146220   5.380   6.423  15.071 -0.2590  0.8078 -1.0969
 8243TIP3    H246221   5.238   6.371  15.074  0.0761 -0.0693  1.1776
 8244TIP3   OH246222   3.595   1.649   4.641  0.2028 -0.0499 -0.6544
 8244TIP3    H146223   3.528   1.584   4.622  0.3723 -0.1693 -0.8391
 8244TIP3    H246224   3.559   1.731   4.606 -0.4508  0.1617  0.4530
 8245TIP3   OH246225   5.806   2.770   5.802  0.0711 -0.5821 -1.2163
 8245TIP3    H146226   5.715   2.778   5.830 -0.9349 -1.4928 -3.9295
 8245TIP3    H246227   5.851   2.841   5.848 -2.0200  0.0578 -0.0010
 8246TIP3   OH246228   2.711   0.662  11.019  0.5504  0.3530  0.1490
 8246TIP3    H146229   2.781   0.717  11.056  1.4795 -0.9386  0.4172
 8246TIP3    H246230   2.700   0.591  11.083 -2.2525  1.4100  0.9718
 8247TIP3   OH246231   0.922   1.268   5.306 -0.6491  0.8688 -0.1128
 8247TIP3    H146232   0.847   1.253   5.364  0.8498 -0.6583  1.5434
 8247TIP3    H246233   0.980   1.326   5.356  0.0680  0.6101 -0.6277
 8248TIP3   OH246234   1.918   4.941   0.822 -0.0769 -0.7151  0.0461
 8248TIP3    H146235   1.930   5.016   0.763 -2.4236 -0.5064 -0.2691
 8248TIP3    H246236   1.907   4.866   0.764 -0.4643 -0.8364  0.2717
 8249TIP3   OH246237   3.604   2.397  13.140 -0.3192  0.0792 -0.3946
 8249TIP3    H146238   3.669   2.400  13.210 -2.8969 -0.1943  2.2069
 8249TIP3    H246239   3.597   2.304  13.119  0.5106  0.1684 -1.1432
 8250TIP3   OH246240   3.009   5.586  13.515  0.7055  0.4431  0.2064
 8250TIP3    H146241   3.088   5.578  13.462  1.3936  1.3295  1.0533
 8250TIP3    H246242   3.017   5.516  13.581 -0.1183 -0.6173 -0.7759
 8251TIP3   OH246243   0.953   0.833  15.899  0.3188  0.3953  0.0210
 8251TIP3    H146244   0.892   0.871  15.962  0.5274  0.1678  0.3567
 8251TIP3    H246245   1.022   0.899  15.890 -0.8112  1.4544 -1.6605
 8252TIP3   OH246246   4.048   2.259   2.987  0.0225  0.9137  0.2730
 8252TIP3    H146247   4.006   2.333   2.944 -1.0719  1.2969  1.9119
 8252TIP3    H246248   3.987   2.186   2.973 -1.5505  1.5514  2.9589
 8253TIP3   OH246249   6.001   2.246   1.737  0.1349 -0.1341 -0.4194
 8253TIP3    H146250   5.948   2.288   1.668 -1.2909 -0.3390  0.5104
 8253TIP3    H246251   5.950   2.169   1.763  0.4802  0.1039  1.0657
 8254TIP3   OH246252   2.733   3.170  16.842  0.1894 -0.3870  0.1868
 8254TIP3    H146253   2.717   3.194  16.933 -0.1981 -0.0883  0.0412
 8254TIP3    H246254   2.804   3.107  16.846 -0.0013 -0.5687  0.7157
 8255TIP3   OH246255   4.595   5.675  13.574  0.3314 -0.3712 -0.2091
 8255TIP3    H146256   4.657   5.615  13.615 -0.2032  0.0384  1.2607
 8255TIP3    H246257   4.541   5.706  13.646 -0.0983  1.0587 -1.1123
 8256TIP3   OH246258   4.437   6.623  10.673  0.5466 -0.3674  0.2120
 8256TIP3    H146259   4.379   6.584  10.608  1.1152 -2.1406  0.7022
 8256TIP3    H246260   4.422   6.571  10.752  2.4178 -0.5713  0.4733
 8257TIP3   OH246261   4.238   3.041   0.959  0.1417  0.4477 -0.1689
 8257TIP3    H146262   4.252   3.103   0.887  0.2534  0.3539 -0.2276
 8257TIP3    H246263   4.224   2.957   0.916 -0.1746  0.4607 -0.0957
 8258TIP3   OH246264   3.089   6.215   3.374  0.7378 -0.3971  0.1769
 8258TIP3    H146265   3.054   6.265   3.300 -1.4384 -0.0378  1.3520
 8258TIP3    H246266   3.183   6.229   3.370  0.7301 -0.5409 -2.6002
 8259TIP3   OH246267   3.405   1.918  13.963 -0.7812  0.0946 -0.1975
 8259TIP3    H146268   3.360   1.998  13.939  1.5161  1.4593 -0.2223
 8259TIP3    H246269   3.443   1.936  14.049  1.6651 -0.0520 -1.1711
 8260TIP3   OH246270   6.514   4.083   5.420  0.1434 -0.4832 -0.0169
 8260TIP3    H146271   6.583   4.023   5.447  0.9025 -1.1250 -3.0208
 8260TIP3    H246272   6.559   4.166   5.403 -0.2036 -0.2448  0.2161
 8261TIP3   OH246273   3.066   6.212  13.786  0.4408 -0.0036  0.4030
 8261TIP3    H146274   3.116   6.275  13.736  0.6685  0.4592  1.1983
 8261TIP3    H246275   3.047   6.141  13.724  0.9482  0.4242 -0.2488
 8262TIP3   OH246276   0.182   6.396  16.185 -0.0797 -0.7806  0.2019
 8262TIP3    H146277   0.150   6.458  16.119  0.5566 -0.9505 -0.2718
 8262TIP3    H246278   0.118   6.325  16.183 -3.0239  1.4554  3.4113
 8263TIP3   OH246279   4.013   3.793  14.324  0.4887 -0.0354  0.2377
 8263TIP3    H146280   3.997   3.701  14.343  1.0531  0.0227  1.0659
 8263TIP3    H246281   4.045   3.829  14.407 -0.9797  1.2077  0.3217
 8264TIP3   OH246282   5.302   5.208   2.525 -0.1435 -0.5738  0.2871
 8264TIP3    H146283   5.351   5.290   2.529 -0.5020 -0.3920  1.2840
 8264TIP3    H246284   5.210   5.234   2.534 -0.3794 -0.9825 -0.7364
 8265TIP3   OH246285   5.932   6.556   3.331  0.1798  0.0101  0.2916
 8265TIP3    H146286   6.003   6.525   3.388  2.8643  1.1631 -2.1667
 8265TIP3    H246287   5.946   6.650   3.324 -1.8021  0.3275 -0.1055
 8266TIP3   OH246288   3.185   1.271   2.739  0.3161  0.0087  0.1177
 8266TIP3    H146289   3.206   1.225   2.657 -1.1219  0.2013 -0.3911
 8266TIP3    H246290   3.090   1.259   2.749  0.4048  0.3397  1.5506
 8267TIP3   OH246291   6.575   2.057  15.266 -0.1697 -0.2012 -0.5687
 8267TIP3    H146292   6.608   2.094  15.184  0.9388 -2.2547 -1.1083
 8267TIP3    H246293   6.648   2.064  15.327  1.1930 -3.9267 -1.5073
 8268TIP3   OH246294   0.531   0.399  12.588 -0.3939  0.5604 -0.2178
 8268TIP3    H146295   0.546   0.438  12.674 -0.7822  0.1042  0.0591
 8268TIP3    H246296   0.439   0.374  12.589 -0.6963  1.5491 -1.1715
 8269TIP3   OH246297   0.871   2.964   0.835 -0.1057 -0.2077  0.1651
 8269TIP3    H146298   0.850   2.988   0.925 -0.0863  2.1839 -0.4079
 8269TIP3    H246299   0.814   2.888   0.817 -1.9139  0.7704  1.4147
 8270TIP3   OH246300   0.967   0.913   3.674  0.3859  1.0212  0.3960
 8270TIP3    H146301   0.930   0.905   3.762 -2.2954  2.4419 -0.4754
 8270TIP3    H246302   0.923   0.845   3.623  0.1757  1.6641 -0.3098
 8271TIP3   OH246303   5.866   6.339  16.253  0.6475 -0.2850  0.0312
 8271TIP3    H146304   5.919   6.295  16.319  0.9749  0.7049  0.4477
 8271TIP3    H246305   5.874   6.432  16.274 -0.6817 -0.0662 -0.3240
 8272TIP3   OH246306   5.615   3.687   1.055  0.1270 -0.0243  0.5399
 8272TIP3    H146307   5.688   3.698   0.994  0.3460  1.1723  0.9741
 8272TIP3    H246308   5.591   3.595   1.048  1.6475 -0.4369  0.3300
 8273TIP3   OH246309   2.613   5.795   2.835 -0.5814  0.3807 -0.6293
 8273TIP3    H146310   2.615   5.702   2.855 -1.0199  0.2679 -1.0844
 8273TIP3    H246311   2.618   5.800   2.740 -1.4097  0.7733 -0.6699
 8274TIP3   OH246312   0.501   0.689   5.687  0.1052 -0.0106  0.1462
 8274TIP3    H146313   0.446   0.754   5.731  1.0322  1.1874 -0.3954
 8274TIP3    H246314   0.459   0.676   5.602 -2.0554 -2.8083  1.4480
 8275TIP3   OH246315   6.651   1.039  13.080 -0.3520 -0.2402  0.1620
 8275TIP3    H146316   6.614   0.970  13.025 -0.0459 -0.3020  0.0308
 8275TIP3    H246317   6.575   1.084  13.116 -0.6077  1.1844 -1.9989
 8276TIP3   OH246318   0.543   2.701  13.832 -0.2435 -0.9811  0.1138
 8276TIP3    H146319   0.550   2.605  13.834  1.3176 -0.8743  0.6587
 8276TIP3    H246320   0.580   2.725  13.747 -0.2027 -0.8155  0.1802
 8277TIP3   OH246321   2.813   5.976  11.352 -0.0611  0.3716 -0.6937
 8277TIP3    H146322   2.786   6.037  11.284 -0.5673 -0.1252 -0.9538
 8277TIP3    H246323   2.735   5.966  11.407 -0.8676 -1.9148 -2.0670
 8278TIP3   OH246324   2.858   6.281   2.520 -0.1639 -0.8960 -0.9234
 8278TIP3    H146325   2.943   6.315   2.496  1.3603 -3.5005  0.3321
 8278TIP3    H246326   2.814   6.353   2.566  2.1742 -0.0934  0.1882
 8279TIP3   OH246327   1.613   2.178   5.775 -1.0131  0.5165 -0.1781
 8279TIP3    H146328   1.635   2.139   5.690 -1.8440 -1.9337  0.6458
 8279TIP3    H246329   1.698   2.202   5.812 -0.1692 -2.3842  0.0396
 8280TIP3   OH246330   1.298   6.000  13.503  0.0239  0.2560 -0.3023
 8280TIP3    H146331   1.204   5.982  13.508  0.2862 -0.9213  2.3267
 8280TIP3    H246332   1.305   6.094  13.514 -0.8370  0.0977  2.5497
 8281TIP3   OH246333   5.744   3.637  16.031  0.7046  0.1673  0.0463
 8281TIP3    H146334   5.797   3.595  16.098 -0.7559 -0.8097  0.6240
 8281TIP3    H246335   5.683   3.693  16.079 -0.0714 -0.2095 -0.4801
 8282TIP3   OH246336   4.732   0.186  11.453 -0.1885 -0.4376 -0.1056
 8282TIP3    H146337   4.724   0.097  11.417 -0.8719 -0.8451  0.9989
 8282TIP3    H246338   4.803   0.226  11.403 -1.6223 -0.6724 -2.4899
 8283TIP3   OH246339   3.212   5.698   1.577 -0.0288  0.1476 -0.3789
 8283TIP3    H146340   3.141   5.664   1.632  1.2181 -1.4492  0.3057
 8283TIP3    H246341   3.234   5.782   1.616 -0.1243 -0.3141  0.7075
 8284TIP3   OH246342   5.014   3.720   2.361  0.6024  0.3978  0.3362
 8284TIP3    H146343   4.974   3.786   2.304 -0.0911 -0.8653 -0.6631
 8284TIP3    H246344   4.967   3.728   2.444 -1.2239 -0.5129 -0.5678
 8285TIP3   OH246345   4.331   0.414  16.560 -0.2556  0.3397  0.2519
 8285TIP3    H146346   4.352   0.335  16.510  1.0371  1.2799 -0.7831
 8285TIP3    H246347   4.348   0.486  16.499  1.1140  1.5338  1.9237
 8286TIP3   OH246348   0.811   5.497   5.040 -0.6409  0.0011 -0.4602
 8286TIP3    H146349   0.726   5.523   5.005 -1.0259 -2.6352 -1.7096
 8286TIP3    H246350   0.823   5.407   5.011  1.5498 -0.5138  1.6755
 8287TIP3   OH246351   4.874   6.330  14.946 -0.3170  0.1068  0.1442
 8287TIP3    H146352   4.788   6.371  14.939 -1.8486 -2.8987 -0.8665
 8287TIP3    H246353   4.912   6.339  14.858  0.9738  2.3801  0.8696
 8288TIP3   OH246354   5.962   1.629  12.650  0.1065 -0.6822 -0.0203
 8288TIP3    H146355   5.952   1.659  12.559  1.2845 -2.4206 -0.7964
 8288TIP3    H246356   5.966   1.709  12.702 -0.9006  0.3564 -1.4660
 8289TIP3   OH246357   5.135   5.621   2.852 -0.4037  0.6008 -0.1421
 8289TIP3    H146358   5.150   5.664   2.768  0.8591 -0.2234 -0.3545
 8289TIP3    H246359   5.065   5.558   2.835  2.0055 -1.9063 -1.4735
 8290TIP3   OH246360   0.847   6.710  16.030 -0.3354  0.2617 -0.1559
 8290TIP3    H146361   0.878   6.791  15.990 -0.9287 -0.2508 -1.6938
 8290TIP3    H246362   0.879   6.640  15.972  0.4871 -0.6626  1.3339
 8291TIP3   OH246363   4.675   3.644   4.715  0.5186 -0.0710 -0.0967
 8291TIP3    H146364   4.749   3.627   4.774  0.1105  0.7114  0.6493
 8291TIP3    H246365   4.708   3.619   4.628  0.6169 -2.7886  0.6133
 8292TIP3   OH246366   2.586   0.283  12.945  0.3790  0.0574 -0.0177
 8292TIP3    H146367   2.610   0.251  12.858 -0.9271  1.1301 -0.8148
 8292TIP3    H246368   2.491   0.271  12.950  0.4750 -0.2258  1.3673
 8293TIP3   OH246369   1.492   2.020   5.992  0.0257  0.1808  0.1919
 8293TIP3    H146370   1.491   2.076   5.915 -0.8392 -0.9303 -0.6223
 8293TIP3    H246371   1.526   2.077   6.062  0.8377  1.1962 -0.9845
 8294TIP3   OH246372   4.515   4.830   2.738 -0.4974 -0.2182  0.2232
 8294TIP3    H146373   4.576   4.835   2.664  0.3936  1.9369  1.0263
 8294TIP3    H246374   4.539   4.748   2.782  1.7511  0.4490  0.3967
 8295TIP3   OH246375   6.174   3.909   5.417  0.2993 -0.7075  0.3040
 8295TIP3    H146376   6.113   3.896   5.344 -0.7716  0.8129  0.8682
 8295TIP3    H246377   6.186   3.822   5.454  1.1506 -1.5806 -1.8853
 8296TIP3   OH246378   5.253   4.630   4.819  0.2156 -0.2451  0.3531
 8296TIP3    H146379   5.283   4.655   4.906 -0.8076  1.5543  0.2500
 8296TIP3    H246380   5.278   4.704   4.763  0.4273 -1.1578 -0.7886
 8297TIP3   OH246381   4.593   3.154  15.587  0.2325 -0.6113  0.3350
 8297TIP3    H146382   4.601   3.236  15.636  0.1764 -0.7623  0.6013
 8297TIP3    H246383   4.658   3.160  15.517 -0.5552  0.1541 -0.3538
 8298TIP3   OH246384   5.501   3.715  13.210 -0.2575 -0.1394  0.4640
 8298TIP3    H146385   5.585   3.725  13.255 -0.1051  0.6313  0.0239
 8298TIP3    H246386   5.439   3.763  13.264 -0.2456  0.0354  0.3216
 8299TIP3   OH246387   2.166   4.778  16.275 -0.5145  0.1596  0.4125
 8299TIP3    H146388   2.199   4.860  16.309  1.1536 -0.9094  1.5298
 8299TIP3    H246389   2.242   4.737  16.232 -0.3859 -2.1707  2.6159
 8300TIP3   OH246390   5.842   0.633  16.000 -0.5843  0.2371  0.4100
 8300TIP3    H146391   5.928   0.629  16.043 -0.0953  2.0673 -0.2855
 8300TIP3    H246392   5.783   0.667  16.068 -0.0710  1.9254  0.0759
 8301TIP3   OH246393   5.426   4.882  14.451  0.1063 -0.0046 -0.2848
 8301TIP3    H146394   5.507   4.894  14.401 -0.5192  2.0808 -0.9131
 8301TIP3    H246395   5.425   4.956  14.512 -1.0007 -0.3810  0.1729
 8302TIP3   OH246396   2.096   0.379  16.593 -0.6642 -0.1214 -0.2417
 8302TIP3    H146397   2.139   0.408  16.513  2.0023 -1.8799  0.3940
 8302TIP3    H246398   2.081   0.285  16.579  2.2028 -1.0735  2.1134
 8303TIP3   OH246399   4.140   0.612   4.157 -0.7638  0.4894 -0.2756
 8303TIP3    H146400   4.157   0.574   4.071 -1.5859 -0.1753 -0.1619
 8303TIP3    H246401   4.163   0.704   4.148  0.2922  0.1854 -0.8563
 8304TIP3   OH246402   1.308   2.690   3.009  0.6063 -0.0579  0.1583
 8304TIP3    H146403   1.367   2.663   3.079  1.6333  0.9366 -0.2787
 8304TIP3    H246404   1.351   2.660   2.929  0.6488  0.8506 -0.1767
 8305TIP3   OH246405   5.048   0.062   4.678  0.5599 -0.3748 -0.2584
 8305TIP3    H146406   5.121   0.073   4.739 -0.2273  2.2945  0.3207
 8305TIP3    H246407   5.083   0.006   4.608  1.5472 -3.4598  2.4439
 8306TIP3   OH246408   3.808   2.932   5.468  0.3957 -0.5019 -0.0042
 8306TIP3    H146409   3.901   2.925   5.490  0.1878  0.6516  1.4151
 8306TIP3    H246410   3.772   2.990   5.536 -2.0313 -3.4243  1.4061
 8307TIP3   OH246411   2.722   0.319   2.836  0.1487 -0.2640 -0.0327
 8307TIP3    H146412   2.641   0.290   2.878 -1.1527 -0.3086 -2.4254
 8307TIP3    H246413   2.770   0.238   2.819  0.8869 -0.2203  1.6222
 8308TIP3   OH246414   4.693   4.807   2.543  0.3124 -0.3840  0.5236
 8308TIP3    H146415   4.693   4.841   2.454 -2.3253 -0.7285  0.3071
 8308TIP3    H246416   4.744   4.726   2.539  0.3005 -0.3362 -0.6723
 8309TIP3   OH246417   4.355   1.863   1.359 -0.1125  0.9795  0.6297
 8309TIP3    H146418   4.276   1.917   1.357 -0.3096  0.8139  2.2897
 8309TIP3    H246419   4.414   1.909   1.419  1.2381  1.3164 -0.9183
 8310TIP3   OH246420   1.188   4.324   1.676 -0.0523 -0.2714  0.2667
 8310TIP3    H146421   1.227   4.348   1.760 -0.6036 -0.9595  0.7404
 8310TIP3    H246422   1.241   4.368   1.610  0.3709  0.3035  0.9832
 8311TIP3   OH246423   6.097   1.316  12.324 -0.3275 -0.8266  0.0697
 8311TIP3    H146424   6.013   1.338  12.365 -0.0049 -0.7887  0.7260
 8311TIP3    H246425   6.128   1.240  12.373 -0.0171 -0.8953 -0.2295
 8312TIP3   OH246426   3.458   1.484  15.165  0.5219  0.2979 -0.4120
 8312TIP3    H146427   3.424   1.511  15.079  0.2323 -0.4973 -0.5542
 8312TIP3    H246428   3.380   1.471  15.218  0.4515 -2.6940 -1.0765
 8313TIP3   OH246429   3.632   5.618  16.861  0.0441 -0.2539 -0.7802
 8313TIP3    H146430   3.553   5.629  16.808 -0.4250 -1.0528 -0.2758
 8313TIP3    H246431   3.676   5.542  16.823 -0.3118 -0.8535 -0.0353
 8314TIP3   OH246432   3.999   0.353   5.937  0.0968 -0.2276 -0.3203
 8314TIP3    H146433   4.082   0.401   5.932  0.1321 -0.3421 -0.8210
 8314TIP3    H246434   3.946   0.388   5.866  0.3719 -1.3891 -1.1224
 8315TIP3   OH246435   4.233   3.335   4.556 -0.0790  0.2625  0.1832
 8315TIP3    H146436   4.248   3.260   4.498  0.0824  0.1710  0.3423
 8315TIP3    H246437   4.270   3.409   4.509 -0.7959  0.3515 -0.2558
 8316TIP3   OH246438   2.433   5.919   0.473  0.1175 -0.3571 -0.8587
 8316TIP3    H146439   2.503   5.919   0.409 -0.3087  0.4441 -1.3379
 8316TIP3    H246440   2.363   5.869   0.432 -0.2925  0.4677 -1.1922
 8317TIP3   OH246441   6.374   1.717  12.402 -0.3143 -0.1717 -0.0093
 8317TIP3    H146442   6.441   1.654  12.374  1.1234  0.7231  1.2868
 8317TIP3    H246443   6.339   1.680  12.483  0.2091  0.4398  0.5069
 8318TIP3   OH246444   3.122   6.543  14.214 -0.7305  0.0504  0.6786
 8318TIP3    H146445   3.124   6.624  14.163 -4.2487 -1.2448 -1.9407
 8318TIP3    H246446   3.159   6.477  14.155 -0.9545 -0.8017  1.4763
 8319TIP3   OH246447   1.910   5.691  13.467 -0.2717  0.0226 -0.2260
 8319TIP3    H146448   1.957   5.610  13.447 -0.3221 -0.1146  0.1841
 8319TIP3    H246449   1.963   5.733  13.535 -0.1028  0.4710 -0.6300
 8320TIP3   OH246450   1.425   1.810  14.755  0.1862 -0.1639  0.5202
 8320TIP3    H146451   1.404   1.896  14.791 -1.2267  0.1075 -0.8341
 8320TIP3    H246452   1.423   1.751  14.831  1.7155  1.0352  1.5464
 8321TIP3   OH246453   5.726   6.258   1.592  0.1612  0.4205  0.5232
 8321TIP3    H146454   5.804   6.224   1.635  1.4727  2.3974 -0.1279
 8321TIP3    H246455   5.682   6.310   1.659 -1.2093 -1.4777  1.1802
 8322TIP3   OH246456   3.926   6.497   3.032  0.2309 -0.3741 -0.4151
 8322TIP3    H146457   3.843   6.523   3.071  1.5619  0.1286  2.2709
 8322TIP3    H246458   3.901   6.437   2.961 -2.3957 -0.1429  0.2114
 8323TIP3   OH246459   0.169   4.866   2.551  0.3988 -0.1261  0.1866
 8323TIP3    H146460   0.075   4.884   2.548  0.5242  0.4822 -0.2928
 8323TIP3    H246461   0.211   4.950   2.531  1.1374  0.3528  3.2674
 8324TIP3   OH246462   3.127   2.415   4.455 -0.2534  0.4080  0.3467
 8324TIP3    H146463   3.068   2.345   4.426 -0.3796  0.4959  0.3874
 8324TIP3    H246464   3.184   2.374   4.520 -0.5576  0.4282  0.6291
 8325TIP3   OH246465   5.178   0.972   5.963 -0.7190  0.0455  0.3939
 8325TIP3    H146466   5.099   0.937   6.003  1.4170 -2.3977  2.9222
 8325TIP3    H246467   5.202   0.907   5.897  0.0657 -0.1613  0.8656
 8326TIP3   OH246468   3.558   2.009   5.725 -0.7892 -0.1671 -0.1671
 8326TIP3    H146469   3.504   1.999   5.803 -0.0590 -0.0817  0.3523
 8326TIP3    H246470   3.549   2.101   5.701 -1.2622 -0.2621 -0.3797
 8327TIP3   OH246471   3.167   5.223  11.579  0.5495  0.2689 -0.1603
 8327TIP3    H146472   3.254   5.216  11.541  0.6627 -0.9793  0.2846
 8327TIP3    H246473   3.107   5.210  11.506  0.7511 -0.3733 -0.2115
 8328TIP3   OH246474   3.085   0.007   0.055  0.4999 -0.4777  0.1574
 8328TIP3    H146475   3.034   0.046   0.126 -1.3305  0.2580 -1.4550
 8328TIP3    H246476   3.126  -0.070   0.094 -1.4637 -0.8192  1.7220
 8329TIP3   OH246477   5.995   4.540  13.270 -0.0388 -0.3079 -0.2108
 8329TIP3    H146478   6.006   4.518  13.363 -0.5061  0.1599 -0.0414
 8329TIP3    H246479   6.039   4.469  13.223 -2.2526 -2.1261  0.2720
 8330TIP3   OH246480   6.370   2.957  15.960  0.1724 -0.0054  0.2255
 8330TIP3    H146481   6.385   2.886  15.897  0.2789  0.7743 -0.6645
 8330TIP3    H246482   6.457   2.978  15.994  0.2049 -0.0018  0.1417
 8331TIP3   OH246483   2.924   5.503  17.341  0.6344 -0.0787  0.0870
 8331TIP3    H146484   2.906   5.465  17.255 -1.3765 -1.7678  1.1529
 8331TIP3    H246485   2.982   5.440  17.384  0.1616 -0.1671  0.6074
 8332TIP3   OH246486   4.768   1.826  15.657 -1.0889 -0.1737  0.0520
 8332TIP3    H146487   4.752   1.916  15.685 -1.3154 -0.1696 -0.0924
 8332TIP3    H246488   4.832   1.834  15.586 -0.1479 -0.2154  0.8644
 8333TIP3   OH246489   0.658   4.299   0.390  0.0932 -0.1182 -0.1358
 8333TIP3    H146490   0.616   4.213   0.397 -0.4150  0.2769  2.6252
 8333TIP3    H246491   0.593   4.353   0.345 -0.2036 -0.7799 -0.5257
 8334TIP3   OH246492   6.028   6.095   2.851  0.6146 -0.1805 -0.2145
 8334TIP3    H146493   6.112   6.050   2.849  2.0998  2.4262 -0.9209
 8334TIP3    H246494   5.965   6.030   2.817  2.7136 -1.4551 -1.8873
 8335TIP3   OH246495   2.370   4.862   1.202  0.3313 -0.5363 -0.3514
 8335TIP3    H146496   2.424   4.797   1.246  0.9707  0.3317  0.1995
 8335TIP3    H246497   2.312   4.895   1.271  1.1135  0.5996 -0.2072
 8336TIP3   OH246498   3.204   3.144  16.202 -0.2738  0.1954  0.2235
 8336TIP3    H146499   3.132   3.153  16.264 -0.1405  1.7790  0.1777
 8336TIP3    H246500   3.162   3.119  16.120 -0.7332  0.6223  0.3225
 8337TIP3   OH246501   3.946   2.319   1.615  0.4583 -0.0101 -0.0222
 8337TIP3    H146502   3.895   2.285   1.541 -0.1216 -0.7170  0.6864
 8337TIP3    H246503   3.926   2.259   1.687  2.3024 -0.3121  0.2818
 8338TIP3   OH246504   5.626   1.212  16.543  0.1347 -0.2250 -0.1502
 8338TIP3    H146505   5.601   1.143  16.482  2.2518 -0.4709 -0.7923
 8338TIP3    H246506   5.591   1.183  16.627 -0.5000 -1.1989 -0.7299
 8339TIP3   OH246507   3.500   5.747  11.052  0.1721 -0.1249 -0.6554
 8339TIP3    H146508   3.580   5.698  11.036  0.2647 -0.2252  0.0815
 8339TIP3    H246509   3.530   5.835  11.077  0.0068  0.3564 -2.0571
 8340TIP3   OH246510   2.853   6.677   3.542  0.2353  0.4066 -0.4853
 8340TIP3    H146511   2.902   6.758   3.530 -1.3847  1.5950  0.5127
 8340TIP3    H246512   2.762   6.700   3.521 -0.4211 -0.8860  0.7645
 8341TIP3   OH246513   3.361   4.973  15.398  0.1270 -0.4439  0.0306
 8341TIP3    H146514   3.424   4.901  15.400 -0.7374 -1.2324 -0.5306
 8341TIP3    H246515   3.399   5.036  15.336  0.4049 -0.8859 -0.2560
 8342TIP3   OH246516   2.657   3.070   5.796 -0.5379  0.0251 -0.4971
 8342TIP3    H146517   2.615   2.988   5.771  2.3286 -1.8368  0.3656
 8342TIP3    H246518   2.741   3.069   5.751  1.4658  0.2776  2.9219
 8343TIP3   OH246519   1.368   2.640  14.218  0.1932 -0.1130  0.1131
 8343TIP3    H146520   1.377   2.693  14.139  0.4103  0.1950  0.3414
 8343TIP3    H246521   1.347   2.552  14.186 -4.6369  0.8919 -0.2337
 8344TIP3   OH246522   0.531   1.073  13.391  0.0207 -0.3009 -0.2642
 8344TIP3    H146523   0.468   1.144  13.400 -1.6916 -1.8586  0.6383
 8344TIP3    H246524   0.514   1.017  13.466  0.7333 -2.1196 -1.4108
 8345TIP3   OH246525   3.677   4.056  14.746  0.2526 -0.4633  0.6793
 8345TIP3    H146526   3.691   4.119  14.675 -0.8156 -0.1486  0.7356
 8345TIP3    H246527   3.619   4.102  14.807  0.5387 -1.0198  1.3767
 8346TIP3   OH246528   3.024   5.617   1.792 -0.6370 -0.4925  0.5131
 8346TIP3    H146529   2.935   5.628   1.826 -1.1319 -1.2614 -0.4570
 8346TIP3    H246530   3.042   5.523   1.804 -0.1113 -0.4133  0.3426
 8347TIP3   OH246531   2.360   4.310  10.978 -0.1529 -0.3504  0.2822
 8347TIP3    H146532   2.288   4.251  10.956 -0.8973 -0.4188  2.5835
 8347TIP3    H246533   2.324   4.398  10.968 -0.6420 -0.3853  1.5075
 8348TIP3   OH246534   0.636   2.739   1.130 -0.0741 -0.4816 -0.2937
 8348TIP3    H146535   0.663   2.718   1.220 -2.2648 -0.6114  0.3810
 8348TIP3    H246536   0.609   2.655   1.093  1.0501 -0.4684 -1.1999
 8349TIP3   OH246537   2.779   3.379  15.081  0.4140 -0.3354 -0.1533
 8349TIP3    H146538   2.841   3.392  15.009  0.5227 -0.7890 -0.1391
 8349TIP3    H246539   2.762   3.468  15.113  1.5753 -0.2454  0.2806
 8350TIP3   OH246540   1.344   3.565  12.823  0.3005  0.3246 -0.4717
 8350TIP3    H146541   1.282   3.497  12.847  0.6808  0.0543 -0.2436
 8350TIP3    H246542   1.393   3.529  12.749  1.5733 -0.3118  0.6324
 8351TIP3   OH246543   0.267   5.938   0.593 -0.3607 -0.8091 -0.5898
 8351TIP3    H146544   0.268   6.017   0.647 -0.4389 -1.6498  0.6995
 8351TIP3    H246545   0.357   5.908   0.592 -0.5604 -1.4572  0.1062
 8352TIP3   OH246546   2.122   1.342  11.830 -0.1136  0.6606 -0.6254
 8352TIP3    H146547   2.117   1.362  11.923 -0.3869 -0.9268 -0.2785
 8352TIP3    H246548   2.143   1.426  11.789  1.4361  1.1245  0.9859
 8353TIP3   OH246549   0.870   4.244  12.182 -0.0891  0.8617  0.3396
 8353TIP3    H146550   0.779   4.220  12.166 -0.4890  2.2926  0.3286
 8353TIP3    H246551   0.904   4.173  12.237 -0.9812 -0.0633 -0.2676
 8354TIP3   OH246552   3.577   4.230   1.589 -0.2990 -0.2304  0.7896
 8354TIP3    H146553   3.654   4.173   1.588 -0.5263 -0.5402  0.2582
 8354TIP3    H246554   3.562   4.252   1.497 -0.1868  0.7404  0.9876
 8355TIP3   OH246555   1.391   1.822   2.980 -0.1039 -0.4685 -0.0024
 8355TIP3    H146556   1.349   1.833   3.065  1.0087 -1.6133  0.7370
 8355TIP3    H246557   1.364   1.735   2.951  0.9290 -0.7987  0.0087
 8356TIP3   OH246558   2.909   1.321   2.180 -0.1036 -0.2398  0.3289
 8356TIP3    H146559   2.999   1.293   2.197 -0.5590 -2.2654 -0.3101
 8356TIP3    H246560   2.856   1.243   2.197 -1.7571  0.9069  0.6812
 8357TIP3   OH246561   2.805   6.305   5.751  0.2396 -0.5535 -0.0348
 8357TIP3    H146562   2.772   6.320   5.839 -1.9749 -3.6135 -0.1589
 8357TIP3    H246563   2.801   6.391   5.709  1.9892  1.1275  2.9165
 8358TIP3   OH246564   4.214   0.607   6.496  0.5531 -0.0814  0.3666
 8358TIP3    H146565   4.280   0.676   6.500  0.1413  0.3076  0.6821
 8358TIP3    H246566   4.145   0.638   6.556 -1.5947  1.2883 -2.5502
 8359TIP3   OH246567   4.060   5.042  15.683  0.4007 -0.3231 -0.2165
 8359TIP3    H146568   4.126   5.073  15.621 -0.2928 -0.0726 -0.8545
 8359TIP3    H246569   4.015   5.122  15.711  0.9643 -0.3909  0.9309
 8360TIP3   OH246570   2.913   6.322   3.580  0.0702  0.4132 -0.3081
 8360TIP3    H146571   2.957   6.318   3.494 -0.6656 -2.0161 -0.6569
 8360TIP3    H246572   2.830   6.276   3.566  0.1991 -0.5636  1.8471
 8361TIP3   OH246573   5.762   0.717  12.977  0.0083  0.3085  0.3472
 8361TIP3    H146574   5.761   0.678  13.065  1.9105 -0.6549  0.0078
 8361TIP3    H246575   5.840   0.773  12.977 -0.1243  0.5094 -0.6388
 8362TIP3   OH246576   2.745   4.586  14.957 -0.0641 -0.3810  0.0659
 8362TIP3    H146577   2.704   4.672  14.963  1.5358  0.3742  0.8309
 8362TIP3    H246578   2.779   4.582  14.868 -1.3499 -0.8362 -0.4336
 8363TIP3   OH246579   5.931   4.936  13.951 -0.4601 -0.7556 -0.5258
 8363TIP3    H146580   5.871   4.972  13.884 -0.2757  0.7281  0.0580
 8363TIP3    H246581   5.875   4.919  14.026  0.0556  3.0013  0.9342
 8364TIP3   OH246582   1.328   3.648  16.809 -0.1173 -0.3497  0.3323
 8364TIP3    H146583   1.398   3.647  16.874  0.4990  0.1156 -0.3054
 8364TIP3    H246584   1.278   3.568  16.825  1.3296 -1.3592 -0.0220
 8365TIP3   OH246585   3.350   0.847  12.563  0.3412  0.2628  0.9404
 8365TIP3    H146586   3.413   0.805  12.621  0.9130 -0.3202 -0.0652
 8365TIP3    H246587   3.398   0.919  12.523  0.6839 -0.6835 -0.4606
 8366TIP3   OH246588   5.191   3.328  11.824 -0.1242  0.0747 -0.2518
 8366TIP3    H146589   5.250   3.280  11.884 -1.5687 -0.2077  1.0036
 8366TIP3    H246590   5.250   3.384  11.773  1.2432 -0.1469  0.9901
 8367TIP3   OH246591   6.151   2.191   5.536  0.3091  0.1546 -0.0207
 8367TIP3    H146592   6.126   2.102   5.512 -0.0138  0.4027 -0.6310
 8367TIP3    H246593   6.077   2.245   5.508 -0.0593  0.4691  1.4954
 8368TIP3   OH246594   4.651   6.688   0.043 -0.3248  0.3101  0.2250
 8368TIP3    H146595   4.734   6.726   0.074 -0.0975  1.1362 -1.2892
 8368TIP3    H246596   4.598   6.763   0.017 -1.6013 -0.2080  1.2370
 8369TIP3   OH246597   6.023   0.559  14.300  0.1056  0.1243  0.0629
 8369TIP3    H146598   5.933   0.585  14.284  0.6378  1.2567 -1.2588
 8369TIP3    H246599   6.068   0.574  14.217  2.0074  1.7281  1.2763
 8370TIP3   OH246600   6.490   6.015   5.513 -0.2173 -0.0134 -0.2347
 8370TIP3    H146601   6.445   5.934   5.488  0.7872 -0.6268 -0.1025
 8370TIP3    H246602   6.583   5.996   5.499  0.1508  0.6191  1.1766
 8371TIP3   OH246603   6.069   5.150   1.406  0.2877  0.0373 -0.0175
 8371TIP3    H146604   6.071   5.240   1.374 -0.5318 -0.1417 -0.5793
 8371TIP3    H246605   5.994   5.148   1.465 -1.6754 -1.0659 -2.4255
 8372TIP3   OH246606   6.467   2.314  15.990  0.1141  0.2657 -0.2823
 8372TIP3    H146607   6.435   2.393  15.947 -1.8208 -1.0704 -1.4366
 8372TIP3    H246608   6.425   2.242  15.944  1.8980 -1.4921  0.6523
 8373TIP3   OH246609   6.504   1.656  17.039 -0.0857 -0.7214  0.1576
 8373TIP3    H146610   6.411   1.674  17.050  0.2142  2.1659 -1.0330
 8373TIP3    H246611   6.507   1.571  16.995 -2.0542 -1.4839  1.3652
 8374TIP3   OH246612   1.156   4.355   2.716 -0.4916 -0.3105 -0.1418
 8374TIP3    H146613   1.186   4.272   2.753 -0.7337 -1.1591 -1.7515
 8374TIP3    H246614   1.231   4.387   2.666 -0.2516  0.7016  0.8129
 8375TIP3   OH246615   0.676   2.865   5.152 -0.0066  0.2634  0.8136
 8375TIP3    H146616   0.650   2.796   5.091 -3.0344  0.8956  1.2030
 8375TIP3    H246617   0.742   2.825   5.208  0.7468 -1.2176 -1.0430
 8376TIP3   OH246618   4.379   5.288   0.088 -0.4828 -0.0698 -0.5647
 8376TIP3    H146619   4.337   5.327   0.011 -0.8013  0.0084 -0.3545
 8376TIP3    H246620   4.306   5.270   0.147 -0.1377  0.8287  0.1531
 8377TIP3   OH246621   4.826   2.136   2.802  0.3099  0.6606  0.6491
 8377TIP3    H146622   4.752   2.119   2.859 -0.2917 -0.7770 -0.4652
 8377TIP3    H246623   4.791   2.123   2.713  1.3008  2.4071 -0.0374
 8378TIP3   OH246624   1.367   1.280  16.229  0.6327  0.3283  0.0738
 8378TIP3    H146625   1.401   1.219  16.294  0.9042 -0.7464 -1.0490
 8378TIP3    H246626   1.273   1.284  16.247  0.7638  0.3819  0.7904
 8379TIP3   OH246627   5.483   3.583   3.500  0.2787 -0.1094  0.0057
 8379TIP3    H146628   5.521   3.610   3.416 -0.6425  0.5460 -0.2252
 8379TIP3    H246629   5.523   3.498   3.519  2.6362  0.9915  0.3090
 8380TIP3   OH246630   3.881   4.370   0.844  0.0501 -0.4223 -0.9341
 8380TIP3    H146631   3.959   4.392   0.896 -1.9972  0.7060  1.9398
 8380TIP3    H246632   3.857   4.453   0.802 -1.4404  0.2550  1.0381
 8381TIP3   OH246633   2.362   3.843   3.890  0.7102 -0.3242 -0.4824
 8381TIP3    H146634   2.329   3.872   3.975  0.9622 -1.8779  0.1831
 8381TIP3    H246635   2.391   3.923   3.847  1.2294  0.4414  1.1891
 8382TIP3   OH246636   6.067   0.682  12.768  0.7228 -0.1826  0.6987
 8382TIP3    H146637   6.133   0.752  12.775 -0.6538  1.5700 -2.0229
 8382TIP3    H246638   6.053   0.672  12.674 -0.4083 -2.9934  1.0694
 8383TIP3   OH246639   4.760   4.057  10.798 -0.4527 -0.2751  0.1080
 8383TIP3    H146640   4.826   4.089  10.859  0.3533 -0.8759 -0.4323
 8383TIP3    H246641   4.776   4.105  10.717 -0.2092 -0.9254 -0.2412
 8384TIP3   OH246642   0.506   1.148  11.318 -0.2279  0.3023  0.0686
 8384TIP3    H146643   0.563   1.177  11.247 -0.6596 -0.3456 -0.5574
 8384TIP3    H246644   0.491   1.227  11.371 -1.3172  1.2182 -1.5376
 8385TIP3   OH246645   0.409   3.785   4.394  0.5002 -0.5758  0.6367
 8385TIP3    H146646   0.444   3.747   4.313  1.1905 -1.5058  1.3532
 8385TIP3    H246647   0.446   3.731   4.464  0.1903  0.4261  1.6002
 8386TIP3   OH246648   3.891   6.680  11.170 -0.2146  0.2088  0.5712
 8386TIP3    H146649   3.935   6.600  11.142 -0.1901  0.4872 -0.2325
 8386TIP3    H246650   3.821   6.692  11.105 -1.5449 -0.2725  1.8647
 8387TIP3   OH246651   2.141   5.787  14.643  0.8028  1.1093 -0.3641
 8387TIP3    H146652   2.053   5.753  14.658  0.7289  1.3475 -0.2587
 8387TIP3    H246653   2.194   5.709  14.622  0.1419  1.1692 -2.4497
 8388TIP3   OH246654   0.939   2.495  10.790 -0.1034  0.8114 -0.2955
 8388TIP3    H146655   0.865   2.435  10.792  0.2581  0.3419 -0.8633
 8388TIP3    H246656   0.926   2.552  10.866  0.2559 -0.8168  1.0590
 8389TIP3   OH246657   2.209   2.031   4.400  0.1729  0.3287 -0.5198
 8389TIP3    H146658   2.163   1.964   4.451  0.2545  1.7365  1.4894
 8389TIP3    H246659   2.142   2.065   4.340 -0.4695 -0.0062 -0.0078
 8390TIP3   OH246660   5.057   0.996  13.978  0.2920  0.1461  0.2569
 8390TIP3    H146661   5.129   1.000  14.041  1.4071 -1.1471 -0.8767
 8390TIP3    H246662   5.024   0.906  13.985 -2.2125  1.0824  1.7579
 8391TIP3   OH246663   4.810   6.735  15.684  0.6747  0.2674  0.3212
 8391TIP3    H146664   4.885   6.677  15.685  1.3814  1.1484 -0.4290
 8391TIP3    H246665   4.817   6.786  15.765  0.3263 -0.3238  0.7331
 8392TIP3   OH246666   2.650   4.561  10.865 -0.1136 -0.1158  0.6263
 8392TIP3    H146667   2.712   4.489  10.858 -0.9477 -0.9085  1.1587
 8392TIP3    H246668   2.689   4.620  10.930  0.6190 -0.0176  0.1135
 8393TIP3   OH246669   4.773   5.674  16.817  1.1584  0.4577 -0.1898
 8393TIP3    H146670   4.733   5.667  16.730 -2.4210  0.2561  1.2913
 8393TIP3    H246671   4.798   5.584  16.839  1.1470  0.3505 -0.6057
 8394TIP3   OH246672   1.087   3.135   2.858  0.2914 -0.1006 -0.0488
 8394TIP3    H146673   1.051   3.063   2.909  1.0540 -0.2941  0.2206
 8394TIP3    H246674   1.181   3.122   2.860  0.4695  1.1047  0.3052
 8395TIP3   OH246675   1.678   5.247  15.597  0.0527  0.0080 -0.1639
 8395TIP3    H146676   1.755   5.222  15.546 -0.0275 -0.9487  0.1621
 8395TIP3    H246677   1.707   5.245  15.688 -0.5289 -1.0676  0.0152
 8396TIP3   OH246678   0.233   3.444  13.312  0.3884 -0.2466 -0.4825
 8396TIP3    H146679   0.288   3.450  13.234 -0.3573  1.4411 -0.9328
 8396TIP3    H246680   0.291   3.466  13.384  1.0713 -1.7630 -0.5237
 8397TIP3   OH246681   0.737   2.896  12.893 -0.4227 -0.2314  0.3527
 8397TIP3    H146682   0.686   2.950  12.834  0.1390  0.0115  0.0813
 8397TIP3    H246683   0.805   2.954  12.927 -1.1129 -0.1931  1.7356
 8398TIP3   OH246684   4.530   6.650   5.111  0.2668  0.5586  0.2371
 8398TIP3    H146685   4.464   6.628   5.045  0.4331  0.1187  0.2159
 8398TIP3    H246686   4.484   6.707   5.173  0.5940  2.5624 -1.2560
 8399TIP3   OH246687   6.671   4.308   5.537 -0.1701  0.3350 -0.7989
 8399TIP3    H146688   6.637   4.381   5.486  1.4341  2.2859  0.7450
 8399TIP3    H246689   6.753   4.341   5.574 -0.3907 -1.5220  1.5969
 8400TIP3   OH246690   1.450   3.596   1.412 -0.1245 -0.2769  0.2107
 8400TIP3    H146691   1.442   3.531   1.342  1.8168  1.9953 -2.3513
 8400TIP3    H246692   1.545   3.612   1.420 -0.4784  1.7351  1.1652
 8401TIP3   OH246693   6.685   5.062  12.212 -0.1411  0.3890  0.4090
 8401TIP3    H146694   6.710   5.078  12.303  1.9264 -0.8285  0.1252
 8401TIP3    H246695   6.749   5.112  12.161 -0.9173  0.5822 -0.4102
 8402TIP3   OH246696   3.280   0.157  15.023  0.1517  0.4962 -0.4366
 8402TIP3    H146697   3.362   0.127  15.062  0.0675  0.0817 -0.5755
 8402TIP3    H246698   3.263   0.097  14.951  0.9913  2.0386 -2.0059
 8403TIP3   OH246699   4.269   2.582   4.583 -0.1389  0.0738  0.4340
 8403TIP3    H146700   4.206   2.597   4.653 -1.0544  0.0617 -0.3656
 8403TIP3    H246701   4.216   2.576   4.504  0.8371 -0.3163 -0.2126
 8404TIP3   OH246702   3.360   3.998   3.818 -0.0940  0.1927  0.5104
 8404TIP3    H146703   3.427   4.064   3.799  0.1067 -0.5495 -1.7120
 8404TIP3    H246704   3.305   3.997   3.739 -1.2925 -0.8801  1.3246
 8405TIP3   OH246705   0.850   1.552  11.936 -0.0363 -0.3889  0.3727
 8405TIP3    H146706   0.944   1.560  11.916 -0.1603 -0.6311 -0.3413
 8405TIP3    H246707   0.829   1.461  11.915 -0.3581 -0.4286  0.8643
 8406TIP3   OH246708   5.304   2.823  11.242  0.0170  0.1938  0.1408
 8406TIP3    H146709   5.236   2.784  11.188  0.3553  0.1583 -0.2710
 8406TIP3    H246710   5.379   2.832  11.183 -0.3878  2.4976 -0.1193
 8407TIP3   OH246711   2.993   4.847   5.743  0.3524  0.1365 -0.3986
 8407TIP3    H146712   2.965   4.907   5.812  1.9237 -0.7364  1.0881
 8407TIP3    H246713   2.918   4.789   5.730  0.4946 -0.6362  1.7295
 8408TIP3   OH246714   1.365   3.036   2.599 -0.0112  0.2214  0.4648
 8408TIP3    H146715   1.345   3.045   2.692 -1.2783  1.2277  0.1393
 8408TIP3    H246716   1.410   2.952   2.591  2.5712  1.3050  2.3439
 8409TIP3   OH246717   4.402   2.129   1.127 -0.2149  0.0374 -0.1322
 8409TIP3    H146718   4.411   2.192   1.055  0.6409  0.5149  0.3780
 8409TIP3    H246719   4.443   2.049   1.094 -3.3886 -1.1446 -1.7209
 8410TIP3   OH246720   6.579   4.854  14.057 -0.6633 -0.2171  0.1990
 8410TIP3    H146721   6.593   4.808  13.974 -0.6960  0.5781 -0.2577
 8410TIP3    H246722   6.490   4.832  14.082 -0.4799 -0.8821  0.3026
 8411TIP3   OH246723   2.519   4.462  14.147 -0.1313  0.5505 -0.3128
 8411TIP3    H146724   2.608   4.448  14.176 -0.2508 -1.0174 -0.6321
 8411TIP3    H246725   2.466   4.399  14.196 -0.9186  0.7576 -0.8590
 8412TIP3   OH246726   5.433   2.437  16.465 -0.0389 -0.0664  0.1721
 8412TIP3    H146727   5.522   2.474  16.465  0.2458 -0.2328 -4.3611
 8412TIP3    H246728   5.376   2.512  16.449 -0.3139 -0.4235 -0.5580
 8413TIP3   OH246729   1.786   3.278  16.892  0.6222 -0.4984 -0.2118
 8413TIP3    H146730   1.752   3.193  16.862  2.3198 -0.9415 -0.9863
 8413TIP3    H246731   1.881   3.268  16.890  0.8514  1.2819  0.1534
 8414TIP3   OH246732   4.338   2.703  14.281 -0.0580 -0.2050  0.0418
 8414TIP3    H146733   4.340   2.667  14.192  0.7525 -1.4804  0.5425
 8414TIP3    H246734   4.413   2.663  14.325  1.9953  3.4127  0.1993
 8415TIP3   OH246735   0.215   4.078  13.900  0.4662  0.1483 -0.4924
 8415TIP3    H146736   0.289   4.078  13.961  0.0797 -2.0536  0.0800
 8415TIP3    H246737   0.140   4.105  13.953 -0.2843 -3.7211  0.7828
 8416TIP3   OH246738   0.743   2.457   2.975  0.2389  0.4397 -0.6729
 8416TIP3    H146739   0.832   2.449   3.008  0.4484 -0.7014 -1.4617
 8416TIP3    H246740   0.751   2.449   2.880 -0.9492 -2.5460 -0.6220
 8417TIP3   OH246741   1.847   4.545   5.414  0.3606 -0.3306 -0.4734
 8417TIP3    H146742   1.870   4.544   5.506  1.5597  0.3423 -0.7532
 8417TIP3    H246743   1.831   4.454   5.392 -0.9495 -0.3978  0.6304
 8418TIP3   OH246744   5.817   5.413   3.139  0.2849 -0.3648  0.7564
 8418TIP3    H146745   5.764   5.333   3.140  0.7972 -0.7883 -1.5010
 8418TIP3    H246746   5.898   5.388   3.095  1.4937  0.8278  2.1955
 8419TIP3   OH246747   3.218   0.147  16.750  0.0367  0.3317 -0.0952
 8419TIP3    H146748   3.266   0.114  16.826  0.7501 -0.2483 -0.7818
 8419TIP3    H246749   3.209   0.071  16.692  0.9406  1.1216 -1.3156
 8420TIP3   OH246750   6.090   6.052  15.886 -0.5022 -0.0623 -0.7396
 8420TIP3    H146751   6.008   6.080  15.925 -0.8662 -1.1536 -0.6969
 8420TIP3    H246752   6.153   6.119  15.911 -2.0787  2.8684 -3.8251
 8421TIP3   OH246753   0.294   4.965   3.543 -0.4332 -0.2695  0.4418
 8421TIP3    H146754   0.353   4.912   3.595 -0.0281 -1.0483 -0.7763
 8421TIP3    H246755   0.272   4.911   3.467  0.1734  1.3443 -0.9775
 8422TIP3   OH246756   5.576   3.979   2.303  1.0169  0.3862  0.0072
 8422TIP3    H146757   5.588   3.988   2.208 -0.5515 -0.8150 -0.3436
 8422TIP3    H246758   5.541   3.891   2.314  0.0708  0.9313  1.6059
 8423TIP3   OH246759   6.061   1.193  14.199  0.1729  0.6317 -0.0560
 8423TIP3    H146760   6.004   1.138  14.253  0.0556 -1.2199 -1.9429
 8423TIP3    H246761   6.150   1.172  14.230  0.0941 -0.2188 -0.3774
 8424TIP3   OH246762   1.938   1.297  13.610 -0.1178 -0.5970 -0.1278
 8424TIP3    H146763   1.919   1.282  13.703 -0.2002  0.4413  0.0312
 8424TIP3    H246764   2.032   1.280  13.602 -0.2151 -1.2481  0.0191
 8425TIP3   OH246765   3.696   1.384  14.633 -0.1736 -0.6455  0.1848
 8425TIP3    H146766   3.604   1.385  14.607 -0.3742 -0.3887  0.8817
 8425TIP3    H246767   3.697   1.334  14.714  0.0705  0.5758  0.9653
 8426TIP3   OH246768   4.062   5.180   1.211  0.2782 -0.0364  0.2229
 8426TIP3    H146769   4.080   5.151   1.121 -0.7617 -1.4232  0.4192
 8426TIP3    H246770   3.978   5.139   1.233 -1.0743  2.7952  0.7527
 8427TIP3   OH246771   4.435   6.719   1.414 -0.0336 -0.1032  0.7150
 8427TIP3    H146772   4.479   6.638   1.439 -0.0084  0.0485  1.1856
 8427TIP3    H246773   4.493   6.759   1.350 -0.9179 -1.3301 -0.9226
 8428TIP3   OH246774   4.394   2.253   2.057  0.0551  0.3366 -0.0755
 8428TIP3    H146775   4.403   2.344   2.085 -0.2333  0.1506  0.6446
 8428TIP3    H246776   4.416   2.202   2.135  3.8273 -0.3363 -1.3451
 8429TIP3   OH246777   6.630   1.935  13.544 -0.2229 -0.1271 -0.4117
 8429TIP3    H146778   6.678   1.868  13.593 -0.9022  0.0862  0.5686
 8429TIP3    H246779   6.688   2.011  13.543  0.4245 -0.6214 -1.2642
 8430TIP3   OH246780   0.706   1.799   1.225  0.2952  0.2603  0.5034
 8430TIP3    H146781   0.614   1.813   1.249  0.1566  0.5122 -0.1528
 8430TIP3    H246782   0.713   1.705   1.211  0.9425 -0.3205  3.7582
 8431TIP3   OH246783   0.242   0.765  13.392  0.2679 -0.7616 -0.4460
 8431TIP3    H146784   0.267   0.686  13.345 -1.3323 -0.0639 -2.6840
 8431TIP3    H246785   0.197   0.819  13.326  0.8003  1.7748  1.1102
 8432TIP3   OH246786   4.555   5.047   1.642 -0.5641  0.1391 -0.6161
 8432TIP3    H146787   4.644   5.043   1.677 -1.4526  0.3495  1.8975
 8432TIP3    H246788   4.540   5.140   1.624 -0.9683  0.4316  1.0694
 8433TIP3   OH246789   2.196   5.121   1.513  0.3584 -0.2201 -0.7948
 8433TIP3    H146790   2.234   5.151   1.430 -0.4989 -2.0306 -1.9092
 8433TIP3    H246791   2.214   5.192   1.574 -0.7999  2.1640 -3.0191
 8434TIP3   OH246792   5.892   3.430  11.800 -0.0794  0.1322 -0.3964
 8434TIP3    H146793   5.802   3.462  11.804  0.4129  1.3920  1.1482
 8434TIP3    H246794   5.896   3.359  11.864  0.0407  0.1250 -0.4107
 8435TIP3   OH246795   3.938   0.754   1.702  0.0142  0.3029 -0.0986
 8435TIP3    H146796   3.965   0.820   1.766  1.9977 -1.2617  0.7808
 8435TIP3    H246797   3.915   0.677   1.754  0.4753 -0.6082 -1.1913
 8436TIP3   OH246798   6.791   0.296  16.756  0.1318  0.3382  0.2677
 8436TIP3    H146799   6.719   0.232  16.753  1.4158 -1.1171 -1.6563
 8436TIP3    H246800   6.862   0.250  16.799  0.5835  1.0473  0.2880
 8437TIP3   OH246801   1.017   6.100  10.904  0.6640  0.1532 -0.1724
 8437TIP3    H146802   1.014   6.166  10.835 -0.6777  0.0937 -0.1984
 8437TIP3    H246803   1.089   6.128  10.961 -0.9422  2.6480  0.7724
 8438TIP3   OH246804   2.893   4.937  17.240 -0.2541  1.1913 -0.7055
 8438TIP3    H146805   2.896   5.003  17.170  0.1115  3.5324  1.3644
 8438TIP3    H246806   2.980   4.942  17.280 -0.4036 -0.2239 -0.1714
 8439TIP3   OH246807   3.935   4.427  11.715  0.1145 -0.6102  0.1410
 8439TIP3    H146808   3.965   4.375  11.789  1.0523 -0.4062 -0.0851
 8439TIP3    H246809   3.845   4.451  11.738  0.1581 -1.1227  0.8948
 8440TIP3   OH246810   2.478   0.037  14.760 -0.2298 -0.4499 -0.9581
 8440TIP3    H146811   2.511  -0.010  14.683  0.2257 -0.5802 -0.6877
 8440TIP3    H246812   2.556   0.074  14.800 -0.1670 -2.2525  0.6982
 8441TIP3   OH246813   3.891   3.072  15.474  0.3999 -0.3471  0.6407
 8441TIP3    H146814   3.945   3.123  15.414 -0.6159  0.4038  0.3464
 8441TIP3    H246815   3.883   2.986  15.431  0.8857 -0.2811  0.4142
 8442TIP3   OH246816   0.166   5.748   3.701  0.4906  0.3373 -0.1227
 8442TIP3    H146817   0.173   5.774   3.793  3.1324 -1.9295  0.4598
 8442TIP3    H246818   0.072   5.736   3.688  0.1063 -1.3498  3.0061
 8443TIP3   OH246819   4.169   6.579   2.923 -0.0102 -0.1157  0.0891
 8443TIP3    H146820   4.127   6.585   2.838 -0.3395  0.9230  0.3119
 8443TIP3    H246821   4.103   6.538   2.979 -0.3284  0.4953  0.1728
 8444TIP3   OH246822   4.113   1.684   6.291  0.6378 -0.1724 -0.2180
 8444TIP3    H146823   4.042   1.656   6.234  2.1638 -1.2721 -1.6446
 8444TIP3    H246824   4.088   1.773   6.318 -1.0171 -0.3378 -1.0681
 8445TIP3   OH246825   3.202   3.851   2.398  0.0547  0.1262  0.0427
 8445TIP3    H146826   3.293   3.821   2.387  0.1023 -0.8235  2.4179
 8445TIP3    H246827   3.149   3.773   2.385 -0.0485 -0.4144  3.0003
 8446TIP3   OH246828   2.152   4.858   5.908 -0.0499  0.0128  0.0583
 8446TIP3    H146829   2.229   4.828   5.860 -1.5920  0.4482 -2.9397
 8446TIP3    H246830   2.108   4.778   5.936  0.3383 -0.2866 -0.1839
 8447TIP3   OH246831   3.258   3.788  16.251  0.2348 -0.3824  0.2415
 8447TIP3    H146832   3.216   3.760  16.170  1.4511  0.8694 -0.8530
 8447TIP3    H246833   3.199   3.855  16.287 -1.2096 -2.1667  1.3772
 8448TIP3   OH246834   5.813   2.182   4.433  0.3222  0.0532 -0.0199
 8448TIP3    H146835   5.731   2.186   4.383  0.3692  1.7683 -0.0144
 8448TIP3    H246836   5.819   2.267   4.477  1.2589 -0.6827  1.3708
 8449TIP3   OH246837   0.143   6.740  13.248  0.7186 -0.1992  0.1579
 8449TIP3    H146838   0.097   6.789  13.180 -1.1679 -0.7324  0.9971
 8449TIP3    H246839   0.233   6.733  13.215  0.3794  1.3761 -1.2687
 8450TIP3   OH246840   1.406   1.923   1.904  0.2778  0.3728  0.2887
 8450TIP3    H146841   1.354   1.993   1.864 -1.6279 -1.1237  0.0006
 8450TIP3    H246842   1.372   1.843   1.865  4.3282 -0.6699 -1.6013
 8451TIP3   OH246843   4.332   1.878  13.554 -0.1118  0.4246  0.1333
 8451TIP3    H146844   4.342   1.973  13.543  0.2541  0.2494 -1.1786
 8451TIP3    H246845   4.318   1.845  13.465 -1.3636 -0.6348  0.6897
 8452TIP3   OH246846   4.844   5.707  16.265  0.4280 -0.5833 -0.0966
 8452TIP3    H146847   4.931   5.670  16.277  0.0022 -1.2770  1.1146
 8452TIP3    H246848   4.857   5.801  16.267  1.2943 -0.6617 -1.2476
 8453TIP3   OH246849   3.800   2.561   0.198  0.2335  0.4282 -0.4910
 8453TIP3    H146850   3.894   2.548   0.187  0.0901  0.7882 -2.4832
 8453TIP3    H246851   3.760   2.488   0.150 -0.5634 -1.3309  2.5965
 8454TIP3   OH246852   3.198   1.407  13.202 -0.2526 -0.2844  0.1495
 8454TIP3    H146853   3.252   1.342  13.157  0.2694  0.0314  0.3129
 8454TIP3    H246854   3.174   1.365  13.284 -0.7760 -0.6618 -0.1860
 8455TIP3   OH246855   1.720   1.435   0.040  0.6780  0.0131 -0.3019
 8455TIP3    H146856   1.758   1.521   0.021  0.6618 -0.0195 -0.4784
 8455TIP3    H246857   1.650   1.425  -0.025  0.5454 -0.0444 -0.1515
 8456TIP3   OH246858   6.785   1.731  13.263  0.5169 -0.3283 -0.3727
 8456TIP3    H146859   6.858   1.686  13.220  0.4670 -0.9921  0.2267
 8456TIP3    H246860   6.827   1.793  13.324  0.5875  0.5817 -1.3086
 8457TIP3   OH246861   3.134   2.270   0.583 -0.4515 -0.5156 -0.7356
 8457TIP3    H146862   3.112   2.219   0.661  0.7042 -1.9726 -1.3126
 8457TIP3    H246863   3.137   2.361   0.614  2.0411 -1.2319  1.4634
 8458TIP3   OH246864   6.048   5.714   3.419 -0.8281  0.4554  0.4655
 8458TIP3    H146865   6.075   5.799   3.384 -0.3360 -0.2610 -0.9974
 8458TIP3    H246866   6.033   5.660   3.341 -2.0315 -0.5443  1.3411
 8459TIP3   OH246867   4.062   5.981  14.886  0.3243  0.4351  0.2477
 8459TIP3    H146868   4.127   5.915  14.912 -0.2003 -0.3025 -0.2660
 8459TIP3    H246869   4.087   6.004  14.797 -0.4684 -0.3226 -0.1899
 8460TIP3   OH246870   1.341   4.829  14.377  0.1810  0.3891  0.4363
 8460TIP3    H146871   1.349   4.920  14.352 -0.5542  0.9921  2.2345
 8460TIP3    H246872   1.289   4.830  14.458 -1.0501 -1.7196 -0.2394
 8461TIP3   OH246873   4.015   5.552  15.940 -0.1375 -0.3031  0.2697
 8461TIP3    H146874   4.024   5.463  15.975 -0.5966  0.6292  3.0102
 8461TIP3    H246875   4.104   5.577  15.915  0.4213 -0.7152  1.7427
 8462TIP3   OH246876   2.497   3.099   5.330  0.0990 -0.3988 -0.1226
 8462TIP3    H146877   2.540   3.037   5.388  0.1282 -0.7961 -0.5578
 8462TIP3    H246878   2.450   3.159   5.388 -0.4031 -1.1786  0.2932
 8463TIP3   OH246879   5.910   4.865  17.093  0.0099  0.0133  0.5776
 8463TIP3    H146880   5.990   4.908  17.063 -2.6323  3.2164 -2.7243
 8463TIP3    H246881   5.906   4.784  17.041  1.1006 -0.2278  0.8433
 8464TIP3   OH246882   5.199   6.619   6.119  0.8167  0.5807  0.0181
 8464TIP3    H146883   5.122   6.655   6.075  0.4533 -1.5387 -1.2038
 8464TIP3    H246884   5.268   6.684   6.104  0.4348  0.4150 -2.8761
 8465TIP3   OH246885   1.702   6.655  14.824  0.0432  0.0598  0.3116
 8465TIP3    H146886   1.624   6.660  14.879 -0.7484 -0.6034 -0.7284
 8465TIP3    H246887   1.761   6.596  14.870  0.0481  0.7627  1.2285
 8466TIP3   OH246888   1.499   1.701  11.455  0.4767  0.2267  0.4541
 8466TIP3    H146889   1.486   1.793  11.478  0.7623  0.2478  0.5393
 8466TIP3    H246890   1.477   1.696  11.362 -2.5976 -0.2305  1.0768
 8467TIP3   OH246891   3.940   3.365   5.954  0.0087 -0.7152 -0.1094
 8467TIP3    H146892   3.846   3.349   5.943 -0.0675  0.0893 -0.7368
 8467TIP3    H246893   3.953   3.367   6.048 -0.4761 -1.5408 -0.0118
 8468TIP3   OH246894   6.511   4.177  16.438 -0.6005  0.1139  0.2136
 8468TIP3    H146895   6.518   4.083  16.453 -0.1823 -0.3542 -2.3976
 8468TIP3    H246896   6.480   4.185  16.348  0.4692  2.4797 -0.0280
 8469TIP3   OH246897   5.081   5.924   5.783  0.0811 -0.2029  0.5631
 8469TIP3    H146898   5.027   5.852   5.818 -1.8430  1.3434  0.9246
 8469TIP3    H246899   5.167   5.883   5.768 -0.5258 -2.2462  2.0448
 8470TIP3   OH246900   4.029   1.076  12.400 -0.3276 -0.3090  0.1303
 8470TIP3    H146901   4.104   1.132  12.378  0.1357 -1.2331 -0.7105
 8470TIP3    H246902   4.045   1.048  12.490 -0.2971  0.4590  0.3765
 8471TIP3   OH246903   3.601   5.406   5.168 -0.1561 -0.4487 -0.4216
 8471TIP3    H146904   3.511   5.416   5.200  0.0723  2.4107 -0.3588
 8471TIP3    H246905   3.653   5.461   5.226  1.2878 -0.4365 -1.6650
 8472TIP3   OH246906   2.134   2.265   6.560  0.2616  0.7019 -0.3741
 8472TIP3    H146907   2.044   2.296   6.548  0.7686  1.4614 -2.7177
 8472TIP3    H246908   2.188   2.334   6.522  1.7467 -0.4958 -0.5178
 8473TIP3   OH246909   5.542   3.246   3.694  0.4986 -0.3156 -0.0004
 8473TIP3    H146910   5.630   3.271   3.667 -0.2587  1.3846 -1.0637
 8473TIP3    H246911   5.521   3.169   3.641  1.0369 -0.2191 -0.3543
 8474TIP3   OH246912   1.155   2.083   5.646  0.2039 -0.2225 -0.3749
 8474TIP3    H146913   1.129   2.155   5.588  1.2842  0.2595 -0.2745
 8474TIP3    H246914   1.141   2.118   5.734 -3.3484 -1.6215 -0.2228
 8475TIP3   OH246915   0.438   2.099   3.718  0.2119 -0.6363 -0.3450
 8475TIP3    H146916   0.446   2.188   3.752  1.2158 -1.0853  0.6666
 8475TIP3    H246917   0.386   2.108   3.638  0.1861  0.8304 -0.1848
 8476TIP3   OH246918   3.903   5.208   0.940 -0.6133  0.5576 -0.0822
 8476TIP3    H146919   3.929   5.300   0.940  0.0631  0.3833 -0.8385
 8476TIP3    H246920   3.917   5.179   0.849  1.3050 -0.8542  0.5873
 8477TIP3   OH246921   5.223   1.717  15.910  0.4406  0.2914 -0.0902
 8477TIP3    H146922   5.173   1.636  15.911 -0.3904  0.7959  1.1865
 8477TIP3    H246923   5.297   1.699  15.852 -0.0220 -1.1914 -0.2503
 8478TIP3   OH246924   1.494   0.581  17.253 -0.4194 -0.2057  0.2830
 8478TIP3    H146925   1.542   0.654  17.212  0.0079 -0.7073 -0.1148
 8478TIP3    H246926   1.429   0.555  17.188 -1.2642  0.4869  0.8318
 8479TIP3   OH246927   3.073   4.275   3.595 -0.1728  0.6623 -0.2273
 8479TIP3    H146928   3.152   4.275   3.650 -0.1304 -1.1261 -0.2448
 8479TIP3    H246929   3.019   4.204   3.630 -1.9451  2.0310 -0.0341
 8480TIP3   OH246930   0.757   4.432  15.597  0.4457 -0.1014  0.7616
 8480TIP3    H146931   0.819   4.447  15.668  1.7237  1.2086 -0.5664
 8480TIP3    H246932   0.785   4.350  15.557  1.1915  0.3668  0.3139
 8481TIP3   OH246933   3.645   6.112  13.361 -0.1443 -0.2518  0.1145
 8481TIP3    H146934   3.566   6.069  13.396 -0.0821 -0.5579 -0.1211
 8481TIP3    H246935   3.715   6.049  13.377  0.8405  1.4916  3.8461
 8482TIP3   OH246936   4.762   2.293   6.332  0.6466 -0.1718  0.1277
 8482TIP3    H146937   4.674   2.324   6.308  0.0312 -1.4390  0.6724
 8482TIP3    H246938   4.786   2.347   6.407  0.1493 -0.0989  0.2418
 8483TIP3   OH246939   1.860   0.607   4.637  0.1537 -0.1293 -0.0510
 8483TIP3    H146940   1.843   0.661   4.714  1.3174 -0.1365  0.2304
 8483TIP3    H246941   1.951   0.578   4.648 -0.1704 -1.4295 -0.6324
 8484TIP3   OH246942   3.758   1.098   4.345  0.1427  0.5200  0.1737
 8484TIP3    H146943   3.688   1.052   4.392 -0.1873 -1.2286 -1.8684
 8484TIP3    H246944   3.762   1.183   4.387 -0.6030 -0.6417  2.8488
 8485TIP3   OH246945   0.475   3.434  12.142 -0.4670  0.1492 -0.1375
 8485TIP3    H146946   0.516   3.453  12.058  1.0514 -1.0837  0.2663
 8485TIP3    H246947   0.426   3.513  12.163 -0.8992  0.4761 -2.1697
 8486TIP3   OH246948   2.249   1.625   5.996  0.2824 -0.3316 -0.4457
 8486TIP3    H146949   2.190   1.650   6.068  2.2021 -0.8614  1.3899
 8486TIP3    H246950   2.207   1.549   5.956 -1.0966  0.3107 -0.2801
 8487TIP3   OH246951   1.644   2.443  16.647  0.3885 -0.6623 -0.3573
 8487TIP3    H146952   1.609   2.532  16.644  1.1503 -0.3709 -1.1254
 8487TIP3    H246953   1.567   2.387  16.653 -0.0518  0.1135  2.5440
 8488TIP3   OH246954   4.732   5.922  13.835 -0.6809 -0.1713  0.3923
 8488TIP3    H146955   4.691   5.836  13.828 -2.9979  0.9989 -1.7270
 8488TIP3    H246956   4.663   5.979  13.868  0.1728  1.3088 -0.2903
 8489TIP3   OH246957   1.466   4.949   5.915  0.5284 -0.8624 -0.2060
 8489TIP3    H146958   1.405   5.005   5.867  1.8404 -0.1624 -1.0909
 8489TIP3    H246959   1.434   4.860   5.900 -1.9572 -0.4075  1.7339
 8490TIP3   OH246960   5.385   1.365  15.602  0.2312  0.3058  0.1340
 8490TIP3    H146961   5.410   1.313  15.678  0.4227 -2.1225 -1.4552
 8490TIP3    H246962   5.467   1.383  15.557 -0.1013 -1.1616 -1.1584
 8491TIP3   OH246963   5.264   5.585  13.565  0.0616  0.1580 -0.3022
 8491TIP3    H146964   5.333   5.548  13.619  1.2833  2.5151 -0.1470
 8491TIP3    H246965   5.300   5.584  13.476 -0.9969 -1.4772 -0.7672
 8492TIP3   OH246966   3.425   4.361  10.709 -0.0562 -0.5759 -0.1049
 8492TIP3    H146967   3.358   4.355  10.641  0.1263 -0.0206 -0.3416
 8492TIP3    H246968   3.448   4.454  10.711  1.4475 -0.9121 -0.7493
 8493TIP3   OH246969   5.534   3.207   4.884 -0.1720  0.5182  0.0880
 8493TIP3    H146970   5.493   3.278   4.835  0.2898  0.5231 -0.2995
 8493TIP3    H246971   5.463   3.146   4.903 -0.3881  0.5977 -0.4504
 8494TIP3   OH246972   6.423   1.866  11.739  0.1026 -0.0220  0.2451
 8494TIP3    H146973   6.429   1.775  11.710 -0.4733 -0.1512  0.5290
 8494TIP3    H246974   6.395   1.861  11.830  1.5974  0.3930  0.7734
 8495TIP3   OH246975   3.944   2.725  12.068 -0.3318  0.0381  1.1383
 8495TIP3    H146976   3.956   2.730  11.973 -0.3311  1.6586  1.1969
 8495TIP3    H246977   3.880   2.654  12.080 -0.5745  0.0189 -0.0839
 8496TIP3   OH246978   4.470   0.261   6.757 -0.9656 -0.0203  1.1527
 8496TIP3    H146979   4.504   0.345   6.788 -0.8889 -0.0437  1.1323
 8496TIP3    H246980   4.510   0.196   6.815  0.3527 -0.1980  0.0910
 8497TIP3   OH246981   0.763   6.416   5.492  0.0986  0.2851  0.6530
 8497TIP3    H146982   0.796   6.366   5.567 -0.7503  0.1127  0.9291
 8497TIP3    H246983   0.739   6.349   5.428 -1.3230  0.2911  1.1404
 8498TIP3   OH246984   1.126   4.529   2.932 -0.1216 -0.4032  0.2245
 8498TIP3    H146985   1.136   4.609   2.880  1.0375 -0.5369  0.2208
 8498TIP3    H246986   1.130   4.458   2.868 -0.6647 -0.4968  0.2857
 8499TIP3   OH246987   1.806   4.613  14.779  0.5341  0.4248  0.1446
 8499TIP3    H146988   1.864   4.603  14.854  0.6323  1.0426  0.1600
 8499TIP3    H246989   1.815   4.531  14.730  0.5036  0.0373  0.7762
 8500TIP3   OH246990   2.361   4.182   4.233 -0.4235  0.0747  0.1164
 8500TIP3    H146991   2.385   4.275   4.230 -0.2212  0.0030 -1.3926
 8500TIP3    H246992   2.353   4.162   4.326  1.7050  1.0563  0.5692
 8501TIP3   OH246993   2.728   1.868   1.772  0.1128 -0.2099 -0.0928
 8501TIP3    H146994   2.765   1.860   1.860  0.7985  0.0808 -0.3466
 8501TIP3    H246995   2.768   1.796   1.723  1.0579  0.6217 -0.5983
 8502TIP3   OH246996   5.458   3.154   0.678  0.3880 -0.4816  0.2455
 8502TIP3    H146997   5.502   3.157   0.763 -1.7212  0.6513  1.3885
 8502TIP3    H246998   5.498   3.080   0.633  3.0977  0.1914  1.3248
 8503TIP3   OH246999   5.955   0.593  15.715  0.2913  0.1480  0.5688
 8503TIP3    H147000   5.955   0.597  15.810  0.8976 -1.1812  0.6431
 8503TIP3    H247001   5.941   0.500  15.695  0.4463  0.3724 -0.6352
 8504TIP3   OH247002   3.089   5.917  10.818  0.0351 -0.4128 -0.7219
 8504TIP3    H147003   3.000   5.884  10.812  0.0283 -0.6076  0.1717
 8504TIP3    H247004   3.144   5.838  10.818  0.1697 -0.3197 -0.7825
 8505TIP3   OH247005   6.277   5.457  15.588  0.3019 -0.3867 -0.2455
 8505TIP3    H147006   6.363   5.471  15.628 -0.5963  0.8608  1.3437
 8505TIP3    H247007   6.224   5.421  15.658 -0.8106 -0.0033 -0.8694
 8506TIP3   OH247008   3.457   4.398  14.033 -0.1000 -0.2049  0.1398
 8506TIP3    H147009   3.378   4.397  14.087 -0.6793  0.2284 -0.6765
 8506TIP3    H247010   3.511   4.327  14.069 -1.6645 -1.7773 -0.4425
 8507TIP3   OH247011   4.148   2.896   0.122 -0.0255  0.5390  0.6706
 8507TIP3    H147012   4.178   2.986   0.129  0.6097  0.3770  0.0516
 8507TIP3    H247013   4.223   2.847   0.089 -1.1525  0.2787 -1.7437
 8508TIP3   OH247014   2.482   4.100   3.819 -0.5731 -0.2758  0.8508
 8508TIP3    H147015   2.554   4.082   3.758 -0.7415 -1.9511  1.1249
 8508TIP3    H247016   2.519   4.164   3.880 -0.2425  1.0753 -0.6795
 8509TIP3   OH247017   0.415   6.387  11.938  0.6631 -0.9953  0.5378
 8509TIP3    H147018   0.407   6.401  12.033  1.0936  0.2569  0.4109
 8509TIP3    H247019   0.506   6.364  11.925  0.4535 -1.8119  0.4928
 8510TIP3   OH247020   4.042   1.242   4.017 -0.9188  0.3753 -0.1570
 8510TIP3    H147021   4.022   1.207   4.103  0.3975 -0.9185 -0.3366
 8510TIP3    H247022   4.125   1.289   4.028 -0.4555 -0.2546 -0.7898
 8511TIP3   OH247023   2.844   4.087  14.391  0.2822 -0.1971 -1.0256
 8511TIP3    H147024   2.760   4.054  14.422  0.5650 -1.2474 -1.3583
 8511TIP3    H247025   2.831   4.182  14.385 -0.0016  0.0023  1.5626
 8512TIP3   OH247026   6.441   3.233   0.797 -0.9571 -0.3305 -0.1290
 8512TIP3    H147027   6.462   3.154   0.746  3.0266 -0.4261  1.2901
 8512TIP3    H247028   6.448   3.205   0.889  1.2678  1.7056  0.4253
 8513TIP3   OH247029   0.844   3.813   0.597 -0.5075 -0.1524 -0.1729
 8513TIP3    H147030   0.826   3.872   0.670 -0.8038  0.6041 -0.8401
 8513TIP3    H247031   0.911   3.859   0.545 -1.9345  0.3923 -1.6020
 8514TIP3   OH247032   2.093   6.401  15.170 -0.3953 -0.5234 -0.3615
 8514TIP3    H147033   2.164   6.452  15.129 -0.3403 -1.1814 -1.0953
 8514TIP3    H247034   2.013   6.446  15.143 -0.2530  0.5956  0.9834
 8515TIP3   OH247035   2.986   3.090  16.376 -0.1210  0.2186 -0.4258
 8515TIP3    H147036   2.927   3.100  16.301  0.0502  0.3190 -0.5493
 8515TIP3    H247037   2.972   3.168  16.429  0.0649  0.3568 -0.5754
 8516TIP3   OH247038   3.908   3.284   0.142  0.2187  0.4436 -0.3658
 8516TIP3    H147039   3.816   3.265   0.124 -0.1517  1.6576  0.1312
 8516TIP3    H247040   3.906   3.359   0.202  1.5318  0.4362 -0.2744
 8517TIP3   OH247041   3.060   3.688   1.386  0.3426 -0.1869  0.9584
 8517TIP3    H147042   3.092   3.738   1.460  1.7667  0.8687 -0.3118
 8517TIP3    H247043   3.108   3.605   1.390  1.3827  0.3776  0.5192
 8518TIP3   OH247044   3.305   4.851  16.811 -0.2183  0.2897 -0.0241
 8518TIP3    H147045   3.331   4.858  16.719  0.2374 -0.0868  0.0706
 8518TIP3    H247046   3.213   4.823  16.808  0.4231 -2.0316 -0.3918
 8519TIP3   OH247047   1.678   5.833   4.443 -0.2837  0.1652 -0.0242
 8519TIP3    H147048   1.590   5.869   4.447  0.1322  1.5023 -1.6430
 8519TIP3    H247049   1.714   5.849   4.530 -1.6160 -0.3768  0.6441
 8520TIP3   OH247050   2.651   1.190  15.040  0.4113 -0.3846  0.0193
 8520TIP3    H147051   2.629   1.122  14.976 -2.2195 -0.9172  1.3492
 8520TIP3    H247052   2.673   1.141  15.119  0.7908  0.2882  0.3268
 8521TIP3   OH247053   3.845   6.645  16.942 -0.2193  0.0739 -0.5591
 8521TIP3    H147054   3.763   6.689  16.919  0.0795  1.1121  0.2648
 8521TIP3    H247055   3.859   6.667  17.034  0.2430 -1.3091 -0.2781
 8522TIP3   OH247056   6.273   3.229  11.656 -0.4984 -0.2363  0.7183
 8522TIP3    H147057   6.223   3.157  11.694  1.7396 -2.8523 -0.8350
 8522TIP3    H247058   6.355   3.229  11.704 -1.1363  2.7121  1.9892
 8523TIP3   OH247059   3.204   6.712  14.856  0.1692 -0.4694  0.0413
 8523TIP3    H147060   3.124   6.660  14.861 -0.2193 -0.2531 -2.6622
 8523TIP3    H247061   3.275   6.648  14.862 -0.2767 -1.1227 -1.4120
 8524TIP3   OH247062   2.185   0.320   3.872 -0.3817  0.0488  0.3031
 8524TIP3    H147063   2.189   0.301   3.778  2.3820  1.7026 -0.0230
 8524TIP3    H247064   2.094   0.305   3.896 -1.0524 -0.9317 -2.5217
 8525TIP3   OH247065   4.115   1.759  16.966 -0.2850 -0.3020 -0.6017
 8525TIP3    H147066   4.200   1.715  16.976 -1.2627 -2.1942 -0.1998
 8525TIP3    H247067   4.120   1.801  16.880  1.6135  0.9802  0.0570
 8526TIP3   OH247068   4.065   3.097  17.105  0.4482 -0.0884  0.7409
 8526TIP3    H147069   4.154   3.083  17.138 -0.0865 -1.8627  1.5411
 8526TIP3    H247070   4.010   3.089  17.182 -0.3602  2.4093  0.5133
 8527TIP3   OH247071   2.936   2.175  13.721 -0.1218  0.7983  0.3688
 8527TIP3    H147072   2.885   2.097  13.698 -1.7636  1.4745  1.4813
 8527TIP3    H247073   2.958   2.163  13.814  2.0969  0.3812 -0.1654
 8528TIP3   OH247074   5.345   2.502  12.033  0.0609 -0.3683  0.4762
 8528TIP3    H147075   5.266   2.506  11.979  0.2796 -0.3224  0.1552
 8528TIP3    H247076   5.415   2.481  11.971  0.5765  1.1951  0.4694
 8529TIP3   OH247077   1.514   6.564   5.448  0.1141  0.5188 -0.3130
 8529TIP3    H147078   1.541   6.648   5.411 -0.7227  0.7169 -0.4838
 8529TIP3    H247079   1.473   6.518   5.375  0.0210  0.2062 -0.0659
 8530TIP3   OH247080   6.487   3.317   3.228 -0.1783  0.2410 -0.0621
 8530TIP3    H147081   6.431   3.388   3.261  0.1068 -0.2820  1.6449
 8530TIP3    H247082   6.426   3.253   3.192 -0.5290  0.7208 -0.3219
 8531TIP3   OH247083   5.117   3.515  14.657 -0.1402  0.1624 -0.3823
 8531TIP3    H147084   5.175   3.558  14.720  0.9475  0.3545 -1.4900
 8531TIP3    H247085   5.143   3.423  14.659 -0.0260  0.1884 -0.6260
 8532TIP3   OH247086   1.928   6.594  11.275  0.3404  0.1273  0.9591
 8532TIP3    H147087   1.912   6.504  11.303 -0.6760 -0.7155 -1.9368
 8532TIP3    H247088   1.993   6.586  11.205 -0.6125  1.4784 -0.1425
 8533TIP3   OH247089   0.785   4.151  14.944  0.0077 -0.3676  0.1908
 8533TIP3    H147090   0.716   4.213  14.967 -0.0825 -0.7374  0.9518
 8533TIP3    H247091   0.753   4.067  14.976  1.1394 -0.4232  1.2769
 8534TIP3   OH247092   2.235   4.558  10.886 -0.2007 -0.1488 -0.1472
 8534TIP3    H147093   2.149   4.595  10.866 -0.1709 -0.1164 -0.2133
 8534TIP3    H247094   2.294   4.600  10.824  0.4875  2.4427  2.0977
 8535TIP3   OH247095   6.138   1.839  17.405  0.3364 -0.2167  0.3083
 8535TIP3    H147096   6.063   1.864  17.351  1.3459  1.2639 -0.5054
 8535TIP3    H247097   6.103   1.777  17.469 -1.6286  0.6756  0.1674
 8536TIP3   OH247098   2.300   1.557  15.492  0.9790 -0.1914 -0.3603
 8536TIP3    H147099   2.351   1.480  15.517  0.8598 -0.2689 -0.3573
 8536TIP3    H247100   2.348   1.593  15.416  1.1914 -0.1059 -0.1879
 8537TIP3   OH247101   2.794   4.754   4.826  0.8922  0.0990  0.0990
 8537TIP3    H147102   2.720   4.709   4.785  1.2419 -0.7812  0.3874
 8537TIP3    H247103   2.820   4.821   4.763 -0.2995  0.5822  0.1101
 8538TIP3   OH247104   3.186   3.077  14.191  0.4379  0.4998 -0.4736
 8538TIP3    H147105   3.246   3.095  14.119  0.6698 -0.8005 -0.6256
 8538TIP3    H247106   3.182   2.981  14.196 -0.5231  0.5681  0.4513
 8539TIP3   OH247107   4.861   3.881   2.776  0.0980 -0.4219 -0.1047
 8539TIP3    H147108   4.853   3.950   2.710  0.7096 -0.8014 -0.5788
 8539TIP3    H247109   4.871   3.928   2.858 -1.2763  0.0633 -0.1857
 8540TIP3   OH247110   2.179   1.854   2.641  0.1315 -0.0825 -0.0196
 8540TIP3    H147111   2.263   1.846   2.596 -0.5383  0.7128 -1.4959
 8540TIP3    H247112   2.175   1.947   2.666  0.1163 -0.3341  0.9287
 8541TIP3   OH247113   6.119   6.544  10.862 -0.3068  0.3913 -0.1957
 8541TIP3    H147114   6.121   6.638  10.846 -0.0089  0.4208  0.0085
 8541TIP3    H247115   6.163   6.506  10.786 -0.0860  0.4412 -0.0921
 8542TIP3   OH247116   3.195   5.818   0.696  0.3961 -1.0563 -0.3615
 8542TIP3    H147117   3.101   5.825   0.710  0.4441  0.1389 -0.5890
 8542TIP3    H247118   3.232   5.899   0.732  1.3299 -1.4632 -0.3606
 8543TIP3   OH247119   2.120   2.261  16.781  0.2222  0.0836 -0.0630
 8543TIP3    H147120   2.043   2.314  16.761 -0.3071 -0.4424  0.5512
 8543TIP3    H247121   2.160   2.245  16.696 -1.7796 -1.8052 -0.7428
 8544TIP3   OH247122   1.796   2.774  13.573 -0.2677  0.2646  0.1790
 8544TIP3    H147123   1.879   2.727  13.585  0.1312  1.1153  0.8613
 8544TIP3    H247124   1.754   2.771  13.659  0.2961  2.1144  0.5551
 8545TIP3   OH247125   2.935   2.338  12.955 -0.5234 -0.0295  0.5913
 8545TIP3    H147126   2.942   2.399  12.881 -2.9381 -1.0878 -0.6023
 8545TIP3    H247127   3.026   2.320  12.980  0.4024  0.0710 -2.3794
 8546TIP3   OH247128   6.295   2.497  13.235 -0.7192 -0.2888  0.1899
 8546TIP3    H147129   6.296   2.544  13.151  1.9757 -0.7535 -0.1108
 8546TIP3    H247130   6.280   2.406  13.211  0.8105 -0.5391  0.0869
 8547TIP3   OH247131   0.782   1.230  14.188 -0.0069  0.1015  1.0064
 8547TIP3    H147132   0.799   1.310  14.238 -0.3713  0.2972  0.8266
 8547TIP3    H247133   0.692   1.206  14.211 -0.5891  0.8192 -0.3809
 8548TIP3   OH247134   0.249   5.097  12.577  0.6103 -0.0878  0.1634
 8548TIP3    H147135   0.205   5.167  12.529  1.9628 -0.3675 -1.5927
 8548TIP3    H247136   0.313   5.143  12.632  1.3472  0.1004 -0.8231
 8549TIP3   OH247137   3.403   6.431   0.217  0.0397 -0.0295 -0.7247
 8549TIP3    H147138   3.404   6.338   0.192  0.1399 -0.4334  0.7070
 8549TIP3    H247139   3.493   6.448   0.245  0.3498  0.8606 -2.1555
 8550TIP3   OH247140   5.607   5.004  13.102  0.3035  0.1510 -0.0118
 8550TIP3    H147141   5.601   5.034  13.192 -1.3812  0.4791 -0.1990
 8550TIP3    H247142   5.516   4.991  13.075  0.8054 -0.5724 -1.4533
 8551TIP3   OH247143   4.473   0.559  11.571 -0.1271 -0.0127  0.1940
 8551TIP3    H147144   4.405   0.602  11.624  0.6905  3.2420 -1.1917
 8551TIP3    H247145   4.527   0.512  11.635 -1.5362  0.3619  1.7235
 8552TIP3   OH247146   3.979   5.105  15.057 -0.0065  0.7728 -0.6232
 8552TIP3    H147147   3.997   5.017  15.089 -1.3615  0.0716 -1.6766
 8552TIP3    H247148   3.963   5.157  15.136  3.3981  0.7886  0.1990
 8553TIP3   OH247149   1.518   1.952   1.603 -0.4198 -0.0804  0.1769
 8553TIP3    H147150   1.484   1.970   1.516  0.5998 -0.3066 -0.2882
 8553TIP3    H247151   1.455   1.993   1.663 -0.5880  0.9810 -0.6922
 8554TIP3   OH247152   5.365   1.196   5.929  0.8975  0.1242  0.2020
 8554TIP3    H147153   5.403   1.223   6.013 -1.9333  1.0785  1.3302
 8554TIP3    H247154   5.312   1.119   5.951 -1.5633  1.5972 -0.1344
 8555TIP3   OH247155   3.011   4.835  16.872 -0.1892  0.5034  0.0410
 8555TIP3    H147156   2.971   4.828  16.785  1.7662  2.8286 -1.1846
 8555TIP3    H247157   2.992   4.925  16.900  1.2114  0.5656  0.9155
 8556TIP3   OH247158   0.365   3.301  13.671  0.0600 -0.2944 -0.1616
 8556TIP3    H147159   0.365   3.397  13.662  1.8364 -0.4440 -2.6479
 8556TIP3    H247160   0.275   3.275  13.649 -0.6746  0.7944  1.3326
 8557TIP3   OH247161   0.011   4.106  15.347 -0.2382  1.5608 -0.1656
 8557TIP3    H147162  -0.071   4.058  15.355 -0.7528  2.5764  0.9411
 8557TIP3    H247163   0.027   4.141  15.435  1.7144  0.8569 -0.1938
 8558TIP3   OH247164   3.015   2.147  15.679 -0.1142  0.1031 -0.0924
 8558TIP3    H147165   2.992   2.179  15.766 -0.7435  1.1190 -0.6057
 8558TIP3    H247166   3.081   2.209  15.647  0.9285 -0.8945  0.0728
 8559TIP3   OH247167   5.918   4.720   2.214 -0.3993  0.0315  0.1662
 8559TIP3    H147168   5.836   4.677   2.235 -1.9292  2.0845 -1.1839
 8559TIP3    H247169   5.949   4.756   2.297 -1.4058  0.1186  0.5076
 8560TIP3   OH247170   5.048   6.120   5.054  0.6715 -0.0273 -0.1362
 8560TIP3    H147171   5.007   6.205   5.040 -0.2148 -0.2790  0.8718
 8560TIP3    H247172   5.040   6.104   5.148  1.0955 -1.0967 -0.2670
 8561TIP3   OH247173   2.270   0.793   2.444 -0.6405  0.0349 -0.1167
 8561TIP3    H147174   2.218   0.713   2.450  0.4785 -0.6381  1.7092
 8561TIP3    H247175   2.350   0.772   2.494 -1.0783  2.8519  1.9847
 8562TIP3   OH247176   5.098   3.444   3.601 -0.2819 -0.3598  0.0429
 8562TIP3    H147177   5.104   3.509   3.531  1.2327  0.1780  0.6321
 8562TIP3    H247178   5.099   3.359   3.556  0.0619 -0.0132 -0.6219
 8563TIP3   OH247179   4.499   2.414  11.510 -0.3266  0.0537 -0.6119
 8563TIP3    H147180   4.464   2.423  11.421  0.3246  0.4515 -0.8372
 8563TIP3    H247181   4.531   2.502  11.532 -0.5064 -0.0369  0.0248
 8564TIP3   OH247182   6.516   1.611  16.551  0.2814 -0.0295  0.1174
 8564TIP3    H147183   6.499   1.601  16.457  1.5261 -0.9116 -0.0501
 8564TIP3    H247184   6.576   1.685  16.557 -0.8011  0.8441  0.3585
 8565TIP3   OH247185   0.617   4.950   1.722 -0.2627  0.2058  0.3091
 8565TIP3    H147186   0.567   5.025   1.755  0.6900  0.2956  1.6144
 8565TIP3    H247187   0.574   4.874   1.759 -0.1104  0.2192  0.5156
 8566TIP3   OH247188   1.800   1.331   3.937  0.3104  0.7601 -0.0810
 8566TIP3    H147189   1.733   1.283   3.987  1.1862 -1.4241 -0.8538
 8566TIP3    H247190   1.751   1.390   3.881 -1.1894 -1.9788 -1.8589
 8567TIP3   OH247191   0.417   5.934  14.546 -0.6338  0.0808 -0.6172
 8567TIP3    H147192   0.430   6.019  14.503  0.1468  1.7106  2.4699
 8567TIP3    H247193   0.499   5.887  14.531  1.0411  1.9988  1.6823
 8568TIP3   OH247194   1.773   0.063   0.930 -0.3913  0.0069  0.3264
 8568TIP3    H147195   1.807   0.089   1.015 -0.0718  0.5057  0.0457
 8568TIP3    H247196   1.711  -0.007   0.950 -0.5937  0.3705  1.0030
 8569TIP3   OH247197   6.322   4.572   5.475 -0.4266  0.0983 -0.3751
 8569TIP3    H147198   6.322   4.522   5.557  1.4015  0.5031 -0.0777
 8569TIP3    H247199   6.259   4.526   5.419 -1.7075 -0.2119  1.2123
 8570TIP3   OH247200   3.667   5.854   4.862 -0.0281  0.5566  0.6349
 8570TIP3    H147201   3.735   5.816   4.918 -0.3174 -0.2305  0.4695
 8570TIP3    H247202   3.715   5.891   4.788  0.2190 -0.0858  0.4660
 8571TIP3   OH247203   4.960   4.083   1.855  0.3049 -0.5043 -1.0932
 8571TIP3    H147204   4.870   4.095   1.825  0.3853 -1.6598 -1.8276
 8571TIP3    H247205   4.980   4.164   1.902 -1.2870 -0.4232 -0.4779
 8572TIP3   OH247206   0.062   3.644  12.621 -0.1461 -0.0942  0.0775
 8572TIP3    H147207   0.054   3.723  12.674  0.9102  1.0174 -1.3515
 8572TIP3    H247208   0.132   3.663  12.559 -0.9575 -1.5510 -1.3726
 8573TIP3   OH247209   4.163   0.426   2.847  0.0134  0.8459  0.2093
 8573TIP3    H147210   4.127   0.503   2.802  2.1113  0.7404 -1.8231
 8573TIP3    H247211   4.157   0.448   2.940  0.1650  3.2843 -0.2871
 8574TIP3   OH247212   2.425   3.156   6.073 -0.1622 -0.1342 -0.2538
 8574TIP3    H147213   2.442   3.130   6.164  1.3321  1.3931 -0.0452
 8574TIP3    H247214   2.447   3.249   6.071  1.1704 -0.4429 -2.4960
 8575TIP3   OH247215   1.037   3.809  10.628 -0.1353 -0.4140  0.3086
 8575TIP3    H147216   1.024   3.857  10.546  0.1741 -0.4817  0.2144
 8575TIP3    H247217   1.131   3.791  10.630  0.2717  1.5298  1.7547
 8576TIP3   OH247218   5.823   3.938   0.627 -0.0251  0.5085 -0.5733
 8576TIP3    H147219   5.788   3.995   0.696  0.0787 -1.5419  1.2959
 8576TIP3    H247220   5.746   3.903   0.583 -0.2162 -0.2765  0.3482
 8577TIP3   OH247221   1.284   6.299   4.185 -0.1130  0.2278 -0.1370
 8577TIP3    H147222   1.194   6.308   4.156  0.2034  1.8407 -0.7068
 8577TIP3    H247223   1.279   6.241   4.261 -1.6931  0.7153  0.1581
 8578TIP3   OH247224   0.663   1.427   5.648  0.2560  0.0091  0.4137
 8578TIP3    H147225   0.569   1.444   5.643  0.3585  0.1283 -2.1107
 8578TIP3    H247226   0.676   1.398   5.739 -2.5563 -2.0130  0.3215
 8579TIP3   OH247227   1.849   5.284  13.460 -0.4525  0.8272  0.8377
 8579TIP3    H147228   1.818   5.207  13.508  0.5934 -0.5067 -0.5290
 8579TIP3    H247229   1.775   5.345  13.461 -1.8427 -0.8009  0.6959
 8580TIP3   OH247230   0.602   0.330   0.597 -0.4800  0.5168 -0.5490
 8580TIP3    H147231   0.623   0.422   0.585 -0.5212  0.7637  1.1213
 8580TIP3    H247232   0.559   0.305   0.515  0.0766  1.8037 -1.2654
 8581TIP3   OH247233   6.000   6.293   1.786  0.0005  0.1868  0.1563
 8581TIP3    H147234   6.090   6.271   1.810 -0.2237 -1.0802 -0.0758
 8581TIP3    H247235   6.007   6.326   1.696  0.1786 -0.3734 -0.0385
 8582TIP3   OH247236   3.107   6.375  16.235  0.1522  0.0503  0.2956
 8582TIP3    H147237   3.062   6.449  16.277 -1.1043 -0.5017 -0.0183
 8582TIP3    H247238   3.039   6.333  16.182  1.2542 -0.3552 -0.8442
 8583TIP3   OH247239   3.241   5.817  14.860 -0.8313  0.9672 -0.3182
 8583TIP3    H147240   3.321   5.768  14.880 -0.1202  0.6670 -3.3610
 8583TIP3    H247241   3.179   5.790  14.928  1.0163 -0.3663  0.9406
 8584TIP3   OH247242   5.510   5.344  12.119  0.3275  0.0170  0.2748
 8584TIP3    H147243   5.600   5.343  12.152  0.4437  2.5220  0.2280
 8584TIP3    H247244   5.484   5.436  12.123 -1.1581 -0.1809 -2.6365
 8585TIP3   OH247245   4.183   5.955   5.598  0.1314 -0.0617  0.8541
 8585TIP3    H147246   4.265   5.999   5.577 -0.0925  0.2721  0.6509
 8585TIP3    H247247   4.206   5.863   5.610  0.1867 -0.4251 -1.5784
 8586TIP3   OH247248   1.216   2.424   1.955  0.5223 -0.3106  0.1340
 8586TIP3    H147249   1.237   2.420   1.861  0.0589 -0.4259  0.0359
 8586TIP3    H247250   1.300   2.445   1.997  0.3288  2.0603 -0.5108
 8587TIP3   OH247251   1.750   3.183  14.767 -0.2476 -0.2394 -0.3276
 8587TIP3    H147252   1.832   3.155  14.807 -1.7878 -0.9863  2.5491
 8587TIP3    H247253   1.697   3.104  14.765 -1.6944  0.6956 -0.0152
 8588TIP3   OH247254   3.403   0.135  14.496  0.2874 -0.3571 -0.1613
 8588TIP3    H147255   3.370   0.059  14.448  1.5180 -1.1801  0.2258
 8588TIP3    H247256   3.443   0.190  14.429 -2.1526  0.8919 -0.7077
 8589TIP3   OH247257   6.564   6.496  10.592 -0.3782  0.0174  0.0550
 8589TIP3    H147258   6.615   6.561  10.640  0.7837 -0.3916 -0.6048
 8589TIP3    H247259   6.521   6.445  10.661 -1.6305  1.6939  0.5791
 8590TIP3   OH247260   1.447   3.265  11.470 -0.1803  0.5980  0.2295
 8590TIP3    H147261   1.532   3.223  11.476 -0.8818 -0.6999  1.9280
 8590TIP3    H247262   1.462   3.355  11.499  0.8148  0.7742 -0.7491
 8591TIP3   OH247263   5.629   4.412   5.081  0.0823  0.5055  0.2880
 8591TIP3    H147264   5.631   4.402   4.986  1.3977  1.2909  0.2075
 8591TIP3    H247265   5.721   4.422   5.106 -0.2201  0.0852  1.6808
 8592TIP3   OH247266   6.085   1.051   2.629 -0.3091 -0.4895 -0.3773
 8592TIP3    H147267   6.162   0.996   2.628  2.0993  2.6074 -0.7798
 8592TIP3    H247268   6.023   1.007   2.570  1.5171 -2.5232 -0.8993
 8593TIP3   OH247269   4.723   3.390  13.018 -0.4766 -0.4202  0.0391
 8593TIP3    H147270   4.739   3.359  12.929  0.1884 -0.1072  0.0478
 8593TIP3    H247271   4.808   3.421  13.049 -0.7774 -0.1917  0.6534
 8594TIP3   OH247272   4.190   5.666   2.455 -0.5520 -0.1528  0.8347
 8594TIP3    H147273   4.118   5.626   2.407  1.5474 -1.3323 -1.5936
 8594TIP3    H247274   4.208   5.747   2.408  1.1631 -1.0295 -0.0925
 8595TIP3   OH247275   0.599   4.629   4.858 -0.4626 -0.2147 -0.1919
 8595TIP3    H147276   0.521   4.612   4.912  0.2360 -1.1706  0.5726
 8595TIP3    H247277   0.616   4.545   4.814  0.7420 -0.3536  0.4935
 8596TIP3   OH247278   1.757   4.158  14.401  0.6189 -0.1724  0.7013
 8596TIP3    H147279   1.688   4.158  14.334  1.2837 -1.3041 -0.0233
 8596TIP3    H247280   1.738   4.234  14.455 -0.0799  0.6551 -0.6423
 8597TIP3   OH247281   3.079   5.089  15.839  0.4212  0.3299  0.8950
 8597TIP3    H147282   2.993   5.055  15.812 -0.3940  2.2367  0.9592
 8597TIP3    H247283   3.125   5.105  15.757  0.1443  0.6805  0.8037
 8598TIP3   OH247284   0.186   4.557  11.614  0.3213 -0.9031 -0.4320
 8598TIP3    H147285   0.144   4.549  11.699  0.7741 -2.0168 -0.2824
 8598TIP3    H247286   0.276   4.527  11.629  1.4535  2.1212 -0.5641
 8599TIP3   OH247287   0.074   5.838   3.244  0.0747 -0.7308 -0.3736
 8599TIP3    H147288   0.115   5.828   3.158 -0.3148 -2.5874 -0.4000
 8599TIP3    H247289   0.120   5.911   3.285  0.6347 -0.1704 -1.9459
 8600TIP3   OH247290   3.121   3.585  16.047 -0.4984 -0.4773 -0.1410
 8600TIP3    H147291   3.062   3.573  16.122 -0.1194  1.3054  0.5145
 8600TIP3    H247292   3.114   3.679  16.027 -0.2438 -0.8280 -2.0813
 8601TIP3   OH247293   4.111   2.717  13.543  0.2850 -0.3273  0.5099
 8601TIP3    H147294   4.072   2.638  13.581 -0.6042  0.0572  0.4136
 8601TIP3    H247295   4.122   2.696  13.450  0.0826 -0.3582  0.4921
 8602TIP3   OH247296   4.385   0.792  12.077  0.2883  0.5913  0.6770
 8602TIP3    H147297   4.411   0.701  12.092  0.5836  0.4120 -0.8187
 8602TIP3    H247298   4.427   0.816  11.995 -1.4132  1.4346  0.0187
 8603TIP3   OH247299   3.163   3.021  17.329 -0.2230 -0.4227 -0.7050
 8603TIP3    H147300   3.086   3.074  17.309 -0.2468 -1.2479 -3.1303
 8603TIP3    H247301   3.128   2.932  17.340  0.2043 -0.5242 -0.1059
 8604TIP3   OH247302   6.758   5.458   4.410 -0.1214  0.1291  0.0773
 8604TIP3    H147303   6.689   5.455   4.476  0.7902  0.6911  1.0797
 8604TIP3    H247304   6.715   5.429   4.329 -1.5674  0.6439  0.6371
 8605TIP3   OH247305   0.438   1.052   5.480 -0.6955  0.5309 -0.3002
 8605TIP3    H147306   0.483   1.021   5.401 -0.9212  0.5460 -0.4370
 8605TIP3    H247307   0.499   1.032   5.552 -1.1952 -1.0530 -0.2759
 8606TIP3   OH247308   3.036   3.238  17.109  0.5981 -0.5382  0.3117
 8606TIP3    H147309   3.082   3.164  17.070  1.2494 -0.6155  1.2071
 8606TIP3    H247310   3.099   3.311  17.105  0.2059 -0.2086  0.0518
 8607TIP3   OH247311   5.178   3.541   2.854 -0.3512  0.6612 -0.2311
 8607TIP3    H147312   5.265   3.511   2.828 -0.3560  0.1149  0.3323
 8607TIP3    H247313   5.162   3.619   2.803  0.0645  0.2106 -1.0599
 8608TIP3   OH247314   3.733   1.987  14.053  0.2174  0.8986  0.5875
 8608TIP3    H147315   3.656   1.967  14.106  0.4501  1.4640  1.1423
 8608TIP3    H247316   3.804   1.995  14.116  0.7205  0.4814  0.0886
 8609TIP3   OH247317   5.935   2.935   5.995 -0.0804 -0.0364  0.0539
 8609TIP3    H147318   5.894   2.919   6.080  1.0624 -0.6870  0.5211
 8609TIP3    H247319   6.027   2.912   6.009 -0.3566 -3.0044 -2.1063
 8610TIP3   OH247320   5.194   6.112   3.769  0.3611 -0.9618  0.4549
 8610TIP3    H147321   5.131   6.109   3.698  1.2168  0.0413 -0.3639
 8610TIP3    H247322   5.275   6.144   3.729  0.5753  0.6966  2.0678
 8611TIP3   OH247323   0.512   0.369   3.934  0.2627 -0.4211  0.3140
 8611TIP3    H147324   0.577   0.327   3.877  0.4629 -3.4631  2.5223
 8611TIP3    H247325   0.486   0.448   3.887  1.4100 -1.9917 -3.2874
 8612TIP3   OH247326   5.120   0.342  14.155 -0.7650  0.4358  0.9504
 8612TIP3    H147327   5.088   0.332  14.245 -1.0740  0.0902  0.8059
 8612TIP3    H247328   5.198   0.288  14.152 -1.2387 -0.2513  0.7729
 8613TIP3   OH247329   5.844   0.459   6.284  0.0827 -0.3133  0.3952
 8613TIP3    H147330   5.928   0.451   6.330 -0.3306  1.1126  1.4710
 8613TIP3    H247331   5.786   0.397   6.329  0.3445 -0.7782  0.1102
 8614TIP3   OH247332   5.412   4.188  14.882  0.2343 -0.5362 -0.2273
 8614TIP3    H147333   5.446   4.272  14.914 -0.9036 -0.5056  1.0242
 8614TIP3    H247334   5.353   4.212  14.811 -0.4296 -0.2211  0.4185
 8615TIP3   OH247335   1.903   2.066   6.389 -0.3052 -0.2505 -0.2742
 8615TIP3    H147336   1.973   2.127   6.413 -0.5133 -1.1361  3.2029
 8615TIP3    H247337   1.947   1.995   6.344  0.5404  0.5956 -0.8117
 8616TIP3   OH247338   4.515   2.916  14.991  0.1213  1.0945  0.2471
 8616TIP3    H147339   4.466   2.889  14.913  1.8623  1.8627 -1.2047
 8616TIP3    H247340   4.549   3.002  14.969  0.9230  1.1939  1.7520
 8617TIP3   OH247341   4.249   2.571  11.641 -0.6667 -0.3349 -0.4532
 8617TIP3    H147342   4.340   2.589  11.617 -1.0592 -0.1825 -1.9619
 8617TIP3    H247343   4.252   2.486  11.684  0.4102  0.4754  1.1936
 8618TIP3   OH247344   2.574   1.596   0.478  0.5419  0.1192 -0.3824
 8618TIP3    H147345   2.534   1.509   0.465 -0.6487  0.7709 -1.3211
 8618TIP3    H247346   2.664   1.586   0.448 -0.1118 -0.3358 -2.3812
 8619TIP3   OH247347   4.683   6.674  14.387  0.0833 -0.4720  0.2426
 8619TIP3    H147348   4.714   6.748  14.439  0.1318  1.5836 -2.4922
 8619TIP3    H247349   4.588   6.688  14.379 -0.6062 -2.8491  2.7098
 8620TIP3   OH247350   5.871   3.681  12.856  0.1828 -0.0266  0.2144
 8620TIP3    H147351   5.903   3.767  12.828  0.3792  0.3885  1.6501
 8620TIP3    H247352   5.842   3.639  12.775  2.2293  0.4631 -0.8252
 8621TIP3   OH247353   3.566   0.234   5.018 -0.0641 -0.3796  0.7128
 8621TIP3    H147354   3.623   0.304   4.987 -1.3066  2.1972  3.7276
 8621TIP3    H247355   3.493   0.232   4.956  1.2804 -0.9408 -0.9049
 8622TIP3   OH247356   2.428   4.436   2.519 -0.1485  0.0207 -0.1420
 8622TIP3    H147357   2.387   4.446   2.433 -0.8080  1.1956  0.2729
 8622TIP3    H247358   2.386   4.360   2.557 -0.3021 -0.1358 -0.6110
 8623TIP3   OH247359   0.680   1.610   2.622 -0.4333 -0.8359 -0.0536
 8623TIP3    H147360   0.650   1.570   2.703  2.7273 -0.9546  1.2047
 8623TIP3    H247361   0.717   1.538   2.572 -0.3538 -0.4305 -0.5868
 8624TIP3   OH247362   3.106   1.860   1.998  0.0680  0.2860 -0.4293
 8624TIP3    H147363   3.122   1.913   2.076  1.1946  0.4507 -0.7570
 8624TIP3    H247364   3.015   1.877   1.975  0.0459  1.0687  0.2263
 8625TIP3   OH247365   3.340   4.257   6.468  0.0047  0.0249 -0.0194
 8625TIP3    H147366   3.284   4.325   6.431 -0.2440 -1.2405 -2.1314
 8625TIP3    H247367   3.280   4.196   6.510  0.1923  0.7381  1.3899
 8626TIP3   OH247368   0.899   0.294   5.091 -0.6387 -0.0293 -0.0669
 8626TIP3    H147369   0.938   0.224   5.145 -1.4781 -0.9144 -0.5702
 8626TIP3    H247370   0.844   0.343   5.152 -1.5560 -1.0043 -0.0723
 8627TIP3   OH247371   6.117   1.850  11.555  0.6165  0.5027  0.2288
 8627TIP3    H147372   6.125   1.759  11.526 -0.9729  0.2300  0.5184
 8627TIP3    H247373   6.121   1.845  11.650  0.9613  0.7999  0.2315
 8628TIP3   OH247374   6.265   4.732  14.302  0.8369  1.0306  0.2554
 8628TIP3    H147375   6.290   4.775  14.220  1.1278  0.1193 -0.1478
 8628TIP3    H247376   6.177   4.698  14.284  1.5203 -0.5241 -0.2296
 8629TIP3   OH247377   3.743   2.163  13.654 -0.2520 -0.3968  0.1800
 8629TIP3    H147378   3.819   2.179  13.598  0.6710  0.4390  1.5959
 8629TIP3    H247379   3.670   2.207  13.610  0.9127  2.2325  0.6881
 8630TIP3   OH247380   0.260   0.682  13.668  0.2967  0.0629 -0.3752
 8630TIP3    H147381   0.313   0.742  13.721 -0.0262 -0.5341  0.6479
 8630TIP3    H247382   0.247   0.729  13.585  0.2735  1.3005  0.2944
 8631TIP3   OH247383   6.362   5.791   5.385 -0.1323  0.3752 -0.3646
 8631TIP3    H147384   6.439   5.823   5.338  0.6282  1.6485  1.6339
 8631TIP3    H247385   6.293   5.786   5.318  1.7068 -1.0794 -2.2705
 8632TIP3   OH247386   1.164   4.504  15.480 -0.1568 -0.5189 -0.0052
 8632TIP3    H147387   1.171   4.558  15.559  1.0106 -2.2006  1.1167
 8632TIP3    H247388   1.141   4.565  15.410  1.1617  1.4156  1.1742
 8633TIP3   OH247389   6.014   5.151   5.503 -0.4838  0.0176 -0.4057
 8633TIP3    H147390   6.008   5.060   5.474 -0.3466 -0.4934  1.0872
 8633TIP3    H247391   5.934   5.192   5.470 -1.3689 -1.0784  0.2923
 8634TIP3   OH247392   3.016   5.445   1.511  0.2622  0.3369  0.0834
 8634TIP3    H147393   3.058   5.367   1.547  0.8498  0.6846  0.1897
 8634TIP3    H247394   3.086   5.488   1.461  0.2492  1.2940  0.8341
 8635TIP3   OH247395   2.412   2.604   0.480 -0.1232 -0.5150 -0.5826
 8635TIP3    H147396   2.476   2.612   0.550  0.6250 -1.5800 -1.1266
 8635TIP3    H247397   2.327   2.613   0.525  0.2610 -2.6231  0.7532
 8636TIP3   OH247398   4.034   4.664  11.608 -0.0646 -0.0277  0.3663
 8636TIP3    H147399   4.121   4.646  11.573 -0.2307 -0.9373  0.3988
 8636TIP3    H247400   4.012   4.586  11.658 -0.5016  0.5921  1.1642
 8637TIP3   OH247401   5.047   1.276   6.763  0.1279 -0.2873 -0.5179
 8637TIP3    H147402   5.093   1.318   6.836 -0.9530 -1.2281  0.7500
 8637TIP3    H247403   4.955   1.294   6.780 -0.3579 -2.8813 -0.0602
 8638TIP3   OH247404   1.206   6.679   1.241  0.2193  0.0126  0.3433
 8638TIP3    H147405   1.195   6.774   1.242 -0.6487 -0.0501 -1.0047
 8638TIP3    H247406   1.300   6.666   1.254  0.3234  1.0381  0.7313
 8639TIP3   OH247407   5.490   3.288   4.079 -0.6435  0.3008 -0.0879
 8639TIP3    H147408   5.576   3.261   4.048 -1.6206 -2.2154 -0.8873
 8639TIP3    H247409   5.446   3.323   4.002 -1.0081 -0.3204 -0.1697
 8640TIP3   OH247410   6.392   0.345  10.598 -0.1904 -0.0748 -0.0329
 8640TIP3    H147411   6.332   0.306  10.662  2.0744 -2.3222  0.9063
 8640TIP3    H247412   6.421   0.426  10.639 -1.0471  0.0186  0.4105
 8641TIP3   OH247413   5.933   5.898   0.271 -0.5741 -0.5374 -0.1504
 8641TIP3    H147414   5.985   5.936   0.200 -2.0588  0.7206 -0.6186
 8641TIP3    H247415   5.963   5.944   0.349 -1.0699  0.3064 -0.4428
 8642TIP3   OH247416   3.924   4.762   0.166  0.0665 -0.1436 -0.2977
 8642TIP3    H147417   3.938   4.819   0.090  0.3616  0.4452  0.1847
 8642TIP3    H247418   3.911   4.675   0.129  2.1497 -0.2340 -0.9491
 8643TIP3   OH247419   0.636   5.608  17.002  0.0133  0.4851 -0.0028
 8643TIP3    H147420   0.659   5.600  16.910  0.2630 -0.6730  0.1497
 8643TIP3    H247421   0.695   5.674  17.036 -1.6881  2.7628 -1.1850
 8644TIP3   OH247422   0.532   1.369   0.550 -0.0303  0.6214  0.1721
 8644TIP3    H147423   0.558   1.460   0.570  0.6269 -0.0546  2.8174
 8644TIP3    H247424   0.437   1.368   0.561  0.1317  0.6730  1.7902
 8645TIP3   OH247425   4.098   0.999  12.914 -0.2168  0.1981 -0.3733
 8645TIP3    H147426   4.152   1.005  12.993  1.4403  0.1864 -1.4616
 8645TIP3    H247427   4.141   0.932  12.861  0.7291  2.5213 -2.7510
 8646TIP3   OH247428   1.604   0.761  12.986  0.0172  0.3372 -0.4218
 8646TIP3    H147429   1.626   0.849  13.017  1.3562 -0.6936  1.8880
 8646TIP3    H247430   1.684   0.711  13.000 -0.6418 -1.2057 -1.9284
 8647TIP3   OH247431   0.326   1.561  16.343  0.6296  0.4903 -0.8177
 8647TIP3    H147432   0.293   1.603  16.423  2.0466 -2.2141  1.3657
 8647TIP3    H247433   0.406   1.610  16.323  0.1595  1.3214 -0.7389
 8648TIP3   OH247434   2.486   1.534  13.824  0.1233 -0.0896 -0.1009
 8648TIP3    H147435   2.492   1.451  13.871  1.0061 -0.7075 -1.2673
 8648TIP3    H247436   2.398   1.567  13.844 -0.2348 -1.3073  0.3644
 8649TIP3   OH247437   3.767   5.646   2.636  0.0365 -0.2661 -0.4209
 8649TIP3    H147438   3.700   5.580   2.656  0.4497 -0.2922  0.9764
 8649TIP3    H247439   3.788   5.631   2.544 -0.1872 -1.8198 -0.2485
 8650TIP3   OH247440   5.412   2.925  16.619  0.4246 -0.4169 -0.0998
 8650TIP3    H147441   5.494   2.932  16.570  0.5433 -0.2734  0.1184
 8650TIP3    H247442   5.376   2.840  16.593  1.9382 -1.7350  1.7790
 8651TIP3   OH247443   6.409   6.062  12.179  0.6118  0.4224  0.4247
 8651TIP3    H147444   6.424   6.042  12.087  3.1103  0.2578  0.8056
 8651TIP3    H247445   6.418   6.157  12.185 -0.6896  0.5723  0.3547
 8652TIP3   OH247446   1.242   2.036  11.683 -0.0312 -0.7113 -0.0100
 8652TIP3    H147447   1.304   1.974  11.647 -0.7946 -1.1046 -0.6994
 8652TIP3    H247448   1.218   2.091  11.608  1.8465  1.5065  0.9092
 8653TIP3   OH247449   2.463   6.734  14.291  0.4692  0.0610 -0.3423
 8653TIP3    H147450   2.453   6.668  14.222 -0.6560 -1.0288  0.7927
 8653TIP3    H247451   2.373   6.753  14.317  0.8499  1.0828  0.2505
 8654TIP3   OH247452   4.532   4.119   2.745 -1.0829 -0.7393  0.0043
 8654TIP3    H147453   4.442   4.102   2.773 -1.4856  0.0294 -0.8062
 8654TIP3    H247454   4.562   4.189   2.803 -0.9813 -1.0159  0.2945
 8655TIP3   OH247455   5.393   1.478   0.048  0.1071  0.3108  0.3541
 8655TIP3    H147456   5.327   1.457  -0.018 -1.5477  2.9891  1.0006
 8655TIP3    H247457   5.450   1.543   0.006  1.2785 -0.6252  0.4269
 8656TIP3   OH247458   4.913   2.700  16.241  0.1322 -0.6568 -0.3979
 8656TIP3    H147459   4.956   2.614  16.246  0.6793 -0.3248  1.9639
 8656TIP3    H247460   4.847   2.698  16.310 -2.4515 -0.4284 -2.7025
 8657TIP3   OH247461   0.242   5.640   5.005  0.1662 -0.1184 -0.3109
 8657TIP3    H147462   0.264   5.676   5.091  0.9348  0.8906 -0.9021
 8657TIP3    H247463   0.239   5.545   5.018  0.5178  0.0086  0.7715
 8658TIP3   OH247464   1.413   1.507  16.029 -0.3754 -1.2282  0.1774
 8658TIP3    H147465   1.371   1.431  16.068 -0.7974 -0.5797  1.0018
 8658TIP3    H247466   1.350   1.578  16.038  0.0875 -0.7224 -0.4093
 8659TIP3   OH247467   5.349   2.199   4.681 -0.4948  0.5764  0.1615
 8659TIP3    H147468   5.438   2.188   4.649 -0.5241  0.3978  0.1389
 8659TIP3    H247469   5.332   2.293   4.674 -0.1464  0.6724  0.5981
 8660TIP3   OH247470   5.409   4.256  16.795  0.6706  0.0394 -0.1166
 8660TIP3    H147471   5.468   4.209  16.853  0.7509  0.3841  0.0821
 8660TIP3    H247472   5.343   4.191  16.770  1.3034 -0.4321 -0.5933
 8661TIP3   OH247473   2.270   2.812  16.462 -0.1894  0.4356 -0.4321
 8661TIP3    H147474   2.264   2.872  16.388 -0.3880  0.6283 -0.2577
 8661TIP3    H247475   2.363   2.791  16.468 -0.0365  1.1822 -0.1260
 8662TIP3   OH247476   6.224   3.007   1.000  0.6163  0.4054 -0.2634
 8662TIP3    H147477   6.270   3.083   1.036 -0.4856  1.0269 -0.1474
 8662TIP3    H247478   6.270   2.932   1.037  0.5679  1.0188  1.0779
 8663TIP3   OH247479   3.748   1.405   1.432 -0.0630 -0.0313 -0.2137
 8663TIP3    H147480   3.663   1.398   1.475  0.6712 -3.6460  1.0432
 8663TIP3    H247481   3.740   1.347   1.356  1.0235  0.1605 -0.4862
 8664TIP3   OH247482   5.346   5.092   2.096 -0.2104  0.5038 -0.3165
 8664TIP3    H147483   5.375   5.056   2.180  2.1423  1.8876 -0.4677
 8664TIP3    H247484   5.263   5.136   2.117 -0.8215 -1.0505  0.7659
 8665TIP3   OH247485   6.150   0.891  11.902  0.1391  0.1813 -0.2335
 8665TIP3    H147486   6.090   0.847  11.962 -1.7521 -1.4361 -3.1044
 8665TIP3    H247487   6.234   0.846  11.915 -0.0245  0.3238  1.5717
 8666TIP3   OH247488   3.442   4.070  15.506  0.8738 -0.1863  0.1762
 8666TIP3    H147489   3.428   3.975  15.503  1.0922 -0.1969 -1.8142
 8666TIP3    H247490   3.480   4.086  15.592 -0.9905 -1.6219  1.3464
 8667TIP3   OH247491   1.966   5.539  13.942 -0.1593 -0.2493  0.0213
 8667TIP3    H147492   1.962   5.610  14.006  0.0686  0.7066 -0.9962
 8667TIP3    H247493   2.042   5.487  13.969 -0.0662  0.1424  0.5284
 8668TIP3   OH247494   5.160   2.621  14.947 -0.3984 -0.0488  0.3454
 8668TIP3    H147495   5.102   2.545  14.958  0.1957 -0.4071  1.2171
 8668TIP3    H247496   5.197   2.611  14.860  0.1219 -1.1103  0.6684
 8669TIP3   OH247497   4.376   1.596  15.223 -0.7384  0.1212  0.4177
 8669TIP3    H147498   4.353   1.571  15.312 -0.1185 -1.8346  0.0723
 8669TIP3    H247499   4.467   1.624  15.228 -0.9226  0.7248  0.5065
 8670TIP3   OH247500   6.666   4.026  11.414  0.1149 -0.7597 -1.4392
 8670TIP3    H147501   6.604   3.960  11.383 -0.8225 -0.3439 -0.5006
 8670TIP3    H247502   6.623   4.110  11.397  0.4873 -0.4535 -0.8960
 8671TIP3   OH247503   5.771   3.125   2.391  0.2825 -0.7489 -0.0739
 8671TIP3    H147504   5.834   3.146   2.322  0.1019 -0.8183 -0.2607
 8671TIP3    H247505   5.764   3.205   2.443 -0.1195 -0.4601 -0.5612
 8672TIP3   OH247506   6.014   4.663  14.182  0.2505 -0.3580  0.0493
 8672TIP3    H147507   5.943   4.718  14.149  0.5095  0.5036  0.8868
 8672TIP3    H247508   5.971   4.606  14.247  0.4571  0.8555  1.3084
 8673TIP3   OH247509   2.425   5.600  13.093  0.3850 -0.3485 -0.6206
 8673TIP3    H147510   2.391   5.677  13.046 -0.8335 -0.7803 -0.4731
 8673TIP3    H247511   2.436   5.534  13.025  1.5533 -0.0255 -0.7668
 8674TIP3   OH247512   1.741   0.107  13.910 -0.4356  0.1574 -0.1440
 8674TIP3    H147513   1.826   0.134  13.944  0.2284 -1.0809 -0.7511
 8674TIP3    H247514   1.697   0.189  13.888  0.4536  0.8298  0.4960
 8675TIP3   OH247515   5.548   0.817   5.037 -0.0470  0.6199  0.3651
 8675TIP3    H147516   5.486   0.853   4.974 -0.5424  0.0584  0.5249
 8675TIP3    H247517   5.544   0.876   5.112  0.4874  1.2472 -0.0846
 8676TIP3   OH247518   6.252   6.433   4.030 -0.4437  0.0569 -0.2739
 8676TIP3    H147519   6.345   6.428   4.006 -0.3202 -2.5980  0.4120
 8676TIP3    H247520   6.211   6.366   3.975 -1.3399 -1.1389  1.7570
 8677TIP3   OH247521   6.382   0.306  15.183 -0.4974 -0.0519  0.6020
 8677TIP3    H147522   6.406   0.218  15.153 -0.4593 -0.4237  1.6942
 8677TIP3    H247523   6.333   0.344  15.109  1.3490 -0.1612 -0.7445
 8678TIP3   OH247524   1.155   4.246   3.232  0.7998 -0.0968 -0.4114
 8678TIP3    H147525   1.155   4.151   3.236  0.8286 -0.0577  1.2812
 8678TIP3    H247526   1.194   4.274   3.315  1.5820  1.3893 -1.2245
 8679TIP3   OH247527   5.959   3.144   1.165 -0.0772  0.1759  0.0453
 8679TIP3    H147528   5.933   3.067   1.114 -2.1640  1.2345 -0.6175
 8679TIP3    H247529   6.044   3.169   1.129 -0.5589 -0.3166 -1.5393
 8680TIP3   OH247530   1.887   6.041   0.828 -0.1105  0.0683  0.1519
 8680TIP3    H147531   1.890   6.122   0.777  0.3004  1.9323  2.9530
 8680TIP3    H247532   1.799   6.037   0.863  0.3858  0.2469  1.4508
 8681TIP3   OH247533   6.786   2.178   0.631  0.7134  0.5767  0.0153
 8681TIP3    H147534   6.792   2.089   0.594 -1.2123  0.6704 -0.6200
 8681TIP3    H247535   6.761   2.233   0.557  3.4304  1.9922  0.0356
 8682TIP3   OH247536   0.105   6.083  13.057  0.1845 -0.6401  0.0314
 8682TIP3    H147537   0.078   6.163  13.103 -1.6903 -0.5743 -1.1029
 8682TIP3    H247538   0.197   6.073  13.080  0.6883  2.2365 -0.3463
 8683TIP3   OH247539   3.408   2.621  17.066 -0.5522  0.2901  0.3024
 8683TIP3    H147540   3.491   2.599  17.108 -0.9157 -2.0256 -0.1005
 8683TIP3    H247541   3.341   2.581  17.122 -1.1746 -0.8135 -1.1923
 8684TIP3   OH247542   3.841   2.272   2.678 -0.1509  0.0423  0.0169
 8684TIP3    H147543   3.778   2.222   2.729 -0.2333 -0.1740 -0.2929
 8684TIP3    H247544   3.919   2.217   2.675  0.5247  0.8793  1.5192
 8685TIP3   OH247545   3.171   3.445   4.246  0.4121  0.3182 -0.3221
 8685TIP3    H147546   3.187   3.370   4.305 -1.9441  1.2289  1.6440
 8685TIP3    H247547   3.169   3.521   4.304  1.1640  1.7466 -2.0724
 8686TIP3   OH247548   0.683   3.119   1.726 -0.1737  0.5498  0.6744
 8686TIP3    H147549   0.763   3.121   1.673 -1.1357 -1.8205 -1.0309
 8686TIP3    H247550   0.714   3.111   1.816  1.5198  0.4525  0.1182
 8687TIP3   OH247551   3.599   4.998   3.718 -0.4536  0.1125  0.1642
 8687TIP3    H147552   3.576   4.998   3.811  1.0308 -1.4860  0.5814
 8687TIP3    H247553   3.689   4.967   3.715 -0.7646 -0.8132 -1.8742
 8688TIP3   OH247554   1.241   0.708  14.759 -0.1639  0.0104  0.3307
 8688TIP3    H147555   1.321   0.721  14.810 -0.7136  1.9271  0.7641
 8688TIP3    H247556   1.171   0.706  14.824 -0.7212  0.9813 -0.2195
 8689TIP3   OH247557   0.031   4.293   0.249  0.8095  0.3767 -0.4716
 8689TIP3    H147558   0.064   4.207   0.275 -1.4459 -0.5916 -0.5576
 8689TIP3    H247559   0.100   4.354   0.274  1.6572 -1.2447  1.3922
 8690TIP3   OH247560   5.785   4.897  12.349 -0.2088 -0.0555  0.5371
 8690TIP3    H147561   5.850   4.917  12.417  0.5513 -0.5646 -0.0174
 8690TIP3    H247562   5.731   4.976  12.345  1.3085  1.0217 -0.0144
 8691TIP3   OH247563   2.324   1.840   5.014 -0.3998  0.1045  0.0781
 8691TIP3    H147564   2.234   1.868   5.000 -0.7324 -1.7691 -2.2967
 8691TIP3    H247565   2.329   1.754   4.972  2.0707 -0.6298  1.6251
 8692TIP3   OH247566   5.629   4.633  16.110 -0.0140 -0.1734  0.1379
 8692TIP3    H147567   5.719   4.610  16.133  0.6569  1.0354 -1.1728
 8692TIP3    H247568   5.621   4.613  16.017 -0.9752  0.0905  0.1504
 8693TIP3   OH247569   0.653   3.817   4.900 -0.6488 -0.3555 -0.0140
 8693TIP3    H147570   0.698   3.829   4.984 -1.5959  1.0674  0.3145
 8693TIP3    H247571   0.561   3.837   4.919 -0.8400  0.2080 -1.4479
 8694TIP3   OH247572   0.271   5.518   1.938  0.2441 -0.0562  0.2889
 8694TIP3    H147573   0.234   5.486   1.856 -0.2456  0.6941  0.2071
 8694TIP3    H247574   0.241   5.456   2.005 -1.8433  0.9406  0.3535
 8695TIP3   OH247575   1.126   0.523   4.882  0.4371  0.2051 -0.1167
 8695TIP3    H147576   1.094   0.557   4.965  0.5914  0.4463 -0.1545
 8695TIP3    H247577   1.220   0.514   4.894  0.3296 -0.7660  0.0870
 8696TIP3   OH247578   1.979   2.424  14.510  0.0280  0.0984  0.2424
 8696TIP3    H147579   2.029   2.411  14.429  2.0924  0.3082  1.4131
 8696TIP3    H247580   2.045   2.426  14.579 -1.3372  2.9102  1.6490
 8697TIP3   OH247581   5.938   1.679  16.379 -0.2756  0.4355 -0.7084
 8697TIP3    H147582   5.895   1.645  16.301  0.0321 -1.1535 -0.2320
 8697TIP3    H247583   5.915   1.616  16.448 -0.4179  1.7103  0.4589
 8698TIP3   OH247584   5.707   4.592   1.723 -0.0719  0.2854 -0.6996
 8698TIP3    H147585   5.781   4.546   1.762  0.9241  1.2260 -1.4277
 8698TIP3    H247586   5.644   4.523   1.703  0.6581 -0.5473 -0.1989
 8699TIP3   OH247587   1.875   2.419  16.882 -0.3897 -0.5832  0.2000
 8699TIP3    H147588   1.931   2.465  16.944  1.9202 -1.5729 -1.0669
 8699TIP3    H247589   1.875   2.474  16.804 -1.2741 -0.5716  0.1908
 8700TIP3   OH247590   5.515   0.535   0.549  0.2524  0.3722 -0.6772
 8700TIP3    H147591   5.422   0.554   0.554 -0.0614 -1.2785  0.9629
 8700TIP3    H247592   5.557   0.620   0.537 -1.4358  1.1832 -0.9988
 8701TIP3   OH247593   2.958   0.834   2.791  0.4177  0.1714 -0.0697
 8701TIP3    H147594   2.948   0.788   2.708 -0.5729  0.5549 -0.1738
 8701TIP3    H247595   2.908   0.782   2.854 -0.4500  0.9017 -0.1253
 8702TIP3   OH247596   4.508   3.046  12.206 -0.2078 -0.4908 -0.2730
 8702TIP3    H147597   4.449   3.047  12.130 -1.4686  2.7761  0.6066
 8702TIP3    H247598   4.456   3.008  12.277 -1.1330  1.8081  0.3423
 8703TIP3   OH247599   4.426   5.550  16.514 -0.0966 -0.0267 -1.1001
 8703TIP3    H147600   4.370   5.480  16.546 -0.6610  0.8634 -0.0790
 8703TIP3    H247601   4.453   5.522  16.427 -0.9907 -1.1107 -1.0423
 8704TIP3   OH247602   4.482   3.159  13.556  0.0297  0.4644 -0.5219
 8704TIP3    H147603   4.476   3.139  13.649 -0.3547 -2.5752 -1.0965
 8704TIP3    H247604   4.393   3.145  13.523 -0.1249  2.6969 -1.1926
 8705TIP3   OH247605   6.757   5.691   2.076 -0.2343  0.4766  0.5898
 8705TIP3    H147606   6.827   5.717   2.136 -2.0279 -0.1335  3.0868
 8705TIP3    H247607   6.742   5.599   2.094 -0.3020  0.0290 -1.4618
 8706TIP3   OH247608   2.688   6.796   3.001 -0.0430  0.8680 -0.0290
 8706TIP3    H147609   2.630   6.732   3.041  2.1641 -0.8772  0.6027
 8706TIP3    H247610   2.653   6.881   3.029 -2.9293  0.0224 -0.7075
 8707TIP3   OH247611   2.845   5.910   4.102 -0.3149  0.2139  0.0468
 8707TIP3    H147612   2.870   5.993   4.060  1.0505 -1.0129 -1.7158
 8707TIP3    H247613   2.756   5.893   4.069 -0.5910  0.9457  0.3948
 8708TIP3   OH247614   0.626   4.398  11.399 -0.1994  0.7840  0.4561
 8708TIP3    H147615   0.716   4.380  11.373 -0.0435  0.8097  0.9738
 8708TIP3    H247616   0.576   4.391  11.318  0.4434  2.0480 -0.0707
 8709TIP3   OH247617   3.975   4.284   0.598  0.3571 -0.2033 -0.3066
 8709TIP3    H147618   3.942   4.286   0.688  0.6694 -0.2308 -0.1865
 8709TIP3    H247619   3.899   4.299   0.543  0.2414  0.2910 -0.0152
 8710TIP3   OH247620   1.160   4.338   2.404  1.0337  0.3494 -0.3156
 8710TIP3    H147621   1.148   4.431   2.383 -1.0881 -0.2460 -2.1912
 8710TIP3    H247622   1.079   4.314   2.449  2.3752 -0.2210  1.9533
 8711TIP3   OH247623   3.113   3.163   1.527 -0.0163 -0.3203 -0.8293
 8711TIP3    H147624   3.073   3.169   1.441  0.5696 -0.0402 -1.0811
 8711TIP3    H247625   3.042   3.185   1.588 -0.9758 -2.4102 -1.1005
 8712TIP3   OH247626   6.719   3.094   5.095 -0.1610  0.2476 -0.2073
 8712TIP3    H147627   6.741   3.169   5.040  0.9344  0.7941  0.9016
 8712TIP3    H247628   6.649   3.125   5.152 -0.5804  0.0133 -0.5899
 8713TIP3   OH247629   4.877   4.103   5.245 -0.8646 -0.3856 -0.0566
 8713TIP3    H147630   4.797   4.149   5.270 -0.9553  0.1208 -1.2222
 8713TIP3    H247631   4.904   4.144   5.163  1.1900  0.2023  0.8319
 8714TIP3   OH247632   3.667   0.387  12.598 -0.3494  0.2404  0.2635
 8714TIP3    H147633   3.620   0.313  12.559  0.5024  0.3325 -0.9886
 8714TIP3    H247634   3.736   0.346  12.649 -0.0667  0.1554 -0.1814
 8715TIP3   OH247635   1.553   4.397   3.594 -0.2584 -0.4508  0.5426
 8715TIP3    H147636   1.621   4.379   3.659 -0.0966  0.4285  0.6193
 8715TIP3    H247637   1.477   4.426   3.645 -0.8521 -1.8110  0.4936
 8716TIP3   OH247638   5.253   3.543   5.956 -0.2123 -0.3864 -0.4634
 8716TIP3    H147639   5.277   3.473   6.017 -0.5028 -0.4804 -0.4512
 8716TIP3    H247640   5.320   3.609   5.966  0.0010 -0.6143 -0.3867
 8717TIP3   OH247641   4.318   0.509  13.119  0.7607  0.8911 -0.1107
 8717TIP3    H147642   4.344   0.584  13.065  2.3328  1.0156  0.7453
 8717TIP3    H247643   4.337   0.537  13.209  1.4896 -0.5602  0.2159
 8718TIP3   OH247644   1.886   0.505  12.787  0.3739  0.3055 -0.1874
 8718TIP3    H147645   1.972   0.511  12.829 -0.0100 -1.3719  0.9584
 8718TIP3    H247646   1.827   0.554  12.844 -0.0093 -1.3624  0.9375
 8719TIP3   OH247647   6.588   6.250  11.368 -0.1784  0.1876 -0.0857
 8719TIP3    H147648   6.549   6.209  11.445  1.0436 -0.7670  0.0520
 8719TIP3    H247649   6.644   6.320  11.404 -0.1926  0.2371 -0.1584
 8720TIP3   OH247650   2.702   6.377  15.897  0.0452 -0.4285 -0.1557
 8720TIP3    H147651   2.737   6.308  15.841 -0.4571  0.0390 -1.0743
 8720TIP3    H247652   2.766   6.387  15.967  0.2043 -1.7032 -0.1093
 8721TIP3   OH247653   6.336   5.470   4.845 -0.7478  0.1015  0.0379
 8721TIP3    H147654   6.394   5.448   4.918 -0.0817  2.1131  0.1957
 8721TIP3    H247655   6.280   5.393   4.834  0.2450 -0.8958  1.5660
 8722TIP3   OH247656   3.541   0.560   0.658  0.0239 -0.3956  0.0379
 8722TIP3    H147657   3.516   0.650   0.642  1.0704 -0.0791  0.0698
 8722TIP3    H247658   3.481   0.507   0.605 -0.9054  0.2844  0.3926
 8723TIP3   OH247659   2.901   1.089   0.644  0.8844 -0.0106 -0.0969
 8723TIP3    H147660   2.965   1.081   0.715  1.3187 -0.3977 -0.5244
 8723TIP3    H247661   2.816   1.089   0.689  1.1603 -0.0389  0.4375
 8724TIP3   OH247662   5.252   5.178  13.973 -0.2019  0.0571 -0.2820
 8724TIP3    H147663   5.322   5.230  14.012 -0.4341 -0.7371  1.2881
 8724TIP3    H247664   5.171   5.219  14.004 -0.5684  1.6393 -2.9550
 8725TIP3   OH247665   5.187   5.778   2.641  0.3274  0.2506  0.1468
 8725TIP3    H147666   5.163   5.867   2.616 -0.1408  0.5857  1.6312
 8725TIP3    H247667   5.217   5.737   2.561 -3.0648  0.5406 -1.4656
 8726TIP3   OH247668   6.687   4.594  11.691  0.5443  0.4246 -0.0132
 8726TIP3    H147669   6.686   4.573  11.784  0.0737  2.1667  0.4135
 8726TIP3    H247670   6.694   4.510  11.647  1.9690 -0.3598  1.6118
 8727TIP3   OH247671   4.693   0.202  15.450  0.5536  0.5474  0.1838
 8727TIP3    H147672   4.680   0.286  15.406 -0.1413  0.6564  0.5825
 8727TIP3    H247673   4.743   0.149  15.388  0.6475  1.1194 -0.2288
 8728TIP3   OH247674   4.501   2.686  11.662  0.0601  0.0423 -0.0235
 8728TIP3    H147675   4.494   2.776  11.695  0.2243 -0.0926  0.3706
 8728TIP3    H247676   4.545   2.638  11.731  1.1593 -0.0589 -0.7771
 8729TIP3   OH247677   3.587   4.391   4.997  0.5690 -0.3670  0.4637
 8729TIP3    H147678   3.539   4.471   4.976  2.3552  0.3022 -1.3137
 8729TIP3    H247679   3.524   4.338   5.047 -1.2142  1.4051  0.2094
 8730TIP3   OH247680   0.737   4.745  11.737 -0.3264  0.2123  0.3537
 8730TIP3    H147681   0.705   4.792  11.815 -0.1238 -0.9956  1.1946
 8730TIP3    H247682   0.822   4.710  11.764  0.1492  0.5067 -0.7199
 8731TIP3   OH247683   2.595   2.960   1.707  0.0076  0.7659  0.0371
 8731TIP3    H147684   2.641   2.991   1.785  0.4859  0.5766 -0.1663
 8731TIP3    H247685   2.664   2.946   1.642 -0.4007  1.0985 -0.4828
 8732TIP3   OH247686   6.661   2.598  13.743  0.2136  0.0388 -0.2684
 8732TIP3    H147687   6.705   2.598  13.658 -1.2802 -0.4804 -1.0707
 8732TIP3    H247688   6.605   2.676  13.741  1.0442  0.6853  0.7337
 8733TIP3   OH247689   5.270   1.544  11.998  0.3198 -0.6423  1.0267
 8733TIP3    H147690   5.272   1.475  11.932  1.2877 -0.4308  0.8193
 8733TIP3    H247691   5.241   1.501  12.078  0.1540 -1.1150  0.7165
 8734TIP3   OH247692   0.184   1.243   0.028 -0.2726 -0.3379  0.6117
 8734TIP3    H147693   0.183   1.179   0.099  0.9569  0.0079  0.9593
 8734TIP3    H247694   0.264   1.224  -0.021  0.0494  0.8369  0.6493
 8735TIP3   OH247695   6.521   1.973  17.046  0.3404  0.0997  0.0685
 8735TIP3    H147696   6.607   2.014  17.039 -0.5417  1.7801 -2.3708
 8735TIP3    H247697   6.539   1.879  17.040  2.0381  0.3549  0.5074
 8736TIP3   OH247698   6.763   0.851  16.878  0.0249 -0.4035  0.3834
 8736TIP3    H147699   6.807   0.767  16.865  0.0674 -0.2262 -0.6912
 8736TIP3    H247700   6.815   0.895  16.946 -0.9109 -1.8647  2.1478
 8737TIP3   OH247701   5.655   2.869  15.332  0.1227  0.2726 -0.2170
 8737TIP3    H147702   5.691   2.946  15.376 -0.9716 -0.7165  2.6292
 8737TIP3    H247703   5.568   2.896  15.304  0.3374  0.5217 -0.6564
 8738TIP3   OH247704   4.891   6.475   0.412  0.4156 -0.3056 -0.1242
 8738TIP3    H147705   4.966   6.522   0.377  0.3110  0.1194  0.2175
 8738TIP3    H247706   4.859   6.423   0.338  1.0198 -0.4646 -0.2821
 8739TIP3   OH247707   6.259   4.800   2.837 -0.1307 -0.1385 -0.2698
 8739TIP3    H147708   6.330   4.822   2.898  0.7132  1.5453 -1.7599
 8739TIP3    H247709   6.266   4.706   2.825  1.5768 -0.0807 -0.0247
 8740TIP3   OH247710   3.481   0.429   2.398 -0.3045 -0.3976 -0.1542
 8740TIP3    H147711   3.474   0.456   2.307 -0.6888 -0.3951 -0.1285
 8740TIP3    H247712   3.516   0.341   2.395  1.8316  0.3999 -0.2012
 8741TIP3   OH247713   2.208   6.278   1.654 -0.5234  0.0870 -0.1764
 8741TIP3    H147714   2.237   6.207   1.596  1.3436 -0.0900  0.8870
 8741TIP3    H247715   2.258   6.264   1.734 -1.0053  1.9318  0.4787
 8742TIP3   OH247716   1.695   2.206   0.427 -0.3917 -0.7421 -0.1096
 8742TIP3    H147717   1.719   2.114   0.442  1.1090 -0.1045  1.9946
 8742TIP3    H247718   1.685   2.242   0.515 -3.4388  0.5731 -0.8886
 8743TIP3   OH247719   4.378   1.010  15.464  0.0260  0.5331 -0.1313
 8743TIP3    H147720   4.415   0.927  15.435  1.6594  1.4779 -0.8910
 8743TIP3    H247721   4.433   1.077  15.423 -2.9332  2.1070 -1.8999
 8744TIP3   OH247722   2.471   1.617   0.775 -0.2864  0.5777 -0.0566
 8744TIP3    H147723   2.485   1.615   0.680  1.7003 -1.4755  0.1913
 8744TIP3    H247724   2.410   1.544   0.791 -0.0211  0.4379  0.3098
 8745TIP3   OH247725   3.707   6.294  15.047 -0.1282  0.1035  0.5379
 8745TIP3    H147726   3.634   6.247  15.007  0.7167 -0.9437  0.1666
 8745TIP3    H247727   3.748   6.340  14.973 -0.6154  0.9843  0.8066
 8746TIP3   OH247728   2.628   0.210   3.161 -0.0049  0.4735 -0.7373
 8746TIP3    H147729   2.721   0.216   3.183 -0.0473  3.1759 -0.9214
 8746TIP3    H247730   2.583   0.207   3.245  0.2127  0.1334 -0.6335
 8747TIP3   OH247731   3.807   6.149   0.383 -0.0511 -0.0808 -0.4829
 8747TIP3    H147732   3.731   6.163   0.439 -0.7035 -0.8261 -1.1709
 8747TIP3    H247733   3.771   6.117   0.300  1.0429 -1.0260 -0.6199
 8748TIP3   OH247734   3.392   3.576  12.744  0.7227  0.5872 -0.7871
 8748TIP3    H147735   3.403   3.481  12.738  0.6649  0.5367 -0.1553
 8748TIP3    H247736   3.412   3.596  12.835 -1.3094  0.9175 -0.3767
 8749TIP3   OH247737   0.974   5.831  12.842 -0.6606  0.1628 -0.5041
 8749TIP3    H147738   0.958   5.738  12.830  0.4494 -0.0076 -0.7799
 8749TIP3    H247739   1.060   5.835  12.883 -1.3986  1.0081  1.0638
 8750TIP3   OH247740   0.344   0.169   0.615  0.5302  0.1044 -0.2245
 8750TIP3    H147741   0.274   0.113   0.581 -0.7582  1.2634  0.3684
 8750TIP3    H247742   0.425   0.123   0.596 -0.3973 -1.1907 -1.1402
 8751TIP3   OH247743   0.336   1.026   0.313 -0.1532 -0.4888 -0.4523
 8751TIP3    H147744   0.347   0.938   0.278  0.2540 -0.3265 -0.7281
 8751TIP3    H247745   0.318   1.012   0.406 -1.1355 -0.9135 -0.6903
 8752TIP3   OH247746   3.473   6.274   0.823  0.2852  0.6030  0.5127
 8752TIP3    H147747   3.567   6.280   0.836  0.5127 -0.1654 -0.6479
 8752TIP3    H247748   3.455   6.333   0.749 -0.0675  0.4019  0.4357
 8753TIP3   OH247749   5.166   1.039  13.266 -0.5437 -0.5883  0.0636
 8753TIP3    H147750   5.200   1.107  13.324 -0.1203 -1.8129  1.2792
 8753TIP3    H247751   5.236   1.024  13.203 -1.1511  1.0144 -1.0576
 8754TIP3   OH247752   1.833   3.711   2.293 -0.3602 -0.2744  0.3534
 8754TIP3    H147753   1.759   3.768   2.273 -0.7111 -1.4339 -1.9198
 8754TIP3    H247754   1.827   3.696   2.387 -2.4183  0.4696  0.3873
 8755TIP3   OH247755   1.566   6.371  14.512  0.6313  0.2259  0.3336
 8755TIP3    H147756   1.575   6.325  14.429 -2.7771 -1.8710  0.9156
 8755TIP3    H247757   1.624   6.325  14.572  1.9446  0.7617 -0.4930
 8756TIP3   OH247758   6.002   0.349   2.731  0.1675  0.2735 -0.3756
 8756TIP3    H147759   6.014   0.254   2.730  0.4382  0.2356 -3.5834
 8756TIP3    H247760   6.077   0.382   2.781 -0.2750 -1.1685  1.3474
 8757TIP3   OH247761   4.989   4.755   0.039 -0.4636  0.4281 -0.1238
 8757TIP3    H147762   4.967   4.679   0.093  1.0029 -0.8718 -1.2599
 8757TIP3    H247763   4.954   4.830   0.087  0.3750 -0.6941  2.3891
 8758TIP3   OH247764   0.842   3.167  13.039  0.2728 -0.0947  0.2353
 8758TIP3    H147765   0.907   3.178  13.109  0.3239  0.3246  0.1227
 8758TIP3    H247766   0.895   3.149  12.961  0.3537  1.7095 -0.1664
 8759TIP3   OH247767   2.492   3.757   1.829  0.4253 -0.2542  0.1967
 8759TIP3    H147768   2.547   3.680   1.844 -0.9384 -0.9913  1.7354
 8759TIP3    H247769   2.407   3.722   1.803 -0.0349  0.7547  0.2833
 8760TIP3   OH247770   4.002   3.604  12.944  0.1743 -0.0576  0.1768
 8760TIP3    H147771   3.959   3.606  12.859  0.5597 -0.8094 -0.0467
 8760TIP3    H247772   3.961   3.674  12.994 -1.2830 -0.7318 -0.0345
 8761TIP3   OH247773   0.076   0.900   5.819 -0.8772 -0.3241  0.0675
 8761TIP3    H147774  -0.020   0.895   5.819 -0.9733  0.9806  1.2173
 8761TIP3    H247775   0.101   0.887   5.910  0.0343 -0.4426 -0.1905
 8762TIP3   OH247776   6.751   1.222  17.031 -0.3137  0.8561  0.0501
 8762TIP3    H147777   6.823   1.200  16.973  0.0572  0.1275  0.7579
 8762TIP3    H247778   6.793   1.260  17.108 -0.8407  2.4846 -0.4251
 8763TIP3   OH247779   5.350   3.925  11.778 -0.6237 -0.2102 -0.1036
 8763TIP3    H147780   5.357   3.831  11.797  1.8948 -0.0725  0.0012
 8763TIP3    H247781   5.330   3.965  11.863  1.3085 -0.4176  0.4836
 8764TIP3   OH247782   5.142   4.165   2.908 -0.1226 -0.1363  0.2150
 8764TIP3    H147783   5.063   4.142   2.860 -1.2737  1.6964  1.1541
 8764TIP3    H247784   5.112   4.187   2.996  1.3911  0.7911  0.5468
 8765TIP3   OH247785   4.298   4.604  11.916 -0.4668  0.0910 -0.1799
 8765TIP3    H147786   4.216   4.604  11.965 -0.4009 -1.0849 -0.0447
 8765TIP3    H247787   4.293   4.682  11.861 -1.4566  0.3008  0.1850
 8766TIP3   OH247788   1.846   5.467   4.063  0.4997 -0.4634 -0.0240
 8766TIP3    H147789   1.771   5.428   4.108  0.2063  1.5286  1.3381
 8766TIP3    H247790   1.808   5.520   3.993  0.7533 -0.5977 -0.2705
 8767TIP3   OH247791   6.391   3.066   4.324  0.2197 -0.3963 -0.3576
 8767TIP3    H147792   6.338   3.091   4.248 -0.9206  2.7031  1.2827
 8767TIP3    H247793   6.468   3.124   4.319  0.1209 -0.1452  0.8082
 8768TIP3   OH247794   4.656   1.672  15.152  0.0153 -0.4310  0.3132
 8768TIP3    H147795   4.721   1.652  15.220  0.1051 -1.7797 -0.1283
 8768TIP3    H247796   4.703   1.725  15.088  0.6975 -1.3412  0.0294
 8769TIP3   OH247797   0.573   3.843   0.786 -0.8142  0.2553 -0.1452
 8769TIP3    H147798   0.590   3.759   0.743  2.1145  2.2413 -3.4602
 8769TIP3    H247799   0.631   3.843   0.862  1.8380  0.3408 -1.9833
 8770TIP3   OH247800   2.724   5.104   1.256 -0.2917  0.2472 -0.2336
 8770TIP3    H147801   2.695   5.029   1.308 -1.5218  1.4811  0.9507
 8770TIP3    H247802   2.675   5.178   1.292 -0.6844  1.2922 -2.7288
 8771TIP3   OH247803   2.089   3.880  16.811 -0.1715  0.2432  0.0962
 8771TIP3    H147804   2.061   3.928  16.888  1.3433  0.2941  0.6499
 8771TIP3    H247805   2.070   3.789  16.831 -2.0804  0.4661 -0.5256
 8772TIP3   OH247806   2.978   5.992   1.631  0.1912 -0.1053  0.4079
 8772TIP3    H147807   2.885   5.969   1.630 -0.1976  1.2119 -1.6729
 8772TIP3    H247808   2.985   6.060   1.697  0.0674 -1.4326  1.8449
 8773TIP3   OH247809   3.349   1.725   5.562  0.3468 -0.0898  0.2047
 8773TIP3    H147810   3.434   1.739   5.605  0.8878 -0.6646 -0.6409
 8773TIP3    H247811   3.332   1.631   5.572  0.4059 -0.2026 -0.6853
 8774TIP3   OH247812   5.732   4.813   1.878  0.0671  0.1113  0.3433
 8774TIP3    H147813   5.652   4.812   1.932 -0.6551  0.3756 -0.6928
 8774TIP3    H247814   5.722   4.738   1.819 -0.7004  1.5974 -1.5434
 8775TIP3   OH247815   4.665   4.917  16.365  0.5136  0.3742 -0.0018
 8775TIP3    H147816   4.646   5.010  16.361  0.0092  0.3152  0.7504
 8775TIP3    H247817   4.754   4.912  16.402  1.3962  0.6007 -1.9816
 8776TIP3   OH247818   1.565   1.437  11.215  0.4844  0.3913 -0.2463
 8776TIP3    H147819   1.555   1.528  11.242  0.0640  0.1023  0.6470
 8776TIP3    H247820   1.623   1.439  11.140  2.0259  1.2382  0.9135
 8777TIP3   OH247821   3.381   6.460  16.920  0.5087 -0.2203 -0.3251
 8777TIP3    H147822   3.288   6.438  16.924  0.4398  0.1644  0.4047
 8777TIP3    H247823   3.423   6.380  16.890 -0.0821 -0.3184 -0.9275
 8778TIP3   OH247824   2.405   0.464  16.093  0.5278  0.1710 -0.5061
 8778TIP3    H147825   2.445   0.482  16.008 -2.9204  1.7990 -1.9788
 8778TIP3    H247826   2.341   0.395  16.076  1.1835 -0.9291  1.2740
 8779TIP3   OH247827   3.716   4.562  14.178 -0.4060  0.3456  0.2811
 8779TIP3    H147828   3.695   4.645  14.135 -0.5004 -1.1388 -2.7925
 8779TIP3    H247829   3.644   4.504  14.156  0.8110 -1.2414  0.2895
 8780TIP3   OH247830   1.258   3.539   5.189 -0.2526 -0.3553 -0.0783
 8780TIP3    H147831   1.196   3.607   5.216 -2.0115 -2.6886  2.2693
 8780TIP3    H247832   1.288   3.500   5.271  0.4083 -2.6181 -1.3251
 8781TIP3   OH247833   6.720   5.676  10.353  0.5035  0.4880 -0.4746
 8781TIP3    H147834   6.666   5.737  10.303  0.8097 -0.3932 -1.9340
 8781TIP3    H247835   6.745   5.725  10.431 -0.8369  1.5554 -0.6712
 8782TIP3   OH247836   4.572   0.368  16.295  0.0264 -0.1958  0.2817
 8782TIP3    H147837   4.482   0.369  16.262 -0.2383 -1.0459  0.9630
 8782TIP3    H247838   4.604   0.280  16.276  0.7570  0.1338 -0.0495
 8783TIP3   OH247839   5.524   3.549  16.292 -0.1108  0.0584 -0.1291
 8783TIP3    H147840   5.546   3.634  16.254 -0.9268 -0.0612 -0.8911
 8783TIP3    H247841   5.532   3.487  16.219 -1.5250 -0.2006 -0.0764
 8784TIP3   OH247842   1.741   6.568  11.095  0.4259 -0.2579 -0.0677
 8784TIP3    H147843   1.759   6.631  11.025 -2.3006  1.8133  0.8564
 8784TIP3    H247844   1.810   6.583  11.159  0.6717  0.7874 -0.5505
 8785TIP3   OH247845   4.382   5.518   1.704 -0.0694  0.2349 -0.5675
 8785TIP3    H147846   4.289   5.537   1.718  0.4765  1.4439  2.1064
 8785TIP3    H247847   4.398   5.544   1.613 -2.2505  0.4025 -0.9592
 8786TIP3   OH247848   4.192   4.566   0.616 -0.2591  0.2658 -0.0745
 8786TIP3    H147849   4.132   4.609   0.555  1.2407  2.7581  0.0442
 8786TIP3    H247850   4.154   4.582   0.703  0.1251  1.1534 -0.0552
 8787TIP3   OH247851   6.784   0.656  15.750  0.0185  0.2828 -0.4799
 8787TIP3    H147852   6.737   0.591  15.698  0.3487 -0.3453 -0.0080
 8787TIP3    H247853   6.754   0.740  15.715 -1.8593 -0.0669  0.1464
 8788TIP3   OH247854   2.458   2.298   1.329 -0.5271  0.4305  0.2817
 8788TIP3    H147855   2.513   2.368   1.365 -2.2707  2.6751 -1.1539
 8788TIP3    H247856   2.395   2.343   1.273 -1.6039 -2.3515 -0.9363
 8789TIP3   OH247857   6.702   5.178  13.359  0.1364  0.1736  0.7881
 8789TIP3    H147858   6.774   5.169  13.421  0.2953 -0.3800  0.5241
 8789TIP3    H247859   6.678   5.088  13.336  0.2992  0.3729 -0.2115
 8790TIP3   OH247860   6.204   0.963  16.016  0.0542 -0.3689  0.2168
 8790TIP3    H147861   6.219   1.033  16.079 -0.3344  1.8294 -1.9969
 8790TIP3    H247862   6.289   0.919  16.008  0.3411 -0.0747  1.5241
 8791TIP3   OH247863   0.404   6.546   6.748  0.2996 -0.2718 -0.4812
 8791TIP3    H147864   0.430   6.473   6.804  1.1231 -0.4583 -1.0903
 8791TIP3    H247865   0.314   6.566   6.775  0.5973 -0.4969  0.7465
 8792TIP3   OH247866   5.700   1.250   6.405  0.1562 -0.3192  0.2121
 8792TIP3    H147867   5.651   1.223   6.483 -0.0633  0.4182  0.3325
 8792TIP3    H247868   5.715   1.169   6.357 -0.6109 -0.6367  0.5008
 8793TIP3   OH247869   2.286   3.901   2.309 -1.0396 -0.0585 -0.0125
 8793TIP3    H147870   2.326   3.833   2.255  2.1035  0.1867  1.7243
 8793TIP3    H247871   2.264   3.971   2.248  0.5166 -0.5832 -1.2426
 8794TIP3   OH247872   1.498   2.882  16.407  0.6655 -0.0485  0.3247
 8794TIP3    H147873   1.406   2.871  16.431  0.0508  0.6092 -1.5835
 8794TIP3    H247874   1.519   2.972  16.432  1.0373 -0.4436  1.4722
 8795TIP3   OH247875   4.327   1.384  14.388  0.1211  0.2000  0.1696
 8795TIP3    H147876   4.376   1.465  14.402 -1.5643  1.1152  1.2191
 8795TIP3    H247877   4.322   1.344  14.475  0.3606 -0.6985 -0.2219
 8796TIP3   OH247878   3.981   6.518   3.904 -0.3043  0.8098 -0.4854
 8796TIP3    H147879   3.914   6.509   3.836 -1.7557 -0.9105  1.0892
 8796TIP3    H247880   3.939   6.569   3.973  0.3739  0.6282  0.0741
 8797TIP3   OH247881   0.267   5.754   4.764 -0.3118 -0.2208  0.4209
 8797TIP3    H147882   0.340   5.714   4.716 -0.4145 -1.3407  1.1761
 8797TIP3    H247883   0.277   5.723   4.854 -0.9782  0.6651  0.8115
 8798TIP3   OH247884   1.597   5.581   2.442  0.2580  0.1361 -0.6884
 8798TIP3    H147885   1.682   5.608   2.408 -0.4760  3.2256 -0.4027
 8798TIP3    H247886   1.550   5.547   2.366  0.8366  0.9437 -1.4288
 8799TIP3   OH247887   4.617   6.070  11.269 -0.2777  0.4069  0.5395
 8799TIP3    H147888   4.598   5.987  11.224  0.3921  0.4537  0.1591
 8799TIP3    H247889   4.711   6.083  11.256 -0.1666  0.6585  1.5773
 8800TIP3   OH247890   2.943   0.768  13.040  0.1480 -0.2362  0.5775
 8800TIP3    H147891   2.974   0.838  13.097  0.5014 -0.9707  1.2985
 8800TIP3    H247892   2.987   0.690  13.072  1.3415 -0.4837 -1.4647
 8801TIP3   OH247893   1.203   3.552  14.738  0.9296 -0.1887  0.1241
 8801TIP3    H147894   1.268   3.603  14.691  1.2119 -1.5996 -1.0918
 8801TIP3    H247895   1.253   3.503  14.803  0.8123  0.1936  0.5066
 8802TIP3   OH247896   3.451   4.018  11.663  0.1120  0.5490 -0.1821
 8802TIP3    H147897   3.470   3.935  11.619 -0.2665  0.8802 -0.9943
 8802TIP3    H247898   3.359   4.011  11.688  0.7394 -0.3534  2.1994
 8803TIP3   OH247899   1.938   0.289  14.868 -0.6067  0.0538 -0.6064
 8803TIP3    H147900   1.890   0.217  14.910 -0.7831  0.6789  0.3161
 8803TIP3    H247901   1.976   0.251  14.790 -1.2882 -0.8641 -0.5066
 8804TIP3   OH247902   0.610   6.770   6.901  0.0264  0.4627  0.3697
 8804TIP3    H147903   0.693   6.753   6.857  0.2341  0.3414  0.7978
 8804TIP3    H247904   0.545   6.721   6.850 -0.5408  3.8566 -2.5691
 8805TIP3   OH247905   3.415   1.519  13.065  0.1457 -0.0418  0.0453
 8805TIP3    H147906   3.400   1.442  13.011 -0.3406  0.5585 -0.7139
 8805TIP3    H247907   3.356   1.508  13.140 -0.2217 -0.2194 -0.2631
 8806TIP3   OH247908   6.649   3.408  12.621  0.0221 -0.4244  0.2457
 8806TIP3    H147909   6.662   3.487  12.568  0.4341 -2.3356 -2.7330
 8806TIP3    H247910   6.571   3.426  12.672  0.2988  2.0261 -0.0752
 8807TIP3   OH247911   1.064   5.666   4.288  0.0284 -0.4385 -0.2729
 8807TIP3    H147912   1.122   5.741   4.280 -1.0193  0.2694 -1.6630
 8807TIP3    H247913   1.009   5.669   4.210 -1.1874 -1.6731  0.4708
 8808TIP3   OH247914   4.467   3.580   5.185  0.1604 -0.0435  0.1004
 8808TIP3    H147915   4.443   3.668   5.156 -2.8028 -1.1839 -1.4720
 8808TIP3    H247916   4.436   3.523   5.114 -0.9456 -2.5543  2.4229
 8809TIP3   OH247917   1.431   6.358   0.444  0.2237  0.0404  0.2628
 8809TIP3    H147918   1.405   6.285   0.500  0.4241  0.4312  0.8762
 8809TIP3    H247919   1.424   6.324   0.355 -1.6846 -0.1142  0.4264
 8810TIP3   OH247920   0.588   3.826  15.464 -0.7899 -0.6319  0.0955
 8810TIP3    H147921   0.592   3.887  15.390  1.0875 -2.0425 -1.0530
 8810TIP3    H247922   0.498   3.794  15.465 -0.5224 -1.6561 -2.5314
 8811TIP3   OH247923   4.262   4.573   2.758 -0.4289 -0.0637 -0.6263
 8811TIP3    H147924   4.179   4.527   2.748 -2.3438  2.6315  1.3354
 8811TIP3    H247925   4.250   4.655   2.711  0.5600  0.9609  0.8197
 8812TIP3   OH247926   6.054   1.201  15.801  0.2855  0.1839  0.3693
 8812TIP3    H147927   6.069   1.185  15.895  0.8852  0.3367  0.2989
 8812TIP3    H247928   6.136   1.238  15.769 -1.0163  3.5819  0.5342
 8813TIP3   OH247929   4.437   0.580   5.567  0.0983 -0.0539 -0.7211
 8813TIP3    H147930   4.432   0.668   5.604  0.4198 -0.4238  0.2309
 8813TIP3    H247931   4.353   0.539   5.590  0.0183 -0.0587 -1.0149
 8814TIP3   OH247932   4.948   6.726   3.902 -0.2618  0.1810  0.0987
 8814TIP3    H147933   4.924   6.636   3.882  0.8550 -0.6007  1.9579
 8814TIP3    H247934   4.865   6.773   3.906 -0.8846 -0.8298 -0.6105
 8815TIP3   OH247935   1.743   6.708  17.166 -0.0341 -0.2998 -0.8933
 8815TIP3    H147936   1.791   6.760  17.231 -0.3751  0.5251 -1.2795
 8815TIP3    H247937   1.810   6.677  17.105  0.0907  0.3000 -1.0674
 8816TIP3   OH247938   1.879   3.213   0.870  0.1158 -0.0986  0.2619
 8816TIP3    H147939   1.811   3.192   0.934 -1.0640 -0.9681 -1.1934
 8816TIP3    H247940   1.860   3.303   0.843 -0.0626 -0.1143  0.3363
 8817TIP3   OH247941   1.877   2.594   0.334  0.1144 -0.5217  0.0909
 8817TIP3    H147942   1.852   2.512   0.292  0.0318 -0.6096  0.3127
 8817TIP3    H247943   1.839   2.662   0.278 -0.4409 -0.6482  0.3094
 8818TIP3   OH247944   0.176   0.628   0.742 -0.4799  0.1045  0.6129
 8818TIP3    H147945   0.110   0.654   0.806 -0.6706  0.0030  0.4571
 8818TIP3    H247946   0.179   0.532   0.748 -3.3414 -0.3267 -2.2844
 8819TIP3   OH247947   0.333   6.450   3.670  0.0061 -0.2364  0.2546
 8819TIP3    H147948   0.425   6.445   3.696  0.1281  0.9613  0.0835
 8819TIP3    H247949   0.316   6.366   3.627  0.7175 -0.8933  1.2136
 8820TIP3   OH247950   4.701   6.581  16.908  0.9486  0.4268  0.1440
 8820TIP3    H147951   4.636   6.570  16.839  1.7729 -3.2113 -0.2172
 8820TIP3    H247952   4.770   6.634  16.867 -0.3118  1.6734 -0.4600
 8821TIP3   OH247953   0.298   2.490  16.385 -0.5771 -0.5480 -0.2140
 8821TIP3    H147954   0.387   2.487  16.420 -1.1082 -0.4356  1.2074
 8821TIP3    H247955   0.304   2.445  16.301  1.1747  0.9638 -0.9838
 8822TIP3   OH247956   5.612   2.128   1.645 -0.1215 -0.4119 -1.2617
 8822TIP3    H147957   5.638   2.096   1.732  0.1994 -0.2950 -1.3123
 8822TIP3    H247958   5.558   2.058   1.609 -1.9899  0.3869 -0.1551
 8823TIP3   OH247959   5.997   6.355  11.810  0.1765  0.0039 -0.6493
 8823TIP3    H147960   5.936   6.317  11.873 -0.3972  0.4178 -0.9455
 8823TIP3    H247961   5.942   6.378  11.734  0.7977 -0.1673 -1.1595
 8824TIP3   OH247962   0.823   6.360   2.916 -0.5726 -0.3975  0.6064
 8824TIP3    H147963   0.908   6.338   2.954 -0.3677  0.2274  0.5239
 8824TIP3    H247964   0.800   6.285   2.861  0.5765  0.0306 -0.4869
 8825TIP3   OH247965   2.470   0.961  15.156 -0.1547 -0.2753  0.2836
 8825TIP3    H147966   2.525   0.883  15.166  1.2205  0.6561  0.1960
 8825TIP3    H247967   2.510   1.026  15.213 -1.4514  0.3037  0.5651
 8826TIP3   OH247968   3.040   4.932   2.632 -0.0901 -0.0188  0.2941
 8826TIP3    H147969   3.077   4.992   2.697 -1.1689  2.0751 -0.9210
 8826TIP3    H247970   2.958   4.902   2.670 -0.1758  0.3192  0.3798
 8827TIP3   OH247971   1.209   1.518  13.730 -0.0209  0.0757 -1.0328
 8827TIP3    H147972   1.125   1.475  13.718 -0.4544  0.7378 -0.4393
 8827TIP3    H247973   1.269   1.447  13.754 -0.9433 -0.1163  0.9470
 8828TIP3   OH247974   5.542   0.382   2.328 -0.3498 -0.6917 -0.0775
 8828TIP3    H147975   5.502   0.298   2.307 -1.6539  0.3700 -2.3229
 8828TIP3    H247976   5.471   0.445   2.317  1.1744  0.9529 -1.0154
 8829TIP3   OH247977   3.046   3.167   2.291 -0.5630 -0.2423 -0.1166
 8829TIP3    H147978   3.101   3.127   2.223 -1.0610  0.4755 -0.9457
 8829TIP3    H247979   2.993   3.095   2.323  0.4446 -0.8292  0.3014
 8830TIP3   OH247980   3.509   1.191  14.426  0.4379  0.1479  0.0247
 8830TIP3    H147981   3.589   1.144  14.452  0.8102 -0.2857 -1.7367
 8830TIP3    H247982   3.535   1.241  14.348 -0.9110  0.3090 -0.3464
 8831TIP3   OH247983   3.136   6.519  13.447  0.4327  0.1161  0.3957
 8831TIP3    H147984   3.081   6.467  13.506  0.3611 -0.4887 -0.1931
 8831TIP3    H247985   3.154   6.460  13.373 -0.7202  1.3603 -0.9229
 8832TIP3   OH247986   2.160   4.962  10.705  0.6381 -0.0837  0.2275
 8832TIP3    H147987   2.202   4.888  10.661  0.5467 -0.1904  0.3187
 8832TIP3    H247988   2.220   5.035  10.690  1.4902 -0.5063  1.4252
 8833TIP3   OH247989   6.125   1.020   1.134 -0.0409 -0.3479 -0.0749
 8833TIP3    H147990   6.124   1.112   1.111  0.5399  0.2777  2.1712
 8833TIP3    H247991   6.058   0.980   1.079 -1.1159  1.6279 -0.2581
 8834TIP3   OH247992   3.292   2.147   5.499  0.2327 -1.0101  0.7634
 8834TIP3    H147993   3.294   2.242   5.494 -0.7845 -1.0432 -0.9992
 8834TIP3    H247994   3.378   2.119   5.467  0.4318 -0.7058  1.0252
 8835TIP3   OH247995   0.803   2.238  11.086 -0.6854 -0.0315  0.5002
 8835TIP3    H147996   0.794   2.260  11.178  1.2466 -0.2589  0.7823
 8835TIP3    H247997   0.882   2.285  11.058  0.7933 -2.7097 -0.1006
 8836TIP3   OH247998   1.211   4.258  11.237 -0.1179  0.1409 -0.0593
 8836TIP3    H147999   1.208   4.291  11.327  0.1976  0.2816 -0.0985
 8836TIP3    H248000   1.214   4.163  11.247 -0.5917  0.1405  0.0657
 8837TIP3   OH248001   6.549   2.030   0.540  0.0889  0.2889  0.1870
 8837TIP3    H148002   6.625   1.987   0.500  0.5224  0.6521  0.5994
 8837TIP3    H248003   6.575   2.043   0.631 -0.2917  0.8334  0.2181
 8838TIP3   OH248004   6.147   3.009   6.284  0.6088 -0.6000  0.0238
 8838TIP3    H148005   6.092   2.942   6.325 -0.1472 -0.3867 -0.6380
 8838TIP3    H248006   6.126   3.005   6.191 -0.0661  1.1168  0.0707
 8839TIP3   OH248007   3.176   0.254   3.886 -0.1104 -0.8001 -0.6095
 8839TIP3    H148008   3.218   0.295   3.811 -1.0491  1.7447  0.1477
 8839TIP3    H248009   3.247   0.236   3.947  0.2277  1.4315 -0.2526
 8840TIP3   OH248010   1.210   2.924   1.680 -0.5308 -0.3772 -0.3041
 8840TIP3    H148011   1.279   2.899   1.741 -0.2315  0.5380 -0.2447
 8840TIP3    H248012   1.257   2.952   1.601 -0.8943 -1.0791 -0.7732
 8841TIP3   OH248013   5.187   4.175  14.694 -0.3831 -0.3397  0.1725
 8841TIP3    H148014   5.169   4.268  14.676  2.4532  0.1081 -0.8622
 8841TIP3    H248015   5.186   4.134  14.607 -1.7471 -1.3570  0.6405
 8842TIP3   OH248016   5.922   3.291  14.745  0.2602 -0.3044 -0.5587
 8842TIP3    H148017   5.953   3.339  14.669  2.5545 -0.3638  0.2553
 8842TIP3    H248018   5.888   3.359  14.804  1.6043  0.1594 -0.2693
 8843TIP3   OH248019   5.916   1.480  14.382 -0.5393  0.3551 -0.0252
 8843TIP3    H148020   5.983   1.541  14.414  1.3602 -1.0577 -1.0997
 8843TIP3    H248021   5.924   1.403  14.438 -0.2777 -0.3740 -1.0321
 8844TIP3   OH248022   3.856   4.691   3.954 -0.1859  0.1218  0.0873
 8844TIP3    H148023   3.888   4.746   4.025 -2.1582  2.7998 -0.9242
 8844TIP3    H248024   3.769   4.663   3.983  0.2710 -1.4481  0.0172
 8845TIP3   OH248025   4.127   5.146  12.027 -0.0788  0.3137 -0.4752
 8845TIP3    H148026   4.031   5.151  12.035 -0.0287 -0.9153  1.8960
 8845TIP3    H248027   4.159   5.214  12.087  0.5879  1.3634 -1.9629
 8846TIP3   OH248028   4.837   0.372   1.899  0.3098 -0.7913  0.4595
 8846TIP3    H148029   4.791   0.391   1.817 -0.6771 -0.4287  1.0642
 8846TIP3    H248030   4.774   0.321   1.950  0.3150  0.2411  1.5580
 8847TIP3   OH248031   5.072   1.142   2.223 -0.2036  0.1067  0.1854
 8847TIP3    H148032   5.014   1.116   2.152  1.4746  1.2852 -1.7219
 8847TIP3    H248033   5.141   1.075   2.222 -0.7284 -0.4952  1.5020
 8848TIP3   OH248034   4.345   4.327   2.880  0.5094 -0.4961 -0.1874
 8848TIP3    H148035   4.314   4.415   2.860  0.8055 -0.2801  0.2934
 8848TIP3    H248036   4.305   4.306   2.964  0.8292 -0.6281 -0.0677
 8849TIP3   OH248037   2.981   1.796  11.552  0.1304 -0.2772  0.3570
 8849TIP3    H148038   2.920   1.764  11.619 -0.9104  1.5679  0.3676
 8849TIP3    H248039   3.025   1.870  11.594 -0.1475  0.5715 -0.8149
 8850TIP3   OH248040   0.778   2.025  15.180 -0.1627  0.2657 -0.2662
 8850TIP3    H148041   0.852   1.979  15.219 -0.2762  0.0540 -0.2953
 8850TIP3    H248042   0.713   2.030  15.250 -0.2475  0.1591 -0.3357
 8851TIP3   OH248043   3.641   4.973   1.094 -0.3154 -0.3398  0.1653
 8851TIP3    H148044   3.686   5.026   1.159 -0.2169  1.0256 -0.9695
 8851TIP3    H248045   3.603   5.036   1.033 -4.5201 -1.3713  1.4408
 8852TIP3   OH248046   0.308   3.997   6.359 -0.1269 -0.5354 -0.5270
 8852TIP3    H148047   0.373   3.933   6.390  1.6470  0.8560 -1.1945
 8852TIP3    H248048   0.292   3.972   6.268  0.0749 -0.4289 -0.5934
 8853TIP3   OH248049   0.682   4.703   2.654  0.2603 -0.6481 -0.0442
 8853TIP3    H148050   0.769   4.677   2.623  0.4256 -0.8782  0.5931
 8853TIP3    H248051   0.669   4.653   2.735  0.2772  0.7064  0.8388
 8854TIP3   OH248052   5.470   5.058  17.281  0.1822 -0.1250  0.1811
 8854TIP3    H148053   5.554   5.045  17.238  0.9534  0.8792  1.3285
 8854TIP3    H248054   5.492   5.089  17.369 -1.4034  2.7079 -0.3113
 8855TIP3   OH248055   0.234   3.280  11.509  0.5075 -0.0816 -0.0823
 8855TIP3    H148056   0.226   3.190  11.542  2.5851 -0.2135  0.1865
 8855TIP3    H248057   0.327   3.301  11.519  0.0499  2.1621 -0.0051
 8856TIP3   OH248058   3.271   4.748  14.795 -0.8433  0.6440 -0.0989
 8856TIP3    H148059   3.267   4.843  14.788  0.8451  0.7533  0.0895
 8856TIP3    H248060   3.264   4.718  14.704 -0.1792  1.0170 -0.2828
 8857TIP3   OH248061   0.157   5.345   1.767  0.4269 -0.3649  0.5843
 8857TIP3    H148062   0.064   5.362   1.754  0.4103 -0.1033  1.0273
 8857TIP3    H248063   0.194   5.348   1.679 -0.4354 -3.4108  0.0101
 8858TIP3   OH248064   6.597   6.031  13.942 -0.1386 -0.0113  0.2165
 8858TIP3    H148065   6.691   6.050  13.939 -0.5178  1.9509 -0.5426
 8858TIP3    H248066   6.586   5.958  13.881  0.7888  0.2160 -0.2420
 8859TIP3   OH248067   0.094   2.454   1.845  0.1372  0.2690  0.3830
 8859TIP3    H148068   0.167   2.404   1.883  0.1275 -0.1405 -0.1236
 8859TIP3    H248069   0.016   2.406   1.870  0.1981 -0.7505 -1.1995
 8860TIP3   OH248070   0.010   3.936  17.044 -0.2248 -0.1552 -0.5158
 8860TIP3    H148071   0.032   3.891  17.125  0.9349  1.5945  0.1999
 8860TIP3    H248072   0.010   3.868  16.977 -1.2137 -1.6397  0.9307
 8861TIP3   OH248073   5.258   4.226  13.948 -0.1972 -0.6519  0.3711
 8861TIP3    H148074   5.337   4.258  13.905 -0.8299 -0.6151 -0.7941
 8861TIP3    H248075   5.224   4.159  13.889 -2.6649  1.3889 -0.7227
 8862TIP3   OH248076   2.931   6.785   5.628  0.0348 -0.1038  0.3292
 8862TIP3    H148077   2.930   6.836   5.547  0.9852 -0.1689  0.2656
 8862TIP3    H248078   2.886   6.841   5.691  0.5036  0.5490  0.0993
 8863TIP3   OH248079   4.384   6.619   2.348  0.0463  0.3098  0.2198
 8863TIP3    H148080   4.426   6.681   2.407  1.3043 -0.4866  0.1723
 8863TIP3    H248081   4.378   6.538   2.398 -0.0823 -0.0009 -0.2933
 8864TIP3   OH248082   3.483   0.230   6.713 -0.2137 -0.6812  0.3856
 8864TIP3    H148083   3.441   0.147   6.736 -1.4886 -0.8514 -2.1657
 8864TIP3    H248084   3.576   0.209   6.703 -0.1537 -1.2641  1.9180
 8865TIP3   OH248085   2.405   3.919   4.791 -0.0098 -0.1845 -0.2212
 8865TIP3    H148086   2.312   3.911   4.814  0.0913 -2.8275 -0.4383
 8865TIP3    H248087   2.441   3.832   4.807  2.7433  1.0602  1.0158
 8866TIP3   OH248088   4.690   5.508   3.389  0.4233  0.3709  0.0574
 8866TIP3    H148089   4.599   5.478   3.390  0.3900  0.3227 -1.8097
 8866TIP3    H248090   4.685   5.598   3.421 -0.4245  0.6998 -0.9501
 8867TIP3   OH248091   4.869   5.172  15.784 -0.1248 -0.0618 -0.0074
 8867TIP3    H148092   4.896   5.188  15.693 -2.6969 -0.0728 -0.8673
 8867TIP3    H248093   4.776   5.154  15.778 -0.2952 -0.4557  2.6381
 8868TIP3   OH248094   3.204   1.147  11.928 -0.2182 -0.1743  0.7302
 8868TIP3    H148095   3.252   1.066  11.910 -0.4761 -0.0760 -0.5377
 8868TIP3    H248096   3.148   1.159  11.851 -1.4834  0.2825  1.6833
 8869TIP3   OH248097   2.096   3.445   4.732  0.5871  0.2158 -0.0529
 8869TIP3    H148098   2.014   3.496   4.726 -0.0543 -0.9618 -2.0339
 8869TIP3    H248099   2.162   3.510   4.754 -0.3457  1.8141 -1.6908
 8870TIP3   OH248100   4.347   4.296  17.350 -0.1790 -0.7172  0.0482
 8870TIP3    H148101   4.438   4.307  17.378 -0.2825  0.2392  0.0549
 8870TIP3    H248102   4.336   4.201  17.339  1.2391 -0.7598 -1.3425
 8871TIP3   OH248103   5.994   4.479   4.575  0.5129 -0.2217  0.0315
 8871TIP3    H148104   5.929   4.548   4.575  0.8742  0.2162 -2.2055
 8871TIP3    H248105   5.955   4.409   4.523  0.8538 -0.9645  0.7617
 8872TIP3   OH248106   2.960   0.772   2.011  0.4323 -0.3909 -0.2897
 8872TIP3    H148107   2.915   0.856   2.020  0.6507 -0.1272 -1.5398
 8872TIP3    H248108   3.024   0.787   1.941  2.4727 -0.7533  1.3947
 8873TIP3   OH248109   4.019   2.262  11.637 -0.4271 -0.9362  0.1792
 8873TIP3    H148110   4.037   2.190  11.577 -1.1043  1.0226 -2.5827
 8873TIP3    H248111   3.990   2.334  11.580 -0.4561  1.3118  2.8219
 8874TIP3   OH248112   5.225   1.069  14.222  0.3275  0.5857 -0.2543
 8874TIP3    H148113   5.170   1.146  14.217  1.0134  1.0870 -0.2244
 8874TIP3    H248114   5.251   1.063  14.314 -1.5475 -1.0059  0.2399
 8875TIP3   OH248115   1.333   3.450  15.787  0.1194  0.0183  0.2948
 8875TIP3    H148116   1.284   3.368  15.799  1.6538 -0.7657  1.5067
 8875TIP3    H248117   1.288   3.513  15.844 -1.0704  0.0667 -0.6434
 8876TIP3   OH248118   6.326   2.819  10.472 -1.0794 -0.1445  0.2582
 8876TIP3    H148119   6.372   2.735  10.470  0.8198  0.8555 -0.1218
 8876TIP3    H248120   6.251   2.804  10.529 -0.5943 -1.9980  0.4673
 8877TIP3   OH248121   3.489   1.908  16.110 -0.4737 -0.1859  0.3961
 8877TIP3    H148122   3.532   1.870  16.034  0.6221  1.4442  0.1505
 8877TIP3    H248123   3.534   1.869  16.185 -0.6550 -0.8074  0.1796
 8878TIP3   OH248124   5.438   1.542   2.348  0.0062  0.1277 -0.1826
 8878TIP3    H148125   5.360   1.563   2.399 -0.1340 -1.0086  0.0857
 8878TIP3    H248126   5.510   1.553   2.409 -0.2073 -1.8209  0.4840
 8879TIP3   OH248127   4.994   5.671  12.176  0.2265 -0.2453 -0.3305
 8879TIP3    H148128   5.007   5.718  12.259 -1.2763  0.4080 -0.4156
 8879TIP3    H248129   5.079   5.671  12.134  1.1266 -0.9604  1.3928
 8880TIP3   OH248130   0.971   0.554   6.001  0.2845 -0.1077 -0.0942
 8880TIP3    H148131   0.877   0.565   5.984  0.1864 -0.9956 -0.1333
 8880TIP3    H248132   0.996   0.635   6.047 -0.7481 -0.3506  0.9540
 8881TIP3   OH248133   6.162   3.117   2.493  0.0700 -0.1341 -0.0248
 8881TIP3    H148134   6.201   3.147   2.411  0.4083  1.0976  0.5572
 8881TIP3    H248135   6.232   3.070   2.537 -0.5342 -2.1143 -1.0520
 8882TIP3   OH248136   2.230   6.400  11.214  0.0479  0.1541 -0.5557
 8882TIP3    H148137   2.177   6.468  11.173  1.9822  1.2368 -1.3978
 8882TIP3    H248138   2.268   6.442  11.291  0.5356 -0.2785 -0.5554
 8883TIP3   OH248139   5.391   4.352   4.206  0.0684  0.0942  0.2205
 8883TIP3    H148140   5.350   4.342   4.120 -0.6616  0.4470  0.5156
 8883TIP3    H248141   5.352   4.432   4.242 -0.6591 -0.7591  1.4234
 8884TIP3   OH248142   5.374   5.681  16.135 -0.2168  0.3116  0.2004
 8884TIP3    H148143   5.386   5.599  16.182 -0.0275 -0.0019 -0.3744
 8884TIP3    H248144   5.325   5.737  16.195 -0.8843 -0.4347  0.3715
 8885TIP3   OH248145   5.638   1.296  16.238 -0.2646  0.5704  0.1371
 8885TIP3    H148146   5.635   1.321  16.331  0.7308  0.9592  0.0772
 8885TIP3    H248147   5.563   1.341  16.199  0.3889  1.9461  0.3952
 8886TIP3   OH248148   4.231   1.357  11.447 -0.3016  1.0181 -0.0231
 8886TIP3    H148149   4.152   1.318  11.486  0.1085  1.1816  1.0167
 8886TIP3    H248150   4.200   1.438  11.407 -0.8415  0.5603 -0.5500
 8887TIP3   OH248151   0.372   5.628  16.456 -0.2396  0.1506 -0.1589
 8887TIP3    H148152   0.459   5.612  16.421  0.1747  2.8177 -0.5952
 8887TIP3    H248153   0.340   5.704  16.407 -1.6869  0.9162  1.8057
 8888TIP3   OH248154   3.831   2.116  17.135 -0.0822  0.3572 -0.2429
 8888TIP3    H148155   3.848   2.022  17.125  0.5327  0.4867 -0.4256
 8888TIP3    H248156   3.918   2.156  17.140 -0.3398  0.8331  0.6664
 8889TIP3   OH248157   0.981   1.765  16.315  0.6777  0.1594  0.2451
 8889TIP3    H148158   0.906   1.769  16.375  0.9779  0.2799  0.6152
 8889TIP3    H248159   1.047   1.717  16.363  0.4521 -0.9368 -0.5173
 8890TIP3   OH248160   0.211   3.225   3.313  0.2185  0.1998 -0.1895
 8890TIP3    H148161   0.228   3.289   3.382  1.9878  0.0145 -0.3840
 8890TIP3    H248162   0.126   3.249   3.278  1.4279  3.4374 -1.2789
 8891TIP3   OH248163   4.022   2.295  17.381 -0.1265 -0.1087  0.1716
 8891TIP3    H148164   4.039   2.341  17.463 -0.9672 -0.1815  0.3964
 8891TIP3    H248165   3.978   2.214  17.407  0.4985 -0.6044 -0.2864
 8892TIP3   OH248166   3.609   5.327   1.391  0.0224  0.4608  0.2738
 8892TIP3    H148167   3.685   5.352   1.338  0.9200 -2.6643 -0.0632
 8892TIP3    H248168   3.539   5.312   1.327 -0.1023  0.6624  0.3601
 8893TIP3   OH248169   5.190   5.980  12.846  0.2282 -0.2440  0.1132
 8893TIP3    H148170   5.257   6.030  12.799 -1.5623  2.2932  0.0611
 8893TIP3    H248171   5.229   5.962  12.931  1.2089  0.6621 -0.1278
 8894TIP3   OH248172   1.279   2.066  15.467 -0.5329 -0.1747 -0.6501
 8894TIP3    H148173   1.212   2.054  15.534 -0.7200  0.8129 -0.6453
 8894TIP3    H248174   1.340   1.993  15.480  0.0856  0.6409  1.3535
 8895TIP3   OH248175   6.299   0.894  16.532  0.1316 -0.1982  0.4266
 8895TIP3    H148176   6.375   0.947  16.556  0.2043 -0.9418  1.9268
 8895TIP3    H248177   6.237   0.957  16.495  1.3659  0.4499 -0.6476
 8896TIP3   OH248178   4.722   3.024   2.572 -0.1652 -0.3668 -0.1967
 8896TIP3    H148179   4.743   2.931   2.567 -0.4987 -0.3889 -1.4630
 8896TIP3    H248180   4.662   3.039   2.499  0.5400  1.0257 -0.5076
 8897TIP3   OH248181   1.100   1.878   0.137 -0.4351  0.3665  0.6464
 8897TIP3    H148182   1.071   1.930   0.062  1.2105  0.3972 -0.0180
 8897TIP3    H248183   1.173   1.928   0.174  1.3163 -1.4579 -0.1111
 8898TIP3   OH248184   1.801   0.344   4.533  0.0927 -0.1925  0.0316
 8898TIP3    H148185   1.866   0.409   4.560 -0.1419  0.6101 -1.3117
 8898TIP3    H248186   1.737   0.392   4.482 -0.7042 -1.2806 -0.0340
 8899TIP3   OH248187   4.710   0.235  14.156 -0.0442  0.3560 -0.0934
 8899TIP3    H148188   4.643   0.269  14.215  0.5994 -0.2476  1.0147
 8899TIP3    H248189   4.775   0.304  14.150 -0.0523  0.3725  0.0097
 8900TIP3   OH248190   1.041   2.723  15.807 -0.0795 -0.5710 -0.3109
 8900TIP3    H148191   1.062   2.648  15.862  0.6765 -0.8752 -0.9836
 8900TIP3    H248192   1.122   2.775  15.805 -0.2621 -0.2920 -0.6925
 8901TIP3   OH248193   6.647   5.963   2.089  0.3135 -0.1265 -0.3437
 8901TIP3    H148194   6.561   5.959   2.048  1.0745  0.0667 -2.0406
 8901TIP3    H248195   6.680   5.873   2.083  0.3016 -0.1679  0.1673
 8902TIP3   OH248196   3.766   1.130  16.359 -0.0750 -0.4662  0.2406
 8902TIP3    H148197   3.786   1.223  16.363 -0.0837 -0.4126 -0.6642
 8902TIP3    H248198   3.670   1.126  16.358 -0.0998 -0.5577  1.4378
 8903TIP3   OH248199   5.365   5.639  14.396  0.2902 -0.0010 -0.1993
 8903TIP3    H148200   5.274   5.627  14.370  0.0255  1.1570  0.1220
 8903TIP3    H248201   5.378   5.578  14.468 -0.3742  0.1436  0.0495
 8904TIP3   OH248202   5.832   6.382   5.478  0.0794 -0.1870 -0.1920
 8904TIP3    H148203   5.770   6.310   5.488  0.7795 -0.6096  1.4079
 8904TIP3    H248204   5.783   6.460   5.504 -0.7854  0.0405 -2.2496
 8905TIP3   OH248205   2.551   0.731   6.197 -0.4075 -0.6772 -0.8395
 8905TIP3    H148206   2.479   0.669   6.189  0.0992 -1.2091 -1.3643
 8905TIP3    H248207   2.510   0.811   6.231 -1.3392 -0.7995 -1.6382
 8906TIP3   OH248208   2.190   3.648  14.314  0.0702  0.3943  0.3928
 8906TIP3    H148209   2.144   3.630  14.232 -0.8034 -0.4312  1.0353
 8906TIP3    H248210   2.133   3.612  14.382  1.1436  0.3628  1.3099
 8907TIP3   OH248211   0.478   4.465   5.445 -0.5035 -1.0181 -0.7213
 8907TIP3    H148212   0.525   4.382   5.448 -0.4822 -0.9883  0.2786
 8907TIP3    H248213   0.473   4.487   5.352  2.0367 -0.6923 -0.8345
 8908TIP3   OH248214   4.876   1.502  13.362  0.2830  0.0251 -0.5287
 8908TIP3    H148215   4.885   1.513  13.457 -1.3119 -0.2598 -0.3049
 8908TIP3    H248216   4.955   1.541  13.325  2.1936 -2.1056  1.0301
 8909TIP3   OH248217   4.783   0.179   2.433 -0.0735 -0.0129 -0.0251
 8909TIP3    H148218   4.834   0.132   2.499 -0.2483  0.1440  0.2290
 8909TIP3    H248219   4.732   0.111   2.389 -0.4286 -0.0482  0.4344
 8910TIP3   OH248220   4.680   1.799  16.989  0.2779  0.4572 -0.0314
 8910TIP3    H148221   4.647   1.744  16.919  2.2100  0.9414 -1.3785
 8910TIP3    H248222   4.723   1.872  16.945  0.7788  1.2473  1.6647
 8911TIP3   OH248223   3.196   5.036  13.274 -0.4556 -0.4836 -0.2057
 8911TIP3    H148224   3.267   4.971  13.270 -0.8056 -0.9069  0.4528
 8911TIP3    H248225   3.151   5.026  13.190 -2.4191 -3.2844  1.0404
 8912TIP3   OH248226   1.703   5.540   2.831  0.3890  0.1987  0.1884
 8912TIP3    H148227   1.686   5.601   2.760  1.3620  0.7207  0.3909
 8912TIP3    H248228   1.620   5.532   2.877 -0.7076 -1.3224 -1.8719
 8913TIP3   OH248229   2.729   3.900   5.607  0.8448  0.0837  0.0146
 8913TIP3    H148230   2.765   3.931   5.690  0.8883 -0.3322  0.1550
 8913TIP3    H248231   2.702   3.979   5.561  2.5445  0.4866 -0.3801
 8914TIP3   OH248232   5.556   2.634  11.518 -0.2171 -0.6417  0.2479
 8914TIP3    H148233   5.504   2.644  11.438 -0.1952 -0.0824  0.3024
 8914TIP3    H248234   5.608   2.714  11.523 -0.1249 -0.7318  0.7577
 8915TIP3   OH248235   0.850   4.999   2.518 -0.1357  0.7989  0.1858
 8915TIP3    H148236   0.794   4.956   2.584  2.1540 -1.0551  1.0376
 8915TIP3    H248237   0.937   4.964   2.534  0.6702  0.8326 -3.4274
 8916TIP3   OH248238   3.353   0.587  15.671  0.5782 -0.1398  0.0784
 8916TIP3    H148239   3.332   0.495  15.689 -0.9446  0.4401  1.4696
 8916TIP3    H248240   3.420   0.609  15.736  1.7099 -0.5133 -0.9212
 8917TIP3   OH248241   3.895   5.596  17.357  0.1093 -0.0173 -0.0390
 8917TIP3    H148242   3.968   5.538  17.336 -2.5774 -3.3411 -1.0081
 8917TIP3    H248243   3.857   5.620  17.273 -1.8268 -1.1206  0.4514
 8918TIP3   OH248244   0.767   5.139  15.978  0.2225 -0.3380 -0.4426
 8918TIP3    H148245   0.763   5.077  15.905  0.8333  0.8909 -1.5786
 8918TIP3    H248246   0.838   5.199  15.954  1.5122 -0.7923  1.9224
 8919TIP3   OH248247   3.647   0.742   3.784 -0.5948  0.4140  0.0856
 8919TIP3    H148248   3.668   0.679   3.852 -3.8977 -0.8124  0.1509
 8919TIP3    H248249   3.608   0.816   3.831 -0.1616  0.8702 -0.2635
 8920TIP3   OH248250   3.094   3.274   1.850  0.4559  0.5040 -0.1264
 8920TIP3    H148251   3.176   3.240   1.887  0.2083 -0.6686 -0.6268
 8920TIP3    H248252   3.033   3.275   1.924  0.1624 -1.1864 -0.3114
 8921TIP3   OH248253   6.070   2.548  13.404 -0.0159  0.2190  0.0389
 8921TIP3    H148254   6.077   2.496  13.484 -0.5477 -2.0525 -1.2898
 8921TIP3    H248255   6.150   2.526  13.355  1.7293  3.6871  0.9674
 8922TIP3   OH248256   4.539   3.181   1.414 -0.0728  0.0556 -0.5810
 8922TIP3    H148257   4.590   3.254   1.450 -0.0157  0.1554 -0.8620
 8922TIP3    H248258   4.535   3.198   1.320  3.1157 -2.1884 -1.2895
 8923TIP3   OH248259   3.653   0.750  13.131  0.4946  0.3201 -0.0792
 8923TIP3    H148260   3.632   0.747  13.224  0.4043  1.0730 -0.0712
 8923TIP3    H248261   3.748   0.764  13.128  1.0618 -2.7862 -0.1164
 8924TIP3   OH248262   2.051   3.751   4.603 -0.4671  0.2475 -0.1270
 8924TIP3    H148263   2.090   3.760   4.516 -1.5434 -0.2572 -0.6799
 8924TIP3    H248264   1.967   3.708   4.588 -0.0690 -1.1265  1.3109
 8925TIP3   OH248265   3.623   5.340   4.827  0.0398  0.0036  0.1588
 8925TIP3    H148266   3.542   5.365   4.784  0.8706 -0.6133 -1.9102
 8925TIP3    H248267   3.687   5.405   4.797  0.5829 -0.2679  0.7101
 8926TIP3   OH248268   1.976   0.841  17.367 -0.5110 -0.2968 -0.0221
 8926TIP3    H148269   2.054   0.894  17.381 -1.1707  0.6356  0.2313
 8926TIP3    H248270   1.926   0.889  17.302 -1.7272  0.0923  1.1452
 8927TIP3   OH248271   2.611   0.466  11.223  0.4346  0.2022  0.1397
 8927TIP3    H148272   2.591   0.486  11.314  1.0022  0.2178  0.2623
 8927TIP3    H248273   2.544   0.402  11.197 -0.1137  0.6802  0.3698
 8928TIP3   OH248274   4.646   0.289  15.844  0.5488  0.4073  0.1719
 8928TIP3    H148275   4.635   0.219  15.779 -2.3833  0.2914  0.6563
 8928TIP3    H248276   4.596   0.363  15.807 -2.2184 -0.0241  2.6629
 8929TIP3   OH248277   5.501   0.522  11.179 -0.0843  0.6385  0.0156
 8929TIP3    H148278   5.560   0.487  11.112  1.2062  1.5348  0.6523
 8929TIP3    H248279   5.555   0.582  11.230 -1.6640  1.8182  0.3645
 8930TIP3   OH248280   2.510   1.255   4.754 -0.1248 -0.2175 -0.0032
 8930TIP3    H148281   2.543   1.344   4.745 -1.0663  0.2733  1.0949
 8930TIP3    H248282   2.557   1.219   4.829 -0.8971 -0.0707  0.5637
 8931TIP3   OH248283   4.573   6.432  14.876 -0.9883 -0.0137  0.8288
 8931TIP3    H148284   4.482   6.444  14.849 -0.5576 -0.5468 -0.9778
 8931TIP3    H248285   4.623   6.491  14.819 -0.0727 -0.8686  0.7167
 8932TIP3   OH248286   4.396   0.199  14.869 -0.1481 -0.2950 -0.7036
 8932TIP3    H148287   4.412   0.213  14.962 -0.9138 -1.8512 -0.3007
 8932TIP3    H248288   4.301   0.193  14.861 -0.1575  0.8440 -1.7623
 8933TIP3   OH248289   4.884   5.963  14.186  0.2763  0.2617  0.6221
 8933TIP3    H148290   4.887   5.979  14.281 -0.1061  1.0858  0.5044
 8933TIP3    H248291   4.849   5.874  14.178  2.0718 -0.5514  1.2925
 8934TIP3   OH248292   3.425   5.685   6.327 -0.1138 -0.6209  0.7042
 8934TIP3    H148293   3.337   5.694   6.365 -0.5712 -0.8738 -0.2542
 8934TIP3    H248294   3.462   5.773   6.329 -1.4788  0.0828 -1.3953
 8935TIP3   OH248295   1.650   5.649   6.288  0.3317 -0.1075  0.2369
 8935TIP3    H148296   1.565   5.662   6.330  0.3750  2.6902 -0.2914
 8935TIP3    H248297   1.634   5.667   6.195  1.1762 -1.3938 -0.1940
 8936TIP3   OH248298   6.069   5.509   1.552 -0.6913  0.0100  0.3317
 8936TIP3    H148299   6.120   5.585   1.580 -2.1627  0.4653  2.0076
 8936TIP3    H248300   6.092   5.496   1.461 -0.4154  2.5256 -0.0168
 8937TIP3   OH248301   4.448   5.313  16.240  0.6824 -0.1961 -0.5555
 8937TIP3    H148302   4.435   5.254  16.315  1.4123 -0.0562 -0.3078
 8937TIP3    H248303   4.401   5.271  16.168 -1.8461  0.6986  0.4369
 8938TIP3   OH248304   1.330   5.673   1.813  0.6930  0.2655  0.1414
 8938TIP3    H148305   1.237   5.657   1.824  0.3680  1.7232 -0.3159
 8938TIP3    H248306   1.339   5.768   1.815  2.2750  0.1269  0.9230
 8939TIP3   OH248307   6.456   4.856   0.191 -0.0664  0.1518 -0.1518
 8939TIP3    H148308   6.490   4.874   0.278  0.0600  0.3512 -0.2398
 8939TIP3    H248309   6.527   4.809   0.147 -0.1486  0.0095 -0.1315
 8940TIP3   OH248310   6.388   4.392   3.326  0.4500  0.3015  0.4994
 8940TIP3    H148311   6.414   4.441   3.248 -0.0291 -1.6826 -0.9956
 8940TIP3    H248312   6.470   4.378   3.374  0.8344  1.1379  0.1048
 8941TIP3   OH248313   4.102   4.996   6.640  0.6595 -0.3301  0.1697
 8941TIP3    H148314   4.017   5.030   6.610  1.0900  0.4628 -0.1855
 8941TIP3    H248315   4.085   4.904   6.661 -0.4546  0.0081  0.8043
 8942TIP3   OH248316   1.678   4.459  17.278 -0.4450 -0.1460  0.4474
 8942TIP3    H148317   1.720   4.477  17.363 -2.1806  0.6172  1.1962
 8942TIP3    H248318   1.601   4.516  17.277  0.1657  0.7770 -2.1964
 8943TIP3   OH248319   1.849   3.946  11.881 -0.7023 -0.5031  0.0579
 8943TIP3    H148320   1.758   3.966  11.903 -0.2693 -0.4207  1.9190
 8943TIP3    H248321   1.889   4.032  11.866 -0.4592 -0.3580  1.3608
 8944TIP3   OH248322   4.288   3.088  16.445 -0.2891  0.7055  0.0110
 8944TIP3    H148323   4.278   3.124  16.358  1.9172  1.0768 -0.1485
 8944TIP3    H248324   4.309   3.163  16.501  2.0126  0.0788  0.1062
 8945TIP3   OH248325   3.855   2.310   4.208 -0.8333  0.0170  0.1243
 8945TIP3    H148326   3.869   2.401   4.183 -0.1445 -0.4574 -1.3828
 8945TIP3    H248327   3.854   2.262   4.125 -0.2116 -1.4716  0.9283
 8946TIP3   OH248328   1.622   0.966   2.909 -0.0398 -0.2612 -0.2327
 8946TIP3    H148329   1.641   1.058   2.929  1.6413 -0.3259 -1.2958
 8946TIP3    H248330   1.703   0.921   2.932 -0.4692 -1.3144 -0.7516
 8947TIP3   OH248331   6.255   6.646  11.816  0.2143 -0.3003 -0.4936
 8947TIP3    H148332   6.336   6.598  11.801  0.4797  0.0274 -0.1375
 8947TIP3    H248333   6.218   6.607  11.896  0.4793  0.1411 -0.1487
 8948TIP3   OH248334   3.543   1.169  13.562  0.4549 -0.3416 -0.5886
 8948TIP3    H148335   3.492   1.175  13.481 -1.4958 -0.2173  0.5757
 8948TIP3    H248336   3.480   1.138  13.627  1.4155  1.5761  1.3507
 8949TIP3   OH248337   0.997   4.171  16.377  0.3928 -0.4886  0.4752
 8949TIP3    H148338   0.990   4.139  16.287 -0.2317  0.6009  0.1142
 8949TIP3    H248339   0.986   4.266  16.370  0.5884 -0.3560  1.6780
 8950TIP3   OH248340   3.972   1.579  15.120  0.3378 -0.2551  0.2282
 8950TIP3    H148341   3.906   1.627  15.170  0.3697 -0.6108  0.6172
 8950TIP3    H248342   4.055   1.618  15.145  0.7163 -2.5428  3.0189
 8951TIP3   OH248343   5.731   5.355  13.204  0.4243  0.5261 -0.5001
 8951TIP3    H148344   5.718   5.293  13.132  1.1740 -0.6183  0.3149
 8951TIP3    H248345   5.733   5.300  13.282  1.8875  1.5017  0.1824
 8952TIP3   OH248346   5.029   3.344   4.583  0.4002 -0.2787 -0.5142
 8952TIP3    H148347   5.003   3.427   4.623 -0.9389 -1.6414  1.6113
 8952TIP3    H248348   5.066   3.369   4.498  2.4045  2.6988  1.0687
 8953TIP3   OH248349   0.647   0.019  13.024  0.3448 -0.6742  0.0991
 8953TIP3    H148350   0.696   0.100  13.038  1.0407 -1.6946  5.9025
 8953TIP3    H248351   0.714  -0.049  13.020 -0.3912 -1.3785 -0.6870
 8954TIP3   OH248352   1.430   4.320   0.372  0.0616  0.3884 -0.8671
 8954TIP3    H148353   1.341   4.338   0.402  0.7946  1.2635  0.9407
 8954TIP3    H248354   1.465   4.405   0.347  0.6764  0.1794 -0.7436
 8955TIP3   OH248355   5.312   0.054   3.570  0.1826 -0.2509  0.4190
 8955TIP3    H148356   5.315  -0.038   3.544 -3.8270 -0.6791  0.8371
 8955TIP3    H248357   5.401   0.074   3.598  1.9139 -3.1002 -2.4316
 8956TIP3   OH248358   4.082   6.057  13.381  0.5012 -0.1765 -0.5732
 8956TIP3    H148359   4.090   6.152  13.394  0.4591 -0.0700 -1.2819
 8956TIP3    H248360   4.160   6.034  13.331  0.2354 -0.4220 -0.8766
 8957TIP3   OH248361   1.513   0.920   5.332  0.1852  0.0935 -0.2454
 8957TIP3    H148362   1.480   0.851   5.390  2.1897  0.2970  1.2453
 8957TIP3    H248363   1.435   0.954   5.288 -0.8959 -3.0426 -0.9971
 8958TIP3   OH248364   6.400   5.351  13.501  0.0990 -0.3438 -0.6349
 8958TIP3    H148365   6.477   5.387  13.457  0.7792 -1.6772 -0.6084
 8958TIP3    H248366   6.343   5.426  13.517  1.1366  0.5827 -1.1788
 8959TIP3   OH248367   3.613   5.020  17.294  0.5229 -0.2030 -0.1342
 8959TIP3    H148368   3.528   4.987  17.265  0.2319  1.4263 -1.3021
 8959TIP3    H248369   3.674   4.993  17.225  0.9544 -1.2181  0.6136
 8960TIP3   OH248370   6.471   3.789  14.805  0.4263  0.6009  0.1059
 8960TIP3    H148371   6.395   3.835  14.841  0.0196 -0.0241  0.0540
 8960TIP3    H248372   6.461   3.797  14.710  0.7340  1.0164  0.1098
 8961TIP3   OH248373   3.853   5.091   3.408  0.4800 -0.6450  0.7281
 8961TIP3    H148374   3.926   5.111   3.350  0.9375  2.3048  2.1419
 8961TIP3    H248375   3.892   5.045   3.482  1.0226  1.1400  1.5959
 8962TIP3   OH248376   5.414   5.689   2.865  0.4296  0.1214  0.0697
 8962TIP3    H148377   5.321   5.684   2.887  0.1769  1.1653 -0.6471
 8962TIP3    H248378   5.416   5.740   2.784  1.7234  1.4297  0.8751
 8963TIP3   OH248379   6.582   1.660   2.467  0.2300 -0.2191  0.3541
 8963TIP3    H148380   6.502   1.624   2.504 -0.5808  2.0445  0.9979
 8963TIP3    H248381   6.653   1.613   2.510 -0.7429 -0.9135  1.2314
 8964TIP3   OH248382   0.318   2.040   2.613  0.0059 -0.0520  0.3834
 8964TIP3    H148383   0.390   2.030   2.552 -0.2340  2.8676 -0.5339
 8964TIP3    H248384   0.359   2.038   2.700  1.4401  2.4438 -0.1347
 8965TIP3   OH248385   1.126   4.936   2.575 -0.4675  0.0509 -0.6466
 8965TIP3    H148386   1.197   4.873   2.584  1.6118  2.3259 -0.2423
 8965TIP3    H248387   1.077   4.929   2.657  2.1198  1.6390  1.1756
 8966TIP3   OH248388   0.319   4.982   3.180 -0.2799  0.2106  0.0028
 8966TIP3    H148389   0.248   4.921   3.161 -0.7824  0.4735  0.9659
 8966TIP3    H248390   0.300   5.059   3.127 -0.1355 -0.1151 -0.5315
 8967TIP3   OH248391   3.841   3.377  11.018 -0.0042 -0.1871 -0.6172
 8967TIP3    H148392   3.827   3.391  10.925  0.9919 -2.0924 -1.1107
 8967TIP3    H248393   3.887   3.293  11.023  0.6735  0.2448  1.5422
 8968TIP3   OH248394   5.461   3.608   4.470 -0.1844  0.5775  0.0798
 8968TIP3    H148395   5.517   3.677   4.505  2.2172 -1.8204  1.3548
 8968TIP3    H248396   5.498   3.586   4.385 -1.5049  1.3823 -0.7501
 8969TIP3   OH248397   0.112   3.646  14.227 -0.0180 -0.7797 -0.3647
 8969TIP3    H148398   0.069   3.571  14.185 -0.8596 -0.3823 -0.2315
 8969TIP3    H248399   0.092   3.720  14.170  0.3008 -0.5406 -0.1715
 8970TIP3   OH248400   5.692   0.375   1.239 -0.1948 -0.0044 -0.3715
 8970TIP3    H148401   5.784   0.371   1.262 -0.3014 -2.3468 -0.1825
 8970TIP3    H248402   5.690   0.427   1.158  1.4483 -0.8832 -1.0219
 8971TIP3   OH248403   0.712   6.094   5.922  0.3853  0.3326 -0.8749
 8971TIP3    H148404   0.804   6.116   5.907  0.0520  0.8651 -2.3724
 8971TIP3    H248405   0.697   6.115   6.014  2.0144 -0.7832 -0.3003
 8972TIP3   OH248406   2.504   4.595   6.024 -0.8580 -0.3495 -0.0148
 8972TIP3    H148407   2.594   4.565   6.015 -0.4034  0.9261  0.1699
 8972TIP3    H248408   2.502   4.641   6.108 -1.2100  1.2216 -0.8551
 8973TIP3   OH248409   0.437   5.029  15.903  0.3621 -0.0179 -0.2656
 8973TIP3    H148410   0.525   4.992  15.916  0.6758  1.1540  1.2641
 8973TIP3    H248411   0.452   5.108  15.850  0.6905  1.6747  2.1348
 8974TIP3   OH248412   1.934   0.956   2.416  1.0136 -0.4632 -0.1311
 8974TIP3    H148413   1.880   0.983   2.341 -2.4589 -1.7907  1.6873
 8974TIP3    H248414   1.976   1.037   2.445  1.3261  0.3470 -2.5774
 8975TIP3   OH248415   6.039   2.784   2.662  0.7122  0.0422 -0.7312
 8975TIP3    H148416   5.954   2.741   2.658  0.0020  1.0528  1.7291
 8975TIP3    H248417   6.021   2.877   2.653  1.8678  0.1344 -2.5896
 8976TIP3   OH248418   2.658   1.145   0.966  0.1743 -0.1666  0.0347
 8976TIP3    H148419   2.732   1.123   1.023 -0.3687  1.0536  1.2870
 8976TIP3    H248420   2.582   1.144   1.024 -0.4417  0.8225 -0.7219
 8977TIP3   OH248421   3.227   2.461  17.188  0.1505 -0.4497  0.1202
 8977TIP3    H148422   3.180   2.378  17.197  0.0971 -0.3978  0.3070
 8977TIP3    H248423   3.160   2.524  17.162  0.0424 -0.2904  0.7712
 8978TIP3   OH248424   3.080   1.509  12.226 -0.0867 -0.4303  0.0833
 8978TIP3    H148425   3.012   1.543  12.284  0.4115  0.7615 -0.0105
 8978TIP3    H248426   3.033   1.449  12.167 -0.6718 -1.3262  1.4130
 8979TIP3   OH248427   4.723   2.609   3.756 -0.4337  0.3444  0.3448
 8979TIP3    H148428   4.656   2.544   3.778 -0.9407  1.1465  1.2158
 8979TIP3    H248429   4.702   2.637   3.667 -1.4159  0.7766  0.7016
 8980TIP3   OH248430   5.829   0.316  13.252 -0.1779  0.2627  0.5357
 8980TIP3    H148431   5.894   0.300  13.183 -0.1256  0.3787  0.5569
 8980TIP3    H248432   5.746   0.287  13.214 -0.1658  0.4223  0.3853
 8981TIP3   OH248433   4.856   3.462  13.941 -0.5684 -0.6024 -0.4991
 8981TIP3    H148434   4.789   3.511  13.989 -1.9254 -1.7150 -1.1583
 8981TIP3    H248435   4.815   3.444  13.856  1.6945  1.2026 -2.1070
 8982TIP3   OH248436   0.857   2.278  12.155  0.3142 -0.2227  0.4740
 8982TIP3    H148437   0.830   2.316  12.239 -0.0756 -0.0346  0.2665
 8982TIP3    H248438   0.789   2.213  12.136  0.8067 -0.8106  0.6719
 8983TIP3   OH248439   5.743   3.133   1.987  0.1359 -0.2120 -0.2851
 8983TIP3    H148440   5.779   3.158   2.072 -1.4113  1.1896  0.0072
 8983TIP3    H248441   5.774   3.200   1.927  0.1983 -0.4933 -0.5691
 8984TIP3   OH248442   0.200   6.566   5.756  0.3514  0.0208 -0.2166
 8984TIP3    H148443   0.128   6.626   5.736  0.1762 -0.4552 -1.0228
 8984TIP3    H248444   0.162   6.502   5.817  0.0791 -0.2442 -0.6592
 8985TIP3   OH248445   4.570   2.957   3.173 -0.1264  0.5607 -0.0126
 8985TIP3    H148446   4.593   3.049   3.175 -1.1587  0.8279  0.6963
 8985TIP3    H248447   4.629   2.916   3.236  0.6657  0.6514 -0.6950
 8986TIP3   OH248448   3.645   0.659  15.776 -0.1881  0.2779 -0.0669
 8986TIP3    H148449   3.696   0.640  15.698 -0.6242  0.1359 -0.3207
 8986TIP3    H248450   3.699   0.718  15.827  1.1447 -1.4789  0.6634
 8987TIP3   OH248451   5.613   0.420   5.067 -1.0547  0.5953  0.0754
 8987TIP3    H148452   5.541   0.420   5.130 -0.2268 -2.1479  1.1793
 8987TIP3    H248453   5.681   0.473   5.108 -1.0492 -0.0109  0.8756
 8988TIP3   OH248454   3.875   2.341  14.219  0.2349 -0.3569  0.0153
 8988TIP3    H148455   3.841   2.340  14.129 -0.3495 -0.3285  0.2346
 8988TIP3    H248456   3.947   2.404  14.216 -0.2393  0.1814 -0.2728
 8989TIP3   OH248457   2.066   4.546   5.780 -0.0812 -0.7840 -0.2188
 8989TIP3    H148458   2.142   4.551   5.721 -0.9115  0.4109 -1.2450
 8989TIP3    H248459   2.100   4.574   5.865  0.2587  1.6986 -1.0971
 8990TIP3   OH248460   6.604   1.950   5.401 -0.1197  0.7342 -0.0532
 8990TIP3    H148461   6.693   1.951   5.365 -0.2051 -0.0284 -0.3191
 8990TIP3    H248462   6.613   1.979   5.491  0.5159 -0.0578  0.1482
 8991TIP3   OH248463   4.940   1.190  12.559 -0.0910  0.1887  0.2139
 8991TIP3    H148464   4.880   1.260  12.585 -1.9965 -1.2575 -0.0895
 8991TIP3    H248465   4.985   1.167  12.640  0.1974  1.3989  0.4227
 8992TIP3   OH248466   5.388   2.425   4.864 -0.0884  0.0524  0.6953
 8992TIP3    H148467   5.442   2.504   4.863 -1.1894  0.8314 -0.0984
 8992TIP3    H248468   5.451   2.353   4.859  0.8672  0.9282 -0.6394
 8993TIP3   OH248469   4.142   3.249   5.827 -0.2370  0.0180 -0.6667
 8993TIP3    H148470   4.145   3.265   5.732 -1.5101  0.4140 -0.6515
 8993TIP3    H248471   4.074   3.308   5.859 -0.5048 -0.8297  0.3643
 8994TIP3   OH248472   5.427   1.453  17.108  0.1566 -0.1268 -0.4345
 8994TIP3    H148473   5.349   1.420  17.152 -0.1312  1.3061  0.2017
 8994TIP3    H248474   5.480   1.491  17.179  1.1294 -0.4973 -0.9443
 8995TIP3   OH248475   0.023   2.833  10.253  0.1440 -0.3441 -0.3834
 8995TIP3    H148476   0.048   2.886  10.328  0.5581  0.6377 -1.1930
 8995TIP3    H248477  -0.057   2.788  10.281 -1.3763  2.2308 -0.3229
 8996TIP3   OH248478   0.864   0.071  14.729 -0.0917  0.2987  0.8365
 8996TIP3    H148479   0.857   0.041  14.819  0.2044 -4.2505 -0.4366
 8996TIP3    H248480   0.789   0.033  14.684  1.2329  0.0438 -1.3397
 8997TIP3   OH248481   0.255   1.107   6.448 -0.1687 -0.0470  0.0938
 8997TIP3    H148482   0.249   1.190   6.399 -0.4039  0.2927  0.6877
 8997TIP3    H248483   0.193   1.118   6.520 -1.4142 -1.3715 -0.7311
 8998TIP3   OH248484   5.030   1.289   0.595 -0.3289 -0.1943 -0.8836
 8998TIP3    H148485   4.978   1.251   0.524 -0.3441  0.2752 -1.1283
 8998TIP3    H248486   4.966   1.318   0.659 -0.2724 -1.9480  0.0312
 8999TIP3   OH248487   5.959   2.600  11.640 -0.1968 -0.0492  0.5257
 8999TIP3    H148488   5.893   2.537  11.611  0.0695 -0.3883  0.6388
 8999TIP3    H248489   6.037   2.546  11.658 -0.3045  0.1558  1.7173
 9000TIP3   OH248490   1.051   5.252  11.489 -0.1506  0.6845 -0.3434
 9000TIP3    H148491   0.968   5.226  11.530 -0.3275 -0.1456 -1.1890
 9000TIP3    H248492   1.049   5.210  11.403  0.7685  1.3690 -0.7123
 9001TIP3   OH248493   1.964   4.675   3.994  0.1834 -0.0735 -0.0888
 9001TIP3    H148494   1.995   4.697   4.082 -2.3918  0.9890  0.6339
 9001TIP3    H248495   1.976   4.756   3.945  0.1827 -0.2023 -0.3001
 9002TIP3   OH248496   6.487   6.204   0.890 -0.0097  0.1731 -0.4788
 9002TIP3    H148497   6.554   6.138   0.872 -1.5583 -2.1674  1.6744
 9002TIP3    H248498   6.415   6.181   0.831 -0.6558 -0.2637  0.4618
 9003TIP3   OH248499   6.787   1.254  10.873 -0.3461 -0.4007 -0.3385
 9003TIP3    H148500   6.723   1.325  10.883  2.3606  2.0846  1.1057
 9003TIP3    H248501   6.779   1.202  10.952  2.0384  2.4507  2.0315
 9004TIP3   OH248502   4.059   5.294   4.832 -0.3126 -0.5294 -0.3773
 9004TIP3    H148503   4.081   5.377   4.790 -0.7995 -1.2228 -2.0852
 9004TIP3    H248504   4.141   5.246   4.836  0.1994  0.4025  1.6113
 9005TIP3   OH248505   3.360   3.547  16.305 -0.3391  0.3757  0.0677
 9005TIP3    H148506   3.413   3.572  16.381 -0.5052  0.7253  0.0695
 9005TIP3    H248507   3.309   3.625  16.284 -0.2642  0.2923 -0.4319
 9006TIP3   OH248508   2.001   4.100   1.637  0.2781  0.4844 -0.1795
 9006TIP3    H148509   2.082   4.114   1.588 -0.2235  2.3264 -0.5402
 9006TIP3    H248510   2.012   4.012   1.676  2.0494  0.3254 -0.9261
 9007TIP3   OH248511   0.149   0.019   0.425 -0.0012  0.2387 -0.4017
 9007TIP3    H148512   0.098  -0.017   0.353 -1.0917  1.0599 -0.0601
 9007TIP3    H248513   0.237   0.031   0.389  0.1201 -1.7065 -0.8355
 9008TIP3   OH248514   1.785   4.426   6.171 -0.1303  0.2304 -0.2861
 9008TIP3    H148515   1.698   4.462   6.190 -0.8076 -2.2274  1.7310
 9008TIP3    H248516   1.831   4.431   6.254  0.7879 -0.7952 -0.7242
 9009TIP3   OH248517   2.121   3.509   5.082 -0.0328  0.1091  0.5967
 9009TIP3    H148518   2.111   3.604   5.078 -0.6554  0.0659  1.0523
 9009TIP3    H248519   2.032   3.474   5.075  0.0753 -0.3938  1.5154
 9010TIP3   OH248520   0.138   6.012  11.234 -0.1003  0.6974  0.5368
 9010TIP3    H148521   0.209   6.011  11.169 -1.4356  0.4611 -1.0044
 9010TIP3    H248522   0.080   6.082  11.204 -0.8799  0.4021  1.3365
 9011TIP3   OH248523   3.969   3.526  12.414  0.9037  0.0668 -0.2099
 9011TIP3    H148524   3.979   3.608  12.366  1.4104 -1.3617 -2.8017
 9011TIP3    H248525   3.889   3.487  12.379  1.6236 -1.3231 -0.3982
 9012TIP3   OH248526   4.057   2.126   2.204 -0.2660 -0.4021  0.3864
 9012TIP3    H148527   4.091   2.146   2.291 -1.1310  0.7189  0.4973
 9012TIP3    H248528   3.963   2.110   2.218 -0.3265 -0.6681 -0.2762
 9013TIP3   OH248529   3.470   5.872   0.435  0.2384  0.0585  0.0481
 9013TIP3    H148530   3.401   5.832   0.382  0.2409 -1.3945  1.0731
 9013TIP3    H248531   3.423   5.911   0.509  0.4362 -0.1367  0.2774
 9014TIP3   OH248532   4.861   1.437  16.858 -0.4709  0.4843 -0.3865
 9014TIP3    H148533   4.912   1.371  16.809 -1.1414 -2.6119  2.6761
 9014TIP3    H248534   4.770   1.418  16.836 -0.8379 -1.4549  2.3406
 9015TIP3   OH248535   5.905   5.946   5.650 -0.0969  0.1827 -0.1933
 9015TIP3    H148536   5.923   5.856   5.624  2.4359  0.9667 -1.4650
 9015TIP3    H248537   5.958   6.000   5.592 -0.6291  2.4816  1.2710
 9016TIP3   OH248538   1.635   2.251   2.661  0.0232 -0.1100  0.2145
 9016TIP3    H148539   1.568   2.192   2.696  0.3636 -0.2908  0.5702
 9016TIP3    H248540   1.718   2.217   2.696  0.3417 -0.1226 -0.5332
 9017TIP3   OH248541   1.724   6.032  15.737 -0.5927 -0.5569  0.0898
 9017TIP3    H148542   1.751   5.943  15.760 -0.4579  0.1364  2.8638
 9017TIP3    H248543   1.798   6.087  15.763 -0.7246  0.4212 -1.4761
 9018TIP3   OH248544   5.986   3.251  16.387  0.0968 -0.3457  0.4024
 9018TIP3    H148545   6.006   3.157  16.383 -1.0780 -0.5696 -1.1752
 9018TIP3    H248546   6.067   3.294  16.360 -0.0032 -1.0299 -1.1018
 9019TIP3   OH248547   3.414   1.209  16.587 -0.1799 -0.3404 -0.0251
 9019TIP3    H148548   3.387   1.128  16.630 -0.6264  0.1227  0.5691
 9019TIP3    H248549   3.492   1.237  16.634  0.6234 -0.9802 -0.9170
 9020TIP3   OH248550   4.882   5.508   1.107  0.2611 -0.4972  0.1708
 9020TIP3    H148551   4.794   5.471   1.120  0.1360 -1.1100 -1.9440
 9020TIP3    H248552   4.941   5.436   1.131  0.1757 -0.2018  1.2706
 9021TIP3   OH248553   1.674   2.258   0.990  0.0515 -0.4845 -1.1359
 9021TIP3    H148554   1.767   2.259   1.013 -0.3709 -1.9487  0.9924
 9021TIP3    H248555   1.651   2.350   0.979  1.0732  0.2085  1.6535
 9022TIP3   OH248556   2.700   2.927  13.906 -0.3006 -0.6344 -0.2025
 9022TIP3    H148557   2.645   2.961  13.977 -1.0340 -3.1338  0.5101
 9022TIP3    H248558   2.638   2.894  13.841  0.3727  1.3317 -1.9376
 9023TIP3   OH248559   6.558   4.050  14.937  0.5904 -0.4779 -0.2356
 9023TIP3    H148560   6.508   3.986  14.887  1.6263 -1.9464  0.5483
 9023TIP3    H248561   6.600   4.000  15.006  2.3162  0.8539 -0.2450
 9024TIP3   OH248562   4.649   1.570  11.794 -0.0673 -0.3177  0.4103
 9024TIP3    H148563   4.556   1.549  11.788  0.0246 -0.9165  0.9628
 9024TIP3    H248564   4.674   1.546  11.883  0.8088 -0.9856  0.0065
 9025TIP3   OH248565   5.076   2.301   6.209  0.9355  0.5211  0.3448
 9025TIP3    H148566   5.045   2.388   6.233 -1.4387 -0.2614  0.3598
 9025TIP3    H248567   5.169   2.303   6.229  0.5392  2.3558  2.4218
 9026TIP3   OH248568   0.160   1.214  11.265  0.2841 -0.1229  0.9414
 9026TIP3    H148569   0.075   1.213  11.222  0.0848 -0.2521  1.3327
 9026TIP3    H248570   0.223   1.233  11.195  0.1916 -2.2513  0.1946
 9027TIP3   OH248571   1.413   4.617   5.828 -0.0027  0.0257 -0.0952
 9027TIP3    H148572   1.373   4.550   5.773 -0.5496 -1.0753  1.5777
 9027TIP3    H248573   1.449   4.569   5.903  0.7433  1.4626  0.5118
 9028TIP3   OH248574   3.065   5.953  13.113 -0.4547  0.2276  0.2566
 9028TIP3    H148575   3.120   6.016  13.160  0.4531 -1.9909  2.4083
 9028TIP3    H248576   2.976   5.978  13.136 -0.0413 -0.9922  3.7312
 9029TIP3   OH248577   4.959   2.248  13.097  0.1590 -0.0995  0.9381
 9029TIP3    H148578   4.900   2.280  13.165  0.3526  0.9659  0.6252
 9029TIP3    H248579   4.969   2.322  13.037  0.3409 -0.8729 -0.0121
 9030TIP3   OH248580   4.375   0.410  16.089 -0.2412  0.1429 -0.6419
 9030TIP3    H148581   4.322   0.475  16.042 -0.3468  1.3338  1.0686
 9030TIP3    H248582   4.325   0.328  16.081 -1.5485  0.8938 -0.4279
 9031TIP3   OH248583   3.500   3.822  15.251 -0.3376  0.0234 -0.4779
 9031TIP3    H148584   3.443   3.814  15.328 -0.1158  2.2756 -0.0127
 9031TIP3    H248585   3.564   3.751  15.261 -1.2357 -0.6616  0.5979
 9032TIP3   OH248586   2.031   0.874   3.884 -0.4380  0.0192 -0.4303
 9032TIP3    H148587   2.040   0.969   3.886 -1.6717  0.1881  2.5040
 9032TIP3    H248588   2.025   0.849   3.976 -2.4335 -2.6679 -1.1792
 9033TIP3   OH248589   2.198   5.572   2.206 -0.2782 -0.2706 -0.4923
 9033TIP3    H148590   2.260   5.624   2.155  0.6989 -0.9393 -0.0185
 9033TIP3    H248591   2.184   5.623   2.286  0.2344 -0.4632 -0.2783
 9034TIP3   OH248592   5.723   4.631  16.769 -0.0447  0.7739 -0.3624
 9034TIP3    H148593   5.717   4.693  16.696  0.9191  1.9712  0.5452
 9034TIP3    H248594   5.653   4.567  16.751  0.0361  1.1349 -2.2163
 9035TIP3   OH248595   2.715   5.879   2.576 -0.4740  0.1735  0.6681
 9035TIP3    H148596   2.780   5.907   2.511 -1.6235  0.4552 -0.3914
 9035TIP3    H248597   2.655   5.822   2.527  0.5486 -2.4677  2.2689
 9036TIP3   OH248598   6.139   0.605   2.999 -0.3143  0.3072  0.0669
 9036TIP3    H148599   6.121   0.698   2.986  0.3659  0.3199 -0.9095
 9036TIP3    H248600   6.121   0.589   3.092 -0.2675  1.4487  0.2787
 9037TIP3   OH248601   6.151   2.830   1.458  0.2409 -0.3451 -0.0145
 9037TIP3    H148602   6.129   2.738   1.444  2.2328 -1.1173  1.4324
 9037TIP3    H248603   6.078   2.866   1.509 -0.1152 -1.3848  0.2271
 9038TIP3   OH248604   1.849   1.950   0.985  0.5728 -0.0614 -0.0128
 9038TIP3    H148605   1.885   2.020   0.931  0.9333  0.1434  0.4898
 9038TIP3    H248606   1.794   1.899   0.925 -0.0821  0.9289 -0.2867
 9039TIP3   OH248607   0.841   2.206   2.976 -0.0417 -0.0168 -0.3979
 9039TIP3    H148608   0.810   2.139   2.915 -0.9906 -1.8870  1.9456
 9039TIP3    H248609   0.776   2.277   2.969  0.6245  0.4519 -2.4520
 9040TIP3   OH248610   5.037   2.886   2.199 -0.2599 -0.1738 -0.1020
 9040TIP3    H148611   4.955   2.931   2.176  0.8764  1.6931 -0.6898
 9040TIP3    H248612   5.088   2.889   2.118  1.1428  0.4180  0.7796
 9041TIP3   OH248613   5.826   5.647   4.541 -0.6049 -0.2869 -0.1550
 9041TIP3    H148614   5.747   5.639   4.595 -0.2655  0.6915  0.5158
 9041TIP3    H248615   5.808   5.722   4.483  1.4792  3.1585  3.1323
 9042TIP3   OH248616   2.952   3.346   2.093  0.3819 -0.3757  0.4431
 9042TIP3    H148617   2.869   3.358   2.140  0.8708  0.9906  1.0113
 9042TIP3    H248618   3.008   3.300   2.155  1.0702  1.5411  1.3377
 9043TIP3   OH248619   0.667   2.523  11.425  0.3404  0.3141  0.0194
 9043TIP3    H148620   0.642   2.453  11.486 -0.2778  0.1226 -0.4529
 9043TIP3    H248621   0.623   2.601  11.458 -0.2173  0.1519 -0.3374
 9044TIP3   OH248622   4.056   1.813   3.297 -0.2967 -0.2563  0.2427
 9044TIP3    H148623   3.995   1.740   3.293 -0.9981  0.2927  0.7023
 9044TIP3    H248624   4.016   1.875   3.358  0.6926  0.1392  0.5140
 9045TIP3   OH248625   3.063   0.980  13.168 -0.4394  0.0981  0.4266
 9045TIP3    H148626   3.041   1.050  13.229 -1.5021 -1.2083  1.6142
 9045TIP3    H248627   3.157   0.967  13.180 -0.2662  1.1786  0.3303
 9046TIP3   OH248628   4.089   4.911  13.612  0.0998 -0.7658 -0.2934
 9046TIP3    H148629   4.184   4.923  13.603  0.3521 -2.5051 -0.2403
 9046TIP3    H248630   4.057   4.996  13.642  1.5135  0.1271 -1.1853
 9047TIP3   OH248631   0.779   5.458  14.316 -0.1142  0.2827 -0.7021
 9047TIP3    H148632   0.821   5.513  14.382 -0.2193 -1.8880  1.3292
 9047TIP3    H248633   0.848   5.398  14.287 -0.9918 -1.4201  0.5334
 9048TIP3   OH248634   5.636   4.251   2.341 -0.3320 -0.2610 -0.5387
 9048TIP3    H148635   5.608   4.160   2.344  1.5271 -0.8517  0.3886
 9048TIP3    H248636   5.617   4.285   2.428 -2.9030  0.9016 -1.4687
 9049TIP3   OH248637   6.018   4.533   4.193  0.2437  0.1547 -0.2028
 9049TIP3    H148638   5.955   4.552   4.263 -0.6038  2.6040 -1.5081
 9049TIP3    H248639   5.964   4.510   4.118  1.1035 -1.1677 -0.4617
 9050TIP3   OH248640   6.096   2.920  12.302  0.2433 -0.4644 -0.3333
 9050TIP3    H148641   6.037   2.910  12.377 -0.0242  0.0902 -0.4656
 9050TIP3    H248642   6.147   2.839  12.301 -0.7345 -1.0990 -0.4041
 9051TIP3   OH248643   0.085   1.845  12.760 -0.0809 -0.0166  0.0588
 9051TIP3    H148644   0.082   1.749  12.759 -0.7289  0.0053 -0.3693
 9051TIP3    H248645   0.112   1.867  12.850  0.1198 -0.5964  0.1468
 9052TIP3   OH248646   6.380   0.486  11.525  0.0548 -0.0709 -0.1478
 9052TIP3    H148647   6.296   0.441  11.513 -0.7301  1.1976  0.3859
 9052TIP3    H248648   6.357   0.571  11.562  1.6126  0.1565  0.3934
 9053TIP3   OH248649   3.720   0.186  15.214  0.4652  0.3818 -0.5316
 9053TIP3    H148650   3.655   0.247  15.180  0.2754  0.6731  0.3302
 9053TIP3    H248651   3.717   0.197  15.309 -0.8098 -2.1701 -0.1870
 9054TIP3   OH248652   0.539   2.532   6.312 -0.3048 -0.2463 -0.3643
 9054TIP3    H148653   0.450   2.516   6.345 -0.2002  0.7796  0.4802
 9054TIP3    H248654   0.596   2.505   6.384 -0.0762  2.1586  0.4673
 9055TIP3   OH248655   6.431   0.661   1.032 -0.1559 -0.7571 -0.3060
 9055TIP3    H148656   6.352   0.626   0.992  0.2141 -0.6484 -1.1471
 9055TIP3    H248657   6.409   0.752   1.052  0.4296 -0.0669 -2.5336
 9056TIP3   OH248658   1.447   4.527   4.257  0.0327  0.3221  0.7405
 9056TIP3    H148659   1.434   4.567   4.343  1.2303 -0.5210  1.3507
 9056TIP3    H248660   1.441   4.433   4.274 -2.0962  0.1678 -0.5510
 9057TIP3   OH248661   4.796   6.072   3.759  0.1410  0.4165  0.0622
 9057TIP3    H148662   4.826   5.981   3.759  2.4836  0.9403 -4.2302
 9057TIP3    H248663   4.701   6.066   3.762  0.2350 -2.1501  0.2702
 9058TIP3   OH248664   1.392   3.063   4.149  0.2373  0.3726 -0.2256
 9058TIP3    H148665   1.353   3.110   4.076 -1.7396  0.4385  0.8109
 9058TIP3    H248666   1.318   3.031   4.200  1.5138  0.7019  1.9989
 9059TIP3   OH248667   5.788   5.269   1.446 -0.4753 -0.2791 -0.2540
 9059TIP3    H148668   5.752   5.219   1.518  0.5828 -1.1041 -0.2591
 9059TIP3    H248669   5.726   5.341   1.432 -1.6764 -1.1991  0.2040
 9060TIP3   OH248670   2.196   5.867   4.837  0.1029 -0.3915  0.2779
 9060TIP3    H148671   2.193   5.939   4.773 -0.1951 -0.5399  0.1252
 9060TIP3    H248672   2.189   5.911   4.922 -0.1803 -0.2441  0.1815
 9061TIP3   OH248673   5.314   4.895  15.700  0.1806  0.1383  0.2774
 9061TIP3    H148674   5.284   4.951  15.628  0.2275  2.2862  1.8428
 9061TIP3    H248675   5.251   4.824  15.702 -1.3200  1.3891 -0.3040
 9062TIP3   OH248676   3.666   6.119  17.111 -0.6743 -0.2129  0.6225
 9062TIP3    H148677   3.751   6.147  17.144 -0.0854  1.5429 -2.0519
 9062TIP3    H248678   3.604   6.183  17.146 -0.4339  0.2400  0.2208
 9063TIP3   OH248679   3.897   4.515   0.070 -0.2425  0.1401  0.1565
 9063TIP3    H148680   3.937   4.507  -0.017 -2.5764 -1.9465 -0.8403
 9063TIP3    H248681   3.944   4.452   0.124 -0.7369 -0.7547 -0.4319
 9064TIP3   OH248682   2.951   4.784   2.312 -0.0641 -0.1189 -0.3063
 9064TIP3    H148683   2.871   4.747   2.348  0.6537  0.5232  2.1124
 9064TIP3    H248684   2.974   4.855   2.372  1.1755  1.1413 -2.1352
 9065TIP3   OH248685   5.707   2.007   3.500  0.4023  0.0711  0.7208
 9065TIP3    H148686   5.655   2.076   3.459  0.9146 -0.2641 -0.5441
 9065TIP3    H248687   5.798   2.037   3.491  0.5854 -0.4741  0.6953
 9066TIP3   OH248688   6.510   6.138  16.093  0.4343  0.3786  0.5245
 9066TIP3    H148689   6.466   6.143  16.177 -0.6820 -1.2358  0.0877
 9066TIP3    H248690   6.440   6.122  16.030  1.5157 -1.3693 -0.3257
 9067TIP3   OH248691   2.096   3.414  13.547 -0.5021 -0.2846  0.0180
 9067TIP3    H148692   2.059   3.444  13.630 -0.5642 -0.6901  0.1426
 9067TIP3    H248693   2.020   3.407  13.489 -0.5057 -0.3265  0.0278
 9068TIP3   OH248694   4.863   0.798   4.353  0.4665  0.1016 -0.1623
 9068TIP3    H148695   4.855   0.760   4.441  0.6632 -0.5313 -0.4176
 9068TIP3    H248696   4.957   0.798   4.335  0.4493  0.4888 -0.2641
 9069TIP3   OH248697   0.789   6.599   3.257  1.0975 -0.2068 -0.7579
 9069TIP3    H148698   0.721   6.602   3.189  0.1261 -1.9879  0.0710
 9069TIP3    H248699   0.743   6.624   3.337  2.0776  1.1772 -0.5903
 9070TIP3   OH248700   0.333   0.279  12.033  0.2202 -0.3838  0.3047
 9070TIP3    H148701   0.321   0.194  12.075  0.8918 -0.4594  0.3451
 9070TIP3    H248702   0.354   0.339  12.104  0.1275 -0.2570  0.2272
 9071TIP3   OH248703   5.263   3.115  11.582  0.3452 -0.0262 -0.1112
 9071TIP3    H148704   5.256   3.211  11.582 -0.6448 -0.0318  1.8889
 9071TIP3    H248705   5.180   3.086  11.619  1.4109 -1.5454  1.1874
 9072TIP3   OH248706   6.646   4.668   2.556  0.4999 -0.2187 -0.3480
 9072TIP3    H148707   6.630   4.741   2.615 -0.0376 -0.1376 -0.5875
 9072TIP3    H248708   6.679   4.709   2.476  0.9378 -0.3037 -0.2144
 9073TIP3   OH248709   5.536   3.402  16.060 -0.4033  0.2874 -0.5388
 9073TIP3    H148710   5.569   3.332  16.003 -0.7288 -2.0676  1.9199
 9073TIP3    H248711   5.505   3.470  16.000 -1.3667 -2.2818 -3.2024
 9074TIP3   OH248712   1.101   1.270   3.124 -0.0990 -0.3635  0.3587
 9074TIP3    H148713   1.085   1.350   3.173 -0.1696 -0.4482  0.4751
 9074TIP3    H248714   1.121   1.299   3.035  1.3281 -0.1155  0.7269
 9075TIP3   OH248715   3.450   2.268   3.662  0.0480  0.1769 -0.2883
 9075TIP3    H148716   3.475   2.185   3.704  1.0996 -0.1676 -1.5229
 9075TIP3    H248717   3.354   2.266   3.660  0.0609 -1.1527 -0.5437
 9076TIP3   OH248718   2.359   4.279  17.277 -0.3759  0.3779 -0.3061
 9076TIP3    H148719   2.424   4.290  17.208 -0.9883  0.9705 -0.8084
 9076TIP3    H248720   2.343   4.368  17.309  0.3216  0.0561  1.0052
 9077TIP3   OH248721   1.760   2.939   0.482  0.2241 -0.1474  0.1598
 9077TIP3    H148722   1.787   2.906   0.396  1.7923 -0.1336  0.6206
 9077TIP3    H248723   1.791   2.874   0.544 -0.3693  0.1430  0.7679
 9078TIP3   OH248724   1.831   3.807   4.343 -0.4404  0.2044 -0.3008
 9078TIP3    H148725   1.743   3.831   4.374 -1.1351 -0.3923 -1.7172
 9078TIP3    H248726   1.882   3.887   4.351 -1.1278  0.5852  0.4838
 9079TIP3   OH248727   3.236   6.129   0.551  0.1770 -0.4593  0.0316
 9079TIP3    H148728   3.314   6.085   0.586  1.7569  1.7165 -0.5461
 9079TIP3    H248729   3.263   6.161   0.465 -0.5661  2.2479  0.7080
 9080TIP3   OH248730   6.598   0.881   2.508  0.2768  0.5262 -0.2515
 9080TIP3    H148731   6.612   0.956   2.450  0.9686  0.8208  0.2856
 9080TIP3    H248732   6.685   0.841   2.517 -0.1809 -0.7061 -1.0077
 9081TIP3   OH248733   5.996   6.493  13.695  0.3174  0.3656  0.1470
 9081TIP3    H148734   6.047   6.573  13.705  1.6016 -0.2686 -1.0437
 9081TIP3    H248735   6.052   6.424  13.731 -0.0976 -0.2099 -0.2948
 9082TIP3   OH248736   1.584   2.032   0.863 -0.0258  0.4146 -0.4541
 9082TIP3    H148737   1.619   2.107   0.911  2.4008 -0.9578  0.0744
 9082TIP3    H248738   1.505   2.008   0.911  0.3405  1.3149  0.6639
 9083TIP3   OH248739   4.468   2.403   1.584  0.1023 -0.3050  0.0234
 9083TIP3    H148740   4.408   2.426   1.655  0.3734  0.5776 -0.0187
 9083TIP3    H248741   4.416   2.350   1.524 -0.7230  0.6685 -0.1513
 9084TIP3   OH248742   2.909   0.533   4.724 -0.1705 -0.2686 -0.7587
 9084TIP3    H148743   2.884   0.443   4.745  2.8457 -1.0227  0.1914
 9084TIP3    H248744   2.979   0.525   4.660  0.5485  1.3653 -0.2523
 9085TIP3   OH248745   5.598   1.312  14.986 -0.2211 -0.3315  0.9023
 9085TIP3    H148746   5.604   1.388  15.043 -0.6379  0.3525  0.0687
 9085TIP3    H248747   5.578   1.349  14.900 -0.6253 -1.4003  0.5251
 9086TIP3   OH248748   1.798   4.393   2.779  0.0231 -0.0370 -0.2194
 9086TIP3    H148749   1.853   4.374   2.854  1.2180 -0.0708 -1.0783
 9086TIP3    H248750   1.712   4.355   2.801  0.2089  0.3911  1.3083
 9087TIP3   OH248751   0.216   1.496  15.785  0.2226 -0.3215 -0.2233
 9087TIP3    H148752   0.180   1.409  15.800  1.1502 -0.4510  1.5217
 9087TIP3    H248753   0.268   1.514  15.863 -0.8708  2.2863 -0.0098
 9088TIP3   OH248754   2.016   0.164  14.628 -0.6400  0.0496  0.1470
 9088TIP3    H148755   2.107   0.191  14.618 -0.2951 -0.1395  2.2920
 9088TIP3    H248756   2.012   0.077  14.588  0.6654 -0.7941  1.7015
 9089TIP3   OH248757   0.109   0.817   5.228  0.4401 -0.1677 -0.4815
 9089TIP3    H148758   0.093   0.722   5.232 -1.5078  0.0336 -1.8338
 9089TIP3    H248759   0.167   0.828   5.153 -0.4918 -0.1955 -1.2206
 9090TIP3   OH248760   2.248   0.068   2.885 -0.7639  0.3661  0.3611
 9090TIP3    H148761   2.189   0.074   2.960  0.0253 -1.2252  1.1449
 9090TIP3    H248762   2.191   0.086   2.810 -1.9471  0.2906  1.1954
 9091TIP3   OH248763   2.003   1.591  10.966 -0.3603 -0.2203  0.4904
 9091TIP3    H148764   1.995   1.614  11.058  0.5512  3.3406 -0.1806
 9091TIP3    H248765   2.089   1.549  10.958 -0.3488 -0.3339  1.2184
 9092TIP3   OH248766   4.887   5.660  12.750  0.1245  0.4407  0.2844
 9092TIP3    H148767   4.865   5.579  12.795  0.6984 -0.0998 -0.3850
 9092TIP3    H248768   4.981   5.653  12.731  0.0522  0.9834 -0.3293
 9093TIP3   OH248769   2.907   3.078  12.439 -0.5294 -0.5597  0.6150
 9093TIP3    H148770   2.946   3.150  12.388 -0.2783 -1.2461 -0.1920
 9093TIP3    H248771   2.814   3.082  12.419 -0.4005 -0.9718 -0.1065
 9094TIP3   OH248772   4.897   1.820   5.515  0.7544  0.2433  0.4081
 9094TIP3    H148773   4.988   1.835   5.542  0.9414 -1.2983  0.7364
 9094TIP3    H248774   4.892   1.725   5.501 -0.7595  0.3350  0.2023
 9095TIP3   OH248775   0.532   4.966  17.090 -0.2523 -0.2363  0.1076
 9095TIP3    H148776   0.452   4.916  17.108 -0.4561  0.3485  0.9483
 9095TIP3    H248777   0.591   4.905  17.047 -1.5240 -0.3987 -1.4571
 9096TIP3   OH248778   4.602   4.911  12.290  0.3027 -0.2732 -0.2240
 9096TIP3    H148779   4.507   4.903  12.284  0.1822 -0.1164  1.1088
 9096TIP3    H248780   4.627   4.968  12.217 -0.5108 -1.0018 -1.0941
 9097TIP3   OH248781   1.239   0.739  16.948 -0.3704 -0.7926 -0.6964
 9097TIP3    H148782   1.312   0.754  16.888 -1.5427 -1.7313 -2.4379
 9097TIP3    H248783   1.275   0.681  17.015  1.0634  0.5621 -0.2175
 9098TIP3   OH248784   3.192   6.247  12.963  0.2705 -0.4830  0.1519
 9098TIP3    H148785   3.234   6.208  13.040  0.1238  1.6466  1.4079
 9098TIP3    H248786   3.100   6.222  12.971  0.5940 -1.9570 -0.4844
 9099TIP3   OH248787   3.621   1.636   2.969  0.2931 -0.4079  0.4745
 9099TIP3    H148788   3.558   1.600   2.907  0.5475  2.4865 -1.7188
 9099TIP3    H248789   3.705   1.597   2.943  0.2289 -0.0330 -0.3151
 9100TIP3   OH248790   1.665   0.899   1.105  0.6495 -0.4795  0.1018
 9100TIP3    H148791   1.617   0.817   1.103  0.9544 -0.7849  2.6385
 9100TIP3    H248792   1.721   0.893   1.182  1.9065  1.4453 -0.5806
 9101TIP3   OH248793   2.041   4.052  14.363  0.0351 -0.4752 -0.5280
 9101TIP3    H148794   2.038   4.066  14.268 -0.6139  2.3431 -0.1937
 9101TIP3    H248795   1.961   4.093  14.396  0.9603 -0.0292  1.3390
 9102TIP3   OH248796   0.813   5.616  11.038 -0.0746  0.0390  0.9064
 9102TIP3    H148797   0.800   5.599  11.131 -0.3161  0.2723  0.9166
 9102TIP3    H248798   0.841   5.708  11.034  0.7983 -0.2186  0.8165
 9103TIP3   OH248799   3.691   2.292  11.588 -0.0609 -0.5607 -0.3661
 9103TIP3    H148800   3.699   2.217  11.529  1.3648 -1.4062  0.8536
 9103TIP3    H248801   3.713   2.258  11.674  0.2195  1.1813  0.2918
 9104TIP3   OH248802   1.136   0.723  12.077  0.1743  0.1003 -0.4508
 9104TIP3    H148803   1.090   0.674  12.146 -0.9247  0.8094 -0.6492
 9104TIP3    H248804   1.148   0.810  12.114  0.7061  0.1315 -0.6921
 9105TIP3   OH248805   5.799   5.909   5.066  0.2569  0.1438  0.2964
 9105TIP3    H148806   5.828   5.906   5.157 -0.0845  2.0394  0.5023
 9105TIP3    H248807   5.866   5.960   5.021  0.5643 -0.9971 -0.6144
 9106TIP3   OH248808   5.154   4.457   3.757 -0.0508 -0.0501  0.0560
 9106TIP3    H148809   5.177   4.499   3.674 -0.0118 -0.9100 -0.3838
 9106TIP3    H248810   5.094   4.518   3.799 -0.6267  0.0934 -0.9358
 9107TIP3   OH248811   4.065   3.511  11.304  0.0461 -0.3953  0.4303
 9107TIP3    H148812   4.098   3.592  11.342  0.0207  0.4084 -1.2054
 9107TIP3    H248813   3.970   3.521  11.305  0.0166 -0.6808  0.7922
 9108TIP3   OH248814   4.064   6.574  14.292 -0.1549 -0.0244  0.2628
 9108TIP3    H148815   4.159   6.563  14.299 -0.3824 -2.2454  0.4571
 9108TIP3    H248816   4.029   6.536  14.373 -1.3962 -3.3610 -1.6347
 9109TIP3   OH248817   4.440   1.351   2.933 -0.3683  0.2947 -0.5545
 9109TIP3    H148818   4.364   1.312   2.890  0.1474 -1.3145 -0.0935
 9109TIP3    H248819   4.501   1.278   2.943 -0.1432  0.7482  2.1477
 9110TIP3   OH248820   6.219   6.507  14.839  0.2717  0.6735  0.0053
 9110TIP3    H148821   6.134   6.516  14.883 -0.1827 -0.4077 -0.5933
 9110TIP3    H248822   6.254   6.424  14.870 -0.6833 -0.8310 -2.5502
 9111TIP3   OH248823   3.721   5.047   4.883 -0.0227  0.3695  0.3634
 9111TIP3    H148824   3.785   5.072   4.816  0.2095 -1.0476  0.0077
 9111TIP3    H248825   3.660   4.990   4.837 -0.3918  0.1193  1.1527
 9112TIP3   OH248826   5.688   0.885  15.077 -0.3929 -0.4739  0.4312
 9112TIP3    H148827   5.621   0.853  15.016  0.8684 -2.7543  0.1246
 9112TIP3    H248828   5.741   0.944  15.024 -0.3902 -1.0100 -0.1769
 9113TIP3   OH248829   0.424   3.156  15.689 -0.0672  0.0002 -0.1467
 9113TIP3    H148830   0.356   3.180  15.625 -1.4502 -0.7649  0.9735
 9113TIP3    H248831   0.375   3.135  15.768  1.5059 -0.6464  0.6837
 9114TIP3   OH248832   1.492   4.574  13.071  0.2193 -0.4772  0.1187
 9114TIP3    H148833   1.492   4.574  13.167  0.8695  1.1288  0.1475
 9114TIP3    H248834   1.557   4.508  13.047 -1.1991 -2.1525  0.7303
 9115TIP3   OH248835   6.381   6.518  13.906 -0.8411  0.1541  0.0028
 9115TIP3    H148836   6.358   6.477  13.989  0.6256  0.3427  0.5325
 9115TIP3    H248837   6.422   6.447  13.855 -0.5849  0.3440 -0.0578
 9116TIP3   OH248838   6.031   5.686   3.737  0.7803  0.3205 -0.8260
 9116TIP3    H148839   6.006   5.652   3.823 -0.9661 -2.3867 -2.2596
 9116TIP3    H248840   6.123   5.713   3.748  1.2588 -1.8122  1.3968
 9117TIP3   OH248841   3.210   6.095  11.743 -0.2661 -0.6488  0.1033
 9117TIP3    H148842   3.126   6.050  11.731  0.2195 -1.4058 -0.5578
 9117TIP3    H248843   3.193   6.159  11.812 -1.7612  0.1871 -0.9650
 9118TIP3   OH248844   5.024   1.275   4.350 -0.0911 -0.3743  0.1080
 9118TIP3    H148845   4.928   1.281   4.347 -0.4021 -3.6689 -1.4649
 9118TIP3    H248846   5.047   1.307   4.437 -2.2560  3.1171 -0.4186
 9119TIP3   OH248847   2.918   3.101  13.742  0.1816 -0.2236  0.0718
 9119TIP3    H148848   2.904   3.143  13.827  0.8488  1.8902 -0.8068
 9119TIP3    H248849   2.851   3.139  13.685  1.4686  0.5100 -1.0146
 9120TIP3   OH248850   0.539   3.338   5.572 -0.2920 -0.2005  0.3288
 9120TIP3    H148851   0.473   3.276   5.540 -0.4606 -0.5638  1.3468
 9120TIP3    H248852   0.495   3.384   5.643 -0.2020  1.1791 -0.4867
 9121TIP3   OH248853   4.612   4.348   5.700  0.2060 -0.1549  0.0050
 9121TIP3    H148854   4.702   4.350   5.731  0.0309  0.1172  0.5138
 9121TIP3    H248855   4.561   4.317   5.775  0.0155 -1.5129 -0.6419
 9122TIP3   OH248856   4.107   6.601  16.824 -0.8448  0.0462  0.5167
 9122TIP3    H148857   4.039   6.607  16.892  1.3558  1.7866  2.7240
 9122TIP3    H248858   4.080   6.526  16.771 -3.1064 -0.9485  2.8196
 9123TIP3   OH248859   0.651   5.498   2.176 -0.5331 -0.3146 -0.0217
 9123TIP3    H148860   0.676   5.524   2.087 -1.1603 -0.4692 -0.2471
 9123TIP3    H248861   0.685   5.410   2.187 -1.5031 -0.7646 -0.5519
 9124TIP3   OH248862   2.990   1.955  15.386  0.7889  0.6148 -0.5604
 9124TIP3    H148863   2.901   1.946  15.421  0.4074  1.2420 -1.3458
 9124TIP3    H248864   3.047   1.927  15.458 -0.0521 -0.0894 -0.1576
 9125TIP3   OH248865   4.031   3.149   2.854 -0.1155  0.1407 -0.2778
 9125TIP3    H148866   3.992   3.110   2.932 -1.8160  1.5736 -0.3512
 9125TIP3    H248867   4.050   3.240   2.879  1.0520  0.1019 -0.9740
 9126TIP3   OH248868   4.854   2.986   3.628 -0.0467 -0.4120 -0.3411
 9126TIP3    H148869   4.836   2.965   3.720 -0.2877  0.0209 -0.2872
 9126TIP3    H248870   4.861   3.082   3.626  1.1996 -0.4867 -0.5508
 9127TIP3   OH248871   5.135   6.596   0.292  0.3402 -0.1505  0.3412
 9127TIP3    H148872   5.217   6.595   0.241  0.0427  0.8214 -0.1975
 9127TIP3    H248873   5.102   6.686   0.281 -0.5337 -0.3825  0.9817
 9128TIP3   OH248874   3.086   6.061   5.064  0.0941 -0.1626 -0.4037
 9128TIP3    H148875   3.110   6.110   5.143  0.1534  0.2810 -0.6943
 9128TIP3    H248876   3.041   6.124   5.009  0.2156 -0.4213 -0.8085
 9129TIP3   OH248877   0.035   1.757   1.868 -0.2328  0.1078  0.1135
 9129TIP3    H148878  -0.003   1.669   1.859 -1.0734  0.5499 -0.9551
 9129TIP3    H248879   0.129   1.743   1.866 -0.3581 -0.7431 -0.4959
 9130TIP3   OH248880   2.234   2.385   4.578  0.3787  0.6987 -0.2493
 9130TIP3    H148881   2.169   2.420   4.517  1.2554  3.8709  0.4447
 9130TIP3    H248882   2.192   2.391   4.664  0.3288 -0.7125 -0.1451
 9131TIP3   OH248883   5.187   2.876   3.858  0.3473 -0.0644 -0.3598
 9131TIP3    H148884   5.232   2.805   3.903 -1.3516 -0.3894  0.9401
 9131TIP3    H248885   5.104   2.838   3.830 -0.3376  1.2347 -0.1596
 9132TIP3   OH248886   0.606   5.986   1.812 -1.3816 -0.7515  0.3741
 9132TIP3    H148887   0.545   6.040   1.762 -0.0771 -0.8156 -1.4177
 9132TIP3    H248888   0.636   6.042   1.883 -0.4616  0.7663 -1.1351
 9133TIP3   OH248889   0.319   0.433  13.567 -0.2447 -0.0621 -0.0420
 9133TIP3    H148890   0.323   0.519  13.608 -1.3382  1.3242 -2.6669
 9133TIP3    H248891   0.232   0.427  13.529  0.0330 -2.0730 -0.5148
 9134TIP3   OH248892   1.967   5.843  12.798  0.1442  0.2625  0.4886
 9134TIP3    H148893   1.942   5.751  12.809  0.4805  0.1871  0.6039
 9134TIP3    H248894   1.949   5.883  12.883  1.1335  0.0431  0.8121
 9135TIP3   OH248895   1.221   3.539  12.225 -0.1690 -0.5880  0.0716
 9135TIP3    H148896   1.174   3.544  12.141  0.2019 -0.7078 -0.1460
 9135TIP3    H248897   1.152   3.540  12.291 -0.4620 -0.3730 -0.2315
 9136TIP3   OH248898   1.717   5.505  11.970 -0.1365 -0.3230 -0.2094
 9136TIP3    H148899   1.740   5.533  12.058 -2.1122  0.2015  0.1907
 9136TIP3    H248900   1.800   5.478  11.931  0.8172 -0.3141  1.7012
 9137TIP3   OH248901   0.510   1.559   1.482 -0.0432 -0.7209 -0.1730
 9137TIP3    H148902   0.550   1.561   1.395  0.1412  0.0888 -0.0805
 9137TIP3    H248903   0.574   1.516   1.538  0.1365 -0.6078 -0.2936
 9138TIP3   OH248904   2.644   5.801  12.369 -0.2237  0.1176 -0.4244
 9138TIP3    H148905   2.622   5.847  12.289  1.2808 -0.2719 -1.0895
 9138TIP3    H248906   2.568   5.745  12.386 -0.6691  0.3980 -1.4317
 9139TIP3   OH248907   3.052   2.220  17.172 -0.5081  0.1861  0.5921
 9139TIP3    H148908   2.998   2.283  17.220  0.7539  0.5265  1.6345
 9139TIP3    H248909   3.070   2.151  17.236 -0.9818 -0.7114 -0.2190
 9140TIP3   OH248910   6.565   3.597   5.101 -0.0513 -0.2814  0.4238
 9140TIP3    H148911   6.617   3.656   5.046 -0.5470 -0.2764 -0.0471
 9140TIP3    H248912   6.629   3.552   5.155  0.4012  0.1044  0.2158
 9141TIP3   OH248913   6.712   0.940  14.326  0.0371 -0.2571  0.3498
 9141TIP3    H148914   6.698   1.034  14.313  2.7666  0.3794  1.2893
 9141TIP3    H248915   6.713   0.904  14.238  0.1668  0.8037 -0.1039
 9142TIP3   OH248916   5.930   5.527  15.722  0.4300 -0.3114 -0.2927
 9142TIP3    H148917   5.957   5.592  15.787  0.6250  1.4396 -2.0138
 9142TIP3    H248918   5.953   5.443  15.760  1.1184  0.6859  1.6075
 9143TIP3   OH248919   5.067   3.475   0.638  0.6627 -0.1295 -0.1287
 9143TIP3    H148920   5.007   3.479   0.564  1.4342 -1.9360 -0.8981
 9143TIP3    H248921   5.010   3.454   0.713 -0.0260  1.0239 -0.3054
 9144TIP3   OH248922   1.183   6.583  13.011 -0.4346  0.2142  0.1744
 9144TIP3    H148923   1.245   6.596  13.084 -0.3180  1.2188 -0.0801
 9144TIP3    H248924   1.156   6.492  13.018  1.0737 -0.2615  0.3098
 9145TIP3   OH248925   1.126   0.961  12.217 -0.1071 -0.6001 -0.0530
 9145TIP3    H148926   1.121   0.997  12.305 -0.0935 -0.9882  0.1093
 9145TIP3    H248927   1.117   1.037  12.159 -1.6014 -0.5055  0.2653
 9146TIP3   OH248928   6.309   6.133   3.229  0.2646  0.0246  0.0710
 9146TIP3    H148929   6.228   6.181   3.241  0.1392 -0.4047  1.0709
 9146TIP3    H248930   6.286   6.058   3.174  0.3659  0.8361 -1.1036
 9147TIP3   OH248931   4.083   1.699  14.535  0.2959  0.3822 -0.0878
 9147TIP3    H148932   4.006   1.680  14.482  0.9829  0.9115 -1.3077
 9147TIP3    H248933   4.069   1.649  14.616 -1.0707  0.0686 -0.4918
 9148TIP3   OH248934   3.232   5.721  11.087  0.1467  0.4917  0.4609
 9148TIP3    H148935   3.210   5.716  10.994 -2.2161  2.1425  0.8438
 9148TIP3    H248936   3.327   5.730  11.089  0.3174 -0.2297 -1.7387
 9149TIP3   OH248937   6.438   5.821   2.948 -0.0086  0.2608  0.0650
 9149TIP3    H148938   6.509   5.879   2.974  0.4745  0.0427 -0.7226
 9149TIP3    H248939   6.429   5.759   3.020  1.1533 -0.2024 -0.1678
 9150TIP3   OH248940   2.383   5.588  17.381 -0.2137  0.1386  0.6007
 9150TIP3    H148941   2.439   5.512  17.395  0.0722  0.3761  0.7525
 9150TIP3    H248942   2.326   5.591  17.458 -2.1973 -1.5851 -0.6726
 9151TIP3   OH248943   5.753   3.844  12.338 -0.1624 -0.2242 -0.0253
 9151TIP3    H148944   5.756   3.772  12.276 -0.4044 -0.7577  0.5782
 9151TIP3    H248945   5.715   3.917  12.289  0.7261 -0.2944 -0.8420
 9152TIP3   OH248946   6.019   3.599  15.110 -0.2023  0.6755  0.0684
 9152TIP3    H148947   6.072   3.520  15.119 -2.0304 -0.5887  0.2908
 9152TIP3    H248948   6.024   3.621  15.017  0.5150  0.4596  0.0500
 9153TIP3   OH248949   1.292   5.980  16.482 -0.2254  0.3455 -0.2522
 9153TIP3    H148950   1.253   6.057  16.525  0.7308  0.8980 -0.3613
 9153TIP3    H248951   1.347   6.016  16.413  1.1541 -0.3737  0.4348
 9154TIP3   OH248952   2.647   4.655   3.224  0.0132  0.4574 -0.3054
 9154TIP3    H148953   2.675   4.564   3.239 -0.6097  0.2068 -0.6143
 9154TIP3    H248954   2.621   4.657   3.132  0.8468  1.1799 -0.5371
 9155TIP3   OH248955   2.430   0.754  14.518  0.0017  0.3284 -0.1477
 9155TIP3    H148956   2.395   0.708  14.594 -0.4312  2.1961  0.8506
 9155TIP3    H248957   2.373   0.729  14.446 -0.5397 -0.2734  0.4768
 9156TIP3   OH248958   6.559   6.231   2.851  0.4537  0.3148  0.5587
 9156TIP3    H148959   6.587   6.203   2.763  0.0490 -1.6783  1.0266
 9156TIP3    H248960   6.539   6.150   2.897 -1.2063  1.4295  1.8992
 9157TIP3   OH248961   3.110   2.501   2.667  0.2139  0.2597  0.2744
 9157TIP3    H148962   3.097   2.513   2.761  0.1253 -1.3450  0.4844
 9157TIP3    H248963   3.080   2.583   2.629 -0.6981  0.5691  1.5671
 9158TIP3   OH248964   0.490   0.190   5.000  0.1285 -0.6442  0.3901
 9158TIP3    H148965   0.546   0.117   5.027 -1.5346 -1.7500  1.0135
 9158TIP3    H248966   0.437   0.209   5.077 -2.5961 -1.7993 -1.0690
 9159TIP3   OH248967   0.170   6.792   4.376 -0.3871 -0.4713  0.0604
 9159TIP3    H148968   0.169   6.775   4.282 -0.8137 -0.1633  0.0070
 9159TIP3    H248969   0.261   6.776   4.402 -0.1086  0.0928 -0.5215
 9160TIP3   OH248970   4.476   4.239   3.223 -0.1110  0.1132  0.9104
 9160TIP3    H148971   4.396   4.287   3.200  0.8582  1.0077 -0.7942
 9160TIP3    H248972   4.470   4.157   3.175  0.0754  0.2633  0.6280
 9161TIP3   OH248973   6.147   6.548  14.178 -0.0763 -0.1813  0.3992
 9161TIP3    H148974   6.104   6.552  14.264  0.1152 -2.8735  0.7028
 9161TIP3    H248975   6.192   6.464  14.178  0.2216 -0.0917 -2.2332
 9162TIP3   OH248976   3.169   0.555  16.003  0.9435 -0.5596 -0.0334
 9162TIP3    H148977   3.119   0.480  15.971 -0.7968  0.7076 -0.4239
 9162TIP3    H248978   3.186   0.607  15.924 -1.9999  1.7891  0.6950
 9163TIP3   OH248979   2.655   4.521   4.997  0.4028  0.1749 -0.0865
 9163TIP3    H148980   2.617   4.488   4.916  3.4208 -2.2132 -0.7115
 9163TIP3    H248981   2.732   4.571   4.969  0.4748  0.8906  1.2680
 9164TIP3   OH248982   3.341   2.780   0.686 -0.0259 -0.0528  0.2012
 9164TIP3    H148983   3.372   2.703   0.732  1.1268  0.6204  0.5893
 9164TIP3    H248984   3.249   2.787   0.709  0.2303 -0.4505  1.3769
 9165TIP3   OH248985   1.846   1.854   2.671  0.3783 -0.1783 -0.1298
 9165TIP3    H148986   1.802   1.801   2.737  0.8145 -1.3292 -0.7312
 9165TIP3    H248987   1.896   1.791   2.619 -0.4201  0.6044 -1.9281
 9166TIP3   OH248988   4.317   2.549  16.651 -0.0118  0.1294 -0.2672
 9166TIP3    H148989   4.224   2.530  16.639 -0.1677  0.9986 -0.4802
 9166TIP3    H248990   4.362   2.474  16.611 -0.6101 -1.9031  2.6122
 9167TIP3   OH248991   5.087   5.413   2.369  0.1320  0.0596  0.5555
 9167TIP3    H148992   5.076   5.373   2.455 -0.6666  1.3010  1.0617
 9167TIP3    H248993   5.120   5.501   2.388 -0.2787  0.4291 -0.3976
 9168TIP3   OH248994   4.734   1.421   4.660 -0.1153  0.2736  0.0139
 9168TIP3    H148995   4.752   1.329   4.639 -0.7207  0.2301 -0.3356
 9168TIP3    H248996   4.815   1.467   4.636 -0.3091  0.0314 -1.1847
 9169TIP3   OH248997   3.066   5.378  13.682 -0.3041 -0.0733 -0.0044
 9169TIP3    H148998   3.154   5.360  13.718 -0.7342 -1.5578  0.3976
 9169TIP3    H248999   3.007   5.331  13.741 -1.3951  1.0088 -0.2060
 9170TIP3   OH249000   4.990   4.507  15.790  0.1589 -0.2138  0.4103
 9170TIP3    H149001   5.032   4.437  15.740  1.1599  0.5845  0.1025
 9170TIP3    H249002   5.008   4.486  15.882 -0.3463 -0.8425  0.3756
 9171TIP3   OH249003   0.643   0.459   0.040 -0.2537  0.7369  0.2276
 9171TIP3    H149004   0.645   0.391   0.107  0.5690 -0.6436 -1.1254
 9171TIP3    H249005   0.682   0.418  -0.037 -0.5988  2.4579 -0.9287
 9172TIP3   OH249006   4.300   3.194   0.470  0.1519  0.1714  0.4651
 9172TIP3    H149007   4.388   3.214   0.438 -0.5930  2.9391 -0.1399
 9172TIP3    H249008   4.282   3.105   0.438  2.1204  0.1429 -0.7320
 9173TIP3   OH249009   1.812   3.417  11.674 -0.3138 -0.8983  0.1754
 9173TIP3    H149010   1.811   3.450  11.584 -3.1720  0.0998  0.4596
 9173TIP3    H249011   1.891   3.454  11.713 -1.9911  3.9019 -0.2529
 9174TIP3   OH249012   4.667   5.632  17.115  0.1825  0.0455 -0.0960
 9174TIP3    H149013   4.653   5.691  17.188  0.5882 -0.8178  0.7109
 9174TIP3    H249014   4.698   5.688  17.044 -1.1936  1.0455  0.0515
 9175TIP3   OH249015   1.793   4.574  15.530  0.2047  0.6296  0.0791
 9175TIP3    H149016   1.827   4.542  15.446 -0.1392 -0.8699  0.4780
 9175TIP3    H249017   1.869   4.575  15.588 -0.2017 -2.3635  0.8663
 9176TIP3   OH249018   2.517   0.999  11.654 -0.3258  0.0776 -0.3748
 9176TIP3    H149019   2.607   1.013  11.683 -0.4417 -0.6248  0.3291
 9176TIP3    H249020   2.466   1.064  11.703 -0.3105 -0.0393 -0.2061
 9177TIP3   OH249021   5.037   2.864  12.541  0.0649  0.1394  0.3678
 9177TIP3    H149022   5.026   2.910  12.458  1.0993 -1.1840 -0.5459
 9177TIP3    H249023   5.057   2.774  12.516 -0.4590 -0.4868  2.0769
 9178TIP3   OH249024   1.176   3.601  17.137  0.1106  0.1234 -0.0775
 9178TIP3    H149025   1.169   3.572  17.046 -1.8264 -2.6774  0.7956
 9178TIP3    H249026   1.103   3.661  17.149  1.2307  1.6511 -0.6818
 9179TIP3   OH249027   6.194   4.642   1.587 -0.0135  0.1486 -0.1617
 9179TIP3    H149028   6.130   4.713   1.575 -0.7445 -0.4632  0.0381
 9179TIP3    H249029   6.169   4.576   1.523 -0.1223 -0.4729  0.5111
 9180TIP3   OH249030   0.585   3.421   6.502  0.7308 -0.2335  0.5005
 9180TIP3    H149031   0.635   3.498   6.527 -0.8860  0.7976  0.6859
 9180TIP3    H249032   0.517   3.455   6.443  1.4436 -1.8774 -1.3831
 9181TIP3   OH249033   2.867   1.601  15.890 -0.0362 -0.2176 -0.1567
 9181TIP3    H149034   2.792   1.543  15.902 -0.2476  0.1906  0.5664
 9181TIP3    H249035   2.934   1.545  15.850  0.5611 -1.6502  2.5284
 9182TIP3   OH249036   6.496   1.197  14.507 -0.5437 -0.1212 -0.6131
 9182TIP3    H149037   6.575   1.175  14.556 -0.1922  0.6487 -0.8087
 9182TIP3    H249038   6.529   1.229  14.423 -1.1176 -0.9230 -1.1544
 9183TIP3   OH249039   3.145   2.322   3.734 -0.2145 -0.0143  1.0686
 9183TIP3    H149040   3.140   2.269   3.813  1.1039 -1.5708  0.1763
 9183TIP3    H249041   3.198   2.398   3.760  0.6517 -0.7690  1.5554
 9184TIP3   OH249042   6.054   5.941   1.383  0.0257  0.0033  0.1725
 9184TIP3    H149043   5.994   5.936   1.458  1.4925  1.4767  1.5398
 9184TIP3    H249044   6.034   6.026   1.342 -0.4211 -0.5703 -0.8242
 9185TIP3   OH249045   6.233   3.605  13.424 -0.5697  0.1070 -0.3720
 9185TIP3    H149046   6.168   3.661  13.381  0.0557  1.7821  0.7624
 9185TIP3    H249047   6.209   3.609  13.517 -0.2737 -1.2347 -0.2248
 9186TIP3   OH249048   3.308   3.598  12.218  0.8076  0.2995 -0.4446
 9186TIP3    H149049   3.242   3.570  12.281 -0.4197  1.2581 -1.2422
 9186TIP3    H249050   3.276   3.566  12.134  2.5927 -1.2658 -0.6130
 9187TIP3   OH249051   2.503   0.833  16.123  0.3826 -0.0809 -0.2264
 9187TIP3    H149052   2.475   0.757  16.174  3.7018 -2.2986 -1.4218
 9187TIP3    H249053   2.535   0.895  16.189  1.5703 -1.5300  0.6334
 9188TIP3   OH249054   6.322   1.546  13.958  0.0631 -0.6670  0.3846
 9188TIP3    H149055   6.244   1.531  14.011  0.2408  0.5600  1.0304
 9188TIP3    H249056   6.301   1.508  13.873 -1.1022 -0.6664  0.6570
 9189TIP3   OH249057   4.003   5.427   3.541 -0.2212  0.6741  0.4554
 9189TIP3    H149058   3.966   5.445   3.455  0.2702  1.0906  0.3244
 9189TIP3    H249059   3.927   5.421   3.599 -0.5538  0.3733 -0.0089
 9190TIP3   OH249060   2.436   4.930   2.854 -0.7281 -0.3913 -0.3250
 9190TIP3    H149061   2.376   4.947   2.781 -1.0860 -2.4678 -0.5816
 9190TIP3    H249062   2.413   4.996   2.920  0.7519  2.7234 -2.6258
 9191TIP3   OH249063   3.895   0.532  14.629 -0.0435  0.0440 -0.1365
 9191TIP3    H149064   3.980   0.513  14.590 -0.0832  0.6376 -0.5315
 9191TIP3    H249065   3.873   0.453  14.678  0.7086 -0.1336 -0.0713
 9192TIP3   OH249066   1.134   1.573  11.952 -0.4229 -0.3119 -0.2279
 9192TIP3    H149067   1.092   1.505  12.005 -0.4451  0.6957  1.0946
 9192TIP3    H249068   1.227   1.565  11.973 -0.3617 -0.2802 -0.4853
 9193TIP3   OH249069   0.453   1.280  14.512 -0.4426  0.1192 -0.4266
 9193TIP3    H149070   0.476   1.371  14.526 -1.3074  0.0545  1.8780
 9193TIP3    H249071   0.357   1.277  14.518 -0.3602 -1.4192  4.2444
 9194TIP3   OH249072   1.180   5.903  13.024  0.4257  0.2786 -0.3782
 9194TIP3    H149073   1.249   5.875  12.964  0.1377  1.1902 -1.1542
 9194TIP3    H249074   1.221   5.966  13.082  0.8171 -0.9246  0.7154
 9195TIP3   OH249075   3.916   3.380   4.490  0.0827  0.5999  0.2164
 9195TIP3    H149076   3.996   3.327   4.490  0.3505  0.9047  2.8672
 9195TIP3    H249077   3.869   3.352   4.568 -1.2995  2.0634 -0.0517
 9196TIP3   OH249078   4.111   1.836   1.042 -0.3836 -0.3529  0.0784
 9196TIP3    H149079   4.134   1.792   0.961 -0.9301 -0.6956  0.1049
 9196TIP3    H249080   4.127   1.770   1.110 -0.5595 -0.2877  0.1831
 9197TIP3   OH249081   5.540   5.233   1.266 -0.3858 -0.3951 -0.2752
 9197TIP3    H149082   5.500   5.262   1.183  0.0827 -0.6990 -0.6151
 9197TIP3    H249083   5.588   5.310   1.297 -1.0528 -0.0957  0.0233
 9198TIP3   OH249084   2.526   1.535   2.013  0.5122  0.1063  0.0029
 9198TIP3    H149085   2.558   1.545   2.102  1.1273  1.4287 -0.3475
 9198TIP3    H249086   2.521   1.624   1.978  1.7738 -0.4443 -1.7750
 9199TIP3   OH249087   4.220   6.696  14.714  0.4486  0.7769  0.4984
 9199TIP3    H149088   4.302   6.736  14.743  1.1152  0.1067 -0.4055
 9199TIP3    H249089   4.158   6.769  14.713  0.5510  0.9618  2.8884
 9200TIP3   OH249090   1.340   3.826   4.821  0.2360 -0.5413 -0.7642
 9200TIP3    H149091   1.343   3.823   4.917 -0.4394  0.4320 -0.6905
 9200TIP3    H249092   1.390   3.903   4.798 -2.5540  1.3944 -0.9203
 9201TIP3   OH249093   4.701   1.667   4.479  0.0240  0.6369 -0.4813
 9201TIP3    H149094   4.693   1.756   4.514  0.4260  0.2354  0.6831
 9201TIP3    H249095   4.630   1.618   4.521  1.4717 -0.2367  1.0836
 9202TIP3   OH249096   5.736   4.192   0.490 -0.3742 -0.0318 -0.3340
 9202TIP3    H149097   5.764   4.185   0.399  0.0265 -0.8163 -0.1636
 9202TIP3    H249098   5.646   4.158   0.491  0.7570 -3.4577  0.0863
 9203TIP3   OH249099   0.518   2.653  11.699  0.6489  0.2554  0.5639
 9203TIP3    H149100   0.545   2.697  11.779  2.0852  0.2479  0.1150
 9203TIP3    H249101   0.445   2.598  11.725  0.1507  1.3439  1.5570
 9204TIP3   OH249102   0.355   3.466  15.385  0.0587  0.3860 -0.4387
 9204TIP3    H149103   0.428   3.414  15.419 -0.5232 -0.0096  0.2254
 9204TIP3    H249104   0.340   3.431  15.297 -0.8165 -1.1147  0.2691
 9205TIP3   OH249105   4.897   1.420  16.477 -0.3533 -0.6959  0.1210
 9205TIP3    H149106   4.846   1.433  16.397  0.4600 -0.8132 -0.4379
 9205TIP3    H249107   4.934   1.332  16.468  0.4959 -0.3614  0.1669
 9206TIP3   OH249108   0.407   0.672  11.446 -0.6494  0.2712 -0.1159
 9206TIP3    H149109   0.399   0.674  11.541 -1.1835  0.8720 -0.1651
 9206TIP3    H249110   0.443   0.757  11.423 -0.3499  0.0601 -0.4403
 9207TIP3   OH249111   3.371   0.385   1.231 -0.2507 -0.2563 -0.4035
 9207TIP3    H149112   3.432   0.455   1.208 -0.3172  0.0486  0.3228
 9207TIP3    H249113   3.343   0.406   1.321 -0.6563 -0.9361 -0.3656
 9208TIP3   OH249114   0.683   1.960   1.737 -0.0504 -0.6354 -0.0488
 9208TIP3    H149115   0.683   1.999   1.650  0.3872 -1.3540 -0.3734
 9208TIP3    H249116   0.690   2.035   1.797 -2.9400  0.1435 -0.4896
 9209TIP3   OH249117   5.826   1.862  14.806  0.3611 -0.3549 -0.1420
 9209TIP3    H149118   5.782   1.810  14.739  0.2213  1.1278 -1.2427
 9209TIP3    H249119   5.855   1.941  14.760  1.0445  0.3019  1.3538
 9210TIP3   OH249120   5.077   5.075   0.585 -0.0007 -0.3500  0.0459
 9210TIP3    H149121   5.135   5.145   0.616  1.5955 -2.0612  1.1650
 9210TIP3    H249122   5.122   4.994   0.609 -2.7209 -1.8063  0.6197
 9211TIP3   OH249123   1.750   1.455  14.236  0.5322  0.3819  0.3414
 9211TIP3    H149124   1.811   1.528  14.235  1.1428 -0.1276  0.1248
 9211TIP3    H249125   1.733   1.439  14.329  1.1262  0.1936  0.4189
 9212TIP3   OH249126   3.859   6.459   5.797 -0.1679 -0.5381  0.3981
 9212TIP3    H149127   3.898   6.528   5.743 -4.1652  1.6782 -0.0450
 9212TIP3    H249128   3.833   6.392   5.735 -0.1602 -0.3944  0.2381
 9213TIP3   OH249129   1.885   1.706  16.884  0.5866 -0.2438  0.1663
 9213TIP3    H149130   1.933   1.672  16.959  0.2377 -1.5949 -0.1992
 9213TIP3    H249131   1.950   1.754  16.833  1.5037 -1.7993 -0.1687
 9214TIP3   OH249132   1.058   3.011  11.478  0.5029  0.3439  0.1581
 9214TIP3    H149133   1.009   3.093  11.484  1.3751  0.8312  0.8167
 9214TIP3    H249134   1.039   2.966  11.560  0.9357  0.4078  0.2936
 9215TIP3   OH249135   1.439   3.400   6.517  0.6324 -0.1378  0.1648
 9215TIP3    H149136   1.428   3.466   6.447  0.3402  0.0570  0.3925
 9215TIP3    H249137   1.526   3.418   6.552  0.3559  0.4678  0.5686
 9216TIP3   OH249138   0.587   1.949   4.160 -0.0490  0.1264 -0.4250
 9216TIP3    H149139   0.578   1.860   4.194  0.3608 -0.0684 -0.8185
 9216TIP3    H249140   0.649   1.941   4.088  0.6331  0.8617  0.0523
 9217TIP3   OH249141   0.767   5.177   4.668 -0.1342 -0.4008  0.1324
 9217TIP3    H149142   0.717   5.096   4.680  0.1893 -0.7743 -0.8947
 9217TIP3    H249143   0.703   5.240   4.634 -1.3611  1.0375  4.4556
 9218TIP3   OH249144   5.265   4.489  16.780 -0.2351  0.4685  0.2600
 9218TIP3    H149145   5.311   4.407  16.797  0.0057  1.0745  2.8156
 9218TIP3    H249146   5.316   4.531  16.710  2.7428  0.7437  2.3974
 9219TIP3   OH249147   2.896   3.295   5.355  0.2216 -0.2074  0.3201
 9219TIP3    H149148   2.896   3.263   5.445 -0.5441 -0.0893  0.3689
 9219TIP3    H249149   2.900   3.390   5.364  1.5077 -0.2237  0.1922
 9220TIP3   OH249150   3.532   6.759   4.409  0.5860 -0.9939  0.4041
 9220TIP3    H149151   3.514   6.772   4.316 -0.0493  2.9977  0.9114
 9220TIP3    H249152   3.614   6.805   4.425  0.1719 -0.7440  1.9991
 9221TIP3   OH249153   2.193   0.569   3.001  0.2390 -0.1978 -0.2028
 9221TIP3    H149154   2.216   0.543   2.912  0.9511 -0.4143  0.0419
 9221TIP3    H249155   2.265   0.623   3.031 -0.2976  0.4040  0.0212
 9222TIP3   OH249156   1.781   4.914  15.724  0.1225  0.3336 -0.3118
 9222TIP3    H149157   1.866   4.900  15.682  1.0115  2.8385  0.4399
 9222TIP3    H249158   1.788   4.873  15.810  1.2871  1.9913  0.4358
 9223TIP3   OH249159   2.016   6.480   1.703  0.0712  0.2549 -0.4738
 9223TIP3    H149160   1.983   6.435   1.781 -1.3761 -0.9692 -1.7290
 9223TIP3    H249161   2.081   6.421   1.667  0.9204  0.9348 -0.0909
 9224TIP3   OH249162   5.248   2.080  14.415  0.4980 -0.3039  0.1889
 9224TIP3    H149163   5.315   2.064  14.349  0.4316  2.5008 -0.7050
 9224TIP3    H249164   5.282   2.039  14.494  2.5161 -0.3363 -0.6328
 9225TIP3   OH249165   5.675   6.574   2.813  0.1521 -0.5687 -0.1936
 9225TIP3    H149166   5.745   6.508   2.812 -0.1953 -0.9301 -1.1233
 9225TIP3    H249167   5.720   6.655   2.838  0.9362 -0.7594 -0.9390
 9226TIP3   OH249168   1.548   5.719  12.999 -0.4268  0.3263 -0.0476
 9226TIP3    H149169   1.486   5.761  12.940 -0.4903  0.9587  0.4660
 9226TIP3    H249170   1.623   5.698  12.943 -1.2580 -0.8449 -0.7707
 9227TIP3   OH249171   2.395   2.205   4.490  1.0257  0.3792 -0.4782
 9227TIP3    H149172   2.350   2.265   4.550  1.5635  0.9310 -0.6188
 9227TIP3    H249173   2.332   2.134   4.475  0.6992  0.4811  0.3478
 9228TIP3   OH249174   1.477   2.524   2.061 -0.5637  0.3779 -0.4068
 9228TIP3    H149175   1.491   2.603   2.114 -0.1919  0.4490 -0.6142
 9228TIP3    H249176   1.529   2.538   1.982  1.9297 -1.3573  0.8105
 9229TIP3   OH249177   4.714   3.758  14.078  0.7183 -0.1490 -0.2236
 9229TIP3    H149178   4.636   3.813  14.085  0.7974 -0.0662  0.0037
 9229TIP3    H249179   4.757   3.787  13.998  1.1670  0.6369  0.3044
 9230TIP3   OH249180   0.009   2.793  16.742  0.0487 -0.4128 -0.2719
 9230TIP3    H149181  -0.049   2.859  16.702  1.2869  0.9333  0.0933
 9230TIP3    H249182  -0.039   2.763  16.819 -0.2299  0.6196 -0.0258
 9231TIP3   OH249183   2.771   5.256  15.233 -0.8160  0.1182 -0.8740
 9231TIP3    H149184   2.765   5.329  15.171  2.4393  2.6005  1.3579
 9231TIP3    H249185   2.753   5.296  15.318  0.0945 -1.8991  0.3367
 9232TIP3   OH249186   4.685   5.747  13.061  0.1681 -0.0732  0.1430
 9232TIP3    H149187   4.595   5.734  13.090 -0.0994  1.2735 -0.0502
 9232TIP3    H249188   4.677   5.794  12.978  1.0548  0.0044  0.0937
 9233TIP3   OH249189   3.364   1.483   3.758  0.0811 -0.2900 -0.1312
 9233TIP3    H149190   3.414   1.474   3.676 -1.1975 -0.6678 -0.9001
 9233TIP3    H249191   3.412   1.431   3.822  1.6434  0.7948 -0.3693
 9234TIP3   OH249192   4.872   2.270  12.118  0.6639 -0.3444 -0.1849
 9234TIP3    H149193   4.865   2.346  12.060 -1.6283 -0.1270  0.2863
 9234TIP3    H249194   4.898   2.306  12.203 -1.6176  0.1622  0.3657
 9235TIP3   OH249195   3.695   1.871  16.503  0.0274  0.0608 -0.1918
 9235TIP3    H149196   3.616   1.844  16.456 -1.2917  1.3714  1.1717
 9235TIP3    H249197   3.668   1.946  16.555  1.4866 -1.0508  2.3633
 9236TIP3   OH249198   2.335   3.171  16.139  0.3108 -0.1676 -0.6370
 9236TIP3    H149199   2.372   3.139  16.056 -1.4102 -0.4267 -1.3411
 9236TIP3    H249200   2.270   3.237  16.113 -0.3507 -0.3503  0.4878
 9237TIP3   OH249201   1.940   0.011  17.352 -0.7864 -0.2860 -0.1544
 9237TIP3    H149202   2.003  -0.061  17.346 -3.0079 -2.4400  0.6483
 9237TIP3    H249203   1.991   0.089  17.330  1.8618 -2.0106 -0.6451
 9238TIP3   OH249204   1.152   2.810  12.976 -0.4604 -0.1944 -0.1805
 9238TIP3    H149205   1.111   2.882  12.928 -0.1872 -0.2644 -0.5232
 9238TIP3    H249206   1.119   2.818  13.066 -2.2006 -0.9733 -0.7102
 9239TIP3   OH249207   2.896   4.280  13.513 -0.1161  0.2928  0.6850
 9239TIP3    H149208   2.939   4.205  13.555 -0.1524  0.6661  1.4053
 9239TIP3    H249209   2.963   4.349  13.514  0.2245  0.0108 -0.7937
 9240TIP3   OH249210   0.238   1.004   0.816 -0.6202  0.1660  0.4127
 9240TIP3    H149211   0.146   0.980   0.805 -0.2899 -0.5562 -0.9244
 9240TIP3    H249212   0.237   1.100   0.816 -1.3104  0.1739 -0.2866
 9241TIP3   OH249213   3.721   5.728   5.316 -0.5485 -0.0064  0.5001
 9241TIP3    H149214   3.753   5.720   5.226 -2.1390  0.5445 -0.1515
 9241TIP3    H249215   3.755   5.812   5.346 -0.6555  0.1715  0.1306
 9242TIP3   OH249216   5.446   0.000  12.596  0.4549 -0.3737 -0.0803
 9242TIP3    H149217   5.467  -0.062  12.526  0.6374  1.8969 -2.1875
 9242TIP3    H249218   5.526   0.006  12.648 -0.4777 -4.0605  2.1123
 9243TIP3   OH249219   2.843   2.210  14.631 -0.2879  0.4508 -0.3415
 9243TIP3    H149220   2.839   2.121  14.597  3.0867  0.5026 -1.2114
 9243TIP3    H249221   2.927   2.215  14.677 -0.8639  2.8828  0.6295
 9244TIP3   OH249222   0.928   1.134  17.367  0.2029 -0.5219  0.0262
 9244TIP3    H149223   0.950   1.149  17.459 -0.3945 -1.8523  0.4116
 9244TIP3    H249224   0.898   1.043  17.364 -0.9779 -0.1301 -1.2514
 9245TIP3   OH249225   0.325   5.907  12.137 -0.2965 -0.0433  0.3737
 9245TIP3    H149226   0.351   5.981  12.192  1.7246 -0.7966  0.4999
 9245TIP3    H249227   0.359   5.830  12.182 -3.4057 -1.2839  0.9010
 9246TIP3   OH249228   1.364   0.192   4.859  0.2058  0.0309  0.1523
 9246TIP3    H149229   1.387   0.208   4.951 -0.5630 -0.4950  0.4442
 9246TIP3    H249230   1.432   0.239   4.809  1.1772 -0.4608  0.9769
 9247TIP3   OH249231   1.235   1.887   6.266 -0.1104  0.0229 -0.0653
 9247TIP3    H149232   1.149   1.905   6.306  1.2860  3.2367  1.8449
 9247TIP3    H249233   1.287   1.850   6.338  0.7541  0.2040 -0.5865
 9248TIP3   OH249234   2.091   4.194   4.546 -0.2510 -0.1316 -0.4089
 9248TIP3    H149235   2.017   4.233   4.592 -0.5794 -0.7075 -0.4494
 9248TIP3    H249236   2.158   4.263   4.546 -0.3788  0.0062  0.5883
 9249TIP3   OH249237   5.209   6.336   0.632 -0.0654  0.3221 -0.1990
 9249TIP3    H149238   5.134   6.345   0.573  0.1682  3.4611 -0.1614
 9249TIP3    H249239   5.177   6.367   0.717 -0.0069 -2.8717  1.1450
 9250TIP3   OH249240   2.823   0.190   3.843  0.0900 -0.6469  0.0103
 9250TIP3    H149241   2.868   0.269   3.874  1.6337 -2.0373  1.5372
 9250TIP3    H249242   2.861   0.174   3.756  0.6777 -0.3980  0.2169
 9251TIP3   OH249243   1.578   3.726   2.032 -0.5866  0.1129  0.1453
 9251TIP3    H149244   1.533   3.654   2.076  1.0869 -0.1492  1.5357
 9251TIP3    H249245   1.573   3.798   2.094 -0.3013  0.5002 -0.2809
 9252TIP3   OH249246   1.396   1.294  15.145 -0.2153 -0.1934  0.2682
 9252TIP3    H149247   1.333   1.264  15.210  0.2778 -1.2758  0.2622
 9252TIP3    H249248   1.459   1.223  15.138  0.8513  0.7440  0.0629
 9253TIP3   OH249249   4.418   4.680   3.593 -0.8276 -0.5998 -0.2129
 9253TIP3    H149250   4.461   4.688   3.678 -0.7058 -1.4271 -0.1893
 9253TIP3    H249251   4.435   4.764   3.550  0.4965 -0.7531 -0.0532
 9254TIP3   OH249252   2.321   1.854  12.339 -0.0069  0.5851 -0.2432
 9254TIP3    H149253   2.259   1.784  12.357  0.6635  0.4005  1.5619
 9254TIP3    H249254   2.280   1.932  12.377  1.5687  0.1356  2.6871
 9255TIP3   OH249255   6.079   4.387   2.890  0.1647  0.1189  0.0622
 9255TIP3    H149256   6.009   4.388   2.825  1.3330  1.9808 -1.2649
 9255TIP3    H249257   6.074   4.300   2.929 -1.0515 -0.8214 -2.0149
 9256TIP3   OH249258   6.336   1.465  11.152 -0.6814 -0.2072  0.2466
 9256TIP3    H149259   6.368   1.381  11.119 -0.2849  0.4177 -1.0264
 9256TIP3    H249260   6.414   1.519  11.158 -1.3404  1.1219 -2.2140
 9257TIP3   OH249261   3.865   5.359  14.596 -0.6144  0.3694 -0.5009
 9257TIP3    H149262   3.844   5.270  14.622  0.9283 -0.1612 -0.9516
 9257TIP3    H249263   3.790   5.411  14.625 -1.4245 -1.0231 -0.0050
 9258TIP3   OH249264   1.275   0.981   2.178 -0.0727  0.9177 -0.4955
 9258TIP3    H149265   1.338   1.053   2.186 -1.1177  1.8310 -0.2169
 9258TIP3    H249266   1.312   0.911   2.231 -0.6556  2.4587  2.1718
 9259TIP3   OH249267   4.566   2.096  15.669  0.5704  0.4836 -0.2624
 9259TIP3    H149268   4.568   2.102  15.573 -0.0887  0.7730 -0.2612
 9259TIP3    H249269   4.651   2.129  15.697  1.3776 -1.0046 -0.8175
 9260TIP3   OH249270   1.127   1.111  12.489 -0.4096 -0.1284 -0.1524
 9260TIP3    H149271   1.139   1.045  12.558 -2.0396  0.5226  0.8301
 9260TIP3    H249272   1.174   1.188  12.521  1.0470 -0.6078 -1.0505
 9261TIP3   OH249273   5.996   6.725  14.981 -0.2000  0.4084  0.3494
 9261TIP3    H149274   5.966   6.802  15.029 -1.6520 -1.1766  2.1542
 9261TIP3    H249275   5.919   6.693  14.935 -0.0640 -0.8664  0.9524
 9262TIP3   OH249276   4.887   1.268  13.898 -0.1187 -0.0500 -0.2842
 9262TIP3    H149277   4.946   1.315  13.958  0.1192 -0.4717 -0.1839
 9262TIP3    H249278   4.916   1.177  13.902  0.1492 -0.0244 -1.3385
 9263TIP3   OH249279   0.235   5.781  12.987  0.0094  0.0430  0.2125
 9263TIP3    H149280   0.150   5.793  13.028  0.2079  0.8766  0.3974
 9263TIP3    H249281   0.232   5.836  12.908 -0.2373 -1.2589 -0.7044
 9264TIP3   OH249282   2.109   0.265  12.143 -0.5040  0.2808 -0.3745
 9264TIP3    H149283   2.160   0.346  12.148 -0.7141  0.4048 -0.2111
 9264TIP3    H249284   2.075   0.264  12.053  1.2407 -0.6994 -1.0552
 9265TIP3   OH249285   5.632   2.184   2.788 -0.3254  0.3561  0.7063
 9265TIP3    H149286   5.723   2.154   2.790 -0.7287 -0.9178  1.9190
 9265TIP3    H249287   5.585   2.117   2.739 -0.6059  1.0800 -0.0381
 9266TIP3   OH249288   5.051   5.136   2.727  0.2712 -0.2622  0.1478
 9266TIP3    H149289   5.122   5.073   2.720 -0.3564 -0.9002 -0.6234
 9266TIP3    H249290   5.033   5.143   2.821  0.0606 -1.5683  0.2184
 9267TIP3   OH249291   2.033   0.910   3.048 -0.2029 -0.5812  0.2794
 9267TIP3    H149292   2.073   0.993   3.075 -0.6767 -0.7153  1.4338
 9267TIP3    H249293   2.053   0.903   2.954 -1.3167  1.5104 -0.1823
 9268TIP3   OH249294   0.704   2.392   4.404 -1.1793  0.4363 -0.1469
 9268TIP3    H149295   0.672   2.303   4.390  0.5489 -0.2632  0.1402
 9268TIP3    H249296   0.633   2.435   4.452 -1.2426 -1.4441  1.6196
 9269TIP3   OH249297   2.325   4.760  11.662  0.0784  0.5608  0.2345
 9269TIP3    H149298   2.245   4.711  11.682  0.1534  1.4121  3.1358
 9269TIP3    H249299   2.311   4.846  11.701  1.4788  1.5457 -1.3197
 9270TIP3   OH249300   2.988   1.875  13.443  0.3989  0.2529  0.0876
 9270TIP3    H149301   3.035   1.804  13.399  0.6234  0.1448  0.4928
 9270TIP3    H249302   3.042   1.895  13.520 -0.4407 -0.1892  0.8224
 9271TIP3   OH249303   4.060   6.054  11.901  0.0255 -0.1034 -0.2733
 9271TIP3    H149304   4.146   6.076  11.935 -0.2548  0.7660 -0.0997
 9271TIP3    H249305   4.077   6.010  11.818  0.6553 -0.6971  0.1574
 9272TIP3   OH249306   2.600   4.868  17.139  0.9453  0.3153 -0.1114
 9272TIP3    H149307   2.619   4.780  17.107  1.4230 -0.5070  2.2018
 9272TIP3    H249308   2.684   4.901  17.169  0.1925 -0.2476  3.0214
 9273TIP3   OH249309   4.048   4.258  14.676 -0.2407  0.1168  0.0049
 9273TIP3    H149310   3.976   4.264  14.739 -0.8395  0.0392 -0.6581
 9273TIP3    H249311   4.123   4.231  14.728 -1.0280 -1.2766  0.4916
 9274TIP3   OH249312   1.775   6.253   0.106  0.3772 -0.4043 -0.7821
 9274TIP3    H149313   1.731   6.260   0.021 -0.2533 -0.8470 -0.5029
 9274TIP3    H249314   1.837   6.326   0.106  0.0402 -0.0988 -1.4220
 9275TIP3   OH249315   2.215   3.608  12.371 -0.3682 -0.2668 -0.2767
 9275TIP3    H149316   2.237   3.614  12.464 -1.7106 -2.1558  0.2266
 9275TIP3    H249317   2.299   3.617  12.326  0.2845  0.8492  1.0725
 9276TIP3   OH249318   4.750   2.642   1.472  0.4932 -0.6155 -0.3027
 9276TIP3    H149319   4.713   2.728   1.458  0.3307 -0.8535 -1.4208
 9276TIP3    H249320   4.832   2.658   1.519  0.9908  0.2415 -1.4318
 9277TIP3   OH249321   5.159   3.595  13.103 -0.2723  0.0632  0.5627
 9277TIP3    H149322   5.207   3.677  13.098 -1.0792  0.5794  1.1239
 9277TIP3    H249323   5.157   3.563  13.012  0.1346  0.6065  0.3591
 9278TIP3   OH249324   0.937   1.405   2.725 -0.2246  0.2640  0.1921
 9278TIP3    H149325   0.881   1.343   2.772 -1.1944 -0.2085 -1.4925
 9278TIP3    H249326   0.991   1.445   2.793 -2.5814  0.7435  1.9052
 9279TIP3   OH249327   4.587   0.679   0.430  0.0712  0.4360  0.3798
 9279TIP3    H149328   4.504   0.636   0.411  0.6866  0.2741 -2.3857
 9279TIP3    H249329   4.649   0.607   0.441  0.0900  0.5822  1.3554
 9280TIP3   OH249330   4.450   6.646   1.093 -0.1766  0.3859  0.1926
 9280TIP3    H149331   4.515   6.636   1.024  0.4876  3.6870  0.1954
 9280TIP3    H249332   4.499   6.676   1.169 -1.5936  3.1793  0.1345
 9281TIP3   OH249333   5.381   5.686  14.116 -0.2041 -0.4505 -0.0055
 9281TIP3    H149334   5.384   5.591  14.121  0.5837 -0.4098  0.4531
 9281TIP3    H249335   5.410   5.715  14.203  1.4140  0.2169 -0.7321
 9282TIP3   OH249336   3.737   0.511   2.634 -0.3250 -0.1092 -0.2284
 9282TIP3    H149337   3.771   0.562   2.707 -1.4667  0.4875 -0.1078
 9282TIP3    H249338   3.786   0.428   2.638 -0.7449 -0.2920  1.5187
 9283TIP3   OH249339   1.016   3.737  15.048  0.2961  0.2188  0.1437
 9283TIP3    H149340   1.064   3.726  15.130 -0.6489  0.7059  0.7883
 9283TIP3    H249341   1.035   3.827  15.021 -0.7687  0.6573  0.7749
 9284TIP3   OH249342   5.403   5.201  14.360 -0.4326 -0.2586 -0.3916
 9284TIP3    H149343   5.476   5.178  14.304  1.2302  1.9395  0.7143
 9284TIP3    H249344   5.411   5.144  14.436  0.3692  0.2206 -0.1110
 9285TIP3   OH249345   3.626   2.678   5.110 -0.2629  0.3055  0.2700
 9285TIP3    H149346   3.604   2.755   5.163  1.0684  0.6120  0.4139
 9285TIP3    H249347   3.570   2.685   5.033 -1.0627  0.7279  0.8718
 9286TIP3   OH249348   3.108   1.211   4.246  0.1696  0.5153  0.1313
 9286TIP3    H149349   3.022   1.171   4.236  0.8098 -0.8174 -0.2743
 9286TIP3    H249350   3.090   1.305   4.251 -1.3200  0.2486  0.3575
 9287TIP3   OH249351   0.199   3.668   2.207 -0.0386 -0.2210  0.2936
 9287TIP3    H149352   0.207   3.633   2.118  1.0819 -0.0071  0.2907
 9287TIP3    H249353   0.146   3.604   2.254  0.0156 -0.7293 -0.3303
 9288TIP3   OH249354   0.010   1.804  15.462  0.1408 -0.7767 -0.2515
 9288TIP3    H149355   0.006   1.900  15.461 -0.8035 -0.8020  0.0913
 9288TIP3    H249356   0.001   1.778  15.371  3.2486 -0.4763 -0.7316
 9289TIP3   OH249357   2.873   3.476  11.102  0.8471  0.2166 -0.4265
 9289TIP3    H149358   2.810   3.547  11.118  0.1774 -0.3851 -0.3833
 9289TIP3    H249359   2.927   3.508  11.030  0.7771  0.9169 -0.1791
 9290TIP3   OH249360   4.930   3.782  10.655  0.6140 -0.3275 -0.3520
 9290TIP3    H149361   5.003   3.839  10.629  0.7381  0.0662  0.8025
 9290TIP3    H249362   4.861   3.800  10.591  0.4103  1.6374  0.3593
 9291TIP3   OH249363   6.664   4.313   1.121 -0.0070  0.4886  0.0573
 9291TIP3    H149364   6.638   4.361   1.199  0.0266  1.1639 -0.3434
 9291TIP3    H249365   6.651   4.374   1.049  2.6805  0.9240 -0.1823
 9292TIP3   OH249366   4.389   1.459  12.819 -0.4978 -0.2811 -0.0815
 9292TIP3    H149367   4.411   1.426  12.906  1.2102 -0.4984 -0.5610
 9292TIP3    H249368   4.343   1.387  12.777 -0.1982 -0.6385  0.2020
 9293TIP3   OH249369   0.150   5.905  14.017  0.7061 -0.2055  0.2297
 9293TIP3    H149370   0.164   5.824  14.066  0.1211  0.2626  1.1966
 9293TIP3    H249371   0.209   5.969  14.058  1.3571 -0.1859 -0.6926
 9294TIP3   OH249372   6.191   2.173   4.399  0.1886 -0.2428  0.0678
 9294TIP3    H149373   6.254   2.205   4.335 -0.5026 -0.2753 -0.6460
 9294TIP3    H249374   6.244   2.149   4.475  0.8894  1.1028  0.0430
 9295TIP3   OH249375   5.300   5.417  12.411  0.5662 -0.5569  0.0372
 9295TIP3    H149376   5.395   5.405  12.412  0.3577 -2.6143 -0.5893
 9295TIP3    H249377   5.266   5.342  12.459 -0.7451  0.8225  1.3998
 9296TIP3   OH249378   4.339   5.365   6.445  0.7382 -0.1405  0.5272
 9296TIP3    H149379   4.364   5.453   6.414 -0.7233  0.1650  0.1322
 9296TIP3    H249380   4.256   5.379   6.490  0.6801 -1.2757  0.7813
 9297TIP3   OH249381   1.458   1.107  15.538  0.0834  0.2173  0.0145
 9297TIP3    H149382   1.504   1.178  15.493  0.4380 -1.0605 -1.7843
 9297TIP3    H249383   1.367   1.113  15.506 -0.1463  0.5287  0.7193
 9298TIP3   OH249384   5.787   3.141  16.703 -0.0920  0.0007 -0.5259
 9298TIP3    H149385   5.744   3.221  16.733  0.0917  0.8249 -2.3392
 9298TIP3    H249386   5.728   3.105  16.637 -0.8819 -2.2079  1.2543
 9299TIP3   OH249387   5.004   6.130   5.333 -0.0189 -0.2879 -0.0792
 9299TIP3    H149388   5.029   6.222   5.347 -0.0203 -0.0630 -1.4832
 9299TIP3    H249389   4.998   6.094   5.422  1.7912  0.5774  0.4527
 9300TIP3   OH249390   4.938   5.927  15.952 -0.1734 -0.1077 -1.0941
 9300TIP3    H149391   5.004   5.857  15.950 -0.9743 -0.9418  0.1642
 9300TIP3    H249392   4.985   6.004  15.921  1.3247 -0.7329 -0.5046
 9301TIP3   OH249393   4.210   3.253   4.037 -0.2027 -0.2842  0.0549
 9301TIP3    H149394   4.286   3.225   4.088  0.8539 -1.5680 -2.0826
 9301TIP3    H249395   4.239   3.330   3.990 -0.8303  0.2654  0.5425
 9302TIP3   OH249396   2.871   1.722   1.396 -0.1491  0.0909 -0.3588
 9302TIP3    H149397   2.789   1.746   1.354  0.7150 -0.0733 -2.2933
 9302TIP3    H249398   2.868   1.626   1.402 -1.8555  0.2300  3.5763
 9303TIP3   OH249399   3.843   3.470   0.642 -0.1881  0.4546 -0.0694
 9303TIP3    H149400   3.780   3.462   0.714 -0.0376  0.6544  0.0843
 9303TIP3    H249401   3.926   3.490   0.685  0.1161 -0.4539 -0.2235
 9304TIP3   OH249402   4.248   0.491  14.790 -0.4352 -0.5375  0.0294
 9304TIP3    H149403   4.206   0.479  14.875 -0.4801 -0.5511  0.0053
 9304TIP3    H249404   4.339   0.511  14.810 -0.9455  1.8993  0.1836
 9305TIP3   OH249405   2.614   5.035  16.039 -0.2895 -0.4691  1.1375
 9305TIP3    H149406   2.521   5.017  16.052  0.0112 -3.0313  0.3334
 9305TIP3    H249407   2.637   5.096  16.110 -2.6140  0.5087  1.1334
 9306TIP3   OH249408   6.422   4.595  13.244  0.3421  0.1066 -0.3115
 9306TIP3    H149409   6.389   4.511  13.277 -1.2492  1.0350  0.6089
 9306TIP3    H249410   6.476   4.629  13.314  0.5820  0.0705 -0.4792
 9307TIP3   OH249411   5.322   6.261  11.881 -0.7250 -0.0395  0.0334
 9307TIP3    H149412   5.238   6.276  11.838 -0.7011  0.0795  0.0294
 9307TIP3    H249413   5.308   6.292  11.971 -1.1160 -1.2745  0.4206
 9308TIP3   OH249414   3.205   5.435  15.288  0.0035 -0.4484 -0.8893
 9308TIP3    H149415   3.119   5.470  15.314  0.6172  0.3819  0.0774
 9308TIP3    H249416   3.192   5.340  15.284 -0.2465 -0.6283  2.1628
 9309TIP3   OH249417   1.783   5.373   1.705  0.4556 -0.3148 -0.7893
 9309TIP3    H149418   1.713   5.418   1.751  1.8336 -0.1188  1.2832
 9309TIP3    H249419   1.790   5.288   1.749  1.6220 -0.2395 -0.7766
 9310TIP3   OH249420   3.457   0.890  14.797  0.2542 -0.1183  0.0463
 9310TIP3    H149421   3.479   0.800  14.773 -0.5987 -0.4679  0.5474
 9310TIP3    H249422   3.398   0.920  14.728 -0.8194 -0.5374  0.7536
 9311TIP3   OH249423   1.061   4.384   4.281  0.3396  0.7170  0.0261
 9311TIP3    H149424   1.096   4.315   4.336 -1.2065  0.6438  0.9538
 9311TIP3    H249425   0.969   4.363   4.270  0.2278  1.6722 -1.1787
 9312TIP3   OH249426   6.580   2.442  12.131 -0.4116  0.9725 -0.0878
 9312TIP3    H149427   6.588   2.431  12.226  1.2752 -2.0441 -0.4728
 9312TIP3    H249428   6.669   2.435  12.098 -0.9517  2.0295 -1.9603
 9313TIP3   OH249429   1.409   3.161   5.824 -0.0059  0.1595  0.0943
 9313TIP3    H149430   1.330   3.197   5.785 -0.9519 -1.6528  0.2603
 9313TIP3    H249431   1.389   3.153   5.917  0.5904  0.1986  0.2342
 9314TIP3   OH249432   2.799   4.532  13.906  0.2387 -0.1375 -0.2435
 9314TIP3    H149433   2.776   4.467  13.972 -0.3269 -0.5437 -0.8282
 9314TIP3    H249434   2.869   4.583  13.946  0.7338 -1.1384  0.2017
 9315TIP3   OH249435   6.614   0.079  16.759 -0.2169 -0.4375  0.6958
 9315TIP3    H149436   6.541   0.094  16.699  1.0470 -0.6238 -0.9937
 9315TIP3    H249437   6.580   0.017  16.824 -1.3480 -1.0882 -0.4632
 9316TIP3   OH249438   5.278   6.350   5.839  0.1200  0.2993 -0.1092
 9316TIP3    H149439   5.269   6.303   5.756  2.1499 -0.8870  0.2702
 9316TIP3    H249440   5.337   6.423   5.819  0.8625 -0.1690  0.3414
 9317TIP3   OH249441   1.703   3.776  12.231 -0.2478 -0.0565  0.3141
 9317TIP3    H149442   1.685   3.835  12.304  1.0964  0.9622 -0.1475
 9317TIP3    H249443   1.663   3.693  12.257  1.0890 -0.0247  2.6788
 9318TIP3   OH249444   6.486   2.997   1.209 -0.2162  0.0581  0.7002
 9318TIP3    H149445   6.498   2.992   1.304  1.5954  1.2543  0.5946
 9318TIP3    H249446   6.557   2.942   1.173 -1.1726 -0.7756  0.0197
 9319TIP3   OH249447   6.015   3.314  13.037 -0.1740 -0.2052 -0.2349
 9319TIP3    H149448   6.085   3.361  12.991 -0.9439 -0.5064 -1.7688
 9319TIP3    H249449   6.037   3.324  13.130 -0.2146  3.0445 -0.4679
 9320TIP3   OH249450   6.080   3.208   4.263 -0.0868 -0.1646  0.3362
 9320TIP3    H149451   5.992   3.194   4.298  0.1918 -2.1125  0.3933
 9320TIP3    H249452   6.088   3.303   4.253 -1.9778  0.0812  0.8562
 9321TIP3   OH249453   1.042   2.555   3.740 -0.8038 -0.3691 -0.7882
 9321TIP3    H149454   1.092   2.487   3.695  1.7208  2.0104 -1.9256
 9321TIP3    H249455   1.105   2.627   3.752 -3.4868  2.1505 -0.5653
 9322TIP3   OH249456   5.652   6.463   4.153 -0.0095 -0.6200 -0.0777
 9322TIP3    H149457   5.607   6.504   4.227  1.9429  1.0093  0.2584
 9322TIP3    H249458   5.592   6.392   4.127 -2.4604  1.0021  0.7258
 9323TIP3   OH249459   4.308   3.491   2.561 -0.1733  0.0676 -0.1814
 9323TIP3    H149460   4.214   3.492   2.545 -0.2896  0.5275  0.5166
 9323TIP3    H249461   4.328   3.398   2.577 -0.3199 -0.1811 -1.3231
 9324TIP3   OH249462   2.583   5.222   6.565  0.3774 -0.2249 -0.4506
 9324TIP3    H149463   2.595   5.189   6.655  1.5981 -0.3175 -0.6294
 9324TIP3    H249464   2.489   5.241   6.559  0.4914  1.1086  1.2951
 9325TIP3   OH249465   3.481   3.808   2.784  0.4002 -0.4570  1.0136
 9325TIP3    H149466   3.444   3.891   2.812 -0.2757 -0.6629  0.7504
 9325TIP3    H249467   3.434   3.786   2.703  1.9955 -0.0935 -0.0662
 9326TIP3   OH249468   1.599   1.241   0.198  0.4252  0.3149  0.1752
 9326TIP3    H149469   1.653   1.311   0.162  0.7448  0.4834  0.9552
 9326TIP3    H249470   1.533   1.286   0.251  0.8819  0.0328  1.0163
 9327TIP3   OH249471   0.685   1.982  17.011 -0.2984 -0.8458  0.2239
 9327TIP3    H149472   0.601   1.962  16.970 -1.0168 -0.1162  1.2803
 9327TIP3    H249473   0.683   1.935  17.094  0.3782 -0.8991  0.2138
 9328TIP3   OH249474   5.297   2.619  14.380 -0.1305 -0.1381  0.0232
 9328TIP3    H149475   5.326   2.710  14.389 -2.8742  0.6315  2.3811
 9328TIP3    H249476   5.362   2.580  14.322  0.6234  3.5423 -1.9627
 9329TIP3   OH249477   5.221   3.658  14.896 -0.1222 -0.0704  0.8115
 9329TIP3    H149478   5.165   3.736  14.890  0.4778  0.4701  1.8456
 9329TIP3    H249479   5.255   3.660  14.986  0.0815 -1.4123  0.7829
 9330TIP3   OH249480   5.580   4.708   4.565  0.2522  0.2128  0.3891
 9330TIP3    H149481   5.510   4.651   4.533  1.1863 -0.8315  0.1211
 9330TIP3    H249482   5.535   4.786   4.597 -0.8202  0.7718 -2.2962
 9331TIP3   OH249483   1.635   0.953  13.212  0.3718  0.5797 -0.2754
 9331TIP3    H149484   1.696   0.884  13.237 -0.2685 -0.4752 -1.4952
 9331TIP3    H249485   1.606   0.991  13.295  1.0675 -0.3176  0.4004
 9332TIP3   OH249486   4.871   2.673  12.834 -0.0761 -0.1375 -0.6919
 9332TIP3    H149487   4.822   2.736  12.781 -1.7056  1.4620  2.4600
 9332TIP3    H249488   4.837   2.588  12.806 -3.5985  0.8265  0.1677
 9333TIP3   OH249489   4.983   2.951   0.683 -0.5116 -0.1633 -0.0948
 9333TIP3    H149490   4.968   2.940   0.589  0.8695  2.8966 -0.8265
 9333TIP3    H249491   5.005   2.864   0.714 -0.7263 -1.2399 -2.6878
 9334TIP3   OH249492   2.036   3.681   3.752  0.2380  0.3225 -0.2716
 9334TIP3    H149493   1.959   3.737   3.742  0.4598  0.5244 -0.8910
 9334TIP3    H249494   2.012   3.598   3.711 -0.4170 -0.3807  1.4380
 9335TIP3   OH249495   5.955   0.662   1.150  0.4696 -0.2418 -0.4697
 9335TIP3    H149496   5.889   0.615   1.098 -0.2765  0.4007 -0.1174
 9335TIP3    H249497   5.939   0.754   1.132  2.2153 -0.0882 -1.4969
 9336TIP3   OH249498   4.427   4.954   1.316 -0.1533 -0.0349 -0.0794
 9336TIP3    H149499   4.434   5.040   1.275 -0.3118 -0.4820 -1.0747
 9336TIP3    H249500   4.508   4.909   1.293 -0.8624 -0.8100 -1.1651
 9337TIP3   OH249501   1.604   0.397  16.885  0.4052 -0.3788 -0.0339
 9337TIP3    H149502   1.523   0.386  16.835 -0.9655  0.0423  1.9791
 9337TIP3    H249503   1.638   0.482  16.857 -0.3918 -0.0960 -0.1675
 9338TIP3   OH249504   2.694   5.181  16.260  0.0735 -0.2693 -0.1813
 9338TIP3    H149505   2.723   5.169  16.351  1.5432  1.3539 -0.3790
 9338TIP3    H249506   2.769   5.223  16.217 -0.7536 -0.6298 -2.0525
 9339TIP3   OH249507   0.598   0.855  15.895 -0.0370 -0.5816  0.0275
 9339TIP3    H149508   0.637   0.783  15.845 -0.1859 -0.3644 -0.4069
 9339TIP3    H249509   0.590   0.927  15.832 -2.3888 -1.0379 -0.2861
 9340TIP3   OH249510   4.513   4.067   5.587  0.6813 -0.6010  0.1481
 9340TIP3    H149511   4.581   4.131   5.608  0.7790 -0.7125  0.1759
 9340TIP3    H249512   4.560   3.983   5.584  1.0855 -0.3692 -2.4871
 9341TIP3   OH249513   6.731   0.114   4.457 -0.1103  0.0888 -0.4355
 9341TIP3    H149514   6.687   0.192   4.424  2.1866  2.4244  1.5422
 9341TIP3    H249515   6.812   0.108   4.406 -0.0325 -0.7612 -0.2387
 9342TIP3   OH249516   0.493   5.460   5.083  0.1665  0.3569  0.5079
 9342TIP3    H149517   0.512   5.386   5.025  0.0750  1.0461 -0.4295
 9342TIP3    H249518   0.468   5.419   5.166  0.5727 -0.6517  0.1567
 9343TIP3   OH249519   6.519   2.886  14.439 -0.2784  0.1091 -0.1023
 9343TIP3    H149520   6.590   2.864  14.500 -2.2382 -1.5715  1.7351
 9343TIP3    H249521   6.507   2.806  14.387 -0.0624  0.7948 -1.2264
 9344TIP3   OH249522   0.171   0.380   2.430 -0.4153 -0.6762  0.3552
 9344TIP3    H149523   0.124   0.309   2.474 -0.8093  0.0932  1.2007
 9344TIP3    H249524   0.183   0.446   2.497 -0.4645  0.2611 -0.5331
 9345TIP3   OH249525   4.186   0.282  12.902  0.1261 -0.4068 -0.0504
 9345TIP3    H149526   4.250   0.353  12.898  1.6352 -1.7153 -0.1514
 9345TIP3    H249527   4.179   0.251  12.811 -0.4050 -0.4941  0.0168
 9346TIP3   OH249528   6.269   4.554  16.136 -0.5154  0.0820  0.1617
 9346TIP3    H149529   6.275   4.458  16.141  2.0360  0.0920 -0.8981
 9346TIP3    H249530   6.237   4.580  16.222  1.9353 -1.6013  1.7139
 9347TIP3   OH249531   4.153   0.826  14.221  0.5901 -0.3499 -0.5759
 9347TIP3    H149532   4.142   0.773  14.301  2.2811 -1.2429 -0.8722
 9347TIP3    H249533   4.229   0.882  14.241 -0.1468  0.7872 -0.8903
 9348TIP3   OH249534   4.132   4.536   1.093  0.3242  0.2938  0.4301
 9348TIP3    H149535   4.113   4.566   1.182 -0.2479 -0.0143  0.4167
 9348TIP3    H249536   4.136   4.441   1.100  1.3711  0.3099  0.3259
 9349TIP3   OH249537   5.670   2.155  11.490 -0.1356  0.3979  0.2029
 9349TIP3    H149538   5.696   2.068  11.521  0.0103  0.4835  0.3194
 9349TIP3    H249539   5.579   2.144  11.461  0.3003 -0.1279 -1.0524
 9350TIP3   OH249540   6.247   1.774  15.614  0.0978 -0.3084 -0.0784
 9350TIP3    H149541   6.152   1.774  15.603 -0.0353  0.5373  0.8540
 9350TIP3    H249542   6.278   1.839  15.551 -0.1478  0.7349  0.8272
 9351TIP3   OH249543   5.935   3.768   2.122 -0.4563 -0.2095 -0.0493
 9351TIP3    H149544   5.925   3.837   2.057  1.0753 -0.8597 -1.0299
 9351TIP3    H249545   6.027   3.742   2.116 -0.6320 -1.3188  1.3434
 9352TIP3   OH249546   3.736   1.742  11.375  0.2088  0.4394 -0.5160
 9352TIP3    H149547   3.797   1.689  11.427 -0.0769 -0.7928 -1.4173
 9352TIP3    H249548   3.744   1.708  11.286 -1.3267  0.6933 -0.7711
 9353TIP3   OH249549   5.869   4.792  11.324 -0.1609 -0.0501 -0.0277
 9353TIP3    H149550   5.939   4.764  11.382 -0.3353 -0.8901 -0.2087
 9353TIP3    H249551   5.789   4.780  11.375 -0.1695  1.3255  0.3406
 9354TIP3   OH249552   5.044   2.883  12.915  0.2647 -0.0772  0.2282
 9354TIP3    H149553   4.998   2.809  12.875  0.0826 -0.2523  0.7577
 9354TIP3    H249554   5.083   2.930  12.841 -0.1832 -0.3220 -0.1630
 9355TIP3   OH249555   3.012   1.725   5.347  0.0482  0.1243  0.2816
 9355TIP3    H149556   3.030   1.819   5.334 -0.7341  0.2704  0.2003
 9355TIP3    H249557   3.095   1.689   5.379  0.5164  0.7382 -0.2241
 9356TIP3   OH249558   5.104   1.548   0.408  0.2056  0.1136  0.3771
 9356TIP3    H149559   5.148   1.622   0.451 -1.5239  0.6535  1.2807
 9356TIP3    H249560   5.158   1.472   0.432  1.4182  0.9079  0.2972
 9357TIP3   OH249561   2.728   6.258  11.347  0.1869 -0.1471  0.4778
 9357TIP3    H149562   2.721   6.218  11.260 -1.0613 -0.3144  0.6489
 9357TIP3    H249563   2.675   6.337  11.342  1.5629  0.8108  0.5580
 9358TIP3   OH249564   4.222   3.608  16.377 -0.2334 -0.2841 -0.5448
 9358TIP3    H149565   4.171   3.603  16.296 -0.7810 -2.0362 -0.1241
 9358TIP3    H249566   4.297   3.550  16.361 -0.4942 -0.8576  0.3005
 9359TIP3   OH249567   1.212   6.146   3.176  0.5111  0.4038 -0.3667
 9359TIP3    H149568   1.210   6.138   3.271  0.9460  2.9444 -0.0822
 9359TIP3    H249569   1.305   6.138   3.153  0.7504  2.3551 -0.2414
 9360TIP3   OH249570   5.228   3.050   1.624 -0.1388 -0.6614  0.2257
 9360TIP3    H149571   5.163   3.066   1.692 -0.4671  0.1598 -0.2745
 9360TIP3    H249572   5.269   2.967   1.650  1.4518  0.7934  2.7829
 9361TIP3   OH249573   5.150   0.521  17.413 -0.6523 -0.3495 -0.0178
 9361TIP3    H149574   5.066   0.566  17.424  0.5620  2.1690 -0.4768
 9361TIP3    H249575   5.202   0.579  17.358  1.3753 -1.9155  0.1166
 9362TIP3   OH249576   4.033   3.364   0.819  0.2590  0.3799 -0.1691
 9362TIP3    H149577   3.949   3.345   0.778  0.7417  1.7635 -1.9606
 9362TIP3    H249578   4.012   3.424   0.891 -0.4110 -0.3761  0.2699
 9363TIP3   OH249579   1.176   0.795  16.648  0.2919 -0.0467 -0.0426
 9363TIP3    H149580   1.252   0.786  16.706  0.2765  1.3786  0.2416
 9363TIP3    H249581   1.214   0.826  16.565  0.1674 -0.7758 -0.3799
 9364TIP3   OH249582   1.508   6.334  11.117  0.2159 -1.0410 -0.2102
 9364TIP3    H149583   1.444   6.360  11.051 -1.0525 -1.4628  0.8132
 9364TIP3    H249584   1.576   6.401  11.112 -0.5212 -0.3250 -1.0113
 9365TIP3   OH249585   1.844   2.861   0.958  0.7364 -0.0357  0.6877
 9365TIP3    H149586   1.910   2.811   0.909  1.2327 -0.9449  2.2268
 9365TIP3    H249587   1.891   2.891   1.036 -0.0538  1.3430  0.6627
 9366TIP3   OH249588   6.439   4.687  16.797  0.2015 -0.6570 -0.5166
 9366TIP3    H149589   6.527   4.649  16.806  1.2133  1.3025 -1.4082
 9366TIP3    H249590   6.380   4.617  16.823  2.0041 -2.2478 -0.4507
 9367TIP3   OH249591   6.753   5.607  13.924 -0.1354  0.0696 -0.6488
 9367TIP3    H149592   6.786   5.539  13.981  1.1914  0.1078 -1.3161
 9367TIP3    H249593   6.803   5.685  13.948 -2.5253  1.2033  0.9972
 9368TIP3   OH249594   1.134   3.690   1.923 -0.3719 -0.3484  0.2400
 9368TIP3    H149595   1.160   3.709   1.832  2.0479  1.5526  1.1872
 9368TIP3    H249596   1.211   3.647   1.961 -1.4592 -1.3845  1.3425
 9369TIP3   OH249597   3.066   0.065   1.584  0.1747  0.1612  0.3271
 9369TIP3    H149598   3.075   0.024   1.670  0.8779 -2.6761 -0.9850
 9369TIP3    H249599   3.016   0.145   1.601 -2.7568 -1.9572  2.9415
 9370TIP3   OH249600   6.502   5.429   5.482 -0.0029  0.1814  0.6300
 9370TIP3    H149601   6.410   5.402   5.483 -0.1938  0.8025  0.4644
 9370TIP3    H249602   6.544   5.372   5.546 -0.2562 -0.9608 -0.1750
 9371TIP3   OH249603   1.206   5.109   4.296  0.1812 -0.7718  1.3793
 9371TIP3    H149604   1.258   5.189   4.286 -1.7593  0.2525 -2.0315
 9371TIP3    H249605   1.258   5.055   4.356  3.4108  1.5289  0.9605
 9372TIP3   OH249606   6.263   3.379   2.883  0.2604  0.2420 -0.0418
 9372TIP3    H149607   6.351   3.344   2.869  0.2761  0.4518 -0.5075
 9372TIP3    H249608   6.240   3.352   2.971  0.2331 -1.0055 -0.4123
 9373TIP3   OH249609   0.745   4.431   3.283  0.5588  0.2149 -0.2056
 9373TIP3    H149610   0.666   4.469   3.323  0.0871  0.0647 -0.9623
 9373TIP3    H249611   0.785   4.504   3.235 -1.1327 -0.4404 -2.8798
 9374TIP3   OH249612   4.315   0.476   3.543  0.4365  0.3497  0.4195
 9374TIP3    H149613   4.356   0.468   3.629 -0.2489 -0.3804  0.6879
 9374TIP3    H249614   4.388   0.468   3.481  0.8262  0.0507  0.9149
 9375TIP3   OH249615   3.915   6.714   5.159  0.3966  0.2153  0.2320
 9375TIP3    H149616   3.930   6.760   5.077  2.1710  0.1090  0.4468
 9375TIP3    H249617   3.834   6.751   5.194 -0.0463  0.7035 -1.2402
 9376TIP3   OH249618   6.526   2.888   3.011  1.1212  0.6300  0.1842
 9376TIP3    H149619   6.493   2.931   3.091  1.8626  1.6654 -0.0423
 9376TIP3    H249620   6.462   2.820   2.992 -0.8208  2.4446 -0.1321
 9377TIP3   OH249621   4.336   2.302   5.612  0.0799  0.6679  0.1034
 9377TIP3    H149622   4.298   2.289   5.698 -0.0208  0.7030  0.0637
 9377TIP3    H249623   4.422   2.260   5.617 -0.8010 -1.3248 -0.4623
 9378TIP3   OH249624   5.165   4.572   1.498 -0.4234  0.1078  0.3294
 9378TIP3    H149625   5.200   4.484   1.512 -1.3438 -0.0479  1.7885
 9378TIP3    H249626   5.238   4.620   1.457  0.2533 -1.1736 -0.0260
 9379TIP3   OH249627   1.634   2.058   5.113  0.5703  0.4697 -0.2369
 9379TIP3    H149628   1.574   1.983   5.106  0.1276  0.8412 -0.4182
 9379TIP3    H249629   1.598   2.123   5.054  1.9044  0.2067 -1.3835
 9380TIP3   OH249630   2.390   2.217   0.576 -0.3963  0.3953 -0.3208
 9380TIP3    H149631   2.319   2.278   0.596 -1.5567 -0.0641 -2.6770
 9380TIP3    H249632   2.366   2.136   0.621  0.3762  1.1694  1.5769
 9381TIP3   OH249633   2.403   2.451   5.272 -0.2471 -0.0212  0.3732
 9381TIP3    H149634   2.492   2.486   5.265 -0.3942  0.2864 -0.0167
 9381TIP3    H249635   2.346   2.528   5.268 -0.5698 -0.2836 -0.4269
 9382TIP3   OH249636   0.557   0.376   5.966 -0.0270  0.6415 -0.4084
 9382TIP3    H149637   0.620   0.343   6.030  0.0064  2.8621  0.7632
 9382TIP3    H249638   0.506   0.442   6.012  0.1332  2.5158 -2.7064
 9383TIP3   OH249639   2.507   2.781   6.296 -0.4546 -0.3008  0.0637
 9383TIP3    H149640   2.421   2.792   6.255  0.4850  0.3298 -1.8799
 9383TIP3    H249641   2.501   2.699   6.345 -2.7054  0.6347  1.5046
 9384TIP3   OH249642   0.441   1.808   1.529  0.2356  0.0271 -0.5693
 9384TIP3    H149643   0.451   1.714   1.512 -1.6099 -0.0724 -1.4199
 9384TIP3    H249644   0.466   1.850   1.446  2.5063  0.4390  0.2697
 9385TIP3   OH249645   4.043   2.236   5.515  0.2196 -0.3154 -0.3355
 9385TIP3    H149646   3.980   2.226   5.443 -2.5400 -1.8328  2.0627
 9385TIP3    H249647   4.084   2.150   5.523 -0.5202 -0.5918  0.7133
 9386TIP3   OH249648   5.424   4.552   5.194  0.5227  0.9859 -0.5618
 9386TIP3    H149649   5.381   4.630   5.160 -0.1464  0.4495 -0.9863
 9386TIP3    H249650   5.483   4.524   5.124  1.1543  1.3970 -0.2052
 9387TIP3   OH249651   1.534   2.328   1.555  0.1349  0.2153  0.0473
 9387TIP3    H149652   1.593   2.265   1.597 -1.1720 -0.3935  1.0567
 9387TIP3    H249653   1.520   2.292   1.467 -0.5052 -0.8831  0.5721
 9388TIP3   OH249654   5.561   0.084   3.655  0.2897  0.2585 -0.6531
 9388TIP3    H149655   5.633   0.087   3.592  1.7291  2.0757  1.0049
 9388TIP3    H249656   5.579   0.007   3.708  0.2363 -0.0544 -1.0773
 9389TIP3   OH249657   4.174   5.051   0.093  0.2786  0.0323  0.0314
 9389TIP3    H149658   4.258   5.027   0.132 -0.3412 -1.4085  0.5800
 9389TIP3    H249659   4.191   5.058  -0.001  1.5117  2.2053  0.3779
 9390TIP3   OH249660   4.040   1.518  15.443  0.3102  0.7496  0.2577
 9390TIP3    H149661   3.985   1.595  15.455 -1.4453 -0.3301 -0.4405
 9390TIP3    H249662   4.130   1.551  15.445 -0.2359  2.3762  3.1314
 9391TIP3   OH249663   5.534   3.600   3.209  0.0624  0.0067  0.1581
 9391TIP3    H149664   5.625   3.589   3.237 -0.2391 -0.2844  1.0821
 9391TIP3    H249665   5.520   3.532   3.144  0.7936  0.6992 -0.7473
 9392TIP3   OH249666   3.060   5.823   4.470  0.0405 -0.0068 -0.1867
 9392TIP3    H149667   3.125   5.884   4.433 -1.0010  0.1702 -1.8345
 9392TIP3    H249668   2.996   5.880   4.513  0.3955 -0.1151  0.4975
 9393TIP3   OH249669   4.823   4.145   0.166  0.4214 -0.5687  0.4248
 9393TIP3    H149670   4.820   4.125   0.259  3.6246 -0.7545  0.5892
 9393TIP3    H249671   4.765   4.220   0.155  2.2134  1.3613  3.1627
 9394TIP3   OH249672   2.420   0.932   4.818 -0.2650 -0.0352  0.2756
 9394TIP3    H149673   2.512   0.959   4.823  0.1603 -1.2027 -0.7498
 9394TIP3    H249674   2.391   0.961   4.731 -1.2637  1.4211  1.0469
 9395TIP3   OH249675   2.842   5.410   0.705  0.0043  0.1282 -0.2279
 9395TIP3    H149676   2.752   5.376   0.700 -0.8679  2.0275  1.0041
 9395TIP3    H249677   2.851   5.464   0.626 -0.2302  0.5463  0.0274
 9396TIP3   OH249678   4.650   1.777   4.184 -0.0228  0.5634 -0.3737
 9396TIP3    H149679   4.693   1.770   4.099  0.7756  0.3189  0.0398
 9396TIP3    H249680   4.715   1.744   4.247 -0.9676 -0.2249  0.2224
 9397TIP3   OH249681   2.377   0.950   6.621  0.3701 -0.3643 -0.1156
 9397TIP3    H149682   2.315   0.997   6.565  0.6878 -0.3577 -0.4679
 9397TIP3    H249683   2.332   0.940   6.704  0.3840  0.7623  0.0356
 9398TIP3   OH249684   1.983   0.453  16.255 -0.1306  0.0429  0.0656
 9398TIP3    H149685   2.071   0.444  16.292  0.4634 -0.9208 -1.4969
 9398TIP3    H249686   1.971   0.374  16.202 -1.4373  0.7583 -0.7599
 9399TIP3   OH249687   3.238   4.568   4.342  0.1535  0.4580  0.0676
 9399TIP3    H149688   3.291   4.493   4.371  1.6752  0.9768 -1.2726
 9399TIP3    H249689   3.270   4.588   4.255 -2.4265  0.6863 -0.9042
 9400TIP3   OH249690   0.304   4.204   1.776  0.0266 -0.0885 -0.1225
 9400TIP3    H149691   0.352   4.286   1.786 -0.4673  0.1675  0.1952
 9400TIP3    H249692   0.366   4.136   1.802  0.3721  0.1998 -0.1856
 9401TIP3   OH249693   6.210   3.123  16.067  0.0709  0.1109 -0.4943
 9401TIP3    H149694   6.185   3.178  15.994 -1.0388 -0.1522 -0.3346
 9401TIP3    H249695   6.248   3.045  16.026 -0.5729 -0.0497 -0.8017
 9402TIP3   OH249696   2.624   5.470  17.363  0.1321 -0.5617 -0.6625
 9402TIP3    H149697   2.622   5.519  17.280 -0.8716  0.8133  0.1337
 9402TIP3    H249698   2.684   5.520  17.419 -0.9757 -0.1609  0.1912
 9403TIP3   OH249699   2.516   2.041   4.868  0.3284  0.4418  0.2282
 9403TIP3    H149700   2.603   2.022   4.904  0.8254  0.9809 -0.6535
 9403TIP3    H249701   2.458   1.979   4.912  0.7916  1.4656  2.3988
 9404TIP3   OH249702   1.116   0.478   3.211  0.0987 -0.5005  0.1664
 9404TIP3    H149703   1.081   0.391   3.190 -0.8534  0.3154 -1.8900
 9404TIP3    H249704   1.204   0.461   3.244 -0.3886 -2.2894  0.6695
 9405TIP3   OH249705   1.799   2.427   5.973  0.3511 -1.3734 -0.2352
 9405TIP3    H149706   1.789   2.521   5.957  1.4590 -1.1645  0.2245
 9405TIP3    H249707   1.730   2.406   6.036  1.4728 -0.3928  1.3780
 9406TIP3   OH249708   6.351   1.400  17.154 -0.2759 -0.3028  0.1869
 9406TIP3    H149709   6.302   1.319  17.163  1.4686 -1.3109  1.1691
 9406TIP3    H249710   6.393   1.394  17.068 -0.0507 -0.5129  0.3103
 9407TIP3   OH249711   5.426   5.284   1.658 -0.0307 -0.1438  0.0541
 9407TIP3    H149712   5.404   5.272   1.566  0.3198 -0.2228 -0.0182
 9407TIP3    H249713   5.418   5.196   1.696  0.1996 -0.1790  0.0203
 9408TIP3   OH249714   4.397   2.939   4.992 -0.5760  0.2659 -0.0830
 9408TIP3    H149715   4.453   2.994   5.047 -0.7145  0.9459 -0.6054
 9408TIP3    H249716   4.450   2.862   4.973 -0.1276  0.5228  0.1160
 9409TIP3   OH249717   3.450   5.771   4.682 -0.0159  0.1422 -0.4991
 9409TIP3    H149718   3.443   5.717   4.603 -0.3362 -1.8868  0.8383
 9409TIP3    H249719   3.530   5.740   4.725 -0.0931  0.8944  0.2097
 9410TIP3   OH249720   0.211   1.783  14.701  0.1493  0.1989 -0.0722
 9410TIP3    H149721   0.211   1.740  14.786 -1.1305  0.1388 -0.0838
 9410TIP3    H249722   0.285   1.744  14.654 -0.8300 -1.8261 -0.0010
 9411TIP3   OH249723   2.098   1.461  13.368 -0.6112  0.3850 -0.2719
 9411TIP3    H149724   2.176   1.516  13.366 -0.7956  0.6986  0.6596
 9411TIP3    H249725   2.128   1.377  13.332  0.4371  0.1663  1.0314
 9412TIP3   OH249726   0.121   0.934  11.036  0.3495  0.1142 -0.2305
 9412TIP3    H149727   0.169   0.918  10.955  0.5780 -1.7247  0.2199
 9412TIP3    H249728   0.187   0.962  11.098  0.1688  1.5600 -0.6613
 9413TIP3   OH249729   0.753   4.302  11.008  0.3704 -0.0837 -0.6178
 9413TIP3    H149730   0.680   4.271  10.955 -0.9810  1.5998  0.1257
 9413TIP3    H249731   0.790   4.223  11.048 -1.2729 -0.9539 -0.7484
 9414TIP3   OH249732   1.872   0.427   0.930 -0.2966  0.0067 -0.3581
 9414TIP3    H149733   1.916   0.494   0.877 -0.0404  0.0450 -0.1000
 9414TIP3    H249734   1.780   0.452   0.929 -0.3174 -0.0961 -0.9359
 9415TIP3   OH249735   5.764   0.448  12.150 -0.0433  0.0362 -0.3589
 9415TIP3    H149736   5.691   0.472  12.094 -0.6639 -0.4425  0.2243
 9415TIP3    H249737   5.779   0.526  12.204 -0.4386 -0.0246 -0.1565
 9416TIP3   OH249738   6.112   6.070  13.306  0.0224  0.0753 -0.0251
 9416TIP3    H149739   6.169   6.126  13.253 -0.5984  0.8322  0.0928
 9416TIP3    H249740   6.058   6.130  13.356 -2.6737 -0.5202 -1.9893
 9417TIP3   OH249741   5.278   3.580   4.696 -0.6435 -0.0884 -0.3678
 9417TIP3    H149742   5.327   3.575   4.614 -0.6278  1.0169 -0.4428
 9417TIP3    H249743   5.265   3.674   4.710  0.5929 -0.1404  1.6031
 9418TIP3   OH249744   5.171   3.359   1.546 -0.2341  0.2183 -0.8969
 9418TIP3    H149745   5.159   3.266   1.563 -0.2176  0.6045  1.5014
 9418TIP3    H249746   5.219   3.392   1.622 -1.2511  2.3926 -1.1188
 9419TIP3   OH249747   4.803   2.625   4.884  0.0083 -0.0647  0.2649
 9419TIP3    H149748   4.842   2.703   4.924  0.3258  0.6666 -1.3750
 9419TIP3    H249749   4.709   2.644   4.884 -0.0842 -0.4887  1.4900
 9420TIP3   OH249750   6.133   4.880  12.185  0.0247  0.0942  0.2575
 9420TIP3    H149751   6.058   4.927  12.149 -0.9599 -1.4385  0.2329
 9420TIP3    H249752   6.166   4.827  12.112 -0.4200 -1.1075  0.8978
 9421TIP3   OH249753   6.403   6.251   4.756  0.1048 -0.1681 -0.5509
 9421TIP3    H149754   6.398   6.173   4.810 -2.2056  1.3682  1.6717
 9421TIP3    H249755   6.327   6.244   4.697 -0.5538  0.6849  0.1664
 9422TIP3   OH249756   2.916   0.223   5.159  0.4183 -0.3117  0.1579
 9422TIP3    H149757   2.845   0.277   5.124 -0.0911  0.2918  2.0012
 9422TIP3    H249758   2.994   0.277   5.152 -0.0965  0.7385  2.0370
 9423TIP3   OH249759   4.742   3.461  10.461  0.3965  0.1062 -0.0405
 9423TIP3    H149760   4.773   3.478  10.550 -0.4779  0.6511  0.1718
 9423TIP3    H249761   4.783   3.378  10.437  1.3267  0.3844  0.5415
 9424TIP3   OH249762   6.053   1.105   3.548  0.1475  1.1300  0.1211
 9424TIP3    H149763   6.029   1.062   3.466 -0.9292 -0.8654  1.3975
 9424TIP3    H249764   5.973   1.104   3.601  1.6808 -1.5064  2.7521
 9425TIP3   OH249765   1.922   6.765   6.649  0.3310  0.1162 -0.4161
 9425TIP3    H149766   1.882   6.700   6.707  0.9408  1.4486  1.6161
 9425TIP3    H249767   2.015   6.746   6.652  0.3033 -0.2314 -1.5498
 9426TIP3   OH249768   0.510   6.220  11.415 -0.1319  0.3725 -0.5603
 9426TIP3    H149769   0.489   6.313  11.418  1.2675  0.6975  2.3543
 9426TIP3    H249770   0.441   6.178  11.467 -1.4350 -0.4875 -2.8129
 9427TIP3   OH249771   3.572   2.470   1.978  0.2715 -0.5062 -0.4599
 9427TIP3    H149772   3.609   2.526   2.046  0.3189  0.2227 -1.0754
 9427TIP3    H249773   3.643   2.458   1.916 -0.1068 -0.2162 -0.9608
 9428TIP3   OH249774   6.669   3.699   3.525  0.1282  0.2427  0.5790
 9428TIP3    H149775   6.671   3.738   3.612  1.1309 -0.4520  0.8814
 9428TIP3    H249776   6.620   3.617   3.537  1.9911 -0.8707  0.9559
 9429TIP3   OH249777   1.787   1.019  11.318  0.1710  0.0974 -0.6455
 9429TIP3    H149778   1.767   0.930  11.346 -1.8659  0.8788  0.5383
 9429TIP3    H249779   1.785   1.014  11.222  0.5305 -1.1985 -0.6096
 9430TIP3   OH249780   0.453   4.190   4.342 -0.1679  0.0865 -0.2702
 9430TIP3    H149781   0.412   4.263   4.389  0.5652  0.3110  0.0391
 9430TIP3    H249782   0.460   4.120   4.408 -2.8067 -1.0686 -1.0975
 9431TIP3   OH249783   1.664   0.304  12.684  0.3640  0.5957 -0.1046
 9431TIP3    H149784   1.721   0.368  12.726 -0.7287  0.4881  1.6132
 9431TIP3    H249785   1.642   0.241  12.753 -0.3694 -0.3895 -1.1924
 9432TIP3   OH249786   3.087   2.220  14.758  0.5303  0.0614  0.1441
 9432TIP3    H149787   3.135   2.247  14.837  1.3596 -0.2164 -0.2577
 9432TIP3    H249788   3.155   2.195  14.696  0.0364  2.5275 -1.5482
 9433TIP3   OH249789   1.654   3.895  17.064  0.1488  0.1741  0.2622
 9433TIP3    H149790   1.569   3.931  17.088 -0.1692 -0.6434  0.3560
 9433TIP3    H249791   1.697   3.878  17.148 -0.5781 -1.7536  0.2816
 9434TIP3   OH249792   4.742   4.668   0.519  0.2941 -0.1830 -0.4772
 9434TIP3    H149793   4.759   4.613   0.596 -1.8590 -0.2710  0.0211
 9434TIP3    H249794   4.798   4.745   0.531  1.4709 -1.1043  0.1219
 9435TIP3   OH249795   4.482   3.483  12.858  0.0426  0.3798 -0.0329
 9435TIP3    H149796   4.532   3.549  12.907 -0.7658  0.6437  0.4498
 9435TIP3    H249797   4.548   3.440  12.803  0.7450  0.9520  0.3346
 9436TIP3   OH249798   4.032   3.984  12.114 -0.1904  0.0861 -0.9215
 9436TIP3    H149799   3.949   3.997  12.160  0.3217  2.0145 -0.4519
 9436TIP3    H249800   4.017   4.018  12.026  0.0272  0.1845 -0.9204
 9437TIP3   OH249801   3.629   5.093   5.562  0.2899 -0.9528 -0.1909
 9437TIP3    H149802   3.662   5.032   5.627 -2.2609 -0.4413  1.7401
 9437TIP3    H249803   3.633   5.179   5.605  0.1390 -0.3340 -1.3612
 9438TIP3   OH249804   6.420   3.079   5.549  0.6819 -0.1918 -0.4872
 9438TIP3    H149805   6.376   3.105   5.629  0.1402  0.0030 -0.8459
 9438TIP3    H249806   6.503   3.042   5.579  0.1686 -0.8059  0.2052
 9439TIP3   OH249807   1.613   2.512   0.956 -0.1612 -0.4786 -0.1802
 9439TIP3    H149808   1.639   2.563   1.033  2.2232 -1.4325 -0.2631
 9439TIP3    H249809   1.620   2.574   0.883 -2.6727  0.5003  0.2878
 9440TIP3   OH249810   4.571   4.044   4.473  0.0944 -0.4504 -0.3061
 9440TIP3    H149811   4.641   4.077   4.415  1.5275 -1.5987  0.6909
 9440TIP3    H249812   4.568   4.107   4.545  1.3069 -1.2384  0.4838
 9441TIP3   OH249813   3.493   2.379  12.405 -0.0549 -0.1364 -0.3125
 9441TIP3    H149814   3.453   2.449  12.353 -1.2152  1.2932  2.2952
 9441TIP3    H249815   3.471   2.402  12.496  1.9375 -2.4126  0.8414
 9442TIP3   OH249816   4.643   4.715  15.465 -0.2723 -0.1749  0.1285
 9442TIP3    H149817   4.595   4.789  15.428  0.2530 -0.1912 -0.6176
 9442TIP3    H249818   4.731   4.751  15.483 -0.0774 -0.5571 -0.0492
 9443TIP3   OH249819   6.556   4.089   4.551  0.1794  0.4609  0.6007
 9443TIP3    H149820   6.473   4.070   4.593 -0.7465 -0.9710 -1.6930
 9443TIP3    H249821   6.536   4.159   4.489 -0.1924 -1.9917 -2.2378
 9444TIP3   OH249822   0.840   3.654   5.950 -0.0270 -0.2036  0.2899
 9444TIP3    H149823   0.829   3.579   6.008  0.3328  1.1134  2.1821
 9444TIP3    H249824   0.871   3.724   6.008  0.2311  1.2384 -1.4992
 9445TIP3   OH249825   2.894   1.237   2.769  0.2849  0.4657  0.6145
 9445TIP3    H149826   2.851   1.186   2.837 -0.7974 -0.5979 -0.8126
 9445TIP3    H249827   2.837   1.313   2.757  0.6995  0.8754  1.1522
 9446TIP3   OH249828   4.795   3.845  14.955  0.4866 -0.2484 -0.3172
 9446TIP3    H149829   4.871   3.896  14.926 -1.2203  1.5788 -1.8553
 9446TIP3    H249830   4.773   3.790  14.880 -1.8485  1.9556 -1.3934
 9447TIP3   OH249831   6.290   4.102   3.126 -0.0612  0.6811  0.4579
 9447TIP3    H149832   6.353   4.145   3.068  0.6597  1.8914  2.0482
 9447TIP3    H249833   6.204   4.125   3.089  0.3311 -1.5017 -2.0964
 9448TIP3   OH249834   3.602   1.122  10.896  0.2340 -0.2203 -0.4193
 9448TIP3    H149835   3.508   1.114  10.879  0.3397 -1.3136 -0.5686
 9448TIP3    H249836   3.643   1.107  10.811  0.5947 -1.4456 -0.0575
 9449TIP3   OH249837   2.349   0.169  16.699  0.7675 -0.4814 -0.3141
 9449TIP3    H149838   2.361   0.201  16.610 -1.2301  0.4539 -0.2971
 9449TIP3    H249839   2.416   0.215  16.750  1.5166 -0.5578 -1.1880
 9450TIP3   OH249840   1.631   5.984  14.270 -0.2175 -0.1279  0.0032
 9450TIP3    H149841   1.603   5.990  14.179 -1.9741  0.0957  0.5173
 9450TIP3    H249842   1.696   5.915  14.271 -1.0204 -0.9388 -1.2440
 9451TIP3   OH249843   2.555   2.752  17.331 -0.3403  0.0985  0.4909
 9451TIP3    H149844   2.537   2.710  17.415  0.5924 -2.7694 -0.6311
 9451TIP3    H249845   2.630   2.809  17.349  0.3763 -1.0841  1.4726
 9452TIP3   OH249846   3.611   2.048   3.051 -0.2213 -0.0308  0.0709
 9452TIP3    H149847   3.591   2.059   3.144  0.2922 -0.5937  0.2500
 9452TIP3    H249848   3.609   2.137   3.016  0.6591  0.3088  0.8435
 9453TIP3   OH249849   5.278   4.240   0.615  0.0847  0.3477 -0.3693
 9453TIP3    H149850   5.202   4.266   0.668  0.7841  2.3134 -0.2556
 9453TIP3    H249851   5.340   4.203   0.678 -0.2503 -0.0337 -0.2617
 9454TIP3   OH249852   5.220   5.422   6.001 -0.0256 -0.7675  0.7070
 9454TIP3    H149853   5.250   5.416   5.911 -0.1559 -1.5001  0.7116
 9454TIP3    H249854   5.124   5.422   5.995 -0.0471  0.5374  0.7614
 9455TIP3   OH249855   6.213   5.818   4.559 -0.0191 -0.0538  0.4567
 9455TIP3    H149856   6.271   5.794   4.631 -0.3312 -3.0878 -0.1422
 9455TIP3    H249857   6.268   5.871   4.501  2.0167 -2.2044  0.2618
 9456TIP3   OH249858   1.671   3.059  13.951 -0.3448  0.7093 -0.0836
 9456TIP3    H149859   1.750   3.014  13.920  0.4922  2.1477 -0.1492
 9456TIP3    H249860   1.625   3.085  13.871 -0.9461 -0.1902 -0.0447
 9457TIP3   OH249861   4.694   2.134   3.489  0.1618 -0.2568  0.1060
 9457TIP3    H149862   4.658   2.197   3.426 -0.5920 -0.8876 -0.1037
 9457TIP3    H249863   4.739   2.189   3.553  0.6684  0.4206 -0.7970
 9458TIP3   OH249864   5.807   6.705   0.404  0.1546  0.7485  0.3402
 9458TIP3    H149865   5.733   6.665   0.450 -0.1679  1.3606  0.3686
 9458TIP3    H249866   5.802   6.668   0.315  0.4687 -0.0376  0.6448
 9459TIP3   OH249867   0.022   1.810  11.446 -0.0617 -0.1493  0.2713
 9459TIP3    H149868  -0.038   1.778  11.380 -0.9440  0.3183  0.8206
 9459TIP3    H249869   0.099   1.753  11.440  0.5838  0.8793 -2.2471
 9460TIP3   OH249870   2.960   6.701  11.708  0.4561  0.1270  0.0322
 9460TIP3    H149871   2.989   6.680  11.619 -1.2219  0.1270 -0.5495
 9460TIP3    H249872   3.022   6.768  11.738  2.1160 -1.1168 -0.4378
 9461TIP3   OH249873   5.392   5.020   1.743 -0.3231 -0.0122  0.4923
 9461TIP3    H149874   5.378   4.967   1.821  0.0927 -0.8211  0.0363
 9461TIP3    H249875   5.481   4.997   1.715  0.1412  1.4573  0.6767
 9462TIP3   OH249876   1.049   2.629  15.095 -0.2696 -0.0535 -0.1200
 9462TIP3    H149877   0.970   2.576  15.106  0.1752 -0.6482  0.2432
 9462TIP3    H249878   1.089   2.631  15.182 -1.0338  2.1180  0.2542
 9463TIP3   OH249879   2.426   4.766   5.244  0.5884 -0.3000 -0.2322
 9463TIP3    H149880   2.450   4.674   5.241  0.5512 -0.3298  0.3403
 9463TIP3    H249881   2.354   4.775   5.181  0.3815 -0.7221 -0.0555
 9464TIP3   OH249882   3.551   4.348  15.634 -1.0239 -1.1289  0.2428
 9464TIP3    H149883   3.517   4.272  15.682  1.9520 -1.6346  1.8204
 9464TIP3    H249884   3.645   4.331  15.626 -0.4461  1.8047 -0.5068
 9465TIP3   OH249885   0.589   5.790  11.176  0.6306 -0.5459 -0.0485
 9465TIP3    H149886   0.664   5.845  11.200 -0.2544  0.3555  0.7906
 9465TIP3    H249887   0.605   5.764  11.086  0.5165  2.1391 -0.9258
 9466TIP3   OH249888   5.086   0.319  16.600 -0.4530  0.2766 -0.4221
 9466TIP3    H149889   5.066   0.413  16.604 -0.6472  0.2166  0.1551
 9466TIP3    H249890   5.160   0.308  16.660 -1.2550 -0.1369  0.5208
 9467TIP3   OH249891   2.023   0.405  13.416  0.6514  0.2743  0.7662
 9467TIP3    H149892   2.027   0.313  13.439 -3.2504 -0.1705  0.3646
 9467TIP3    H249893   1.978   0.446  13.490 -0.0116  1.3341 -0.1945
 9468TIP3   OH249894   4.736   6.572  12.112 -0.4678 -0.1998 -0.2624
 9468TIP3    H149895   4.686   6.506  12.064 -0.8038 -2.1975  2.5398
 9468TIP3    H249896   4.673   6.640  12.134 -1.1237 -0.9080  0.1104
 9469TIP3   OH249897   1.851   5.347   0.078 -0.6342 -0.6469  0.2443
 9469TIP3    H149898   1.808   5.372  -0.003 -1.7751 -0.2491  0.9541
 9469TIP3    H249899   1.781   5.342   0.143  0.1374 -1.7334  1.0420
 9470TIP3   OH249900   6.013   2.137   4.214  0.2352 -0.2342  0.1188
 9470TIP3    H149901   5.931   2.144   4.264  0.3369  2.7149  0.0843
 9470TIP3    H249902   6.082   2.149   4.279  0.5560 -0.6495 -0.1415
 9471TIP3   OH249903   5.502   2.055  14.601 -0.3377 -0.0484 -0.1033
 9471TIP3    H149904   5.476   2.087  14.687  0.5101 -1.5770  0.7745
 9471TIP3    H249905   5.471   1.965  14.599  1.1028 -0.5637 -0.7117
 9472TIP3   OH249906   5.838   2.283  13.216 -0.4969 -0.1236  0.3942
 9472TIP3    H149907   5.868   2.357  13.163 -1.8431  0.5526  0.5215
 9472TIP3    H249908   5.744   2.277  13.197 -0.2986 -2.2690 -0.1670
 9473TIP3   OH249909   2.907   2.740   3.986  0.0620  0.0715 -0.4970
 9473TIP3    H149910   2.870   2.660   4.023  0.0566 -0.2740 -1.2177
 9473TIP3    H249911   2.986   2.757   4.038  0.0267 -0.3726 -0.2940
 9474TIP3   OH249912   2.619   2.118   0.916 -0.0101 -0.2306  0.2088
 9474TIP3    H149913   2.641   2.181   0.847  1.0068 -0.6901  0.0853
 9474TIP3    H249914   2.528   2.137   0.939  0.0707  0.8214 -0.3060
 9475TIP3   OH249915   0.408   1.150   1.724  0.2877  0.3522 -0.2045
 9475TIP3    H149916   0.401   1.131   1.631  0.9851 -0.6519 -0.0708
 9475TIP3    H249917   0.483   1.099   1.754  0.7527  1.5081  0.6984
 9476TIP3   OH249918   0.738   3.899  11.825  0.2901  0.0123 -0.0296
 9476TIP3    H149919   0.723   3.990  11.802 -0.2740 -0.3084 -0.9761
 9476TIP3    H249920   0.833   3.889  11.822  0.2945  0.2557 -1.2121
 9477TIP3   OH249921   3.665   5.742   0.597  0.2483  0.0067  0.0841
 9477TIP3    H149922   3.650   5.716   0.506 -1.2726  0.0552  0.2895
 9477TIP3    H249923   3.617   5.825   0.606 -0.4091 -0.4684  1.1677
 9478TIP3   OH249924   6.358   2.594   0.731  0.0711 -0.5489  0.3682
 9478TIP3    H149925   6.266   2.580   0.708 -0.3866  2.0392  0.3098
 9478TIP3    H249926   6.364   2.567   0.822 -1.7755  2.6347  1.6118
 9479TIP3   OH249927   1.295   5.938  12.239  0.0233  0.2351 -0.0088
 9479TIP3    H149928   1.345   5.858  12.256 -0.7935 -0.2749  0.0601
 9479TIP3    H249929   1.346   6.007  12.280  2.4066  0.2718 -2.6710
 9480TIP3   OH249930   3.227   1.737  12.392  0.2227 -0.0623 -0.0494
 9480TIP3    H149931   3.236   1.645  12.368  0.1967 -0.3105  0.8621
 9480TIP3    H249932   3.246   1.739  12.486  1.8953  1.1104 -0.3567
 9481TIP3   OH249933   4.928   3.813   5.765 -0.0660  0.0078 -0.6905
 9481TIP3    H149934   4.948   3.896   5.809  1.4372  0.8186 -2.7475
 9481TIP3    H249935   4.841   3.827   5.727  0.3971  0.8590 -1.4659
 9482TIP3   OH249936   6.518   1.821   1.021 -0.6028 -0.8655  0.1815
 9482TIP3    H149937   6.426   1.796   1.032 -0.8275  0.1935  0.7521
 9482TIP3    H249938   6.520   1.872   0.940 -0.7226  0.0702  0.7578
 9483TIP3   OH249939   1.833   5.939   1.988  0.0891 -0.1191 -0.6861
 9483TIP3    H149940   1.849   5.937   1.894 -1.0735  1.7129 -0.9751
 9483TIP3    H249941   1.845   6.030   2.013  0.8513 -0.6472  1.0651
 9484TIP3   OH249942   1.050   6.049   5.252  0.1035 -0.6011 -0.1698
 9484TIP3    H149943   1.133   6.001   5.249  0.8805  0.6833  0.2172
 9484TIP3    H249944   1.032   6.060   5.345  0.0754  0.0817 -0.2517
 9485TIP3   OH249945   5.351   3.618   0.662 -0.6820  0.5796 -0.3620
 9485TIP3    H149946   5.288   3.546   0.662 -1.9878  1.6754 -0.4019
 9485TIP3    H249947   5.388   3.618   0.574 -2.7521  1.6512 -1.3079
 9486TIP3   OH249948   3.051   3.065   5.271 -0.2825  0.3031 -0.4355
 9486TIP3    H149949   2.966   3.031   5.300 -0.0072 -0.3350 -0.3645
 9486TIP3    H249950   3.044   3.159   5.283 -2.3102  0.7726 -3.7419
 9487TIP3   OH249951   6.644   6.233  12.809  0.0418 -0.1642  0.3328
 9487TIP3    H149952   6.566   6.186  12.781  1.5385 -2.0751 -0.8283
 9487TIP3    H249953   6.668   6.287  12.734  0.3685 -0.2778  0.3569
 9488TIP3   OH249954   6.166   5.318  13.043 -0.0747 -0.3316  0.0087
 9488TIP3    H149955   6.117   5.296  13.122 -0.2281  1.8875  0.6105
 9488TIP3    H249956   6.256   5.333  13.074 -0.1209  0.4827 -0.2311
 9489TIP3   OH249957   1.620   6.793   2.041 -0.3584  0.3524 -0.7966
 9489TIP3    H149958   1.693   6.777   1.980  0.0436  0.2844 -0.3082
 9489TIP3    H249959   1.595   6.706   2.071  2.0520  0.5102  2.1229
 9490TIP3   OH249960   2.186   6.523  17.017  0.1478 -0.2514  0.2803
 9490TIP3    H149961   2.256   6.587  17.004 -0.7265  0.9759  1.3490
 9490TIP3    H249962   2.108   6.565  16.981 -0.3120 -1.0109  0.3700
 9491TIP3   OH249963   6.451   5.378  14.871 -0.0639  0.4834 -0.2902
 9491TIP3    H149964   6.360   5.369  14.842  0.4960 -2.2155 -1.5907
 9491TIP3    H249965   6.452   5.457  14.924 -3.4537 -0.1362  0.9373
 9492TIP3   OH249966   4.086   4.122   5.486 -0.0710 -0.2952 -0.4725
 9492TIP3    H149967   4.066   4.031   5.506  0.2316 -0.1554  0.5243
 9492TIP3    H249968   4.139   4.118   5.406 -1.4949 -0.8575 -1.4472
 9493TIP3   OH249969   2.446   1.963   2.838  0.6477 -0.0410  0.3407
 9493TIP3    H149970   2.430   1.869   2.824 -0.5663  0.2272 -0.1883
 9493TIP3    H249971   2.542   1.972   2.832  0.6731 -0.9591 -1.6103
 9494TIP3   OH249972   2.697   5.599   5.606 -0.2217  0.3971 -0.2466
 9494TIP3    H149973   2.792   5.594   5.619 -0.1037  2.3991  0.0627
 9494TIP3    H249974   2.672   5.680   5.651 -1.9225  0.4383 -1.2184
 9495TIP3   OH249975   0.168   6.212  15.621 -0.2189 -0.1315 -0.5660
 9495TIP3    H149976   0.103   6.279  15.598 -1.6349 -2.0303 -2.4228
 9495TIP3    H249977   0.118   6.142  15.662  1.1759 -0.3211  0.9136
 9496TIP3   OH249978   4.015   4.863   6.391 -0.8918  0.4653  0.3678
 9496TIP3    H149979   4.103   4.845   6.422 -1.7025 -0.0600  2.5758
 9496TIP3    H249980   4.025   4.938   6.332  0.8463  1.4217  1.7697
 9497TIP3   OH249981   4.163   3.485   1.875 -0.2374  0.7357  0.3615
 9497TIP3    H149982   4.155   3.515   1.966  1.0064  0.8510  0.4454
 9497TIP3    H249983   4.081   3.438   1.858 -0.4520  0.6418  1.5688
 9498TIP3   OH249984   0.429   4.003  13.439  0.3887  0.6227 -0.1757
 9498TIP3    H149985   0.371   4.079  13.428  0.2472  0.3478 -1.4839
 9498TIP3    H249986   0.494   4.012  13.370  0.5331 -0.3133 -0.1751
 9499TIP3   OH249987   3.444   5.649  16.682  0.6252 -0.2971 -0.3275
 9499TIP3    H149988   3.361   5.693  16.665  0.0323 -0.4631  1.8126
 9499TIP3    H249989   3.491   5.653  16.599 -0.4875  2.0092 -0.9341
 9500TIP3   OH249990   0.884   4.884   6.076 -0.1914  0.6491 -0.2238
 9500TIP3    H149991   0.803   4.837   6.055  0.8536 -1.4321  0.0954
 9500TIP3    H249992   0.920   4.836   6.151  2.2344  0.3285 -1.5095
 9501TIP3   OH249993   4.914   4.471   2.279  0.3454 -0.2972  0.0616
 9501TIP3    H149994   4.913   4.376   2.272 -0.8277 -0.1929 -1.7626
 9501TIP3    H249995   4.975   4.489   2.352  0.4746 -2.4093  0.5387
 9502TIP3   OH249996   0.250   2.339  13.120 -0.6864 -0.0010 -0.2826
 9502TIP3    H149997   0.211   2.427  13.121  1.7933  1.1933 -1.3347
 9502TIP3    H249998   0.292   2.331  13.205 -2.6906 -1.1133  0.6748
 9503TIP3   OH249999   4.408   1.180   3.727  0.1157 -0.0960  0.0679
 9503TIP3    H150000   4.337   1.124   3.699 -1.1833  1.4318  0.1826
 9503TIP3    H250001   4.487   1.138   3.694 -0.9254 -1.2206 -1.0529
 9504TIP3   OH250002   2.823   5.618   6.533  0.2813  0.0238 -0.0139
 9504TIP3    H150003   2.743   5.619   6.481  1.4260 -0.4790 -1.8642
 9504TIP3    H250004   2.840   5.710   6.552  0.2575  0.2905 -1.2178
 9505TIP3   OH250005   6.421   2.503  15.466  0.3305  0.2295 -0.0950
 9505TIP3    H150006   6.408   2.426  15.410 -1.7589  1.5655 -1.6008
 9505TIP3    H250007   6.508   2.535  15.442  0.9474 -1.2345  0.0563
 9506TIP3   OH250008   0.074   1.724   4.044  0.3101 -0.2869  0.3282
 9506TIP3    H150009   0.039   1.770   4.120 -1.2622 -0.6955 -0.1068
 9506TIP3    H250010   0.140   1.665   4.079 -1.3449 -1.4726  1.5887
 9507TIP3   OH250011   0.869   2.856  14.684  0.5622 -0.0675 -0.1961
 9507TIP3    H150012   0.928   2.921  14.722 -1.7065  1.3795  1.0589
 9507TIP3    H250013   0.893   2.773  14.727  2.5946  0.1620 -0.8105
 9508TIP3   OH250014   3.499   4.062   1.161  0.6941 -1.1078  0.1606
 9508TIP3    H150015   3.568   4.079   1.225 -0.6411  2.3725  0.9290
 9508TIP3    H250016   3.427   4.025   1.212  0.6367 -1.0833  0.0981
 9509TIP3   OH250017   1.158   1.514   4.097  0.2161  0.5900  0.1661
 9509TIP3    H150018   1.179   1.447   4.162  0.6601  1.0297  0.4798
 9509TIP3    H250019   1.159   1.596   4.145 -0.2006  0.8387 -0.2423
 9510TIP3   OH250020   2.032   3.861   2.491 -0.0258  0.3580 -0.5758
 9510TIP3    H150021   2.111   3.860   2.438  1.8809 -0.9178  2.0514
 9510TIP3    H250022   1.990   3.776   2.473 -1.0072  1.1315 -2.1462
 9511TIP3   OH250023   1.825   3.148  13.258 -0.1584  0.7404  0.3879
 9511TIP3    H150024   1.810   3.243  13.256  0.3634  0.9226  2.7236
 9511TIP3    H250025   1.764   3.116  13.324 -0.5595 -0.6359 -0.6063
 9512TIP3   OH250026   3.166   6.317  11.566 -0.1795  0.1825  0.5703
 9512TIP3    H150027   3.133   6.269  11.490  0.8053  0.3141  0.0432
 9512TIP3    H250028   3.215   6.252  11.617 -2.7615 -0.5091  2.3953
 9513TIP3   OH250029   1.927   4.687   1.075 -0.2580  0.2296 -0.3136
 9513TIP3    H150030   1.893   4.775   1.092 -0.6427 -0.1687  1.1693
 9513TIP3    H250031   1.921   4.643   1.160  1.9376 -0.5531 -0.5140
 9514TIP3   OH250032   1.644   2.673  16.279 -0.4156 -0.0986  0.2891
 9514TIP3    H150033   1.736   2.678  16.303  0.1240 -0.6023 -1.5298
 9514TIP3    H250034   1.606   2.755  16.312  0.3521 -0.4741  2.2296
 9515TIP3   OH250035   5.125   2.153   3.047  0.2782  0.0109 -0.0303
 9515TIP3    H150036   5.091   2.064   3.063 -0.5232  0.0962 -1.1662
 9515TIP3    H250037   5.196   2.141   2.985 -0.5740  0.2624 -1.0717
 9516TIP3   OH250038   6.426   3.393  15.164  0.3033  0.0634  0.1268
 9516TIP3    H150039   6.413   3.299  15.150 -0.1371  0.1917 -0.3656
 9516TIP3    H250040   6.419   3.431  15.076 -2.3946  0.8971  0.6015
 9517TIP3   OH250041   6.217   3.402  12.571 -0.3227  0.6485  0.8610
 9517TIP3    H150042   6.194   3.449  12.652  0.7887 -0.0130  1.5900
 9517TIP3    H250043   6.175   3.316  12.581 -1.1308  0.9585  0.2025
 9518TIP3   OH250044   6.297   3.058   3.596 -0.1500  0.0133 -0.0208
 9518TIP3    H150045   6.362   2.989   3.604  0.3945  0.3868 -1.1328
 9518TIP3    H250046   6.250   3.057   3.680 -0.3606 -1.8947 -0.1334
 9519TIP3   OH250047   1.991   4.238   5.114 -0.2055 -0.3228 -0.4329
 9519TIP3    H150048   1.998   4.265   5.206 -2.6332  0.4871 -0.4234
 9519TIP3    H250049   2.031   4.151   5.112  1.7705  0.4820  0.9289
 9520TIP3   OH250050   4.597   5.850   1.615 -0.5505  0.2798  0.2780
 9520TIP3    H150051   4.546   5.843   1.534 -1.3881  0.6848  0.7562
 9520TIP3    H250052   4.688   5.837   1.588 -0.7826  0.8022 -0.7866
 9521TIP3   OH250053   4.266   5.753  13.411  0.4564  0.5133 -0.4532
 9521TIP3    H150054   4.172   5.751  13.396  0.5132 -0.5997 -0.7166
 9521TIP3    H250055   4.300   5.676  13.366  1.3217  0.1586  0.7386
 9522TIP3   OH250056   5.305   0.059   0.739  0.0802  0.5527 -0.2139
 9522TIP3    H150057   5.287   0.063   0.645 -1.8124 -0.2476  0.0753
 9522TIP3    H250058   5.333  -0.031   0.755 -1.0318  0.2709  0.2022
 9523TIP3   OH250059   3.551   1.356   5.501  0.3696 -0.9833  0.2146
 9523TIP3    H150060   3.562   1.261   5.508 -2.1091 -1.3568 -0.2948
 9523TIP3    H250061   3.515   1.370   5.414 -2.5880  0.0050  1.4605
 9524TIP3   OH250062   4.642   4.654  12.896  0.0199  0.7182 -1.0392
 9524TIP3    H150063   4.684   4.734  12.864 -0.4178  0.4562 -2.3174
 9524TIP3    H250064   4.663   4.587  12.831  2.4269 -0.8958  1.1945
 9525TIP3   OH250065   3.892   2.726   6.823  0.8846 -0.2734  0.0465
 9525TIP3    H150066   3.894   2.631   6.825 -0.6725 -0.3117  1.3218
 9525TIP3    H250067   3.802   2.748   6.798  1.4306  0.8753 -1.0248
 9526TIP3   OH250068   2.881   5.612  14.405 -0.3179 -0.2474  0.5404
 9526TIP3    H150069   2.957   5.565  14.368 -0.1036  0.9360 -0.6080
 9526TIP3    H250070   2.806   5.575  14.358 -0.2677 -0.2607  0.4694
 9527TIP3   OH250071   4.176   4.286   3.635  0.1368  0.1027 -0.2354
 9527TIP3    H150072   4.205   4.358   3.579 -0.5136  1.2927  0.8930
 9527TIP3    H250073   4.203   4.311   3.723  1.2572 -1.7926  0.0210
 9528TIP3   OH250074   6.233   6.610  15.106  0.7612 -0.4336 -0.4342
 9528TIP3    H150075   6.236   6.574  15.195  0.5863 -0.6850 -0.5287
 9528TIP3    H250076   6.140   6.624  15.089  0.8311  0.0955 -0.3898
 9529TIP3   OH250077   5.377   5.868  16.328  0.0312 -0.0069 -0.1890
 9529TIP3    H150078   5.395   5.960  16.346 -1.1555  0.3895 -0.8919
 9529TIP3    H250079   5.452   5.821  16.364  1.3057  1.3326 -0.9656
 9530TIP3   OH250080   1.122   2.223  12.861  0.1494 -0.1680  0.0669
 9530TIP3    H150081   1.150   2.138  12.829 -0.5614 -0.9406  1.4210
 9530TIP3    H250082   1.136   2.219  12.956 -0.3550  1.0414  0.2136
 9531TIP3   OH250083   6.647   3.061  16.008  0.1219  0.4270 -0.4534
 9531TIP3    H150084   6.694   3.110  16.075 -0.7861  1.1206 -0.2987
 9531TIP3    H250085   6.712   3.002  15.970  0.7479  0.3322  0.7422
 9532TIP3   OH250086   5.225   5.679  16.796 -0.4797  0.2627 -0.3697
 9532TIP3    H150087   5.166   5.638  16.732 -1.1308  0.2236  0.2510
 9532TIP3    H250088   5.204   5.636  16.879  0.3931  0.2804 -0.1317
 9533TIP3   OH250089   0.909   3.730  16.369 -0.2186  0.3415  0.4749
 9533TIP3    H150090   0.913   3.824  16.351 -0.7350  0.3633  0.4700
 9533TIP3    H250091   0.818   3.706  16.352 -0.2439 -0.0301  1.1036
 9534TIP3   OH250092   0.710   1.864  13.367  0.5377 -0.0175 -0.1414
 9534TIP3    H150093   0.767   1.883  13.292 -1.8490  0.2060 -2.0315
 9534TIP3    H250094   0.760   1.802  13.420  3.3144  1.6445 -0.5890
 9535TIP3   OH250095   2.498   5.844   1.724 -0.3743  0.1932  0.3206
 9535TIP3    H150096   2.466   5.755   1.710 -0.3205  0.2038  0.1260
 9535TIP3    H250097   2.448   5.875   1.799 -1.8415  0.6941 -0.8084
 9536TIP3   OH250098   2.884   0.366   5.449  0.2888 -0.4579  0.2735
 9536TIP3    H150099   2.929   0.443   5.484 -0.7129 -0.4340  1.5640
 9536TIP3    H250100   2.810   0.403   5.400 -2.0393 -0.5331  3.4120
 9537TIP3   OH250101   3.085   0.619   1.580  0.2476 -0.3309  0.0035
 9537TIP3    H150102   3.136   0.657   1.652  1.4549 -1.1386 -0.4012
 9537TIP3    H250103   3.005   0.672   1.578  0.1671 -0.2963  1.9384
 9538TIP3   OH250104   3.955   2.262   1.236  0.5827  0.0667  0.2368
 9538TIP3    H150105   3.968   2.348   1.278  0.9195  1.0171 -1.7149
 9538TIP3    H250106   3.876   2.228   1.277 -0.2956  1.8955  0.1792
 9539TIP3   OH250107   1.440   6.492   0.705 -0.0624 -0.2832  0.1087
 9539TIP3    H150108   1.419   6.411   0.752  1.1218  0.0246  1.2190
 9539TIP3    H250109   1.497   6.464   0.634 -0.8092 -0.5885 -0.3825
 9540TIP3   OH250110   0.777   2.059   5.805 -0.2409  0.1312 -0.1384
 9540TIP3    H150111   0.774   1.980   5.751  1.5985 -0.4349  0.5082
 9540TIP3    H250112   0.789   2.130   5.742  1.2993 -0.4546 -0.5589
 9541TIP3   OH250113   4.583   0.082  15.669  0.4245  0.4300  0.8340
 9541TIP3    H150114   4.611   0.125  15.588 -0.4260  0.4221  0.5306
 9541TIP3    H250115   4.652   0.018  15.687  0.6522  0.4771  0.1567
 9542TIP3   OH250116   5.737   5.930  16.368  1.0149 -0.3710  0.6239
 9542TIP3    H150117   5.716   5.837  16.377 -1.0685 -0.0806 -0.4218
 9542TIP3    H250118   5.773   5.938  16.279 -0.6147  0.0415 -0.0397
 9543TIP3   OH250119   2.372   0.655  12.753  0.1701 -0.1508  0.4221
 9543TIP3    H150120   2.328   0.677  12.671 -2.8443  3.0655  2.6428
 9543TIP3    H250121   2.451   0.710  12.753 -1.0317  1.6313  0.6193
 9544TIP3   OH250122   2.069   4.661  11.635 -0.3805 -0.0221 -0.3198
 9544TIP3    H150123   2.076   4.570  11.665 -0.6713 -0.3573 -1.2564
 9544TIP3    H250124   2.060   4.655  11.540  1.7414  1.0565 -0.6705
 9545TIP3   OH250125   5.272   1.914  12.392  0.3171 -0.9879  0.1271
 9545TIP3    H150126   5.299   1.885  12.305  0.2404 -1.7804  0.3639
 9545TIP3    H250127   5.177   1.904  12.392  0.1356  0.4626 -0.2140
 9546TIP3   OH250128   4.632   1.719  16.719  0.3800 -0.0960 -0.1041
 9546TIP3    H150129   4.694   1.698  16.648  1.8561  1.2050  0.7454
 9546TIP3    H250130   4.580   1.792  16.684  0.0628 -0.4653 -0.4113
 9547TIP3   OH250131   1.585   1.101  13.653 -0.2023  0.3740  0.2369
 9547TIP3    H150132   1.658   1.110  13.591  0.7034 -3.1220  0.6258
 9547TIP3    H250133   1.522   1.045  13.608 -1.3586  0.9696  1.0556
 9548TIP3   OH250134   0.642   4.451   6.075 -0.0746  0.3858  0.5612
 9548TIP3    H150135   0.548   4.460   6.094 -0.1337 -1.0991  1.1046
 9548TIP3    H250136   0.670   4.540   6.053 -1.3822  1.0587  1.4193
 9549TIP3   OH250137   4.338   6.796   0.712  0.1198 -0.4739 -0.1775
 9549TIP3    H150138   4.315   6.843   0.791  0.4294 -1.9302  0.8254
 9549TIP3    H250139   4.391   6.858   0.661 -1.0733  0.8815  0.1735
 9550TIP3   OH250140   3.830   4.547   1.634 -0.2264  0.1492  0.1633
 9550TIP3    H150141   3.894   4.598   1.683 -0.2960 -0.4912  0.9549
 9550TIP3    H250142   3.849   4.456   1.657  0.4695 -0.2695 -1.9200
 9551TIP3   OH250143   6.431   0.996  15.777  0.1274 -0.5770  0.3964
 9551TIP3    H150144   6.374   1.055  15.727  0.4231 -0.2980  0.3831
 9551TIP3    H250145   6.511   1.046  15.790  0.1289 -0.7220  0.9825
 9552TIP3   OH250146   3.584   4.098  15.781  0.0373  0.9135 -0.3123
 9552TIP3    H150147   3.631   4.171  15.821  1.8265  0.1544 -0.9373
 9552TIP3    H250148   3.569   4.036  15.852  2.7628 -0.2060 -0.5894
 9553TIP3   OH250149   2.037   4.892   3.824 -0.0498 -0.2666 -0.2270
 9553TIP3    H150150   1.997   4.927   3.745 -0.5804 -0.2008  0.0669
 9553TIP3    H250151   2.081   4.967   3.864 -1.6256  0.2129  0.6748
 9554TIP3   OH250152   2.260   2.010   3.217 -0.0086 -0.6366  0.7697
 9554TIP3    H150153   2.216   1.925   3.220 -1.1207 -0.0783  1.0844
 9554TIP3    H250154   2.205   2.066   3.272 -0.2309  0.7004 -0.7526
 9555TIP3   OH250155   0.609   6.148   6.170  0.7783 -0.4522  0.1106
 9555TIP3    H150156   0.612   6.134   6.265 -0.2702 -1.6531 -0.0017
 9555TIP3    H250157   0.516   6.151   6.149  0.9923  1.1699 -0.7207
 9556TIP3   OH250158   6.372   1.422  12.462  0.4878  0.1524  0.5057
 9556TIP3    H150159   6.290   1.389  12.426  1.4700 -1.0367 -0.7471
 9556TIP3    H250160   6.346   1.475  12.537 -1.3535 -1.0169  0.7470
 9557TIP3   OH250161   1.872   5.727  10.340 -0.1741  0.1721  0.0036
 9557TIP3    H150162   1.901   5.718  10.431  1.7543  0.2230 -0.5701
 9557TIP3    H250163   1.913   5.808  10.310  0.9881 -0.9247 -1.5131
 9558TIP3   OH250164   5.614   4.831  16.936  0.1203 -0.0089  0.1820
 9558TIP3    H150165   5.658   4.753  16.901  1.2405  0.9580 -0.6457
 9558TIP3    H250166   5.619   4.895  16.865 -1.6508  0.5217  0.4952
 9559TIP3   OH250167   4.075   1.590  10.985 -0.1110 -0.2268 -0.1238
 9559TIP3    H150168   4.132   1.514  10.992  0.4156  0.2444  0.8408
 9559TIP3    H250169   4.003   1.561  10.928  0.3707 -1.2559 -0.2258
 9560TIP3   OH250170   4.629   0.878   4.874  0.0283 -0.1914  0.3203
 9560TIP3    H150171   4.636   0.968   4.906  1.5856 -0.0554 -0.3413
 9560TIP3    H250172   4.719   0.851   4.856 -0.4786 -1.6223 -0.2280
 9561TIP3   OH250173   3.081   0.343  14.980 -0.3411  0.2357 -0.7605
 9561TIP3    H150174   3.151   0.296  15.025  0.6366  1.1219 -1.3035
 9561TIP3    H250175   3.089   0.316  14.888 -2.8811 -2.2501 -0.3650
 9562TIP3   OH250176   2.523   3.519   3.535  0.5918 -0.3611  0.6134
 9562TIP3    H150177   2.467   3.471   3.474 -0.4420  0.0381  1.2377
 9562TIP3    H250178   2.468   3.536   3.611  2.3707 -2.4960  2.5371
 9563TIP3   OH250179   1.853   3.178   6.416  0.5188  0.3520  0.0579
 9563TIP3    H150180   1.772   3.129   6.404  0.4110  0.3648  0.7026
 9563TIP3    H250181   1.857   3.195   6.510  1.3734  0.1699  0.0645
 9564TIP3   OH250182   2.664   5.828  17.316 -0.6545  1.0388  0.6026
 9564TIP3    H150183   2.691   5.748  17.269  3.0165  3.0468 -1.1779
 9564TIP3    H250184   2.629   5.885  17.247  2.1193  2.9596  0.6187
 9565TIP3   OH250185   2.573   5.085  15.161  0.1743 -0.3106 -0.1052
 9565TIP3    H150186   2.570   5.108  15.068  0.1621 -0.0496 -0.0416
 9565TIP3    H250187   2.637   5.145  15.199 -1.7195  1.4031  0.5363
 9566TIP3   OH250188   5.840   3.995  16.337  0.2052  0.7298  0.2880
 9566TIP3    H150189   5.928   3.975  16.307 -0.4029 -2.1094  0.1598
 9566TIP3    H250190   5.847   4.003  16.432  0.7561  1.7326  0.1826
 9567TIP3   OH250191   1.443   5.390   2.312  0.0020  0.5029 -0.3704
 9567TIP3    H150192   1.414   5.411   2.224  0.2460 -0.7251 -0.7617
 9567TIP3    H250193   1.520   5.335   2.299  0.2686  0.6262  0.6155
 9568TIP3   OH250194   6.774   0.865   4.026 -0.5534 -0.3118 -0.1633
 9568TIP3    H150195   6.732   0.921   4.092 -0.6007 -0.2004 -0.2879
 9568TIP3    H250196   6.843   0.819   4.074  0.3829  0.8479 -0.3448
 9569TIP3   OH250197   4.544   5.239   4.314  0.4585 -0.7616 -0.1265
 9569TIP3    H150198   4.554   5.216   4.222  2.5922  0.3065 -0.2073
 9569TIP3    H250199   4.485   5.315   4.314 -1.0541 -1.8915 -0.4099
 9570TIP3   OH250200   0.513   1.012  14.801 -0.2484  0.2074  0.5404
 9570TIP3    H150201   0.538   0.958  14.877  0.8468 -0.5964 -0.3559
 9570TIP3    H250202   0.583   1.077  14.794 -0.5406  0.5143  0.4332
 9571TIP3   OH250203   0.054   2.779   4.080  0.2460 -0.5906 -0.6300
 9571TIP3    H150204   0.132   2.780   4.024  0.5122 -0.2051 -0.2591
 9571TIP3    H250205  -0.017   2.755   4.021  0.6083 -0.7196 -1.0227
 9572TIP3   OH250206   2.687   2.002   3.010  0.1531  0.3358 -0.1222
 9572TIP3    H150207   2.697   2.097   3.013 -0.4678  0.4020 -0.0778
 9572TIP3    H250208   2.662   1.977   3.099 -0.5747  0.2361 -0.3508
 9573TIP3   OH250209   2.745   6.493  13.052  0.0857 -0.1835  0.6042
 9573TIP3    H150210   2.833   6.476  13.085  0.3649 -0.9305 -0.4754
 9573TIP3    H250211   2.758   6.518  12.961 -0.8691 -1.2310  0.1530
 9574TIP3   OH250212   1.358   4.082   0.110 -0.5971  0.4291 -0.5204
 9574TIP3    H150213   1.447   4.105   0.136 -0.2461 -0.3643 -0.9923
 9574TIP3    H250214   1.368   4.029   0.031 -1.5866  1.9666 -1.7371
 9575TIP3   OH250215   1.324   2.104  17.179  0.5491  0.1722  0.5304
 9575TIP3    H150216   1.381   2.098  17.103  0.1356 -1.3125  0.3011
 9575TIP3    H250217   1.323   2.015  17.215 -2.7884 -0.3215 -0.3833
 9576TIP3   OH250218   3.801   4.648   4.584 -0.2920  0.1597 -0.0739
 9576TIP3    H150219   3.780   4.611   4.670  1.0542 -1.2508 -0.3094
 9576TIP3    H250220   3.716   4.669   4.546 -1.1074 -1.9183  0.4537
 9577TIP3   OH250221   2.064   0.809  15.174 -0.3433  0.5578 -0.6820
 9577TIP3    H150222   2.063   0.725  15.220 -0.7293  1.2018  0.5361
 9577TIP3    H250223   2.143   0.806  15.121  0.8531  0.3073  1.0438
 9578TIP3   OH250224   4.288   1.493   1.932 -0.1076  0.1988 -1.0488
 9578TIP3    H150225   4.346   1.560   1.969  0.7820 -0.9559 -0.2633
 9578TIP3    H250226   4.202   1.534   1.931  0.7021  1.9832 -2.2774
 9579TIP3   OH250227   2.613   5.242   2.374  0.9279 -0.7232  0.4205
 9579TIP3    H150228   2.700   5.204   2.365  0.8080 -1.5734  2.3511
 9579TIP3    H250229   2.572   5.191   2.444 -0.5267  0.7195  0.6690
 9580TIP3   OH250230   2.702   2.657  17.109 -0.0642  0.2669 -0.2964
 9580TIP3    H150231   2.696   2.747  17.078 -0.0146  0.0217 -1.0463
 9580TIP3    H250232   2.640   2.652  17.182 -1.0858  0.5490 -1.1229
 9581TIP3   OH250233   1.634   4.393  17.012 -0.0046 -0.5314 -0.2605
 9581TIP3    H150234   1.708   4.401  16.952  0.9771  0.0948  0.9857
 9581TIP3    H250235   1.665   4.433  17.094 -1.2427 -1.4908  0.7178
 9582TIP3   OH250236   3.696   1.266   1.175 -0.2081  0.2703  0.0155
 9582TIP3    H150237   3.604   1.292   1.179 -0.7866 -1.4514 -1.2454
 9582TIP3    H250238   3.696   1.172   1.192  1.6546  0.6347  2.8402
 9583TIP3   OH250239   0.425   1.402   5.779 -0.1105  0.1975  0.7332
 9583TIP3    H150240   0.454   1.380   5.868 -2.3053 -0.0803  1.4216
 9583TIP3    H250241   0.395   1.319   5.742  2.8685 -0.1900 -1.2151
 9584TIP3   OH250242   2.627   6.223  13.859  0.5538  1.1804 -0.8737
 9584TIP3    H150243   2.660   6.242  13.947 -5.6825 -0.6967  2.5238
 9584TIP3    H250244   2.637   6.304  13.811  1.0045  3.6234  2.9287
 9585TIP3   OH250245   0.250   2.266   0.099 -0.0434 -0.1582 -0.9051
 9585TIP3    H150246   0.258   2.355   0.132  1.5441 -0.8508  0.7553
 9585TIP3    H250247   0.202   2.219   0.167  0.8465 -0.9892 -0.8221
 9586TIP3   OH250248   5.936   5.450  14.835 -0.0599 -0.0063  0.6275
 9586TIP3    H150249   5.854   5.420  14.873 -1.9005  1.3783 -1.9468
 9586TIP3    H250250   5.926   5.545  14.826  0.4290 -0.1514 -2.6224
 9587TIP3   OH250251   6.608   6.742  15.454 -0.5743  0.2513 -0.4154
 9587TIP3    H150252   6.624   6.721  15.546 -0.4563 -0.3853 -0.5712
 9587TIP3    H250253   6.669   6.812  15.433 -0.1608 -0.0341 -0.1713
 9588TIP3   OH250254   1.602   1.066  14.564  0.0974 -0.1718 -0.6274
 9588TIP3    H150255   1.689   1.100  14.586  0.9371 -2.9551  0.8233
 9588TIP3    H250256   1.544   1.103  14.631  0.8532 -0.8983  0.4777
 9589TIP3   OH250257   6.585   3.830  11.776  0.1559 -0.0117  0.1655
 9589TIP3    H150258   6.659   3.773  11.756  0.4766 -0.0141  1.2692
 9589TIP3    H250259   6.554   3.799  11.861  0.2536  1.3611  0.7240
 9590TIP3   OH250260   3.649   0.880   3.278 -0.0836 -0.4901 -0.1817
 9590TIP3    H150261   3.608   0.865   3.364 -1.8445 -2.6202 -1.2752
 9590TIP3    H250262   3.650   0.793   3.237  2.5052  0.1187 -1.6136
 9591TIP3   OH250263   6.447   6.658  13.601  0.0779  0.0733  0.1010
 9591TIP3    H150264   6.392   6.632  13.527  1.5070  0.2746 -1.0947
 9591TIP3    H250265   6.393   6.643  13.678 -1.9587  1.0875 -1.0332
 9592TIP3   OH250266   2.247   2.968  13.155  0.5833 -0.1352  0.4489
 9592TIP3    H150267   2.324   3.021  13.136 -0.2667  1.3993  1.0760
 9592TIP3    H250268   2.257   2.890  13.101  1.6557  0.8700 -0.8643
 9593TIP3   OH250269   1.155   1.402  14.518  0.5163 -0.2624  0.1580
 9593TIP3    H150270   1.223   1.441  14.573 -0.1392  1.2321 -0.0453
 9593TIP3    H250271   1.183   1.312  14.506  1.4410 -0.2127  1.7063
 9594TIP3   OH250272   2.127   4.884  13.200 -0.1633 -0.3521 -0.1902
 9594TIP3    H150273   2.069   4.951  13.163  1.2697  1.5251  0.7820
 9594TIP3    H250274   2.092   4.869  13.288  1.0285  1.1783  0.5998
 9595TIP3   OH250275   4.382   1.501   3.458 -0.5124 -0.0024 -0.8600
 9595TIP3    H150276   4.473   1.475   3.470 -0.9539 -0.9822  0.6156
 9595TIP3    H250277   4.387   1.592   3.427  0.9670 -0.6148 -2.6017
 9596TIP3   OH250278   2.890   5.526  13.230 -0.3842  0.0536 -0.2546
 9596TIP3    H150279   2.976   5.555  13.201  0.0254 -1.1556 -0.2822
 9596TIP3    H250280   2.897   5.517  13.325 -0.2187 -0.8665 -0.3480
 9597TIP3   OH250281   1.038   0.901   1.017 -0.2921  0.0647  0.1005
 9597TIP3    H150282   1.027   0.926   0.926  1.7453 -0.5231 -0.3567
 9597TIP3    H250283   1.033   0.984   1.065 -0.5179  0.4837 -0.6267
 9598TIP3   OH250284   3.647   5.117  16.672  0.2566  0.5571 -0.9551
 9598TIP3    H150285   3.597   5.035  16.673 -0.1204  0.7852 -0.8485
 9598TIP3    H250286   3.661   5.135  16.579  0.9677 -0.0031 -0.9606
 9599TIP3   OH250287   4.393   5.816   3.575  0.0424 -0.3318 -0.3885
 9599TIP3    H150288   4.432   5.887   3.525 -0.3074  0.6063  0.6383
 9599TIP3    H250289   4.365   5.753   3.509  0.4476  0.4298 -1.3091
 9600TIP3   OH250290   3.211   6.616  15.686 -0.8292  0.3201 -0.4314
 9600TIP3    H150291   3.154   6.551  15.727  0.8897 -1.2912 -0.4854
 9600TIP3    H250292   3.200   6.602  15.592 -1.0359  0.6484 -0.4579
 9601TIP3   OH250293   4.657   4.797   1.282 -0.1014 -0.6668 -0.2110
 9601TIP3    H150294   4.689   4.714   1.247  3.5960  0.1117  0.8138
 9601TIP3    H250295   4.649   4.782   1.376 -1.8356 -0.4984 -0.3144
 9602TIP3   OH250296   4.439   6.085  11.678 -0.3614  0.1981  0.4022
 9602TIP3    H150297   4.484   6.106  11.759 -0.5055  1.3825  0.1846
 9602TIP3    H250298   4.354   6.128  11.685 -0.5551 -0.0648 -0.1879
 9603TIP3   OH250299   0.481   3.251   5.221  0.0850 -0.1595  0.0970
 9603TIP3    H150300   0.478   3.342   5.252 -1.7494 -0.5299  1.1527
 9603TIP3    H250301   0.559   3.247   5.166  0.7415  1.8036  0.8030
 9604TIP3   OH250302   1.869   3.519   6.065  0.2545  0.1236 -0.4173
 9604TIP3    H150303   1.833   3.449   6.120 -0.7831  0.4399 -0.6823
 9604TIP3    H250304   1.872   3.595   6.122 -0.9172  0.4786 -0.7928
 9605TIP3   OH250305   2.076   4.924  12.429 -0.0814  0.2976  0.8008
 9605TIP3    H150306   2.042   4.865  12.361 -1.9729  1.7689  0.3791
 9605TIP3    H250307   2.090   5.007  12.385 -1.0755  1.2117  2.0973
 9606TIP3   OH250308   0.106   5.694  15.877 -0.0862 -0.0407  0.6827
 9606TIP3    H150309   0.136   5.674  15.966 -2.0532 -0.1198  1.3780
 9606TIP3    H250310   0.047   5.623  15.854  0.2271  0.0893 -0.6282
 9607TIP3   OH250311   3.211   2.729  12.691 -0.1997  0.3226  0.0250
 9607TIP3    H150312   3.182   2.785  12.618  0.2200 -0.0659 -0.4485
 9607TIP3    H250313   3.242   2.649  12.649 -1.1992 -0.4620  0.7215
 9608TIP3   OH250314   2.344   4.359  14.402  0.2266  0.4131 -0.2053
 9608TIP3    H150315   2.366   4.266  14.415  0.8465  0.5730 -0.0428
 9608TIP3    H250316   2.278   4.359  14.333  0.8821 -0.0973 -0.8501
 9609TIP3   OH250317   4.565   3.350  14.086  0.1806  0.6620  0.0919
 9609TIP3    H150318   4.635   3.285  14.095  0.0179  0.6598  1.6316
 9609TIP3    H250319   4.484   3.300  14.099  0.0537  1.1396  1.2982
 9610TIP3   OH250320   1.403   1.469  14.197  0.1243  0.0209 -0.1781
 9610TIP3    H150321   1.454   1.501  14.272  0.8293  0.0924 -0.6741
 9610TIP3    H250322   1.451   1.502  14.121 -1.9085  2.0826 -0.6803
 9611TIP3   OH250323   0.666   6.128   4.822 -0.1480  0.0254 -0.1323
 9611TIP3    H150324   0.716   6.047   4.829  1.8395  1.2509  0.5483
 9611TIP3    H250325   0.629   6.142   4.909 -2.2489 -1.1528 -0.7626
 9612TIP3   OH250326   2.711   6.368   5.422  0.6429  0.4167  0.5415
 9612TIP3    H150327   2.626   6.341   5.388 -0.6170  0.4251  3.3497
 9612TIP3    H250328   2.761   6.287   5.429  1.2690  0.5173 -1.9169
 9613TIP3   OH250329   5.559   1.713  17.340 -0.5976  0.4268  0.2064
 9613TIP3    H150330   5.595   1.773  17.274  0.2342  0.5780  0.7874
 9613TIP3    H250331   5.635   1.687  17.393 -1.4472  1.3546  1.9438
 9614TIP3   OH250332   0.619   5.262  14.448  0.4203 -0.5837 -0.1941
 9614TIP3    H150333   0.561   5.240  14.375 -0.0665 -0.1167  0.0396
 9614TIP3    H250334   0.655   5.347  14.425 -1.3699  0.5820  1.0413
 9615TIP3   OH250335   2.562   3.337  14.705 -0.1081 -0.4070 -0.5805
 9615TIP3    H150336   2.576   3.248  14.739 -0.8823 -0.6782 -0.9304
 9615TIP3    H250337   2.649   3.374  14.696  0.1761  0.6524  4.1728
 9616TIP3   OH250338   5.952   3.968  11.783  0.4394 -0.3380  0.7956
 9616TIP3    H150339   5.869   3.919  11.784  0.0964  0.0313 -1.8601
 9616TIP3    H250340   6.019   3.902  11.798 -0.1258 -1.3772 -0.9722
 9617TIP3   OH250341   4.539   4.547  14.054  0.1120  0.0751 -0.2772
 9617TIP3    H150342   4.460   4.544  14.107  0.1721 -1.4698 -0.2109
 9617TIP3    H250343   4.508   4.566  13.966 -0.4235 -1.0335 -0.3491
 9618TIP3   OH250344   4.901   0.573  17.105 -0.3422  0.1108  0.5730
 9618TIP3    H150345   4.961   0.643  17.132  0.3983 -0.8899  1.6557
 9618TIP3    H250346   4.957   0.509  17.062 -0.4912 -1.0659  2.0275
 9619TIP3   OH250347   1.578   5.311  11.816 -0.2190  0.3553 -0.0588
 9619TIP3    H150348   1.637   5.365  11.869  0.5245  0.6620 -1.1647
 9619TIP3    H250349   1.629   5.290  11.738 -1.3634  0.0876 -0.7537
 9620TIP3   OH250350   4.925   0.309  11.269  0.3096  0.1068 -0.1927
 9620TIP3    H150351   4.942   0.226  11.224  2.0208  0.3938 -0.1600
 9620TIP3    H250352   4.896   0.368  11.199 -1.1710 -0.5545 -0.1739
 9621TIP3   OH250353   4.822   5.478   2.432 -0.0825  0.1603 -0.2249
 9621TIP3    H150354   4.879   5.401   2.422  0.3132  0.5330 -0.8914
 9621TIP3    H250355   4.832   5.526   2.350 -0.7651  0.6363 -0.0353
 9622TIP3   OH250356   4.184   1.319   3.284 -0.2471  0.0100 -1.0102
 9622TIP3    H150357   4.228   1.348   3.364  2.2659 -0.7339 -2.0513
 9622TIP3    H250358   4.193   1.392   3.223 -1.6751  0.3615 -0.8399
 9623TIP3   OH250359   6.013   2.941   4.332  0.1242  0.4250 -0.4629
 9623TIP3    H150360   6.007   2.959   4.426 -0.3730 -2.2891  0.1044
 9623TIP3    H250361   6.039   3.025   4.293  2.4175  1.1321  2.2975
 9624TIP3   OH250362   6.535   6.462   5.262 -0.4733 -0.4803 -0.1419
 9624TIP3    H150363   6.544   6.514   5.182 -0.4458 -1.8162 -1.0457
 9624TIP3    H250364   6.471   6.510   5.315  1.9374  2.2374  0.6032
 9625TIP3   OH250365   5.097   1.229   4.885 -0.8900  0.1268 -0.1981
 9625TIP3    H150366   5.057   1.274   4.959  0.0246  0.7868 -0.0819
 9625TIP3    H250367   5.160   1.169   4.925 -1.4297 -0.5794 -0.3940
 9626TIP3   OH250368   1.542   5.659  13.627  0.7144  0.2358  0.5717
 9626TIP3    H150369   1.556   5.737  13.679  1.0233  0.5071  0.0920
 9626TIP3    H250370   1.521   5.692  13.539  0.6751 -0.2131  0.4084
 9627TIP3   OH250371   3.676   0.653  12.251 -0.1242  0.4429  0.2048
 9627TIP3    H150372   3.588   0.688  12.266 -1.2045 -1.5112 -1.1577
 9627TIP3    H250373   3.685   0.651  12.156  2.3848  2.7756  0.2645
 9628TIP3   OH250374   1.529   5.320  16.639  0.4955 -0.0449 -0.2248
 9628TIP3    H150375   1.502   5.406  16.608  0.5234 -0.0876 -0.3676
 9628TIP3    H250376   1.501   5.318  16.731  1.0607  0.3555 -0.0412
 9629TIP3   OH250377   2.708   5.375  13.677 -0.0598 -0.4329 -0.1410
 9629TIP3    H150378   2.731   5.294  13.723  1.0389 -0.1852 -0.2265
 9629TIP3    H250379   2.742   5.362  13.588 -0.2423 -0.0343 -0.2713
 9630TIP3   OH250380   5.717   6.387  12.526 -0.3287  0.8850  0.3727
 9630TIP3    H150381   5.788   6.341  12.482 -1.8109 -1.2002  0.0026
 9630TIP3    H250382   5.758   6.428  12.601  1.2998 -0.0936  0.0727
 9631TIP3   OH250383   3.972   5.209  10.910 -0.4726  0.2752 -0.7266
 9631TIP3    H150384   3.975   5.304  10.906 -1.8207  0.3228 -0.9491
 9631TIP3    H250385   4.063   5.182  10.898  0.3814  1.6024  1.9220
 9632TIP3   OH250386   3.245   3.873  11.788 -0.5987 -0.2510  0.0532
 9632TIP3    H150387   3.297   3.871  11.868  0.1294  0.1976 -0.4018
 9632TIP3    H250388   3.199   3.957  11.791  1.7819  1.2153 -1.4363
 9633TIP3   OH250389   0.526   2.809  16.661 -0.2437 -0.7705  0.7606
 9633TIP3    H150390   0.438   2.772  16.652 -0.5732  0.0011  0.7568
 9633TIP3    H250391   0.514   2.887  16.714  0.4714 -0.7528  0.9104
 9634TIP3   OH250392   5.357   4.592   0.256  0.2899 -0.5989  0.1869
 9634TIP3    H150393   5.306   4.528   0.206  1.8426 -2.1149  0.4857
 9634TIP3    H250394   5.357   4.559   0.345  1.2089 -0.2598  0.3236
 9635TIP3   OH250395   5.138   6.721   6.575  0.4037  0.0652  0.1079
 9635TIP3    H150396   5.195   6.665   6.627 -0.4211 -1.8205 -0.9026
 9635TIP3    H250397   5.193   6.747   6.501  0.4693 -0.3615  0.0010
 9636TIP3   OH250398   2.218   5.913  11.506  0.7805  0.2189  0.6553
 9636TIP3    H150399   2.155   5.907  11.435  1.8636  1.2995 -0.4676
 9636TIP3    H250400   2.207   5.833  11.557 -1.2384  0.2516  0.3174
 9637TIP3   OH250401   4.122   1.553   4.185 -0.1395  0.0227  0.2375
 9637TIP3    H150402   4.176   1.562   4.107 -0.4822  1.7046  0.1626
 9637TIP3    H250403   4.073   1.635   4.190 -0.8471 -0.4538  1.6858
 9638TIP3   OH250404   0.351   0.615  16.592  0.2680  0.1287 -0.0615
 9638TIP3    H150405   0.263   0.646  16.567 -0.6443 -1.0164  1.5479
 9638TIP3    H250406   0.395   0.600  16.509 -0.7235  1.6233 -0.9063
 9639TIP3   OH250407   4.829   5.373  16.481  0.0910 -0.1701  0.1377
 9639TIP3    H150408   4.867   5.342  16.398  1.9070  0.7169  0.5939
 9639TIP3    H250409   4.828   5.468  16.473 -0.5885 -0.1109  0.8002
 9640TIP3   OH250410   3.678   2.215  13.916 -0.0527  0.5504 -0.2761
 9640TIP3    H150411   3.711   2.192  13.829 -0.5888 -0.5076 -0.2166
 9640TIP3    H250412   3.693   2.137  13.969  0.3451  1.2135  0.6189
 9641TIP3   OH250413   3.454   4.259   2.093 -0.7843  0.1954 -0.0433
 9641TIP3    H150414   3.362   4.237   2.078 -0.6381  0.2831 -1.1713
 9641TIP3    H250415   3.500   4.219   2.019  0.2745 -1.0590  1.2352
 9642TIP3   OH250416   0.996   3.873  11.799 -0.0896 -0.3993 -0.1777
 9642TIP3    H150417   1.065   3.899  11.859  0.1535  2.4832 -1.5477
 9642TIP3    H250418   1.004   3.777  11.794  0.4476 -0.6802  3.5366
 9643TIP3   OH250419   1.897   3.023   4.305  0.3118  0.4275  0.1873
 9643TIP3    H150420   1.857   2.948   4.348 -0.2077  0.7131  0.2151
 9643TIP3    H250421   1.988   3.023   4.334 -0.2811  1.2815  2.2033
 9644TIP3   OH250422   4.859   5.111  15.020 -0.0128  0.0852  0.1125
 9644TIP3    H150423   4.916   5.136  15.093 -0.8458 -1.4451  1.3631
 9644TIP3    H250424   4.909   5.046  14.971  0.1485  0.3495 -0.0748
 9645TIP3   OH250425   6.411   5.631   3.152 -0.0285  0.5582 -0.1241
 9645TIP3    H150426   6.424   5.643   3.246  0.2901  2.4048 -0.3680
 9645TIP3    H250427   6.498   5.607   3.120  0.1452  1.1985 -0.1288
 9646TIP3   OH250428   3.600   4.540  13.497  0.4304  0.4698  0.0009
 9646TIP3    H150429   3.575   4.449  13.479  0.0149  0.6714 -0.4332
 9646TIP3    H250430   3.693   4.544  13.473 -0.4631  1.1703 -3.9458
 9647TIP3   OH250431   4.667   1.872   5.656 -0.8587  0.4723 -0.6559
 9647TIP3    H150432   4.743   1.851   5.602 -0.5234  0.7922 -0.3180
 9647TIP3    H250433   4.676   1.816   5.733  0.2363  2.0199  0.4257
 9648TIP3   OH250434   5.997   4.429  10.957  0.2757  0.4430 -0.3915
 9648TIP3    H150435   5.974   4.337  10.970  0.5005  0.4112 -0.2181
 9648TIP3    H250436   5.924   4.465  10.907 -1.1754  0.8368  1.8412
 9649TIP3   OH250437   2.139   2.008  17.127 -0.0237 -0.5565  0.2011
 9649TIP3    H150438   2.167   1.923  17.095  1.4539  0.0917 -0.3013
 9649TIP3    H250439   2.138   1.999  17.222 -0.2093 -1.2280  0.1360
 9650TIP3   OH250440   5.616   1.229  13.159 -0.7949 -0.0852 -0.1101
 9650TIP3    H150441   5.660   1.312  13.143 -0.6122 -0.1502  0.0546
 9650TIP3    H250442   5.558   1.217  13.083  1.6188 -1.4356 -1.8686
 9651TIP3   OH250443   4.909   4.862   5.878 -0.5815  0.2003 -0.3496
 9651TIP3    H150444   4.865   4.783   5.847 -0.6273  0.2718 -0.4688
 9651TIP3    H250445   4.888   4.866   5.971 -0.2578 -0.1349 -0.2638
 9652TIP3   OH250446   0.240   6.485  13.362  0.1830 -0.5922 -0.0564
 9652TIP3    H150447   0.210   6.569  13.327 -0.6891 -1.2227 -0.8542
 9652TIP3    H250448   0.321   6.468  13.315  1.0754  0.3970  1.0381
 9653TIP3   OH250449   0.233   0.168  13.477  0.5182  0.1219 -0.6390
 9653TIP3    H150450   0.292   0.107  13.522  0.6962  0.9701  0.3199
 9653TIP3    H250451   0.286   0.209  13.409  1.2952  1.4391  0.7031
 9654TIP3   OH250452   4.631   4.790  13.353 -0.3056 -0.0311  0.0461
 9654TIP3    H150453   4.545   4.831  13.360 -0.8393 -1.3164  1.7600
 9654TIP3    H250454   4.613   4.703  13.317 -0.0308 -1.0448  2.2039
 9655TIP3   OH250455   3.354   2.259  14.827  0.2907 -0.7918  0.2735
 9655TIP3    H150456   3.393   2.193  14.771  1.6467  0.2656 -0.0902
 9655TIP3    H250457   3.390   2.242  14.914 -1.3757 -2.0857  0.7515
 9656TIP3   OH250458   5.614   0.278   4.304  0.0374 -0.0031  0.3409
 9656TIP3    H150459   5.570   0.330   4.237 -2.1576  0.5901  2.0909
 9656TIP3    H250460   5.627   0.339   4.377  0.1557 -1.1649  1.3285
 9657TIP3   OH250461   4.945   0.500  13.077 -0.0126  0.1492 -0.5707
 9657TIP3    H150462   4.876   0.444  13.112 -1.1737  0.3751 -2.3918
 9657TIP3    H250463   4.966   0.560  13.149 -0.8067 -0.7282  0.4291
 9658TIP3   OH250464   5.538   1.734   5.200  0.0549  0.2994 -0.3264
 9658TIP3    H150465   5.525   1.729   5.105 -1.0545  3.1224 -0.4173
 9658TIP3    H250466   5.470   1.679   5.237 -0.3806  0.2685 -1.1539
 9659TIP3   OH250467   6.009   3.668   6.011 -0.8248 -0.0726 -0.1938
 9659TIP3    H150468   6.072   3.677   5.940 -1.4373  0.5656 -0.6658
 9659TIP3    H250469   6.063   3.659   6.090 -0.0327  3.4148 -0.1708
 9660TIP3   OH250470   2.620   3.470   4.968 -0.0541 -0.4791  0.3803
 9660TIP3    H150471   2.553   3.407   4.940 -1.1591 -0.1611  2.1742
 9660TIP3    H250472   2.655   3.432   5.049  1.0475  0.0053  0.1420
 9661TIP3   OH250473   3.290   4.661  14.544 -0.0770  0.1268 -0.1674
 9661TIP3    H150474   3.362   4.634  14.487 -0.0052 -0.8165  0.3562
 9661TIP3    H250475   3.224   4.593  14.533 -0.9894  1.0808 -0.7876
 9662TIP3   OH250476   3.670   3.090   2.892  0.0157  0.1983 -0.6051
 9662TIP3    H150477   3.613   3.035   2.946  0.4214 -0.7132 -1.0729
 9662TIP3    H250478   3.753   3.093   2.939  0.1112  0.0915 -0.7643
 9663TIP3   OH250479   1.195   4.422  14.190 -0.5223 -0.1849  0.1633
 9663TIP3    H150480   1.179   4.512  14.162 -1.3672 -0.7462 -1.2905
 9663TIP3    H250481   1.126   4.404  14.253  0.8496  0.7996  2.0264
 9664TIP3   OH250482   2.007   5.831   0.687  0.1266 -0.1501  0.0455
 9664TIP3    H150483   1.947   5.870   0.750  0.6141 -1.3218  1.2785
 9664TIP3    H250484   2.012   5.895   0.615 -0.8346  0.9706  0.9434
 9665TIP3   OH250485   3.050   5.259   5.313  0.0356  0.4204  0.4250
 9665TIP3    H150486   3.003   5.331   5.271  0.6628  0.7051  0.2089
 9665TIP3    H250487   3.004   5.180   5.284  0.2883  0.6310 -0.5790
 9666TIP3   OH250488   4.303   4.856  12.339  0.0393  0.5522 -0.2116
 9666TIP3    H150489   4.213   4.879  12.313  0.0673  0.2365 -0.5937
 9666TIP3    H250490   4.316   4.768  12.305  1.0097  1.1509 -1.4732
 9667TIP3   OH250491   3.445   5.865  14.158  0.3442  0.7684 -0.4271
 9667TIP3    H150492   3.388   5.859  14.082  0.4480  1.1380 -0.5324
 9667TIP3    H250493   3.481   5.776  14.168 -1.3735  0.1294  0.5123
 9668TIP3   OH250494   2.816   2.985  14.818  0.5243  0.0885 -0.0769
 9668TIP3    H150495   2.893   3.029  14.783 -0.5913  1.3583 -1.0813
 9668TIP3    H250496   2.816   3.006  14.911  1.4918 -0.1121 -0.0238
 9669TIP3   OH250497   6.166   4.853   0.996 -0.2879 -0.2568 -0.4520
 9669TIP3    H150498   6.209   4.877   0.914 -0.2865 -0.6545 -0.5685
 9669TIP3    H250499   6.108   4.780   0.973 -0.3505 -0.3163 -0.1179
 9670TIP3   OH250500   5.600   4.070  11.285 -0.7561 -0.2560 -0.6997
 9670TIP3    H150501   5.594   4.056  11.380 -2.5174 -0.1582 -0.7673
 9670TIP3    H250502   5.680   4.121  11.274 -1.0291  0.5766  0.8487
 9671TIP3   OH250503   6.244   0.038  11.404  0.0333  0.2681 -0.7258
 9671TIP3    H150504   6.244   0.076  11.317 -0.6856  0.6591 -0.5634
 9671TIP3    H250505   6.335   0.012  11.419  0.0025 -0.5918 -1.9213
 9672TIP3   OH250506   3.441   4.561  17.203  0.4930 -0.0058 -0.2008
 9672TIP3    H150507   3.484   4.635  17.159 -0.6500  0.0702 -1.2549
 9672TIP3    H250508   3.347   4.580  17.196  0.2103 -1.1579  0.2173
 9673TIP3   OH250509   3.900   5.153   5.856  0.0808 -0.4893  0.7725
 9673TIP3    H150510   3.820   5.199   5.834  1.6484  1.5147 -1.1905
 9673TIP3    H250511   3.896   5.141   5.951 -1.2735  2.0948  1.1146
 9674TIP3   OH250512   0.400   0.570   5.420  0.2082  0.4237 -0.3612
 9674TIP3    H150513   0.430   0.588   5.331 -0.8522  0.0978 -0.7995
 9674TIP3    H250514   0.309   0.540   5.409  0.1341  0.1842  0.8099
 9675TIP3   OH250515   2.172   6.607   4.305 -0.6186  0.5642  0.0943
 9675TIP3    H150516   2.245   6.545   4.305 -0.9931  0.1182  1.0124
 9675TIP3    H250517   2.208   6.686   4.264  0.0048 -0.0840 -0.6221
 9676TIP3   OH250518   0.330   3.750   1.295  0.5723 -0.1847 -0.7180
 9676TIP3    H150519   0.325   3.671   1.240  2.8046 -1.3114  0.5748
 9676TIP3    H250520   0.288   3.725   1.377  4.5604 -1.5075  1.1496
 9677TIP3   OH250521   1.739   0.309  15.755  0.3253  0.1993  0.0644
 9677TIP3    H150522   1.692   0.270  15.829  1.8335  0.2773  1.1137
 9677TIP3    H250523   1.806   0.244  15.732 -0.8924 -0.3782 -2.0931
 9678TIP3   OH250524   0.140   3.115  11.843  0.2214  0.2494  0.2956
 9678TIP3    H150525   0.049   3.105  11.872 -0.2093  1.0298 -0.7041
 9678TIP3    H250526   0.143   3.070  11.758  0.9373 -0.2792  0.5845
 9679TIP3   OH250527   1.277   3.901   2.716 -0.0390  0.2367 -0.7809
 9679TIP3    H150528   1.269   3.806   2.729 -1.1331  0.6807  2.6183
 9679TIP3    H250529   1.215   3.920   2.644 -0.8780 -1.4410 -0.5647
 9680TIP3   OH250530   3.396   5.610   0.739 -0.0484 -0.2202  0.3420
 9680TIP3    H150531   3.335   5.683   0.730 -0.2994 -0.5063 -0.3568
 9680TIP3    H250532   3.482   5.648   0.723 -0.0734  0.1080  0.9469
 9681TIP3   OH250533   3.123   0.990  11.176 -0.6142 -0.3706 -0.1442
 9681TIP3    H150534   3.091   0.906  11.142 -0.7508 -0.8683  1.1718
 9681TIP3    H250535   3.045   1.044  11.184 -0.9070 -0.9690  1.3327
 9682TIP3   OH250536   3.107   3.111   3.527  0.6491 -0.0356  0.4501
 9682TIP3    H150537   3.094   3.016   3.517  0.9187 -0.2656  2.0878
 9682TIP3    H250538   3.162   3.120   3.605  1.5356  1.4370 -0.2884
 9683TIP3   OH250539   2.772   2.965   3.552 -0.1402 -0.1058  0.5051
 9683TIP3    H150540   2.678   2.977   3.562 -0.7052 -2.6486 -0.8689
 9683TIP3    H250541   2.792   3.000   3.466  1.0968  4.1845  2.2555
 9684TIP3   OH250542   0.854   1.796   1.867  0.2516  0.1652  0.1913
 9684TIP3    H150543   0.796   1.854   1.819  2.6918  1.8128 -1.0003
 9684TIP3    H250544   0.854   1.830   1.956  0.4189  0.9993 -0.1218
 9685TIP3   OH250545   0.817   4.839   3.002  0.3585 -0.2675 -0.0135
 9685TIP3    H150546   0.816   4.877   3.090  2.3182 -1.9115  0.8085
 9685TIP3    H250547   0.829   4.745   3.016 -3.2410 -1.2060 -1.9931
 9686TIP3   OH250548   6.282   0.435   0.109  0.2526 -0.1004 -0.1225
 9686TIP3    H150549   6.221   0.446   0.182  1.0806 -1.1660  0.7544
 9686TIP3    H250550   6.257   0.503   0.047 -0.9422  0.3590  0.8248
 9687TIP3   OH250551   2.265   3.287   2.575 -0.1271  0.4989  0.0502
 9687TIP3    H150552   2.269   3.195   2.603  0.1334  0.7699  0.9313
 9687TIP3    H250553   2.172   3.309   2.577 -0.1261  0.4551  0.5024
 9688TIP3   OH250554   6.499   5.681  16.421 -0.7595 -0.7614  0.0862
 9688TIP3    H150555   6.431   5.708  16.359  0.2113 -0.4341 -0.8616
 9688TIP3    H250556   6.531   5.764  16.458 -1.5713 -0.9665  1.3318
 9689TIP3   OH250557   0.675   2.609   0.623  0.6205  0.3276 -0.1817
 9689TIP3    H150558   0.758   2.635   0.582  0.8060  1.9510  1.1059
 9689TIP3    H250559   0.654   2.682   0.682 -2.3658  0.5651 -1.3708
 9690TIP3   OH250560   5.858   0.851  12.664 -0.2320  0.2052  0.2108
 9690TIP3    H150561   5.890   0.820  12.749 -3.1914 -0.5632  1.1485
 9690TIP3    H250562   5.863   0.947  12.670  1.5731  0.1410  0.3607
 9691TIP3   OH250563   3.986   0.399  12.526  0.4410 -0.0388  0.8805
 9691TIP3    H150564   3.949   0.311  12.537  0.3420  0.0355  1.1432
 9691TIP3    H250565   3.923   0.444  12.470  0.9287 -0.4065  0.0014
 9692TIP3   OH250566   6.557   4.294   0.341  0.1086  0.5493  0.0014
 9692TIP3    H150567   6.647   4.264   0.324 -0.9447 -1.2727 -3.0412
 9692TIP3    H250568   6.556   4.385   0.313  1.1298  0.7534  0.5889
 9693TIP3   OH250569   3.892   1.557   5.297 -0.6302 -0.5047  0.0302
 9693TIP3    H150570   3.888   1.465   5.322  1.9788 -0.9490 -0.8203
 9693TIP3    H250571   3.978   1.586   5.328  0.1389  0.5965 -2.8631
 9694TIP3   OH250572   3.295   1.775   1.355  0.0518  1.0312  0.2308
 9694TIP3    H150573   3.329   1.793   1.268  1.2644  0.0304  0.4689
 9694TIP3    H250574   3.216   1.830   1.362  0.5546  1.9651 -1.0561
 9695TIP3   OH250575   1.440   4.512   5.272  0.2060 -0.7094  0.0888
 9695TIP3    H150576   1.385   4.541   5.345  0.7421  0.4317  0.0571
 9695TIP3    H250577   1.517   4.568   5.276  1.6413 -2.5996  0.4312
 9696TIP3   OH250578   2.800   5.668   5.316 -0.3044 -0.0541  0.0646
 9696TIP3    H150579   2.811   5.727   5.390  0.1980 -0.5111  0.3645
 9696TIP3    H250580   2.750   5.594   5.351  0.4638 -0.5646  0.1245
 9697TIP3   OH250581   5.170   5.791  15.889 -0.5947  0.1335 -0.0866
 9697TIP3    H150582   5.176   5.698  15.870  1.0028  0.1291  0.2623
 9697TIP3    H250583   5.228   5.833  15.825 -2.3289  1.0674 -1.1383
 9698TIP3   OH250584   3.942   2.905   5.214 -0.1506 -0.2329 -0.6108
 9698TIP3    H150585   3.877   2.883   5.280  1.1813 -3.2336 -0.1197
 9698TIP3    H250586   3.955   2.999   5.223 -2.0046 -0.1103  1.5085
 9699TIP3   OH250587   2.777   3.577  14.791  0.3563 -0.2707  0.0387
 9699TIP3    H150588   2.813   3.489  14.799  0.4962 -0.1601  0.6730
 9699TIP3    H250589   2.735   3.594  14.876  0.8612  0.5001  0.1504
 9700TIP3   OH250590   5.697   5.045   4.042 -0.2134 -0.2452  0.4554
 9700TIP3    H150591   5.610   5.084   4.053 -0.1670  0.1375 -0.4147
 9700TIP3    H250592   5.714   5.053   3.948  1.1844  0.6102  0.7583
 9701TIP3   OH250593   6.773   5.858   0.128  0.1330  0.3434  0.3794
 9701TIP3    H150594   6.774   5.877   0.222  2.0396 -0.6373  0.6150
 9701TIP3    H250595   6.853   5.900   0.095 -0.5321  0.7052 -0.8254
 9702TIP3   OH250596   5.117   2.466   4.214  0.0583  0.2874  0.2260
 9702TIP3    H150597   5.107   2.380   4.174  1.0708 -0.1243  0.8000
 9702TIP3    H250598   5.185   2.453   4.281 -1.6156  0.8919  2.1659
 9703TIP3   OH250599   1.328   3.157  14.291 -0.4116 -0.0568  0.0585
 9703TIP3    H150600   1.234   3.138  14.286 -0.2934 -0.5667 -0.2808
 9703TIP3    H250601   1.355   3.127  14.377 -0.3751 -0.7639 -0.1968
 9704TIP3   OH250602   3.722   1.397  12.530 -0.2981  0.4521  0.0269
 9704TIP3    H150603   3.705   1.307  12.559  0.6157  0.4086  0.4831
 9704TIP3    H250604   3.662   1.451  12.582 -0.5258  0.1464  0.0831
 9705TIP3   OH250605   3.574   6.151  13.887 -0.3882 -0.4042 -0.5813
 9705TIP3    H150606   3.642   6.132  13.823 -0.0805 -0.7671 -0.1603
 9705TIP3    H250607   3.516   6.214  13.844 -0.1390 -0.5763 -1.1748
 9706TIP3   OH250608   3.315   0.873   3.108  0.5115  0.5267  0.3070
 9706TIP3    H150609   3.299   0.876   3.014 -0.3023 -0.5029  0.3897
 9706TIP3    H250610   3.340   0.962   3.131  1.4422  0.6256 -0.9988
 9707TIP3   OH250611   4.798   2.980  13.084 -0.0902 -0.3804  0.4144
 9707TIP3    H150612   4.844   3.049  13.133  1.5921  0.0096 -1.5441
 9707TIP3    H250613   4.866   2.942  13.028 -1.7496 -1.2659 -1.0917
 9708TIP3   OH250614   4.742   1.429  16.221 -0.0151  0.1944  0.0799
 9708TIP3    H150615   4.724   1.350  16.170 -4.4180  1.2471 -0.3934
 9708TIP3    H250616   4.738   1.500  16.158 -1.7167  1.1792  1.1975
 9709TIP3   OH250617   2.093   4.677   3.626  0.8587  0.1703 -0.1323
 9709TIP3    H150618   2.087   4.740   3.554  0.9736 -1.4212 -1.5860
 9709TIP3    H250619   2.026   4.611   3.606  1.3747 -0.6777  0.8449
 9710TIP3   OH250620   3.908   3.946  11.409  0.1112  0.1514  0.0879
 9710TIP3    H150621   3.831   3.889  11.415  1.7868 -2.2944 -0.2427
 9710TIP3    H250622   3.901   4.004  11.484 -0.8491 -1.6344  1.4475
 9711TIP3   OH250623   4.257   1.454   6.722 -0.0547  0.1227 -0.4158
 9711TIP3    H150624   4.212   1.538   6.710 -0.5123  0.3053  2.0495
 9711TIP3    H250625   4.313   1.445   6.644 -1.7919  1.5167 -1.9082
 9712TIP3   OH250626   1.798   2.449  17.219  0.0527  0.3573  0.3443
 9712TIP3    H150627   1.842   2.520  17.172 -1.5503  0.6266 -0.8445
 9712TIP3    H250628   1.824   2.370  17.173  0.8536  0.2915  0.8942
 9713TIP3   OH250629   3.996   2.506  16.240 -0.0469  0.0681 -0.4226
 9713TIP3    H150630   4.032   2.540  16.322  0.9078 -1.3113 -0.2425
 9713TIP3    H250631   3.973   2.584  16.190 -1.0698  0.9475  1.3182
 9714TIP3   OH250632   2.174   2.130  14.637 -0.1971 -0.1328  0.4685
 9714TIP3    H150633   2.198   2.054  14.584  0.8447  1.1924 -1.0597
 9714TIP3    H250634   2.078   2.129  14.639 -0.2759 -0.2904 -1.3934
 9715TIP3   OH250635   1.282   1.342  12.566 -0.0851 -0.3643 -0.4491
 9715TIP3    H150636   1.325   1.344  12.651  0.3227  0.3379 -0.6591
 9715TIP3    H250637   1.319   1.416  12.518 -1.2636  0.0577 -0.7679
 9716TIP3   OH250638   5.964   4.704   4.885 -0.4285  0.1738  0.3360
 9716TIP3    H150639   6.043   4.704   4.831 -0.0671  1.1555  0.8413
 9716TIP3    H250640   5.900   4.655   4.833  0.7012 -1.2906  0.2395
 9717TIP3   OH250641   3.937   0.066  13.553  0.2389  0.3670 -0.0150
 9717TIP3    H150642   3.951   0.110  13.469  0.3171  1.3437  0.4980
 9717TIP3    H250643   3.959  -0.025  13.536 -0.6733  0.3553 -1.3065
 9718TIP3   OH250644   0.779   1.426   0.296  0.3554  0.0908  0.0718
 9718TIP3    H150645   0.753   1.417   0.204  0.7843 -0.4045 -0.0052
 9718TIP3    H250646   0.743   1.510   0.323 -0.8011 -0.2962 -0.2079
 9719TIP3   OH250647   4.919   0.711   2.776 -0.2556 -0.4904  0.7061
 9719TIP3    H150648   4.899   0.799   2.806 -0.8076  0.2723 -1.6478
 9719TIP3    H250649   4.856   0.655   2.821 -1.3067  0.6162  0.6687
 9720TIP3   OH250650   3.544   4.605   5.245  0.4334  0.2997  0.0413
 9720TIP3    H150651   3.472   4.570   5.297  0.8183  1.6082  1.5469
 9720TIP3    H250652   3.522   4.582   5.155 -0.9538 -0.8606  0.6295
 9721TIP3   OH250653   0.371   4.861   5.689 -0.2111  0.1409 -0.0536
 9721TIP3    H150654   0.441   4.888   5.749  0.2609  0.8435 -0.8827
 9721TIP3    H250655   0.303   4.825   5.745 -0.2946  1.8662  1.0153
 9722TIP3   OH250656   2.343   3.261   3.579  0.1231  0.3637  0.0688
 9722TIP3    H150657   2.378   3.257   3.668 -1.1237 -2.1381  0.5464
 9722TIP3    H250658   2.252   3.289   3.590  0.1007  0.5123 -0.4697
 9723TIP3   OH250659   2.599   5.455   1.689  0.5096 -0.6479  0.5824
 9723TIP3    H150660   2.563   5.376   1.729  1.3848 -0.8407  1.0037
 9723TIP3    H250661   2.660   5.490   1.754 -0.5308  0.8885  0.7855
 9724TIP3   OH250662   6.520   0.458   6.130  0.2608  0.1210 -1.0896
 9724TIP3    H150663   6.470   0.430   6.207 -0.8607 -1.2865 -2.2656
 9724TIP3    H250664   6.468   0.528   6.092  0.0702 -0.1536 -1.3417
 9725TIP3   OH250665   3.608   1.033  15.938  0.9787 -0.0745  0.3468
 9725TIP3    H150666   3.534   0.998  15.987  1.3236 -0.7355  0.4027
 9725TIP3    H250667   3.685   0.987  15.973  1.7690  2.3831  2.0493
 9726TIP3   OH250668   0.654   2.756  13.265 -0.0643 -1.0092 -0.0882
 9726TIP3    H150669   0.634   2.670  13.229 -1.3061 -1.2561  1.1443
 9726TIP3    H250670   0.577   2.809  13.247  0.5239 -0.2531 -0.4652
 9727TIP3   OH250671   2.013   5.278  15.036 -0.2635 -0.2046  0.2077
 9727TIP3    H150672   2.003   5.217  14.963 -1.5833 -0.8009  0.8427
 9727TIP3    H250673   2.069   5.348  15.002 -0.1158 -0.9136 -1.0735
 9728TIP3   OH250674   3.475   6.357  11.906  0.9727  0.2426  0.2246
 9728TIP3    H150675   3.539   6.352  11.835 -0.2564 -2.6491 -0.8303
 9728TIP3    H250676   3.401   6.404  11.868  0.8285 -0.1394  0.0315
 9729TIP3   OH250677   6.102   6.449   0.728  0.6397 -0.2685 -0.6890
 9729TIP3    H150678   6.131   6.387   0.662 -1.7767 -0.3471 -1.7792
 9729TIP3    H250679   6.092   6.532   0.681  0.0801 -0.0258 -0.1590
 9730TIP3   OH250680   0.408   6.309   4.795 -0.3507 -0.0712 -0.4968
 9730TIP3    H150681   0.350   6.234   4.782 -0.0143 -0.4957  0.3119
 9730TIP3    H250682   0.394   6.365   4.719 -0.4956 -1.0330 -1.1898
 9731TIP3   OH250683   0.486   4.571  13.829  0.8868  0.5704  0.3601
 9731TIP3    H150684   0.487   4.550  13.736  0.5030  1.3063  0.1811
 9731TIP3    H250685   0.487   4.667  13.832  1.4267  0.5562  1.1248
 9732TIP3   OH250686   3.884   0.973  10.742 -0.1247  0.5342 -0.2403
 9732TIP3    H150687   3.899   0.880  10.725 -1.8941 -0.1495  1.6612
 9732TIP3    H250688   3.808   0.995  10.688 -0.0409  0.7515 -0.2692
 9733TIP3   OH250689   2.126   0.985  14.457  0.1487 -0.4236  0.4353
 9733TIP3    H150690   2.036   0.969  14.428  0.1904 -2.1685  1.0954
 9733TIP3    H250691   2.177   0.984  14.376 -0.5764  2.5257 -0.1782
 9734TIP3   OH250692   1.198   5.344   1.155  0.2725  0.4285  0.4489
 9734TIP3    H150693   1.231   5.365   1.242 -0.3268  1.1679  0.5105
 9734TIP3    H250694   1.269   5.297   1.113  2.5491  4.2711 -0.4193
 9735TIP3   OH250695   2.282   1.411  16.513  0.0481 -0.0523  0.0160
 9735TIP3    H150696   2.367   1.383  16.548 -1.5761 -1.3884  3.2587
 9735TIP3    H250697   2.304   1.479  16.449  3.7192 -2.6680 -1.8797
 9736TIP3   OH250698   1.763   3.531   5.535 -0.1552  0.4581  0.0095
 9736TIP3    H150699   1.733   3.492   5.616 -0.7085  1.2185  0.1858
 9736TIP3    H250700   1.685   3.534   5.479  0.3127 -0.4487 -0.7093
 9737TIP3   OH250701   0.351   1.842  14.181  0.0234 -0.1442  0.1635
 9737TIP3    H150702   0.384   1.919  14.228 -1.4132  0.6210 -0.0213
 9737TIP3    H250703   0.296   1.797  14.244  1.8269 -1.7662  0.6702
 9738TIP3   OH250704   3.125   4.182   2.092 -0.3031 -0.0500  0.1165
 9738TIP3    H150705   3.084   4.128   2.024  0.8046 -1.5638  0.6023
 9738TIP3    H250706   3.087   4.269   2.079 -0.9919 -0.5647 -1.6865
 9739TIP3   OH250707   1.242   3.803   3.713 -0.2255 -0.2569 -0.1450
 9739TIP3    H150708   1.189   3.755   3.649 -0.2111 -0.8639  0.2872
 9739TIP3    H250709   1.331   3.772   3.698 -0.4856 -2.0351  1.5487
 9740TIP3   OH250710   5.234   1.472  12.768  0.5442  0.4713 -0.0149
 9740TIP3    H150711   5.148   1.481  12.810  0.3046 -2.0230  0.1702
 9740TIP3    H250712   5.289   1.536  12.812 -1.1574  2.0475 -0.0457
 9741TIP3   OH250713   2.016   5.588   2.598 -0.3286  0.3798 -0.4383
 9741TIP3    H150714   1.996   5.558   2.509  0.0393 -1.3729  0.0379
 9741TIP3    H250715   2.006   5.510   2.653  0.0958  1.2777  0.9654
 9742TIP3   OH250716   3.282   2.632  14.558  0.0369  0.0624 -0.0284
 9742TIP3    H150717   3.295   2.630  14.653  1.6418  0.2716 -0.2259
 9742TIP3    H250718   3.223   2.559  14.540 -1.6596  1.0142  1.2991
 9743TIP3   OH250719   5.620   0.266   1.487  0.0630 -0.0408  0.0307
 9743TIP3    H150720   5.641   0.305   1.402 -3.4588 -0.2660 -1.1412
 9743TIP3    H250721   5.553   0.201   1.467  0.3925 -1.3854  2.8312
 9744TIP3   OH250722   4.519   6.590  16.710 -0.3072 -0.0782  0.5509
 9744TIP3    H150723   4.450   6.611  16.647  1.3167  0.8390 -1.0405
 9744TIP3    H250724   4.575   6.669  16.711  2.3039 -1.7728 -0.4927
 9745TIP3   OH250725   2.227   5.729   2.424 -0.2550 -0.5222 -0.1990
 9745TIP3    H150726   2.224   5.823   2.406 -2.6979 -0.4291  0.2588
 9745TIP3    H250727   2.179   5.719   2.507 -0.2325 -2.1874 -0.3470
 9746TIP3   OH250728   1.136   4.009   0.561 -1.0100  0.2050  0.3219
 9746TIP3    H150729   1.199   3.938   0.577  0.1405  1.1874  0.3542
 9746TIP3    H250730   1.112   3.999   0.469  0.2272  0.5845 -0.0629
 9747TIP3   OH250731   4.026   1.213   5.026 -0.1794  0.3080  0.2277
 9747TIP3    H150732   4.036   1.171   5.112 -2.0895  0.2229  0.4531
 9747TIP3    H250733   4.034   1.306   5.044  0.7886  0.2276  0.2598
 9748TIP3   OH250734   1.499   6.049   2.286 -0.2805  0.5437 -0.1006
 9748TIP3    H150735   1.462   5.963   2.266  0.0159  0.1517  1.0108
 9748TIP3    H250736   1.440   6.111   2.241  0.6653 -0.2885 -2.6914
 9749TIP3   OH250737   3.222   4.240  15.218  0.6519  0.2680 -0.0416
 9749TIP3    H150738   3.287   4.184  15.175  2.9434  0.8294  2.4725
 9749TIP3    H250739   3.183   4.184  15.285 -0.3682  0.4159 -0.4893
 9750TIP3   OH250740   0.709   3.609   1.710 -0.1983 -0.0770  0.4360
 9750TIP3    H150741   0.771   3.591   1.780  2.1029  0.1316 -1.4404
 9750TIP3    H250742   0.737   3.692   1.673  1.3207 -1.9870 -3.2809
 9751TIP3   OH250743   3.892   2.820  15.363  0.1157  0.4089  0.0351
 9751TIP3    H150744   3.924   2.731  15.349 -0.5643  0.3778 -1.5087
 9751TIP3    H250745   3.828   2.834  15.294 -0.3705  1.8337  0.7272
 9752TIP3   OH250746   0.694   0.321  12.380  0.5292 -0.2045  0.6836
 9752TIP3    H150747   0.654   0.378  12.445  0.4515  1.3452 -0.6648
 9752TIP3    H250748   0.785   0.352  12.374  0.1787  0.6175 -0.9091
 9753TIP3   OH250749   1.327   6.656  12.032 -0.6005  0.0783 -0.5635
 9753TIP3    H150750   1.362   6.623  11.949 -0.3254  2.3505 -1.4212
 9753TIP3    H250751   1.362   6.745  12.039 -0.4004 -0.1128  2.1469
 9754TIP3   OH250752   1.594   2.513  11.877  0.0657  0.4325 -0.3046
 9754TIP3    H150753   1.566   2.422  11.881 -1.4878  0.9204  1.1181
 9754TIP3    H250754   1.557   2.546  11.795  0.1934 -0.0627 -0.5650
 9755TIP3   OH250755   3.573   5.652  17.322 -0.3200 -0.1357  0.0990
 9755TIP3    H150756   3.643   5.699  17.366 -1.2808  1.1770  0.2838
 9755TIP3    H250757   3.585   5.672  17.229 -0.8259  0.6232  0.1938
 9756TIP3   OH250758   1.634   2.187  14.137  0.0411 -0.1113 -0.2347
 9756TIP3    H150759   1.590   2.126  14.196 -1.9481  1.8446  0.4600
 9756TIP3    H250760   1.727   2.166  14.145 -0.1693 -0.3255  3.1879
 9757TIP3   OH250761   1.305   6.274   5.846 -0.2520 -0.0182 -0.3481
 9757TIP3    H150762   1.343   6.362   5.837 -1.0727  0.3148 -0.6877
 9757TIP3    H250763   1.283   6.249   5.756 -2.0767  0.3759 -0.0401
 9758TIP3   OH250764   3.698   2.190   4.514  0.1937  0.1154 -0.1216
 9758TIP3    H150765   3.623   2.212   4.458  1.4264 -1.9794 -2.8361
 9758TIP3    H250766   3.763   2.258   4.496  0.7486 -0.7855 -1.6829
 9759TIP3   OH250767   6.044   1.005  15.563  0.0099 -0.3620 -0.4375
 9759TIP3    H150768   5.978   0.996  15.495 -0.7236  1.6558 -0.0357
 9759TIP3    H250769   5.997   0.989  15.645 -0.0101  1.1027 -0.1451
 9760TIP3   OH250770   3.803   0.015  16.141 -0.2545 -0.3769 -0.4752
 9760TIP3    H150771   3.792   0.071  16.064  2.6829 -0.0099 -0.7451
 9760TIP3    H250772   3.864   0.063  16.197  0.0545 -2.0251  0.6724
 9761TIP3   OH250773   4.487   1.249  14.193  0.5245 -0.1824 -0.1504
 9761TIP3    H150774   4.426   1.305  14.241  0.8399  0.1420 -0.1265
 9761TIP3    H250775   4.509   1.299  14.115  2.5804  0.7563  0.9555
 9762TIP3   OH250776   3.040   3.491   4.996 -0.4725 -0.9612  0.4014
 9762TIP3    H150777   2.995   3.539   5.066  0.7350  0.9715 -0.0850
 9762TIP3    H250778   3.090   3.423   5.042  0.6758  0.5682  1.5168
 9763TIP3   OH250779   0.820   6.187  11.568  0.1013  0.4136 -0.4595
 9763TIP3    H150780   0.748   6.146  11.615 -1.2124 -0.1510 -2.8010
 9763TIP3    H250781   0.794   6.279  11.560  0.1896  0.4506 -0.3212
 9764TIP3   OH250782   6.506   4.748  13.002 -0.1449  0.6105 -0.4924
 9764TIP3    H150783   6.468   4.719  13.085 -0.1233 -1.2400 -1.0942
 9764TIP3    H250784   6.600   4.754  13.020 -0.0607 -0.4473 -0.5604
 9765TIP3   OH250785   3.039   0.099  15.822  0.9371 -0.1750 -0.0092
 9765TIP3    H150786   2.967   0.036  15.825  0.5669  0.2359 -0.2833
 9765TIP3    H250787   3.114   0.047  15.793  0.6561 -0.5145 -0.1352
 9766TIP3   OH250788   2.869   0.182   3.279  0.3753  0.1627  0.5946
 9766TIP3    H150789   2.925   0.128   3.223  1.5910  0.4467  1.5044
 9766TIP3    H250790   2.929   0.228   3.337 -0.8492 -0.7942  2.7543
 9767TIP3   OH250791   0.523   4.736   1.845 -0.1912  0.0161 -0.0943
 9767TIP3    H150792   0.604   4.701   1.882 -1.1798  0.0996  2.3326
 9767TIP3    H250793   0.463   4.662   1.847  0.0434 -0.3709 -2.9420
 9768TIP3   OH250794   2.432   0.036  12.681  0.2090 -0.5415  0.2415
 9768TIP3    H150795   2.520   0.030  12.720  0.9954  0.5584 -1.2551
 9768TIP3    H250796   2.429  -0.037  12.620  0.3677 -0.1627 -0.2237
 9769TIP3   OH250797   3.069   0.207   1.306 -0.3739 -0.5608  0.5696
 9769TIP3    H150798   3.060   0.131   1.362 -3.1036 -2.0178 -1.6073
 9769TIP3    H250799   3.153   0.195   1.262 -0.6036 -2.1481  0.5186
 9770TIP3   OH250800   6.492   3.069  10.808 -0.4408  0.2809 -0.0650
 9770TIP3    H150801   6.409   3.021  10.816 -0.1809 -0.3332 -0.8983
 9770TIP3    H250802   6.466   3.158  10.787 -0.9129  0.2976  0.5747
 9771TIP3   OH250803   3.965   5.705  11.784 -0.2507 -0.2828 -0.4531
 9771TIP3    H150804   3.944   5.787  11.740 -0.2937  0.6903  1.2589
 9771TIP3    H250805   4.058   5.713  11.807  0.2249 -1.5080 -1.8112
 9772TIP3   OH250806   0.073   1.184  11.510  0.1102 -0.9144 -0.0676
 9772TIP3    H150807   0.107   1.256  11.563  3.3500 -0.7958 -2.0312
 9772TIP3    H250808   0.116   1.194  11.425 -1.4929 -3.5611 -1.3315
 9773TIP3   OH250809   0.453   2.645  12.695 -0.4979  0.4785 -0.2141
 9773TIP3    H150810   0.465   2.737  12.673 -1.3994  0.8677  0.8065
 9773TIP3    H250811   0.501   2.633  12.777 -1.6074  0.4252  0.4412
 9774TIP3   OH250812   4.934   3.351   1.108  0.2001 -0.2461  0.5195
 9774TIP3    H150813   4.957   3.267   1.147 -0.0957 -0.2239  0.7525
 9774TIP3    H250814   4.884   3.396   1.177 -0.0293 -0.0655  0.2392
 9775TIP3   OH250815   4.178   0.000  11.574 -0.4142  0.9106 -0.1645
 9775TIP3    H150816   4.104   0.019  11.516 -2.2172 -2.8869  0.5802
 9775TIP3    H250817   4.231  -0.063  11.525  1.0181  1.7137  0.2983
 9776TIP3   OH250818   5.920   6.686   5.079 -0.5821 -0.3866  0.2233
 9776TIP3    H150819   6.012   6.682   5.054  0.1320  1.8068  2.1321
 9776TIP3    H250820   5.910   6.618   5.146 -0.4150 -0.7590 -0.1239
 9777TIP3   OH250821   1.364   4.203  15.974  0.6352  0.2935  0.2545
 9777TIP3    H150822   1.430   4.179  16.039  0.0460 -2.5715 -0.0940
 9777TIP3    H250823   1.401   4.172  15.891 -0.2589  0.5484 -0.2470
 9778TIP3   OH250824   1.624   0.219   5.910  0.5686  0.2734 -0.5109
 9778TIP3    H150825   1.703   0.171   5.935  0.1109 -0.4629 -0.4525
 9778TIP3    H250826   1.624   0.296   5.967  0.7959 -0.1636  0.0876
 9779TIP3   OH250827   6.539   1.639  11.575 -0.0448 -0.3217  0.4165
 9779TIP3    H150828   6.491   1.657  11.494  1.0369 -1.8103 -0.6118
 9779TIP3    H250829   6.604   1.573  11.550 -0.3589 -1.6150  2.7162
 9780TIP3   OH250830   0.566   1.550  14.423 -0.3251  0.3955 -0.4041
 9780TIP3    H150831   0.649   1.592  14.449 -0.0921 -1.1898  1.6462
 9780TIP3    H250832   0.581   1.521  14.333  1.0436  0.8859 -0.3584
 9781TIP3   OH250833   1.273   6.139   2.138  0.2618  0.2352 -0.0070
 9781TIP3    H150834   1.310   6.189   2.065  1.5767  0.8914  1.0594
 9781TIP3    H250835   1.203   6.088   2.099 -0.7067  2.3994 -1.2942
 9782TIP3   OH250836   6.536   5.882  15.492 -0.2033  0.3439  0.2442
 9782TIP3    H150837   6.573   5.821  15.428  0.0366  2.2864 -1.5548
 9782TIP3    H250838   6.470   5.830  15.538  0.5023 -1.4734 -0.6734
 9783TIP3   OH250839   5.702   2.892   2.142 -0.0806 -0.1827 -0.6178
 9783TIP3    H150840   5.776   2.951   2.124  1.0352 -0.8893  1.2893
 9783TIP3    H250841   5.648   2.940   2.205 -0.3778 -0.3015 -0.7832
 9784TIP3   OH250842   1.144   4.865   5.543  0.1131  0.0667  0.0730
 9784TIP3    H150843   1.157   4.928   5.473  0.6173 -2.0452 -1.8659
 9784TIP3    H250844   1.053   4.838   5.535 -0.1903  0.7442  1.0958
 9785TIP3   OH250845   0.449   0.651   0.866 -0.0513 -0.0406 -0.2677
 9785TIP3    H150846   0.378   0.609   0.818  0.8201 -0.3008 -1.3707
 9785TIP3    H250847   0.486   0.715   0.804  1.5153 -0.8282 -0.2062
 9786TIP3   OH250848   5.463   4.766   3.326  0.4102 -0.4600  0.6166
 9786TIP3    H150849   5.423   4.843   3.286 -0.5142  0.0867  2.4834
 9786TIP3    H250850   5.406   4.693   3.301 -0.6993  0.0205  1.6682
 9787TIP3   OH250851   1.040   1.747   4.667  0.0163  0.2113  0.0762
 9787TIP3    H150852   1.076   1.660   4.652 -1.1151 -0.0753 -1.1340
 9787TIP3    H250853   0.948   1.740   4.643 -0.2564  1.5832  0.5960
 9788TIP3   OH250854   2.639   6.290  14.131  0.6520  0.0789  0.5840
 9788TIP3    H150855   2.545   6.281  14.144  0.4127  0.4495 -0.7602
 9788TIP3    H250856   2.678   6.238  14.201 -0.5239  1.1269  2.1057
 9789TIP3   OH250857   2.062   5.098  14.814  0.0645 -0.0402  0.0487
 9789TIP3    H150858   2.011   5.023  14.785 -1.9574  1.5624 -0.8067
 9789TIP3    H250859   2.140   5.097  14.760  0.1011 -1.5495  0.1045
 9790TIP3   OH250860   6.748   2.190  12.883  0.1454  0.0486  0.4945
 9790TIP3    H150861   6.779   2.152  12.965 -0.3210  0.1093  0.7030
 9790TIP3    H250862   6.814   2.167  12.818  0.7539  0.3906  0.9841
 9791TIP3   OH250863   1.728   4.203   2.042  0.3235 -0.3360 -0.3225
 9791TIP3    H150864   1.735   4.274   1.979 -0.6357 -0.4699 -0.6048
 9791TIP3    H250865   1.639   4.211   2.077  0.8965 -0.1402  1.1695
 9792TIP3   OH250866   0.532   5.044  15.105  0.2855 -0.5179  0.5681
 9792TIP3    H150867   0.555   5.096  15.183 -0.7641 -1.1432  1.3122
 9792TIP3    H250868   0.437   5.033  15.110 -0.0263  0.6579 -1.5911
 9793TIP3   OH250869   5.974   3.354   2.536 -0.3684 -0.6977  0.2253
 9793TIP3    H150870   6.034   3.284   2.513  0.6898  0.0737  0.5806
 9793TIP3    H250871   5.980   3.416   2.463 -1.9668 -1.3450 -0.5266
 9794TIP3   OH250872   5.436   4.708  13.059 -0.0920 -0.5113 -0.1185
 9794TIP3    H150873   5.526   4.679  13.043  0.4067  1.1097 -0.3883
 9794TIP3    H250874   5.415   4.764  12.984 -0.9657 -0.0523  0.4585
 9795TIP3   OH250875   1.157   5.703   2.823 -0.5088 -0.4773 -0.6134
 9795TIP3    H150876   1.153   5.642   2.749  2.7008 -2.2014  0.4307
 9795TIP3    H250877   1.248   5.732   2.825 -0.9759  1.1207  1.5024
 9796TIP3   OH250878   4.515   3.495  13.280 -0.3916  0.2865  0.5156
 9796TIP3    H150879   4.560   3.538  13.207 -0.6472 -0.5815 -0.1709
 9796TIP3    H250880   4.534   3.550  13.356  0.0083  1.1224 -0.1742
 9797TIP3   OH250881   3.342   1.750  13.443 -0.4829  0.4510 -0.6778
 9797TIP3    H150882   3.362   1.787  13.528  1.4897 -1.2502 -0.3197
 9797TIP3    H250883   3.422   1.703  13.417 -2.1208 -1.8849 -1.9225
 9798TIP3   OH250884   6.747   2.015   6.030 -0.1750 -0.1099  0.0095
 9798TIP3    H150885   6.839   2.023   6.004 -0.2680  1.1795  0.0145
 9798TIP3    H250886   6.730   1.921   6.028  1.3966 -0.4525  0.9084
 9799TIP3   OH250887   0.409   4.688   4.449 -0.3390  0.2582 -0.3810
 9799TIP3    H150888   0.400   4.672   4.354  1.1137 -2.3195 -0.1780
 9799TIP3    H250889   0.498   4.719   4.460 -0.0315 -0.8162  0.2606
 9800TIP3   OH250890   0.040   5.854   1.538  0.0430 -0.1058 -0.2523
 9800TIP3    H150891   0.025   5.948   1.541 -2.1752 -0.3018 -2.1130
 9800TIP3    H250892  -0.001   5.820   1.617 -1.0503  0.3320 -0.6121
 9801TIP3   OH250893   4.157   4.797   0.357  0.6878  0.2592 -0.1880
 9801TIP3    H150894   4.101   4.739   0.407  1.2067 -0.2925 -0.2358
 9801TIP3    H250895   4.209   4.739   0.301  0.3781  0.8369 -1.1083
 9802TIP3   OH250896   1.344   2.831   5.299 -0.2679 -0.1192  0.3117
 9802TIP3    H150897   1.286   2.766   5.261 -1.3305 -0.1132  1.8154
 9802TIP3    H250898   1.288   2.881   5.358  0.3969  2.4921 -1.1147
 9803TIP3   OH250899   5.828   2.763   0.700  0.8798  0.3925 -0.3341
 9803TIP3    H150900   5.865   2.850   0.686  2.3623 -0.1974 -0.3039
 9803TIP3    H250901   5.756   2.757   0.637  0.6246  1.6988 -0.1916
 9804TIP3   OH250902   4.546   6.629  16.384  0.2364 -0.0257  0.0960
 9804TIP3    H150903   4.480   6.561  16.399 -0.3018  0.8461  2.1085
 9804TIP3    H250904   4.628   6.591  16.417 -0.0694  0.2588  1.2488
 9805TIP3   OH250905   3.020   4.174   5.908 -0.6763  0.1069 -0.4092
 9805TIP3    H150906   3.096   4.176   5.849 -0.4079 -0.8051 -0.1066
 9805TIP3    H250907   2.974   4.256   5.890  0.9078  1.1390  0.1066
 9806TIP3   OH250908   2.780   6.345   3.892 -0.0193 -0.2343  0.5119
 9806TIP3    H150909   2.763   6.336   3.986 -3.6648 -0.1605 -0.0020
 9806TIP3    H250910   2.806   6.257   3.865 -2.2418 -1.1609  1.1232
 9807TIP3   OH250911   3.517   4.729   5.675 -0.1708  0.0917  0.3139
 9807TIP3    H150912   3.516   4.805   5.733  0.9737 -0.5410  1.2021
 9807TIP3    H250913   3.430   4.690   5.686 -1.5884  2.3984 -1.7724
 9808TIP3   OH250914   5.293   3.144  13.292  0.3772  0.1930 -0.2125
 9808TIP3    H150915   5.283   3.240  13.297  0.8987  0.1987  1.1283
 9808TIP3    H250916   5.357   3.130  13.223  0.1647  0.8070 -0.5421
 9809TIP3   OH250917   0.507   4.439  16.549 -0.1329 -0.1487 -0.7436
 9809TIP3    H150918   0.459   4.359  16.570 -0.3122 -0.1002 -0.9736
 9809TIP3    H250919   0.596   4.423  16.583 -0.0638 -0.5935 -1.1258
 9810TIP3   OH250920   5.477   1.556  12.932  0.0923  0.5399  0.0582
 9810TIP3    H150921   5.497   1.463  12.918 -1.3600  0.3273 -0.7518
 9810TIP3    H250922   5.559   1.601  12.911  0.4512 -0.4634 -0.8054
 9811TIP3   OH250923   1.631   5.726   3.123 -0.2866  0.1000  0.4016
 9811TIP3    H150924   1.561   5.673   3.085  0.7687 -1.4975  0.5747
 9811TIP3    H250925   1.661   5.781   3.051 -1.1416  0.1800  0.0984
 9812TIP3   OH250926   0.560   2.329  14.938  0.1404 -0.5157 -0.4434
 9812TIP3    H150927   0.581   2.363  15.025 -1.5622  0.7154 -0.4437
 9812TIP3    H250928   0.577   2.403  14.879 -0.7973 -0.6027 -0.8435
 9813TIP3   OH250929   6.042   6.469   0.387 -0.2559 -0.3930  0.3270
 9813TIP3    H150930   6.050   6.543   0.449 -1.2606  0.2923 -0.3409
 9813TIP3    H250931   6.123   6.473   0.336 -0.2415  0.1641  0.3824
 9814TIP3   OH250932   1.029   4.417  14.398  0.0507 -0.0892  0.2689
 9814TIP3    H150933   0.960   4.350  14.398  0.5496 -0.7168 -2.5693
 9814TIP3    H250934   0.986   4.496  14.431 -1.6314 -0.8320 -0.0362
 9815TIP3   OH250935   5.008   4.962   4.138  0.5960 -0.1015  0.2204
 9815TIP3    H150936   4.971   4.912   4.211 -1.9972  0.5974 -0.5269
 9815TIP3    H250937   5.018   5.051   4.172  0.1013  0.0587 -0.0549
 9816TIP3   OH250938   6.605   5.908  11.375 -0.7181  0.4118  0.3602
 9816TIP3    H150939   6.555   5.826  11.380  2.2107 -1.5053  0.6183
 9816TIP3    H250940   6.643   5.907  11.287  1.0636  0.3409  1.0915
 9817TIP3   OH250941   4.413   4.687  13.536  0.1109  0.3944 -0.2495
 9817TIP3    H150942   4.455   4.607  13.504 -1.8606 -1.0220  0.4492
 9817TIP3    H250943   4.323   4.682  13.502 -1.0049  0.6165  2.4120
 9818TIP3   OH250944   4.713   4.648  12.289 -0.4357  0.2190 -0.3098
 9818TIP3    H150945   4.736   4.610  12.205  1.3469  1.6105 -0.5258
 9818TIP3    H250946   4.675   4.733  12.267  0.0254  0.5851  0.2641
 9819TIP3   OH250947   2.049   4.042  11.069 -0.0633 -0.0125 -0.0109
 9819TIP3    H150948   1.969   4.032  11.018 -0.2747  0.2688  0.2595
 9819TIP3    H250949   2.102   4.105  11.019 -0.7087  1.0633  0.6236
 9820TIP3   OH250950   5.703   0.591  14.764  0.0185  0.6129  0.0278
 9820TIP3    H150951   5.779   0.644  14.789  0.3767  0.1278 -0.0298
 9820TIP3    H250952   5.675   0.550  14.845 -2.2877  3.4100  0.7990
 9821TIP3   OH250953   2.755   6.671  14.830 -0.8919  0.9122 -0.4634
 9821TIP3    H150954   2.699   6.600  14.863  0.1139 -0.0692 -0.8089
 9821TIP3    H250955   2.766   6.650  14.737  0.0964  1.0441 -0.3856
 9822TIP3   OH250956   0.436   3.176  14.991 -0.0665 -0.7867  0.0311
 9822TIP3    H150957   0.412   3.263  14.958 -2.4412 -1.3485  0.1399
 9822TIP3    H250958   0.517   3.154  14.944  0.4963  1.3749 -0.1278
 9823TIP3   OH250959   5.713   4.447   5.379  0.2074  0.0549  0.0075
 9823TIP3    H150960   5.634   4.431   5.327  0.5783  2.0074 -1.2904
 9823TIP3    H250961   5.739   4.361   5.412 -2.2313 -0.6892  0.1659
 9824TIP3   OH250962   5.128   2.378   4.923 -0.5316 -0.1148  0.0874
 9824TIP3    H150963   5.211   2.384   4.877  0.0286  1.3549  1.1933
 9824TIP3    H250964   5.136   2.440   4.995 -3.1149  1.1279 -0.5696
 9825TIP3   OH250965   2.935   4.196  17.214  0.0394 -0.2052 -0.2230
 9825TIP3    H150966   2.847   4.233  17.218 -0.6723 -1.9133  1.3427
 9825TIP3    H250967   2.947   4.152  17.298  2.3136 -0.2213 -0.4811
 9826TIP3   OH250968   2.736   0.199   1.557  0.2738  0.2389  0.3640
 9826TIP3    H150969   2.683   0.229   1.631 -0.6871 -1.7675  0.5408
 9826TIP3    H250970   2.695   0.240   1.481  1.1007  2.0895  0.8501
 9827TIP3   OH250971   1.784   2.193  16.697 -0.4419  0.1496  0.2226
 9827TIP3    H150972   1.745   2.279  16.716 -1.2268 -0.0791 -0.3020
 9827TIP3    H250973   1.731   2.131  16.748 -0.2683 -0.0838  0.1198
 9828TIP3   OH250974   0.173   1.715  10.473 -0.1210 -0.0032 -0.9541
 9828TIP3    H150975   0.174   1.622  10.451  1.7207 -0.3011  0.1659
 9828TIP3    H250976   0.210   1.720  10.561  0.1799  1.8122 -1.1320
 9829TIP3   OH250977   2.019   1.863   3.757 -0.4077  0.0791 -0.2730
 9829TIP3    H150978   2.110   1.882   3.733 -0.5862  1.0525 -0.2369
 9829TIP3    H250979   2.023   1.779   3.804  0.3855 -0.1859 -0.7932
 9830TIP3   OH250980   1.417   0.720   3.272  0.0154  0.3559  0.1049
 9830TIP3    H150981   1.512   0.735   3.277 -0.0178  0.8419 -0.5587
 9830TIP3    H250982   1.382   0.764   3.349  0.3757 -0.2221  0.6035
 9831TIP3   OH250983   0.916   4.284   3.101  0.1343 -0.2138  0.1630
 9831TIP3    H150984   0.868   4.295   3.183 -0.9743 -0.4245 -0.4430
 9831TIP3    H250985   1.008   4.286   3.127 -0.2037 -1.0600  1.5152
 9832TIP3   OH250986   5.821   1.584  11.178 -0.6120  0.2477  0.2653
 9832TIP3    H150987   5.798   1.646  11.247  3.3538  0.6582  1.4486
 9832TIP3    H250988   5.818   1.498  11.221  1.0870  0.4272  0.8034
 9833TIP3   OH250989   3.032   0.378   3.399  0.4965 -0.5003 -0.1346
 9833TIP3    H150990   3.005   0.469   3.407  0.4755 -0.3973 -1.1746
 9833TIP3    H250991   3.126   0.379   3.417  0.4034 -0.3576  0.3533
 9834TIP3   OH250992   3.391   0.757   2.025 -0.7181  0.4869  0.0019
 9834TIP3    H150993   3.425   0.813   2.095 -1.5070 -1.4209  2.0197
 9834TIP3    H250994   3.467   0.739   1.970  0.2151  1.0879  1.0449
 9835TIP3   OH250995   0.554   6.694   4.433 -0.4516 -0.0775  0.2904
 9835TIP3    H150996   0.632   6.646   4.405 -0.9552 -0.8626  0.2052
 9835TIP3    H250997   0.489   6.626   4.453 -2.1352  0.5765 -2.4825
 9836TIP3   OH250998   1.593   4.792  14.844 -0.3426  0.5179  0.1105
 9836TIP3    H150999   1.566   4.734  14.915  0.9019 -1.2190 -0.7565
 9836TIP3    H251000   1.666   4.746  14.802  0.9656  2.9017 -0.4087
 9837TIP3   OH251001   2.989   2.738  13.460 -0.0227  0.2461 -0.4234
 9837TIP3    H151002   3.077   2.720  13.493 -0.5786 -0.3145  0.8295
 9837TIP3    H251003   2.934   2.737  13.538 -1.3671 -0.7902 -1.3427
 9838TIP3   OH251004   6.589   0.496  11.719  0.1101 -0.2948  0.5364
 9838TIP3    H151005   6.526   0.490  11.648 -0.4483 -1.3587  1.0990
 9838TIP3    H251006   6.649   0.423  11.704  1.4545  0.9054 -0.1915
 9839TIP3   OH251007   6.695   2.182  15.649 -0.4581  0.1490  0.2103
 9839TIP3    H151008   6.632   2.110  15.652  1.8430 -2.0472 -1.0758
 9839TIP3    H251009   6.731   2.187  15.737  1.1579 -2.0553 -0.2534
 9840TIP3   OH251010   2.084   4.113  16.571 -0.4202 -0.7376  0.2900
 9840TIP3    H151011   2.119   4.033  16.533  0.4928 -0.7440  1.1068
 9840TIP3    H251012   2.141   4.131  16.646 -0.4483  0.8158 -0.0321
 9841TIP3   OH251013   4.230   3.328   3.445 -0.2944  0.6328  0.4204
 9841TIP3    H151014   4.209   3.282   3.527 -0.5662  1.1903  0.6695
 9841TIP3    H251015   4.319   3.361   3.458 -0.8613  1.9821  1.0919
 9842TIP3   OH251016   6.026   1.546   6.587  0.0681 -0.8098 -0.0350
 9842TIP3    H151017   5.964   1.559   6.515  1.3369  0.3496 -0.9745
 9842TIP3    H251018   6.067   1.632   6.599  0.8722 -1.3320  1.1501
 9843TIP3   OH251019   3.980   3.140   6.281 -0.3074 -0.1155 -0.1428
 9843TIP3    H151020   3.919   3.142   6.355 -2.5369 -0.2289 -1.8709
 9843TIP3    H251021   4.007   3.231   6.270  0.6223 -0.2022  1.2247
 9844TIP3   OH251022   3.743   3.169   5.610 -0.2149 -0.0023  0.7208
 9844TIP3    H151023   3.759   3.145   5.701 -0.1580 -0.6382  0.5421
 9844TIP3    H251024   3.668   3.229   5.614 -0.5941 -0.4979  1.1273
 9845TIP3   OH251025   6.308   4.541   2.825 -0.6004 -0.7962  0.1497
 9845TIP3    H151026   6.379   4.495   2.780 -0.8093  0.4525 -1.5692
 9845TIP3    H251027   6.243   4.474   2.844  0.1212 -1.5892 -0.1538
 9846TIP3   OH251028   4.903   3.954   4.602 -0.2223 -1.0289  0.0014
 9846TIP3    H151029   4.873   3.988   4.518  1.7344 -2.2234 -1.2359
 9846TIP3    H251030   4.829   3.970   4.661 -0.7630  2.1027 -1.2801
 9847TIP3   OH251031   4.244   1.201  16.459 -0.0324 -0.3187  0.3064
 9847TIP3    H151032   4.196   1.220  16.378 -0.8987 -1.2738  0.5742
 9847TIP3    H251033   4.323   1.155  16.430  1.6246  2.6511 -0.2720
 9848TIP3   OH251034   3.195   2.887  13.926 -0.9456 -0.5536 -0.4812
 9848TIP3    H151035   3.123   2.902  13.865 -1.1774 -0.5372 -0.2050
 9848TIP3    H251036   3.239   2.809  13.892  1.1616  1.4701 -2.7736
 9849TIP3   OH251037   3.081   5.880   0.412  0.5615  0.4229 -0.2060
 9849TIP3    H151038   3.098   5.871   0.505  0.7293  1.5843 -0.1135
 9849TIP3    H251039   2.986   5.876   0.404  0.4932  1.2763  0.1286
 9850TIP3   OH251040   1.495   0.501  13.008  0.1640  0.2619 -0.8867
 9850TIP3    H151041   1.533   0.588  13.004  2.1074 -0.4615  0.2477
 9850TIP3    H251042   1.432   0.505  13.080  0.9679  0.5068 -0.1800
 9851TIP3   OH251043   5.205   2.227   1.236  0.0198 -0.1676  0.1977
 9851TIP3    H151044   5.261   2.270   1.301 -1.6926  1.8693  0.4567
 9851TIP3    H251045   5.263   2.168   1.189  2.0833  0.8811  1.2891
 9852TIP3   OH251046   0.395   0.570  17.187 -0.2614  0.3369  0.2908
 9852TIP3    H151047   0.434   0.648  17.227 -0.7028  0.7658 -0.1061
 9852TIP3    H251048   0.313   0.601  17.150 -0.8184 -0.4872  0.8212
 9853TIP3   OH251049   5.871   3.448  16.547  0.1469  0.6984  0.5283
 9853TIP3    H151050   5.892   3.368  16.499  3.1862  0.4328  2.0968
 9853TIP3    H251051   5.826   3.417  16.626 -1.7722  0.8864 -0.4288
 9854TIP3   OH251052   0.350   4.239   0.995 -0.4451  0.1958 -0.7962
 9854TIP3    H151053   0.385   4.307   1.052  2.5328 -0.5146 -1.6006
 9854TIP3    H251054   0.364   4.273   0.906 -0.8966 -0.5700 -1.1702
 9855TIP3   OH251055   5.423   4.477  12.846  0.4166 -0.1688  0.0083
 9855TIP3    H151056   5.477   4.483  12.924 -0.2771 -0.6811  0.5474
 9855TIP3    H251057   5.480   4.506  12.775  0.6176  1.7339  0.8771
 9856TIP3   OH251058   1.183   2.628  15.358  0.2847 -0.0285 -0.0688
 9856TIP3    H151059   1.111   2.607  15.418 -1.0088  0.9316 -1.2081
 9856TIP3    H251060   1.237   2.549  15.357 -0.8884 -0.8788  0.6536
 9857TIP3   OH251061   2.803   3.459  12.108  0.4393  0.6253 -0.1296
 9857TIP3    H151062   2.740   3.451  12.179  2.0746 -0.2978  1.3131
 9857TIP3    H251063   2.756   3.431  12.030 -0.8224 -0.4202  0.9637
 9858TIP3   OH251064   0.359   5.691  14.391 -0.0902  0.3538 -0.2636
 9858TIP3    H151065   0.359   5.763  14.455  3.3396  0.1900  0.0900
 9858TIP3    H251066   0.392   5.731  14.311 -0.2242 -0.3825 -0.6850
 9859TIP3   OH251067   6.545   6.591   4.999  0.4189 -0.0373  0.5521
 9859TIP3    H151068   6.463   6.609   4.953 -0.6396 -0.2250  2.2822
 9859TIP3    H251069   6.590   6.675   5.002  0.5176 -0.0208 -0.7803
 9860TIP3   OH251070   1.623   5.338  15.207 -0.3797  0.1240 -0.1233
 9860TIP3    H151071   1.655   5.249  15.192  0.8746  0.5501 -0.1357
 9860TIP3    H251072   1.565   5.356  15.133 -0.3060 -0.5398 -0.3457
 9861TIP3   OH251073   0.924   1.232   6.348  0.1203 -0.1661  0.3559
 9861TIP3    H151074   0.889   1.144   6.362  1.4639 -0.4836  2.1298
 9861TIP3    H251075   1.019   1.221   6.352  0.3814  1.1077 -1.2586
 9862TIP3   OH251076   0.199   3.802   3.589  0.2428  0.0077 -0.7994
 9862TIP3    H151077   0.198   3.754   3.505 -2.1283  0.5655 -1.1772
 9862TIP3    H251078   0.190   3.733   3.655 -1.3149 -0.2532 -1.2350
 9863TIP3   OH251079   6.429   5.337  13.119 -0.1543 -0.5599  0.3787
 9863TIP3    H151080   6.449   5.244  13.111 -0.6751 -0.6623  0.2144
 9863TIP3    H251081   6.454   5.360  13.208 -1.0377 -1.1178  0.7843
 9864TIP3   OH251082   0.257   0.372   0.783  0.3105  0.1709 -0.3153
 9864TIP3    H151083   0.304   0.369   0.866 -3.3946 -0.8797  1.9943
 9864TIP3    H251084   0.282   0.291   0.738  1.2140  0.0143  0.4433
 9865TIP3   OH251085   0.446   1.600  11.601  0.0963 -0.1862 -0.4739
 9865TIP3    H151086   0.478   1.570  11.686 -1.1022 -1.7286 -0.5025
 9865TIP3    H251087   0.406   1.685  11.619  0.2364 -0.2988  0.4165
 9866TIP3   OH251088   4.627   4.802  16.122  0.2512  0.5636 -0.1136
 9866TIP3    H151089   4.685   4.727  16.112  0.9459  1.0139  0.4786
 9866TIP3    H251090   4.659   4.847  16.200 -1.0215  0.6999  0.3514
 9867TIP3   OH251091   1.112   1.707  10.857  0.8655  0.1269 -0.5044
 9867TIP3    H151092   1.201   1.718  10.822  0.6145  2.6415 -0.5013
 9867TIP3    H251093   1.062   1.780  10.821 -0.6397  0.0583  1.2723
 9868TIP3   OH251094   0.579   4.560   3.840  0.0799 -0.0660 -0.5169
 9868TIP3    H151095   0.550   4.630   3.897 -0.0263  0.5077 -1.2648
 9868TIP3    H251096   0.613   4.493   3.899 -1.4301 -0.1472  0.2984
 9869TIP3   OH251097   5.555   0.359   4.033  0.0536 -0.4503 -0.0717
 9869TIP3    H151098   5.576   0.441   3.988 -0.9693 -0.2186 -0.1525
 9869TIP3    H251099   5.606   0.292   3.987  1.3690  0.2098  0.3749
 9870TIP3   OH251100   6.667   3.891  12.458  0.3585 -0.4788  0.3764
 9870TIP3    H151101   6.692   3.976  12.495 -0.6141 -0.5021  1.1267
 9870TIP3    H251102   6.580   3.874  12.494 -0.9976 -0.1772 -2.4843
 9871TIP3   OH251103   5.643   1.173  14.330 -0.0973 -0.0206  0.1731
 9871TIP3    H151104   5.568   1.231  14.320 -0.5002 -0.2140  1.7504
 9871TIP3    H251105   5.691   1.209  14.405  0.0785 -1.2615  0.6788
 9872TIP3   OH251106   0.973   1.346  11.739 -0.0035  0.1978 -0.0385
 9872TIP3    H151107   1.052   1.307  11.778  0.5010  0.8318 -0.3992
 9872TIP3    H251108   0.903   1.323  11.800  0.1851 -1.6216 -0.4490
 9873TIP3   OH251109   3.887   2.825   4.885  0.0513 -0.0100  0.4551
 9873TIP3    H151110   3.829   2.752   4.864 -0.5497  0.0143  1.9567
 9873TIP3    H251111   3.877   2.838   4.979  2.9875 -0.4156  0.9058
 9874TIP3   OH251112   1.916   3.388  15.857 -0.0905  0.1371  0.3036
 9874TIP3    H151113   1.941   3.456  15.795  0.4922 -0.4028 -0.0636
 9874TIP3    H251114   1.834   3.420  15.896 -0.2745  0.6412 -0.4747
 9875TIP3   OH251115   3.966   4.882   0.928  0.7582 -0.3705 -0.1329
 9875TIP3    H151116   4.013   4.911   0.850  1.4903  0.3215  0.5447
 9875TIP3    H251117   3.921   4.960   0.959 -0.3704 -0.8913 -0.4394
 9876TIP3   OH251118   5.685   4.756  15.026 -0.2012 -0.0977 -0.2778
 9876TIP3    H151119   5.749   4.771  14.957 -1.4592  0.4219 -1.3754
 9876TIP3    H251120   5.673   4.661  15.028  1.4941 -0.3201  0.8065
 9877TIP3   OH251121   2.435   4.834   6.740 -0.1953 -0.1160 -0.5000
 9877TIP3    H151122   2.389   4.896   6.797  0.2908  0.9827 -1.2732
 9877TIP3    H251123   2.365   4.780   6.703 -0.6639  0.1852 -0.0640
 9878TIP3   OH251124   1.725   4.880   5.125 -0.1932  0.4523  0.0453
 9878TIP3    H151125   1.677   4.846   5.200  0.0004  0.5420  0.2100
 9878TIP3    H251126   1.664   4.871   5.052 -1.2635  2.4314  0.6029
 9879TIP3   OH251127   4.359   3.070  16.999  0.4273 -0.5659 -0.1890
 9879TIP3    H151128   4.346   2.991  17.052  0.3185  0.1078  0.8151
 9879TIP3    H251129   4.311   3.052  16.918 -2.3704 -0.3011  1.2705
 9880TIP3   OH251130   3.082   0.667   3.459  0.3384 -0.4078  0.4958
 9880TIP3    H151131   3.139   0.742   3.476 -0.5597  0.0241  1.8521
 9880TIP3    H251132   3.026   0.663   3.537 -0.9887 -1.2460 -0.4706
 9881TIP3   OH251133   2.384   5.442   6.121 -0.1403  0.5247 -0.2140
 9881TIP3    H151134   2.427   5.526   6.135 -0.8973  0.9649 -0.4668
 9881TIP3    H251135   2.290   5.460   6.132 -0.2344 -0.5834  1.1968
 9882TIP3   OH251136   4.674   1.446  15.410  0.0995  0.7255 -0.8258
 9882TIP3    H151137   4.621   1.488  15.477 -0.6640 -0.3699 -0.7027
 9882TIP3    H251138   4.756   1.495  15.409  1.4547 -1.0393  3.1628
 9883TIP3   OH251139   5.422   0.757   3.890 -0.6657  0.2225  0.3765
 9883TIP3    H151140   5.387   0.668   3.883 -0.3059  0.0905  0.2846
 9883TIP3    H251141   5.355   0.804   3.940 -0.0267 -0.5526  2.0452
 9884TIP3   OH251142   1.956   6.656   3.173  0.4463  0.2573 -0.1912
 9884TIP3    H151143   1.871   6.616   3.190 -0.0568  0.8890 -1.1204
 9884TIP3    H251144   1.956   6.735   3.227  0.2898  0.4390 -0.4525
 9885TIP3   OH251145   1.446   0.757   1.300  0.3359  0.0203 -0.2105
 9885TIP3    H151146   1.404   0.799   1.375  1.5035  0.9178 -0.0343
 9885TIP3    H251147   1.490   0.680   1.337 -0.2071 -0.2921 -0.2091
 9886TIP3   OH251148   4.377   5.440   3.413 -0.6135  0.5625  0.3133
 9886TIP3    H151149   4.333   5.362   3.378 -0.6758  0.2384  1.0805
 9886TIP3    H251150   4.306   5.502   3.428 -0.3578  1.6223 -2.3067
 9887TIP3   OH251151   0.542   0.114   6.316  0.1437  0.1662  0.6854
 9887TIP3    H151152   0.495   0.085   6.238  2.1796  0.6485 -0.7963
 9887TIP3    H251153   0.502   0.198   6.339 -0.4296  0.0465  0.1473
 9888TIP3   OH251154   2.741   1.769   5.621 -0.0406  0.0756 -0.1923
 9888TIP3    H151155   2.814   1.824   5.592  0.4152 -0.2128  0.3866
 9888TIP3    H251156   2.663   1.820   5.599  0.3117  0.2057 -1.1932
 9889TIP3   OH251157   0.443   0.068   6.639 -0.6657  0.0081 -0.0058
 9889TIP3    H151158   0.536   0.090   6.650 -0.1253 -0.8897 -2.2404
 9889TIP3    H251159   0.408   0.069   6.728  1.1543  1.6758  0.7858
 9890TIP3   OH251160   4.388   6.173  17.144 -0.2967  0.0627  0.4635
 9890TIP3    H151161   4.304   6.202  17.110  0.6901  0.8185 -1.4683
 9890TIP3    H251162   4.443   6.251  17.144  0.0336 -0.0465  3.1898
 9891TIP3   OH251163   3.381   6.321  16.354 -0.1627  0.3118 -0.4649
 9891TIP3    H151164   3.351   6.278  16.274 -0.4413 -0.6789  0.1483
 9891TIP3    H251165   3.373   6.414  16.337 -0.8053  0.0976 -1.3608
 9892TIP3   OH251166   0.704   0.055  16.297  0.1871  0.2669 -0.3939
 9892TIP3    H151167   0.656   0.107  16.232  0.9642  0.6546 -0.6629
 9892TIP3    H251168   0.663   0.078  16.381 -2.1293 -1.6754 -0.8933
 9893TIP3   OH251169   4.459   3.758   1.495  0.7145  0.3808 -0.2834
 9893TIP3    H151170   4.534   3.813   1.517  1.4519  0.3912 -2.5212
 9893TIP3    H251171   4.390   3.787   1.554  1.6180  2.4529 -0.1389
 9894TIP3   OH251172   4.001   3.038  16.443  0.5040  0.6879  0.3759
 9894TIP3    H151173   3.974   3.019  16.533 -0.5817  0.1455 -0.0514
 9894TIP3    H251174   4.093   3.009  16.440  0.7726  1.3465  1.4868
 9895TIP3   OH251175   4.162   1.536   4.858  0.0576 -0.0704  0.3177
 9895TIP3    H151176   4.236   1.555   4.915  0.1931 -2.3873  0.9950
 9895TIP3    H251177   4.089   1.522   4.918 -0.2178 -0.7934 -0.1740
 9896TIP3   OH251178   1.602   0.291   0.894 -0.1666 -0.1274  0.1866
 9896TIP3    H151179   1.623   0.316   0.804  0.0967  3.6054  1.1140
 9896TIP3    H251180   1.656   0.213   0.911  0.8455 -0.0749 -2.4108
 9897TIP3   OH251181   2.436   0.561  10.952  0.0976  0.3856 -0.2658
 9897TIP3    H151182   2.465   0.494  10.890 -0.5625 -0.1777  0.0241
 9897TIP3    H251183   2.516   0.609  10.975  0.5498 -0.1978 -0.5955
 9898TIP3   OH251184   6.371   0.773   0.561 -0.2754 -0.4191  0.3116
 9898TIP3    H151185   6.454   0.820   0.556 -0.3214 -0.2920  0.6892
 9898TIP3    H251186   6.327   0.810   0.638 -0.8323 -0.2404 -0.0804
 9899TIP3   OH251187   6.360   6.396   2.213 -0.1475 -0.2387  0.1928
 9899TIP3    H151188   6.329   6.486   2.201  0.3934 -0.1691 -0.7311
 9899TIP3    H251189   6.370   6.388   2.308  1.8284  1.3852  0.2031
 9900TIP3   OH251190   3.657   1.190  13.184  0.1360 -0.0165  0.0728
 9900TIP3    H151191   3.740   1.151  13.209 -0.2543 -0.1080  1.3319
 9900TIP3    H251192   3.669   1.284  13.199  0.0722 -0.0126  0.1011
 9901TIP3   OH251193   5.595   4.705   3.650 -0.5732 -0.0945  0.2431
 9901TIP3    H151194   5.589   4.799   3.670 -1.8764  0.6310 -2.8233
 9901TIP3    H251195   5.544   4.696   3.569  1.0678 -3.1403 -0.5676
 9902TIP3   OH251196   2.643   3.562   1.947  0.2101 -0.2857 -0.3352
 9902TIP3    H151197   2.644   3.481   1.897 -1.5852 -1.8697  1.9875
 9902TIP3    H251198   2.729   3.566   1.989  1.0933  0.1875 -2.0946
 9903TIP3   OH251199   5.304   1.845  14.559  0.0954 -0.2563  0.4787
 9903TIP3    H151200   5.359   1.775  14.594  0.5189  0.2360  0.8260
 9903TIP3    H251201   5.233   1.800  14.514  0.4226 -0.9059  0.5979
 9904TIP3   OH251202   6.630   3.827  16.269  0.0202  0.1486 -0.4783
 9904TIP3    H151203   6.714   3.871  16.257  0.8222 -1.6595 -2.2063
 9904TIP3    H251204   6.637   3.748  16.215 -1.8179 -1.3937  1.3716
 9905TIP3   OH251205   5.256   2.682  13.673 -0.3621  0.3856  0.6888
 9905TIP3    H151206   5.349   2.702  13.665 -0.3198  0.4329  1.2555
 9905TIP3    H251207   5.244   2.661  13.766 -0.8716  0.1587  0.5741
 9906TIP3   OH251208   5.677   4.744  17.338  0.8433  0.6314  0.6082
 9906TIP3    H151209   5.676   4.825  17.288  2.2873  0.4227  0.1879
 9906TIP3    H251210   5.762   4.745  17.383  1.5221 -1.2598 -0.5021
 9907TIP3   OH251211   1.834   6.079   5.748 -0.3183  0.0321  0.1489
 9907TIP3    H151212   1.902   6.029   5.793 -1.2412 -2.1188 -0.7050
 9907TIP3    H251213   1.778   6.113   5.818  1.3092  1.4128  0.8342
 9908TIP3   OH251214   5.912   3.414   3.065 -0.1827  0.1354 -0.2889
 9908TIP3    H151215   5.927   3.369   2.982 -1.2934 -2.2848  0.7407
 9908TIP3    H251216   5.998   3.449   3.089  0.4097 -0.1681 -1.8519
 9909TIP3   OH251217   5.464   0.513   3.402  0.1570  0.1614 -0.6282
 9909TIP3    H151218   5.544   0.480   3.361  0.2988  0.6122 -0.7099
 9909TIP3    H251219   5.429   0.576   3.339  0.1839  0.5875 -0.2133
 9910TIP3   OH251220   2.420   3.261   2.363  0.0289  0.1224  0.0626
 9910TIP3    H151221   2.366   3.261   2.283  0.0918 -1.1681 -0.0040
 9910TIP3    H251222   2.359   3.285   2.432 -0.0275  1.2626 -0.3665
 9911TIP3   OH251223   0.678   1.829  12.837 -0.7090  0.1874  0.0985
 9911TIP3    H151224   0.751   1.857  12.893  0.5208 -1.5344 -0.5490
 9911TIP3    H251225   0.661   1.904  12.780  0.7199  0.5516  0.1064
 9912TIP3   OH251226   6.457   3.471  12.803  0.3290 -0.3599 -0.5312
 9912TIP3    H151227   6.402   3.393  12.810 -1.5293  0.9372  0.1046
 9912TIP3    H251228   6.499   3.479  12.889  0.4215 -0.5965 -0.5549
 9913TIP3   OH251229   0.733   4.662  16.104  0.2348 -0.7277 -0.2652
 9913TIP3    H151230   0.747   4.569  16.118  0.9947 -0.4231  1.1749
 9913TIP3    H251231   0.657   4.684  16.157  0.6878 -0.3453  0.2461
 9914TIP3   OH251232   3.638   3.355   5.271  0.1037 -0.0949  0.3665
 9914TIP3    H151233   3.589   3.275   5.287  1.4868 -1.0030  0.1921
 9914TIP3    H251234   3.720   3.344   5.318  0.4527  1.0931  0.0934
 9915TIP3   OH251235   4.422   1.237   1.097  0.2583 -0.4252 -0.1865
 9915TIP3    H151236   4.503   1.197   1.126  0.7887  1.8064  1.6961
 9915TIP3    H251237   4.449   1.309   1.039 -0.5832 -1.5879 -2.1378
 9916TIP3   OH251238   1.029   0.243  13.931 -0.0435 -0.0032 -0.1296
 9916TIP3    H151239   0.976   0.242  14.010  0.9052  0.9481  0.5534
 9916TIP3    H251240   1.026   0.335  13.902  0.6315 -0.0830 -0.4780
 9917TIP3   OH251241   6.589   4.444   1.376 -0.6834 -1.1382  0.2517
 9917TIP3    H151242   6.494   4.457   1.383 -0.6618 -1.1429  0.5839
 9917TIP3    H251243   6.619   4.517   1.321 -0.6651 -0.1972  1.4665
 9918TIP3   OH251244   0.351   2.098  12.521 -0.3056 -0.6540 -0.4445
 9918TIP3    H151245   0.425   2.038  12.534 -1.1690 -1.3504  1.5911
 9918TIP3    H251246   0.378   2.178  12.565 -0.4034 -0.5841 -0.5118
 9919TIP3   OH251247   4.515   5.007   4.429 -0.1850 -0.5025  0.1403
 9919TIP3    H151248   4.492   4.926   4.384  0.0318 -0.3331 -0.2725
 9919TIP3    H251249   4.504   5.076   4.363 -0.6918 -0.1541  0.5771
 9920TIP3   OH251250   3.200   5.053   3.231  0.0497  0.3530 -0.4060
 9920TIP3    H151251   3.161   5.137   3.257  0.4599  0.0974  1.1348
 9920TIP3    H251252   3.134   4.988   3.256  1.7054 -0.1896  3.2652
 9921TIP3   OH251253   0.508   2.927  10.987  0.4093 -0.7290  0.6279
 9921TIP3    H151254   0.435   2.942  10.928 -0.8533 -0.0693  2.2775
 9921TIP3    H251255   0.550   3.013  10.996  1.7511 -1.2086 -0.7157
 9922TIP3   OH251256   2.792   0.349  17.280  0.3457  0.0068  0.2793
 9922TIP3    H151257   2.745   0.269  17.300  0.2757  0.1248  0.5942
 9922TIP3    H251258   2.725   0.418  17.283  0.4465  0.1078  0.2320
 9923TIP3   OH251259   3.697   2.211  10.863 -0.1909  0.0345  0.4268
 9923TIP3    H151260   3.728   2.286  10.914 -0.6056  0.2867  0.3118
 9923TIP3    H251261   3.754   2.209  10.786 -0.9382  0.9666 -0.1710
 9924TIP3   OH251262   0.248   2.482  14.717  0.7698  0.7769  0.3703
 9924TIP3    H151263   0.196   2.465  14.638  1.3228  0.6229  0.0363
 9924TIP3    H251264   0.210   2.424  14.783 -0.0553  1.3133  0.3762
 9925TIP3   OH251265   2.206   4.309   2.201  0.4205 -0.2240  0.2179
 9925TIP3    H151266   2.181   4.400   2.184  2.6139  0.5000  0.4225
 9925TIP3    H251267   2.124   4.264   2.221 -1.0573  1.1268 -2.2351
 9926TIP3   OH251268   0.085   5.078  16.494 -0.2415 -0.6396  0.6815
 9926TIP3    H151269   0.119   5.140  16.430 -1.7776  0.1569  0.5991
 9926TIP3    H251270   0.050   5.006  16.441  0.5436 -1.0657  0.7329
 9927TIP3   OH251271   1.375   1.690   1.435  0.5390  0.1009 -0.1748
 9927TIP3    H151272   1.288   1.713   1.403  1.0265 -1.0673 -2.5374
 9927TIP3    H251273   1.362   1.610   1.487  0.1646  0.1390 -0.2113
 9928TIP3   OH251274   3.412   0.977  16.961 -0.2521  0.1725  0.0388
 9928TIP3    H151275   3.459   1.057  16.984  2.0910 -0.8945 -0.7444
 9928TIP3    H251276   3.457   0.908  17.010 -1.8863 -0.7513  0.2968
 9929TIP3   OH251277   5.449   5.102  12.800 -0.3419 -0.2346  0.2018
 9929TIP3    H151278   5.399   5.182  12.811  0.3613  0.3870 -0.8571
 9929TIP3    H251279   5.540   5.132  12.792 -0.2538 -0.9165 -2.1106
 9930TIP3   OH251280   6.633   4.809  12.124  0.1822  0.2942  0.2021
 9930TIP3    H151281   6.582   4.770  12.195  2.1319 -0.4921  1.2859
 9930TIP3    H251282   6.676   4.884  12.164  1.5548 -0.3439 -0.0085
 9931TIP3   OH251283   3.430   4.237  16.999  0.1706  0.3931 -0.1808
 9931TIP3    H151284   3.344   4.240  17.042  0.8614  0.8605  1.2584
 9931TIP3    H251285   3.469   4.156  17.031 -1.2393 -2.1160 -4.0778
 9932TIP3   OH251286   3.641   0.413  13.530 -0.3592 -0.0765  0.2039
 9932TIP3    H151287   3.638   0.324  13.566  0.1401 -0.3723 -0.4605
 9932TIP3    H251288   3.600   0.405  13.443  1.9326 -0.2262 -0.9466
 9933TIP3   OH251289   6.519   2.351  16.816 -0.3254  0.0113 -0.1947
 9933TIP3    H151290   6.520   2.423  16.752  0.0018  1.6204  1.5269
 9933TIP3    H251291   6.611   2.334  16.834 -0.4230  0.0144  0.3150
 9934TIP3   OH251292   0.522   5.416  15.944 -0.0702 -0.0126  0.1005
 9934TIP3    H151293   0.525   5.507  15.914 -2.4260  0.9331  2.3954
 9934TIP3    H251294   0.582   5.414  16.019  0.1265 -0.4311 -0.0638
 9935TIP3   OH251295   6.161   2.844  14.821 -0.1393  0.2316  0.1898
 9935TIP3    H151296   6.143   2.821  14.729  2.2143 -2.5819  0.2754
 9935TIP3    H251297   6.117   2.776  14.872  0.2350  0.6025  1.0269
 9936TIP3   OH251298   0.583   4.910   4.027 -0.5203 -0.0549 -0.6623
 9936TIP3    H151299   0.533   4.840   4.069  0.2185  0.4784  1.2254
 9936TIP3    H251300   0.517   4.972   3.996 -1.1041  0.6236  1.7587
 9937TIP3   OH251301   4.473   2.868  13.858 -0.2345  0.2196 -0.0794
 9937TIP3    H151302   4.406   2.889  13.792 -0.5944 -2.0490 -0.5217
 9937TIP3    H251303   4.455   2.777  13.881  1.7017  0.0857  1.0348
 9938TIP3   OH251304   5.435   6.100  11.488 -0.4060 -0.4247 -0.3142
 9938TIP3    H151305   5.479   6.023  11.524  0.6616 -0.0077 -0.6759
 9938TIP3    H251306   5.506   6.154  11.453 -0.8708  1.7784  1.8377
 9939TIP3   OH251307   2.173   0.278   2.463 -0.6540  0.2187 -0.6938
 9939TIP3    H151308   2.166   0.197   2.412 -0.2990 -0.0096 -0.3875
 9939TIP3    H251309   2.253   0.320   2.430  1.0431 -1.1689  1.3747
 9940TIP3   OH251310   4.771   1.229   6.710 -0.6115 -0.1342  0.6363
 9940TIP3    H151311   4.800   1.138   6.714 -0.0184  0.0787  1.5335
 9940TIP3    H251312   4.694   1.227   6.653  0.3193 -0.9398 -0.6525
 9941TIP3   OH251313   2.515   0.707   1.902 -0.0302  0.0889 -0.3692
 9941TIP3    H151314   2.584   0.688   1.838 -1.4171 -0.6402 -1.7230
 9941TIP3    H251315   2.457   0.768   1.857 -1.5481 -1.1620 -0.1991
 9942TIP3   OH251316   1.778   3.404  15.025 -0.4671  0.3034  0.2791
 9942TIP3    H151317   1.835   3.432  15.096 -0.4443  0.2994  0.2626
 9942TIP3    H251318   1.830   3.338  14.977 -0.2148  0.8135 -0.1587
 9943TIP3   OH251319   4.871   5.459   2.869  0.0872  0.5145  0.0951
 9943TIP3    H151320   4.832   5.372   2.871  1.9611 -0.3660  0.2445
 9943TIP3    H251321   4.865   5.490   2.959  2.8781 -1.1626  1.0006
 9944TIP3   OH251322   2.938   3.117   2.696 -0.1415 -0.1331  0.2154
 9944TIP3    H151323   2.879   3.089   2.626 -0.0188 -0.5444  0.2685
 9944TIP3    H251324   3.012   3.056   2.690 -0.1320 -0.1740  0.7061
 9945TIP3   OH251325   2.986   0.676   3.725 -1.1684  0.1082  0.3344
 9945TIP3    H151326   2.943   0.608   3.778 -0.3625 -1.8516 -1.3832
 9945TIP3    H251327   2.937   0.756   3.745 -2.3766 -1.0115  2.2073
 9946TIP3   OH251328   5.909   4.664  12.215  0.9824  0.0979 -0.2180
 9946TIP3    H151329   5.905   4.662  12.119  4.4377  2.0339 -0.5531
 9946TIP3    H251330   5.871   4.748  12.239  1.8296  0.4436 -0.0678
 9947TIP3   OH251331   2.246   2.768   6.193  0.3454  0.0639  0.0644
 9947TIP3    H151332   2.203   2.764   6.107  0.1422 -0.1292  0.1740
 9947TIP3    H251333   2.227   2.856   6.224  1.6540  0.6583 -0.7168
 9948TIP3   OH251334   3.451   2.983   1.651  0.1893 -0.0789  0.8119
 9948TIP3    H151335   3.518   3.032   1.602 -1.5701  1.5333 -0.1304
 9948TIP3    H251336   3.397   2.942   1.583 -0.8449  0.1668  1.4618
 9949TIP3   OH251337   1.358   3.830  13.440  0.3267 -0.3862  0.3315
 9949TIP3    H151338   1.332   3.830  13.348  1.6525 -2.0108 -0.1103
 9949TIP3    H251339   1.405   3.912  13.452 -0.6424  0.2522 -0.1895
 9950TIP3   OH251340   2.340   5.122  13.045  0.4642  0.0480 -0.1459
 9950TIP3    H151341   2.395   5.183  12.996  0.2700 -0.4623 -1.0172
 9950TIP3    H251342   2.251   5.143  13.016  0.2857  0.1472  0.4542
 9951TIP3   OH251343   5.334   4.997   3.278 -0.6440 -0.2547  0.2015
 9951TIP3    H151344   5.327   5.039   3.364 -0.4238  0.3531 -0.0729
 9951TIP3    H251345   5.296   5.061   3.218  0.5164 -0.0652 -0.3443
 9952TIP3   OH251346   5.612   4.689  10.585 -0.7389  0.3377  0.2324
 9952TIP3    H151347   5.614   4.721  10.675  0.0097  0.6691  0.0989
 9952TIP3    H251348   5.549   4.616  10.588  0.6562 -0.8948  1.4486
 9953TIP3   OH251349   2.200   0.139  12.798 -0.5833 -0.2926 -0.6179
 9953TIP3    H151350   2.288   0.123  12.765 -0.2527  1.8632 -0.9819
 9953TIP3    H251351   2.148   0.155  12.719 -0.2516  2.8163 -0.3387
 9954TIP3   OH251352   4.720   5.054  16.058 -0.1084 -0.3514 -0.2975
 9954TIP3    H151353   4.657   4.982  16.066 -1.2834  0.6790  0.0968
 9954TIP3    H251354   4.733   5.064  15.963 -0.3245 -0.7487 -0.3705
 9955TIP3   OH251355   5.474   2.455   5.775  0.9611 -0.8431  0.8426
 9955TIP3    H151356   5.505   2.531   5.727 -0.2774  0.2423  1.6796
 9955TIP3    H251357   5.552   2.401   5.789  1.4656 -0.8799 -1.7191
 9956TIP3   OH251358   6.285   5.859   3.821  0.2023 -0.8962 -0.1945
 9956TIP3    H151359   6.322   5.893   3.740 -0.2717 -1.4309 -0.6464
 9956TIP3    H251360   6.357   5.809   3.861  0.6756  0.0239  0.1159
 9957TIP3   OH251361   0.183   2.399   4.212 -0.1813 -0.2668  0.0560
 9957TIP3    H151362   0.194   2.359   4.298 -2.6713 -1.4106 -0.0624
 9957TIP3    H251363   0.257   2.460   4.204 -0.3971  0.6347  3.3854
 9958TIP3   OH251364   3.028   4.868   3.303 -0.4998  0.2698  0.1362
 9958TIP3    H151365   3.037   4.786   3.255 -1.4485  0.3528 -0.1917
 9958TIP3    H251366   2.959   4.916   3.258 -0.9389  0.6453  1.1596
 9959TIP3   OH251367   6.389   6.366  15.202  0.4830 -0.8411  0.3593
 9959TIP3    H151368   6.306   6.347  15.160  1.2631 -3.4574 -0.1878
 9959TIP3    H251369   6.443   6.404  15.133  0.5968 -1.6913 -0.0213
 9960TIP3   OH251370   0.368   2.501  12.010  0.3459 -0.4916 -0.6625
 9960TIP3    H151371   0.329   2.575  11.964  0.8358 -0.7982 -1.6134
 9960TIP3    H251372   0.390   2.438  11.940 -0.7755 -1.8923  0.1850
 9961TIP3   OH251373   6.059   5.561   4.254  0.1125  0.3614  0.0932
 9961TIP3    H151374   5.992   5.517   4.306 -1.3425  2.1980 -0.1150
 9961TIP3    H251375   6.031   5.550   4.163 -1.0756  2.7792  0.0900
 9962TIP3   OH251376   2.395   0.698   4.425 -0.6118 -0.1460  0.7378
 9962TIP3    H151377   2.454   0.655   4.363 -0.6320 -0.4612  0.9304
 9962TIP3    H251378   2.343   0.758   4.372  0.1916  0.4742  0.6359
 9963TIP3   OH251379   1.578   4.086  12.326  0.3321 -0.1037  0.4110
 9963TIP3    H151380   1.595   4.030  12.402  0.0957 -1.3194 -0.4022
 9963TIP3    H251381   1.661   4.086  12.277  0.2097 -0.0510  0.2033
 9964TIP3   OH251382   4.590   2.598   3.189 -0.1457  0.3850 -0.9936
 9964TIP3    H151383   4.670   2.587   3.137 -0.1524 -1.5066 -0.6700
 9964TIP3    H251384   4.527   2.635   3.128  0.9830  2.0734 -1.2132
 9965TIP3   OH251385   6.293   3.061   2.759 -0.6498 -0.2458 -0.3212
 9965TIP3    H151386   6.231   3.085   2.828  0.4525  1.4243  0.1641
 9965TIP3    H251387   6.364   3.126   2.767 -0.2309 -0.3153 -2.6812
 9966TIP3   OH251388   4.544   5.778   0.499  0.1969  0.6572 -0.4607
 9966TIP3    H151389   4.456   5.799   0.527  0.0044  1.1780 -1.4065
 9966TIP3    H251390   4.552   5.817   0.412  1.1560  0.1118 -0.6396
 9967TIP3   OH251391   0.587   1.802   2.424 -0.2002  0.6146 -0.0005
 9967TIP3    H151392   0.682   1.799   2.435 -0.3729 -0.6049  1.4648
 9967TIP3    H251393   0.552   1.768   2.506 -1.9140  0.8111 -0.6041
 9968TIP3   OH251394   2.368   3.500   2.721 -0.0611  0.2015 -0.3973
 9968TIP3    H151395   2.313   3.428   2.690 -1.8875  1.4180 -0.0941
 9968TIP3    H251396   2.358   3.569   2.656  0.4919  0.7456  0.0728
 9969TIP3   OH251397   0.482   6.579   6.466 -0.6256 -0.6363 -0.0232
 9969TIP3    H151398   0.520   6.503   6.509 -2.0645 -0.8963  0.8398
 9969TIP3    H251399   0.409   6.604   6.522  0.0485  1.6393 -0.0660
 9970TIP3   OH251400   4.979   5.600   0.025  0.1598 -0.4401  0.4509
 9970TIP3    H151401   4.940   5.576  -0.059 -1.4962 -1.0810  1.3602
 9970TIP3    H251402   5.066   5.558   0.024 -0.2108 -1.2346 -0.5499
 9971TIP3   OH251403   0.292   5.223   3.351  0.2518 -0.1837  0.7017
 9971TIP3    H151404   0.386   5.206   3.349  0.3124 -0.0554  1.7464
 9971TIP3    H251405   0.254   5.145   3.392 -0.1216 -0.2969  0.1554
 9972TIP3   OH251406   6.685   3.490   2.768  0.0241  0.4186 -0.5096
 9972TIP3    H151407   6.719   3.511   2.855 -1.1704 -0.1870  0.1327
 9972TIP3    H251408   6.761   3.460   2.719  0.8091  1.2440  0.1665
 9973TIP3   OH251409   3.504   2.881  16.066 -0.3041 -0.1020 -0.5012
 9973TIP3    H151410   3.440   2.838  16.011 -1.3882  1.4687 -0.5280
 9973TIP3    H251411   3.578   2.899  16.008  0.7314 -2.9493 -0.2060
 9974TIP3   OH251412   5.337   1.014  16.191 -0.3331 -0.6977 -0.1397
 9974TIP3    H151413   5.381   0.993  16.108  0.8842 -1.3642  0.6477
 9974TIP3    H251414   5.360   0.941  16.249  0.3860  0.6643  1.3643
 9975TIP3   OH251415   1.531   0.772   5.711 -0.3543 -0.3253 -0.4603
 9975TIP3    H151416   1.441   0.793   5.735 -0.1573 -1.9557  2.1111
 9975TIP3    H251417   1.585   0.832   5.761  0.0118 -0.7846 -0.2911
 9976TIP3   OH251418   1.443   1.961   2.194 -0.1617  0.1717  0.0952
 9976TIP3    H151419   1.498   1.882   2.190  0.2701  0.3550  1.7660
 9976TIP3    H251420   1.412   1.973   2.104 -0.6564 -2.1926 -0.1160
 9977TIP3   OH251421   1.868   5.123  11.800  0.0030  0.0811  0.8583
 9977TIP3    H151422   1.901   5.036  11.779 -0.9907 -0.6820  2.3865
 9977TIP3    H251423   1.809   5.144  11.727  0.8805 -0.1355  0.0553
 9978TIP3   OH251424   2.991   2.171   4.407 -0.1840  0.2832 -0.0174
 9978TIP3    H151425   2.901   2.163   4.375 -0.9712  4.6223  0.5697
 9978TIP3    H251426   2.989   2.130   4.494 -0.8404 -1.8384 -0.9504
 9979TIP3   OH251427   2.047   0.703  16.939  0.1485 -0.0094  0.3781
 9979TIP3    H151428   2.097   0.725  17.017  1.0637 -1.4201  0.2254
 9979TIP3    H251429   2.033   0.608  16.944 -0.2011 -0.0528 -0.9102
 9980TIP3   OH251430   0.034   1.515  14.663  0.0533 -0.1004 -0.6383
 9980TIP3    H151431  -0.060   1.507  14.647 -0.1617  0.5618  0.2550
 9980TIP3    H251432   0.041   1.563  14.745  1.1445 -1.6211  0.2194
 9981TIP3   OH251433   3.810   1.931   3.799  0.5018  0.1164 -0.0570
 9981TIP3    H151434   3.896   1.938   3.839  0.1219 -0.5826  0.9363
 9981TIP3    H251435   3.756   1.995   3.846 -0.0253 -0.9301  0.8297
 9982TIP3   OH251436   0.743   4.376  16.140  0.5723 -0.0118 -0.4340
 9982TIP3    H151437   0.652   4.359  16.116  0.7012 -1.2172 -0.1231
 9982TIP3    H251438   0.774   4.293  16.177  1.1046  1.0269  1.6348
 9983TIP3   OH251439   3.168   1.328   3.012 -0.4566 -0.4724  0.7664
 9983TIP3    H151440   3.197   1.307   2.923 -0.9470  0.5733  0.3487
 9983TIP3    H251441   3.200   1.416   3.028 -1.8246  0.0097  0.9793
 9984TIP3   OH251442   3.824   4.841   1.454  0.0040 -0.5292 -0.0680
 9984TIP3    H151443   3.908   4.871   1.488  0.4671 -0.6645 -1.0831
 9984TIP3    H251444   3.763   4.855   1.527  0.1965  2.6789 -0.3856
 9985TIP3   OH251445   5.759   2.094   6.335  0.0699  0.2039  0.0620
 9985TIP3    H151446   5.683   2.047   6.368  0.8110 -1.2311 -0.1826
 9985TIP3    H251447   5.776   2.055   6.249  1.5643 -0.1087  0.4651
 9986TIP3   OH251448   5.800   2.956  15.749  0.2195  0.5851 -0.1397
 9986TIP3    H151449   5.885   2.933  15.786  0.7420  1.1686 -0.9218
 9986TIP3    H251450   5.821   2.987  15.660 -1.1099 -2.3748 -1.6281
 9987TIP3   OH251451   3.645   2.312   3.289  0.4627 -0.1328  0.0535
 9987TIP3    H151452   3.729   2.276   3.318  0.1664 -0.7845  0.1231
 9987TIP3    H251453   3.588   2.235   3.277 -0.3984  0.3514  0.8840
 9988TIP3   OH251454   1.045   6.716   3.112  0.0976  0.6723  0.2565
 9988TIP3    H151455   0.984   6.665   3.060  0.5286  0.5814 -0.1667
 9988TIP3    H251456   0.998   6.734   3.193  0.6343 -2.1700  1.3252
 9989TIP3   OH251457   5.038   6.395   5.395 -0.5672  0.0260  0.1808
 9989TIP3    H151458   5.121   6.427   5.360 -1.0957 -0.0404 -1.1733
 9989TIP3    H251459   5.047   6.406   5.490  0.4538  1.2999 -0.0293
 9990TIP3   OH251460   1.393   4.746  11.649 -0.2113 -0.1799 -0.5301
 9990TIP3    H151461   1.405   4.689  11.725  0.6368  0.3103 -0.2918
 9990TIP3    H251462   1.351   4.690  11.584  0.1032 -0.9202 -0.1035
 9991TIP3   OH251463   6.651   3.065   2.587  0.6103 -0.1386 -0.5581
 9991TIP3    H151464   6.667   3.080   2.494  2.6746  1.1483 -0.0680
 9991TIP3    H251465   6.702   2.986   2.608  1.7406  0.6751 -0.1576
 9992TIP3   OH251466   5.649   2.153  12.287 -0.1650  0.4266 -0.0603
 9992TIP3    H151467   5.667   2.071  12.241  2.0117 -0.0373  1.4495
 9992TIP3    H251468   5.603   2.126  12.367 -0.4012  0.8036 -0.0678
 9993TIP3   OH251469   3.322   3.044   5.359  0.3990  0.3398 -0.0781
 9993TIP3    H151470   3.299   3.136   5.374  1.3572  0.7193 -0.8307
 9993TIP3    H251471   3.240   3.004   5.329 -0.4365  0.5490  1.7742
 9994TIP3   OH251472   4.970   3.040  15.761  0.0028 -0.4657  0.4365
 9994TIP3    H151473   4.969   3.135  15.768 -0.1616 -0.0949 -2.8629
 9994TIP3    H251474   4.885   3.012  15.797  0.3331  0.5027  2.0659
 9995TIP3   OH251475   4.302   4.216  14.785 -0.3883 -0.0913 -0.0272
 9995TIP3    H151476   4.268   4.151  14.847  1.0295 -0.2001  0.6968
 9995TIP3    H251477   4.374   4.170  14.741 -1.3021  0.0207 -1.7096
 9996TIP3   OH251478   1.127   0.234  15.072 -0.6436  0.2293  0.3155
 9996TIP3    H151479   1.205   0.199  15.029 -0.5479  0.7907  0.0280
 9996TIP3    H251480   1.148   0.234  15.165 -0.3329  0.2996  0.2453
 9997TIP3   OH251481   3.229   0.905   1.527 -0.1110  0.5811  0.4041
 9997TIP3    H151482   3.290   0.969   1.563  1.0197 -0.3718  0.2327
 9997TIP3    H251483   3.147   0.954   1.515  1.3205  2.6060 -1.8581
 9998TIP3   OH251484   6.591   6.564   1.883 -0.0070 -0.1058 -0.3016
 9998TIP3    H151485   6.588   6.644   1.830 -2.7769  1.0088  1.3039
 9998TIP3    H251486   6.539   6.500   1.834 -1.4238  0.4978  0.3586
 9999TIP3   OH251487   1.322   2.798   4.285 -0.8686 -0.4135  0.0867
 9999TIP3    H151488   1.246   2.795   4.342 -1.1748  1.1701 -0.1826
 9999TIP3    H251489   1.395   2.817   4.344 -0.2756 -3.7046  0.6250
10000TIP3   OH251490   3.050   1.114  12.923  0.5920  0.6431  0.4266
10000TIP3    H151491   3.126   1.094  12.868 -0.2441  0.7159 -0.7925
10000TIP3    H251492   3.066   1.067  13.005  1.3812 -0.3172 -0.2639
10001TIP3   OH251493   1.980   5.058  16.263 -0.0049 -0.5421  0.3239
10001TIP3    H151494   2.062   5.081  16.306  1.6577 -2.4263 -1.5696
10001TIP3    H251495   1.940   4.992  16.320  0.3698 -0.4328  0.7139
10002TIP3   OH251496   2.962   3.768  11.334  1.1857  0.3702  0.2399
10002TIP3    H151497   2.891   3.718  11.296  0.5890  0.3618  1.3340
10002TIP3    H251498   3.027   3.775  11.264 -0.1424  0.9115 -0.9743
10003TIP3   OH251499   5.951   4.266  17.031  0.3410  0.0721 -0.0888
10003TIP3    H151500   5.899   4.208  17.087 -0.0550  1.0737  0.6028
10003TIP3    H251501   5.942   4.353  17.071  2.3397  0.3325 -0.0878
10004TIP3   OH251502   3.064   6.449   3.817 -0.6626 -0.9862 -0.1353
10004TIP3    H151503   3.136   6.472   3.758 -0.7924  3.4555  1.0926
10004TIP3    H251504   3.107   6.433   3.901 -0.9268 -1.0348 -0.0111
10005TIP3   OH251505   0.907   0.253  16.253 -0.3597  0.1482 -0.4776
10005TIP3    H151506   0.862   0.176  16.286  0.1328 -0.2668 -0.7471
10005TIP3    H251507   0.889   0.322  16.317 -0.3321 -0.3442  0.0646
10006TIP3   OH251508   2.564   5.088   5.690 -1.1401 -0.0635 -0.7195
10006TIP3    H151509   2.527   5.174   5.670 -1.0036  0.2066  0.1620
10006TIP3    H251510   2.583   5.050   5.604  1.5344  1.9678 -1.1550
10007TIP3   OH251511   2.348   5.008   3.886 -0.6385  0.7503 -0.0615
10007TIP3    H151512   2.405   5.030   3.960  1.7953 -0.0869 -1.5714
10007TIP3    H251513   2.375   5.067   3.816 -0.4325 -0.7829 -1.3227
10008TIP3   OH251514   4.146   5.136   5.498 -0.3905  0.0546  0.1559
10008TIP3    H151515   4.170   5.174   5.413  0.1751  0.6251  0.5542
10008TIP3    H251516   4.050   5.129   5.495 -0.4407  0.7599 -0.2552
10009TIP3   OH251517   1.156   6.256  12.852  0.4712  0.3808  0.5168
10009TIP3    H151518   1.125   6.248  12.942  0.8486  1.4116  0.7629
10009TIP3    H251519   1.089   6.213  12.799  1.1719 -1.9314  1.4088
10010TIP3   OH251520   1.616   5.975  13.973  0.0271 -0.9224  0.6984
10010TIP3    H151521   1.552   5.990  13.904 -1.3847 -0.0817  2.1305
10010TIP3    H251522   1.690   5.935  13.928 -0.8494 -0.4495 -1.2796
10011TIP3   OH251523   2.529   6.469   0.935 -0.0438 -0.2606  0.4242
10011TIP3    H151524   2.566   6.398   0.883  0.0379  0.0091  0.1048
10011TIP3    H251525   2.585   6.474   1.013  0.7147  0.2538 -0.1340
10012TIP3   OH251526   5.038   1.252  14.305  0.3715  0.1378  0.2716
10012TIP3    H151527   4.950   1.216  14.297  0.2862  0.3008  0.4544
10012TIP3    H251528   5.045   1.314  14.232  1.1155 -1.4426 -1.0575
10013TIP3   OH251529   0.298   0.762  15.242  0.6003  0.2100  0.6126
10013TIP3    H151530   0.315   0.682  15.193  0.7641  0.1189  0.8165
10013TIP3    H251531   0.318   0.740  15.333 -0.8022  0.0340  0.9100
10014TIP3   OH251532   3.088   3.287  11.515  0.5115 -0.2349  0.1966
10014TIP3    H151533   2.994   3.300  11.500  0.2235  0.5370  2.3429
10014TIP3    H251534   3.128   3.368  11.484  0.2615  0.1095  0.7454
10015TIP3   OH251535   1.672   6.128   0.457 -0.8557  0.3194 -0.0745
10015TIP3    H151536   1.751   6.165   0.497 -1.0023 -1.0236  1.5618
10015TIP3    H251537   1.686   6.033   0.460 -2.7421  0.0374  0.7528
10016TIP3   OH251538   5.937   3.532   6.578 -0.1508 -0.1157  0.5143
10016TIP3    H151539   5.987   3.521   6.497 -0.2430  1.6296  0.1795
10016TIP3    H251540   5.934   3.444   6.616 -1.9371 -1.4585 -2.4148
10017TIP3   OH251541   4.418   3.776   0.962 -0.0681 -0.1393 -0.5128
10017TIP3    H151542   4.372   3.702   1.000 -0.1517  0.2625  0.1753
10017TIP3    H251543   4.373   3.793   0.879 -3.6760  2.5953  1.7356
10018TIP3   OH251544   6.751   1.444   2.495 -0.9450 -0.3930 -0.6372
10018TIP3    H151545   6.758   1.349   2.492 -2.1690 -0.5445  0.5165
10018TIP3    H251546   6.841   1.475   2.481 -0.4202 -1.7323 -0.3721
10019TIP3   OH251547   4.268   1.504  17.264  0.7360 -0.2768 -0.2785
10019TIP3    H151548   4.234   1.472  17.180  0.0628  0.9642 -0.5068
10019TIP3    H251549   4.280   1.425  17.316 -0.9517 -0.9163 -0.7800
10020TIP3   OH251550   2.938   3.338  16.115 -0.2262 -0.1054 -0.2100
10020TIP3    H151551   2.954   3.419  16.163 -1.0483  0.4945 -0.9017
10020TIP3    H251552   2.973   3.354  16.028 -0.6680 -0.3724 -0.4424
10021TIP3   OH251553   1.754   0.967  16.698 -0.5068 -0.5158  0.4723
10021TIP3    H151554   1.664   0.949  16.722 -0.1482 -1.6391  1.0110
10021TIP3    H251555   1.799   0.883  16.704  0.1942 -0.3467 -1.5608
10022TIP3   OH251556   2.249   0.407   0.527 -0.0169  0.4160 -0.2800
10022TIP3    H151557   2.312   0.371   0.590  0.7090  0.5498 -0.9143
10022TIP3    H251558   2.188   0.335   0.511  0.8006 -0.2015 -0.7292
10023TIP3   OH251559   1.523   1.117   3.188  0.2506  0.3145  0.0535
10023TIP3    H151560   1.463   1.053   3.228  0.6012 -0.2939 -0.3739
10023TIP3    H251561   1.494   1.201   3.222 -1.0202  0.0646 -0.3495
10024TIP3   OH251562   2.271   1.346   0.732  0.2216 -0.6483  0.0365
10024TIP3    H151563   2.268   1.328   0.638 -1.1717  0.4022 -0.1630
10024TIP3    H251564   2.180   1.336   0.761  0.5677 -0.5654  1.1829
10025TIP3   OH251565   6.005   5.216  13.259  0.2513  0.1411  0.0952
10025TIP3    H151566   6.007   5.289  13.322  1.4170  0.4838 -0.3098
10025TIP3    H251567   5.924   5.170  13.279  0.7058  0.0853  2.0352
10026TIP3   OH251568   3.306   3.409   3.865  0.2343  0.0256 -0.1440
10026TIP3    H151569   3.369   3.403   3.793 -0.8555  0.5611 -1.1666
10026TIP3    H251570   3.231   3.359   3.836 -0.9220  1.6774 -0.1580
10027TIP3   OH251571   5.213   6.760  12.220  0.0792 -0.0767  0.0350
10027TIP3    H151572   5.137   6.757  12.161  1.4680  0.4353 -1.9017
10027TIP3    H251573   5.278   6.811  12.171  1.9110 -1.0670  1.3417
10028TIP3   OH251574   5.688   5.681  11.972  0.1985 -0.5532  0.5603
10028TIP3    H151575   5.714   5.661  11.882 -0.8876 -2.6052  0.6616
10028TIP3    H251576   5.765   5.659  12.025  0.5772 -0.0563  0.2311
10029TIP3   OH251577   3.311   3.838   1.966  0.1074  0.4315  0.4116
10029TIP3    H151578   3.322   3.772   1.897 -0.0014 -0.4185  1.1940
10029TIP3    H251579   3.296   3.919   1.918  1.1090  0.0597 -0.5904
10030TIP3   OH251580   5.948   4.875  13.302 -0.3693  0.5940  0.1922
10030TIP3    H151581   5.874   4.816  13.293 -0.8106  1.1104  0.3779
10030TIP3    H251582   6.010   4.846  13.235 -0.8189  0.2815 -0.0959
10031TIP3   OH251583   3.618   1.394  11.596  0.2913 -0.4499 -0.1677
10031TIP3    H151584   3.607   1.489  11.603  0.5070 -0.4664  0.4724
10031TIP3    H251585   3.553   1.359  11.657  0.3561 -0.7073 -0.2499
10032TIP3   OH251586   5.670   6.129   3.473 -0.1142  0.3292 -0.2297
10032TIP3    H151587   5.736   6.070   3.437 -1.6419  0.1646 -3.0009
10032TIP3    H251588   5.709   6.216   3.463  0.7880  0.0707  0.8075
10033TIP3   OH251589   4.188   3.623   6.358 -0.8213 -0.4919 -0.4458
10033TIP3    H151590   4.166   3.554   6.421  0.9191 -0.2109  0.5501
10033TIP3    H251591   4.284   3.621   6.354 -0.8654 -0.1015 -2.6685
10034TIP3   OH251592   2.631   5.140  11.707 -0.7130  0.3051 -0.5859
10034TIP3    H151593   2.676   5.144  11.792 -0.1080  0.3134 -0.8991
10034TIP3    H251594   2.674   5.208  11.654  0.5117 -1.2156 -1.6349
10035TIP3   OH251595   2.722   6.173   4.553 -0.6304 -0.7132 -0.3197
10035TIP3    H151596   2.761   6.087   4.570  0.4078  0.0116  1.2059
10035TIP3    H251597   2.796   6.234   4.560 -0.9281  0.1690 -3.4047
10036TIP3   OH251598   3.758   2.522  13.359 -0.3338 -0.1697 -0.0596
10036TIP3    H151599   3.838   2.481  13.394  1.0648  0.9207 -1.8331
10036TIP3    H251600   3.771   2.616  13.373 -1.7087 -0.0138  0.3442
10037TIP3   OH251601   4.332   2.347  17.258  0.2630 -0.4384 -0.0523
10037TIP3    H151602   4.332   2.252  17.271 -0.4028 -0.4988 -0.4486
10037TIP3    H251603   4.423   2.368  17.235  1.1402 -0.5525  2.9292
10038TIP3   OH251604   1.557   3.138   0.593  0.3144  0.0046 -0.0807
10038TIP3    H151605   1.539   3.176   0.507  1.5750  1.4604  0.2406
10038TIP3    H251606   1.631   3.079   0.577  1.3365  1.1689  0.1531
10039TIP3   OH251607   0.607   1.744  11.406  0.3145 -0.1242  0.7244
10039TIP3    H151608   0.684   1.691  11.387  0.4376  0.5486 -0.8335
10039TIP3    H251609   0.558   1.694  11.472  1.0585 -1.5333  0.2450
10040TIP3   OH251610   0.246   4.940   0.427  0.2395  0.4967 -0.4977
10040TIP3    H151611   0.337   4.925   0.453 -0.3401  0.4441  1.6819
10040TIP3    H251612   0.240   5.034   0.412  0.5483  0.5625 -0.2115
10041TIP3   OH251613   0.100   5.583   0.788  0.1293 -0.3464  0.0590
10041TIP3    H151614   0.051   5.608   0.866  0.8692 -1.0636  0.7717
10041TIP3    H251615   0.063   5.498   0.763  1.0303 -0.9410  0.6601
10042TIP3   OH251616   3.611   3.902  13.353  0.5559 -0.7114 -0.3156
10042TIP3    H151617   3.610   3.895  13.449 -1.1483  0.7153 -0.1579
10042TIP3    H251618   3.605   3.812  13.322  3.2823 -1.3752  0.8398
10043TIP3   OH251619   4.308   1.219  16.027  0.9646  0.4856 -0.7939
10043TIP3    H151620   4.368   1.146  16.013 -0.0830 -1.2735  2.7677
10043TIP3    H251621   4.347   1.268  16.100 -1.1298  0.0305  0.7300
10044TIP3   OH251622   0.362   4.760   4.986  0.1263  0.3146 -0.0262
10044TIP3    H151623   0.355   4.761   4.891 -0.4294  0.4642  0.0124
10044TIP3    H251624   0.387   4.849   5.010 -0.6894  0.5285  0.0333
10045TIP3   OH251625   3.236   5.531  17.109 -0.4188 -0.0642  0.1514
10045TIP3    H151626   3.191   5.611  17.135  0.4481  1.0252 -1.5370
10045TIP3    H251627   3.328   5.557  17.099 -0.1945 -1.1641 -0.8119
10046TIP3   OH251628   1.147   2.334  15.371 -0.2660  0.1055 -0.5523
10046TIP3    H151629   1.220   2.311  15.428 -0.2934 -0.7500 -0.8612
10046TIP3    H251630   1.073   2.282  15.403 -0.6984  0.8139 -0.3677
10047TIP3   OH251631   3.075   0.509  13.163  0.1046  0.4407  0.4680
10047TIP3    H151632   3.137   0.481  13.096 -0.0191  0.7643  0.2190
10047TIP3    H251633   3.122   0.497  13.246  1.1645  2.3514  0.1885
10048TIP3   OH251634   6.099   2.075  11.990 -0.1629  0.5898  0.5338
10048TIP3    H151635   6.071   2.104  12.077 -1.5442 -3.9610  1.8683
10048TIP3    H251636   6.017   2.060  11.942  0.2308 -2.6000  0.6639
10049TIP3   OH251637   4.023   2.213   4.766  0.3040  0.6794  0.0807
10049TIP3    H151638   3.996   2.227   4.675  0.6353 -2.6865 -0.6637
10049TIP3    H251639   3.941   2.192   4.811  0.2622  1.4881  0.4001
10050TIP3   OH251640   6.646   0.999  11.820  0.5337  0.1194  0.3304
10050TIP3    H151641   6.587   0.931  11.789  0.7504  0.3584 -0.6309
10050TIP3    H251642   6.629   1.074  11.763 -0.2202  1.1337  1.8275
10051TIP3   OH251643   3.328   3.790  17.054 -0.6732  0.5971  0.6140
10051TIP3    H151644   3.354   3.711  17.007 -0.7637  0.7639  0.2835
10051TIP3    H251645   3.405   3.814  17.106 -0.7542  0.1077  0.9667
10052TIP3   OH251646   1.722   1.674  17.175  0.2084  0.0956 -0.2167
10052TIP3    H151647   1.765   1.710  17.252  1.6734  1.4003 -1.5703
10052TIP3    H251648   1.778   1.602  17.147 -0.5487 -0.6575  0.1584
10053TIP3   OH251649   5.881   0.393  16.475 -0.3341  0.4325 -0.4139
10053TIP3    H151650   5.957   0.335  16.482  0.4017  1.3594 -0.5551
10053TIP3    H251651   5.813   0.338  16.436  0.3872 -0.2996 -0.6688
10054TIP3   OH251652   6.164   0.664  16.641  0.2336  0.3239  0.1704
10054TIP3    H151653   6.199   0.584  16.601 -4.0014 -0.8242 -1.7490
10054TIP3    H251654   6.208   0.735  16.593  0.6596 -0.9393 -1.4022
10055TIP3   OH251655   4.432   5.478   2.407 -0.0333 -0.3904 -0.0656
10055TIP3    H151656   4.368   5.549   2.398  1.2613  0.7082 -1.1841
10055TIP3    H251657   4.487   5.505   2.481  0.3719 -0.2826 -0.4014
10056TIP3   OH251658   4.758   2.777  15.585 -0.0651  0.2198 -0.1099
10056TIP3    H151659   4.747   2.688  15.618 -0.2191  0.2803  0.0033
10056TIP3    H251660   4.673   2.800  15.549 -0.0702  0.3814  0.0063
10057TIP3   OH251661   3.962   2.310   4.494  0.0407  0.0121  0.2227
10057TIP3    H151662   3.954   2.293   4.400 -0.3040  1.9399 -0.1455
10057TIP3    H251663   4.055   2.329   4.507 -0.0937  0.8410  0.0390
10058TIP3   OH251664   1.644   0.754   2.076  0.4079 -0.2867 -0.0370
10058TIP3    H151665   1.566   0.703   2.055  0.7736 -1.3290  0.9812
10058TIP3    H251666   1.659   0.737   2.169  0.9265  1.1927  0.1698
10059TIP3   OH251667   3.071   3.638   0.410  0.7919  0.3705 -0.6200
10059TIP3    H151668   3.136   3.570   0.396  0.7959  0.2832 -0.1942
10059TIP3    H251669   3.008   3.627   0.339  0.9975  0.1668 -0.7697
10060TIP3   OH251670   3.430   5.852  11.375  0.0740  0.8438  0.4352
10060TIP3    H151671   3.519   5.859  11.409  1.0796 -0.5761 -1.6670
10060TIP3    H251672   3.437   5.883  11.285 -1.4948  0.4126  0.1444
10061TIP3   OH251673   1.418   1.400  15.707 -0.1124  0.0789 -0.1287
10061TIP3    H151674   1.431   1.361  15.793  0.1831 -1.4411 -0.8272
10061TIP3    H251675   1.506   1.402  15.668 -0.2899  0.4431 -0.5215
10062TIP3   OH251676   5.851   4.442   1.254 -0.6695 -0.5379  0.3673
10062TIP3    H151677   5.840   4.514   1.316  0.7188 -0.4845  0.5956
10062TIP3    H251678   5.781   4.453   1.191 -1.0228  0.4813  0.9144
10063TIP3   OH251679   3.594   2.124   1.851 -0.3626 -1.0388  0.0067
10063TIP3    H151680   3.554   2.210   1.836 -0.9394 -1.4751 -1.0098
10063TIP3    H251681   3.585   2.078   1.768  0.3233 -1.9424  0.4131
10064TIP3   OH251682   1.478   2.116  12.577  0.6348 -0.7373 -0.0996
10064TIP3    H151683   1.432   2.036  12.601 -3.7969  0.9632 -1.9246
10064TIP3    H251684   1.514   2.098  12.490  0.4543 -1.0233 -0.1145
10065TIP3   OH251685   4.381   6.359   3.598  0.2263  0.3593  0.0056
10065TIP3    H151686   4.467   6.368   3.556  0.7801  0.7304  1.1524
10065TIP3    H251687   4.329   6.431   3.563  1.1486  1.5603  0.9981
10066TIP3   OH251688   5.999   3.525   2.320  0.2922 -0.5680  0.3193
10066TIP3    H151689   6.023   3.552   2.231  0.6670 -0.0374  0.5748
10066TIP3    H251690   5.924   3.580   2.343  0.8347  0.0223  0.7085
10067TIP3   OH251691   3.185   5.742  16.913 -0.2651 -0.1003  0.1101
10067TIP3    H151692   3.263   5.719  16.963  0.1335  1.2699  0.1492
10067TIP3    H251693   3.139   5.805  16.969  0.7463  2.3262 -1.6247
10068TIP3   OH251694   5.362   0.782  16.370  0.2858 -0.3470 -1.0757
10068TIP3    H151695   5.373   0.700  16.321 -0.1148 -1.7717  1.0676
10068TIP3    H251696   5.267   0.799  16.367 -0.1226 -1.7738  1.0542
10069TIP3   OH251697   4.419   5.254   4.721 -0.1804  0.2119 -0.6723
10069TIP3    H151698   4.417   5.349   4.735 -0.7242 -0.0801  1.7600
10069TIP3    H251699   4.512   5.233   4.713 -0.0278  0.9160 -0.8252
10070TIP3   OH251700   3.646   2.295   6.825  0.0595  0.4456  0.1164
10070TIP3    H151701   3.614   2.301   6.735  0.7023  0.7107 -0.0994
10070TIP3    H251702   3.630   2.204   6.850 -1.2645  0.6720  0.1763
10071TIP3   OH251703   1.141   3.968   3.292 -0.2401  0.1366 -0.2206
10071TIP3    H151704   1.181   3.903   3.234  0.2601 -0.6720  1.0013
10071TIP3    H251705   1.162   3.938   3.380  1.9821  3.1909  0.4182
10072TIP3   OH251706   6.429   5.307   0.716  0.1913  0.4638 -0.0090
10072TIP3    H151707   6.494   5.370   0.749 -0.0770  0.4497  0.5595
10072TIP3    H251708   6.408   5.339   0.628  2.4288 -0.6359 -1.0431
10073TIP3   OH251709   1.334   6.290   4.814 -0.0529  0.2417  0.0478
10073TIP3    H151710   1.388   6.357   4.855 -0.1893 -0.6719  1.8037
10073TIP3    H251711   1.396   6.233   4.768  0.1815  0.8185 -0.3572
10074TIP3   OH251712   1.285   3.895  12.402  0.4402  0.0790 -0.5068
10074TIP3    H151713   1.328   3.818  12.366  1.6668  0.7954 -0.6388
10074TIP3    H251714   1.277   3.955  12.327 -2.8154 -0.8306 -1.0176
10075TIP3   OH251715   1.662   3.158   2.054 -0.1838  0.0744  0.8073
10075TIP3    H151716   1.672   3.177   1.961  1.2066  0.1271  0.9393
10075TIP3    H251717   1.619   3.235   2.090 -0.5597  0.1333  0.2480
10076TIP3   OH251718   0.512   2.980   4.138  0.0192 -0.1834 -0.0553
10076TIP3    H151719   0.506   2.951   4.047  0.6843 -0.7128  0.0587
10076TIP3    H251720   0.549   3.069   4.132 -0.9686  0.2251 -0.3476
10077TIP3   OH251721   6.340   2.222   2.054 -0.3881  0.4247 -0.7446
10077TIP3    H151722   6.371   2.150   2.109 -2.8242 -1.6059 -1.8028
10077TIP3    H251723   6.365   2.197   1.965 -3.6827 -0.7678 -1.5001
10078TIP3   OH251724   4.580   5.529  13.344 -0.5952 -0.2049 -0.0554
10078TIP3    H151725   4.551   5.448  13.386 -0.2505  0.4654  1.5542
10078TIP3    H251726   4.599   5.588  13.417 -2.1943  1.8212 -1.1913
10079TIP3   OH251727   3.181   5.742   1.259  0.2403 -0.4127 -0.2035
10079TIP3    H151728   3.183   5.801   1.334 -1.4209 -0.8219  0.2098
10079TIP3    H251729   3.110   5.775   1.204  1.2017 -0.3305 -1.4404
10080TIP3   OH251730   1.250   0.193  13.756  0.3453  0.0290 -0.8632
10080TIP3    H151731   1.202   0.198  13.838 -0.3279 -3.4046 -0.8966
10080TIP3    H251732   1.334   0.153  13.779  0.4678 -0.2375 -1.7283
10081TIP3   OH251733   1.697   4.652   4.254 -0.4626 -0.3793  0.3604
10081TIP3    H151734   1.759   4.585   4.284  1.3570 -0.1357 -2.4276
10081TIP3    H251735   1.619   4.602   4.230 -0.0400 -1.1887  0.5908
10082TIP3   OH251736   1.260   0.217   0.062  0.5238  0.1795  0.1591
10082TIP3    H151737   1.210   0.172   0.131 -1.1760  1.8491  0.0885
10082TIP3    H251738   1.319   0.275   0.109  1.3928 -0.7161  0.2129
10083TIP3   OH251739   6.055   4.727  11.523 -0.1187 -0.2902  0.4667
10083TIP3    H151740   6.140   4.731  11.568 -1.3983 -0.0538  3.0635
10083TIP3    H251741   6.056   4.644  11.476  1.6357 -0.1658  0.2333
10084TIP3   OH251742   4.909   2.829   5.708  0.4110 -0.4057 -0.0629
10084TIP3    H151743   4.844   2.822   5.779  0.7961  0.0098  0.3406
10084TIP3    H251744   4.879   2.905   5.657  0.3184 -0.5016 -0.1509
10085TIP3   OH251745   2.578   6.416  16.786 -0.1734  0.2731 -0.1588
10085TIP3    H151746   2.561   6.325  16.762 -0.0998 -0.5275  2.5882
10085TIP3    H251747   2.494   6.460  16.773 -0.5723 -0.4846 -0.1879
10086TIP3   OH251748   5.770   6.653   5.534 -0.2903 -0.2554  0.4029
10086TIP3    H151749   5.812   6.732   5.500  0.4823 -0.7687  0.1351
10086TIP3    H251750   5.794   6.651   5.627 -0.4106 -0.1198  0.4385
10087TIP3   OH251751   3.594   0.551   0.333 -0.4264 -0.5992  0.7055
10087TIP3    H151752   3.676   0.580   0.374 -0.9145  1.9007  0.0924
10087TIP3    H251753   3.560   0.484   0.392  2.1526 -1.9119  0.8411
10088TIP3   OH251754   2.135   2.909   4.421  0.5919 -0.6076 -0.5275
10088TIP3    H151755   2.199   2.974   4.392 -0.3827 -0.1968 -1.8668
10088TIP3    H251756   2.153   2.833   4.366 -0.7902 -0.0837 -1.7571
10089TIP3   OH251757   1.961   2.952  14.695  0.7478 -0.0391  0.4884
10089TIP3    H151758   2.029   2.946  14.762  1.8274  1.0471 -0.4590
10089TIP3    H251759   1.993   3.018  14.634 -0.6480 -0.3106 -0.5979
10090TIP3   OH251760   2.923   4.236  15.337 -0.1766  0.0650 -0.2145
10090TIP3    H151761   2.953   4.269  15.422 -2.1862 -0.1039  0.6105
10090TIP3    H251762   2.938   4.309  15.277  2.1796 -0.1478  0.0282
10091TIP3   OH251763   4.984   6.239   1.892 -0.0251  0.4056  0.0709
10091TIP3    H151764   5.018   6.192   1.968  2.3110  0.3120 -0.9595
10091TIP3    H251765   4.903   6.193   1.869 -0.1847 -0.2357  1.8017
10092TIP3   OH251766   6.346   2.772   1.189  0.1416  1.0416  0.1037
10092TIP3    H151767   6.415   2.838   1.199  1.6033 -0.5689  1.0283
10092TIP3    H251768   6.339   2.731   1.275 -0.9339  0.1749 -0.3792
10093TIP3   OH251769   1.222   1.927  15.232 -0.6011 -0.4811  0.1253
10093TIP3    H151770   1.244   2.013  15.196 -3.1505  0.4293  0.4910
10093TIP3    H251771   1.295   1.904  15.289  0.3868  1.1905 -0.4204
10094TIP3   OH251772   2.962   2.516  14.206 -0.7739  0.2021  0.0285
10094TIP3    H151773   2.905   2.482  14.276 -0.4109  0.5541  0.5073
10094TIP3    H251774   3.006   2.591  14.246 -0.3967  0.2773 -0.5178
10095TIP3   OH251775   5.802   2.867  13.088 -0.1134  0.5390 -0.1537
10095TIP3    H151776   5.726   2.840  13.139 -1.0540  0.7197 -1.4065
10095TIP3    H251777   5.874   2.871  13.151 -0.8483 -0.8978  0.8063
10096TIP3   OH251778   0.109   1.648  13.863 -0.2055 -0.3159 -0.0739
10096TIP3    H151779   0.148   1.620  13.781 -0.3220 -1.3710  0.2102
10096TIP3    H251780   0.119   1.572  13.921 -0.7605  0.1559  0.6550
10097TIP3   OH251781   2.229   3.360  14.840 -0.2440  0.4052 -0.0904
10097TIP3    H151782   2.251   3.447  14.805 -0.6944  0.6427  0.1973
10097TIP3    H251783   2.289   3.348  14.914  1.2699 -0.4465 -1.3929
10098TIP3   OH251784   3.458   3.837  13.907 -0.1039 -0.2882  0.3231
10098TIP3    H151785   3.426   3.925  13.928  0.9310  0.0290  0.6103
10098TIP3    H251786   3.396   3.804  13.843  0.6102  1.4421 -1.3551
10099TIP3   OH251787   1.375   5.993   5.005 -0.3135 -0.2254 -0.0429
10099TIP3    H151788   1.293   6.041   5.002 -0.3225 -0.1809  0.7071
10099TIP3    H251789   1.374   5.938   4.927 -2.1439 -1.9679  1.0956
10100TIP3   OH251790   2.789   2.977  12.841 -0.5107  0.8064 -0.4213
10100TIP3    H151791   2.762   3.030  12.766 -2.0730 -0.5842 -0.8968
10100TIP3    H251792   2.813   2.892  12.803 -1.1371  0.1499  0.6154
10101TIP3   OH251793   6.156   0.963  11.306 -0.7004 -0.7179  0.5829
10101TIP3    H151794   6.114   0.989  11.224  1.6306 -0.4819 -0.6254
10101TIP3    H251795   6.101   0.891  11.339 -1.1883 -1.4670 -1.6885
10102TIP3   OH251796   3.705   4.189   2.220 -0.7279 -0.1653 -0.4374
10102TIP3    H151797   3.613   4.196   2.193 -0.7758 -0.3770 -0.3262
10102TIP3    H251798   3.726   4.276   2.254 -0.6393  0.1413 -1.2365
10103TIP3   OH251799   3.308   0.808  15.861  0.2375 -0.1940  0.1912
10103TIP3    H151800   3.288   0.849  15.777  0.8170 -0.0471  0.1214
10103TIP3    H251801   3.292   0.876  15.926  1.2953  0.1857  0.0683
10104TIP3   OH251802   3.496   0.173  15.746 -0.4573  0.5095  0.8465
10104TIP3    H151803   3.486   0.202  15.655  0.5088 -0.9869  0.2155
10104TIP3    H251804   3.496   0.254  15.797  2.1944  1.7226 -0.8148
10105TIP3   OH251805   5.113   4.191   2.088 -0.3591 -0.2167 -0.5292
10105TIP3    H151806   5.174   4.130   2.127  1.9347  0.5347 -2.6699
10105TIP3    H251807   5.150   4.211   2.002 -2.0902  2.5496 -0.7776
10106TIP3   OH251808   0.147   6.370   3.382  0.5334 -0.0527  0.1645
10106TIP3    H151809   0.110   6.418   3.456  2.3728  0.8001  0.6069
10106TIP3    H251810   0.176   6.438   3.321 -0.1069 -0.7224 -0.9296
10107TIP3   OH251811   0.144   5.198  16.977  0.0676  0.0347 -0.3822
10107TIP3    H151812   0.131   5.220  16.885 -0.5707  0.8858 -0.1006
10107TIP3    H251813   0.228   5.237  17.000  0.6932 -1.0177 -0.8509
10108TIP3   OH251814   2.174   6.671  15.707  0.0941 -0.2385  0.5495
10108TIP3    H151815   2.242   6.737  15.718  0.6415 -0.3008 -1.7667
10108TIP3    H251816   2.092   6.719  15.709  0.5438  0.8899 -2.6381
10109TIP3   OH251817   0.590   6.151   3.390 -0.1960  0.0540  0.0992
10109TIP3    H151818   0.622   6.063   3.407 -0.3002 -0.0877 -0.4210
10109TIP3    H251819   0.656   6.190   3.333 -0.0115  0.4094  0.5532
10110TIP3   OH251820   3.344   0.556   0.196 -0.2263  0.4975  0.5213
10110TIP3    H151821   3.325   0.463   0.194 -0.8705  0.6333 -0.6798
10110TIP3    H251822   3.434   0.562   0.228 -1.3307 -0.2898  4.1745
10111TIP3   OH251823   5.450   4.694   1.057 -0.4675 -0.5974  0.0177
10111TIP3    H151824   5.365   4.658   1.084 -1.3954  1.8804  0.6648
10111TIP3    H251825   5.455   4.779   1.101  0.5001  1.1613 -3.1859
10112TIP3   OH251826   4.186   6.396   0.252  0.5084 -0.4755  0.3642
10112TIP3    H151827   4.099   6.410   0.215  1.0613  2.0129 -0.2193
10112TIP3    H251828   4.187   6.448   0.332  1.3839 -0.6301  0.4633
10113TIP3   OH251829   0.797   0.002  14.334 -0.1778 -0.2152  0.3268
10113TIP3    H151830   0.781  -0.092  14.341 -0.0484 -0.2137  0.6869
10113TIP3    H251831   0.754   0.039  14.411  2.6278 -0.3636  2.1222
10114TIP3   OH251832   4.657   2.165   3.868  0.3457 -0.6992 -0.1959
10114TIP3    H151833   4.715   2.235   3.900 -0.4409 -0.0427 -0.1761
10114TIP3    H251834   4.584   2.211   3.828 -0.1119 -1.5230 -0.3294
10115TIP3   OH251835   2.048   1.658   0.355 -0.4961 -0.1526 -0.2418
10115TIP3    H151836   2.126   1.621   0.313  0.0309  0.3831  0.2578
10115TIP3    H251837   2.058   1.752   0.344 -1.6607 -0.1223 -1.1977
10116TIP3   OH251838   5.787   4.507  17.204 -0.1608  0.2857 -0.2691
10116TIP3    H151839   5.722   4.437  17.212  1.2333 -0.8710  1.7839
10116TIP3    H251840   5.741   4.585  17.235 -0.3434 -0.7194  2.2124
10117TIP3   OH251841   1.697   6.679   4.265  0.1580  0.0421  0.2843
10117TIP3    H151842   1.771   6.635   4.222  0.7956  1.6095 -0.3036
10117TIP3    H251843   1.738   6.735   4.331 -0.7285 -1.2325  1.9934
10118TIP3   OH251844   5.515   4.752   2.882  0.4394  0.2627  0.1344
10118TIP3    H151845   5.429   4.715   2.862  0.2550 -0.3018  1.8425
10118TIP3    H251846   5.497   4.821   2.946  1.3562 -0.7694  1.5520
10119TIP3   OH251847   6.060   0.923  16.852  0.3489  0.0504 -0.2847
10119TIP3    H151848   6.080   1.001  16.801  0.5749 -0.8378 -1.6187
10119TIP3    H251849   6.122   0.925  16.925 -0.1866  1.5068  0.1516
10120TIP3   OH251850   2.726   3.358   3.524 -0.3513  0.3160  0.0679
10120TIP3    H151851   2.657   3.408   3.480 -1.2705  0.2428  1.3680
10120TIP3    H251852   2.687   3.331   3.608 -0.0694 -2.8935 -0.6811
10121TIP3   OH251853   0.992   1.387  16.874 -0.1232  0.2744  1.2525
10121TIP3    H151854   1.036   1.327  16.934 -2.3814 -0.4427  2.2884
10121TIP3    H251855   0.899   1.364  16.880 -0.6600  1.4888 -1.0732
10122TIP3   OH251856   0.004   0.748  16.193  0.1840  0.2773  0.2757
10122TIP3    H151857  -0.073   0.788  16.154 -0.3906  1.0362  2.0704
10122TIP3    H251858  -0.030   0.675  16.245  0.8975 -0.5906 -0.4522
10123TIP3   OH251859   5.825   2.754   3.474 -0.1074  0.2363 -0.3763
10123TIP3    H151860   5.893   2.700   3.434  0.3065  0.6006 -0.1695
10123TIP3    H251861   5.754   2.754   3.410 -1.0496 -2.3666  0.5214
10124TIP3   OH251862   3.223   4.110   5.723 -0.1490  0.1265  0.4681
10124TIP3    H151863   3.266   4.024   5.725 -0.0855  0.1250 -0.5325
10124TIP3    H251864   3.189   4.117   5.634  0.6674  1.5489  0.2545
10125TIP3   OH251865   3.510   6.010  16.642  0.2255  0.5175  0.1945
10125TIP3    H151866   3.509   5.944  16.711 -0.2346  0.7048  0.3694
10125TIP3    H251867   3.448   5.978  16.576  0.7922  0.2514 -0.2220
10126TIP3   OH251868   4.314   3.777  11.204  0.2843 -0.2101 -0.1820
10126TIP3    H151869   4.347   3.858  11.165  0.0612 -0.3708 -0.7051
10126TIP3    H251870   4.243   3.805  11.262  0.0423 -0.0556 -0.5518
10127TIP3   OH251871   0.564   4.984   2.052  0.0501  0.7533  0.1344
10127TIP3    H151872   0.594   4.903   2.011  0.3897  1.5097 -1.1643
10127TIP3    H251873   0.589   4.975   2.144  0.2162 -0.5386 -0.0201
10128TIP3   OH251874   4.809   2.592  13.535 -0.0762  0.1616 -0.7120
10128TIP3    H151875   4.787   2.588  13.442  1.5585 -1.6266 -1.0778
10128TIP3    H251876   4.866   2.669  13.543 -1.1677  1.0171 -0.9339
10129TIP3   OH251877   3.602   6.569   5.628 -0.2190  0.3703  0.1405
10129TIP3    H151878   3.697   6.584   5.630  0.0796 -1.0621 -0.9949
10129TIP3    H251879   3.567   6.646   5.584  0.7204 -0.0977 -1.5487
10130TIP3   OH251880   0.900   3.660  16.092 -0.2102  0.0694 -0.1680
10130TIP3    H151881   0.821   3.625  16.133 -1.2378  1.5833 -0.7612
10130TIP3    H251882   0.953   3.691  16.165 -0.7256  0.1616  0.1722
10131TIP3   OH251883   3.507   2.622  13.313 -0.0853  0.4628 -0.2355
10131TIP3    H151884   3.584   2.566  13.326 -0.7443 -0.1786  1.1612
10131TIP3    H251885   3.528   2.675  13.236  1.3425 -0.3821 -0.4609
10132TIP3   OH251886   1.831   2.455   2.777 -0.3758 -0.0737 -0.1731
10132TIP3    H151887   1.893   2.529   2.771  0.0960 -0.1748  2.4322
10132TIP3    H251888   1.845   2.407   2.696  0.7022  1.6321 -1.0812
10133TIP3   OH251889   0.358   2.286   4.874 -0.1033  0.4982  0.0376
10133TIP3    H151890   0.380   2.220   4.940  1.8991 -0.9219 -1.9047
10133TIP3    H251891   0.269   2.264   4.847  0.8250 -2.1506 -1.2381
10134TIP3   OH251892   0.963   2.871  15.009  0.4298 -0.0460 -0.3189
10134TIP3    H151893   1.010   2.927  14.949  1.8468 -0.1677  0.6332
10134TIP3    H251894   1.025   2.803  15.034 -0.4186 -0.5519  0.5343
10135TIP3   OH251895   2.358   5.003  14.083 -0.3921  0.5006  0.3690
10135TIP3    H151896   2.383   5.094  14.073  1.0115  0.1004  0.1050
10135TIP3    H251897   2.278   5.006  14.136 -0.2609  1.8601  0.5246
10136TIP3   OH251898   3.540   4.140   2.636  0.0426 -0.0701 -0.1006
10136TIP3    H151899   3.537   4.210   2.701 -0.4119  0.3842 -0.6020
10136TIP3    H251900   3.454   4.143   2.593  0.0088 -0.9497 -0.1116
10137TIP3   OH251901   3.397   3.304   5.943  0.1603  0.2281 -0.1927
10137TIP3    H151902   3.302   3.310   5.930  0.2933 -0.1388 -1.5525
10137TIP3    H251903   3.433   3.363   5.876  0.9088 -0.3483 -0.3036
10138TIP3   OH251904   5.757   3.272   3.941  0.2581 -0.1739 -0.4890
10138TIP3    H151905   5.829   3.294   3.882 -0.7345  1.5854 -1.1106
10138TIP3    H251906   5.793   3.205   3.999  2.7416  1.4029 -0.0650
10139TIP3   OH251907   6.786   6.137   1.475  0.4471 -0.3002 -0.0845
10139TIP3    H151908   6.815   6.210   1.421  2.6348 -1.3750 -0.4960
10139TIP3    H251909   6.691   6.139   1.469  0.3815  2.8796  0.4910
10140TIP3   OH251910   0.052   4.540  15.092 -0.3130  0.3639  0.4022
10140TIP3    H151911  -0.024   4.593  15.067 -0.4186 -0.1975 -0.4939
10140TIP3    H251912   0.015   4.463  15.135 -0.1566  1.0148  1.7705
10141TIP3   OH251913   0.552   6.476   2.895 -0.6022 -0.2166 -0.5424
10141TIP3    H151914   0.638   6.434   2.886 -0.2963  0.9697 -5.1241
10141TIP3    H251915   0.571   6.560   2.937  0.2842 -0.4314 -0.4907
10142TIP3   OH251916   6.648   1.711   6.090 -0.1596  0.6738 -0.2188
10142TIP3    H151917   6.637   1.671   6.004 -1.2474  1.4933 -0.4804
10142TIP3    H251918   6.588   1.664   6.147  2.6871 -1.9670  0.9149
10143TIP3   OH251919   2.996   0.274   5.947 -0.5784 -0.2048  0.5784
10143TIP3    H151920   2.985   0.314   5.861 -1.7970 -0.9879  0.3513
10143TIP3    H251921   2.958   0.186   5.938 -0.0108 -0.5879  1.6960
10144TIP3   OH251922   5.244   3.284   1.014 -0.0983  0.9843 -0.6934
10144TIP3    H151923   5.168   3.332   1.044  0.1856  3.0358 -2.9517
10144TIP3    H251924   5.211   3.225   0.945 -0.0072 -0.0462  0.1196
10145TIP3   OH251925   5.727   0.372   4.808 -0.1130  0.3884 -0.0877
10145TIP3    H151926   5.755   0.281   4.823  1.1763  0.6284 -0.9279
10145TIP3    H251927   5.694   0.401   4.893  1.3843 -0.2192  0.7421
10146TIP3   OH251928   2.070   0.171   2.699 -0.9943  1.0567  0.3324
10146TIP3    H151929   1.993   0.114   2.700 -0.5819  0.4821  1.5724
10146TIP3    H251930   2.076   0.202   2.608 -0.3715 -2.0609 -0.7938
10147TIP3   OH251931   1.682   1.833   6.195 -0.0404 -0.0987  0.2097
10147TIP3    H151932   1.611   1.897   6.189  0.1962  0.5869  3.0844
10147TIP3    H251933   1.746   1.860   6.129 -1.3656  0.6856 -0.7904
10148TIP3   OH251934   6.344   3.286  15.829  0.6579 -0.0007  0.4975
10148TIP3    H151935   6.408   3.221  15.801 -0.0638 -0.2641 -0.5885
10148TIP3    H251936   6.359   3.361  15.772  0.8971  0.4574  1.1541
10149TIP3   OH251937   6.038   0.901  16.308  0.0629  0.1463  0.3354
10149TIP3    H151938   6.049   0.833  16.242 -0.2110 -0.2012  0.6396
10149TIP3    H251939   6.040   0.983  16.260  2.0296  0.0219  0.1450
10150TIP3   OH251940   6.315   2.075  11.551 -0.3531 -0.2737  0.1418
10150TIP3    H151941   6.282   2.157  11.515  0.4443  0.5316  1.1614
10150TIP3    H251942   6.253   2.008  11.521 -2.0274  0.9411  0.7141
10151TIP3   OH251943   1.488   3.938  16.114 -0.3692  0.3182 -0.0499
10151TIP3    H151944   1.413   3.915  16.060 -0.0650 -0.6640 -0.0736
10151TIP3    H251945   1.450   3.977  16.193 -1.1515 -3.0896  1.4423
10152TIP3   OH251946   2.834   6.581  11.916  0.2163  0.1374 -0.3561
10152TIP3    H151947   2.876   6.549  11.836 -0.5222 -0.1878 -0.6222
10152TIP3    H251948   2.813   6.673  11.897 -1.0239 -0.2481 -1.0042
10153TIP3   OH251949   3.756   0.644   1.206  0.1661 -0.4920  0.5347
10153TIP3    H151950   3.663   0.643   1.187  0.3369  1.0418 -0.6078
10153TIP3    H251951   3.766   0.586   1.281 -1.5957 -1.2039  0.2734
10154TIP3   OH251952   5.514   1.233   0.090  0.2641  0.2463  0.2035
10154TIP3    H151953   5.452   1.306   0.087 -0.9461 -0.7549 -0.2032
10154TIP3    H251954   5.600   1.274   0.080 -0.1902  1.8063  2.0739
10155TIP3   OH251955   0.080   2.324  12.035 -0.8460 -1.1072 -0.0216
10155TIP3    H151956   0.033   2.244  12.057 -0.8480 -1.4721 -1.2424
10155TIP3    H251957   0.123   2.304  11.952 -1.4029  0.3643 -0.7019
10156TIP3   OH251958   4.048   4.301  12.818 -0.5927 -0.0370 -0.3833
10156TIP3    H151959   3.967   4.268  12.780 -0.0382 -0.7554 -0.9970
10156TIP3    H251960   4.116   4.244  12.781 -0.0829 -1.3355  2.3030
10157TIP3   OH251961   2.063   2.077   1.542  0.6249  0.1356 -0.0725
10157TIP3    H151962   2.072   2.169   1.567  1.2329 -0.1458  0.8171
10157TIP3    H251963   2.018   2.037   1.617 -0.0140 -0.2155 -0.6341
10158TIP3   OH251964   0.280   3.701   0.715 -0.3490  0.7466 -0.0609
10158TIP3    H151965   0.312   3.770   0.772  0.9041 -0.6745  1.0534
10158TIP3    H251966   0.359   3.657   0.683 -1.0956 -0.8979  0.2305
10159TIP3   OH251967   2.376   5.615   1.654 -0.0904 -0.7944 -1.0845
10159TIP3    H151968   2.447   5.551   1.655 -0.0713 -0.7984  0.6229
10159TIP3    H251969   2.314   5.582   1.719  1.1269  2.1643  1.8584
10160TIP3   OH251970   5.134   4.202   2.477 -0.0075  0.2154  0.3507
10160TIP3    H151971   5.168   4.118   2.445 -0.8339 -0.6871  1.7328
10160TIP3    H251972   5.043   4.204   2.446 -0.5693 -0.3036  1.8575
10161TIP3   OH251973   2.730   5.242   4.463  0.0179  0.1442 -0.0456
10161TIP3    H151974   2.791   5.311   4.489  1.4196 -0.8036 -0.7076
10161TIP3    H251975   2.645   5.271   4.498  1.0571  0.8759  2.0759
10162TIP3   OH251976   5.833   1.372   6.767 -0.4817 -0.7705 -0.1389
10162TIP3    H151977   5.898   1.411   6.709 -0.1749  0.0581  0.7469
10162TIP3    H251978   5.775   1.323   6.708 -1.4294  1.7113 -1.4275
10163TIP3   OH251979   4.513   2.148  12.748 -0.1679  0.4582 -0.5309
10163TIP3    H151980   4.469   2.200  12.680 -1.6889 -1.6153 -1.2312
10163TIP3    H251981   4.534   2.065  12.705 -0.7660 -0.7452  1.3817
10164TIP3   OH251982   1.451   1.234   2.218  0.4045 -0.0730  0.3189
10164TIP3    H151983   1.433   1.185   2.299  2.0513 -1.3460 -0.0352
10164TIP3    H251984   1.499   1.172   2.163  1.5914  1.5995 -0.6032
10165TIP3   OH251985   6.553   0.275  13.258 -0.5158 -0.0384  0.0907
10165TIP3    H151986   6.524   0.324  13.334  0.2527  0.1658  0.2545
10165TIP3    H251987   6.564   0.185  13.290 -0.6057 -0.0404  0.1159
10166TIP3   OH251988   6.091   0.613   2.041  0.5159 -0.6417  0.4450
10166TIP3    H151989   6.150   0.652   2.105 -0.1106 -0.6740  1.0499
10166TIP3    H251990   6.138   0.621   1.957  1.5596 -1.0420  0.9652
10167TIP3   OH251991   1.463   0.264  13.916 -0.2648  0.0098 -0.0650
10167TIP3    H151992   1.400   0.334  13.933  0.4911  0.6199  0.3112
10167TIP3    H251993   1.464   0.213  13.997 -2.1976 -1.5998 -0.9754
10168TIP3   OH251994   1.913   4.504   0.549 -0.4312 -0.8338  0.2228
10168TIP3    H151995   1.880   4.417   0.526 -0.2788 -0.6504 -0.7355
10168TIP3    H251996   1.986   4.486   0.608 -0.8621 -1.3220  0.6233
10169TIP3   OH251997   6.501   2.335   5.023  0.3412 -0.4305 -0.3358
10169TIP3    H151998   6.496   2.249   5.063  1.8248 -0.2661  0.2939
10169TIP3    H251999   6.441   2.389   5.074 -0.1841 -0.9506 -0.3914
10170TIP3   OH252000   5.614   2.395  10.413 -0.0827  0.0022 -0.7505
10170TIP3    H152001   5.682   2.426  10.474  0.1259 -0.1401 -0.9098
10170TIP3    H252002   5.626   2.300  10.410 -1.7564 -0.3060  0.9682
10171TIP3   OH252003   5.913   2.444  12.002 -0.0670 -0.4484 -0.2072
10171TIP3    H152004   5.819   2.442  11.986 -0.6114 -2.8406  2.4248
10171TIP3    H252005   5.940   2.532  11.975 -3.3596  0.9529  0.4969
10172TIP3   OH252006   4.336   2.668   6.034 -0.2777  0.2595  0.4786
10172TIP3    H152007   4.267   2.605   6.054 -0.9867  1.5735  2.4352
10172TIP3    H252008   4.399   2.659   6.106  0.2973  0.8523  0.0681
10173TIP3   OH252009   0.947   6.757  17.305  0.2449  0.3302 -0.2192
10173TIP3    H152010   0.865   6.771  17.258 -0.3609 -0.6870  0.5209
10173TIP3    H252011   0.994   6.841  17.296 -1.0114  1.0432 -0.3463
10174TIP3   OH252012   3.528   2.052   6.770  0.0612 -0.1191 -0.0851
10174TIP3    H152013   3.456   2.036   6.709 -1.0055 -0.6529  1.2671
10174TIP3    H252014   3.547   1.967   6.809 -0.1073  0.3867  1.1788
10175TIP3   OH252015   3.493   2.884   4.174 -0.3865  0.3865  0.2491
10175TIP3    H152016   3.438   2.805   4.170  0.2808 -0.0258 -1.0825
10175TIP3    H252017   3.462   2.939   4.102  0.1645  0.6724  0.2250
10176TIP3   OH252018   2.169   3.177   3.178  0.1206  0.3998  0.0559
10176TIP3    H152019   2.219   3.118   3.121  1.2062  0.7422  0.6235
10176TIP3    H252020   2.130   3.241   3.118 -1.2939 -1.0147 -0.6011
10177TIP3   OH252021   1.202   0.559   2.787  0.3015 -0.4450 -0.6876
10177TIP3    H152022   1.127   0.502   2.778  0.0201 -0.1445 -0.3090
10177TIP3    H252023   1.265   0.508   2.839 -0.6893  0.2414  1.3120
10178TIP3   OH252024   0.000   6.788   3.738 -0.2199  0.2424  0.8342
10178TIP3    H152025   0.084   6.813   3.778  0.0662 -0.6283  0.7984
10178TIP3    H252026   0.016   6.702   3.701 -0.3569  1.1777 -1.5560
10179TIP3   OH252027   3.175   5.297  16.181  0.1432  0.2058 -0.3079
10179TIP3    H152028   3.257   5.247  16.182  0.6410  0.9993 -0.4593
10179TIP3    H252029   3.202   5.386  16.159 -0.6643  0.6530  0.4661
10180TIP3   OH252030   5.487   0.330   5.705  0.0625  0.5156  0.2057
10180TIP3    H152031   5.480   0.254   5.647 -1.4673  1.7797 -1.3991
10180TIP3    H252032   5.482   0.406   5.646  2.1042  1.9075  1.6759
10181TIP3   OH252033   4.246   6.361  13.959 -0.1546 -0.0325  0.1919
10181TIP3    H152034   4.321   6.407  13.998 -0.2476 -0.3927  0.8166
10181TIP3    H252035   4.259   6.369  13.865  1.0496 -0.6905  0.2789
10182TIP3   OH252036   4.706   5.007  17.231 -0.3508  0.6723  0.2992
10182TIP3    H152037   4.708   5.093  17.187 -0.4461  0.9913  0.9061
10182TIP3    H252038   4.634   5.014  17.294  0.4756  0.6103  1.2766
10183TIP3   OH252039   6.574   5.782   4.555 -0.0121  0.1528 -0.1254
10183TIP3    H152040   6.543   5.837   4.626  0.9080  0.0405  0.3785
10183TIP3    H252041   6.548   5.693   4.581 -1.5620  0.3193 -0.9737
10184TIP3   OH252042   0.974   6.429  12.329 -0.2519  0.1730  0.1970
10184TIP3    H152043   1.025   6.348  12.327  0.3167  0.5307 -0.3958
10184TIP3    H252044   0.973   6.459  12.238  0.4089  1.3580  0.5571
10185TIP3   OH252045   2.502   4.514   5.210  0.5892  0.5195 -0.4150
10185TIP3    H152046   2.551   4.512   5.128 -0.0276  0.5111 -0.7836
10185TIP3    H252047   2.460   4.428   5.214  1.8392 -0.0804  0.6639
10186TIP3   OH252048   3.120   5.008   5.418  0.3765  0.1448  0.0820
10186TIP3    H152049   3.111   5.097   5.384 -0.0274  0.0876  0.0357
10186TIP3    H252050   3.207   5.006   5.458  0.6465  0.3670 -0.4849
10187TIP3   OH252051   5.219   3.369  15.706  0.1608 -0.0723 -0.5998
10187TIP3    H152052   5.273   3.315  15.763  0.1293 -0.3299 -0.8171
10187TIP3    H252053   5.189   3.441  15.763  2.2825  1.1491 -0.9361
10188TIP3   OH252054   6.496   4.115  17.083 -0.8340 -0.2433 -0.1307
10188TIP3    H152055   6.463   4.027  17.065 -1.4515 -0.0363 -0.0301
10188TIP3    H252056   6.438   4.174  17.034 -0.8795  0.1549  0.3911
10189TIP3   OH252057   2.387   0.119   5.250  0.7836 -0.3056  0.1569
10189TIP3    H152058   2.473   0.101   5.213  1.1405 -0.8732  1.1940
10189TIP3    H252059   2.355   0.195   5.203  2.2153  0.4261  0.3139
10190TIP3   OH252060   2.532   5.997   5.139  0.0802 -0.2010  0.2379
10190TIP3    H152061   2.478   5.964   5.067 -0.8060  0.0804  0.7610
10190TIP3    H252062   2.614   6.025   5.097 -0.9909  1.3868 -0.9000
10191TIP3   OH252063   1.035   1.192   1.514  0.6020  0.9284  0.1283
10191TIP3    H152064   0.978   1.268   1.522 -1.8170 -0.7358 -0.0034
10191TIP3    H252065   1.046   1.161   1.604 -0.6911 -0.0508 -0.0172
10192TIP3   OH252066   6.127   4.123  14.023 -0.2914  0.6034  0.1993
10192TIP3    H152067   6.210   4.167  14.043 -1.9632  4.4896 -0.5849
10192TIP3    H252068   6.069   4.149  14.095 -1.7137  0.6993 -0.9513
10193TIP3   OH252069   4.207   5.491   5.377  0.1137 -0.2917  0.3263
10193TIP3    H152070   4.217   5.561   5.442  1.3042  0.2486 -0.3991
10193TIP3    H252071   4.190   5.537   5.295 -1.1960 -0.9659  0.1954
10194TIP3   OH252072   0.927   5.095   2.236  0.5140  0.1324 -0.2540
10194TIP3    H152073   0.878   5.159   2.185 -1.8013 -0.8025  0.6727
10194TIP3    H252074   0.925   5.128   2.326  0.4991 -0.5414  0.0044
10195TIP3   OH252075   2.672   5.138  14.627 -0.3004 -0.1749  0.8066
10195TIP3    H152076   2.745   5.198  14.642 -2.2585  2.2271  1.5963
10195TIP3    H252077   2.594   5.194  14.635 -2.2591 -2.7151  0.7280
10196TIP3   OH252078   5.628   5.966   2.243  0.0404 -0.0416 -0.2331
10196TIP3    H152079   5.682   6.025   2.190 -0.7480 -0.6431 -1.7803
10196TIP3    H252080   5.597   6.021   2.315  3.2946  0.1451  1.2355
10197TIP3   OH252081   4.814   6.639  16.437 -0.3458 -0.3474 -0.3559
10197TIP3    H152082   4.872   6.565  16.452 -0.2667 -0.4090 -0.9287
10197TIP3    H252083   4.870   6.716  16.445  0.0684 -0.4458 -1.9504
10198TIP3   OH252084   0.817   4.411  15.094 -0.3601 -0.5656  0.0235
10198TIP3    H152085   0.906   4.401  15.061 -0.9901 -2.2771 -1.3915
10198TIP3    H252086   0.798   4.504  15.085  0.9035 -0.3554 -0.7614
10199TIP3   OH252087   0.540   3.066   5.783 -0.0705 -0.0737 -0.3786
10199TIP3    H152088   0.495   3.066   5.699  1.6503  1.6798 -1.3877
10199TIP3    H252089   0.508   2.987   5.828 -0.8962 -1.1668 -2.7357
10200TIP3   OH252090   3.460   1.635  11.600 -0.6193 -0.4288  0.1635
10200TIP3    H152091   3.374   1.596  11.617 -0.0057 -1.6514  0.6234
10200TIP3    H252092   3.465   1.642  11.505 -1.0131 -0.8745  0.1028
10201TIP3   OH252093   3.652   0.504  15.340  0.4855 -0.3264  0.2473
10201TIP3    H152094   3.653   0.531  15.248  0.9781  0.0504  0.3589
10201TIP3    H252095   3.617   0.415  15.339 -0.0964 -0.0975 -0.2414
10202TIP3   OH252096   1.447   1.559  12.504 -0.2508 -0.3475 -0.6150
10202TIP3    H152097   1.473   1.641  12.462  1.5688  0.2093  1.4195
10202TIP3    H252098   1.393   1.585  12.578  0.1725 -0.9701 -0.0721
10203TIP3   OH252099   6.601   3.922  17.334  0.1586 -0.2913  0.1081
10203TIP3    H152100   6.511   3.910  17.307  0.5488 -0.8049 -1.0276
10203TIP3    H252101   6.634   3.994  17.280  0.9317 -1.2882 -0.7951
10204TIP3   OH252102   4.460   6.702  15.062  0.0378 -0.1423  0.5180
10204TIP3    H152103   4.524   6.671  14.998  1.7463  0.2958  1.9253
10204TIP3    H252104   4.481   6.795  15.073 -1.0854  0.1001  0.7649
10205TIP3   OH252105   4.277   2.091  12.239 -0.2485  0.4632 -0.4807
10205TIP3    H152106   4.226   2.145  12.180 -1.4286  0.4354  0.4846
10205TIP3    H252107   4.254   2.122  12.327 -1.8793 -2.3255  0.1786
10206TIP3   OH252108   0.341   5.266  13.479  0.4336  0.2553  0.0784
10206TIP3    H152109   0.286   5.341  13.456  0.8335  0.4392 -0.3010
10206TIP3    H252110   0.430   5.302  13.482  1.0355 -0.6935 -2.8107
10207TIP3   OH252111   3.915   6.377   0.251 -0.2887 -0.2844 -0.4742
10207TIP3    H152112   3.831   6.420   0.267 -0.1901  0.2790 -1.3563
10207TIP3    H252113   3.911   6.296   0.301 -0.3165  0.9355  1.5910
10208TIP3   OH252114   4.675   6.322   0.830  0.0015 -0.7737 -0.3598
10208TIP3    H152115   4.766   6.292   0.818  0.1553 -0.0272 -1.2489
10208TIP3    H252116   4.653   6.363   0.746 -0.2670  1.3695  0.7062
10209TIP3   OH252117   4.723   1.329   0.733  0.3189  0.3341  0.2472
10209TIP3    H152118   4.665   1.346   0.807  0.8886  0.9168  0.5627
10209TIP3    H252119   4.762   1.414   0.713  0.1286  0.1952 -0.7631
10210TIP3   OH252120   6.288   0.407  11.014  0.0012 -0.6372  0.1154
10210TIP3    H152121   6.272   0.347  10.941 -0.0286  0.0943 -0.4921
10210TIP3    H252122   6.383   0.416  11.017 -0.0035 -0.5867  0.1043
10211TIP3   OH252123   2.039   1.512  11.603  0.2112  0.4620 -0.0097
10211TIP3    H152124   2.017   1.557  11.684  1.1475 -0.7973  0.9928
10211TIP3    H252125   2.134   1.525  11.594  0.3015 -0.3634 -0.2902
10212TIP3   OH252126   5.093   1.255   6.371  0.1420 -0.8524 -0.2424
10212TIP3    H152127   5.152   1.328   6.385 -0.8601 -0.1150  0.2780
10212TIP3    H252128   5.136   1.180   6.413  0.5147 -0.2475  0.4798
10213TIP3   OH252129   6.519   4.605   6.449  0.2871  0.1831  0.2741
10213TIP3    H152130   6.525   4.630   6.542  0.7839 -0.5271  0.4429
10213TIP3    H252131   6.504   4.687   6.403 -0.1294  0.5254  0.9992
10214TIP3   OH252132   0.369   4.226  13.696 -0.0269 -0.3749  0.1507
10214TIP3    H152133   0.464   4.235  13.692  0.1376 -1.9324 -2.3888
10214TIP3    H252134   0.354   4.157  13.760  0.5343 -0.0123  0.6809
10215TIP3   OH252135   6.666   3.009  12.326  0.6332  0.1200 -0.5447
10215TIP3    H152136   6.598   3.057  12.373 -0.1605  1.3912 -2.8325
10215TIP3    H252137   6.644   2.916  12.340 -0.3407  0.4809  0.4368
10216TIP3   OH252138   3.134   0.677  15.114  0.3905  0.4078 -0.2914
10216TIP3    H152139   3.193   0.741  15.074 -0.4072  2.0490  1.0450
10216TIP3    H252140   3.055   0.679  15.060  0.1207  1.0667  0.1090
10217TIP3   OH252141   1.810   6.374   5.483 -0.0973 -0.2646  0.0669
10217TIP3    H152142   1.856   6.363   5.566 -0.2674  1.3632  0.4169
10217TIP3    H252143   1.721   6.345   5.500 -0.1656  0.1910  0.5015
10218TIP3   OH252144   1.118   3.945   0.982  0.2382 -0.0158 -0.0864
10218TIP3    H152145   1.160   4.031   0.972 -1.0418  0.6458 -0.0477
10218TIP3    H252146   1.179   3.883   0.941  0.8424  1.0087 -0.7891
10219TIP3   OH252147   3.977   2.896  16.916 -0.1106 -0.5414  0.1715
10219TIP3    H152148   4.010   2.950  16.988 -1.4002 -1.1115  1.2345
10219TIP3    H252149   4.046   2.832  16.899 -0.1960 -1.0455  1.6219
10220TIP3   OH252150   3.031   6.773  16.409 -0.0243  0.1333  0.0753
10220TIP3    H152151   3.016   6.706  16.475 -1.1105  0.7495  0.4738
10220TIP3    H252152   3.118   6.807  16.427  0.0703 -0.3801  0.5819
10221TIP3   OH252153   0.708   6.079   1.099 -0.2763  0.2563  0.2333
10221TIP3    H152154   0.628   6.124   1.070 -0.3600 -0.6312 -1.0139
10221TIP3    H252155   0.771   6.097   1.029  0.9741  1.8068  1.7006
10222TIP3   OH252156   0.472   1.260   3.041  0.1205  0.2550  0.0911
10222TIP3    H152157   0.420   1.203   3.099 -1.9122 -0.2556 -2.0992
10222TIP3    H252158   0.456   1.348   3.074 -0.4853 -0.0590  0.6618
10223TIP3   OH252159   0.246   4.943  11.952 -1.1421  0.4109  0.2436
10223TIP3    H152160   0.293   4.861  11.968 -0.9182  0.5812  0.4620
10223TIP3    H252161   0.177   4.919  11.890 -0.7349  0.1717 -0.1174
10224TIP3   OH252162   4.200   3.668  13.181 -0.6326 -0.1892  0.7768
10224TIP3    H152163   4.223   3.603  13.247 -0.1468  1.0827  1.9317
10224TIP3    H252164   4.111   3.645  13.155 -0.6972 -0.9493  1.6082
10225TIP3   OH252165   0.202   1.104  13.747  0.2307 -0.0517 -0.7535
10225TIP3    H152166   0.164   1.018  13.765  3.1484 -1.8080 -2.1540
10225TIP3    H252167   0.138   1.145  13.688 -0.4176 -2.0721 -1.5883
10226TIP3   OH252168   0.440   2.988  12.366 -0.4356  0.5370 -0.0350
10226TIP3    H152169   0.508   2.996  12.299 -0.1458 -1.8061 -0.0911
10226TIP3    H252170   0.372   3.050  12.339  0.4348  0.8639 -1.5594
10227TIP3   OH252171   0.687   1.968  16.628  0.7095 -0.3477 -0.4684
10227TIP3    H152172   0.716   1.932  16.712 -0.5695  0.6698  0.4518
10227TIP3    H252173   0.754   2.033  16.606  0.3769  0.3252  0.4537
10228TIP3   OH252174   0.173   1.779   1.580  0.5252 -0.5629 -0.2589
10228TIP3    H152175   0.246   1.816   1.531 -0.5010  1.2021 -0.5385
10228TIP3    H252176   0.143   1.851   1.636 -0.0730 -1.7055  0.9476
10229TIP3   OH252177   2.614   1.096  15.319  0.6306  0.7802  0.3178
10229TIP3    H152178   2.567   1.103  15.402  1.2502  1.3300  0.6309
10229TIP3    H252179   2.668   1.175  15.315 -0.2082  1.3259 -1.1410
10230TIP3   OH252180   0.493   1.397  11.813  0.0395  0.0252  0.2325
10230TIP3    H152181   0.484   1.398  11.908  0.8259 -0.9075  0.3208
10230TIP3    H252182   0.529   1.311  11.792  0.9120  0.6187 -0.8093
10231TIP3   OH252183   0.737   6.608   5.861 -0.2227  0.2350 -0.9338
10231TIP3    H152184   0.659   6.587   5.809 -0.2187  0.3675 -0.9938
10231TIP3    H252185   0.743   6.537   5.924  0.0759 -0.2086 -1.4544
10232TIP3   OH252186   6.654   4.309  11.609 -0.0723  0.4663 -0.5765
10232TIP3    H152187   6.697   4.238  11.656 -1.1415 -1.2987 -2.0835
10232TIP3    H252188   6.568   4.316  11.649 -0.2203  0.4052 -0.8759
10233TIP3   OH252189   2.011   2.287   3.381 -0.1726 -0.1784  0.1869
10233TIP3    H152190   1.947   2.291   3.452 -0.1394 -1.9852  0.3793
10233TIP3    H252191   1.991   2.205   3.336  0.0964  0.6969 -1.6345
10234TIP3   OH252192   1.137   2.442   0.500 -0.1613 -0.6784 -0.8256
10234TIP3    H152193   1.131   2.409   0.589 -0.9029 -1.0203 -0.9938
10234TIP3    H252194   1.046   2.452   0.472  0.0572 -1.2102 -1.7767
10235TIP3   OH252195   1.482   6.694  11.490  0.1831 -0.3252  0.0524
10235TIP3    H152196   1.393   6.680  11.458  0.2897 -2.6251  0.6075
10235TIP3    H252197   1.482   6.785  11.520 -2.2776 -0.5057  0.8575
10236TIP3   OH252198   2.874   0.810  11.208 -0.3994  0.5776 -0.1418
10236TIP3    H152199   2.933   0.745  11.247 -0.7836 -2.1472 -3.5480
10236TIP3    H252200   2.877   0.885  11.267  3.6448 -0.7935  1.7169
10237TIP3   OH252201   4.111   5.623   1.532 -0.3356 -0.1024 -0.8360
10237TIP3    H152202   4.077   5.609   1.443 -3.5757  0.9016  0.0902
10237TIP3    H252203   4.113   5.536   1.570  1.0122 -0.5370 -1.8158
10238TIP3   OH252204   0.752   1.891   3.643  0.2417 -0.2365 -0.4907
10238TIP3    H152205   0.793   1.977   3.654  2.2530 -1.3921  2.7781
10238TIP3    H252206   0.817   1.841   3.593  0.3268 -0.5567 -0.0655
10239TIP3   OH252207   6.166   3.088  17.194 -0.2474  0.1845 -0.3255
10239TIP3    H152208   6.140   3.002  17.227  2.0299 -0.3208  0.3429
10239TIP3    H252209   6.178   3.075  17.100  1.0329 -0.5319 -0.0877
10240TIP3   OH252210   5.369   1.230  14.001  0.5834  0.1827  0.1539
10240TIP3    H152211   5.334   1.310  13.963  0.6605  0.0817 -0.1347
10240TIP3    H252212   5.313   1.213  14.077  1.6796  1.4950  1.3165
10241TIP3   OH252213   4.159   2.969  11.826 -0.0140 -0.1322  0.3601
10241TIP3    H152214   4.096   3.004  11.889 -0.7129  2.0096 -1.4001
10241TIP3    H252215   4.177   3.042  11.767  1.4150 -1.7316 -1.2976
10242TIP3   OH252216   1.393   5.752  15.985  0.1679  0.1795 -0.4866
10242TIP3    H152217   1.471   5.782  16.032  0.2854  0.3853 -0.8127
10242TIP3    H252218   1.381   5.662  16.015 -0.1475  0.5246  0.4479
10243TIP3   OH252219   6.513   3.489  11.329  0.3604  0.0240  0.3888
10243TIP3    H152220   6.577   3.542  11.280  0.3479 -1.3980 -1.2835
10243TIP3    H252221   6.431   3.501  11.281  0.5660 -2.1998 -0.6488
10244TIP3   OH252222   4.486   0.309   5.383  0.4242  0.4329  0.2706
10244TIP3    H152223   4.459   0.240   5.444 -0.2682  1.6368  1.3715
10244TIP3    H252224   4.437   0.386   5.410  0.8474  1.2674 -1.2118
10245TIP3   OH252225   1.459   5.166   4.566 -0.3199 -0.1725  0.1520
10245TIP3    H152226   1.403   5.207   4.500 -0.4523 -2.3337 -1.1614
10245TIP3    H252227   1.432   5.074   4.567  2.8486 -1.2135 -0.1962
10246TIP3   OH252228   6.350   0.817  13.579 -0.3141 -0.5203  0.6345
10246TIP3    H152229   6.326   0.829  13.671 -0.3182  1.6199  0.4161
10246TIP3    H252230   6.267   0.809  13.533 -0.4489  1.2141  0.5263
10247TIP3   OH252231   1.888   6.594  16.806  0.2212 -0.6427  0.3257
10247TIP3    H152232   1.812   6.598  16.748  0.8392 -0.2539 -0.4811
10247TIP3    H252233   1.956   6.553  16.753  1.7256  2.4813 -0.3485
10248TIP3   OH252234   6.485   4.027   3.894 -0.2155  0.3176 -0.2396
10248TIP3    H152235   6.530   3.972   3.959  1.4081  0.3890 -1.2456
10248TIP3    H252236   6.411   4.065   3.941 -0.0163 -0.9003  1.1156
10249TIP3   OH252237   2.196   0.187   4.418 -0.2035 -0.1616 -0.1042
10249TIP3    H152238   2.142   0.175   4.340 -0.9285 -0.3960  0.4211
10249TIP3    H252239   2.170   0.272   4.453  0.5339  0.2090 -0.4249
10250TIP3   OH252240   5.165   0.824   3.065  0.1965 -0.3189 -0.5421
10250TIP3    H152241   5.212   0.868   2.994 -1.5129  1.4324 -0.6903
10250TIP3    H252242   5.083   0.873   3.073  0.4937 -0.1114  2.9910
10251TIP3   OH252243   1.830   0.889   4.438  0.2253 -0.0546  0.3005
10251TIP3    H152244   1.795   0.974   4.467  0.4616  0.1844 -0.1130
10251TIP3    H252245   1.858   0.846   4.519 -0.2600  0.0970  0.5544
10252TIP3   OH252246   4.148   4.629  13.543 -0.4811 -0.4024  0.2888
10252TIP3    H152247   4.119   4.546  13.581  0.6156 -0.9917 -0.1105
10252TIP3    H252248   4.116   4.696  13.603 -1.6596 -1.0928  0.4462
10253TIP3   OH252249   6.542   6.069  13.612 -0.0815  0.3886 -0.3299
10253TIP3    H152250   6.617   6.065  13.553  0.1029 -0.5469 -0.0518
10253TIP3    H252251   6.562   6.005  13.681 -1.2300 -0.0438 -0.3757
10254TIP3   OH252252   5.945   2.448  13.025 -0.3622  0.4751  0.2028
10254TIP3    H152253   6.029   2.403  13.016 -0.7731 -0.8436  2.3647
10254TIP3    H252254   5.969   2.537  13.051  0.3825  0.4835 -0.4877
10255TIP3   OH252255   5.750   5.680   3.187  0.2049  0.1780  0.0226
10255TIP3    H152256   5.796   5.623   3.125  0.2822  0.6073 -0.3154
10255TIP3    H252257   5.729   5.623   3.261 -1.9000 -0.9250 -1.3278
10256TIP3   OH252258   4.316   2.528  12.907 -0.1140 -0.1800 -0.0510
10256TIP3    H152259   4.288   2.546  12.997  0.1469 -0.0019 -0.0034
10256TIP3    H252260   4.247   2.473  12.871 -0.8896  0.8383 -0.1655
10257TIP3   OH252261   6.039   4.396  15.042 -0.2489 -0.5965 -0.1898
10257TIP3    H152262   6.016   4.420  14.952 -0.7369 -0.4240 -0.0239
10257TIP3    H252263   6.050   4.480  15.087  0.9714 -0.6660 -0.3145
10258TIP3   OH252264   3.978   3.583   1.002  0.7164  0.0893  0.2923
10258TIP3    H152265   3.940   3.661   0.961  1.6399  1.7503  2.4194
10258TIP3    H252266   3.904   3.540   1.046  0.3393  0.1088 -0.2995
10259TIP3   OH252267   4.968   0.637   4.560  0.6070 -0.1337 -0.0880
10259TIP3    H152268   5.033   0.607   4.623 -0.3631  1.4608  1.7639
10259TIP3    H252269   4.913   0.560   4.545 -0.2239 -0.1445  2.4739
10260TIP3   OH252270   3.327   4.766  10.969  0.0243 -0.1944 -0.3458
10260TIP3    H152271   3.374   4.790  10.889  0.8719 -0.4170  0.0771
10260TIP3    H252272   3.393   4.724  11.024 -0.4441  0.3587  0.6555
10261TIP3   OH252273   5.194   5.006  16.693 -0.2414  0.3457  0.2169
10261TIP3    H152274   5.179   4.961  16.777 -0.4722 -0.9401 -0.4802
10261TIP3    H252275   5.155   4.948  16.628  1.0769  0.6694 -0.9109
10262TIP3   OH252276   2.506   3.849  13.833 -0.9211 -0.5950  0.0122
10262TIP3    H152277   2.486   3.805  13.750  1.7897 -1.0080 -0.5145
10262TIP3    H252278   2.462   3.933  13.826  0.6432  0.1275 -2.6962
10263TIP3   OH252279   2.712   0.939  13.051 -0.1844  0.4738  0.1953
10263TIP3    H152280   2.774   0.877  13.014 -0.3956  0.9490 -0.9949
10263TIP3    H252281   2.704   0.914  13.143 -2.0059 -2.7623 -0.7035
10264TIP3   OH252282   2.075   4.063  12.918  0.3239  0.1228 -0.6795
10264TIP3    H152283   2.045   4.154  12.923 -0.4551 -0.1285 -0.5075
10264TIP3    H252284   2.016   4.016  12.978 -0.6409 -0.8414 -2.3210
10265TIP3   OH252285   1.928   6.568   4.181 -0.9022  0.1153 -0.2503
10265TIP3    H152286   1.913   6.504   4.252  2.5862 -1.7398 -0.9487
10265TIP3    H252287   2.007   6.615   4.208 -0.7634  0.8971 -1.9333
10266TIP3   OH252288   1.104   6.646  15.298 -0.1729 -0.4332 -0.4652
10266TIP3    H152289   1.146   6.566  15.329 -0.1544 -0.4086 -0.4266
10266TIP3    H252290   1.120   6.646  15.203  3.3633  1.5756 -0.0214
10267TIP3   OH252291   3.606   4.289  10.910 -0.2311 -0.2426 -0.4274
10267TIP3    H152292   3.610   4.194  10.919  1.4923 -0.2267 -0.6275
10267TIP3    H252293   3.551   4.304  10.833 -0.5141 -1.0745 -0.3923
10268TIP3   OH252294   4.206   2.117  16.225  0.2070 -0.2183  0.3620
10268TIP3    H152295   4.249   2.195  16.262  0.9058  0.4562 -1.7215
10268TIP3    H252296   4.224   2.122  16.132 -1.6773 -1.7055 -0.1434
10269TIP3   OH252297   0.817   5.442   4.175  0.3463  0.2354  0.1447
10269TIP3    H152298   0.752   5.473   4.112 -0.3493 -1.5238 -0.0843
10269TIP3    H252299   0.900   5.480   4.145 -0.5544  2.7590  0.6078
10270TIP3   OH252300   1.066   4.206   1.126  0.5638  0.4611  0.0236
10270TIP3    H152301   0.975   4.217   1.153  0.4047 -0.7973  0.0626
10270TIP3    H252302   1.109   4.167   1.203  1.2994  1.6987  0.2566
10271TIP3   OH252303   4.105   2.463   2.282  0.5355  0.1283  0.1876
10271TIP3    H152304   4.026   2.488   2.329 -0.3071 -0.6777 -0.7474
10271TIP3    H252305   4.130   2.379   2.320  0.3026 -0.1428 -0.2424
10272TIP3   OH252306   0.942   2.259  11.422  0.3251  0.6151  0.2840
10272TIP3    H152307   0.959   2.353  11.431 -0.2740  0.8981 -1.2171
10272TIP3    H252308   0.967   2.239  11.332 -0.2384 -0.5063  0.3607
10273TIP3   OH252309   0.955   2.099  13.442 -0.3228 -0.2189  0.7543
10273TIP3    H152310   0.978   2.103  13.349  0.4672 -1.3781  0.8846
10273TIP3    H252311   0.986   2.183  13.478 -1.0693  0.4445 -0.1040
10274TIP3   OH252312   0.992   5.936   2.891  0.0432 -0.5335 -0.0812
10274TIP3    H152313   1.037   5.853   2.876  0.7285 -0.2788  0.5311
10274TIP3    H252314   1.060   6.002   2.880 -0.1287 -0.1553  1.0334
10275TIP3   OH252315   0.767   4.514   0.969 -0.6922 -0.6173  0.3011
10275TIP3    H152316   0.810   4.433   0.943  0.4074  0.0350 -0.0057
10275TIP3    H252317   0.722   4.494   1.051 -2.4653 -2.1670 -0.9587
10276TIP3   OH252318   1.045   6.610   3.391 -0.2542 -0.6290 -0.6974
10276TIP3    H152319   1.112   6.552   3.354 -0.0027  0.7036 -2.4351
10276TIP3    H252320   0.972   6.603   3.330 -1.2508 -1.1001  0.5125
10277TIP3   OH252321   4.243   2.807   5.828  0.3472  0.3440 -0.4953
10277TIP3    H152322   4.288   2.754   5.894 -2.1761  1.1218  2.0634
10277TIP3    H252323   4.161   2.760   5.811 -0.5494  1.8268 -0.5014
10278TIP3   OH252324   6.718   0.070   5.007  0.9154 -0.1941 -1.1152
10278TIP3    H152325   6.781   0.135   5.036 -0.4740  0.2564  1.2051
10278TIP3    H252326   6.636   0.119   4.997  0.1272 -1.3476 -0.5360
10279TIP3   OH252327   0.170   3.885  15.245 -0.0033  0.0132 -0.1481
10279TIP3    H152328   0.137   3.960  15.294 -1.2521 -0.2599 -0.5404
10279TIP3    H252329   0.214   3.924  15.169 -1.4325  0.3583 -0.8338
10280TIP3   OH252330   0.473   2.154  16.543 -0.5446 -0.3864 -0.3615
10280TIP3    H152331   0.557   2.109  16.531  0.4688  0.9588  1.2359
10280TIP3    H252332   0.497   2.246  16.554 -2.1745 -0.0386  0.6006
10281TIP3   OH252333   6.267   1.628  12.634  0.3397 -0.4798 -0.0696
10281TIP3    H152334   6.292   1.655  12.723 -1.5100 -2.6388  1.2347
10281TIP3    H252335   6.171   1.639  12.632  0.3782 -0.2264 -1.9126
10282TIP3   OH252336   3.367   0.505   0.932  0.5265  0.7739  0.1062
10282TIP3    H152337   3.436   0.457   0.887 -0.5864 -1.3418  0.5365
10282TIP3    H252338   3.320   0.439   0.983 -1.3155  2.2592  0.4656
10283TIP3   OH252339   4.528   4.235  15.186 -0.1899 -0.2058 -0.5719
10283TIP3    H152340   4.433   4.245  15.186 -0.1624  0.2334  0.5415
10283TIP3    H252341   4.542   4.145  15.159 -1.0940 -1.1725  1.8324
10284TIP3   OH252342   3.130   4.794   0.859 -0.2388  0.9038  0.1508
10284TIP3    H152343   3.107   4.874   0.813 -2.3012 -0.8405 -2.0885
10284TIP3    H252344   3.046   4.757   0.887  0.5740 -0.9514  0.2950
10285TIP3   OH252345   5.018   6.665   5.254  0.3427  0.2487  0.2421
10285TIP3    H152346   5.013   6.676   5.349 -0.1380 -1.4571  0.4306
10285TIP3    H252347   4.937   6.621   5.230  2.0266 -2.8032 -0.3939
10286TIP3   OH252348   2.635   5.072   2.614  0.1126  0.7560  0.0811
10286TIP3    H152349   2.608   5.136   2.680 -1.1047  0.1254  0.2273
10286TIP3    H252350   2.559   5.015   2.603  0.4271  0.5967 -1.5881
10287TIP3   OH252351   2.642   4.890  11.274 -0.5127  0.4425  0.1337
10287TIP3    H152352   2.672   4.927  11.357 -2.5307 -0.1629  1.2217
10287TIP3    H252353   2.585   4.957  11.237 -0.0945  0.4702 -0.4720
10288TIP3   OH252354   6.404   0.006  12.981 -1.2490  0.0167  0.1429
10288TIP3    H152355   6.493   0.009  12.946 -0.8161  1.6357  1.2623
10288TIP3    H252356   6.380  -0.086  12.978  1.1340 -0.7104  1.4467
10289TIP3   OH252357   0.424   3.701   5.447  0.4269  0.2006 -0.0333
10289TIP3    H152358   0.497   3.761   5.464  1.4179 -0.4856 -1.6268
10289TIP3    H252359   0.460   3.637   5.385 -0.7850 -1.6570  1.0995
10290TIP3   OH252360   3.474   4.130   0.882 -0.1560  0.1444 -0.1067
10290TIP3    H152361   3.564   4.158   0.896 -0.2658  0.0633  0.8413
10290TIP3    H252362   3.450   4.085   0.963 -0.7820 -0.5473 -0.6609
10291TIP3   OH252363   5.984   1.126   5.564  0.1748  0.4860 -0.2524
10291TIP3    H152364   6.003   1.207   5.613 -2.2288 -0.0435  1.7199
10291TIP3    H252365   5.894   1.137   5.534 -0.1951 -1.4672  0.0574
10292TIP3   OH252366   1.339   0.447  15.519 -0.2220 -0.2464  0.1238
10292TIP3    H152367   1.329   0.509  15.591 -0.3717  0.4454 -0.4775
10292TIP3    H252368   1.268   0.469  15.458 -1.1462 -1.9295  0.5374
10293TIP3   OH252369   5.297   5.851   3.835 -0.1430 -0.0643  0.0371
10293TIP3    H152370   5.227   5.914   3.821 -0.4661 -0.6251 -1.0180
10293TIP3    H252371   5.370   5.883   3.782  0.2831  0.3020  0.8184
10294TIP3   OH252372   5.002   6.567  15.536 -0.7169  0.0880  0.0785
10294TIP3    H152373   4.973   6.476  15.546 -0.8604  0.0951 -0.2714
10294TIP3    H252374   5.097   6.561  15.527 -0.7532 -0.0491 -0.2248
10295TIP3   OH252375   0.592   4.167   5.427  0.1402 -0.0392 -0.5051
10295TIP3    H152376   0.685   4.151   5.441  0.4609  0.4203 -1.9914
10295TIP3    H252377   0.570   4.114   5.350 -0.6656  0.4162 -0.5977
10296TIP3   OH252378   2.641   0.478  13.157  0.2365  0.0530 -0.0637
10296TIP3    H152379   2.657   0.411  13.091 -0.1503 -2.1454  1.9387
10296TIP3    H252380   2.549   0.501  13.147 -1.0169 -3.2480  2.0875
10297TIP3   OH252381   4.589   2.991  16.298  0.0155  0.3843 -0.1811
10297TIP3    H152382   4.670   2.989  16.246 -0.7799 -0.5942 -1.4277
10297TIP3    H252383   4.535   3.058  16.256  0.4026  1.5045  1.0470
10298TIP3   OH252384   5.314   4.940  15.991 -0.0587 -0.3751  0.1510
10298TIP3    H152385   5.238   4.990  16.021 -0.4135  0.8374 -2.4871
10298TIP3    H252386   5.309   4.944  15.895  3.2854 -0.2803 -0.1448
10299TIP3   OH252387   3.550   4.250  11.552  0.0319  0.2287 -0.5184
10299TIP3    H152388   3.511   4.173  11.591 -0.1843  0.5443 -0.1039
10299TIP3    H252389   3.603   4.289  11.621  0.6889  0.0797 -0.9275
10300TIP3   OH252390   6.195   2.555   6.062  0.9104  0.7419 -0.4796
10300TIP3    H152391   6.276   2.600   6.086  1.5233 -1.3254  1.8149
10300TIP3    H252392   6.190   2.482   6.124 -1.4367 -0.6611 -2.1838
10301TIP3   OH252393   6.269   1.999   5.105  0.6281 -0.0105  0.1738
10301TIP3    H152394   6.316   1.933   5.054  3.3481  0.6307  1.6656
10301TIP3    H252395   6.186   1.958   5.127  1.4423 -2.1852 -0.5814
10302TIP3   OH252396   1.908   2.972   5.793 -0.5720 -0.6250 -0.0224
10302TIP3    H152397   1.882   2.951   5.883 -1.5251  1.4844  0.2400
10302TIP3    H252398   1.908   3.067   5.789  1.4014 -0.6255 -1.7366
10303TIP3   OH252399   0.507   5.261   2.069  0.2963  0.3353  0.2433
10303TIP3    H152400   0.566   5.189   2.048  1.7420  1.4363  0.3270
10303TIP3    H252401   0.436   5.254   2.005  1.6385  0.2253 -1.3005
10304TIP3   OH252402   4.599   3.317   5.481  0.4436 -0.6910 -0.3958
10304TIP3    H152403   4.533   3.271   5.428 -1.3006  1.3767 -0.1685
10304TIP3    H252404   4.650   3.367   5.417 -0.2182  0.0513 -0.3736
10305TIP3   OH252405   3.291   4.395   5.304  0.0133  0.4487  0.4193
10305TIP3    H152406   3.219   4.422   5.247 -0.3909 -1.2305  0.0716
10305TIP3    H252407   3.251   4.386   5.391 -0.8159 -2.4811 -0.1300
10306TIP3   OH252408   4.691   6.055   2.238 -0.0052  0.1654  0.3044
10306TIP3    H152409   4.665   5.987   2.300  0.1913 -0.4203 -0.2435
10306TIP3    H252410   4.727   6.007   2.164 -0.8284  0.8361 -0.5484
10307TIP3   OH252411   4.203   0.105  12.654  0.5624  1.1466  0.2682
10307TIP3    H152412   4.262   0.038  12.690  1.8072  2.5185  0.8778
10307TIP3    H252413   4.254   0.148  12.586 -1.4461 -0.7908 -2.6948
10308TIP3   OH252414   4.993   3.101   1.203 -0.6734 -0.2143 -0.9531
10308TIP3    H152415   4.979   3.008   1.185  3.1463 -1.1535 -0.0141
10308TIP3    H252416   5.065   3.103   1.267 -0.2277  3.3919 -1.3379
10309TIP3   OH252417   4.391   1.863   5.034 -0.1325 -0.2965  0.4830
10309TIP3    H152418   4.425   1.933   5.089 -0.1795  0.4587 -0.4198
10309TIP3    H252419   4.397   1.898   4.945 -0.5093 -1.2967  0.0555
10310TIP3   OH252420   1.124   1.792   5.748  0.2044  0.3864  0.0319
10310TIP3    H152421   1.128   1.808   5.843 -0.2591 -1.1234  0.3360
10310TIP3    H252422   1.105   1.877   5.710 -0.8968  0.7936  1.4165
10311TIP3   OH252423   2.401   2.856  16.920  0.8875 -0.1448 -0.3788
10311TIP3    H152424   2.456   2.779  16.903  1.2891 -0.1968  1.0113
10311TIP3    H252425   2.396   2.860  17.015 -0.8643  0.3401 -0.4637
10312TIP3   OH252426   5.674   3.784   6.330 -0.2284 -0.0770  0.0877
10312TIP3    H152427   5.592   3.734   6.329 -0.4476  0.2701  0.5507
10312TIP3    H252428   5.660   3.854   6.267 -0.7612  0.7214  1.0698
10313TIP3   OH252429   2.162   3.175   6.785  0.1727 -0.3009 -0.7420
10313TIP3    H152430   2.181   3.143   6.873 -1.0153  1.5411  0.2560
10313TIP3    H252431   2.248   3.192   6.747  0.6958  0.0560  0.5407
10314TIP3   OH252432   2.142   6.583  12.692  0.0019 -0.2111  0.0611
10314TIP3    H152433   2.161   6.553  12.781 -0.2530  1.3856  0.6845
10314TIP3    H252434   2.225   6.574  12.645  0.6491  0.7111  1.0003
10315TIP3   OH252435   1.407   3.308   0.749 -0.0941  0.7182  0.1837
10315TIP3    H152436   1.468   3.256   0.696 -0.2666  0.1252  0.5591
10315TIP3    H252437   1.441   3.398   0.743 -0.5558  0.8081 -1.5678
10316TIP3   OH252438   1.194   1.925  14.586 -0.1909 -0.3038  0.0659
10316TIP3    H152439   1.244   1.873  14.649 -0.5352  0.5598  1.0897
10316TIP3    H252440   1.119   1.957  14.636 -1.0628 -0.4938 -1.0940
10317TIP3   OH252441   3.974   2.064   0.938  0.0950 -0.6197  0.4672
10317TIP3    H152442   3.925   2.026   0.865  0.1461 -0.8451  0.5520
10317TIP3    H252443   3.992   1.991   0.996 -1.2476 -0.2015  1.4497
10318TIP3   OH252444   5.011   2.205   5.944  0.1069 -0.1474 -0.1791
10318TIP3    H152445   4.988   2.281   5.889 -0.8192 -0.8598 -0.8219
10318TIP3    H252446   5.034   2.243   6.029  0.4542  0.9087 -0.7235
10319TIP3   OH252447   5.348   3.135  12.913 -0.5763 -0.2479  0.0203
10319TIP3    H152448   5.280   3.138  12.846 -2.4006 -0.8870  1.7614
10319TIP3    H252449   5.331   3.055  12.962  1.3699 -0.3573  0.6179
10320TIP3   OH252450   3.165   4.407   5.564  0.1347  0.6824  0.2362
10320TIP3    H152451   3.172   4.409   5.660  1.0639 -0.8270  0.2293
10320TIP3    H252452   3.176   4.498   5.538 -0.6853  1.2116  1.5804
10321TIP3   OH252453   0.152   0.622   6.518  0.8013  0.6381  0.5360
10321TIP3    H152454   0.124   0.549   6.463  1.3524  1.2124 -0.5230
10321TIP3    H252455   0.115   0.601   6.604  1.0899 -0.9751  0.3090
10322TIP3   OH252456   2.731   5.411  16.852 -0.1720  0.0942 -0.1665
10322TIP3    H152457   2.779   5.402  16.934  1.7097 -2.4129 -1.4369
10322TIP3    H252458   2.797   5.435  16.787 -1.7259  2.7256 -0.9518
10323TIP3   OH252459   0.090   0.408  14.533  0.7122 -0.4626  0.3265
10323TIP3    H152460   0.005   0.396  14.575  0.0142 -0.2511 -0.9810
10323TIP3    H252461   0.140   0.330  14.555 -0.6824 -1.7443 -0.8916
10324TIP3   OH252462   6.452   1.980  12.491 -0.0840 -0.0084  0.9625
10324TIP3    H152463   6.421   1.890  12.492 -0.0559 -0.0278  0.5216
10324TIP3    H252464   6.544   1.974  12.466 -0.2823  0.1884  0.1506
10325TIP3   OH252465   2.394   2.820  14.409 -0.1467  0.1713 -0.1471
10325TIP3    H152466   2.386   2.891  14.472  0.3082  1.1977 -1.1955
10325TIP3    H252467   2.388   2.740  14.461 -0.5874  0.9755  1.0724
10326TIP3   OH252468   6.480   6.228  15.770 -0.1957  0.0437  0.0678
10326TIP3    H152469   6.564   6.219  15.725  0.9370 -2.2615  2.3518
10326TIP3    H252470   6.460   6.139  15.800 -2.2079  0.9758  1.7214
10327TIP3   OH252471   0.049   2.284   6.856 -0.8816 -0.0168 -0.0275
10327TIP3    H152472   0.122   2.232   6.887 -0.6578  0.2370 -0.1238
10327TIP3    H252473  -0.029   2.236   6.884 -0.6838  0.0594  0.6577
10328TIP3   OH252474   5.158   3.463  16.586  0.0847  0.1636 -0.6174
10328TIP3    H152475   5.239   3.432  16.547  0.4035  0.8766 -0.5222
10328TIP3    H252476   5.161   3.432  16.677 -0.5417 -1.2755 -1.0431
10329TIP3   OH252477   3.980   2.532  15.833 -0.3843 -0.4081  0.7532
10329TIP3    H152478   3.974   2.497  15.744  1.0504 -1.8749  1.1623
10329TIP3    H252479   4.043   2.473  15.876  2.9098  3.1331  1.3066
10330TIP3   OH252480   2.988   2.240   5.329 -0.2680 -0.0176 -0.0467
10330TIP3    H152481   3.034   2.301   5.272  2.4174  0.8146  2.7488
10330TIP3    H252482   2.942   2.296   5.392  0.2123 -0.8602  1.0832
10331TIP3   OH252483   6.183   3.161  13.765 -0.7371  0.4232  0.1104
10331TIP3    H152484   6.164   3.161  13.672  0.0375 -1.8231 -0.0969
10331TIP3    H252485   6.122   3.226  13.802 -1.5322  0.8434 -1.8263
10332TIP3   OH252486   2.324   0.887  11.325 -0.2418  0.1756  0.4056
10332TIP3    H152487   2.343   0.900  11.418 -0.2389  2.9688  0.1031
10332TIP3    H252488   2.398   0.836  11.292 -0.4166 -1.1678  1.9598
10333TIP3   OH252489   4.369   4.786  16.046  0.5792 -0.2195 -0.0153
10333TIP3    H152490   4.342   4.747  16.129  1.1664  2.8614  1.7828
10333TIP3    H252491   4.464   4.783  16.048  0.5974 -0.8220 -1.0054
10334TIP3   OH252492   5.776   2.281   5.197 -0.0656 -0.1281 -0.5659
10334TIP3    H152493   5.797   2.368   5.165 -0.0241 -0.0536 -0.3333
10334TIP3    H252494   5.680   2.278   5.197 -0.0772  0.2196  0.2483
10335TIP3   OH252495   4.183   1.300  11.038  0.0561  0.6652 -0.4584
10335TIP3    H152496   4.152   1.241  10.969 -0.1862 -0.4066  0.5316
10335TIP3    H252497   4.114   1.297  11.104  1.4324 -0.3804  0.9956
10336TIP3   OH252498   6.360   4.208  12.716  0.2369  0.6142  0.0689
10336TIP3    H152499   6.370   4.119  12.750 -4.9163 -0.2918 -0.0525
10336TIP3    H252500   6.364   4.198  12.621  0.2716  0.6298  0.0685
10337TIP3   OH252501   5.546   3.383  17.226  0.0491  0.0258 -0.0131
10337TIP3    H152502   5.463   3.343  17.251  0.8370 -0.4785  2.0040
10337TIP3    H252503   5.581   3.325  17.158 -1.1631  0.1606 -0.7714
10338TIP3   OH252504   0.562   2.738   4.273  0.4272  0.4315 -0.2962
10338TIP3    H152505   0.551   2.825   4.234  1.1294  1.6237  1.9341
10338TIP3    H252506   0.630   2.751   4.340 -1.2307 -1.2301  1.8452
10339TIP3   OH252507   3.462   1.142  15.605 -0.1108 -0.2539 -0.0668
10339TIP3    H152508   3.534   1.079  15.599  0.8610  0.7601  0.4636
10339TIP3    H252509   3.399   1.113  15.539 -0.2720 -2.4597  0.9558
10340TIP3   OH252510   1.894   2.005   1.739 -0.3814  0.7551  0.1083
10340TIP3    H152511   1.854   1.921   1.718  1.8968  0.1369 -2.5087
10340TIP3    H252512   1.928   1.995   1.828  1.3472 -1.8495 -0.7292
10341TIP3   OH252513   6.635   0.679   6.775  0.4145  0.8465 -0.8888
10341TIP3    H152514   6.712   0.623   6.766  0.5068  0.9583 -0.7956
10341TIP3    H252515   6.562   0.617   6.782  0.5403  0.7327 -0.5567
10342TIP3   OH252516   0.051   6.450  15.559 -0.2789  0.0032  0.0483
10342TIP3    H152517  -0.007   6.512  15.603  0.7005  0.6991  0.3843
10342TIP3    H252518  -0.007   6.401  15.500 -1.0818  1.2119 -0.2066
10343TIP3   OH252519   1.736   2.767   0.137 -0.1889 -0.2726 -0.3311
10343TIP3    H152520   1.816   2.819   0.130  0.3582 -1.0176  0.2937
10343TIP3    H252521   1.724   2.729   0.050  1.3086 -1.8200  0.0763
10344TIP3   OH252522   3.258   1.084   1.227  0.2764 -0.7660 -0.4272
10344TIP3    H152523   3.198   1.010   1.216  0.6555 -1.0455 -0.6061
10344TIP3    H252524   3.244   1.113   1.317 -0.8240 -0.2233 -0.7483
10345TIP3   OH252525   3.616   1.294   3.098 -0.9254 -0.7083 -0.1179
10345TIP3    H152526   3.565   1.323   3.022 -0.8075 -1.8847 -0.6719
10345TIP3    H252527   3.707   1.310   3.073 -0.9051 -0.7312 -0.0583
10346TIP3   OH252528   0.278   2.364  11.505  0.1240  0.2965  0.4421
10346TIP3    H152529   0.286   2.410  11.422  0.9015 -0.1203  0.2779
10346TIP3    H252530   0.332   2.286  11.495 -0.1227  0.0189  1.1831
10347TIP3   OH252531   2.715   0.382   5.030  0.2781  0.2848  0.0818
10347TIP3    H152532   2.699   0.452   4.967  0.0003  0.8487  0.7681
10347TIP3    H252533   2.669   0.306   4.994 -0.0305  0.6476 -0.2994
10348TIP3   OH252534   4.755   6.788  13.657  0.0615 -0.3015 -0.1861
10348TIP3    H152535   4.772   6.834  13.739  3.8275 -0.9707 -0.3974
10348TIP3    H252536   4.790   6.700  13.671 -2.1354 -1.4812 -1.5340
10349TIP3   OH252537   4.453   5.808  16.319 -0.0059  0.3030 -0.2783
10349TIP3    H152538   4.495   5.722  16.319 -1.7253 -0.7457  3.4785
10349TIP3    H252539   4.386   5.802  16.251 -0.3615 -1.5034  0.1946
10350TIP3   OH252540   4.479   1.281  11.022 -0.1897  0.0382  0.0767
10350TIP3    H152541   4.464   1.235  10.940  0.1012  0.2260 -0.0842
10350TIP3    H252542   4.488   1.212  11.088  1.2206 -0.1745 -0.3195
10351TIP3   OH252543   5.418   0.438   0.010  0.3905 -0.6943  0.6652
10351TIP3    H152544   5.338   0.434   0.062 -0.0311  3.3147  0.6435
10351TIP3    H252545   5.454   0.525   0.027  2.6837 -0.8814 -2.2902
10352TIP3   OH252546   0.218   1.613  15.520  0.2793  0.3819 -0.0160
10352TIP3    H152547   0.231   1.593  15.612 -0.1804 -0.5571 -0.1418
10352TIP3    H252548   0.160   1.689  15.520  0.7562  0.7495  0.4711
10353TIP3   OH252549   1.041   1.595   0.709  0.7219 -0.4919 -0.3130
10353TIP3    H152550   1.114   1.642   0.668 -0.1997  1.8510  0.5195
10353TIP3    H252551   0.986   1.566   0.637  1.6263 -0.8162 -0.8831
10354TIP3   OH252552   6.042   4.418  11.513  0.0570 -0.1738  0.0249
10354TIP3    H152553   6.020   4.441  11.423  0.7604 -1.6728 -0.5826
10354TIP3    H252554   6.021   4.325  11.519  2.6079 -0.8190  0.4899
10355TIP3   OH252555   4.604   1.206  12.884  0.5655  0.6013 -0.2171
10355TIP3    H152556   4.698   1.205  12.905  0.5068  0.1237  0.0274
10355TIP3    H252557   4.561   1.233  12.965  0.3041 -1.7001  0.4614
10356TIP3   OH252558   4.646   6.052   3.465  0.2128  0.8648  0.0764
10356TIP3    H152559   4.571   6.070   3.407 -0.3557  0.3761  0.6494
10356TIP3    H252560   4.680   6.139   3.486  1.6862  1.0502 -2.5563
10357TIP3   OH252561   2.936   5.440   4.508 -0.3068 -0.3147  0.1796
10357TIP3    H152562   2.860   5.498   4.505  0.0972  0.4311  2.3849
10357TIP3    H252563   2.995   5.481   4.572  0.3807 -2.6984  1.1751
10358TIP3   OH252564   2.173   4.276  13.673  0.0755  0.4151  0.6758
10358TIP3    H152565   2.191   4.359  13.631 -0.5968  0.1465 -0.1534
10358TIP3    H252566   2.100   4.294  13.733 -2.4845 -0.2451 -1.9911
10359TIP3   OH252567   2.640   0.117   0.105 -0.1001  0.1181 -0.3032
10359TIP3    H152568   2.602   0.030   0.091  1.5384 -0.5092 -1.1382
10359TIP3    H252569   2.729   0.099   0.135  0.1541  1.5146 -0.1774
10360TIP3   OH252570   2.094   6.722  13.559  0.1276  0.2717  0.3760
10360TIP3    H152571   2.032   6.666  13.604  0.4940 -0.2149  0.2847
10360TIP3    H252572   2.164   6.738  13.623  1.6734 -2.0667 -0.5853
10361TIP3   OH252573   5.954   2.020  14.340 -0.4805 -0.2204  0.1487
10361TIP3    H152574   5.967   1.936  14.296  0.6687 -0.2888  0.5925
10361TIP3    H252575   6.001   2.083  14.286 -0.4775 -0.0278  0.3747
10362TIP3   OH252576   5.459   5.378  11.077  0.2350 -1.1110 -0.1424
10362TIP3    H152577   5.512   5.416  11.006 -0.0196  1.2632  0.8511
10362TIP3    H252578   5.512   5.390  11.155  0.2821 -3.2317  0.2126
10363TIP3   OH252579   0.120   4.126   1.082  0.1390  0.3822 -0.2861
10363TIP3    H152580   0.078   4.209   1.106  3.9879  1.9150  2.0208
10363TIP3    H252581   0.196   4.152   1.031  1.9491 -1.5666  1.2570
10364TIP3   OH252582   5.701   1.544   5.694  0.6354 -0.3976 -0.0577
10364TIP3    H152583   5.676   1.539   5.786 -0.9172  0.2235 -0.4142
10364TIP3    H252584   5.797   1.546   5.695  0.6599 -1.1828  1.4863
10365TIP3   OH252585   4.072   6.692  11.789 -0.8645  0.1641  0.5781
10365TIP3    H152586   4.134   6.627  11.822 -0.3309  0.8642  0.9722
10365TIP3    H252587   4.107   6.717  11.704 -0.7741  0.3364  0.6661
10366TIP3   OH252588   5.855   5.388   4.789  0.0397  0.4129  0.1538
10366TIP3    H152589   5.914   5.459   4.761 -1.0439  1.0059 -0.7047
10366TIP3    H252590   5.773   5.433   4.810 -0.7188 -0.5986 -0.5691
10367TIP3   OH252591   2.848   4.876   3.739 -0.0977 -0.3986  0.6574
10367TIP3    H152592   2.788   4.859   3.811 -0.7297 -0.5495  0.1027
10367TIP3    H252593   2.918   4.811   3.750 -0.7184 -1.0967  0.5447
10368TIP3   OH252594   5.997   0.932  13.869 -0.2025 -0.7998  0.6732
10368TIP3    H152595   5.921   0.894  13.825 -0.7792  1.7208 -0.6898
10368TIP3    H252596   6.072   0.896  13.822 -0.7282 -0.4728 -0.4757
10369TIP3   OH252597   1.875   6.262  15.805  0.4248 -0.4139 -0.0342
10369TIP3    H152598   1.797   6.307  15.836 -0.2710 -0.2005 -1.9977
10369TIP3    H252599   1.925   6.328  15.758  1.0850 -0.8970 -0.0360
10370TIP3   OH252600   4.770   4.407   3.826 -0.0094  0.1928  0.0387
10370TIP3    H152601   4.810   4.326   3.796 -1.2615 -0.4090 -0.0559
10370TIP3    H252602   4.742   4.451   3.746  1.5434  1.2188  0.0198
10371TIP3   OH252603   2.698   4.776  13.836  0.1368 -0.1861  0.0094
10371TIP3    H152604   2.738   4.691  13.854 -0.9714 -0.3861  1.7239
10371TIP3    H252605   2.773   4.834  13.819  1.0332 -1.0648  0.8163
10372TIP3   OH252606   0.708   3.921  15.110  0.4079  0.1844 -0.2426
10372TIP3    H152607   0.754   3.976  15.173  0.0970 -1.2982  1.3711
10372TIP3    H252608   0.760   3.840  15.107 -0.8811 -0.6782 -0.0347
10373TIP3   OH252609   0.707   3.666   6.549  0.5558 -0.3141  0.0580
10373TIP3    H152610   0.794   3.695   6.522  1.5672 -2.4187  0.8136
10373TIP3    H252611   0.705   3.681   6.643 -1.3139  2.9631 -0.3528
10374TIP3   OH252612   0.217   1.580   1.305 -0.3062 -0.5674 -0.1287
10374TIP3    H152613   0.249   1.670   1.300 -0.4921 -0.5188 -0.5605
10374TIP3    H252614   0.257   1.544   1.384  1.9468 -0.9428 -1.3469
10375TIP3   OH252615   0.489   4.587   5.859 -0.5187  0.3777  0.1927
10375TIP3    H152616   0.557   4.529   5.823 -1.5814 -0.9419  0.2221
10375TIP3    H252617   0.538   4.656   5.903  0.8136 -0.5215  0.1960
10376TIP3   OH252618   5.835   6.208   5.798  0.5344 -0.2643 -0.0989
10376TIP3    H152619   5.816   6.140   5.733  2.1459 -0.9468  0.1015
10376TIP3    H252620   5.900   6.264   5.755  0.6769  0.0061  0.4620
10377TIP3   OH252621   4.766   5.725   2.639 -0.7553 -0.3148 -0.2032
10377TIP3    H152622   4.731   5.636   2.631 -0.6895 -0.4697  1.0505
10377TIP3    H252623   4.730   5.758   2.722 -0.3232  0.6199 -0.3719
10378TIP3   OH252624   3.016   3.225  15.877 -0.6107  0.2574  0.8106
10378TIP3    H152625   3.043   3.160  15.812 -2.0056  0.7561 -0.3224
10378TIP3    H252626   2.980   3.174  15.950 -0.7061 -0.2686  0.4016
10379TIP3   OH252627   2.402   0.323  16.468  0.2849  0.2576 -0.2362
10379TIP3    H152628   2.461   0.393  16.495  2.0250 -0.6594 -1.3838
10379TIP3    H252629   2.356   0.358  16.392  1.3170  0.1339 -0.9499
10380TIP3   OH252630   1.271   6.086  14.178  0.9783  0.5300 -0.4205
10380TIP3    H152631   1.212   6.151  14.216  2.1998  0.6532  1.3322
10380TIP3    H252632   1.270   6.105  14.084  1.1642  2.9671  0.0180
10381TIP3   OH252633   0.846   4.410   3.549  0.7217  0.3347  0.1304
10381TIP3    H152634   0.858   4.492   3.597  0.5595  0.5481 -0.1838
10381TIP3    H252635   0.832   4.438   3.458  1.8933 -0.0957 -0.1955
10382TIP3   OH252636   1.668   2.885   2.819 -0.0016 -0.2172  0.0857
10382TIP3    H152637   1.580   2.879   2.781  0.8706 -1.4960 -1.8668
10382TIP3    H252638   1.726   2.851   2.751  1.8654 -0.9128  1.9279
10383TIP3   OH252639   3.865   2.357   4.996 -0.2543 -0.2076  0.0111
10383TIP3    H152640   3.938   2.308   5.034 -0.4058 -0.5553 -0.1409
10383TIP3    H252641   3.811   2.291   4.954 -1.4688 -0.1573  1.4215
10384TIP3   OH252642   2.771   1.156  16.691 -0.2403 -0.5133  0.7298
10384TIP3    H152643   2.829   1.199  16.628  0.4274 -1.0889  0.9329
10384TIP3    H252644   2.826   1.146  16.770 -1.2736  0.8773  1.6775
10385TIP3   OH252645   5.958   3.609  15.485 -0.0899 -0.0499  0.3430
10385TIP3    H152646   6.030   3.615  15.423  1.1959 -1.0657  1.6609
10385TIP3    H252647   5.970   3.683  15.544  0.9677 -1.1555  1.5993
10386TIP3   OH252648   6.259   0.045  14.860 -0.0744  0.7526 -0.4446
10386TIP3    H152649   6.192  -0.024  14.858 -1.4691  2.0516  0.1551
10386TIP3    H252650   6.236   0.103  14.788  0.1379  1.4576  0.0468
10387TIP3   OH252651   2.328   6.136  15.495 -0.0996 -0.0438 -0.6069
10387TIP3    H152652   2.301   6.221  15.529 -0.5408 -0.4496  0.0657
10387TIP3    H252653   2.249   6.101  15.453 -0.0908 -0.3924 -0.3342
10388TIP3   OH252654   2.170   1.619  11.835 -0.4944 -0.2890  0.1832
10388TIP3    H152655   2.113   1.610  11.911 -0.9142  4.3245  0.7173
10388TIP3    H252656   2.259   1.615  11.871 -0.6922  2.2980  1.1445
10389TIP3   OH252657   5.095   2.205   4.079 -0.0690  0.3419 -0.2209
10389TIP3    H152658   5.151   2.132   4.054 -1.4253 -0.7066 -0.3201
10389TIP3    H252659   5.070   2.188   4.170 -0.1596  0.8303 -0.1491
10390TIP3   OH252660   0.026   2.947  10.523 -0.2852  0.7992  0.1999
10390TIP3    H152661   0.045   3.032  10.563 -0.9045  0.1781  1.8828
10390TIP3    H252662   0.066   2.883  10.581 -1.5349 -0.1554  0.0698
10391TIP3   OH252663   5.586   5.895  11.562 -0.5266 -0.1522  0.2418
10391TIP3    H152664   5.552   5.861  11.644 -1.1126  1.1657  0.5801
10391TIP3    H252665   5.680   5.909  11.578 -0.5704 -0.2415  0.5675
10392TIP3   OH252666   4.912   0.835   2.517 -0.3850  0.2618 -0.4552
10392TIP3    H152667   4.992   0.813   2.470 -0.2648 -0.4656  0.0547
10392TIP3    H252668   4.931   0.810   2.608 -0.8219  1.0678 -0.1394
10393TIP3   OH252669   2.418   3.619   4.160  0.1793 -0.4641 -0.0319
10393TIP3    H152670   2.348   3.561   4.191 -0.5533  0.8663  0.9144
10393TIP3    H252671   2.413   3.612   4.064  0.8809 -2.7981  0.0317
10394TIP3   OH252672   6.029   4.441  13.536  0.4083 -0.5789 -0.0875
10394TIP3    H152673   6.050   4.413  13.625 -2.2042  0.2332  0.8959
10394TIP3    H252674   5.970   4.373  13.503  2.0880 -1.3557 -1.6145
10395TIP3   OH252675   5.330   6.011  16.702  0.7194  0.3350 -0.5246
10395TIP3    H152676   5.408   6.055  16.734  2.5912 -1.2260 -2.6455
10395TIP3    H252677   5.356   5.920  16.690 -1.0593 -0.0139 -2.4088
10396TIP3   OH252678   0.603   2.233  10.911  0.8860  0.3425 -0.2204
10396TIP3    H152679   0.645   2.283  10.840 -0.0965  1.8545  0.2060
10396TIP3    H252680   0.670   2.229  10.980  1.6352 -0.6137 -0.9707
10397TIP3   OH252681   0.651   4.153  16.334 -0.0424  0.6186 -0.6297
10397TIP3    H152682   0.655   4.059  16.352 -0.2877  0.4295 -1.4798
10397TIP3    H252683   0.568   4.181  16.373  0.0570  0.4872 -0.3261
10398TIP3   OH252684   1.884   2.652   0.621  0.0752 -0.0815 -0.3392
10398TIP3    H152685   1.978   2.654   0.640 -0.1988 -1.3944  1.4319
10398TIP3    H252686   1.878   2.612   0.534  1.1337 -0.2019 -0.3704
10399TIP3   OH252687   2.975   5.016  16.529 -0.0157  0.5829 -0.0446
10399TIP3    H152688   3.056   5.067  16.539  0.1908  0.3412 -0.4930
10399TIP3    H252689   2.979   4.981  16.440 -0.0290 -0.4448  0.3466
10400TIP3   OH252690   4.230   1.921   4.112  0.4327 -0.2727  0.2510
10400TIP3    H152691   4.213   1.929   4.206  2.4056 -1.4102  0.7515
10400TIP3    H252692   4.288   1.995   4.093  0.3698 -0.2880  0.0035
10401TIP3   OH252693   3.454   5.852   0.919  0.0945 -0.5955  0.3437
10401TIP3    H152694   3.368   5.871   0.956  0.8098  0.8565  1.3464
10401TIP3    H252695   3.476   5.765   0.953 -1.1697 -1.2122 -0.3417
10402TIP3   OH252696   2.251   0.687  13.297 -0.0300 -0.1726 -0.1901
10402TIP3    H152697   2.300   0.621  13.247  0.2537  0.2262 -0.4478
10402TIP3    H252698   2.255   0.765  13.242  1.2126  0.5972  0.9408
10403TIP3   OH252699   0.658   6.768  15.421 -0.0992 -0.0293 -0.0957
10403TIP3    H152700   0.701   6.687  15.394  0.5568  0.3587 -0.2528
10403TIP3    H252701   0.579   6.740  15.466 -0.0670 -0.7454 -0.4680
10404TIP3   OH252702   0.581   0.906   5.292  0.2625  0.4020  0.3935
10404TIP3    H152703   0.533   0.830   5.259  1.3447 -0.1213 -0.0420
10404TIP3    H252704   0.673   0.878   5.292  0.4591  0.8343  2.6320
10405TIP3   OH252705   4.952   3.358  14.467  0.3005  0.6752 -0.0006
10405TIP3    H152706   5.002   3.395  14.540 -0.0505  1.5980 -0.2032
10405TIP3    H252707   4.967   3.420  14.395 -1.0559  0.9442 -0.0825
10406TIP3   OH252708   4.045   3.934  11.736 -0.6386 -0.1579 -0.6183
10406TIP3    H152709   4.140   3.949  11.726 -0.3065 -1.1502  0.8184
10406TIP3    H252710   4.008   4.022  11.740  0.0491  0.2706 -2.3236
10407TIP3   OH252711   2.721   2.281  12.756  0.7074 -0.2120  0.3315
10407TIP3    H152712   2.766   2.310  12.677 -0.7906  1.4627  0.0112
10407TIP3    H252713   2.789   2.276  12.823  1.9478 -1.4057 -0.9815
10408TIP3   OH252714   4.111   4.671  15.974 -0.4379 -0.2152  0.2176
10408TIP3    H152715   4.063   4.753  15.986 -1.0868 -1.0190  4.9875
10408TIP3    H252716   4.203   4.695  15.988 -0.2917  0.0588 -1.0919
10409TIP3   OH252717   1.442   2.917  17.281 -0.3595  0.0327 -0.5151
10409TIP3    H152718   1.507   2.858  17.241 -0.2407  0.0235 -0.3123
10409TIP3    H252719   1.422   2.876  17.365  0.0509  0.5080 -0.1808
10410TIP3   OH252720   0.622   4.597   2.962 -0.1762  0.2059 -0.1497
10410TIP3    H152721   0.613   4.503   2.977  1.7874 -0.0850 -0.4595
10410TIP3    H252722   0.686   4.625   3.027 -2.2217  1.7740  1.2888
10411TIP3   OH252723   0.610   2.660   2.060 -0.0539  0.1949 -0.0704
10411TIP3    H152724   0.573   2.584   2.015 -0.1754  0.0498  0.2756
10411TIP3    H252725   0.703   2.641   2.065  0.0655  0.5208 -0.8643
10412TIP3   OH252726   0.438   2.353  13.831  0.3432  0.1337 -0.2517
10412TIP3    H152727   0.463   2.280  13.775 -0.7900  0.7833 -1.6633
10412TIP3    H252728   0.369   2.398  13.783  2.2700  3.3006 -0.3502
10413TIP3   OH252729   3.601   0.117   6.164  0.5253 -0.7395  0.0851
10413TIP3    H152730   3.637   0.098   6.250 -1.0927 -2.4784  0.4386
10413TIP3    H252731   3.536   0.048   6.149  0.1660  0.0028 -2.1683
10414TIP3   OH252732   4.598   4.221  15.995  0.0650  0.1238  0.2373
10414TIP3    H152733   4.521   4.171  16.020  0.7765 -1.0215  0.1825
10414TIP3    H252734   4.573   4.312  16.011 -0.7930 -0.3165  1.5561
10415TIP3   OH252735   6.544   6.103   4.019  0.1447  0.0030 -0.3047
10415TIP3    H152736   6.573   6.089   4.109 -0.1551 -1.8008 -0.4393
10415TIP3    H252737   6.451   6.077   4.019  0.4443 -1.1922 -1.3558
10416TIP3   OH252738   5.393   4.819  15.336 -0.7013 -0.0360  0.1854
10416TIP3    H152739   5.315   4.813  15.281 -2.4711 -4.6515  2.6811
10416TIP3    H252740   5.385   4.905  15.379 -4.1709 -0.1019 -0.0655
10417TIP3   OH252741   1.720   2.784   5.646 -0.8072 -0.7251 -0.8398
10417TIP3    H152742   1.732   2.763   5.553 -0.7216 -0.1538 -0.9627
10417TIP3    H252743   1.659   2.858   5.645 -1.0749 -0.9396 -0.4218
10418TIP3   OH252744   3.623   3.328  12.500  0.3632  0.5656 -0.5546
10418TIP3    H152745   3.610   3.289  12.587  3.1720  0.5307 -0.0546
10418TIP3    H252746   3.552   3.392  12.492 -0.9086 -0.5402  1.0693
10419TIP3   OH252747   0.784   1.775  16.815  0.2519 -0.2693  0.1860
10419TIP3    H152748   0.747   1.713  16.879  0.0749 -1.2845 -0.8583
10419TIP3    H252749   0.878   1.765  16.825  0.2401  0.3712  1.0225
10420TIP3   OH252750   1.605   3.953   4.224  0.8093 -0.0556  0.2415
10420TIP3    H152751   1.526   3.983   4.179  1.5829  0.4949 -0.7720
10420TIP3    H252752   1.674   3.958   4.159  1.2819 -2.7618  0.3933
10421TIP3   OH252753   5.066   4.194   4.637  0.3248 -0.0056 -0.3590
10421TIP3    H152754   5.015   4.142   4.575 -0.5914  0.6064 -0.1351
10421TIP3    H252755   5.043   4.159   4.723  0.6567 -0.0436 -0.2830
10422TIP3   OH252756   4.814   5.574   2.178  0.0917  0.2434  0.5859
10422TIP3    H152757   4.742   5.612   2.127 -1.2244 -0.6076  1.7393
10422TIP3    H252758   4.853   5.509   2.119 -0.6184  0.1409  0.2111
10423TIP3   OH252759   2.919   3.956   2.812 -0.0528  0.1569 -0.2186
10423TIP3    H152760   2.824   3.960   2.805 -0.1766 -1.3157  0.3540
10423TIP3    H252761   2.950   4.037   2.771 -1.5829  1.1305  0.4988
10424TIP3   OH252762   4.120   1.564  13.165  0.2155 -0.2250  0.4886
10424TIP3    H152763   4.152   1.538  13.079  0.7839 -0.2489  0.6984
10424TIP3    H252764   4.062   1.638  13.148 -0.0258 -0.5169  0.0471
10425TIP3   OH252765   2.167   5.536  17.123 -0.3124 -0.4005 -0.1437
10425TIP3    H152766   2.244   5.544  17.180 -0.2453  0.1293 -0.3032
10425TIP3    H252767   2.143   5.443  17.129  0.8146 -0.7501 -0.7201
10426TIP3   OH252768   3.058   4.001  11.610  0.4385  0.1819 -0.5845
10426TIP3    H152769   3.051   4.086  11.654  0.6113  0.6229 -1.3957
10426TIP3    H252770   2.970   3.962  11.618  0.8662 -0.4956  1.5936
10427TIP3   OH252771   1.611   6.013   1.694  0.3068  0.0785  0.6706
10427TIP3    H152772   1.624   6.068   1.771 -0.3230 -0.3892  1.1211
10427TIP3    H252773   1.692   6.021   1.644  0.0323  1.8281  0.4605
10428TIP3   OH252774   2.508   2.599  16.930 -0.2871 -0.2411  0.2661
10428TIP3    H152775   2.585   2.638  16.972 -2.0634  1.1896  2.4159
10428TIP3    H252776   2.516   2.506  16.949 -0.3631  0.1897  2.9023
10429TIP3   OH252777   5.850   6.119  16.030  0.2647 -0.1330  0.0797
10429TIP3    H152778   5.799   6.042  16.053 -0.7448  0.4207 -0.2518
10429TIP3    H252779   5.876   6.157  16.114  1.3354 -1.1862  0.2420
10430TIP3   OH252780   2.630   6.661  13.537 -0.3910 -1.1663  0.4776
10430TIP3    H152781   2.615   6.723  13.465  1.5179  1.7444  2.3404
10430TIP3    H252782   2.698   6.602  13.504  0.4383  0.1126 -0.1928
10431TIP3   OH252783   0.454   2.914  13.202 -0.5387  0.6659  0.1080
10431TIP3    H152784   0.418   2.911  13.113  0.6207 -0.7211 -0.3464
10431TIP3    H252785   0.469   3.007  13.219 -1.7757  1.0353 -0.7238
10432TIP3   OH252786   0.001   6.711  14.486 -0.4651 -0.0074 -0.3117
10432TIP3    H152787  -0.017   6.763  14.408  1.1019 -0.0419 -0.7235
10432TIP3    H252788   0.011   6.621  14.454  3.0290  0.3561 -0.5889
10433TIP3   OH252789   2.806   3.790  13.529  0.1554  0.2911  0.2001
10433TIP3    H152790   2.737   3.723  13.525  1.0807 -0.7353  0.6977
10433TIP3    H252791   2.768   3.861  13.581 -0.0360 -0.9160  1.8202
10434TIP3   OH252792   4.602   3.888  17.015 -0.2523  0.2107  0.0194
10434TIP3    H152793   4.606   3.815  17.076  2.2394 -0.5910 -0.9631
10434TIP3    H252794   4.686   3.933  17.026 -0.8243  1.6083 -0.9771
10435TIP3   OH252795   2.576   4.129  15.160  0.1629  0.0774 -0.2249
10435TIP3    H152796   2.539   4.059  15.214  2.0035 -0.4891  0.3691
10435TIP3    H252797   2.573   4.207  15.215 -1.0171  0.2663 -0.5405
10436TIP3   OH252798   6.295   3.618  15.276  0.1315  0.1176 -0.3885
10436TIP3    H152799   6.313   3.710  15.256  0.8800  0.4578  1.6813
10436TIP3    H252800   6.333   3.570  15.203  1.9556  1.3287 -0.2883
10437TIP3   OH252801   1.384   3.507  11.291 -0.0344  0.3222  0.1831
10437TIP3    H152802   1.307   3.556  11.262 -1.5215 -1.9526  0.1243
10437TIP3    H252803   1.387   3.521  11.386  0.4573  1.6877 -0.0029
10438TIP3   OH252804   3.825   0.269  14.762 -0.2061 -0.0863 -0.4527
10438TIP3    H152805   3.767   0.194  14.747 -1.1373  0.3573  0.7022
10438TIP3    H252806   3.769   0.333  14.805  1.2781  0.1457  1.2418
10439TIP3   OH252807   5.193   6.192  13.077 -0.0985  0.8856  0.3396
10439TIP3    H152808   5.258   6.139  13.122  0.5132  1.0599 -0.3266
10439TIP3    H252809   5.241   6.269  13.047  0.4108 -0.8061 -3.7095
10440TIP3   OH252810   0.382   3.909   4.948  0.6025 -0.5257 -0.1269
10440TIP3    H152811   0.290   3.884   4.943  0.4268 -0.7035  2.5910
10440TIP3    H252812   0.389   3.986   4.891 -1.5464  0.2793  0.5916
10441TIP3   OH252813   5.526   3.698  13.558  0.3161 -0.1069  0.3558
10441TIP3    H152814   5.460   3.760  13.529  0.2536  0.6551  2.0114
10441TIP3    H252815   5.596   3.705  13.494  0.6481  2.2808  0.9048
10442TIP3   OH252816   6.195   2.336   5.081  0.4614  0.2601 -0.2400
10442TIP3    H152817   6.221   2.294   4.999  0.6232 -2.3430  1.0358
10442TIP3    H252818   6.148   2.267   5.129  0.1331  1.7728  1.7305
10443TIP3   OH252819   3.591   4.942  12.509  0.4615 -0.6605  0.6480
10443TIP3    H152820   3.510   4.990  12.526 -0.0313 -0.8144 -1.1055
10443TIP3    H252821   3.648   4.965  12.582 -0.6210  0.6500  1.1187
10444TIP3   OH252822   5.678   2.076  12.000 -0.3202  0.9191  0.2307
10444TIP3    H152823   5.648   1.989  12.027  2.2415  0.0694  0.6624
10444TIP3    H252824   5.599   2.129  11.996 -1.7961 -1.0679  1.3374
10445TIP3   OH252825   4.888   3.745  16.590 -0.2688  0.1810  0.2318
10445TIP3    H152826   4.889   3.833  16.552 -0.0336 -0.9333 -2.5460
10445TIP3    H252827   4.798   3.733  16.620 -0.9043  0.6156 -1.3635
10446TIP3   OH252828   5.530   2.660   2.518 -0.3941 -0.1305 -0.1997
10446TIP3    H152829   5.582   2.733   2.485 -1.6829 -0.1265 -2.4155
10446TIP3    H252830   5.580   2.582   2.494 -0.3863 -0.0540 -0.4399
10447TIP3   OH252831   0.516   6.021   1.522  0.5567  0.5857 -0.3803
10447TIP3    H152832   0.485   5.967   1.449 -1.1495  0.5252  0.3427
10447TIP3    H252833   0.447   6.013   1.588  0.9955  2.4428  0.3524
10448TIP3   OH252834   2.917   0.259  13.476  0.0821  0.6610 -0.0346
10448TIP3    H152835   2.828   0.292  13.462 -0.3908 -1.2225 -2.0648
10448TIP3    H252836   2.907   0.188  13.540  0.8407  3.0361  2.9526
10449TIP3   OH252837   1.013   0.079  12.731  0.1509 -0.1544 -0.4769
10449TIP3    H152838   1.034   0.119  12.815 -3.3523  1.3682 -0.1253
10449TIP3    H252839   0.992   0.153  12.674 -1.5056 -1.2610 -1.3963
10450TIP3   OH252840   2.844   3.154   3.763 -0.1050 -0.0072 -0.2721
10450TIP3    H152841   2.831   3.089   3.694  0.5627  0.7850 -1.1775
10450TIP3    H252842   2.939   3.165   3.768 -0.2033  2.4660 -1.7265
10451TIP3   OH252843   1.443   2.969   4.999 -0.3139  0.5251 -0.1756
10451TIP3    H152844   1.362   2.925   5.027  0.0800 -1.0714 -1.3871
10451TIP3    H252845   1.426   3.062   5.014 -2.4737  0.2548 -0.6070
10452TIP3   OH252846   1.600   0.221   2.362  0.0112  0.2090  0.7620
10452TIP3    H152847   1.678   0.167   2.373  0.0569  0.0619 -0.2578
10452TIP3    H252848   1.570   0.203   2.273 -0.7728  0.8111  0.8947
10453TIP3   OH252849   6.716   5.377   4.142  0.0228 -0.5418 -0.2489
10453TIP3    H152850   6.671   5.332   4.071  0.0416  0.7461 -1.1182
10453TIP3    H252851   6.726   5.467   4.110  1.5494 -0.3477  0.6811
10454TIP3   OH252852   3.287   1.559  16.009  0.0636 -0.0655 -0.3244
10454TIP3    H152853   3.226   1.504  15.959  1.4077  0.3413 -2.5260
10454TIP3    H252854   3.260   1.547  16.100 -0.7151 -3.0902 -0.8423
10455TIP3   OH252855   1.432   0.870  12.155  0.3237  0.5773  0.1831
10455TIP3    H152856   1.376   0.797  12.180  0.7534  0.2202  0.1198
10455TIP3    H252857   1.408   0.941  12.216 -0.0044  0.3462  0.3263
10456TIP3   OH252858   3.767   0.366  12.224 -0.8456  0.1462  0.3685
10456TIP3    H152859   3.807   0.452  12.219 -0.1557 -0.0463  1.9758
10456TIP3    H252860   3.724   0.354  12.139  1.6574  0.7825 -1.0739
10457TIP3   OH252861   4.024   5.041  17.021 -0.2132 -0.0025  0.4907
10457TIP3    H152862   4.066   4.964  17.058  1.1060 -0.0338 -0.9411
10457TIP3    H252863   3.993   5.013  16.935 -1.0150  0.6777  0.5476
10458TIP3   OH252864   2.335   5.076   5.278 -0.1599 -0.0415 -0.4184
10458TIP3    H152865   2.276   5.004   5.257  0.9488 -1.2671  0.4808
10458TIP3    H252866   2.352   5.066   5.372  0.7698  0.8175 -0.4843
10459TIP3   OH252867   4.619   4.607   0.026  0.1902  0.3017  0.1274
10459TIP3    H152868   4.656   4.651   0.103  0.1926 -1.2066  1.0352
10459TIP3    H252869   4.669   4.643  -0.048  2.1195 -0.1961  1.1034
10460TIP3   OH252870   6.107   2.358  11.552  0.1652 -0.4892 -0.0518
10460TIP3    H152871   6.184   2.354  11.496  0.5901 -1.2217  0.5558
10460TIP3    H252872   6.139   2.330  11.638 -1.1975 -2.8639 -0.2423
10461TIP3   OH252873   2.877   1.156  16.262 -1.3543 -0.0298 -0.1228
10461TIP3    H152874   2.924   1.225  16.214 -1.7580 -0.6608 -1.4863
10461TIP3    H252875   2.937   1.132  16.333 -0.7420  0.9680 -0.2763
10462TIP3   OH252876   6.414   2.225   3.047  0.1692  0.5772  0.0564
10462TIP3    H152877   6.461   2.179   2.977  0.5263  0.6996  0.2156
10462TIP3    H252878   6.327   2.241   3.010 -0.6495 -1.9279  0.6770
10463TIP3   OH252879   5.665   1.972   1.246  0.0762  0.4554 -0.1932
10463TIP3    H152880   5.754   1.959   1.279 -0.3608 -0.2671  0.7900
10463TIP3    H252881   5.614   1.902   1.289 -0.8499  0.5028 -1.1801
10464TIP3   OH252882   0.778   1.592  13.242 -0.1330  0.6877 -0.7187
10464TIP3    H152883   0.865   1.591  13.202 -0.2551  0.3572 -0.9791
10464TIP3    H252884   0.795   1.603  13.336  0.1532  1.4544 -0.8526
10465TIP3   OH252885   2.778   4.569   1.673  0.2128  0.2554  0.3145
10465TIP3    H152886   2.808   4.639   1.732 -1.2616  0.7125  0.5514
10465TIP3    H252887   2.858   4.542   1.627  0.6749  2.8842 -0.6272
10466TIP3   OH252888   1.137   6.724   0.417  0.4731 -0.1300 -0.3746
10466TIP3    H152889   1.147   6.658   0.485  0.6389  0.5774  0.3107
10466TIP3    H252890   1.210   6.708   0.357  2.3912  1.2507  1.3844
10467TIP3   OH252891   3.583   2.423  16.763 -0.2307 -0.4617 -0.0386
10467TIP3    H152892   3.655   2.487  16.760 -0.0795 -0.5866 -3.4446
10467TIP3    H252893   3.618   2.350  16.815  0.9052  0.7367  0.9610
10468TIP3   OH252894   2.213   0.065  14.315 -0.2752 -0.1157 -0.5014
10468TIP3    H152895   2.162   0.083  14.236 -1.3887 -0.3603  0.1287
10468TIP3    H252896   2.155   0.009  14.368 -0.0694  1.0515  1.0319
10469TIP3   OH252897   2.754   1.927  16.573 -0.5284 -0.5981 -0.1852
10469TIP3    H152898   2.665   1.959  16.558 -0.5314 -0.8842 -0.8123
10469TIP3    H252899   2.765   1.930  16.668 -2.0386 -2.7849  0.1219
10470TIP3   OH252900   2.959   2.728   2.508  0.2416 -0.0624  0.2631
10470TIP3    H152901   2.883   2.690   2.553  0.6862 -1.1449  0.1189
10470TIP3    H252902   2.921   2.796   2.452 -0.4237  0.6721  1.5375
10471TIP3   OH252903   2.878   2.559  12.311  0.3857  0.4459 -0.4445
10471TIP3    H152904   2.794   2.595  12.337 -0.8459 -2.4100 -0.0344
10471TIP3    H252905   2.885   2.579  12.217 -0.2832  1.5046 -0.2819
10472TIP3   OH252906   0.016   1.273  16.226  0.3606  0.0494 -0.4006
10472TIP3    H152907   0.068   1.219  16.286 -0.7366  0.9620  1.4327
10472TIP3    H252908   0.055   1.360  16.232  0.0053  0.2372 -0.7541
10473TIP3   OH252909   0.838   0.766  11.329  0.2610  0.1069  0.5623
10473TIP3    H152910   0.750   0.800  11.346  0.7053  1.5978  0.0707
10473TIP3    H252911   0.847   0.690  11.387 -1.3595 -0.1003  0.5656
10474TIP3   OH252912   1.970   5.648  14.842  0.3986 -0.1378  0.1475
10474TIP3    H152913   1.896   5.679  14.895  0.9385  0.1073  0.7623
10474TIP3    H252914   1.942   5.563  14.809 -0.0658 -0.1493  0.5682
10475TIP3   OH252915   1.895   3.950  16.162 -0.4461  0.0206  0.1888
10475TIP3    H152916   1.971   3.899  16.189  0.4375  1.2903  0.1828
10475TIP3    H252917   1.824   3.885  16.154  0.7800 -1.2896 -0.4737
10476TIP3   OH252918   5.334   2.006  16.671 -0.2337  0.3907 -0.7193
10476TIP3    H152919   5.360   1.915  16.687  0.3048  0.6856  0.0834
10476TIP3    H252920   5.315   2.008  16.577  1.9813  0.0032 -1.2310
10477TIP3   OH252921   3.282   2.736   4.130  0.2191 -0.1250 -0.1356
10477TIP3    H152922   3.238   2.653   4.116  1.6572 -1.2686  1.7038
10477TIP3    H252923   3.235   2.777   4.202  2.0181 -1.3626  1.8537
10478TIP3   OH252924   1.687   3.640  13.494  0.0530 -0.5243  0.1506
10478TIP3    H152925   1.602   3.661  13.454  0.7575  0.1791 -1.0327
10478TIP3    H252926   1.680   3.673  13.584 -0.4781  0.7254 -0.3309
10479TIP3   OH252927   6.589   2.136   2.402  0.1093  0.3582 -0.4574
10479TIP3    H152928   6.499   2.106   2.413  0.2449  0.3509  0.7733
10479TIP3    H252929   6.640   2.055   2.398  0.1546  0.3723 -0.1975
10480TIP3   OH252930   4.926   5.829   3.850 -0.5938 -0.2784  0.0933
10480TIP3    H152931   4.909   5.767   3.921 -0.4029 -0.5309 -0.0790
10480TIP3    H252932   4.966   5.776   3.781 -1.8213 -0.2551 -0.6516
10481TIP3   OH252933   4.658   3.605  12.575  0.0701 -0.1475 -0.1528
10481TIP3    H152934   4.619   3.631  12.491 -0.5116  0.1233  0.1908
10481TIP3    H252935   4.601   3.646  12.640 -0.0659 -1.1914  0.3892
10482TIP3   OH252936   6.543   4.858   1.268  0.0273  0.4744 -0.1027
10482TIP3    H152937   6.452   4.886   1.273 -0.1246  0.0477 -0.4559
10482TIP3    H252938   6.590   4.933   1.232 -0.1441  0.7734  0.2871
10483TIP3   OH252939   0.832   5.346   3.464  0.1668  0.1710  0.7795
10483TIP3    H152940   0.895   5.280   3.435  0.8071  1.7374 -1.6948
10483TIP3    H252941   0.886   5.414   3.505 -0.3116  0.0160  1.7014
10484TIP3   OH252942   6.324   2.051   2.429 -0.1841  0.2610 -0.2814
10484TIP3    H152943   6.360   2.023   2.513 -0.1861  0.0221 -0.3616
10484TIP3    H252944   6.264   1.981   2.403 -0.6687  0.6315 -0.1727
10485TIP3   OH252945   0.274   4.814  14.833 -0.2336  0.0366  0.3614
10485TIP3    H152946   0.228   4.756  14.772  0.3371  0.0216 -0.0741
10485TIP3    H252947   0.325   4.872  14.776 -1.6946  1.7719  0.7487
10486TIP3   OH252948   2.994   6.016  15.217 -0.4619 -0.4958  0.2914
10486TIP3    H152949   2.997   5.945  15.153  2.6514 -0.8002  0.6267
10486TIP3    H252950   3.036   6.090  15.172  4.3708 -1.4785  2.6168
10487TIP3   OH252951   5.032   4.236  11.493  0.1291  0.1880  0.2632
10487TIP3    H152952   5.102   4.298  11.511 -0.3841  0.6374  0.7408
10487TIP3    H252953   5.077   4.153  11.474  0.7762  0.3981  0.8403
10488TIP3   OH252954   2.823   4.371   1.859 -0.0820 -0.3103  0.5170
10488TIP3    H152955   2.808   4.444   1.799 -0.8851 -0.9920 -0.1352
10488TIP3    H252956   2.901   4.397   1.908 -0.7853  1.3157  0.8429
10489TIP3   OH252957   1.062   4.481   0.237 -0.1354 -0.2418 -0.0554
10489TIP3    H152958   1.077   4.536   0.161 -0.7316  0.0858  0.0561
10489TIP3    H252959   1.072   4.392   0.205 -0.6442 -0.1132 -0.5736
10490TIP3   OH252960   4.624   2.142  13.496 -0.4903 -0.5904  0.2502
10490TIP3    H152961   4.532   2.134  13.472 -1.2446 -2.5648  3.1172
10490TIP3    H252962   4.624   2.139  13.592  2.5939 -1.1291  0.3582
10491TIP3   OH252963   6.296   4.974  10.978 -0.4200 -0.0278  0.0062
10491TIP3    H152964   6.365   5.039  10.991 -0.9641  0.5077  0.2685
10491TIP3    H252965   6.245   5.008  10.904 -0.9570  0.0660  0.4153
10492TIP3   OH252966   6.367   2.095  15.841 -0.5127 -0.7403 -0.5264
10492TIP3    H152967   6.277   2.083  15.872  0.4125  1.4111  3.7285
10492TIP3    H252968   6.359   2.156  15.768 -2.5261  1.1224  1.0913
10493TIP3   OH252969   2.688   0.727  14.427  0.2850  0.0708 -0.5015
10493TIP3    H152970   2.740   0.659  14.469 -1.1650 -2.0779 -1.9351
10493TIP3    H252971   2.616   0.743  14.488 -0.7262 -1.5815 -1.1860
10494TIP3   OH252972   4.738   4.583  16.285  0.4201 -0.4837 -0.4726
10494TIP3    H152973   4.723   4.488  16.290  1.1355 -0.5782 -0.1028
10494TIP3    H252974   4.742   4.611  16.376 -0.0180 -0.0541 -0.5823
10495TIP3   OH252975   6.146   2.997   0.340 -0.0021 -0.4018 -0.0447
10495TIP3    H152976   6.134   2.939   0.415 -1.1830  0.3680  0.4044
10495TIP3    H252977   6.233   3.035   0.352  0.2748 -1.1330  0.3179
10496TIP3   OH252978   6.189   6.065  12.594 -0.8005  0.2348  0.0453
10496TIP3    H152979   6.147   5.979  12.586 -1.3937  0.5744 -0.5861
10496TIP3    H252980   6.214   6.088  12.505 -0.3819  0.5908  0.2506
10497TIP3   OH252981   5.721   2.770   3.209 -0.7487 -0.5257  0.2044
10497TIP3    H152982   5.667   2.819   3.147  0.3274 -1.3629 -1.4635
10497TIP3    H252983   5.708   2.678   3.186  0.8812 -0.7811  0.1417
10498TIP3   OH252984   1.777   3.681  10.550  0.4001 -0.1615 -0.5546
10498TIP3    H152985   1.734   3.756  10.591 -1.3935  0.1829 -2.8973
10498TIP3    H252986   1.738   3.605  10.594 -0.2880  0.2225 -0.4810
10499TIP3   OH252987   2.014   5.273  12.527  0.2359  0.1976 -0.3175
10499TIP3    H152988   1.932   5.238  12.493 -0.2694  0.4722  0.5937
10499TIP3    H252989   2.044   5.206  12.589 -0.4636  1.0897  1.0374
10500TIP3   OH252990   4.912   2.288  14.609  0.0247  0.2084 -0.0927
10500TIP3    H152991   4.892   2.378  14.585 -0.4281 -0.0026 -0.5175
10500TIP3    H252992   5.007   2.284  14.610  0.1438  1.3802  2.4915
10501TIP3   OH252993   6.108   3.932  16.315 -0.3597  0.0461 -0.7215
10501TIP3    H152994   6.164   3.999  16.276  0.7485 -1.4729 -1.8676
10501TIP3    H252995   6.153   3.909  16.397 -0.5821  0.4679 -0.4749
10502TIP3   OH252996   0.283   5.525  14.649 -0.5878 -0.0645 -0.1319
10502TIP3    H152997   0.264   5.528  14.555  2.5540  0.2926 -0.8783
10502TIP3    H252998   0.292   5.617  14.674  1.4207 -0.1602 -0.2653
10503TIP3   OH252999   1.904   2.274  14.936 -0.5092  0.6136  0.0701
10503TIP3    H153000   1.949   2.354  14.963 -0.7381  0.5371  0.6815
10503TIP3    H253001   1.839   2.258  15.004 -1.5683  0.7905 -0.8614
10504TIP3   OH253002   3.591   6.244  16.503  0.3833  0.2055 -0.2403
10504TIP3    H153003   3.565   6.172  16.560 -1.4837 -0.6862 -2.1071
10504TIP3    H253004   3.514   6.261  16.449  1.9658  1.1703 -2.3129
10505TIP3   OH253005   3.342   4.902   4.062 -0.2481  0.3690  0.1461
10505TIP3    H153006   3.402   4.952   4.007 -0.7220  0.0981 -0.6395
10505TIP3    H253007   3.373   4.917   4.151  1.2910 -0.1395 -0.2591
10506TIP3   OH253008   0.151   3.739   2.718  0.2942 -0.5410  0.9439
10506TIP3    H153009   0.061   3.766   2.703  1.2217  1.9972 -0.8247
10506TIP3    H253010   0.152   3.645   2.700 -1.6314 -0.2592 -1.0532
10507TIP3   OH253011   3.320   3.786   6.218  0.5569  0.4695  0.3334
10507TIP3    H153012   3.262   3.785   6.143  1.5865 -0.2082 -0.4953
10507TIP3    H253013   3.407   3.800   6.181  0.9389  1.4787  1.5329
10508TIP3   OH253014   3.353   4.535  11.321  0.3012  0.2465 -0.2103
10508TIP3    H153015   3.413   4.462  11.303 -0.1255 -0.3318  0.6875
10508TIP3    H253016   3.372   4.598  11.251  1.1270 -0.4370 -0.6278
10509TIP3   OH253017   4.342   5.638  12.144  0.2261  0.0193 -0.1869
10509TIP3    H153018   4.310   5.653  12.232 -0.8413  1.6550 -0.8123
10509TIP3    H253019   4.437   5.632  12.154  0.1421  0.3988  1.0412
10510TIP3   OH253020   0.962   4.166  14.079 -0.6791 -0.0590  0.3524
10510TIP3    H153021   1.057   4.175  14.085 -0.6611 -1.0022  1.7964
10510TIP3    H253022   0.948   4.076  14.049 -1.1381 -0.1606  0.8660
10511TIP3   OH253023   3.143   5.364   1.837 -1.0138 -0.3464 -0.5495
10511TIP3    H153024   3.083   5.332   1.904 -0.8300 -1.8168 -1.0448
10511TIP3    H253025   3.168   5.285   1.787  0.0479  0.4723 -1.3735
10512TIP3   OH253026   6.695   1.866  12.538 -0.2931 -0.0550  0.2808
10512TIP3    H153027   6.780   1.884  12.580  0.8891  0.3610 -2.1365
10512TIP3    H253028   6.656   1.797  12.593  1.7789 -0.5443  1.2596
10513TIP3   OH253029   1.072   2.219  10.873  0.1045 -0.0520  0.0833
10513TIP3    H153030   1.120   2.177  10.802  1.6015  2.2293 -0.3862
10513TIP3    H253031   1.013   2.281  10.830 -0.4704 -0.0975  0.7758
10514TIP3   OH253032   3.594   2.652  13.067 -0.3017 -0.0686  0.4294
10514TIP3    H153033   3.616   2.559  13.072  0.4249  0.1067  0.6546
10514TIP3    H253034   3.609   2.675  12.975  3.0220  0.6220  1.0255
10515TIP3   OH253035   5.533   2.028  13.962  0.2591  0.3280  0.1254
10515TIP3    H153036   5.501   1.949  13.918  0.8963  1.3557 -2.3663
10515TIP3    H253037   5.468   2.095  13.940  1.2412  1.1594 -0.3244
10516TIP3   OH253038   2.602   2.240  14.778  0.1454 -0.3685  0.3014
10516TIP3    H153039   2.645   2.248  14.693  0.8667 -2.2765  0.4406
10516TIP3    H253040   2.673   2.244  14.842 -0.0387 -1.8730  0.6290
10517TIP3   OH253041   3.815   1.758  14.307  0.1491 -0.1785 -0.6312
10517TIP3    H153042   3.893   1.807  14.281  1.6210 -2.2525 -0.4704
10517TIP3    H253043   3.845   1.667  14.308 -1.9040 -0.8943  0.9287
10518TIP3   OH253044   4.421   0.060   2.023  0.7383 -0.0664 -0.0773
10518TIP3    H153045   4.354   0.101   1.968 -0.5720 -1.1803  0.6353
10518TIP3    H253046   4.411  -0.034   2.008  2.7360 -0.2371 -0.5886
10519TIP3   OH253047   5.183   4.868  12.110 -0.1487 -0.6217  0.1921
10519TIP3    H153048   5.087   4.868  12.101  0.0166 -0.8573 -2.1548
10519TIP3    H253049   5.207   4.776  12.105  0.2796 -0.4764 -0.5726
10520TIP3   OH253050   3.074   0.669  11.417  0.4788 -0.3338 -0.2903
10520TIP3    H153051   3.105   0.627  11.337 -0.2604 -0.7187 -0.3868
10520TIP3    H253052   3.150   0.717  11.450  0.6661  0.2199 -1.4733
10521TIP3   OH253053   5.887   6.268  12.342  0.7120 -0.6024  0.4794
10521TIP3    H153054   5.884   6.208  12.268  0.3285 -0.0004 -0.0085
10521TIP3    H253055   5.880   6.355  12.303 -0.7657 -0.3090  1.2824
10522TIP3   OH253056   4.140   3.260   5.472  0.1270 -0.3308 -0.2218
10522TIP3    H153057   4.192   3.340   5.463  1.3195 -1.3030 -2.9060
10522TIP3    H253058   4.200   3.189   5.448 -0.7729 -2.1544  2.4411
10523TIP3   OH253059   4.317   3.374  14.300 -0.0839  0.7952  0.0695
10523TIP3    H153060   4.248   3.387  14.366  0.3825  0.0138  0.7329
10523TIP3    H253061   4.388   3.332  14.348  0.8110  1.4666 -0.6413
10524TIP3   OH253062   6.051   5.845  14.637 -0.2812  0.1672  0.2052
10524TIP3    H153063   5.996   5.845  14.558  0.5422 -0.0701 -0.3757
10524TIP3    H253064   6.129   5.893  14.611  0.0758 -0.0784  0.8240
10525TIP3   OH253065   0.689   4.752  13.587  0.1535 -0.4397  0.3144
10525TIP3    H153066   0.771   4.716  13.554  1.1375  1.8539  0.0663
10525TIP3    H253067   0.687   4.726  13.679  3.1649  2.4831  1.4363
10526TIP3   OH253068   1.517   0.706   3.004 -0.4580  0.1006 -0.0320
10526TIP3    H153069   1.546   0.708   3.095 -0.1106  0.2397 -0.1471
10526TIP3    H253070   1.523   0.797   2.975 -1.2053  0.1737  0.0038
10527TIP3   OH253071   1.093   3.356   5.033 -0.4307 -0.0735  0.0886
10527TIP3    H153072   1.109   3.424   5.098  0.8364 -0.2724  0.0242
10527TIP3    H253073   1.031   3.396   4.971  0.5025  1.1429 -0.1103
10528TIP3   OH253074   3.528   5.154   0.748  0.4792  0.1276 -0.6208
10528TIP3    H153075   3.574   5.201   0.678 -0.0734  1.5629 -0.0605
10528TIP3    H253076   3.438   5.185   0.742  0.5320  0.7232  1.0588
10529TIP3   OH253077   4.468   1.160   6.338  0.3328  0.0114 -0.3692
10529TIP3    H153078   4.530   1.191   6.403 -0.7823  1.5526  0.0111
10529TIP3    H253079   4.520   1.109   6.276  1.6416 -0.2809  0.9400
10530TIP3   OH253080   6.136   0.078   6.579  0.1923  0.5516 -0.3597
10530TIP3    H153081   6.122  -0.008   6.540 -0.6885  0.9609 -0.9821
10530TIP3    H253082   6.092   0.074   6.664  1.3179 -0.0433  0.2063
10531TIP3   OH253083   1.602   3.468   3.387  0.9369  0.5852 -0.0201
10531TIP3    H153084   1.596   3.376   3.413  2.3902  1.0037  2.0725
10531TIP3    H253085   1.633   3.513   3.466  1.4193  2.6921 -1.3326
10532TIP3   OH253086   6.137   1.339   0.834  0.3805  0.1033 -0.0918
10532TIP3    H153087   6.219   1.339   0.884  0.5519 -1.5256 -0.3384
10532TIP3    H253088   6.153   1.280   0.761 -1.0770 -0.3958 -0.0407
10533TIP3   OH253089   5.354   1.245   2.477  0.2966  0.0190  0.2201
10533TIP3    H153090   5.423   1.211   2.420 -0.3134  0.5587 -0.8759
10533TIP3    H253091   5.298   1.169   2.494  0.0035  0.0241 -0.6386
10534TIP3   OH253092   4.109   0.774   5.241 -0.3267  0.0730 -0.2624
10534TIP3    H153093   4.085   0.800   5.152  1.4419  0.8317 -0.5546
10534TIP3    H253094   4.195   0.813   5.255  0.2677 -1.5988  1.0969
10535TIP3   OH253095   1.727   2.317  12.992 -0.7501 -0.1073 -0.4552
10535TIP3    H153096   1.738   2.269  13.074 -0.6316 -0.0821 -0.4550
10535TIP3    H253097   1.680   2.257  12.935  0.5926 -0.7581 -0.9214
10536TIP3   OH253098   4.421   6.543  11.190 -0.0838  0.2453 -0.0585
10536TIP3    H153099   4.398   6.469  11.247  0.5193  0.0340 -0.0859
10536TIP3    H253100   4.475   6.600  11.245 -0.6960  0.7636  0.0197
10537TIP3   OH253101   4.141   4.748   2.561  0.0037  0.1188  0.4389
10537TIP3    H153102   4.186   4.832   2.562  1.4370 -0.6089 -0.1188
10537TIP3    H253103   4.183   4.698   2.491 -1.0640 -0.9421  0.5023
10538TIP3   OH253104   3.611   4.256   4.742  0.1692 -0.4687  0.1056
10538TIP3    H153105   3.547   4.184   4.741 -1.5392  0.9756 -0.6211
10538TIP3    H253106   3.619   4.279   4.834  0.3794 -1.2863  0.3001
10539TIP3   OH253107   0.266   3.397   4.332  0.3157  0.2284 -0.3053
10539TIP3    H153108   0.269   3.397   4.428  0.5012 -1.2976 -0.2765
10539TIP3    H253109   0.336   3.456   4.305  0.7789  0.0696  0.5036
10540TIP3   OH253110   1.074   4.118  17.076 -0.3186 -0.0123 -0.8072
10540TIP3    H153111   1.138   4.112  17.005  0.2845 -1.1928 -0.1886
10540TIP3    H253112   0.997   4.070  17.044 -1.2174  1.9930 -1.8317
10541TIP3   OH253113   2.266   4.496  16.980  0.0924 -0.2840  0.2243
10541TIP3    H153114   2.211   4.552  17.035  1.7103  2.1302 -0.3983
10541TIP3    H253115   2.350   4.493  17.026 -0.1704 -3.0805  0.6874
10542TIP3   OH253116   4.419   6.527   0.749 -0.5253  0.0416 -0.6248
10542TIP3    H153117   4.432   6.621   0.759  2.1475 -0.3397  0.3532
10542TIP3    H253118   4.459   6.506   0.664  0.2572 -0.4108 -0.1516
10543TIP3   OH253119   4.682   5.186  15.483  0.4009 -0.8948  0.1915
10543TIP3    H153120   4.679   5.142  15.568  1.5482 -0.8715  0.2560
10543TIP3    H253121   4.754   5.144  15.436 -0.4071 -1.1005 -0.8865
10544TIP3   OH253122   0.138   2.957  17.370  0.0941 -0.0031  0.0508
10544TIP3    H153123   0.149   2.952  17.275 -0.5196 -1.8586  0.0427
10544TIP3    H253124   0.228   2.955  17.405  0.3368  1.0312 -0.4704
10545TIP3   OH253125   2.937   5.204  13.171 -0.1315 -0.0038  0.1694
10545TIP3    H153126   2.978   5.265  13.110 -0.1912  0.9012  1.0227
10545TIP3    H253127   2.860   5.250  13.204 -1.7219 -1.5402 -1.1578
10546TIP3   OH253128   4.210   5.196  13.713  0.4007  0.3422 -0.8877
10546TIP3    H153129   4.183   5.246  13.790  0.0582 -2.8053  1.2417
10546TIP3    H253130   4.306   5.190  13.722  0.2898 -0.6538 -0.2291
10547TIP3   OH253131   1.934   0.223  10.798  0.2372  0.0988  0.2550
10547TIP3    H153132   2.016   0.264  10.771 -0.1078  1.1726  0.7847
10547TIP3    H253133   1.868   0.291  10.788 -0.9321 -1.2314 -1.7873
10548TIP3   OH253134   4.481   3.743   1.847 -0.4201  0.1306 -0.6444
10548TIP3    H153135   4.439   3.757   1.932 -1.0864 -0.8867 -0.7904
10548TIP3    H253136   4.413   3.760   1.783  0.4867  2.4098 -1.0838
10549TIP3   OH253137   6.581   4.889  13.744  0.4625 -0.4101 -0.4266
10549TIP3    H153138   6.508   4.864  13.687 -1.4690  0.9488  1.3108
10549TIP3    H253139   6.580   4.985  13.743  0.4205 -0.3422  1.7575
10550TIP3   OH253140   1.288   1.627  12.178  0.0258 -0.9892  0.0537
10550TIP3    H153141   1.382   1.610  12.182  0.1430 -0.4507 -0.2128
10550TIP3    H253142   1.267   1.665  12.263  0.1906 -0.4817 -0.1246
10551TIP3   OH253143   6.011   2.615  14.935 -0.2527  0.0359 -0.1046
10551TIP3    H153144   5.943   2.652  14.992 -0.7930 -1.6306  0.3854
10551TIP3    H253145   5.966   2.590  14.855 -0.7023 -2.7920  0.9122
10552TIP3   OH253146   3.473   5.379   5.450  0.0827  0.3726 -0.1792
10552TIP3    H153147   3.470   5.323   5.528 -0.1210 -0.6333 -0.8830
10552TIP3    H253148   3.567   5.395   5.436  0.2840 -1.1673 -0.8831
10553TIP3   OH253149   4.107   4.139   0.048  0.0951  0.1476  0.5601
10553TIP3    H153150   4.152   4.190   0.116 -0.8996  0.8239  0.7303
10553TIP3    H253151   4.176   4.083   0.011  0.9814  0.8453  1.0990
10554TIP3   OH253152   5.701   3.106  16.221  0.5339 -0.0038  0.0369
10554TIP3    H153153   5.757   3.154  16.160 -0.5251  0.7556 -0.3776
10554TIP3    H253154   5.613   3.143  16.207  0.2148  0.0253  1.8465
10555TIP3   OH253155   4.897   0.950   2.074  0.2537 -0.2287  0.1130
10555TIP3    H153156   4.990   0.942   2.050  0.4778  1.8299  0.1585
10555TIP3    H253157   4.850   0.934   1.992  0.7712  1.0310 -0.4502
10556TIP3   OH253158   4.468   1.397   1.337  0.4144  0.1366  0.5326
10556TIP3    H153159   4.444   1.349   1.416  1.5708 -0.3673  0.5933
10556TIP3    H253160   4.437   1.341   1.265  0.6470 -0.0996  0.6156
10557TIP3   OH253161   6.674   4.514  11.962  0.4067  0.0869  0.0011
10557TIP3    H153162   6.748   4.544  12.014  1.1217 -0.9885 -0.3684
10557TIP3    H253163   6.633   4.447  12.016 -0.2845  0.6309  0.1757
10558TIP3   OH253164   3.939   5.139   3.702  0.4364  0.5077 -0.3134
10558TIP3    H153165   3.924   5.051   3.737  1.5938  1.0074  1.5843
10558TIP3    H253166   3.870   5.192   3.740  2.3037  1.2736  2.3193
10559TIP3   OH253167   0.760   5.860   0.373  0.3979 -0.9093 -0.4899
10559TIP3    H153168   0.783   5.900   0.288 -2.8774  0.2420 -0.9641
10559TIP3    H253169   0.690   5.798   0.353 -0.4374 -0.6308  1.3524
10560TIP3   OH253170   3.957   0.679   3.860  0.1493 -0.2390  0.5656
10560TIP3    H153171   4.011   0.601   3.849  0.0376 -0.0074 -2.1875
10560TIP3    H253172   3.974   0.731   3.782 -1.5193  1.4233  1.2492
10561TIP3   OH253173   6.723   4.795   0.057  0.1982 -0.1892 -0.0833
10561TIP3    H153174   6.788   4.794   0.128  0.1940 -0.2475 -0.0806
10561TIP3    H253175   6.754   4.863  -0.002  0.6354 -0.6784 -0.4303
10562TIP3   OH253176   0.294   5.573  11.779 -0.0227 -0.6874 -0.4228
10562TIP3    H153177   0.229   5.576  11.849  0.5941  1.4454  0.1272
10562TIP3    H253178   0.262   5.637  11.714  1.9398  1.1337  0.3105
10563TIP3   OH253179   5.076   3.352   3.856  0.4482  0.0182 -0.0595
10563TIP3    H153180   5.074   3.398   3.772  0.0278  3.2212  1.5491
10563TIP3    H253181   5.169   3.349   3.880  0.4891 -0.0941 -0.2353
10564TIP3   OH253182   1.086   2.176  12.508 -0.4524  0.1902  0.0123
10564TIP3    H153183   1.007   2.198  12.558 -0.0312 -0.2528  0.8957
10564TIP3    H253184   1.053   2.139  12.426 -1.1973 -0.9579  0.7872
10565TIP3   OH253185   6.218   4.542   6.422 -0.5455  0.1209 -0.0894
10565TIP3    H153186   6.220   4.481   6.496 -0.2698  0.5509  0.2621
10565TIP3    H253187   6.310   4.553   6.397 -0.7394 -1.2833 -1.5599
10566TIP3   OH253188   0.848   3.089   3.861  0.1746  0.1043 -0.6565
10566TIP3    H153189   0.823   3.173   3.823  1.6502  0.7538 -0.2882
10566TIP3    H253190   0.879   3.037   3.787 -0.1284  0.1191 -0.7951
10567TIP3   OH253191   3.457   1.142   5.721 -0.1589 -0.6221 -0.1889
10567TIP3    H153192   3.381   1.173   5.769  1.7620 -0.4644  3.0239
10567TIP3    H253193   3.454   1.046   5.731  0.4521 -0.5647  0.6908
10568TIP3   OH253194   3.312   1.727   0.706 -0.1809  0.3717  0.0624
10568TIP3    H153195   3.257   1.800   0.736 -0.3510  0.1428  0.3188
10568TIP3    H253196   3.278   1.651   0.754  0.4275  0.2443  0.3024
10569TIP3   OH253197   0.543   5.030  15.579 -0.4798 -0.3029 -0.6766
10569TIP3    H153198   0.542   5.098  15.647 -1.0614  0.4318 -1.3965
10569TIP3    H253199   0.493   5.068  15.507 -0.5684 -1.3944 -1.2080
10570TIP3   OH253200   3.249   2.262   2.255 -0.4247  0.0637 -0.1096
10570TIP3    H153201   3.228   2.355   2.242  0.6329  0.5560  1.3785
10570TIP3    H253202   3.341   2.256   2.230 -0.2311 -0.3748  0.7061
10571TIP3   OH253203   2.321   5.688  12.124 -0.3686  0.0703  0.0803
10571TIP3    H153204   2.241   5.740  12.117  0.5070  2.0146  2.8046
10571TIP3    H253205   2.392   5.750  12.110  0.7313 -1.2940 -0.6860
10572TIP3   OH253206   3.101   6.697   2.602  0.2708  0.8200  0.3169
10572TIP3    H153207   3.068   6.667   2.518  1.3130  1.5377 -0.3698
10572TIP3    H253208   3.094   6.792   2.599 -2.2115  0.7844  2.1454
10573TIP3   OH253209   4.602   3.605   6.015  0.2115 -0.0235  0.0815
10573TIP3    H153210   4.582   3.548   6.090  0.0292  0.1955  0.2012
10573TIP3    H253211   4.576   3.554   5.939 -0.6077  0.1663  0.2231
10574TIP3   OH253212   2.502   4.176  14.705  0.0321 -0.1033 -0.4156
10574TIP3    H153213   2.489   4.252  14.762 -4.7875  0.5886 -2.0160
10574TIP3    H253214   2.501   4.101  14.765  1.3600  0.8429  0.8606
10575TIP3   OH253215   2.011   3.294   4.484 -0.0986  0.2604  0.6178
10575TIP3    H153216   1.918   3.276   4.495  0.1510 -1.5215  0.0929
10575TIP3    H253217   2.014   3.378   4.437 -1.5086 -0.5314 -0.9949
10576TIP3   OH253218   3.529   2.253   1.223  0.0457 -0.5120  0.1350
10576TIP3    H153219   3.451   2.246   1.279 -0.4277 -1.9655 -0.6582
10576TIP3    H253220   3.570   2.167   1.228  1.7368  0.2926  0.6858
10577TIP3   OH253221   2.243   5.575  14.035 -0.3257  0.4437 -0.6552
10577TIP3    H153222   2.287   5.658  14.018  0.1074 -0.1084 -2.4307
10577TIP3    H253223   2.242   5.530  13.951  1.7211 -2.4486  0.6848
10578TIP3   OH253224   1.697   6.629   6.085  0.0688  0.0845 -0.2405
10578TIP3    H153225   1.775   6.683   6.101  0.9674 -0.7625 -1.5685
10578TIP3    H253226   1.715   6.584   6.002 -2.0683  0.2631 -0.8656
10579TIP3   OH253227   3.642   0.439   5.600  0.4197  0.0766  0.1238
10579TIP3    H153228   3.553   0.423   5.631  0.5318 -1.0448 -0.1158
10579TIP3    H253229   3.630   0.473   5.511  0.1700  1.7569  0.7641
10580TIP3   OH253230   3.545   1.288  15.832  1.0280 -0.7072  0.2742
10580TIP3    H153231   3.576   1.214  15.884  3.0748 -1.7655 -2.2245
10580TIP3    H253232   3.500   1.248  15.758 -0.6876  0.7035  0.4966
10581TIP3   OH253233   4.941   1.653  14.261 -0.1093  0.2506 -0.0049
10581TIP3    H153234   4.992   1.726  14.226 -0.0073  0.1621 -0.0426
10581TIP3    H253235   4.865   1.646  14.203 -0.0662  0.2608 -0.0622
10582TIP3   OH253236   2.655   0.777  12.788  0.3395 -0.0968 -0.5885
10582TIP3    H153237   2.698   0.733  12.715 -0.7104 -1.5714 -0.3671
10582TIP3    H253238   2.691   0.734  12.866  3.7568  3.4419  0.1262
10583TIP3   OH253239   3.173   1.869   6.436 -0.2126 -0.7194  0.6031
10583TIP3    H153240   3.115   1.836   6.368 -0.0909 -0.4498  0.3627
10583TIP3    H253241   3.249   1.810   6.433 -0.9893 -1.8274  1.7540
10584TIP3   OH253242   1.592   3.012   0.221  0.1093 -0.0741 -0.2025
10584TIP3    H153243   1.530   3.037   0.152  2.2672  2.2692 -1.4722
10584TIP3    H253244   1.629   2.929   0.190  1.4489  1.2037 -2.2826
10585TIP3   OH253245   4.749   1.190  14.202  0.5019 -0.1054 -0.5464
10585TIP3    H153246   4.658   1.176  14.226  1.2370 -0.5787  2.2768
10585TIP3    H253247   4.771   1.117  14.144 -0.5862 -0.6455 -0.2919
10586TIP3   OH253248   3.927   3.814  12.439  0.2922  0.3490  0.3869
10586TIP3    H153249   3.913   3.880  12.372 -1.1713  1.5386  1.7886
10586TIP3    H253250   4.013   3.835  12.477  0.1121  1.0681  0.4033
10587TIP3   OH253251   2.121   1.264   0.083 -0.0134  0.0256  0.0522
10587TIP3    H153252   2.167   1.180   0.080 -1.2885 -0.7560  1.0892
10587TIP3    H253253   2.083   1.267   0.171  0.9403  2.2322  0.4275
10588TIP3   OH253254   2.083   6.687  11.740 -0.3805 -0.4108  0.0603
10588TIP3    H153255   2.113   6.624  11.805  0.0626  2.0063  2.3695
10588TIP3    H253256   1.987   6.679  11.740 -0.5152  0.5458  2.2144
10589TIP3   OH253257   1.165   1.409   1.106  0.5727  0.2522 -0.2167
10589TIP3    H153258   1.226   1.338   1.124 -1.2954 -1.3920 -0.0012
10589TIP3    H253259   1.143   1.400   1.014 -1.9437 -1.4617  0.4424
10590TIP3   OH253260   5.329   1.211   1.635 -0.2426 -0.0481 -0.2980
10590TIP3    H153261   5.285   1.289   1.600  0.9653  0.5249 -0.5906
10590TIP3    H253262   5.373   1.172   1.559  0.7467  0.0749  0.1908
10591TIP3   OH253263   1.302   0.925  11.335 -0.5766  0.0558 -0.5586
10591TIP3    H153264   1.363   0.975  11.281 -0.9113 -1.3678 -2.3758
10591TIP3    H253265   1.224   0.915  11.280 -1.6983  0.1553  0.9471
10592TIP3   OH253266   5.512   4.264  12.069 -0.1898  0.0886 -0.4355
10592TIP3    H153267   5.441   4.216  12.025 -1.0142 -0.1516  1.0970
10592TIP3    H253268   5.503   4.354  12.038  0.1826 -0.3463 -1.8804
10593TIP3   OH253269   4.481   2.481   5.824  0.0943 -0.2408  0.2876
10593TIP3    H153270   4.522   2.455   5.906  0.1234 -1.6632 -0.1558
10593TIP3    H253271   4.397   2.435   5.824  0.8262 -1.6851 -1.2464
10594TIP3   OH253272   5.905   3.889   4.899 -0.6888  0.1569 -0.2342
10594TIP3    H153273   5.871   3.916   4.814 -1.5696 -0.0088  0.0599
10594TIP3    H253274   5.896   3.967   4.954  0.3288  0.4118 -0.4127
10595TIP3   OH253275   5.296   5.768   0.077  0.2294 -0.1684  0.2868
10595TIP3    H153276   5.268   5.777  -0.014  0.4741  0.7459  0.2906
10595TIP3    H253277   5.364   5.835   0.087  0.4337 -0.4860  1.0507
10596TIP3   OH253278   1.186   0.267   5.072 -0.4117 -0.6859 -0.0553
10596TIP3    H153279   1.166   0.177   5.046  0.1677 -1.0166  0.6082
10596TIP3    H253280   1.113   0.319   5.038  0.7155 -0.9355 -3.1491
10597TIP3   OH253281   0.391   3.924  17.123  0.7630 -0.1208  0.6879
10597TIP3    H153282   0.364   4.010  17.156  0.4664  0.0999 -0.0972
10597TIP3    H253283   0.372   3.864  17.195 -0.0942  0.3091  0.8436
10598TIP3   OH253284   1.036   0.631  13.399  0.5628 -0.5544  0.7656
10598TIP3    H153285   0.983   0.560  13.362 -1.1076  1.6564 -1.3998
10598TIP3    H253286   1.118   0.626  13.351 -0.2232  0.0285 -0.6932
10599TIP3   OH253287   3.109   6.372   2.459 -0.3333 -0.0347  0.2281
10599TIP3    H153288   3.142   6.397   2.373 -1.0979 -1.4187 -0.5047
10599TIP3    H253289   3.167   6.416   2.521 -1.0115  2.7488 -0.9177
10600TIP3   OH253290   3.666   4.809  14.467  0.3489 -0.1016 -0.3325
10600TIP3    H153291   3.749   4.820  14.422  1.0355 -2.8224  0.0526
10600TIP3    H253292   3.691   4.793  14.558 -0.7567  0.9725  0.1904
10601TIP3   OH253293   4.475   2.285   5.026 -0.8171  0.1906  0.0613
10601TIP3    H153294   4.408   2.322   5.083 -1.7899  0.4164 -1.1776
10601TIP3    H253295   4.428   2.264   4.945 -0.1641 -2.9349  0.3547
10602TIP3   OH253296   1.507   5.278  16.192 -0.0304 -0.1184 -0.1514
10602TIP3    H153297   1.484   5.236  16.276 -0.9882  0.6083 -0.0299
10602TIP3    H253298   1.445   5.241  16.129 -0.0831  0.2141 -0.2957
10603TIP3   OH253299   1.107   1.904  15.973 -0.4090  0.1144  0.3375
10603TIP3    H153300   1.022   1.949  15.979 -1.3693 -1.7835  1.7071
10603TIP3    H253301   1.108   1.869  15.884 -1.8563 -1.2389  0.8044
10604TIP3   OH253302   2.879   5.673   4.762  0.5621 -0.7948 -0.0726
10604TIP3    H153303   2.783   5.667   4.759  0.6155 -2.3678  0.2877
10604TIP3    H253304   2.897   5.716   4.845  0.1750 -1.9741  0.6512
10605TIP3   OH253305   5.150   0.066  16.141 -0.5171 -0.0691  0.1392
10605TIP3    H153306   5.065   0.101  16.167 -1.0969 -0.6997 -0.8479
10605TIP3    H253307   5.134  -0.027  16.125  1.0518 -0.9513  3.0219
10606TIP3   OH253308   0.734   3.847   2.672  0.2203  0.1039  0.5247
10606TIP3    H153309   0.757   3.928   2.627  1.6665 -0.3966  0.2831
10606TIP3    H253310   0.737   3.780   2.603  2.0752 -0.6107  1.2284
10607TIP3   OH253311   1.010   3.892   4.403  0.5475  0.4413  0.3237
10607TIP3    H153312   0.925   3.894   4.448 -0.5026 -1.0154 -1.4806
10607TIP3    H253313   1.038   3.984   4.401 -0.1484  0.7492  2.4022
10608TIP3   OH253314   1.674   0.086   4.058 -0.3049  0.3146  0.2775
10608TIP3    H153315   1.582   0.111   4.049 -0.8390 -1.4055  0.6709
10608TIP3    H253316   1.678  -0.004   4.028  0.6053 -0.7584  3.2565
10609TIP3   OH253317   0.383   5.273  11.891 -0.2207 -0.2422 -0.5025
10609TIP3    H153318   0.428   5.225  11.822 -0.4251 -1.8282  0.4077
10609TIP3    H253319   0.444   5.271  11.965 -0.2948  0.8025 -0.4006
10610TIP3   OH253320   3.373   4.903   1.632  0.3460  0.3228  0.7178
10610TIP3    H153321   3.333   4.970   1.576  0.7982  2.1694  2.5140
10610TIP3    H253322   3.369   4.823   1.579 -1.6577  1.3853 -0.8939
10611TIP3   OH253323   3.412   2.148  16.905 -0.1654 -0.1108  0.3387
10611TIP3    H153324   3.502   2.159  16.936  0.2209  0.5560 -0.9552
10611TIP3    H253325   3.374   2.236  16.911 -0.8470 -0.4519  1.1863
10612TIP3   OH253326   2.149   3.833   0.802  0.5843 -0.0532  0.5188
10612TIP3    H153327   2.149   3.927   0.784 -0.4751  0.0417  0.9148
10612TIP3    H253328   2.065   3.817   0.845  0.7979 -1.1664  0.5573
10613TIP3   OH253329   2.604   5.772  11.413 -0.7767 -0.0932 -0.0243
10613TIP3    H153330   2.558   5.721  11.480 -1.0883 -0.8328 -0.7947
10613TIP3    H253331   2.595   5.721  11.333 -0.2194  0.6811 -0.5944
10614TIP3   OH253332   1.499   0.181   3.885  0.6964  0.0480 -0.4849
10614TIP3    H153333   1.404   0.182   3.871  0.8568  1.1330 -1.6357
10614TIP3    H253334   1.536   0.150   3.802  1.3955  0.4736 -0.3395
10615TIP3   OH253335   1.924   1.276   2.020  0.1377  0.1633 -0.0776
10615TIP3    H153336   1.980   1.338   1.972 -1.7095  1.5639 -0.5490
10615TIP3    H253337   1.981   1.202   2.039  1.4239  0.2868 -2.9740
10616TIP3   OH253338   5.142   1.264  12.378 -0.2701 -0.0963 -0.4954
10616TIP3    H153339   5.197   1.250  12.455 -1.0189  1.2341  0.3089
10616TIP3    H253340   5.053   1.265  12.412 -0.6590 -0.1634 -1.4903
10617TIP3   OH253341   1.451   5.900   0.054  0.1993  0.1436  0.0878
10617TIP3    H153342   1.385   5.946   0.002 -1.3675 -1.3012  0.7060
10617TIP3    H253343   1.459   5.952   0.134 -0.3492  0.2259  0.0936
10618TIP3   OH253344   5.683   4.810   4.279  0.2065  0.5966  0.0222
10618TIP3    H153345   5.640   4.867   4.343 -0.5345  0.5894 -0.4692
10618TIP3    H253346   5.776   4.811   4.305 -0.1965 -0.0959  1.6366
10619TIP3   OH253347   6.105   6.659  11.576  0.4273 -0.6393 -0.6490
10619TIP3    H153348   6.166   6.636  11.646 -0.7455  2.5990  1.6430
10619TIP3    H253349   6.141   6.738  11.537 -1.5071  0.5482 -0.1732
10620TIP3   OH253350   1.558   2.970   5.429 -0.8583 -0.1785 -0.7419
10620TIP3    H153351   1.500   2.926   5.367 -0.9071 -0.3139 -0.6013
10620TIP3    H253352   1.519   2.953   5.515 -0.9693  0.2814 -0.6990
10621TIP3   OH253353   5.587   4.656  12.360 -0.0808 -0.2711 -0.5612
10621TIP3    H153354   5.643   4.702  12.423  0.2135 -0.6024 -0.5770
10621TIP3    H253355   5.610   4.695  12.276 -2.0325  1.7348 -0.2595
10622TIP3   OH253356   6.422   2.439   0.967 -0.6361 -0.0617 -0.5205
10622TIP3    H153357   6.439   2.436   1.061 -1.7678  0.1663 -0.2990
10622TIP3    H253358   6.505   2.411   0.927 -0.1447 -0.1622  0.5345
10623TIP3   OH253359   4.914   5.839  11.889 -0.1696 -0.8468 -0.1642
10623TIP3    H153360   4.978   5.841  11.818  0.6107 -1.5849  0.4875
10623TIP3    H253361   4.956   5.887  11.961 -0.7796 -0.4569 -0.0630
10624TIP3   OH253362   1.196   2.342   3.913 -0.2544 -0.1737 -0.1168
10624TIP3    H153363   1.129   2.349   3.846 -0.3746  0.0081  0.0228
10624TIP3    H253364   1.176   2.411   3.976 -0.3562 -0.5682  0.2945
10625TIP3   OH253365   4.306   4.092   1.551  0.2606 -0.0428  0.1369
10625TIP3    H153366   4.388   4.115   1.506  0.3253 -0.7838 -0.1478
10625TIP3    H253367   4.334   4.039   1.626  0.0426 -0.4911 -0.0890
10626TIP3   OH253368   0.568   2.589   3.779  0.3456 -0.0525 -0.6026
10626TIP3    H153369   0.542   2.647   3.708  0.2511  1.9373  0.9674
10626TIP3    H253370   0.638   2.535   3.741 -0.7200 -0.1222 -2.6105
10627TIP3   OH253371   5.894   5.148  16.706  0.4283  0.0784 -0.2948
10627TIP3    H153372   5.955   5.093  16.756  0.0371 -0.4824 -0.4244
10627TIP3    H253373   5.903   5.117  16.616  0.7532  0.7402 -0.4957
10628TIP3   OH253374   1.340   4.499   3.718 -0.0566  0.5569 -0.1589
10628TIP3    H153375   1.258   4.522   3.673  0.4437 -0.6302 -1.7817
10628TIP3    H253376   1.351   4.567   3.784 -1.3770  1.8300 -1.1836
10629TIP3   OH253377   1.376   6.251   0.175 -0.7506 -0.3583  0.0901
10629TIP3    H153378   1.400   6.159   0.183 -0.3366 -0.4774 -1.9474
10629TIP3    H253379   1.422   6.281   0.097 -0.7016  1.6590  0.8363
10630TIP3   OH253380   5.325   1.403  16.433 -0.1225  0.1933 -0.5435
10630TIP3    H153381   5.348   1.310  16.433 -0.7829  0.0214 -1.7151
10630TIP3    H253382   5.349   1.433  16.521  0.4696 -0.9841 -0.2824
10631TIP3   OH253383   0.571   1.432  15.697 -0.0481  0.3840  0.1487
10631TIP3    H153384   0.557   1.519  15.660 -0.4806  1.5505  2.8137
10631TIP3    H253385   0.496   1.380  15.666  0.6272  0.6582 -2.1098
10632TIP3   OH253386   5.048   0.255  15.844 -0.0183 -0.0484  0.4902
10632TIP3    H153387   5.137   0.264  15.875 -0.7983  1.1030  2.5914
10632TIP3    H253388   5.024   0.164  15.862  0.1566  0.1218  1.6198
10633TIP3   OH253389   5.878   6.672   2.591 -0.5550  0.5229  0.0573
10633TIP3    H153390   5.938   6.607   2.556  0.9344  1.5232  0.6647
10633TIP3    H253391   5.888   6.747   2.532 -0.9273  0.8376  0.3882
10634TIP3   OH253392   4.095   2.299  14.485 -0.5160 -0.1154  0.1674
10634TIP3    H153393   4.086   2.287  14.390  0.8224 -0.0613  0.0041
10634TIP3    H253394   4.022   2.355  14.510 -0.3337  0.6933 -1.0099
10635TIP3   OH253395   6.763   2.079  17.029 -0.0023 -0.2869 -0.0862
10635TIP3    H153396   6.712   2.158  17.011 -1.4858 -0.8229  1.4780
10635TIP3    H253397   6.820   2.103  17.102  0.0895 -0.4338 -0.1085
10636TIP3   OH253398   4.529   4.377  12.838  0.5696 -0.1413 -0.2185
10636TIP3    H153399   4.486   4.393  12.754 -0.3184 -0.7304  0.1189
10636TIP3    H253400   4.602   4.440  12.839 -0.9771  1.7467 -0.2613
10637TIP3   OH253401   3.451   5.023  14.913 -0.3663 -0.3639 -0.5228
10637TIP3    H153402   3.385   5.083  14.948  0.0292 -0.4098  0.3507
10637TIP3    H253403   3.461   5.048  14.822 -2.4530 -1.1320 -1.0121
10638TIP3   OH253404   6.709   6.446  11.534  0.2930  0.0380  0.3980
10638TIP3    H153405   6.778   6.450  11.601 -0.0427  0.3397  0.7358
10638TIP3    H253406   6.643   6.509  11.565 -0.6705 -1.0840  0.6860
10639TIP3   OH253407   6.314   0.413  16.563  0.2308  0.2164  0.0760
10639TIP3    H153408   6.400   0.454  16.573 -0.0702  0.4847  1.8597
10639TIP3    H253409   6.283   0.400  16.652 -1.5150 -0.0343 -0.5251
10640TIP3   OH253410   3.166   0.248  12.573  0.5268 -0.2745  0.1249
10640TIP3    H153411   3.250   0.258  12.618  0.5459 -1.2859  0.3401
10640TIP3    H253412   3.139   0.337  12.553  1.9700  0.0375 -0.5453
10641TIP3   OH253413   0.049   4.887  14.223  0.0359 -0.2485 -0.2827
10641TIP3    H153414  -0.016   4.885  14.152 -0.8108  1.3128  0.3899
10641TIP3    H253415   0.016   4.955  14.282  1.4896 -0.5219  0.8703
10642TIP3   OH253416   4.530   4.808  10.621 -0.3880  0.2886 -0.0955
10642TIP3    H153417   4.590   4.804  10.546  0.3290 -0.7787  0.5103
10642TIP3    H253418   4.472   4.732  10.609 -0.5539  0.3646  0.2051
10643TIP3   OH253419   4.506   3.988   1.167  0.2927  0.6387 -0.3657
10643TIP3    H153420   4.572   4.017   1.103  0.7018 -0.4404 -0.4545
10643TIP3    H253421   4.463   3.914   1.125  0.9100 -0.4061  0.7891
10644TIP3   OH253422   5.153   3.004  13.474 -0.4420 -0.0865 -0.2511
10644TIP3    H153423   5.194   3.055  13.404 -2.3724  2.1480  0.1430
10644TIP3    H253424   5.219   3.003  13.544 -0.2520  1.7716 -0.3394
10645TIP3   OH253425   1.241   2.882   4.550 -0.1163  0.2941 -0.0392
10645TIP3    H153426   1.168   2.839   4.504  0.4302  0.3195 -0.9685
10645TIP3    H253427   1.202   2.920   4.628 -1.2460  0.8953 -0.8646
10646TIP3   OH253428   2.350   3.921  11.575 -0.6114  0.1919 -0.3127
10646TIP3    H153429   2.319   3.830  11.576 -0.4448  0.1359  0.0299
10646TIP3    H253430   2.328   3.953  11.488  0.0676 -0.4349 -0.7326
10647TIP3   OH253431   6.730   1.942  11.172 -0.2428 -0.1117 -0.0002
10647TIP3    H153432   6.815   1.924  11.133 -0.4827 -0.3255 -0.4243
10647TIP3    H253433   6.675   1.970  11.099 -0.6402 -0.3378  0.2133
10648TIP3   OH253434   2.968   4.213   2.743 -0.8529 -0.2172  0.1417
10648TIP3    H153435   2.903   4.261   2.794 -0.7729  0.2462 -0.1927
10648TIP3    H253436   3.041   4.273   2.733 -0.8193 -0.3428 -0.4220
10649TIP3   OH253437   1.390   5.034  17.321 -0.0025  0.6048 -0.2064
10649TIP3    H153438   1.441   5.052  17.242 -0.1706  0.0718 -0.4388
10649TIP3    H253439   1.451   4.986  17.378  0.2138  1.2530  0.1127
10650TIP3   OH253440   3.928   6.238  15.439 -0.2733  0.2424  0.2633
10650TIP3    H153441   4.014   6.235  15.397 -0.0863  0.1320  0.6446
10650TIP3    H253442   3.866   6.219  15.369  0.0031  0.4777 -0.0467
10651TIP3   OH253443   2.471   3.845  12.711 -0.6518  0.0447 -0.4559
10651TIP3    H153444   2.389   3.838  12.759 -0.8172 -0.7528 -0.8303
10651TIP3    H253445   2.522   3.909  12.759 -0.9768 -0.4325  0.5454
10652TIP3   OH253446   5.734   5.611  17.158  0.1880  0.1043 -0.1723
10652TIP3    H153447   5.639   5.596  17.157  0.3487 -0.9624 -1.5375
10652TIP3    H253448   5.762   5.576  17.243 -0.6176  0.2747  0.1748
10653TIP3   OH253449   2.779   6.383   5.152 -0.0991 -0.3375 -0.2228
10653TIP3    H153450   2.850   6.437   5.187 -0.1097 -0.4573 -0.0170
10653TIP3    H253451   2.742   6.340   5.228 -1.0684  0.5326 -0.1784
10654TIP3   OH253452   4.873   1.926   3.494 -0.9742 -0.0958 -0.2616
10654TIP3    H153453   4.797   1.984   3.500 -0.2518  0.8466 -0.1534
10654TIP3    H253454   4.948   1.982   3.513 -0.2772 -1.1097  0.0610
10655TIP3   OH253455   1.861   5.440  16.770 -0.2089  0.0470  0.1997
10655TIP3    H153456   1.952   5.421  16.746 -0.8810 -0.8241 -1.8674
10655TIP3    H253457   1.829   5.496  16.700 -1.2501  0.4961  0.9998
10656TIP3   OH253458   3.075   3.677  14.823 -0.6435  0.2214  0.2558
10656TIP3    H153459   3.063   3.639  14.910 -1.4644  0.5722  0.3146
10656TIP3    H253460   2.987   3.677  14.785  0.1781 -3.6424 -2.2125
10657TIP3   OH253461   0.179   0.931  11.575 -0.5153  0.3414  0.3180
10657TIP3    H153462   0.147   1.019  11.557  1.6841  1.3017  0.8233
10657TIP3    H253463   0.209   0.899  11.490 -0.9895  0.2035  0.1989
10658TIP3   OH253464   4.811   4.305   4.493 -0.1794 -0.6551  0.4554
10658TIP3    H153465   4.728   4.333   4.531 -0.1446 -1.1857  0.9313
10658TIP3    H253466   4.785   4.250   4.419 -0.2810 -1.8855  1.3724
10659TIP3   OH253467   2.673   2.513   5.255  0.2637 -0.3979 -0.7718
10659TIP3    H153468   2.710   2.463   5.328  0.5732 -0.9425 -1.2964
10659TIP3    H253469   2.739   2.578   5.234  0.0483 -0.0473 -0.3776
10660TIP3   OH253470   2.243   3.934  15.330 -0.2061 -0.1136 -0.2619
10660TIP3    H153471   2.249   3.972  15.418 -0.0607 -2.5575  0.8568
10660TIP3    H253472   2.333   3.914  15.306 -0.3659 -0.6447 -0.4213
10661TIP3   OH253473   6.578   0.694  13.310 -0.0682 -0.5895  0.1509
10661TIP3    H153474   6.521   0.665  13.239  0.3110  0.3929 -0.5884
10661TIP3    H253475   6.539   0.777  13.339  0.3318 -0.4945  0.4192
10662TIP3   OH253476   3.083   4.880   4.033 -0.5667 -0.3799 -0.5912
10662TIP3    H153477   3.045   4.929   4.106 -0.3946 -0.4127 -0.4798
10662TIP3    H253478   3.176   4.903   4.035 -0.4575 -0.8329 -0.4448
10663TIP3   OH253479   2.537   4.391  14.885  0.1154 -0.3054  0.2558
10663TIP3    H153480   2.600   4.460  14.906 -0.0086 -0.1928  0.2567
10663TIP3    H253481   2.580   4.310  14.914 -0.5308 -0.0515  1.9864
10664TIP3   OH253482   4.226   1.977   4.393  0.0946 -0.1275  0.2652
10664TIP3    H153483   4.200   2.054   4.343 -2.2546 -1.7121 -1.1974
10664TIP3    H253484   4.149   1.957   4.447  1.3996 -0.3430  2.1402
10665TIP3   OH253485   1.545   0.380  14.301  0.2107  0.3627  0.0788
10665TIP3    H153486   1.508   0.460  14.337  2.1928  1.4711 -0.1854
10665TIP3    H253487   1.494   0.309  14.340 -1.0347  1.7167  0.9829
10666TIP3   OH253488   0.705   5.342  16.145 -0.0975  0.3615  0.4553
10666TIP3    H153489   0.766   5.323  16.217  1.5968  1.3576 -0.6349
10666TIP3    H253490   0.738   5.290  16.072 -2.0021 -0.9054  0.4537
10667TIP3   OH253491   5.407   1.928   6.135 -0.5957 -0.1288  0.1994
10667TIP3    H153492   5.482   1.923   6.077 -1.4281 -0.3829 -0.8738
10667TIP3    H253493   5.424   2.005   6.190  0.8509 -0.6946  0.5850
10668TIP3   OH253494   5.724   3.690   2.268  0.0610  0.1192 -0.1491
10668TIP3    H153495   5.637   3.698   2.227  0.4500  0.1338 -0.9934
10668TIP3    H253496   5.785   3.711   2.198  0.7396  0.5778  0.5677
10669TIP3   OH253497   3.185   4.663   4.906  0.1623 -0.0810  0.2705
10669TIP3    H153498   3.137   4.726   4.960 -1.4516 -2.8648  2.3601
10669TIP3    H253499   3.148   4.674   4.819  0.3335  2.1606  0.4104
10670TIP3   OH253500   6.760   4.152   5.733  0.4767  0.9508  0.1659
10670TIP3    H153501   6.727   4.135   5.644 -0.2556 -0.7294  0.7195
10670TIP3    H253502   6.683   4.178   5.783  0.4214 -0.4417  0.8509
10671TIP3   OH253503   4.079   5.941  12.529  0.6090 -0.1303  0.1596
10671TIP3    H153504   4.122   6.021  12.498  0.3580  0.0104  0.1724
10671TIP3    H253505   3.995   5.940  12.483  2.0180 -2.2618 -2.6949
10672TIP3   OH253506   6.375   5.011   2.650 -0.3683 -0.3152  0.4968
10672TIP3    H153507   6.306   5.002   2.584  3.2958 -1.4726 -3.6431
10672TIP3    H253508   6.369   4.931   2.702 -2.6593  0.1178  1.0490
10673TIP3   OH253509   2.009   4.370  17.161  0.3575  0.3518  0.0083
10673TIP3    H153510   1.938   4.424  17.196  1.0259  1.7838 -0.7313
10673TIP3    H253511   1.980   4.346  17.073 -0.5635 -1.7771  0.8330
10674TIP3   OH253512   6.047   4.900  13.565  0.6797  0.2729  0.1231
10674TIP3    H153513   6.007   4.983  13.591 -0.6857 -0.4176  0.3703
10674TIP3    H253514   6.024   4.891  13.473  1.1726  0.3575 -0.0080
10675TIP3   OH253515   1.836   2.745  11.343 -0.3171  0.2795 -0.4786
10675TIP3    H153516   1.816   2.831  11.306 -2.1602  0.0066 -0.2072
10675TIP3    H253517   1.822   2.683  11.271 -0.9062  0.0437 -0.1739
10676TIP3   OH253518   3.557   5.100   2.494 -0.3425 -0.1096  0.2557
10676TIP3    H153519   3.496   5.029   2.517  0.1519 -0.5753  0.1614
10676TIP3    H253520   3.614   5.061   2.428 -1.2395  0.9542 -1.2287
10677TIP3   OH253521   4.248   2.280  13.707 -0.1855  0.2549  0.5621
10677TIP3    H153522   4.313   2.220  13.742  2.6019  1.5646 -1.9486
10677TIP3    H253523   4.228   2.246  13.619  0.2073  2.0268 -0.2620
10678TIP3   OH253524   0.991   3.605  11.714 -0.0823 -0.5035 -0.1921
10678TIP3    H153525   0.908   3.585  11.672 -0.1817  0.1554 -0.3217
10678TIP3    H253526   1.044   3.526  11.702 -0.1577 -0.3862 -1.4397
10679TIP3   OH253527   2.049   6.032   0.500 -0.5611  0.0555 -0.1275
10679TIP3    H153528   2.072   6.099   0.435 -1.2707  1.5687  1.1089
10679TIP3    H253529   2.097   6.059   0.579 -0.1467 -1.4320  0.1539
10680TIP3   OH253530   0.426   3.727  10.742 -0.3027 -0.6339  0.0676
10680TIP3    H153531   0.462   3.790  10.804  1.0302  0.4912 -1.7593
10680TIP3    H253532   0.384   3.780  10.674 -0.6280 -1.7732 -0.6621
10681TIP3   OH253533   1.362   2.373  12.039  0.1070 -0.5928 -0.2709
10681TIP3    H153534   1.299   2.301  12.036  1.3360 -1.6682 -1.1885
10681TIP3    H253535   1.417   2.354  12.115 -0.7623  0.4535  0.6528
10682TIP3   OH253536   5.548   5.911   3.739 -0.0704 -0.6774  0.0629
10682TIP3    H153537   5.617   5.973   3.714 -0.5788 -0.1879 -0.1315
10682TIP3    H253538   5.555   5.841   3.673  0.5817 -0.8987  0.3543
10683TIP3   OH253539   0.284   2.662   3.137  0.5051  0.4826 -0.1027
10683TIP3    H153540   0.191   2.644   3.124  0.3501  1.9003 -1.2371
10683TIP3    H253541   0.328   2.606   3.072  0.2564  1.6462 -1.3022
10684TIP3   OH253542   1.933   6.418   2.293  0.2318 -0.2773  0.6589
10684TIP3    H153543   2.026   6.423   2.273 -0.1987 -0.9012 -1.8730
10684TIP3    H253544   1.898   6.503   2.267 -0.1539 -0.6768 -0.1965
10685TIP3   OH253545   2.224   3.914  16.422 -0.1410  0.6536  0.2199
10685TIP3    H153546   2.287   3.973  16.379  1.2251 -0.0288  1.1843
10685TIP3    H253547   2.239   3.830  16.380 -1.6378  0.8229 -0.7081
10686TIP3   OH253548   4.819   3.031  15.058 -0.1698  0.0255 -0.5923
10686TIP3    H153549   4.832   2.937  15.073 -0.8319 -0.0451 -0.4183
10686TIP3    H253550   4.773   3.036  14.973 -0.0807  0.1939 -0.6318
10687TIP3   OH253551   3.553   5.607  11.655  0.2184 -0.8218  0.1952
10687TIP3    H153552   3.481   5.666  11.633  0.1631 -1.3029 -1.0113
10687TIP3    H253553   3.574   5.627  11.746 -2.5030 -1.7317  1.1185
10688TIP3   OH253554   2.617   6.447  14.952 -0.3926  0.1756  0.0160
10688TIP3    H153555   2.543   6.401  14.990 -0.4124 -0.7751 -1.1172
10688TIP3    H253556   2.632   6.404  14.867  0.7430  1.0712 -0.2737
10689TIP3   OH253557   0.111   4.207  14.519  0.0325  0.0714 -0.0176
10689TIP3    H153558   0.140   4.290  14.482 -0.2474  0.3674  0.4198
10689TIP3    H253559   0.044   4.231  14.584  0.3491 -0.4524  0.5130
10690TIP3   OH253560   2.098   2.054  14.949  0.1378  0.0088  0.3603
10690TIP3    H153561   2.039   1.991  14.991 -0.3892 -0.6883 -1.3408
10690TIP3    H253562   2.045   2.132  14.937 -0.4158 -0.5409 -0.9603
10691TIP3   OH253563   3.588   3.926  15.009 -0.0995  0.6232  0.1279
10691TIP3    H153564   3.532   3.901  14.935  0.7577  1.5615 -0.8736
10691TIP3    H253565   3.565   3.864  15.078 -1.3348  0.0762 -0.7310
10692TIP3   OH253566   5.932   1.608   3.986  0.6394 -0.1291 -0.0507
10692TIP3    H153567   5.849   1.604   3.937  1.0772 -3.0222 -0.7386
10692TIP3    H253568   5.999   1.587   3.921  1.6787 -0.1160  0.9916
10693TIP3   OH253569   4.178   4.307  11.576  0.6582  0.5937  0.4008
10693TIP3    H153570   4.164   4.239  11.642 -2.4709 -0.4811 -1.1472
10693TIP3    H253571   4.119   4.378  11.601 -2.0562 -0.6012 -2.0418
10694TIP3   OH253572   2.362   3.304  14.531  0.5588  0.3132 -0.6757
10694TIP3    H153573   2.296   3.355  14.578  1.1412 -0.6309  1.2493
10694TIP3    H253574   2.440   3.308  14.587  1.8683  0.6200 -2.4413
10695TIP3   OH253575   4.835   4.065  17.009  0.2450 -0.2356 -0.3437
10695TIP3    H153576   4.829   4.109  17.094 -1.6443 -1.1682  0.0523
10695TIP3    H253577   4.929   4.052  16.995  0.9028  3.4731 -0.3143
10696TIP3   OH253578   3.930   6.373  12.186 -0.2334  0.3200 -0.1189
10696TIP3    H153579   3.894   6.292  12.150 -1.3054  0.0846  1.3993
10696TIP3    H253580   3.859   6.437  12.177 -0.5562  0.2377  1.5739
10697TIP3   OH253581   1.563   2.864  15.414  0.3174 -0.6882 -0.3789
10697TIP3    H153582   1.590   2.773  15.410 -2.1193 -1.4802 -0.5303
10697TIP3    H253583   1.468   2.861  15.425  0.0255  1.8304 -1.4054
10698TIP3   OH253584   5.546   5.759  12.589 -0.4597 -0.3264 -0.0907
10698TIP3    H153585   5.590   5.675  12.576  0.3425  0.0738  0.0090
10698TIP3    H253586   5.598   5.822  12.539  0.7268  0.6556  2.2309
10699TIP3   OH253587   4.611   3.863   6.315 -0.3650 -0.5916 -0.4507
10699TIP3    H153588   4.626   3.944   6.267  3.5043 -0.9285 -0.1819
10699TIP3    H253589   4.661   3.874   6.396 -0.6866 -2.8008  0.1112
10700TIP3   OH253590   3.657   4.219  16.081 -0.4750 -0.1637  0.2710
10700TIP3    H153591   3.608   4.137  16.091 -1.3308  0.2855 -0.1310
10700TIP3    H253592   3.597   4.286  16.113 -0.0310  0.3767 -0.0279
10701TIP3   OH253593   6.535   3.812  11.316  0.3129 -0.0377 -0.0439
10701TIP3    H153594   6.443   3.784  11.316  0.0222  0.8972 -0.6513
10701TIP3    H253595   6.579   3.749  11.259  0.0490 -0.4819  0.2362
10702TIP3   OH253596   0.843   1.907  13.129 -0.1248  0.7391  0.0223
10702TIP3    H153597   0.830   2.001  13.119 -1.9059  0.3297 -2.3825
10702TIP3    H253598   0.906   1.884  13.060 -2.0951 -0.2221 -1.5451
10703TIP3   OH253599   1.026   5.102   1.889  0.3588 -0.0908 -0.2111
10703TIP3    H153600   0.991   5.050   1.816  0.5644  0.4531 -0.7052
10703TIP3    H253601   1.120   5.103   1.874  0.2823  1.1015 -0.6643
10704TIP3   OH253602   0.145   3.340  16.838 -0.1278 -0.1702  0.8974
10704TIP3    H153603   0.171   3.273  16.775 -0.3263  0.1659  0.4551
10704TIP3    H253604   0.052   3.353  16.823 -0.0249  0.4502  0.7356
10705TIP3   OH253605   2.584   2.044   4.613 -0.4173 -0.2859 -0.3535
10705TIP3    H153606   2.586   2.053   4.708  1.4137  0.9722 -0.4613
10705TIP3    H253607   2.543   2.125   4.582  1.2381  0.4472 -0.7082
10706TIP3   OH253608   5.286   0.313   3.016  0.0904 -0.1109  0.4867
10706TIP3    H153609   5.328   0.399   3.018  0.6427 -0.2988 -1.3887
10706TIP3    H253610   5.292   0.281   3.106 -1.8178  2.5770  1.7223
10707TIP3   OH253611   0.589   3.372  13.275  0.4450  0.8553  0.0052
10707TIP3    H153612   0.557   3.462  13.277  0.0665  0.7499 -0.8763
10707TIP3    H253613   0.649   3.366  13.350 -1.2377  1.1857  1.4627
10708TIP3   OH253614   6.546   3.026   0.620 -0.0252 -0.0238  0.1293
10708TIP3    H153615   6.516   2.948   0.574  1.9726 -0.7124 -0.1002
10708TIP3    H253616   6.615   2.994   0.679  1.3796  1.6438 -0.5218
10709TIP3   OH253617   3.970   2.822   3.507 -0.2181 -0.1199 -0.2599
10709TIP3    H153618   3.928   2.752   3.457  0.7453 -1.3626  0.6101
10709TIP3    H253619   4.044   2.779   3.550 -1.1661  0.7962  2.4941
10710TIP3   OH253620   4.971   1.510   3.671 -0.3182 -0.5852  0.1422
10710TIP3    H153621   4.949   1.417   3.663 -2.1930 -0.1712 -0.2116
10710TIP3    H253622   5.059   1.512   3.707 -0.3738 -2.5014  0.4674
10711TIP3   OH253623   2.800   1.288   4.469  0.0955 -0.4752  0.7172
10711TIP3    H153624   2.823   1.367   4.419 -0.3914  0.3407  1.7314
10711TIP3    H253625   2.705   1.293   4.479 -0.0464 -1.6530  0.0754
10712TIP3   OH253626   4.446   3.403  15.985  0.0494 -0.1513 -0.1648
10712TIP3    H153627   4.355   3.422  16.009 -0.0230  0.1167 -0.6470
10712TIP3    H253628   4.497   3.470  16.030 -0.1666  0.9310 -1.4972
10713TIP3   OH253629   5.538   0.238   0.660 -1.1733  1.1117  0.1925
10713TIP3    H153630   5.541   0.163   0.601 -0.2063  1.6006 -0.4090
10713TIP3    H253631   5.453   0.279   0.642 -0.2778  2.1866 -2.1140
10714TIP3   OH253632   6.113   0.575  14.019 -0.1758 -0.8232  0.4201
10714TIP3    H153633   6.208   0.563  14.027  0.0158  0.6352  0.6781
10714TIP3    H253634   6.086   0.508  13.958  1.0740 -1.1124  0.1436
10715TIP3   OH253635   3.096   1.109  16.593  0.0700 -0.0421 -0.6313
10715TIP3    H153636   3.069   1.191  16.552  1.7386  0.4321 -0.8680
10715TIP3    H253637   3.118   1.134  16.683 -0.1391 -0.3733 -0.4902
10716TIP3   OH253638   2.906   1.774  16.413 -0.5603  0.4831  0.1318
10716TIP3    H153639   2.877   1.685  16.428  1.5667 -0.4457 -0.8604
10716TIP3    H253640   2.873   1.823  16.488  0.1614 -1.6038  1.9010
10717TIP3   OH253641   4.338   3.726  10.671 -0.1686 -0.3206 -0.4907
10717TIP3    H153642   4.342   3.819  10.691  1.2544 -0.2860 -0.8237
10717TIP3    H253643   4.409   3.712  10.608 -1.9103 -1.1724 -2.4099
10718TIP3   OH253644   2.092   0.689  14.558  0.2301  0.6206  0.0454
10718TIP3    H153645   2.041   0.682  14.639 -2.9622 -0.6428 -1.8737
10718TIP3    H253646   2.104   0.784  14.546 -1.3977  0.9653  0.8116
10719TIP3   OH253647   6.326   3.579   0.594 -0.0306  0.1771  0.2540
10719TIP3    H153648   6.286   3.533   0.519  2.6731 -1.4551 -0.3066
10719TIP3    H253649   6.409   3.535   0.607  0.6620  2.0393  2.7216
10720TIP3   OH253650   0.448   5.942   2.458  0.8478  1.1535 -0.7195
10720TIP3    H153651   0.475   5.906   2.543  0.1148 -0.6082 -1.1939
10720TIP3    H253652   0.494   5.889   2.393 -0.6064  0.7503 -1.4557
10721TIP3   OH253653   0.937   4.269  10.722  0.1971  0.6033  0.1718
10721TIP3    H153654   0.989   4.337  10.679 -0.8220  0.7722 -0.8696
10721TIP3    H253655   0.855   4.313  10.746 -0.6081 -0.2971 -0.7983
10722TIP3   OH253656   1.997   4.953   1.530  0.3883 -0.0350 -0.3208
10722TIP3    H153657   2.057   5.025   1.510 -0.6876  0.8788 -0.3230
10722TIP3    H253658   1.981   4.962   1.624  0.3141 -0.3211 -0.3069
10723TIP3   OH253659   6.777   3.617  11.945  0.4026 -0.2706  0.3758
10723TIP3    H153660   6.791   3.522  11.951  1.4577 -0.1047  0.7292
10723TIP3    H253661   6.699   3.633  11.999  0.2828 -0.9244  0.4060
10724TIP3   OH253662   4.514   4.204   2.406  0.4672 -0.1073  0.4781
10724TIP3    H153663   4.506   4.109   2.416 -0.6334 -0.2605 -1.5280
10724TIP3    H253664   4.464   4.240   2.480  0.5043 -1.0634  0.9893
10725TIP3   OH253665   5.749   5.167  15.652 -0.0839  0.0061 -0.1418
10725TIP3    H153666   5.673   5.202  15.698  0.3512  1.1916 -0.2915
10725TIP3    H253667   5.795   5.116  15.718 -1.2927 -1.2149 -0.1962
10726TIP3   OH253668   6.712   6.065  15.652  0.0036 -0.6895 -0.4481
10726TIP3    H153669   6.781   6.030  15.708 -0.8261 -0.3659  0.8311
10726TIP3    H253670   6.669   5.988  15.616 -0.0915 -0.9447  0.1925
10727TIP3   OH253671   6.739   4.334   4.619  0.7129  0.4604 -0.1991
10727TIP3    H153672   6.745   4.422   4.657 -2.6316  0.1738  1.2886
10727TIP3    H253673   6.670   4.340   4.554  0.0611 -1.1504  0.2829
10728TIP3   OH253674   2.746   3.935  11.624  0.5224 -0.0444 -0.2996
10728TIP3    H153675   2.701   3.979  11.552  0.7905 -0.6527 -0.8500
10728TIP3    H253676   2.717   3.982  11.702 -1.0243 -0.3560 -0.6388
10729TIP3   OH253677   5.507   3.074   0.280  0.1234  0.5633  0.7539
10729TIP3    H153678   5.431   3.029   0.318 -1.2731  1.0989 -1.2386
10729TIP3    H253679   5.483   3.167   0.284  0.9682  0.7904  0.6647
10730TIP3   OH253680   4.328   5.149  15.466 -0.1490 -0.2593 -0.7993
10730TIP3    H153681   4.369   5.088  15.405  0.3487 -0.5380 -0.1943
10730TIP3    H253682   4.401   5.189  15.513 -0.3068  2.2574 -2.4812
10731TIP3   OH253683   1.171   3.242   5.684 -0.4902  0.0774  0.3747
10731TIP3    H153684   1.142   3.306   5.748  1.1755 -1.7542  3.1848
10731TIP3    H253685   1.093   3.189   5.666 -1.1054  0.9320  0.4404
10732TIP3   OH253686   3.861   1.662  16.599 -0.1628  0.7544  0.1839
10732TIP3    H153687   3.795   1.708  16.548 -1.2940 -0.1382  0.8087
10732TIP3    H253688   3.893   1.593  16.540  0.1798  1.1523 -0.0976
10733TIP3   OH253689   0.201   5.135  14.090  0.3653  0.0145  0.8941
10733TIP3    H153690   0.181   5.067  14.025  1.1024  0.3280  0.3253
10733TIP3    H253691   0.157   5.105  14.170 -2.2732  0.5943 -0.2267
10734TIP3   OH253692   0.618   6.084   3.966 -0.7852  0.5542 -0.2337
10734TIP3    H153693   0.640   6.063   4.057 -1.0487  1.6871  0.1111
10734TIP3    H253694   0.607   5.999   3.923 -3.2059 -0.0571  1.4098
10735TIP3   OH253695   0.388   2.571   1.820  1.0812  0.3558  0.0131
10735TIP3    H153696   0.303   2.586   1.778  1.3014  0.9072 -0.2404
10735TIP3    H253697   0.410   2.654   1.861  1.2692  0.0690  0.5040
10736TIP3   OH253698   1.634   1.651   4.513 -0.3764  0.0149 -0.5491
10736TIP3    H153699   1.705   1.668   4.450 -0.6573 -0.4906 -1.0040
10736TIP3    H253700   1.670   1.681   4.596  0.2653  0.0520 -0.8256
10737TIP3   OH253701   4.332   2.785   4.224  0.3407 -0.7384 -0.0840
10737TIP3    H153702   4.259   2.726   4.240  0.6180 -1.4586 -1.3144
10737TIP3    H253703   4.297   2.848   4.161  0.2760 -0.0300  0.6453
10738TIP3   OH253704   0.276   3.900   2.024  0.4333  0.0757 -0.1308
10738TIP3    H153705   0.197   3.953   2.036 -1.1536 -2.3780  0.9576
10738TIP3    H253706   0.336   3.957   1.975 -2.3333  1.7235 -1.8630
10739TIP3   OH253707   0.808   0.184   4.847  0.0025  0.6105 -0.3404
10739TIP3    H153708   0.837   0.238   4.921  1.6485  1.0789 -1.2906
10739TIP3    H253709   0.762   0.111   4.888 -0.4287  1.6230  1.0779
10740TIP3   OH253710   2.425   3.681  12.225 -0.3747  0.2232  0.8241
10740TIP3    H153711   2.428   3.635  12.141 -0.2451 -0.6052  1.2815
10740TIP3    H253712   2.517   3.684  12.253 -0.3491  0.9785  0.6881
10741TIP3   OH253713   3.641   5.343  14.779 -0.3636  0.1348 -0.4132
10741TIP3    H153714   3.669   5.435  14.774 -0.5061  0.1177 -2.1930
10741TIP3    H253715   3.711   5.299  14.825  0.2386  0.9515 -0.5176
10742TIP3   OH253716   4.037   0.855  16.007 -0.7663 -0.1350  0.3028
10742TIP3    H153717   4.099   0.870  15.935 -2.7367 -0.9557 -1.6901
10742TIP3    H253718   4.092   0.849  16.085  1.8682 -2.1994 -1.5093
10743TIP3   OH253719   5.296   5.430   1.838 -0.2215 -0.3058  0.3332
10743TIP3    H153720   5.367   5.408   1.778 -0.3398 -0.1275  0.1217
10743TIP3    H253721   5.327   5.404   1.924 -0.1336 -0.7659  0.1653
10744TIP3   OH253722   5.959   4.057  12.389 -0.5375 -0.3637 -0.0358
10744TIP3    H153723   5.900   4.125  12.422 -0.8715  0.8319 -2.8228
10744TIP3    H253724   5.902   3.981  12.376 -0.8502 -0.1283 -0.0472
10745TIP3   OH253725   5.499   2.391   3.634  0.0396  0.2754  0.4960
10745TIP3    H153726   5.490   2.323   3.701  1.7242 -0.2071  0.2962
10745TIP3    H253727   5.592   2.387   3.610  0.1068  2.4266  0.2375
10746TIP3   OH253728   6.769   1.327  12.943  0.2946 -0.4934 -0.4218
10746TIP3    H153729   6.836   1.303  13.007 -1.1474 -0.1189  1.2826
10746TIP3    H253730   6.696   1.269  12.962 -0.6994  0.6176 -0.7749
10747TIP3   OH253731   4.320   6.337   4.650 -0.8371 -0.1748  0.0239
10747TIP3    H153732   4.352   6.332   4.560 -0.6125  1.4562 -0.0162
10747TIP3    H253733   4.288   6.426   4.659 -0.4052 -0.1562  1.7121
10748TIP3   OH253734   1.508   3.446  16.636 -0.7220  0.1814  0.0820
10748TIP3    H153735   1.419   3.412  16.646  0.8588 -4.0394  2.3015
10748TIP3    H253736   1.539   3.456  16.726  1.2811  0.9349 -0.6409
10749TIP3   OH253737   1.894   5.622   6.447  0.0114 -0.0852  0.2639
10749TIP3    H153738   1.836   5.639   6.374 -0.5356 -0.1342  0.6814
10749TIP3    H253739   1.970   5.677   6.431 -1.2142  1.9181  0.9808
10750TIP3   OH253740   1.889   4.340  16.916  0.1432 -0.3966 -0.4141
10750TIP3    H153741   1.920   4.375  16.832  0.3088  0.8432  0.1383
10750TIP3    H253742   1.866   4.249  16.897  0.5471 -0.2512 -1.7112
10751TIP3   OH253743   6.564   4.463   2.398  0.1995 -0.1483  0.2729
10751TIP3    H153744   6.548   4.546   2.442 -0.6178 -0.1640  0.0181
10751TIP3    H253745   6.480   4.440   2.358  0.3134 -1.2788  0.6507
10752TIP3   OH253746   0.971   6.501  16.481  0.1261  0.2364  0.2254
10752TIP3    H153747   1.042   6.441  16.456  1.2870  2.1342 -1.2508
10752TIP3    H253748   0.975   6.572  16.417 -2.8839  0.6371  0.3521
10753TIP3   OH253749   5.476   5.097  14.605 -0.2241 -0.0394  0.5884
10753TIP3    H153750   5.426   5.133  14.678  0.7024  0.1285  1.1561
10753TIP3    H253751   5.568   5.109  14.630  0.2089 -3.5498  1.2533
10754TIP3   OH253752   4.435   1.057  16.305 -0.2860  0.1937  0.4740
10754TIP3    H153753   4.355   1.077  16.255  0.5996  1.7229 -0.4204
10754TIP3    H253754   4.480   0.992  16.252  0.4119  1.4530 -0.5499
10755TIP3   OH253755   4.837   4.560   0.763  0.2673  0.1161  0.1081
10755TIP3    H153756   4.813   4.642   0.807 -1.3346  1.4125 -2.9033
10755TIP3    H253757   4.759   4.505   0.771  0.4750 -0.1824  0.0887
10756TIP3   OH253758   5.046   1.201   2.487  0.5997  0.2476  0.3778
10756TIP3    H153759   5.102   1.134   2.527 -1.0063 -0.1834  2.0883
10756TIP3    H253760   5.052   1.185   2.393  1.0209 -1.7072  0.6958
10757TIP3   OH253761   6.175   6.548   5.084  0.1230 -0.7014 -0.0107
10757TIP3    H153762   6.127   6.526   5.163  1.0499  0.9873  1.0817
10757TIP3    H253763   6.235   6.474   5.070 -0.5894 -1.3669  0.3906
10758TIP3   OH253764   0.440   0.002  12.492 -0.4025 -0.3313 -0.7952
10758TIP3    H153765   0.353  -0.017  12.527  0.8935 -2.0896  1.7628
10758TIP3    H253766   0.479   0.062  12.556  0.0395  1.1563 -2.3689
10759TIP3   OH253767   3.890   6.187  17.289  0.3791  0.0084  0.2972
10759TIP3    H153768   3.901   6.115  17.351  0.0462  1.1175  1.7027
10759TIP3    H253769   3.838   6.252  17.336 -0.4808  0.6126 -1.4098
10760TIP3   OH253770   1.071   3.743   3.524  0.7623  0.1602  0.1480
10760TIP3    H153771   0.977   3.739   3.539  0.6737  2.3377  0.3647
10760TIP3    H253772   1.083   3.700   3.439 -0.3627 -0.3824  0.2383
10761TIP3   OH253773   3.625   3.093   0.915 -0.7019 -0.2433  0.4421
10761TIP3    H153774   3.622   3.010   0.868 -0.4181 -0.5130  0.9018
10761TIP3    H253775   3.675   3.151   0.857 -3.2487  0.4687 -1.2173
10762TIP3   OH253776   1.865   5.736  11.857 -0.0661  0.0959 -0.1385
10762TIP3    H153777   1.896   5.686  11.781  1.0332  1.0129 -0.3201
10762TIP3    H253778   1.775   5.759  11.835 -0.0912 -0.5028 -0.7136
10763TIP3   OH253779   0.693   2.334  16.816  0.7528 -0.4320  0.9123
10763TIP3    H153780   0.752   2.276  16.767  0.5006  0.5168 -0.5385
10763TIP3    H253781   0.668   2.281  16.892  1.9433 -1.5676  0.5737
10764TIP3   OH253782   0.729   5.049   1.354  0.3504 -0.1559 -0.7363
10764TIP3    H153783   0.816   5.053   1.316  0.7411 -1.8487 -0.0878
10764TIP3    H253784   0.726   5.124   1.414  1.0507  0.3665 -1.3401
10765TIP3   OH253785   3.350   0.968  10.599  0.1803 -0.0568  0.2180
10765TIP3    H153786   3.364   0.943  10.508  1.5736  0.5162  0.2523
10765TIP3    H253787   3.347   0.885  10.646 -0.7874 -0.3686 -0.3656
10766TIP3   OH253788   5.287   4.288   1.443 -0.2730 -0.0563 -0.2935
10766TIP3    H153789   5.341   4.260   1.369  0.1707  2.3122 -0.9457
10766TIP3    H253790   5.329   4.249   1.520  0.1615 -1.2925 -1.1245
10767TIP3   OH253791   6.461   0.997   4.535 -0.1767 -0.1709  0.0578
10767TIP3    H153792   6.474   0.902   4.532 -0.2894 -0.2651  1.5494
10767TIP3    H253793   6.408   1.011   4.614  2.0643  1.3107  1.4182
10768TIP3   OH253794   3.175   2.885  11.303 -0.0105  0.1153  0.1670
10768TIP3    H153795   3.144   2.929  11.383 -1.3314  0.8800 -0.7238
10768TIP3    H253796   3.095   2.863  11.256  0.7499 -0.1699 -1.0370
10769TIP3   OH253797   2.397   6.401   3.229 -0.2091 -0.4480 -0.1917
10769TIP3    H153798   2.308   6.424   3.204  0.2274  0.0121 -1.3669
10769TIP3    H253799   2.425   6.338   3.163  0.0422 -1.2768  0.6811
10770TIP3   OH253800   5.214   0.986   2.843 -0.1671 -0.4236 -0.4160
10770TIP3    H153801   5.254   1.056   2.791  1.0983 -0.2753  0.6954
10770TIP3    H253802   5.223   0.908   2.789 -0.2538 -0.0015 -1.0532
10771TIP3   OH253803   3.466   5.579   6.069 -0.0504 -0.1662  0.4204
10771TIP3    H153804   3.479   5.605   6.160  0.2849 -3.3644  1.4325
10771TIP3    H253805   3.524   5.503   6.057  0.0054  0.2129 -2.5168
10772TIP3   OH253806   3.284   2.457   2.054 -0.6784  0.1747  0.5540
10772TIP3    H153807   3.367   2.440   2.010 -0.8436 -0.5166  0.5013
10772TIP3    H253808   3.308   2.479   2.144 -0.4134  0.4170  0.4248
10773TIP3   OH253809   6.335   3.634   3.242  0.0505  0.1404 -0.1751
10773TIP3    H153810   6.302   3.675   3.322 -3.2737  0.1923 -1.4116
10773TIP3    H253811   6.351   3.707   3.182  1.3002  0.0140 -0.0333
10774TIP3   OH253812   4.992   4.903   1.376 -0.2504  0.6252 -0.1452
10774TIP3    H153813   5.046   4.874   1.302  0.6498  0.5175  0.5365
10774TIP3    H253814   4.958   4.822   1.414 -1.6051  0.7298 -1.0736
10775TIP3   OH253815   2.819   2.564  16.154 -0.2568 -0.4616  0.4352
10775TIP3    H153816   2.791   2.635  16.212  0.9568  1.2063 -0.9158
10775TIP3    H253817   2.889   2.603  16.101 -1.6131 -1.7182 -2.4763
10776TIP3   OH253818   2.355   3.116   0.730 -0.3904 -0.1669 -0.6077
10776TIP3    H153819   2.434   3.169   0.746  0.6839 -1.6286 -0.8624
10776TIP3    H253820   2.309   3.117   0.813  0.7321 -0.6041  0.0442
10777TIP3   OH253821   6.398   1.739  11.325  0.2510  0.1205 -0.6524
10777TIP3    H153822   6.324   1.697  11.282  0.2032 -0.4472 -0.0402
10777TIP3    H253823   6.383   1.833  11.314 -1.6665  0.1047  1.2046
10778TIP3   OH253824   6.062   3.358   3.527 -0.3336 -0.0132 -0.2381
10778TIP3    H153825   6.102   3.427   3.474  1.7777 -0.7014  0.3407
10778TIP3    H253826   6.079   3.278   3.478 -0.1942 -0.4220  0.4704
10779TIP3   OH253827   4.715   3.247   0.247  0.3304  0.2033  0.4547
10779TIP3    H153828   4.712   3.270   0.340  1.6360 -0.8683  0.7906
10779TIP3    H253829   4.753   3.324   0.204 -0.3753  0.7395  0.7923
10780TIP3   OH253830   3.471   6.451  14.214 -0.3948  0.3556 -0.7293
10780TIP3    H153831   3.542   6.386  14.215 -1.1852 -0.5292 -0.0291
10780TIP3    H253832   3.394   6.401  14.187 -0.8370  1.2224 -1.0950
10781TIP3   OH253833   5.870   1.572  16.104  0.3251 -0.3268  0.1882
10781TIP3    H153834   5.785   1.613  16.090  0.0336 -0.6941  0.8113
10781TIP3    H253835   5.864   1.488  16.058  0.6269 -0.0348 -0.3987
10782TIP3   OH253836   3.750   5.786   1.821 -0.6494  0.0334  0.0136
10782TIP3    H153837   3.840   5.800   1.792 -0.4054 -2.0975 -0.4422
10782TIP3    H253838   3.711   5.730   1.754 -1.1774 -2.0416  1.9204
10783TIP3   OH253839   4.601   5.996  14.494 -0.3376 -0.0088 -0.1424
10783TIP3    H153840   4.656   5.921  14.518 -0.9152  0.1042  1.6567
10783TIP3    H253841   4.621   6.063  14.559 -3.1137 -0.2416  1.1049
10784TIP3   OH253842   1.689   0.776  12.197  0.1807 -0.0584 -0.2729
10784TIP3    H153843   1.600   0.812  12.189  0.1933 -0.0493 -0.3761
10784TIP3    H253844   1.677   0.681  12.190  0.1414 -0.0782  0.0551
10785TIP3   OH253845   5.192   3.577   5.649 -0.0713 -0.1071 -0.1569
10785TIP3    H153846   5.197   3.672   5.659  0.2848 -0.0988 -0.3680
10785TIP3    H253847   5.157   3.545   5.732 -1.0820  0.2830 -0.4191
10786TIP3   OH253848   2.506   4.679   2.637  0.1344  0.0890 -0.4670
10786TIP3    H153849   2.430   4.728   2.669  0.7741  1.8943 -1.5620
10786TIP3    H253850   2.469   4.598   2.602 -0.7234 -1.5382  3.6249
10787TIP3   OH253851   0.082   6.695  13.828  0.2493 -0.3434 -0.0600
10787TIP3    H153852   0.082   6.613  13.780  0.8801  0.1627 -0.9585
10787TIP3    H253853   0.167   6.699  13.871  0.6651  0.3355 -0.9179
10788TIP3   OH253854   2.371   2.324   4.257 -0.4199 -0.2250 -0.1425
10788TIP3    H153855   2.466   2.337   4.256 -0.6614  1.9726 -1.3072
10788TIP3    H253856   2.353   2.282   4.341  1.6026 -0.9571 -0.0334
10789TIP3   OH253857   0.511   5.872  16.891  0.1140  0.1794  0.2058
10789TIP3    H153858   0.588   5.834  16.933  0.2355  0.4168  0.1937
10789TIP3    H253859   0.543   5.949  16.845 -0.2567  0.7030  0.8135
10790TIP3   OH253860   2.136   5.182   1.926 -0.1386  0.2051  0.4588
10790TIP3    H153861   2.122   5.183   1.832  0.8557  2.2271  0.2993
10790TIP3    H253862   2.105   5.095   1.953  1.3467 -1.2008 -1.9765
10791TIP3   OH253863   1.553   0.529  12.262 -0.5859 -0.6394  0.4471
10791TIP3    H153864   1.555   0.454  12.203 -1.7320 -0.5631  0.2835
10791TIP3    H253865   1.631   0.520  12.316  0.4851 -0.7373 -1.0486
10792TIP3   OH253866   3.838   1.188   0.168 -0.4771 -0.5811 -0.1172
10792TIP3    H153867   3.903   1.206   0.101 -0.1351  1.6189  0.7117
10792TIP3    H253868   3.784   1.267   0.172 -1.4391 -1.2466  1.1490
10793TIP3   OH253869   5.617   5.829   4.729 -0.1931  0.0127 -0.4580
10793TIP3    H153870   5.608   5.911   4.681  0.6260 -0.9594 -2.4429
10793TIP3    H253871   5.530   5.790   4.727 -1.1656  1.7653  2.5034
10794TIP3   OH253872   3.761   1.406   3.460 -0.1881  0.7750 -0.2098
10794TIP3    H153873   3.722   1.361   3.385 -0.9165  0.4334  0.3757
10794TIP3    H253874   3.816   1.340   3.502  1.7678  1.4686 -1.5139
10795TIP3   OH253875   3.307   1.161  13.729 -0.5446  0.1352 -0.3483
10795TIP3    H153876   3.349   1.174  13.815 -0.0377  2.4047 -0.8772
10795TIP3    H253877   3.245   1.090  13.744 -2.4128  2.1664  2.6469
10796TIP3   OH253878   1.846   5.951   0.174 -0.3028  0.3374 -0.3470
10796TIP3    H153879   1.794   6.028   0.150  1.4235  1.4047 -0.8338
10796TIP3    H253880   1.864   5.907   0.092 -1.8759 -1.0436 -0.0028
10797TIP3   OH253881   3.067   3.492  13.731 -0.2395 -0.8250  0.1144
10797TIP3    H153882   3.066   3.421  13.667 -1.0145 -1.8063  1.1696
10797TIP3    H253883   2.976   3.502  13.757  0.0771 -0.5608  1.1805
10798TIP3   OH253884   0.536   4.760  15.628 -0.7243 -0.5741 -0.2170
10798TIP3    H153885   0.525   4.855  15.626 -0.6816 -0.5714 -1.5221
10798TIP3    H253886   0.447   4.725  15.622 -0.6948 -0.6094 -0.4601
10799TIP3   OH253887   4.549   0.690   2.887 -0.2261  0.5451  0.7496
10799TIP3    H153888   4.621   0.733   2.932 -1.0179  0.7246  1.9090
10799TIP3    H253889   4.536   0.608   2.935 -1.2186  0.8295  0.9909
10800TIP3   OH253890   3.791   1.643   1.939  0.2772 -0.4100  0.9752
10800TIP3    H153891   3.763   1.638   1.848  0.1902  0.7890  0.9170
10800TIP3    H253892   3.828   1.557   1.958 -0.6660 -1.0183  0.1345
10801TIP3   OH253893   2.566   3.607   5.892  0.0894  0.5179 -0.3324
10801TIP3    H153894   2.481   3.602   5.849  0.5931  0.5327 -1.3606
10801TIP3    H253895   2.621   3.546   5.843  0.5083  0.0256  0.7220
10802TIP3   OH253896   6.571   4.173  15.999 -0.2043 -0.5396 -1.0051
10802TIP3    H153897   6.501   4.125  15.955 -0.9603 -0.1769 -0.2513
10802TIP3    H253898   6.610   4.228  15.931 -1.5623  0.2579 -1.1794
10803TIP3   OH253899   1.591   3.916  13.913 -0.0039 -0.3530 -0.0557
10803TIP3    H153900   1.508   3.914  13.865  0.3463 -1.0578 -0.6540
10803TIP3    H253901   1.597   3.829  13.953  0.3818 -0.2569  0.0935
10804TIP3   OH253902   4.422   4.486   4.756 -0.1164  0.1615  0.0995
10804TIP3    H153903   4.476   4.563   4.774 -0.1611  0.3220 -0.4382
10804TIP3    H253904   4.345   4.498   4.812  0.0181  0.3499  0.2489
10805TIP3   OH253905   1.026   2.216   2.033 -0.0575  0.8922  0.0871
10805TIP3    H153906   1.118   2.231   2.011 -0.3997  1.9304 -0.7401
10805TIP3    H253907   0.977   2.274   1.973 -1.2355  0.5206  0.6522
10806TIP3   OH253908   3.562   6.766  14.054 -0.7002 -0.1422  0.1760
10806TIP3    H153909   3.491   6.785  13.992 -1.6407  0.8885  1.5089
10806TIP3    H253910   3.623   6.840  14.043 -1.5244  0.7484  1.3611
10807TIP3   OH253911   0.017   0.106  15.789 -0.2080 -0.3534 -0.8094
10807TIP3    H153912  -0.042   0.034  15.811 -2.2641  1.4191 -0.1611
10807TIP3    H253913   0.012   0.113  15.694  0.0709 -1.1079 -0.8824
10808TIP3   OH253914   1.671   5.648  14.057  0.1832  0.0029  0.0102
10808TIP3    H153915   1.687   5.694  13.975 -0.9101  0.4376  0.0316
10808TIP3    H253916   1.647   5.559  14.031 -0.3090  0.1807 -0.1552
10809TIP3   OH253917   1.465   6.793  16.127 -0.4253  0.3628  0.0397
10809TIP3    H153918   1.523   6.829  16.193 -0.3037  0.4342 -0.1063
10809TIP3    H253919   1.445   6.705  16.157 -0.8108  0.5838  0.4540
10810TIP3   OH253920   1.642   0.576   0.479 -0.0477 -0.2917 -0.1919
10810TIP3    H153921   1.614   0.532   0.559  0.2108  2.2667  1.4210
10810TIP3    H253922   1.735   0.595   0.492  0.1953 -0.5212 -1.4521
10811TIP3   OH253923   1.470   1.496   2.261 -0.6990 -0.4085  0.1194
10811TIP3    H153924   1.430   1.523   2.179  2.7249  0.8871 -1.3246
10811TIP3    H253925   1.472   1.401   2.257 -1.6408 -0.4089 -0.6980
10812TIP3   OH253926   2.963   3.764   2.571  0.7145 -0.3761  0.0766
10812TIP3    H153927   3.010   3.700   2.517  2.6330  1.3759 -0.4430
10812TIP3    H253928   3.001   3.848   2.547 -2.0314  1.0731  0.3976
10813TIP3   OH253929   1.669   3.220   5.695 -0.3355 -0.4863 -0.3284
10813TIP3    H153930   1.592   3.187   5.740 -1.1504  1.0329 -0.5279
10813TIP3    H253931   1.634   3.274   5.623  0.8656  0.8917  0.0582
10814TIP3   OH253932   3.531   1.363  12.088  0.2153  1.0920  0.0104
10814TIP3    H153933   3.456   1.382  12.032  1.2630  0.6781 -1.5954
10814TIP3    H253934   3.534   1.437  12.149 -0.7058  1.7914 -0.7539
10815TIP3   OH253935   3.413   2.775   3.132 -0.6915 -0.4146  0.8858
10815TIP3    H153936   3.501   2.783   3.095 -1.1935 -2.5122 -1.0203
10815TIP3    H253937   3.423   2.721   3.210 -0.2795 -0.5987  0.7045
10816TIP3   OH253938   0.434   3.462  17.074 -0.5784 -0.2680  0.6599
10816TIP3    H153939   0.398   3.504  16.996 -2.5693 -0.6707  1.3056
10816TIP3    H253940   0.454   3.534  17.134  0.8014  0.0298 -0.1014
10817TIP3   OH253941   1.075   6.189  13.757 -0.1931 -0.2509 -0.0260
10817TIP3    H153942   1.042   6.101  13.742  0.0335 -0.4016  0.3481
10817TIP3    H253943   1.001   6.247  13.737  0.2218 -0.3972 -2.1712
10818TIP3   OH253944   0.130   1.335  13.155  0.2009  0.3242  0.4361
10818TIP3    H153945   0.155   1.426  13.164  1.8629  0.0500 -0.8915
10818TIP3    H253946   0.204   1.293  13.110 -1.6431 -1.0643 -1.5621
10819TIP3   OH253947   1.759   6.220  12.113  0.0520  0.0754 -0.0118
10819TIP3    H153948   1.820   6.287  12.145 -0.8676  0.9665 -0.0532
10819TIP3    H253949   1.672   6.256  12.133 -0.4766 -0.7399 -0.7759
10820TIP3   OH253950   3.989   2.532   5.408  0.4036  0.6211  0.1264
10820TIP3    H153951   3.930   2.597   5.445  0.6476  1.2696 -0.6101
10820TIP3    H253952   3.944   2.500   5.330  0.6228  0.4580  0.0655
10821TIP3   OH253953   6.663   1.216   1.685 -0.8017  0.0804  0.3083
10821TIP3    H153954   6.667   1.294   1.630  3.0544  0.4840  0.8966
10821TIP3    H253955   6.660   1.249   1.774 -0.7735 -0.4505  0.5110
10822TIP3   OH253956   2.168   2.802  16.715 -0.3418 -0.7686  0.4726
10822TIP3    H153957   2.243   2.844  16.757 -0.6553 -0.0420  0.3184
10822TIP3    H253958   2.178   2.823  16.622  0.0386 -1.8855  0.2368
10823TIP3   OH253959   2.221   4.663   3.180 -0.5832 -0.6755  0.1745
10823TIP3    H153960   2.240   4.716   3.103  0.4541  0.0792  0.9305
10823TIP3    H253961   2.303   4.615   3.197 -0.3925  0.0656  1.4889
10824TIP3   OH253962   5.747   4.593  11.166 -0.3751  0.3249 -0.0896
10824TIP3    H153963   5.721   4.550  11.084 -0.5951  0.6108 -0.1735
10824TIP3    H253964   5.802   4.666  11.138  0.2994 -0.1190  0.0754
10825TIP3   OH253965   5.372   1.917  14.196  0.2722  0.2165 -0.1921
10825TIP3    H153966   5.397   1.952  14.111  0.5859  0.7531  0.1156
10825TIP3    H253967   5.453   1.879  14.231  0.7408  2.1097  0.8827
10826TIP3   OH253968   3.432   1.089   1.595  0.3268  0.3839  0.6386
10826TIP3    H153969   3.510   1.035   1.596 -0.3394 -0.6254 -0.1535
10826TIP3    H253970   3.463   1.175   1.566  1.0336 -0.2284 -0.5210
10827TIP3   OH253971   3.043   6.484  15.304 -0.0893 -0.2281  0.7428
10827TIP3    H153972   3.002   6.479  15.217  1.4112  1.2886 -0.1161
10827TIP3    H253973   2.974   6.456  15.364 -1.4607 -0.4831 -0.8535
10828TIP3   OH253974   1.668   3.237   1.285  0.2686  0.0820  0.1610
10828TIP3    H153975   1.749   3.287   1.292  0.2920 -0.1140  1.5077
10828TIP3    H253976   1.656   3.198   1.371 -2.0304  1.3166  0.4753
10829TIP3   OH253977   4.267   1.779  16.025 -0.3527  0.4067  0.2821
10829TIP3    H153978   4.185   1.730  16.018  1.0192 -2.0280 -0.3064
10829TIP3    H253979   4.320   1.727  16.085  0.6132  2.1884  1.0275
10830TIP3   OH253980   4.440   6.744   4.861 -0.2805 -0.8665 -0.1754
10830TIP3    H153981   4.534   6.758   4.877 -0.3658 -0.4956  0.0039
10830TIP3    H253982   4.409   6.826   4.823 -1.0580 -0.0014  2.1181
10831TIP3   OH253983   1.144   5.591   4.817  0.6829 -0.1458  0.7494
10831TIP3    H153984   1.221   5.634   4.780  0.0111  1.7776  1.4957
10831TIP3    H253985   1.112   5.651   4.885 -0.6170 -1.5862  1.4883
10832TIP3   OH253986   6.698   5.008   1.867 -0.0379 -0.1702  0.0977
10832TIP3    H153987   6.614   4.970   1.841  0.4373 -1.6587  0.6378
10832TIP3    H253988   6.753   4.999   1.789  0.3813 -1.5780  0.5312
10833TIP3   OH253989   4.813   1.267  14.962  0.0473  0.9244  0.2311
10833TIP3    H153990   4.815   1.335  14.894 -0.5309 -0.0233 -0.7606
10833TIP3    H253991   4.832   1.186  14.916 -2.1139 -0.0037  0.8278
10834TIP3   OH253992   4.137   0.121  14.351 -0.0487 -0.0723  0.7727
10834TIP3    H153993   4.196   0.196  14.347 -0.4326  0.1875 -0.8853
10834TIP3    H253994   4.195   0.044  14.349  0.2756  0.1730  0.7073
10835TIP3   OH253995   3.982   2.602   3.209  0.0297  0.0835  0.1077
10835TIP3    H153996   4.049   2.562   3.265  1.0058  1.2050 -0.2250
10835TIP3    H253997   4.010   2.693   3.199 -0.5688  0.1121 -1.5508
10836TIP3   OH253998   3.668   5.496   4.483 -0.1930 -0.3555  0.5614
10836TIP3    H153999   3.693   5.583   4.513  0.0832  0.1209 -0.9246
10836TIP3    H254000   3.750   5.447   4.483  0.2532  0.2928 -1.3802
10837TIP3   OH254001   5.102   3.893  10.934  0.2925  0.2606  0.0430
10837TIP3    H154002   5.141   3.839  10.865 -1.1706 -0.7734 -0.0407
10837TIP3    H254003   5.063   3.967  10.888 -0.6273 -0.3955 -0.2738
10838TIP3   OH254004   0.580   5.865  11.700 -0.1176 -0.2265 -0.2020
10838TIP3    H154005   0.585   5.960  11.701  0.7595 -0.2674  0.0112
10838TIP3    H254006   0.654   5.836  11.753  1.3127 -1.0964 -2.5309
10839TIP3   OH254007   2.175   6.058  12.700  0.4682 -0.2080  0.0284
10839TIP3    H154008   2.093   6.106  12.690  0.4787 -0.4416 -1.3633
10839TIP3    H254009   2.151   5.979  12.748 -0.0097 -0.0114  0.1189
10840TIP3   OH254010   5.082   6.283  11.736 -0.0697 -0.3512 -0.6260
10840TIP3    H154011   5.048   6.327  11.814 -0.8992 -0.8530 -0.6970
10840TIP3    H254012   5.012   6.225  11.708  0.4725 -0.6708 -1.3662
10841TIP3   OH254013   4.549   5.022  12.707  0.0574 -0.0776 -0.0235
10841TIP3    H154014   4.620   4.960  12.726 -0.6428 -1.2776 -1.1887
10841TIP3    H254015   4.475   4.967  12.682 -0.6098  1.2198 -1.0328
10842TIP3   OH254016   2.972   6.616   6.018  0.1977  0.7040 -0.0013
10842TIP3    H154017   3.059   6.616   6.059  0.4894  1.6632 -0.6003
10842TIP3    H254018   2.965   6.529   5.978  0.2994  0.1040  1.2144
10843TIP3   OH254019   2.752   0.807   5.139 -0.2207 -0.2415  0.3779
10843TIP3    H154020   2.790   0.761   5.214 -0.2755  0.0229  0.5695
10843TIP3    H254021   2.686   0.746   5.104  1.0961 -1.1745 -0.6234
10844TIP3   OH254022   5.575   3.175   4.472 -0.5389  0.5664 -0.5741
10844TIP3    H154023   5.484   3.192   4.497 -1.8336  0.7403 -4.7707
10844TIP3    H254024   5.571   3.095   4.420  1.6394  0.8615 -1.2718
10845TIP3   OH254025   5.319   3.663  12.406  0.1801 -0.1702  0.1487
10845TIP3    H154026   5.233   3.692  12.436 -0.1143 -0.0528 -0.7835
10845TIP3    H254027   5.369   3.744  12.394  0.0039 -0.1582 -0.5354
10846TIP3   OH254028   2.392   5.330   3.995 -0.3296  0.4921  0.2099
10846TIP3    H154029   2.469   5.300   3.947  0.4208  0.2423  1.5261
10846TIP3    H254030   2.341   5.380   3.931  0.3049 -0.3729 -0.9997
10847TIP3   OH254031   1.096   4.089  15.906 -0.2921  0.1748  0.6574
10847TIP3    H154032   1.064   4.014  15.956  1.0083 -1.6208 -1.0828
10847TIP3    H254033   1.187   4.098  15.932  0.0854 -0.0716 -0.5315
10848TIP3   OH254034   3.862   1.578  12.852 -0.1982 -0.5023 -0.3367
10848TIP3    H154035   3.840   1.488  12.877 -0.8941 -0.1398  0.4137
10848TIP3    H254036   3.792   1.604  12.791  0.3043 -0.6510 -0.9821
10849TIP3   OH254037   0.645   4.356   2.499 -0.2078  0.2936  0.0816
10849TIP3    H154038   0.607   4.329   2.582 -0.2483 -1.1832 -0.3885
10849TIP3    H254039   0.603   4.439   2.479 -1.1102  0.0581  0.9435
10850TIP3   OH254040   1.718   0.713   2.337 -0.4574 -0.7216 -0.2977
10850TIP3    H154041   1.756   0.729   2.424  2.0459  0.2531 -1.4682
10850TIP3    H254042   1.761   0.634   2.306 -1.7904 -1.4143 -0.4582
10851TIP3   OH254043   0.788   0.976  14.014 -0.6025 -0.3046 -0.0881
10851TIP3    H154044   0.751   0.907  14.069  0.4928  0.5594  1.8538
10851TIP3    H254045   0.790   1.053  14.071  2.6809  0.0939 -0.5228
10852TIP3   OH254046   4.213   5.698  15.231  0.2347 -0.2739 -0.9138
10852TIP3    H154047   4.309   5.694  15.227  0.3212  0.0248  0.3080
10852TIP3    H254048   4.192   5.665  15.318 -0.7587 -0.0550 -1.0660
10853TIP3   OH254049   6.038   2.538  16.822  0.3412  0.4815 -0.1164
10853TIP3    H154050   6.000   2.551  16.908 -0.9687  0.5718 -0.6866
10853TIP3    H254051   5.971   2.493  16.772  1.8752 -1.5140 -0.4919
10854TIP3   OH254052   0.723   3.772  14.811  0.1266 -0.2767  0.1674
10854TIP3    H154053   0.663   3.707  14.845  0.0510 -0.8800 -1.0733
10854TIP3    H254054   0.810   3.734  14.824  0.0184 -1.3671 -1.9602
10855TIP3   OH254055   3.726   0.868   6.767  0.6174  0.2343 -0.0822
10855TIP3    H154056   3.683   0.882   6.683  0.5534 -1.2467 -0.3192
10855TIP3    H254057   3.667   0.812   6.816  0.8341  0.7672  0.8173
10856TIP3   OH254058   4.766   3.438   1.640  0.0875 -0.2646 -0.1055
10856TIP3    H154059   4.771   3.373   1.709 -0.0016 -1.1741 -0.9334
10856TIP3    H254060   4.829   3.505   1.665  0.6401 -0.9743  0.4417
10857TIP3   OH254061   0.900   0.124  16.534 -0.1697 -0.7997 -0.1071
10857TIP3    H154062   0.815   0.157  16.565 -0.4900 -0.9078 -0.8571
10857TIP3    H254063   0.951   0.204  16.518 -0.2327 -0.7269  0.0443
10858TIP3   OH254064   0.864   5.510   6.391  0.1281  0.7287 -0.1219
10858TIP3    H154065   0.787   5.557   6.360 -0.3569  0.7198  1.0324
10858TIP3    H254066   0.841   5.418   6.384  0.8315  0.6417 -1.7504
10859TIP3   OH254067   0.639   5.991  12.488 -0.0571 -0.2118 -0.0117
10859TIP3    H154068   0.558   5.941  12.497  1.3179 -3.0199 -1.7391
10859TIP3    H254069   0.708   5.931  12.519  1.4434  2.1094  1.5212
10860TIP3   OH254070   2.127   4.692   0.235 -0.4148 -0.1768 -0.1692
10860TIP3    H154071   2.129   4.775   0.283 -0.5579  0.4552 -1.2093
10860TIP3    H254072   2.217   4.678   0.206 -0.4388 -0.2525 -0.2086
10861TIP3   OH254073   0.946   1.692   6.132  0.1998 -0.1216 -0.6969
10861TIP3    H154074   0.913   1.772   6.091  1.1614  0.8428  0.3753
10861TIP3    H254075   0.897   1.685   6.214  0.6282 -0.2505 -0.4532
10862TIP3   OH254076   6.148   5.062   3.904  0.4636 -0.7022 -0.0515
10862TIP3    H154077   6.075   5.017   3.946  1.3378  0.5963  3.0930
10862TIP3    H254078   6.225   5.009   3.926  1.0633  0.5032  0.8054
10863TIP3   OH254079   5.215   1.463   1.542  0.0878 -0.5202  0.1558
10863TIP3    H154080   5.127   1.442   1.510 -1.6943  4.5748  0.7081
10863TIP3    H254081   5.262   1.493   1.464  0.5507 -1.0321  0.2345
10864TIP3   OH254082   6.780   4.820   1.042  0.3409 -0.2684 -0.1736
10864TIP3    H154083   6.810   4.860   0.960 -1.6869  1.2048 -0.2632
10864TIP3    H254084   6.800   4.886   1.109  0.7140 -0.8768  0.3253
10865TIP3   OH254085   3.204   3.522  11.402 -0.2038 -0.1194 -0.3490
10865TIP3    H154086   3.253   3.535  11.321 -0.7354  0.5075 -0.5773
10865TIP3    H254087   3.208   3.607  11.446  0.5115 -0.5898  0.5347
10866TIP3   OH254088   6.336   2.402  11.406 -0.0968  0.4320 -0.2081
10866TIP3    H154089   6.426   2.384  11.433  0.2416  2.6706  0.3988
10866TIP3    H254090   6.344   2.431  11.315 -0.0656  1.4171  0.0953
10867TIP3   OH254091   1.879   0.668  14.071  0.4400  0.5128  0.6081
10867TIP3    H154092   1.958   0.723  14.071  0.8539 -0.0254  1.9322
10867TIP3    H254093   1.905   0.590  14.120 -0.0159 -1.0581 -1.5079
10868TIP3   OH254094   5.531   0.964  17.347 -0.4243 -0.9944  0.0317
10868TIP3    H154095   5.440   0.958  17.377 -0.5619  1.6423  0.3383
10868TIP3    H254096   5.581   0.975  17.428 -0.3405  1.7960 -0.3137
10869TIP3   OH254097   1.322   5.023   1.189  0.1262  0.7072 -0.3192
10869TIP3    H154098   1.383   5.091   1.160  2.2619 -0.8050  0.3279
10869TIP3    H254099   1.324   4.959   1.118  0.3606  0.0237  0.2951
10870TIP3   OH254100   6.083   4.120  15.006 -0.3229 -0.4687 -0.2010
10870TIP3    H154101   6.090   4.213  15.024  2.9702 -0.3535 -1.3362
10870TIP3    H254102   5.999   4.110  14.960 -1.7152  1.5057  1.7292
10871TIP3   OH254103   5.116   4.923  13.904  0.2759 -0.4797 -0.6583
10871TIP3    H154104   5.157   5.009  13.909 -0.9362  0.1867 -1.5572
10871TIP3    H254105   5.173   4.866  13.955  1.6637  0.6371 -0.8939
10872TIP3   OH254106   2.108   4.527  12.445 -1.0515 -0.2028 -0.6276
10872TIP3    H154107   2.039   4.564  12.390 -1.6545 -0.9780 -0.4215
10872TIP3    H254108   2.074   4.440  12.470 -0.3883 -0.2358  0.1994
10873TIP3   OH254109   4.812   4.861  12.780  0.3041 -0.5545 -0.3819
10873TIP3    H154110   4.800   4.853  12.685  2.4056 -2.7306 -0.5710
10873TIP3    H254111   4.907   4.862  12.793  0.0737  0.5916  1.6794
10874TIP3   OH254112   6.154   4.316  12.044  0.3469 -0.4876  0.0034
10874TIP3    H154113   6.198   4.296  11.961  1.8141 -2.1293  1.1190
10874TIP3    H254114   6.065   4.339  12.019  1.2401  0.9431 -2.1817
10875TIP3   OH254115   2.264   0.790  10.923 -0.0290  0.1690  0.2386
10875TIP3    H154116   2.319   0.725  10.966  1.7338  1.4425 -0.0032
10875TIP3    H254117   2.302   0.799  10.835 -1.6019 -0.0473 -0.5072
10876TIP3   OH254118   2.229   1.073  15.843 -0.5563  0.2783  1.0635
10876TIP3    H154119   2.137   1.087  15.862 -0.4031  2.1814  0.5873
10876TIP3    H254120   2.249   0.989  15.884 -3.3319 -2.0195 -1.8156
10877TIP3   OH254121   6.394   2.813  11.059 -0.1708  0.4704 -0.4897
10877TIP3    H154122   6.317   2.835  11.111  0.6767  0.1160  0.9842
10877TIP3    H254123   6.381   2.859  10.975 -1.2432  1.6655  0.2923
10878TIP3   OH254124   6.348   4.626   1.336  0.2129 -0.0559  0.1471
10878TIP3    H154125   6.263   4.612   1.378  0.2168  2.6132  1.2161
10878TIP3    H254126   6.335   4.701   1.280  1.8357  0.3172  0.2271
10879TIP3   OH254127   2.182   0.588  17.373 -0.1128 -0.1654 -0.0485
10879TIP3    H154128   2.201   0.643  17.297 -1.6066  2.3024  1.2114
10879TIP3    H254129   2.088   0.600  17.388 -0.5142 -3.1756  0.3177
10880TIP3   OH254130   6.569   4.983   2.400  0.2636 -0.1964  0.0201
10880TIP3    H154131   6.482   5.015   2.424  0.2242 -0.2683 -0.0287
10880TIP3    H254132   6.576   4.999   2.306  0.4367  0.1274  0.0866
10881TIP3   OH254133   4.551   3.821  12.370 -0.3122  0.0574 -0.0453
10881TIP3    H154134   4.521   3.785  12.287 -0.2697 -1.5817  0.6091
10881TIP3    H254135   4.641   3.850  12.353 -0.6511  0.6950 -0.8147
10882TIP3   OH254136   2.359   3.255   5.512  0.1814  0.4239 -0.0881
10882TIP3    H154137   2.287   3.211   5.557 -0.0968  1.8686  0.9646
10882TIP3    H254138   2.316   3.302   5.440  0.2639  0.1875 -0.2912
10883TIP3   OH254139   5.698   1.507  10.694  0.4229 -0.0308 -0.0022
10883TIP3    H154140   5.716   1.416  10.715 -3.2410 -0.7216  0.7597
10883TIP3    H254141   5.666   1.545  10.775  0.9416  1.7116 -0.5618
10884TIP3   OH254142   5.049   1.125  16.663 -0.2248  0.4753 -0.1592
10884TIP3    H154143   4.995   1.080  16.598  0.6342 -1.8721  0.6638
10884TIP3    H254144   4.998   1.122  16.743  0.4839 -0.4481  0.2718
10885TIP3   OH254145   6.543   3.391   0.454  0.7463 -0.1743  0.3599
10885TIP3    H154146   6.491   3.362   0.379 -0.9161  2.0210  0.5563
10885TIP3    H254147   6.566   3.481   0.434  0.0268  0.5715  2.5664
10886TIP3   OH254148   4.939   6.746   2.847 -0.1274  0.1312 -0.4842
10886TIP3    H154149   4.935   6.659   2.886  2.0268 -0.3705 -1.2380
10886TIP3    H254150   4.897   6.803   2.912 -0.9806 -1.3417  0.3202
10887TIP3   OH254151   5.865   1.194  15.002 -0.2983  0.3300  0.0239
10887TIP3    H154152   5.792   1.240  14.961  1.3302  2.7151 -0.3764
10887TIP3    H254153   5.875   1.114  14.950 -1.7971  0.5716 -0.6833
10888TIP3   OH254154   5.434   5.151   0.356  0.5890  0.0855 -0.1651
10888TIP3    H154155   5.484   5.156   0.438  1.1111  0.3050 -0.4923
10888TIP3    H254156   5.373   5.224   0.360  1.2041  0.6122 -0.3574
10889TIP3   OH254157   6.694   4.929   2.652  0.1170 -0.3077 -0.4422
10889TIP3    H154158   6.706   5.006   2.707 -2.0078  0.0311 -0.3863
10889TIP3    H254159   6.639   4.958   2.580  0.1892 -1.5229 -1.0257
10890TIP3   OH254160   4.485   4.108  15.766  0.3752 -0.1219  0.3409
10890TIP3    H154161   4.456   4.197  15.748  0.1906  0.0584  1.4731
10890TIP3    H254162   4.537   4.115  15.846  0.5937 -0.9863  0.2861
10891TIP3   OH254163   4.614   4.890   3.159 -0.3564 -0.9425  0.2142
10891TIP3    H154164   4.550   4.960   3.165  0.6115  0.1615 -1.5055
10891TIP3    H254165   4.693   4.925   3.201  0.2239 -0.8413 -0.9082
10892TIP3   OH254166   4.381   3.610  16.985  0.0571  0.3215 -0.5867
10892TIP3    H154167   4.351   3.519  16.976 -0.1048  0.5451 -2.9501
10892TIP3    H254168   4.460   3.603  17.039 -0.2989 -1.1418 -0.1979
10893TIP3   OH254169   5.555   1.593  10.928  0.2006 -0.0552  0.0133
10893TIP3    H154170   5.471   1.640  10.925 -0.0956 -0.6238 -1.4142
10893TIP3    H254171   5.549   1.538  11.007  0.1112  1.4401  1.0976
10894TIP3   OH254172   2.569   4.993  16.527  0.1013  0.6542 -0.4189
10894TIP3    H154173   2.497   5.027  16.580 -0.4811  2.0537 -2.0440
10894TIP3    H254174   2.648   5.028  16.568 -0.0736 -0.8145  1.3208
10895TIP3   OH254175   3.964   4.037  16.117  0.2587 -0.3766  0.1040
10895TIP3    H154176   3.962   3.950  16.075  0.0923 -0.0504 -0.5842
10895TIP3    H254177   4.057   4.051  16.138  0.3180 -0.6257  0.0119
10896TIP3   OH254178   3.158   6.383   4.069 -0.3431  0.0609  0.0292
10896TIP3    H154179   3.244   6.353   4.101  0.0448 -0.0450 -1.0867
10896TIP3    H254180   3.097   6.315   4.099 -0.2942  0.8367  2.0662
10897TIP3   OH254181   1.068   3.134  13.203  0.0708 -0.3775 -0.0255
10897TIP3    H154182   1.097   3.070  13.269  0.1861  0.3328  0.6318
10897TIP3    H254183   1.136   3.131  13.136  0.4022 -0.4955  0.3072
10898TIP3   OH254184   1.518   3.375  15.439 -0.3970 -0.0590  1.1810
10898TIP3    H154185   1.529   3.288  15.477 -1.5957 -0.9968 -0.4981
10898TIP3    H254186   1.607   3.411  15.437  0.0881 -1.1226  2.1322
10899TIP3   OH254187   2.042   4.111   3.932 -0.3390  0.0773 -0.0825
10899TIP3    H154188   1.999   4.188   3.969  0.3325 -0.1150  1.1407
10899TIP3    H254189   2.087   4.144   3.854 -0.2295  0.8730  0.3103
10900TIP3   OH254190   5.715   6.152   4.310 -0.3888  0.0452 -0.3017
10900TIP3    H154191   5.792   6.193   4.272 -0.1257 -0.5398 -0.4178
10900TIP3    H254192   5.742   6.061   4.326 -0.8769 -0.0240  0.1667
10901TIP3   OH254193   1.908   4.542   1.307 -0.0392 -0.3400 -0.0199
10901TIP3    H154194   1.978   4.594   1.346  1.1155 -0.6715 -1.5758
10901TIP3    H254195   1.828   4.575   1.348  0.9046  0.8151  0.9689
10902TIP3   OH254196   5.686   2.198   3.802  0.9387  0.0560  0.2960
10902TIP3    H154197   5.767   2.215   3.753  0.4302 -0.4490 -0.7543
10902TIP3    H254198   5.710   2.130   3.865  1.1631 -0.6520 -0.5355
10903TIP3   OH254199   4.261   0.581   4.687  0.1479  0.0652 -0.0120
10903TIP3    H154200   4.231   0.590   4.597  0.0771 -0.6477 -0.0619
10903TIP3    H254201   4.322   0.654   4.700  0.4718 -0.0699 -0.7608
10904TIP3   OH254202   6.700   2.599   1.412  0.0923 -0.5148 -0.4342
10904TIP3    H154203   6.724   2.609   1.320 -0.0357 -0.3928 -0.4560
10904TIP3    H254204   6.781   2.575   1.456  0.0459 -1.0945 -0.6609
10905TIP3   OH254205   5.615   3.171  13.004  0.0203 -0.0631  0.1620
10905TIP3    H154206   5.525   3.168  12.972 -0.4905  0.2123  1.4940
10905TIP3    H254207   5.646   3.258  12.980 -0.2165 -0.0054  0.0565
10906TIP3   OH254208   4.609   2.172   0.615 -0.1458  0.0624 -0.0055
10906TIP3    H154209   4.670   2.154   0.543  0.2118  0.0676  0.2940
10906TIP3    H254210   4.577   2.260   0.597  0.7542  0.4819  0.4153
10907TIP3   OH254211   1.893   2.397  13.741 -0.1813  0.0924  0.8218
10907TIP3    H154212   1.836   2.336  13.789 -1.0461  0.6512  0.5247
10907TIP3    H254213   1.978   2.352  13.737 -0.0576  0.0254  2.8813
10908TIP3   OH254214   2.913   1.896   3.747  0.3529 -0.4284  0.0887
10908TIP3    H154215   2.896   1.840   3.823  2.8801  0.7299  1.6642
10908TIP3    H254216   2.938   1.835   3.678 -0.9124 -1.4527  0.4944
10909TIP3   OH254217   3.664   5.499  11.433  0.0746  0.5822 -0.5650
10909TIP3    H154218   3.748   5.474  11.473  0.0290  0.7022 -0.3875
10909TIP3    H254219   3.613   5.533  11.507 -0.5352 -0.5033 -0.4787
10910TIP3   OH254220   2.211   3.847   0.082 -0.0976  0.5178  0.1115
10910TIP3    H154221   2.171   3.900   0.012 -0.1670  0.3755  0.0438
10910TIP3    H254222   2.305   3.859   0.070 -0.1113  0.5700  0.0537
10911TIP3   OH254223   6.716   6.514   6.089 -0.1146 -0.0466  0.1295
10911TIP3    H154224   6.788   6.459   6.056  1.0592  0.9474  0.9412
10911TIP3    H254225   6.758   6.574   6.150 -1.4284  1.4626 -0.3811
10912TIP3   OH254226   2.415   5.238  11.359 -0.4487 -0.1652  0.1969
10912TIP3    H154227   2.428   5.226  11.264 -1.1547 -2.9053  0.3774
10912TIP3    H254228   2.463   5.166  11.399 -1.2646  0.1759  1.8650
10913TIP3   OH254229   5.224   1.440   3.789  0.5310 -0.6700  0.1762
10913TIP3    H154230   5.302   1.471   3.834  0.9622 -1.6882  0.1427
10913TIP3    H254231   5.252   1.425   3.699 -0.4774  1.9952 -0.7045
10914TIP3   OH254232   4.471   3.771  13.691 -0.2358 -0.1765 -0.0578
10914TIP3    H154233   4.393   3.778  13.747  0.1608  0.1212  0.4671
10914TIP3    H254234   4.535   3.827  13.733 -0.7483  2.2532 -2.2376
10915TIP3   OH254235   3.868   0.652   2.822  0.2975  0.0097  0.2591
10915TIP3    H154236   3.826   0.727   2.863  0.6419  0.8486 -0.9040
10915TIP3    H254237   3.961   0.673   2.823  0.3349 -0.1037 -0.6736
10916TIP3   OH254238   1.223   5.723   0.247  0.0491 -0.0482  0.5310
10916TIP3    H154239   1.241   5.724   0.341  0.3667 -0.0558  0.4720
10916TIP3    H254240   1.272   5.798   0.213 -1.6634  1.1824  0.6494
10917TIP3   OH254241   1.011   1.415  11.466  0.1104  0.0385 -0.0814
10917TIP3    H154242   0.993   1.328  11.501  2.0815 -0.5340 -0.3903
10917TIP3    H254243   1.048   1.464  11.539 -0.4724  0.4625 -0.0578
10918TIP3   OH254244   3.702   3.564   1.007 -0.8798  0.8629  0.4939
10918TIP3    H154245   3.629   3.625   1.019 -1.2522  0.4838  0.2228
10918TIP3    H254246   3.662   3.488   0.965 -0.3423  0.6077  0.4370
10919TIP3   OH254247   6.585   4.552   5.441 -0.0086  0.1400  0.3515
10919TIP3    H154248   6.490   4.553   5.431 -0.0891 -1.2445  0.7531
10919TIP3    H254249   6.599   4.563   5.535  0.2868  1.4579  0.1677
10920TIP3   OH254250   1.854   1.218   1.061 -0.0314  1.0693 -0.4071
10920TIP3    H154251   1.815   1.286   1.007 -1.8165  0.7320  0.3441
10920TIP3    H254252   1.875   1.148   1.000 -0.6269  1.2825 -0.8701
10921TIP3   OH254253   3.165   6.566   4.901 -0.6764  0.2654  0.1416
10921TIP3    H154254   3.101   6.605   4.960  0.9753  2.1798  0.7854
10921TIP3    H254255   3.221   6.513   4.958  0.3222  1.3288  0.1977
10922TIP3   OH254256   4.183   4.929   5.004 -0.2403  0.5107 -0.2580
10922TIP3    H154257   4.231   4.978   4.937 -0.1926  0.3178 -0.3679
10922TIP3    H254258   4.111   4.986   5.029  0.7277  1.3232  0.7814
10923TIP3   OH254259   5.394   4.818  11.796 -0.2982 -0.2940 -0.0650
10923TIP3    H154260   5.329   4.803  11.728 -2.0363 -1.0941  1.6678
10923TIP3    H254261   5.383   4.745  11.857  0.0200  1.2086  1.9176
10924TIP3   OH254262   6.035   5.240   3.315 -0.7404 -0.3757  0.4571
10924TIP3    H154263   6.086   5.279   3.244 -2.2439  0.7452 -0.0607
10924TIP3    H254264   5.986   5.313   3.352 -0.9052 -1.1652  1.8761
10925TIP3   OH254265   4.466   1.387  16.553  0.2683 -0.3189 -0.2773
10925TIP3    H154266   4.460   1.475  16.516  1.3009 -0.1203 -0.0122
10925TIP3    H254267   4.402   1.336  16.504 -2.2376  1.1345  1.2916
10926TIP3   OH254268   0.357   2.158  12.949 -0.1515  0.5976 -0.1090
10926TIP3    H154269   0.318   2.237  12.988 -1.8892 -0.4834  0.4841
10926TIP3    H254270   0.304   2.142  12.871  0.7770  0.4948 -0.7366
10927TIP3   OH254271   6.217   6.421  12.207  0.1398  0.0254 -0.0463
10927TIP3    H154272   6.234   6.382  12.122 -0.4991  0.3294 -0.3134
10927TIP3    H254273   6.126   6.450  12.204  0.1753  0.2457  0.6553
10928TIP3   OH254274   1.082   1.232  17.094  0.2372  0.8388  0.3155
10928TIP3    H154275   1.142   1.158  17.088 -0.8020  0.0379 -0.7099
10928TIP3    H254276   1.040   1.222  17.179 -1.8090 -1.3372 -0.8439
10929TIP3   OH254277   4.987   4.421  16.870  0.2103 -0.2770 -0.1102
10929TIP3    H154278   5.078   4.444  16.886 -0.3860  1.0624  1.7551
10929TIP3    H254279   4.989   4.328  16.849  2.1230  0.0655 -1.6730
10930TIP3   OH254280   1.414   0.711   5.480  0.1137  0.3591 -0.4372
10930TIP3    H154281   1.341   0.664   5.521 -2.4478  3.6168 -0.8934
10930TIP3    H254282   1.462   0.750   5.553  0.3070 -0.2541 -0.2296
10931TIP3   OH254283   2.905   0.185   0.923 -0.3030 -0.4853 -0.0399
10931TIP3    H154284   2.866   0.190   0.836  4.1145  1.2880 -2.2336
10931TIP3    H254285   2.983   0.131   0.911  0.8621  0.4449  2.5823
10932TIP3   OH254286   5.791   0.779   5.611  0.3183  0.1856  0.4725
10932TIP3    H154287   5.882   0.762   5.635 -0.1646 -2.2930  0.8386
10932TIP3    H254288   5.745   0.698   5.634 -2.0134  1.4253  0.4330
10933TIP3   OH254289   2.602   3.178  15.642 -0.0831 -0.1334  0.1684
10933TIP3    H154290   2.516   3.202  15.607  0.3784 -0.3908 -1.2187
10933TIP3    H254291   2.650   3.260  15.645 -0.9279  0.3353  2.7008
10934TIP3   OH254292   3.635   2.395  15.648 -0.0335 -0.1277 -0.5066
10934TIP3    H154293   3.574   2.451  15.601 -0.0475  0.2208 -0.0864
10934TIP3    H254294   3.585   2.316  15.667 -0.5671  0.3958  0.3631
10935TIP3   OH254295   6.030   5.125  14.115 -0.2835  0.2047  0.4014
10935TIP3    H154296   5.989   5.206  14.085 -1.6375 -0.1827  1.1046
10935TIP3    H254297   5.985   5.055  14.067  1.3765 -0.1252 -0.7553
10936TIP3   OH254298   4.889   0.063  14.501 -0.2509 -0.0391 -0.1495
10936TIP3    H154299   4.902   0.028  14.413 -0.1142  2.0411 -1.0073
10936TIP3    H254300   4.952   0.017  14.555 -0.0523 -1.0550 -1.2159
10937TIP3   OH254301   2.000   6.304  15.401 -0.2904 -0.2148 -0.0229
10937TIP3    H154302   2.040   6.349  15.327 -0.0697 -1.0475 -0.4071
10937TIP3    H254303   2.042   6.219  15.404 -2.8079 -1.6082 -1.1798
10938TIP3   OH254304   4.789   3.585   3.590  0.0897 -0.3867  0.1842
10938TIP3    H154305   4.836   3.505   3.614 -0.4415 -0.5517  0.7025
10938TIP3    H254306   4.698   3.566   3.610 -0.0578  0.3117  0.2057
10939TIP3   OH254307   3.469   3.719  11.532 -0.2274  0.2834 -0.4774
10939TIP3    H154308   3.484   3.645  11.591  2.3083 -0.4641 -1.9507
10939TIP3    H254309   3.373   3.724  11.525 -0.5455 -1.2124  1.6302
10940TIP3   OH254310   2.830   2.629   1.869  0.6668 -0.1756  0.1075
10940TIP3    H154311   2.820   2.648   1.962  0.1301 -0.7380  0.1712
10940TIP3    H254312   2.741   2.623   1.835  0.8030 -1.5235 -0.0968
10941TIP3   OH254313   6.307   5.683  11.934 -0.0375 -0.1533  0.4654
10941TIP3    H154314   6.303   5.728  11.850  0.6782 -2.0432 -0.6498
10941TIP3    H254315   6.219   5.690  11.970 -0.6906 -0.3480 -1.0384
10942TIP3   OH254316   6.207   0.476  10.329 -0.0994  0.0402  0.0384
10942TIP3    H154317   6.183   0.392  10.290  0.0371  0.3615 -0.7514
10942TIP3    H254318   6.272   0.454  10.396 -1.3176 -0.6591  1.0467
10943TIP3   OH254319   5.057   4.837   2.641 -0.1453 -0.4475 -0.5153
10943TIP3    H154320   4.982   4.842   2.701 -0.2382 -0.1994 -0.6489
10943TIP3    H254321   5.123   4.787   2.689  0.6403  1.6530  0.7557
10944TIP3   OH254322   5.735   0.875   3.776 -0.1312  0.6616 -0.2345
10944TIP3    H154323   5.713   0.842   3.689  0.3216 -0.7361  0.1628
10944TIP3    H254324   5.830   0.867   3.782  0.0175  2.1332 -0.1346
10945TIP3   OH254325   4.266   2.119  12.527  0.5913  0.0310  0.7524
10945TIP3    H154326   4.176   2.087  12.522  0.7278 -0.2845  0.1652
10945TIP3    H254327   4.258   2.212  12.551  0.1261 -0.0633  0.9643
10946TIP3   OH254328   4.410   2.897  11.825 -0.0853 -0.0544 -0.2723
10946TIP3    H154329   4.318   2.917  11.842  0.4527 -0.1343  3.5831
10946TIP3    H254330   4.429   2.820  11.879  2.1329 -0.3879 -1.3980
10947TIP3   OH254331   2.127   3.532   0.108 -0.2291 -0.3531 -0.0777
10947TIP3    H154332   2.118   3.627   0.098  1.8998 -0.1819 -0.8583
10947TIP3    H254333   2.044   3.496   0.077  0.0304  1.1078 -2.7013
10948TIP3   OH254334   5.684   5.656  16.346 -0.9132 -0.3518 -0.1702
10948TIP3    H154335   5.629   5.599  16.291 -0.6124 -0.5190 -0.3024
10948TIP3    H254336   5.772   5.618  16.339 -0.8346 -0.2618  0.2742
10949TIP3   OH254337   5.432   1.917  16.981  0.1849 -0.5835  0.0221
10949TIP3    H154338   5.362   1.854  16.968 -0.2178 -0.3041  0.7892
10949TIP3    H254339   5.389   2.003  16.974 -0.2008 -0.3696  3.4968
10950TIP3   OH254340   3.899   2.150   1.840 -0.0701  0.1494  0.6465
10950TIP3    H154341   3.808   2.154   1.868 -0.7130  0.6948 -1.3347
10950TIP3    H254342   3.911   2.061   1.807 -0.7905  0.8445 -1.6947
10951TIP3   OH254343   3.205   4.104  15.624 -0.0187  0.1422 -0.5937
10951TIP3    H154344   3.293   4.123  15.590  0.2551 -1.2593 -0.7260
10951TIP3    H254345   3.158   4.187  15.615  0.4807  0.2411 -3.0748
10952TIP3   OH254346   3.677   1.175   0.849 -0.1977 -0.3248  0.1308
10952TIP3    H154347   3.754   1.194   0.795 -0.2065 -2.2737 -0.6506
10952TIP3    H254348   3.711   1.165   0.938 -0.0597  2.0105  0.4178
10953TIP3   OH254349   0.215   5.029   1.948 -0.4838 -0.5743  0.1943
10953TIP3    H154350   0.124   5.030   1.921 -0.0576  1.6718 -1.5034
10953TIP3    H254351   0.215   4.989   2.035 -3.2430  0.4443  0.7445
10954TIP3   OH254352   5.895   3.527   4.489  0.3609 -0.2437 -0.1897
10954TIP3    H154353   5.872   3.617   4.463  0.5997  0.6266  2.3731
10954TIP3    H254354   5.841   3.510   4.566  1.1837 -1.8666  0.0583
10955TIP3   OH254355   5.297   0.922  13.048  0.4803  0.2080  0.4616
10955TIP3    H154356   5.258   0.843  13.086  0.6967 -0.8049 -1.3307
10955TIP3    H254357   5.392   0.910  13.060  0.4598  1.3653  2.3030
10956TIP3   OH254358   4.242   5.780   5.371 -0.1750  0.0476  0.0196
10956TIP3    H154359   4.265   5.870   5.395  0.0821  0.3328 -1.2299
10956TIP3    H254360   4.315   5.751   5.316 -0.2143 -0.9629  0.4758
10957TIP3   OH254361   4.368   4.085  16.044 -0.1135 -0.5098  0.3754
10957TIP3    H154362   4.302   4.098  15.976  0.0092 -0.4489  0.2670
10957TIP3    H254363   4.385   3.990  16.043  0.3150 -0.4349 -0.0884
10958TIP3   OH254364   0.334   0.729   6.703 -0.4528 -0.0753  0.1761
10958TIP3    H154365   0.254   0.754   6.657  0.1986  0.8423 -0.5066
10958TIP3    H254366   0.319   0.638   6.730 -1.0032 -0.5566 -1.5918
10959TIP3   OH254367   2.015   5.931   1.772 -0.3915 -0.4186 -0.1655
10959TIP3    H154368   2.082   5.891   1.715 -0.8638 -0.0254 -1.0231
10959TIP3    H254369   1.968   5.991   1.714 -1.7417 -0.9744  0.3231
10960TIP3   OH254370   0.521   0.509   4.186 -0.6609 -0.0688  0.1653
10960TIP3    H154371   0.520   0.457   4.105 -0.2295  0.2260 -0.0312
10960TIP3    H254372   0.452   0.470   4.240 -0.6381 -0.5687 -0.1564
10961TIP3   OH254373   6.156   2.554   5.650  0.6350  0.2888 -0.1639
10961TIP3    H154374   6.206   2.608   5.712  1.5143 -1.1342  0.3995
10961TIP3    H254375   6.212   2.548   5.573  0.9003 -0.4874  0.0869
10962TIP3   OH254376   2.369   2.959   1.477 -0.2891  0.1980  0.5875
10962TIP3    H154377   2.378   3.048   1.511  1.2212  0.5624 -0.6786
10962TIP3    H254378   2.453   2.917   1.496 -0.0944 -0.1726 -0.9847
10963TIP3   OH254379   3.157   5.336  13.326  0.2204 -0.4493 -0.1890
10963TIP3    H154380   3.230   5.327  13.386  1.0910 -0.2319 -1.1816
10963TIP3    H254381   3.120   5.248  13.319  0.9196 -0.7376 -0.3215
10964TIP3   OH254382   2.552   2.872   0.371 -0.6889 -0.4525 -0.0185
10964TIP3    H154383   2.611   2.815   0.422  1.3601  1.7774  0.2935
10964TIP3    H254384   2.476   2.885   0.428 -1.3654 -3.0150 -0.2245
10965TIP3   OH254385   3.460   5.986  17.010  0.0672  0.0072  0.6380
10965TIP3    H154386   3.378   6.024  17.042  0.4759  1.2704  0.2401
10965TIP3    H254387   3.526   6.013  17.074  1.1472  3.6811 -1.6934
10966TIP3   OH254388   3.130   2.680  12.242 -0.2155 -0.3628  0.1424
10966TIP3    H154389   3.048   2.665  12.289 -0.1348  3.2709  1.7577
10966TIP3    H254390   3.113   2.759  12.190  1.8140 -0.4241 -0.6831
10967TIP3   OH254391   3.652   0.438  14.530 -0.1822  0.4737  0.4416
10967TIP3    H154392   3.654   0.396  14.445 -0.8115  1.4141 -0.0564
10967TIP3    H254393   3.735   0.485  14.537 -0.9773  2.1456 -0.6051
10968TIP3   OH254394   0.062   1.934   2.611 -0.0589  0.2307 -0.6368
10968TIP3    H154395   0.020   1.932   2.525  0.9783 -1.3232 -1.1642
10968TIP3    H254396   0.151   1.964   2.593  0.6077 -1.4450 -0.3820
10969TIP3   OH254397   1.108   4.692   4.714  0.0623 -0.9208  0.5000
10969TIP3    H154398   1.040   4.629   4.689 -1.1191 -0.6053  2.6332
10969TIP3    H254399   1.109   4.690   4.810 -1.9590  4.1057  0.9587
10970TIP3   OH254400   2.881   3.694   1.772 -0.3502 -0.6005 -0.1271
10970TIP3    H154401   2.870   3.660   1.861  0.7925  0.4715  0.4582
10970TIP3    H254402   2.940   3.632   1.730 -0.4272 -0.8022  0.0586
10971TIP3   OH254403   4.965   3.712  12.048  0.0549  0.2921 -0.5799
10971TIP3    H154404   5.035   3.662  12.090 -0.6350 -0.3567 -0.1722
10971TIP3    H254405   4.885   3.678  12.087 -0.4674  1.3358 -0.7193
10972TIP3   OH254406   1.201   1.779  13.655 -0.1745  0.3009  0.0731
10972TIP3    H154407   1.122   1.793  13.708  0.1029  1.2703  0.2523
10972TIP3    H254408   1.216   1.685  13.658 -0.5130  0.2708  1.2083
10973TIP3   OH254409   3.006   0.103   0.613 -0.1071  0.9106  0.7528
10973TIP3    H154410   2.937   0.045   0.645  0.9294  0.3332  2.0224
10973TIP3    H254411   2.965   0.190   0.611 -1.1488  0.4267  0.5308
10974TIP3   OH254412   1.246   5.390  14.349  0.5088 -0.0146  0.2450
10974TIP3    H154413   1.257   5.454  14.419  0.5672  2.0062 -1.5173
10974TIP3    H254414   1.326   5.397  14.297 -0.1333 -0.3919 -0.8332
10975TIP3   OH254415   4.077   6.228  12.745 -0.3353 -0.2181  0.4217
10975TIP3    H154416   4.035   6.313  12.735 -0.9170 -0.4447  0.8353
10975TIP3    H254417   4.104   6.204  12.656 -1.8413 -0.4298 -0.0120
10976TIP3   OH254418   5.338   1.881   0.004  0.1916  0.4657  0.6159
10976TIP3    H154419   5.367   1.793  -0.018 -1.4887  0.5275 -2.3410
10976TIP3    H254420   5.398   1.939  -0.044 -1.0195  0.7731 -0.5715
10977TIP3   OH254421   0.739   1.142   3.106 -0.0608  1.4221 -0.0059
10977TIP3    H154422   0.643   1.139   3.102 -0.1580  0.5408  2.0823
10977TIP3    H254423   0.765   1.051   3.120  1.0865  1.6782 -0.3816
10978TIP3   OH254424   2.639   0.399   1.231 -0.8176  0.1063  0.5579
10978TIP3    H154425   2.613   0.469   1.171 -2.3428  0.1447  1.2316
10978TIP3    H254426   2.730   0.381   1.208 -0.7699  1.4641 -0.4491
10979TIP3   OH254427   0.386   3.628  15.723  0.1555  0.2106 -0.3734
10979TIP3    H154428   0.358   3.643  15.633  1.4634  0.0716 -0.8178
10979TIP3    H254429   0.336   3.551  15.751 -0.8280  0.7044 -0.6985
10980TIP3   OH254430   4.804   0.257  16.685  0.5605  0.6540 -0.4046
10980TIP3    H154431   4.825   0.257  16.592 -3.0486 -1.6847 -1.4509
10980TIP3    H254432   4.759   0.340  16.700  0.2209  0.5812 -1.0208
10981TIP3   OH254433   2.512   6.731  12.957  0.3669 -0.2794  0.5426
10981TIP3    H154434   2.526   6.705  13.048 -2.1569  0.0227  1.0775
10981TIP3    H254435   2.514   6.649  12.908  1.5367 -0.4618  0.8616
10982TIP3   OH254436   3.252   2.541  14.824 -0.1498 -0.3931 -0.3185
10982TIP3    H154437   3.268   2.592  14.904  0.3543  0.1018 -0.7207
10982TIP3    H254438   3.300   2.459  14.838 -1.1164 -0.8573  0.4107
10983TIP3   OH254439   0.613   5.259  12.087  1.0097  0.6023  0.1286
10983TIP3    H154440   0.672   5.335  12.092  2.0179 -0.1590  0.1338
10983TIP3    H254441   0.665   5.192  12.041 -0.5603  0.5601 -1.6868
10984TIP3   OH254442   4.744   6.548   1.004  0.1434 -0.3871  0.0540
10984TIP3    H154443   4.816   6.593   1.049 -0.8380  1.1075  0.2035
10984TIP3    H254444   4.785   6.510   0.927  1.1117  0.4219  0.1403
10985TIP3   OH254445   2.936   1.101   2.548 -0.0530  0.4227  0.7476
10985TIP3    H154446   2.891   1.128   2.628 -1.1063 -0.9613  0.6734
10985TIP3    H254447   2.893   1.019   2.524  0.8688  0.3437 -0.7331
10986TIP3   OH254448   4.207   3.396   2.901 -0.9567  0.3936  0.1025
10986TIP3    H154449   4.265   3.324   2.925 -0.7353 -0.2655 -2.1501
10986TIP3    H254450   4.223   3.463   2.967  0.3932 -0.8097  1.0566
10987TIP3   OH254451   0.116   6.573  15.975 -0.3941  0.5975 -0.5867
10987TIP3    H154452   0.053   6.566  15.902 -0.7932  1.2269 -0.3069
10987TIP3    H254453   0.201   6.575  15.932 -0.6433  1.3219 -1.0688
10988TIP3   OH254454   1.022   5.728  17.034 -0.4153  0.0327 -0.3678
10988TIP3    H154455   1.098   5.786  17.028  0.1266 -0.3479  1.7977
10988TIP3    H254456   0.970   5.748  16.957  1.2328  1.2563 -1.2205
10989TIP3   OH254457   2.043   0.017  12.574  0.4920 -0.3590 -0.0445
10989TIP3    H154458   1.950   0.003  12.588  0.3213 -0.3875 -1.1734
10989TIP3    H254459   2.085  -0.038  12.641 -0.2876 -0.3702  0.4525
10990TIP3   OH254460   4.488   5.547   5.975  0.5309  0.1789 -0.2170
10990TIP3    H154461   4.425   5.475   5.978 -1.0811  1.5626  1.4218
10990TIP3    H254462   4.562   5.512   5.926 -0.3124 -2.4797  0.2516
10991TIP3   OH254463   4.239   5.024   2.174  0.1483 -0.4913 -0.5922
10991TIP3    H154464   4.271   5.018   2.084  1.3142 -1.8048 -0.1310
10991TIP3    H254465   4.261   5.113   2.201 -1.4016  0.3809 -1.9840
10992TIP3   OH254466   4.007   3.457  15.478  0.2721  0.5507 -0.2051
10992TIP3    H154467   4.063   3.380  15.469 -1.5872 -1.0881  1.4869
10992TIP3    H254468   3.939   3.445  15.412 -3.1969 -2.3406  3.3813
10993TIP3   OH254469   5.788   1.369  17.286 -0.0852 -0.4613 -0.1033
10993TIP3    H154470   5.758   1.280  17.265 -2.5638  0.3764 -0.3672
10993TIP3    H254471   5.787   1.372  17.382 -0.1571 -0.6686 -0.0968
10994TIP3   OH254472   0.401   4.912   1.030  0.7980 -0.3910  0.2269
10994TIP3    H154473   0.379   4.868   1.113 -0.1816 -0.8140 -0.2313
10994TIP3    H254474   0.486   4.877   1.006  0.5719 -1.1402  0.4877
10995TIP3   OH254475   2.716   5.299   2.002  0.4190 -0.1877 -0.6779
10995TIP3    H154476   2.667   5.243   1.942  0.3044 -2.2176  1.2151
10995TIP3    H254477   2.650   5.352   2.046  0.3044 -0.2434 -0.7849
10996TIP3   OH254478   6.217   3.945  11.318  0.2474  0.0531 -0.2142
10996TIP3    H154479   6.232   3.858  11.281 -0.4660  0.1807 -0.8279
10996TIP3    H254480   6.130   3.939  11.358  0.9377 -0.0390  1.3475
10997TIP3   OH254481   6.795   0.310  14.243  0.0931 -0.6431  0.2633
10997TIP3    H154482   6.716   0.331  14.293 -0.0035  0.4584 -0.3178
10997TIP3    H254483   6.846   0.391  14.244  0.7481 -1.0419 -0.2056
10998TIP3   OH254484   1.305   5.087  13.636 -0.2195  0.3028  0.0768
10998TIP3    H154485   1.276   5.026  13.569 -2.7010 -0.0483  1.3488
10998TIP3    H254486   1.258   5.168  13.616 -0.4909  0.3815  0.9758
10999TIP3   OH254487   5.489   3.061  15.588  0.1083 -0.1914 -0.0857
10999TIP3    H154488   5.423   3.128  15.571  0.7596 -0.1983 -3.3894
10999TIP3    H254489   5.572   3.109  15.589  0.3818 -0.6488 -0.1842
11000TIP3   OH254490   3.519   1.699   1.160 -0.3464 -0.1645 -0.2829
11000TIP3    H154491   3.576   1.672   1.088 -0.4080  0.6605 -0.6498
11000TIP3    H254492   3.510   1.621   1.214  3.2252  0.2539  1.2368
11001TIP3   OH254493   5.664   2.415   2.502  0.7478  0.2408  0.2315
11001TIP3    H154494   5.619   2.361   2.566  0.3639  0.4959  0.1778
11001TIP3    H254495   5.737   2.361   2.472 -0.0952 -0.5651 -0.4164
11002TIP3   OH254496   5.224   1.726   2.988  0.5588  0.0281 -0.4688
11002TIP3    H154497   5.296   1.750   3.047  0.6049 -0.0061 -0.5115
11002TIP3    H254498   5.191   1.810   2.956 -0.8288  0.1743  1.2155
11003TIP3   OH254499   5.235   0.992   2.500  0.1353  0.5604 -0.4311
11003TIP3    H154500   5.261   0.967   2.412 -0.2442  1.5494 -0.8409
11003TIP3    H254501   5.293   0.942   2.558 -0.2284 -0.7886 -1.2089
11004TIP3   OH254502   4.922   2.612   5.918 -0.5964 -0.1663  0.4599
11004TIP3    H154503   5.004   2.615   5.869  1.3695  1.1583  3.5158
11004TIP3    H254504   4.862   2.563   5.861  1.8714 -0.0974 -2.4753
11005TIP3   OH254505   5.507   4.970   3.043 -0.1725 -0.1035  0.0805
11005TIP3    H154506   5.598   4.965   3.073 -0.0276  0.6454 -0.2277
11005TIP3    H254507   5.459   5.003   3.119 -0.0086  0.5545 -0.0960
11006TIP3   OH254508   3.567   3.646   5.841 -0.1281 -0.7353  0.1087
11006TIP3    H154509   3.552   3.566   5.791 -1.1848 -0.9755  0.7750
11006TIP3    H254510   3.646   3.685   5.802 -1.4114 -0.4128 -2.3750
11007TIP3   OH254511   4.134   2.901  16.112  0.1568 -0.2868  0.6477
11007TIP3    H154512   4.079   2.827  16.088  1.2033 -0.8781  0.0086
11007TIP3    H254513   4.171   2.877  16.197 -0.4577  0.0477  1.0096
11008TIP3   OH254514   3.230   1.282   5.367 -0.2007  0.2694  0.3852
11008TIP3    H154515   3.239   1.205   5.310  0.8891  0.1914  0.6324
11008TIP3    H254516   3.156   1.261   5.424  0.2145 -0.7016  0.5927
11009TIP3   OH254517   0.837   6.262   0.914 -0.0999  0.3197 -0.2141
11009TIP3    H154518   0.874   6.346   0.887  2.4625 -0.5516  0.2700
11009TIP3    H254519   0.880   6.198   0.858  1.4229 -1.0436  2.3079
11010TIP3   OH254520   5.337   1.067  14.469  1.0622  0.0265 -0.1668
11010TIP3    H154521   5.257   1.051  14.520  0.5349 -1.9473 -1.5284
11010TIP3    H254522   5.358   1.159  14.486  0.1690 -0.1818  2.5160
11011TIP3   OH254523   2.483   3.142  15.906 -0.3022  0.0645  0.3744
11011TIP3    H154524   2.511   3.161  15.816  0.8118 -0.2859  0.6281
11011TIP3    H254525   2.441   3.056  15.900  0.5061 -0.3374  0.3113
11012TIP3   OH254526   5.871   3.244  16.043  0.4611 -0.3734  0.2588
11012TIP3    H154527   5.885   3.293  16.124 -1.4387  0.3788  0.1785
11012TIP3    H254528   5.942   3.273  15.985  1.1636 -0.0576  1.2551
11013TIP3   OH254529   6.783   0.828  12.026 -0.0525 -0.3641 -0.2134
11013TIP3    H154530   6.789   0.923  12.020 -1.8670 -0.2978 -1.8596
11013TIP3    H254531   6.796   0.797  11.936  0.0225 -1.6561  0.2145
11014TIP3   OH254532   4.564   2.347  12.545  0.3424  0.9355 -0.0883
11014TIP3    H154533   4.655   2.358  12.573  0.7074 -1.8586  0.0928
11014TIP3    H254534   4.562   2.382  12.456  1.5943  1.0289 -0.0969
11015TIP3   OH254535   3.310   2.206  16.596  0.2858 -0.4381 -0.3549
11015TIP3    H154536   3.285   2.246  16.513  0.5166  1.0575  0.2750
11015TIP3    H254537   3.226   2.183  16.637  0.1379 -0.3577 -0.6108
11016TIP3   OH254538   2.059   1.650   4.000 -0.7021  0.4081 -0.0096
11016TIP3    H154539   2.095   1.581   4.056 -2.0591  0.6910  1.2913
11016TIP3    H254540   2.131   1.712   3.988  0.4222 -1.0371 -0.9108
11017TIP3   OH254541   6.275   1.604   3.698 -0.1748  0.0235  0.1616
11017TIP3    H154542   6.268   1.634   3.608 -1.6864  0.5290  0.4198
11017TIP3    H254543   6.364   1.628   3.725 -0.7892  2.9694 -0.1161
11018TIP3   OH254544   0.834   0.592  15.514 -0.4813  0.5401 -1.1458
11018TIP3    H154545   0.850   0.590  15.419  2.5614 -1.6641 -0.7075
11018TIP3    H254546   0.823   0.501  15.538 -0.6553  1.0272  0.7397
11019TIP3   OH254547   1.165   1.148  14.696 -0.2228  0.0281 -0.1373
11019TIP3    H154548   1.186   1.125  14.606 -0.3408  1.6265 -0.6057
11019TIP3    H254549   1.249   1.139  14.743  0.5006  1.7395 -0.9963
11020TIP3   OH254550   1.436   2.452  16.255 -0.7097 -0.5080 -0.0232
11020TIP3    H154551   1.420   2.412  16.170  0.8598 -1.0815 -0.0861
11020TIP3    H254552   1.511   2.511  16.240 -0.8547 -0.0949  0.8047
11021TIP3   OH254553   0.466   0.788   1.443  0.1549 -0.0384  0.0936
11021TIP3    H154554   0.549   0.767   1.486 -0.8733 -5.0399  0.2953
11021TIP3    H254555   0.400   0.764   1.508 -1.3677 -2.3899 -2.1243
11022TIP3   OH254556   4.153   3.283   3.734 -0.0202 -0.2662  0.1897
11022TIP3    H154557   4.077   3.265   3.790 -1.9101  1.4011 -1.6774
11022TIP3    H254558   4.209   3.339   3.788 -1.0092  0.0010  0.9848
11023TIP3   OH254559   2.901   0.920   4.948  0.1169 -0.2130 -0.4284
11023TIP3    H154560   2.869   0.894   5.034 -0.7719  0.5833 -0.4994
11023TIP3    H254561   2.836   0.886   4.886  0.3060 -0.0530 -0.7190
11024TIP3   OH254562   1.804   2.850  11.947 -0.1019  0.0413 -0.3909
11024TIP3    H154563   1.722   2.826  11.990 -1.4131  0.2616 -2.6283
11024TIP3    H254564   1.831   2.931  11.990 -0.1125 -0.8917  1.5021
11025TIP3   OH254565   5.049   5.542   4.047  0.4154  0.0013  0.0223
11025TIP3    H154566   5.046   5.449   4.027  2.4883 -0.2284  0.6162
11025TIP3    H254567   4.971   5.578   4.004  0.3914 -1.7470 -1.5156
11026TIP3   OH254568   4.188   1.036  14.752 -0.4352 -0.6150  0.9125
11026TIP3    H154569   4.109   1.045  14.806 -1.1107 -2.5674  0.3281
11026TIP3    H254570   4.182   1.108  14.689 -2.2388 -1.2354  0.3205
11027TIP3   OH254571   4.125   3.307  15.978  0.2416  0.5931  0.3624
11027TIP3    H154572   4.077   3.237  16.021 -0.4285  1.0449  0.3717
11027TIP3    H254573   4.075   3.325  15.899  0.7303  0.6705  0.0678
11028TIP3   OH254574   3.029   2.103   3.593 -0.2191 -0.1159 -0.1026
11028TIP3    H154575   3.069   2.188   3.613 -0.9367  0.4602 -1.0724
11028TIP3    H254576   3.006   2.067   3.679  2.3982 -0.5110  0.5231
11029TIP3   OH254577   3.245   1.421  16.543 -0.0916 -0.3370 -0.6287
11029TIP3    H154578   3.159   1.390  16.513  1.4351 -2.0823 -3.6603
11029TIP3    H254579   3.296   1.342  16.559  1.0686  0.6634  0.9365
11030TIP3   OH254580   3.100   6.608  12.793  0.5639 -0.3849 -0.2512
11030TIP3    H154581   3.147   6.692  12.792 -0.4013  0.3454  3.1275
11030TIP3    H254582   3.010   6.632  12.819  0.2361 -2.4353  0.6514
11031TIP3   OH254583   1.579   6.639  12.911  0.0371  0.3146  0.7362
11031TIP3    H154584   1.540   6.558  12.943 -3.0187  1.3034 -0.1228
11031TIP3    H254585   1.600   6.621  12.820 -0.8148  0.5114  0.4932
11032TIP3   OH254586   1.870   5.544  15.394 -0.8087 -0.7193 -0.3071
11032TIP3    H154587   1.844   5.540  15.486 -1.5854 -1.9663 -0.5650
11032TIP3    H254588   1.886   5.453  15.370 -0.3358 -0.3768 -1.3394
11033TIP3   OH254589   4.881   0.410  14.057 -0.2526  0.5081 -0.0088
11033TIP3    H154590   4.888   0.443  13.967  1.1217  0.7790  0.1817
11033TIP3    H254591   4.969   0.417  14.093 -0.8755  0.8833  1.5433
11034TIP3   OH254592   1.319   6.581   0.028  0.1614  0.2358  0.0121
11034TIP3    H154593   1.362   6.498   0.007 -0.5852  0.3652 -2.1985
11034TIP3    H254594   1.385   6.648   0.010  0.0261  0.2548 -0.4146
11035TIP3   OH254595   1.677   3.910   4.578  0.1912  0.3201  0.0887
11035TIP3    H154596   1.751   3.914   4.638  0.7148 -1.0659 -0.4192
11035TIP3    H254597   1.659   3.816   4.569  0.5925  0.4422 -2.4720
11036TIP3   OH254598   5.123   2.082  13.824  0.0236  0.5098 -0.4988
11036TIP3    H154599   5.031   2.077  13.800  0.3379 -0.3297 -1.6621
11036TIP3    H254600   5.168   2.102  13.742  0.9360  0.1032 -0.1198
11037TIP3   OH254601   2.158   5.718  11.672  0.0535  0.0441 -0.5450
11037TIP3    H154602   2.178   5.685  11.759  0.6785  2.8351  0.4959
11037TIP3    H254603   2.163   5.642  11.615  0.6237 -1.6993  1.6963
11038TIP3   OH254604   5.770   4.910   4.774  0.1418 -0.3056 -0.2086
11038TIP3    H154605   5.802   4.833   4.726 -0.4869 -0.2050 -0.8015
11038TIP3    H254606   5.800   4.985   4.722 -0.1624 -0.1819 -0.2040
11039TIP3   OH254607   4.087   5.800  16.588  0.0696  0.3783  0.2531
11039TIP3    H154608   4.020   5.786  16.656  0.8997  1.0326  1.2440
11039TIP3    H254609   4.055   5.874  16.537  0.4919  1.3732  1.3741
11040TIP3   OH254610   2.853   6.675   0.747 -0.1054  0.2914 -0.0322
11040TIP3    H154611   2.774   6.675   0.694 -0.9510 -0.9578  1.1556
11040TIP3    H254612   2.821   6.678   0.837  1.1911 -0.5843  0.4827
11041TIP3   OH254613   1.856   1.062  12.918 -0.4598 -0.1522  0.1133
11041TIP3    H154614   1.840   1.006  12.842  0.6418 -1.4489  0.7873
11041TIP3    H254615   1.769   1.094  12.943 -1.0097 -0.8756 -0.8173
11042TIP3   OH254616   1.335   1.843  13.431  0.1657 -0.1010  0.1397
11042TIP3    H154617   1.304   1.797  13.510  1.0959 -1.0437 -0.0278
11042TIP3    H254618   1.404   1.901  13.463 -1.5312  1.8251  0.4752
11043TIP3   OH254619   1.404   5.682   1.046  0.2600 -0.2070  0.2745
11043TIP3    H154620   1.453   5.655   1.124 -0.8687 -0.1673  1.0106
11043TIP3    H254621   1.324   5.630   1.048  0.4105 -0.5233 -1.1054
11044TIP3   OH254622   2.906   3.544  11.812 -0.2081  0.0711 -0.4620
11044TIP3    H154623   2.859   3.469  11.774  1.5924 -0.2443 -2.2164
11044TIP3    H254624   2.949   3.508  11.889 -0.8108 -0.2504 -0.2681
11045TIP3   OH254625   5.660   5.130   2.272  0.2915 -0.1350  0.4217
11045TIP3    H154626   5.705   5.080   2.204  0.8259  1.0124 -0.0883
11045TIP3    H254627   5.674   5.221   2.248  0.5654  0.3044  2.1264
11046TIP3   OH254628   5.653   2.163   4.686  0.1456  0.3783  0.4738
11046TIP3    H154629   5.675   2.085   4.736  0.9429  1.1106  1.3064
11046TIP3    H254630   5.692   2.148   4.600 -1.2493 -0.8938  0.0289
11047TIP3   OH254631   5.520   1.297  11.834 -0.0568  0.0717 -0.4427
11047TIP3    H154632   5.556   1.238  11.767 -0.5019  1.2553 -1.7881
11047TIP3    H254633   5.506   1.379  11.787 -4.1421 -0.1640 -0.0132
11048TIP3   OH254634   5.580   1.775  12.487  0.4004  0.9003 -0.1336
11048TIP3    H154635   5.615   1.851  12.533  2.3529  1.2033 -1.9464
11048TIP3    H254636   5.497   1.755  12.531  1.7935  1.5355  2.9663
11049TIP3   OH254637   5.549   4.223   0.125  0.2481 -0.2884  0.5111
11049TIP3    H154638   5.463   4.197   0.093 -0.2076  0.2344  1.2802
11049TIP3    H254639   5.580   4.288   0.063 -0.5630  0.6113  1.0225
11050TIP3   OH254640   6.280   2.939  14.579 -0.3155  0.3565 -0.0741
11050TIP3    H154641   6.255   2.847  14.590  0.3384  0.3648  2.1931
11050TIP3    H254642   6.347   2.938  14.510 -2.4108 -0.3943 -2.2108
11051TIP3   OH254643   2.701   4.004  13.661 -0.3848 -0.0747  0.0555
11051TIP3    H154644   2.716   4.079  13.719 -1.0102  2.0202 -2.3532
11051TIP3    H254645   2.616   4.021  13.621 -0.7237 -2.3021 -0.2909
11052TIP3   OH254646   5.955   2.085  13.994  0.2751  0.3016 -0.0061
11052TIP3    H154647   6.040   2.079  14.038 -0.6360 -2.1666  1.6596
11052TIP3    H254648   5.895   2.114  14.063 -0.3709  1.3974 -1.0032
11053TIP3   OH254649   1.916   1.593   1.090 -0.6503  0.9362  0.2367
11053TIP3    H154650   1.900   1.601   0.996 -0.8330  0.5791  0.2361
11053TIP3    H254651   1.992   1.649   1.107  1.6048 -1.6037 -0.7310
11054TIP3   OH254652   2.370   2.387  13.322 -0.3188  0.0840  0.6303
11054TIP3    H154653   2.458   2.349  13.329  0.0838  0.9213  0.2251
11054TIP3    H254654   2.368   2.427  13.235  0.2926  3.4262  2.0070
11055TIP3   OH254655   1.666   1.213   5.403 -0.1374  0.4227  0.2757
11055TIP3    H154656   1.755   1.197   5.435 -0.2250  0.7723  0.7101
11055TIP3    H254657   1.630   1.125   5.387  1.0737  0.2884 -2.1943
11056TIP3   OH254658   3.972   3.011  13.231  0.1175  0.3960  0.4715
11056TIP3    H154659   3.946   2.972  13.148 -0.6380 -0.9632  1.3061
11056TIP3    H254660   3.895   3.060  13.260  0.9801  2.4389 -0.4553
11057TIP3   OH254661   1.120   2.782  12.590 -0.6427  0.1689  0.2355
11057TIP3    H154662   1.190   2.738  12.637  0.3990  1.1494 -0.3432
11057TIP3    H254663   1.087   2.848  12.651 -0.2547  0.4937  0.0960
11058TIP3   OH254664   0.830   2.152  13.013  0.0612  0.3487 -0.6279
11058TIP3    H154665   0.905   2.174  13.068  0.3338 -1.9212  0.0179
11058TIP3    H254666   0.844   2.203  12.932  0.2675  2.8329  0.8720
11059TIP3   OH254667   0.598   5.388   0.707 -0.6820 -0.0582 -0.1604
11059TIP3    H154668   0.562   5.477   0.710  0.7898  0.5427  1.4909
11059TIP3    H254669   0.686   5.399   0.670 -1.1255 -1.1191 -1.6406
11060TIP3   OH254670   5.557   1.085   3.086 -0.5703  0.1535 -0.1036
11060TIP3    H154671   5.611   1.110   3.161 -0.3003 -0.7162  0.0000
11060TIP3    H254672   5.494   1.157   3.076  0.5580  1.1636 -0.1896
11061TIP3   OH254673   2.837   4.955  12.307 -0.2800  0.5811 -0.5050
11061TIP3    H154674   2.840   4.890  12.377  0.2233  0.6248 -0.4829
11061TIP3    H254675   2.897   4.921  12.240  0.1713  1.1303 -0.3908
11062TIP3   OH254676   6.623   6.193   0.513  0.0132 -0.1206 -0.0126
11062TIP3    H154677   6.599   6.189   0.420  1.2272 -1.1476 -0.3074
11062TIP3    H254678   6.718   6.199   0.513 -0.0849  2.4473  1.1611
11063TIP3   OH254679   6.673   5.093   1.177 -0.6023  0.2186  0.3035
11063TIP3    H154680   6.640   5.150   1.108  0.2818 -0.6576 -0.8869
11063TIP3    H254681   6.768   5.102   1.172 -0.5059 -0.2607  1.0731
11064TIP3   OH254682   4.234   4.186  16.693  0.2225  0.0247  0.1671
11064TIP3    H154683   4.278   4.207  16.611 -1.4781 -1.3245 -1.1821
11064TIP3    H254684   4.158   4.245  16.696 -1.3168 -1.8077 -0.7325
11065TIP3   OH254685   4.895   3.575  15.650  0.3777  0.2990  0.5846
11065TIP3    H154686   4.971   3.531  15.612  0.1175 -1.4129  1.9154
11065TIP3    H254687   4.868   3.639  15.584  1.9150 -0.2648 -0.6345
11066TIP3   OH254688   5.820   3.615  12.611  0.5084  0.1371  0.1409
11066TIP3    H154689   5.830   3.565  12.530  0.1388  0.6600 -0.2323
11066TIP3    H254690   5.781   3.698  12.583 -2.5099 -0.8096  1.1908
11067TIP3   OH254691   4.899   4.583  13.476 -0.5695  0.1350  0.3692
11067TIP3    H154692   4.855   4.583  13.390  0.4948 -3.2128 -0.2990
11067TIP3    H254693   4.987   4.552  13.457 -0.5265 -1.3794  2.7421
11068TIP3   OH254694   5.007   2.997  16.451 -0.0120 -0.4251  0.1422
11068TIP3    H154695   5.076   3.054  16.418 -0.1584 -0.5258 -0.3366
11068TIP3    H254696   4.955   2.973  16.374 -0.4899 -0.4791  0.4716
11069TIP3   OH254697   4.491   6.085  14.926  0.2862  0.0460 -0.3307
11069TIP3    H154698   4.436   6.163  14.933  1.2123  0.6397  0.5318
11069TIP3    H254699   4.520   6.084  14.835 -0.6558  0.0527 -0.6464
11070TIP3   OH254700   0.535   5.461   2.414  0.4431 -0.3042  0.4765
11070TIP3    H154701   0.574   5.486   2.331 -1.3390  0.9241 -0.0318
11070TIP3    H254702   0.601   5.404   2.455  1.1212 -1.4307 -1.9976
11071TIP3   OH254703   5.506   2.466   3.300 -0.6871 -0.0763 -0.1280
11071TIP3    H154704   5.563   2.500   3.231 -1.1521  0.8434 -0.0637
11071TIP3    H254705   5.498   2.537   3.363  1.3239 -1.5375  1.9354
11072TIP3   OH254706   4.627   1.348   2.154  0.1018 -0.1011 -0.2375
11072TIP3    H154707   4.672   1.432   2.155  0.5338 -0.3061  1.3624
11072TIP3    H254708   4.621   1.324   2.062  2.9057  0.1127 -0.5408
11073TIP3   OH254709   2.673   1.657  13.306  0.2210  0.8511  0.1745
11073TIP3    H154710   2.719   1.591  13.358 -0.0242  0.3014 -0.2997
11073TIP3    H254711   2.708   1.646  13.218  0.2690  1.4461  0.1134
11074TIP3   OH254712   2.849   1.590  15.289 -0.0382  0.2717 -0.4031
11074TIP3    H154713   2.888   1.502  15.292 -1.6491 -0.4695  0.7880
11074TIP3    H254714   2.865   1.626  15.377  1.3962  1.5787 -1.1522
11075TIP3   OH254715   0.931   2.108   4.437  0.0634  0.1613 -0.2056
11075TIP3    H154716   0.872   2.176   4.403  1.5577  1.7476  0.2150
11075TIP3    H254717   1.018   2.138   4.413  0.7629 -1.9031 -0.4269
11076TIP3   OH254718   1.957   2.544  12.523  0.4744 -0.4887  0.3631
11076TIP3    H154719   1.900   2.479  12.482  0.2728  0.7301 -1.3980
11076TIP3    H254720   1.902   2.584  12.591 -0.6708  0.3314 -0.9827
11077TIP3   OH254721   0.974   6.471  13.377  0.3714  0.2315  0.6078
11077TIP3    H154722   0.948   6.381  13.357  0.1995  0.3643  0.2175
11077TIP3    H254723   1.056   6.483  13.330 -0.1683  0.6320 -0.2668
11078TIP3   OH254724   1.596   0.284  15.509 -0.4946  0.0400  0.2184
11078TIP3    H154725   1.508   0.314  15.530  0.0341  1.8382 -0.0124
11078TIP3    H254726   1.635   0.260  15.593 -1.0910 -0.4589  0.3523
11079TIP3   OH254727   2.096   5.732   1.304  0.3536  0.1424  0.2968
11079TIP3    H154728   2.050   5.703   1.225  0.2778 -2.2825  1.1668
11079TIP3    H254729   2.170   5.672   1.312  0.5387  0.5405  1.9016
11080TIP3   OH254730   2.423   6.777   2.645 -0.1918 -0.0707 -0.5374
11080TIP3    H154731   2.463   6.799   2.561  0.6062 -1.5559 -0.5695
11080TIP3    H254732   2.333   6.809   2.637 -0.0421  0.0849 -1.8348
11081TIP3   OH254733   1.981   6.666  15.420 -0.0670 -0.5989  0.3042
11081TIP3    H154734   1.896   6.695  15.453  0.2788  0.0261  0.6622
11081TIP3    H254735   1.968   6.655  15.326 -0.1960  0.7967  0.1366
11082TIP3   OH254736   5.212   0.160   2.106 -0.3258 -0.0417  0.1942
11082TIP3    H154737   5.177   0.073   2.094 -0.7845  0.1871 -0.1322
11082TIP3    H254738   5.136   0.218   2.103 -0.2762  0.2216  2.2356
11083TIP3   OH254739   2.551   2.693   1.771  0.0198 -0.0764  0.1379
11083TIP3    H154740   2.473   2.683   1.824 -1.2937 -1.0630 -1.8558
11083TIP3    H254741   2.559   2.788   1.757 -0.4377  0.0735  0.8748
11084TIP3   OH254742   1.696   2.970  11.265 -0.1415  0.1185  0.2733
11084TIP3    H154743   1.634   3.020  11.211 -0.3128  0.5461  0.8542
11084TIP3    H254744   1.782   3.007  11.243 -0.2572  0.6131  0.6254
11085TIP3   OH254745   0.831   0.158   2.704  0.4251 -0.5497  0.6549
11085TIP3    H154746   0.816   0.064   2.704  0.4326 -0.5529  0.1508
11085TIP3    H254747   0.851   0.179   2.795  2.1970 -1.3212  0.4892
11086TIP3   OH254748   1.581   3.338  15.807  0.3631  0.3074  0.3869
11086TIP3    H154749   1.492   3.371  15.797  0.0221 -0.9194 -0.8473
11086TIP3    H254750   1.626   3.362  15.726  0.8320 -0.0537  0.5326
11087TIP3   OH254751   3.257   3.981  14.342 -0.0971  0.0620  0.4974
11087TIP3    H154752   3.213   4.051  14.390  1.5205  2.4182 -1.2021
11087TIP3    H254753   3.345   3.979  14.379  0.9343  1.3852 -1.6713
11088TIP3   OH254754   0.692   1.629   3.201 -0.2438  0.9231  0.2404
11088TIP3    H154755   0.604   1.650   3.233 -0.7680  0.0896 -0.5870
11088TIP3    H254756   0.719   1.554   3.256 -0.6663  0.2400 -0.4628
11089TIP3   OH254757   4.683   5.253  11.849 -0.0814 -0.0622 -0.6011
11089TIP3    H154758   4.747   5.324  11.854 -0.3048  0.1150 -0.2591
11089TIP3    H254759   4.674   5.237  11.755 -0.8494  1.1117 -0.7455
11090TIP3   OH254760   4.345   3.285   1.838 -0.0465 -0.2680 -0.0470
11090TIP3    H154761   4.273   3.342   1.862  0.5884  1.2412 -1.5471
11090TIP3    H254762   4.326   3.258   1.749 -0.7484 -3.1730  0.8527
11091TIP3   OH254763   5.127   3.296  10.576  0.5071  0.0077 -0.6041
11091TIP3    H154764   5.049   3.240  10.573  0.1944  0.4461 -0.7276
11091TIP3    H254765   5.097   3.378  10.614  0.5512  0.7250 -2.0506
11092TIP3   OH254766   5.436   2.885   5.092  0.4446 -0.1079  0.0807
11092TIP3    H154767   5.378   2.950   5.052  2.3823  2.3881  1.0101
11092TIP3    H254768   5.379   2.833   5.148 -1.5846 -0.8735 -2.4617
11093TIP3   OH254769   6.291   0.227  15.776 -0.4051  0.6827  0.4906
11093TIP3    H154770   6.354   0.177  15.828 -0.0079 -0.9685 -1.4707
11093TIP3    H254771   6.217   0.168  15.765 -0.2540  0.7725 -1.2275
11094TIP3   OH254772   6.656   4.738   1.490 -0.1148  0.2532  0.5039
11094TIP3    H154773   6.691   4.826   1.507  0.5550  0.1971 -0.4885
11094TIP3    H254774   6.598   4.749   1.416  0.0990 -0.1664  0.2693
11095TIP3   OH254775   5.382   5.530  15.325 -0.4180 -0.0740  0.4559
11095TIP3    H154776   5.299   5.485  15.307 -0.9469  1.3590 -0.9678
11095TIP3    H254777   5.398   5.583  15.247  1.0726  0.8348  1.3259
11096TIP3   OH254778   2.711   2.020   1.541 -0.0182 -0.7963 -0.0580
11096TIP3    H154779   2.695   2.112   1.561 -1.2606 -0.5258 -1.9836
11096TIP3    H254780   2.733   1.980   1.626 -0.2878  1.0851  0.9494
11097TIP3   OH254781   3.215   0.910   3.549 -0.5078 -0.5752 -0.4311
11097TIP3    H154782   3.260   0.864   3.621 -1.4832 -4.2481 -1.9075
11097TIP3    H254783   3.283   0.962   3.507  0.9974 -1.4464  0.8111
11098TIP3   OH254784   2.024   3.820  13.595 -0.1140 -0.0396 -0.6885
11098TIP3    H154785   2.010   3.809  13.689 -0.2958  1.1228 -0.5682
11098TIP3    H254786   1.941   3.854  13.562  0.5516  1.4626 -0.9178
11099TIP3   OH254787   4.537   0.910   1.363  0.5291  0.3491  0.8971
11099TIP3    H154788   4.550   0.838   1.425  1.2710 -0.3049 -0.0077
11099TIP3    H254789   4.573   0.987   1.408 -1.9079  0.5852  2.6398
11100TIP3   OH254790   2.251   3.007  15.452 -0.0504  0.1888 -0.1961
11100TIP3    H154791   2.206   3.057  15.384 -0.9039 -2.0733 -1.4029
11100TIP3    H254792   2.340   2.996  15.419  0.3738  1.5362  0.4512
11101TIP3   OH254793   6.413   4.538  11.885 -0.0454  0.0967 -0.0651
11101TIP3    H154794   6.506   4.543  11.908 -0.1426 -0.1657  0.3971
11101TIP3    H254795   6.407   4.461  11.828  0.3073  1.1354 -1.5486
11102TIP3   OH254796   5.904   2.766   3.739  0.2147 -0.3902 -0.2320
11102TIP3    H154797   5.864   2.696   3.792  1.7168 -1.4288 -0.3884
11102TIP3    H254798   5.866   2.755   3.652 -1.7534  0.8914  0.3940
11103TIP3   OH254799   1.094   3.381  11.590  0.0076  0.4142 -0.1150
11103TIP3    H154800   1.122   3.441  11.521  0.5470 -0.4300 -0.6503
11103TIP3    H254801   1.174   3.336  11.617 -0.4749 -0.4909 -0.1496
11104TIP3   OH254802   2.470   0.333   5.485 -0.3618  0.3766  0.9005
11104TIP3    H154803   2.383   0.363   5.512 -0.9692 -0.0688 -0.4293
11104TIP3    H254804   2.452   0.273   5.412  0.9349 -1.3436  1.9303
11105TIP3   OH254805   0.094   2.124   4.809 -0.4676  0.0283 -0.3253
11105TIP3    H154806   0.030   2.179   4.765  0.5681  0.7351 -0.9919
11105TIP3    H254807   0.045   2.083   4.881 -2.0573 -0.7288 -1.7656
11106TIP3   OH254808   1.862   0.309   4.998  0.1694  0.4888  0.2071
11106TIP3    H154809   1.850   0.248   4.924 -1.3885 -0.2120  0.9932
11106TIP3    H254810   1.788   0.369   4.991  0.6047  1.0693  0.5939
11107TIP3   OH254811   1.646   0.563   1.255 -0.5009  0.4811  0.0277
11107TIP3    H154812   1.618   0.578   1.165  0.1297  1.9707  0.0489
11107TIP3    H254813   1.729   0.610   1.263 -1.6888  2.4475  2.0332
11108TIP3   OH254814   3.219   6.665   4.461 -0.6380  0.0707  0.0049
11108TIP3    H154815   3.256   6.625   4.540 -0.2433  1.1050  0.3519
11108TIP3    H254816   3.287   6.656   4.395 -0.3595  0.6216  0.2205
11109TIP3   OH254817   4.905   2.745   1.894 -0.3238  0.0505 -0.1221
11109TIP3    H154818   4.898   2.834   1.927  1.2130 -0.0557  0.5649
11109TIP3    H254819   4.895   2.753   1.799  1.1567  1.1540 -0.2227
11110TIP3   OH254820   2.099   5.511  13.048  0.2353  0.4846  0.4255
11110TIP3    H154821   2.149   5.559  12.982 -1.4567  3.4250  1.0955
11110TIP3    H254822   2.008   5.518  13.019 -0.2319 -1.0747  1.3858
11111TIP3   OH254823   4.394   6.062   0.800  0.2451  0.7663 -0.3017
11111TIP3    H154824   4.402   6.142   0.852  0.8195  0.5966 -0.1266
11111TIP3    H254825   4.317   6.018   0.835 -0.8099  1.8197 -1.1931
11112TIP3   OH254826   6.548   2.653  13.019  0.4638  0.1975  0.4871
11112TIP3    H154827   6.551   2.557  13.021 -0.5083  0.1373 -0.3052
11112TIP3    H254828   6.635   2.678  12.987  0.3772 -0.4692 -0.3282
11113TIP3   OH254829   6.113   5.085   5.195  0.4214  0.3470  0.1134
11113TIP3    H154830   6.045   5.089   5.128 -0.9551 -1.2365  1.3227
11113TIP3    H254831   6.182   5.144   5.163  0.2368 -0.9414 -3.0842
11114TIP3   OH254832   6.050   4.951   5.942 -0.1385  0.2441 -0.7762
11114TIP3    H154833   6.119   4.989   5.887  1.1832 -1.4334 -0.3275
11114TIP3    H254834   6.044   5.010   6.017  0.1736  0.8890 -1.2452
11115TIP3   OH254835   0.873   0.738   1.773  0.4118  0.7488  0.1171
11115TIP3    H154836   0.910   0.685   1.843  1.3690  1.8645  0.4799
11115TIP3    H254837   0.814   0.799   1.817 -0.9925 -0.2066 -0.3381
11116TIP3   OH254838   0.403   5.522   5.830 -0.3200  0.3413  0.1646
11116TIP3    H154839   0.410   5.494   5.739 -1.5432 -1.1402  0.4934
11116TIP3    H254840   0.329   5.583   5.831  0.0196  0.7620  0.0936
11117TIP3   OH254841   3.163   4.215  12.243 -0.0196  0.4297  0.2066
11117TIP3    H154842   3.204   4.141  12.288  0.1915  0.7797  0.6066
11117TIP3    H254843   3.187   4.291  12.297 -0.8414  0.6976  0.2117
11118TIP3   OH254844   1.926   1.342   3.235 -0.0523  0.3381  0.1898
11118TIP3    H154845   2.002   1.396   3.258  0.1189  0.1581  0.0551
11118TIP3    H254846   1.864   1.356   3.306  0.4900 -0.2543  0.7897
11119TIP3   OH254847   1.317   2.668  16.970 -0.1028 -0.0938 -0.1950
11119TIP3    H154848   1.334   2.757  17.001 -0.4566 -0.0344 -0.1676
11119TIP3    H254849   1.245   2.678  16.908  0.1259 -0.3084 -0.4987
11120TIP3   OH254850   2.072   6.085  14.592 -0.0276 -0.3655 -0.1475
11120TIP3    H154851   2.144   6.106  14.532 -0.6161 -1.1153 -1.1400
11120TIP3    H254852   2.091   5.995  14.620  0.0835 -0.1236  0.5787
11121TIP3   OH254853   3.753   1.087  14.473  0.5968 -0.1139  0.1546
11121TIP3    H154854   3.802   1.016  14.515  0.9847  0.7685  1.2487
11121TIP3    H254855   3.817   1.130  14.416  0.2579 -0.8732 -0.8112
11122TIP3   OH254856   6.279   6.493   5.416  0.3539  0.4585  0.3201
11122TIP3    H154857   6.286   6.412   5.468 -0.1999 -1.6078 -2.5415
11122TIP3    H254858   6.214   6.545   5.461  1.9551  0.1594  3.2160
11123TIP3   OH254859   4.241   6.786   5.945  0.0758 -0.3058 -0.0032
11123TIP3    H154860   4.161   6.763   5.898  0.6037 -4.4853  0.7700
11123TIP3    H254861   4.305   6.802   5.876 -0.7934  0.6189 -0.6220
11124TIP3   OH254862   6.440   4.854  16.321 -0.0106 -0.0799 -0.4279
11124TIP3    H154863   6.428   4.871  16.414  1.5418 -0.7940 -0.0703
11124TIP3    H254864   6.395   4.770  16.306 -1.6801  0.8305 -0.7052
11125TIP3   OH254865   3.210   3.934   4.512 -0.3223  0.0080  0.1147
11125TIP3    H154866   3.281   3.990   4.544 -0.1726  0.5233 -1.0438
11125TIP3    H254867   3.130   3.975   4.546 -0.0625 -1.1946  2.3473
11126TIP3   OH254868   5.805   3.766   4.298  0.3388 -0.4642 -0.6389
11126TIP3    H154869   5.730   3.824   4.285  0.5432 -0.1615 -0.4788
11126TIP3    H254870   5.875   3.824   4.328 -0.1029 -1.0726  1.8359
11127TIP3   OH254871   1.182   5.906   4.171  0.1223  0.3378 -0.0927
11127TIP3    H154872   1.261   5.869   4.130 -1.7712 -0.6562 -3.2020
11127TIP3    H254873   1.179   5.996   4.141  0.3012  0.5183  0.4212
11128TIP3   OH254874   0.779   3.879  10.810 -0.4202 -0.3564  0.3772
11128TIP3    H154875   0.690   3.873  10.844 -0.0554 -0.2749  1.3547
11128TIP3    H254876   0.831   3.914  10.882 -0.1207  2.4733 -1.0717
11129TIP3   OH254877   4.357   3.333  16.945  0.1106  0.3248 -0.3892
11129TIP3    H154878   4.412   3.336  16.867 -1.6991 -0.2311 -1.7700
11129TIP3    H254879   4.363   3.242  16.976 -1.6093 -0.3291 -1.8149
11130TIP3   OH254880   3.221   4.250   4.606 -0.5612  0.0773 -0.6732
11130TIP3    H154881   3.140   4.292   4.576 -0.3587  1.7342  0.8947
11130TIP3    H254882   3.217   4.257   4.701  0.8333 -1.0134 -0.5079
11131TIP3   OH254883   5.592   5.398   4.160  0.0145  0.8612 -0.7446
11131TIP3    H154884   5.632   5.484   4.174  0.8012  0.4098 -0.0984
11131TIP3    H254885   5.502   5.417   4.135  0.6730  1.9309 -2.5162
11132TIP3   OH254886   4.874   0.823  13.848  0.7801  0.4423  0.0439
11132TIP3    H154887   4.893   0.817  13.754  2.2613 -2.3096  0.4265
11132TIP3    H254888   4.798   0.767  13.861  1.3250 -0.1860  0.6281
11133TIP3   OH254889   5.444   2.145  12.913  0.0575  0.0632 -0.6576
11133TIP3    H154890   5.409   2.151  13.002 -0.7533 -1.5268 -0.8224
11133TIP3    H254891   5.447   2.235  12.882  1.7978  0.8276  1.4903
11134TIP3   OH254892   5.463   6.336   1.287 -0.1123  0.5705  0.3095
11134TIP3    H154893   5.502   6.402   1.345 -0.6960  1.1358  0.0730
11134TIP3    H254894   5.375   6.321   1.324  0.2706 -0.6188  0.7834
11135TIP3   OH254895   1.516   4.032   4.788 -0.5383  0.7991  0.8027
11135TIP3    H154896   1.573   3.975   4.839 -2.4908 -0.9485  1.1845
11135TIP3    H254897   1.535   4.009   4.697 -1.2582 -0.5152  0.9490
11136TIP3   OH254898   1.196   1.661   1.039 -0.1458  0.3917 -0.2780
11136TIP3    H154899   1.201   1.571   1.071 -0.2027 -0.1359 -1.7119
11136TIP3    H254900   1.251   1.662   0.961 -1.5734  1.1436 -1.3143
11137TIP3   OH254901   4.761   2.388  13.713  0.3749 -0.4664 -0.0512
11137TIP3    H154902   4.853   2.381  13.740  1.1436  0.0425 -2.3532
11137TIP3    H254903   4.761   2.455  13.645 -2.2987  2.2055  2.2973
11138TIP3   OH254904   6.532   4.430   2.682  0.0794  0.3324 -0.0540
11138TIP3    H154905   6.575   4.437   2.596  1.8609 -0.3720  0.7216
11138TIP3    H254906   6.593   4.472   2.742 -0.7757  0.0985  0.9951
11139TIP3   OH254907   1.035   2.735  13.811  0.1879 -0.0741  0.1052
11139TIP3    H154908   0.972   2.787  13.861 -3.2090 -3.7605  0.1746
11139TIP3    H254909   0.995   2.728  13.724  1.3623 -1.1985 -0.3577
11140TIP3   OH254910   2.718   0.730   2.144 -0.1545  0.9666 -0.7133
11140TIP3    H154911   2.657   0.762   2.077  0.0007  2.1937 -0.2911
11140TIP3    H254912   2.802   0.722   2.099 -0.6315 -0.8970 -1.3427
11141TIP3   OH254913   0.599   3.211  12.921 -0.3614  0.0118  0.2872
11141TIP3    H154914   0.688   3.197  12.954  0.3470  0.0751 -1.4719
11141TIP3    H254915   0.543   3.197  12.997  1.2060  1.0154  1.7104
11142TIP3   OH254916   4.217   0.581   1.290 -0.2065 -0.3943  0.2646
11142TIP3    H154917   4.301   0.617   1.264  0.0130 -1.4092 -0.4941
11142TIP3    H254918   4.153   0.629   1.237  0.1661 -1.8150 -1.5817
11143TIP3   OH254919   5.813   2.817   0.356  0.9768 -0.2316  0.0884
11143TIP3    H154920   5.904   2.799   0.376  1.4554 -1.0015 -2.3896
11143TIP3    H254921   5.816   2.889   0.292 -0.2112  0.3241  0.6199
11144TIP3   OH254922   1.635   3.456   0.301  0.1120  0.2276 -0.6882
11144TIP3    H154923   1.636   3.471   0.207  0.4615 -0.1744 -0.7488
11144TIP3    H254924   1.586   3.375   0.313  1.8656 -0.9082 -0.7119
11145TIP3   OH254925   2.879   2.098   0.698  0.0245 -0.4578  0.9585
11145TIP3    H154926   2.827   2.045   0.638 -0.4200 -0.3893  1.2807
11145TIP3    H254927   2.819   2.164   0.732  0.1595 -0.7292  1.7650
11146TIP3   OH254928   1.352   2.085   4.018  0.4437  0.4828 -0.4726
11146TIP3    H154929   1.431   2.039   3.991 -0.7200 -2.4470  0.6208
11146TIP3    H254930   1.292   2.076   3.944  0.6309  1.4322 -0.7492
11147TIP3   OH254931   3.253   0.380  13.005 -0.1158 -0.2277  0.4317
11147TIP3    H154932   3.198   0.312  12.966 -0.9811 -0.3868  1.8576
11147TIP3    H254933   3.326   0.332  13.044 -0.0414 -0.2127  0.3104
11148TIP3   OH254934   0.262   1.395   0.582 -0.2083 -0.1381  0.2542
11148TIP3    H154935   0.177   1.379   0.542 -0.9213 -0.2315  1.7144
11148TIP3    H254936   0.241   1.417   0.673  1.3286 -0.1268  0.6269
11149TIP3   OH254937   2.456   4.444   4.292 -0.4588  0.0250  0.1312
11149TIP3    H154938   2.517   4.503   4.247  0.8987  0.0178  1.8547
11149TIP3    H254939   2.402   4.502   4.346  0.6542 -0.2208  1.5709
11150TIP3   OH254940   6.063   2.189  15.716  0.1082  0.1057 -0.2279
11150TIP3    H154941   6.152   2.207  15.685 -0.4980  0.9815 -1.5336
11150TIP3    H254942   6.025   2.131  15.650 -0.8134  1.0556 -0.5699
11151TIP3   OH254943   5.796   3.474  13.329 -0.3787 -0.1999  0.3041
11151TIP3    H154944   5.867   3.448  13.387 -0.3049 -2.9188 -0.8269
11151TIP3    H254945   5.839   3.493  13.245 -0.8563 -0.8723 -0.1049
11152TIP3   OH254946   2.184   5.293  14.035  0.5514  0.3287 -0.2078
11152TIP3    H154947   2.223   5.336  14.111 -0.8545  0.6279  0.3754
11152TIP3    H254948   2.231   5.329  13.960  1.0899  0.9957  0.4364
11153TIP3   OH254949   6.742   5.563  13.122  0.1674 -0.3902  0.3154
11153TIP3    H154950   6.820   5.513  13.098 -0.0903 -0.9003  0.5054
11153TIP3    H254951   6.760   5.652  13.094  0.3115 -0.7498 -0.8225
11154TIP3   OH254952   3.735   5.006  12.733 -0.1201 -0.2283 -0.0347
11154TIP3    H154953   3.800   5.003  12.803 -1.0202  0.4385  0.8611
11154TIP3    H254954   3.651   5.005  12.778 -0.7246  0.3106 -1.1029
11155TIP3   OH254955   3.160   4.691   5.518 -0.0817  0.4718 -0.4391
11155TIP3    H154956   3.162   4.764   5.456  1.2359  0.8094 -0.0320
11155TIP3    H254957   3.088   4.712   5.577  0.2134  1.3950 -0.3975
11156TIP3   OH254958   2.132   0.158  16.900  0.1439  0.1711  0.1837
11156TIP3    H154959   2.194   0.176  16.829 -1.0217  1.7367 -0.4812
11156TIP3    H254960   2.139   0.234  16.958 -0.4187 -0.1226  0.6523
11157TIP3   OH254961   2.837   1.091   5.810 -0.2220 -0.3449  0.6286
11157TIP3    H154962   2.845   1.164   5.748 -1.5008 -0.1026  0.7268
11157TIP3    H254963   2.903   1.028   5.781 -0.2234  0.1321 -0.4737
11158TIP3   OH254964   0.125   4.608  17.351  0.2943  0.4830  0.0301
11158TIP3    H154965   0.133   4.652  17.436 -0.9974 -0.3456  0.6208
11158TIP3    H254966   0.215   4.596  17.321  0.7182  2.6873  0.2610
11159TIP3   OH254967   3.286   4.439  11.943 -0.0855 -0.1708 -0.0001
11159TIP3    H154968   3.226   4.408  11.876  0.2802 -0.6122 -0.1224
11159TIP3    H254969   3.247   4.410  12.026 -0.7586  0.7394  0.0201
11160TIP3   OH254970   0.803   3.477   6.188  0.1572 -0.0993  0.6441
11160TIP3    H154971   0.776   3.425   6.264 -0.1837  1.7039  1.8090
11160TIP3    H254972   0.898   3.474   6.189  0.1522 -0.0462  1.1633
11161TIP3   OH254973   3.414   0.496   2.658  0.5915 -0.7839  0.3141
11161TIP3    H154974   3.493   0.534   2.698  1.0558 -1.5735  0.1601
11161TIP3    H254975   3.441   0.474   2.569  0.7355 -2.6359  0.7656
11162TIP3   OH254976   2.371   4.513   6.880 -0.8207  0.0464 -0.0434
11162TIP3    H154977   2.284   4.513   6.841 -0.6812  1.8328 -0.4497
11162TIP3    H254978   2.398   4.605   6.879  0.1648 -0.1567  2.1061
11163TIP3   OH254979   4.248   4.036   2.807  0.5192 -0.2420 -0.1460
11163TIP3    H154980   4.252   4.093   2.731 -2.1559 -0.0573 -0.2460
11163TIP3    H254981   4.198   3.960   2.778 -2.0635  0.5813  1.7560
11164TIP3   OH254982   2.546   3.670   0.551 -0.5111  0.0882  0.5032
11164TIP3    H154983   2.503   3.600   0.503 -0.7803 -0.8294  2.0261
11164TIP3    H254984   2.502   3.750   0.521  0.0080 -0.3189 -1.4785
11165TIP3   OH254985   0.976   1.468   1.521  0.2102 -0.1510 -0.0960
11165TIP3    H154986   0.973   1.516   1.438 -1.8121 -0.3050 -0.1598
11165TIP3    H254987   1.069   1.454   1.537  0.6638 -0.3167 -2.4589
11166TIP3   OH254988   2.315   4.987   0.197 -0.0199  0.5090 -0.2924
11166TIP3    H154989   2.408   4.977   0.218  0.0627  2.1372  0.3209
11166TIP3    H254990   2.269   4.950   0.273  0.1852  1.3968  0.2846
11167TIP3   OH254991   1.389   0.586   5.041 -0.1258  0.2188  0.6103
11167TIP3    H154992   1.331   0.636   5.098  0.0848  0.8479  0.2828
11167TIP3    H254993   1.370   0.495   5.061 -0.9377  0.4227  0.8000
11168TIP3   OH254994   1.656   1.636   0.600  0.2378  0.1439 -0.7261
11168TIP3    H154995   1.605   1.706   0.559  2.1125  0.9432 -1.8247
11168TIP3    H254996   1.654   1.657   0.693 -0.8817  0.5078 -0.8100
11169TIP3   OH254997   3.968   0.164   4.185 -0.2454 -0.4602 -0.5409
11169TIP3    H154998   4.004   0.243   4.225 -1.4076  1.8921 -3.7572
11169TIP3    H254999   4.027   0.143   4.113 -2.4523  0.5766 -2.8204
11170TIP3   OH255000   2.896   5.795  15.553  0.4903 -0.0027  0.3339
11170TIP3    H155001   2.881   5.889  15.548  0.0353 -0.1313 -1.3188
11170TIP3    H255002   2.810   5.756  15.537  0.7579 -0.7005  0.5710
11171TIP3   OH255003   2.958   0.433   3.900 -0.1795 -0.0651  0.0755
11171TIP3    H155004   2.995   0.491   3.966  0.2547  3.6490 -3.0489
11171TIP3    H255005   3.032   0.379   3.871  1.3716  2.6942 -1.5375
11172TIP3   OH255006   0.149   2.326   2.862  0.2046  0.4267  0.2999
11172TIP3    H155007   0.154   2.293   2.772  1.5458  0.0536  0.4804
11172TIP3    H255008   0.096   2.405   2.856  3.0979  2.4713 -1.5087
11173TIP3   OH255009   4.690   4.080   3.735 -0.5530 -0.4704  0.9269
11173TIP3    H155010   4.684   4.140   3.661 -2.6720 -1.2649  0.3756
11173TIP3    H255011   4.725   4.000   3.698 -3.3653 -1.5076  0.2404
11174TIP3   OH255012   5.292   0.135  17.229 -0.4169  0.4818 -0.0031
11174TIP3    H155013   5.213   0.179  17.262  1.1015  2.8193  0.7277
11174TIP3    H255014   5.344   0.118  17.307  0.1230 -0.4095 -0.5434
11175TIP3   OH255015   6.339   5.779  15.219  0.0169  0.1125  0.2311
11175TIP3    H155016   6.392   5.854  15.246  1.1675 -0.4465 -0.3695
11175TIP3    H255017   6.250   5.812  15.216  0.4226  1.2864  0.5830
11176TIP3   OH255018   2.077   4.091  13.323  0.7202 -0.1371 -0.3734
11176TIP3    H155019   2.105   4.014  13.272  3.0970  1.3794 -1.5195
11176TIP3    H255020   2.115   4.077  13.410 -0.6131 -1.1681  0.0959
11177TIP3   OH255021   5.804   3.067  14.135 -0.0712  0.0370  0.7019
11177TIP3    H155022   5.846   3.088  14.219 -0.2933  0.9499  0.5952
11177TIP3    H255023   5.855   2.995  14.100  0.8338  0.5148  1.0146
11178TIP3   OH255024   3.615   4.255  13.489 -0.0434 -0.1685 -0.3012
11178TIP3    H155025   3.606   4.192  13.561 -1.9859 -0.4020 -0.6846
11178TIP3    H255026   3.665   4.208  13.422 -0.2994 -0.8267 -0.0414
11179TIP3   OH255027   0.223   4.082   0.502  0.3005 -0.5336 -0.1973
11179TIP3    H155028   0.218   3.989   0.525  0.0120 -0.3406  0.5436
11179TIP3    H255029   0.147   4.122   0.543  0.6423  0.1034 -0.1613
11180TIP3   OH255030   0.832   5.261   1.051  0.3802 -0.2029 -0.3334
11180TIP3    H155031   0.738   5.252   1.033  0.3689  1.5788 -1.4423
11180TIP3    H255032   0.847   5.356   1.047  2.2050 -0.4613 -0.0471
11181TIP3   OH255033   0.529   0.884   3.063 -0.4231 -0.5481 -0.1819
11181TIP3    H155034   0.606   0.847   3.019 -0.8798 -1.5805 -0.1618
11181TIP3    H255035   0.545   0.870   3.156 -0.6180 -0.7425 -0.1764
11182TIP3   OH255036   1.437   1.051  16.394  0.6108 -0.1234 -0.5048
11182TIP3    H155037   1.506   0.993  16.427 -0.2205 -0.3126  0.9704
11182TIP3    H255038   1.355   1.009  16.421 -0.0521  0.8306 -0.9677
11183TIP3   OH255039   1.516   0.865  14.032  0.0071  0.1277 -0.1902
11183TIP3    H155040   1.434   0.894  13.991  0.0052 -0.2171 -0.4305
11183TIP3    H255041   1.496   0.778  14.067  0.5200 -0.3538 -1.0447
11184TIP3   OH255042   0.568   1.605  12.729 -0.2090 -0.0307  0.1803
11184TIP3    H155043   0.488   1.575  12.772  0.3912 -3.2985 -0.7202
11184TIP3    H255044   0.589   1.688  12.773 -3.8379  0.7821  0.6540
11185TIP3   OH255045   5.874   5.955   3.363 -0.6763  0.3154 -0.1463
11185TIP3    H155046   5.863   5.931   3.270 -0.2528  0.2671 -0.1850
11185TIP3    H255047   5.871   5.871   3.409  2.2079 -0.0167 -0.4094
11186TIP3   OH255048   0.833   1.346   3.697 -0.0657 -0.5189  0.1686
11186TIP3    H155049   0.881   1.294   3.632 -1.3331  0.1981 -1.4362
11186TIP3    H255050   0.750   1.366   3.654 -0.1355  1.7423  1.2158
11187TIP3   OH255051   6.172   6.727  13.829 -0.2910 -0.4590  0.0839
11187TIP3    H155052   6.242   6.667  13.854  0.6447  1.0900  1.3275
11187TIP3    H255053   6.209   6.777  13.756 -0.5088 -0.3530  0.0461
11188TIP3   OH255054   4.193   3.730  13.789  0.3352 -0.6684  0.1113
11188TIP3    H155055   4.156   3.665  13.849  0.9211 -0.8537  0.2830
11188TIP3    H255056   4.123   3.749  13.727 -0.5552  0.1411  1.3448
11189TIP3   OH255057   2.110   4.332  16.202  0.0643 -0.1173  0.0178
11189TIP3    H155058   2.028   4.284  16.199  0.3296 -0.6797  1.2844
11189TIP3    H255059   2.110   4.376  16.287  1.4855 -0.9055  0.4694
11190TIP3   OH255060   0.391   5.149  15.354  0.0600  0.8660  0.2502
11190TIP3    H155061   0.319   5.141  15.416 -0.1789  0.1591 -0.1119
11190TIP3    H255062   0.349   5.163  15.269  0.3046 -0.4347 -0.1059
11191TIP3   OH255063   0.433   3.206   6.497  0.1582 -0.3023  0.0986
11191TIP3    H155064   0.501   3.270   6.518  1.1906 -1.8268  1.8413
11191TIP3    H255065   0.356   3.235   6.546 -0.1784  0.9123 -1.1102
11192TIP3   OH255066   4.273   3.742   0.126 -0.2676  0.0716  0.2858
11192TIP3    H155067   4.217   3.763   0.051  0.6470  2.1364  0.1150
11192TIP3    H255068   4.228   3.781   0.201 -1.3062 -2.2004  0.9334
11193TIP3   OH255069   3.324   1.572  17.151 -0.4592  0.2887  1.0165
11193TIP3    H155070   3.402   1.538  17.108 -1.0279  0.4453 -0.1756
11193TIP3    H255071   3.324   1.666  17.131 -1.7898  0.0254 -0.4098
11194TIP3   OH255072   3.768   5.842  13.099 -0.0820  0.7135 -0.0373
11194TIP3    H155073   3.781   5.908  13.031 -0.8470 -0.7174 -1.6560
11194TIP3    H255074   3.786   5.888  13.181  4.7415  1.5536 -1.2927
11195TIP3   OH255075   2.733   2.748  14.548 -0.3381 -0.5645 -0.0973
11195TIP3    H155076   2.683   2.716  14.473 -0.8414 -0.5355  0.2207
11195TIP3    H255077   2.749   2.840  14.528  2.1416 -1.2157 -1.5791
11196TIP3   OH255078   0.953   2.125  13.804  0.1800 -0.0864  0.6057
11196TIP3    H155079   1.020   2.183  13.770  0.2837  0.2436  1.3517
11196TIP3    H255080   0.890   2.184  13.846 -0.2902 -0.4327  0.3944
11197TIP3   OH255081   6.231   3.813   0.314  0.6761 -0.2260  0.3664
11197TIP3    H155082   6.143   3.848   0.297  0.1637 -1.6598 -0.1151
11197TIP3    H255083   6.219   3.754   0.388  1.3618  0.0391  0.6923
11198TIP3   OH255084   2.089   1.194  14.653 -0.3368 -0.6427 -0.1051
11198TIP3    H155085   2.160   1.201  14.717 -0.0614 -0.8249 -0.3878
11198TIP3    H255086   2.122   1.132  14.588 -1.3236 -1.8373  0.5006
11199TIP3   OH255087   6.205   5.980  11.166 -0.4712 -1.0044  0.1295
11199TIP3    H155088   6.274   6.045  11.155  1.7567 -3.2104  0.0685
11199TIP3    H255089   6.141   6.001  11.097  0.4441  0.7074 -0.2586
11200TIP3   OH255090   4.496   5.535   5.410  0.0260  0.2877  0.2695
11200TIP3    H155091   4.427   5.491   5.362 -0.5293 -0.4404  1.6635
11200TIP3    H255092   4.567   5.471   5.416 -0.5548 -0.2632  1.7931
11201TIP3   OH255093   3.527   6.530  12.817 -0.3112  0.6355  0.5025
11201TIP3    H155094   3.565   6.580  12.745 -0.8237  0.9114  0.4212
11201TIP3    H255095   3.601   6.513  12.876  0.4580 -0.9750 -0.8400
11202TIP3   OH255096   2.112   5.500  12.411 -0.2581  0.2677  0.0163
11202TIP3    H155097   2.190   5.511  12.465 -0.7564  0.8939  0.6404
11202TIP3    H255098   2.067   5.425  12.450 -1.1591  1.3619  1.2071
11203TIP3   OH255099   1.029   1.863  13.844 -0.0294 -0.5895  0.4621
11203TIP3    H155100   1.000   1.954  13.839  0.1456 -0.6116 -1.6535
11203TIP3    H255101   1.066   1.855  13.932 -0.2502  1.3080  0.7769
11204TIP3   OH255102   3.021   2.513  12.771  0.2546 -0.0966  0.7490
11204TIP3    H155103   2.993   2.599  12.801  2.1435  0.9156 -0.2403
11204TIP3    H255104   3.096   2.530  12.714 -0.9898 -2.1698 -1.7141
11205TIP3   OH255105   0.162   3.634   4.118 -0.7188  0.0179  0.0015
11205TIP3    H155106   0.101   3.638   4.191 -0.9611 -0.4778 -0.1744
11205TIP3    H255107   0.230   3.573   4.146 -1.4302 -1.0987 -0.6458
11206TIP3   OH255108   6.579   0.441  14.369  0.2213  0.1705 -0.5215
11206TIP3    H155109   6.610   0.517  14.418  0.6951 -0.9977  1.0395
11206TIP3    H255110   6.541   0.479  14.289 -0.4930  2.1179  0.6684
11207TIP3   OH255111   3.035   1.644  16.172  0.3418  0.0533 -0.1123
11207TIP3    H155112   2.994   1.716  16.220  2.2883  1.8589 -1.0063
11207TIP3    H255113   3.076   1.686  16.096  0.6462 -2.1682 -1.2582
11208TIP3   OH255114   5.922   5.233  11.190 -0.1394 -0.0148 -0.9383
11208TIP3    H155115   5.891   5.278  11.112 -1.6972  1.9461  0.7124
11208TIP3    H255116   6.009   5.268  11.205 -0.5266  0.9107 -0.8242
11209TIP3   OH255117   4.869   5.016   3.232 -0.0014  0.4846 -0.3716
11209TIP3    H155118   4.908   4.944   3.283 -0.9965 -0.8601 -1.4220
11209TIP3    H255119   4.840   5.079   3.297 -0.5090 -0.8140  0.7065
11210TIP3   OH255120   5.383   3.406  12.806  0.0883  0.0474 -0.1177
11210TIP3    H155121   5.409   3.451  12.887  0.8273 -1.1132  0.3153
11210TIP3    H255122   5.384   3.313  12.830  1.3485 -0.3919 -1.7480
11211TIP3   OH255123   6.305   2.552  16.922 -0.1018  0.3315 -0.5187
11211TIP3    H155124   6.222   2.510  16.899 -0.4982  0.2977  0.9044
11211TIP3    H255125   6.339   2.502  16.996 -1.9141  3.8893  3.1280
11212TIP3   OH255126   0.662   2.715   4.924 -0.1796  0.0402 -0.1749
11212TIP3    H155127   0.602   2.722   4.850 -0.0492 -0.9650 -0.3933
11212TIP3    H255128   0.645   2.628   4.961 -1.8746  1.3780  2.4416
11213TIP3   OH255129   3.894   0.539   1.469  0.2015 -0.4374  0.2147
11213TIP3    H155130   3.987   0.533   1.450  0.2855 -1.8843  0.9758
11213TIP3    H255131   3.888   0.588   1.551  0.3652 -1.2293  0.7035
11214TIP3   OH255132   3.391   5.953  13.008  0.0364  0.3040 -0.3094
11214TIP3    H155133   3.435   6.028  12.969 -0.5464  1.0221  0.3671
11214TIP3    H255134   3.356   5.986  13.091 -1.6077 -0.2613 -0.7272
11215TIP3   OH255135   4.742   2.536  16.053  0.4067  0.1656  0.4642
11215TIP3    H155136   4.651   2.548  16.079  0.1255 -0.1291 -0.3399
11215TIP3    H255137   4.770   2.622  16.023  0.7324  0.5057  1.6974
11216TIP3   OH255138   3.100   0.136  11.770 -0.8168  0.9193 -0.4439
11216TIP3    H155139   3.180   0.096  11.736 -1.4189 -0.3972 -0.3831
11216TIP3    H255140   3.127   0.179  11.851 -0.2686 -0.0014 -0.1181
11217TIP3   OH255141   3.832   6.780   4.793 -0.1044 -0.1566 -0.2292
11217TIP3    H155142   3.791   6.866   4.792 -0.1390 -0.0365  2.6996
11217TIP3    H255143   3.766   6.720   4.757 -0.9736  0.6943 -0.0597
11218TIP3   OH255144   2.395   3.127   2.989 -0.6244  0.0447 -0.2665
11218TIP3    H155145   2.401   3.035   3.014  0.7442  0.5329  1.4364
11218TIP3    H255146   2.396   3.127   2.894  0.2746 -1.6533 -0.2935
11219TIP3   OH255147   5.770   1.378   1.530 -0.3393 -0.3582  0.4651
11219TIP3    H155148   5.866   1.372   1.524 -0.2869  0.1792  0.7497
11219TIP3    H255149   5.747   1.308   1.591 -0.1983 -0.9448 -0.1389
11220TIP3   OH255150   6.440   4.268  15.129  0.3032 -0.1862 -0.3195
11220TIP3    H155151   6.440   4.352  15.083 -2.0361 -0.4305 -0.9086
11220TIP3    H255152   6.469   4.205  15.063  1.9718  0.0891  0.0976
11221TIP3   OH255153   3.043   1.498  14.486  0.4274 -0.4170  0.2869
11221TIP3    H155154   2.986   1.467  14.416 -0.3248 -1.6464  1.3979
11221TIP3    H255155   3.115   1.434  14.490  1.5806  0.7687 -0.6793
11222TIP3   OH255156   2.904   5.843   0.081 -0.0743  0.0605 -0.2371
11222TIP3    H155157   2.900   5.822   0.174  0.9318  0.0789 -0.1718
11222TIP3    H255158   2.840   5.785   0.040 -1.4098  0.9065  0.5988
11223TIP3   OH255159   4.290   6.444  14.846  0.2469 -0.3386 -0.1138
11223TIP3    H155160   4.271   6.525  14.799  1.4636 -0.2022 -0.3896
11223TIP3    H255161   4.241   6.376  14.799 -0.0018  0.0822 -0.4656
11224TIP3   OH255162   0.431   1.153   1.395  0.0900 -0.4856 -0.6109
11224TIP3    H155163   0.397   1.177   1.309 -0.8829  0.4833  0.0092
11224TIP3    H255164   0.477   1.070   1.381 -1.1913 -1.0388 -1.8048
11225TIP3   OH255165   5.979   3.406  16.853 -0.6087  0.8663 -0.4325
11225TIP3    H155166   5.955   3.332  16.909 -1.4204 -1.0607 -3.0786
11225TIP3    H255167   6.074   3.412  16.861 -0.4839 -0.7082 -0.3731
11226TIP3   OH255168   6.073   1.336  11.241 -0.1397 -1.0610  0.3350
11226TIP3    H155169   6.165   1.361  11.226 -0.0456 -0.6131  1.5388
11226TIP3    H255170   6.032   1.343  11.155  0.9171 -1.0891 -0.1872
11227TIP3   OH255171   4.723   5.369   5.196  0.0316  0.5504 -0.4636
11227TIP3    H155172   4.795   5.335   5.142 -0.3180 -0.6413 -0.2296
11227TIP3    H255173   4.677   5.430   5.139  0.6593  0.5814 -0.9492
11228TIP3   OH255174   6.531   4.549   0.285 -0.0842  0.4979 -0.2609
11228TIP3    H155175   6.603   4.565   0.224 -0.3970 -0.0793 -0.7820
11228TIP3    H255176   6.453   4.547   0.230 -0.2597 -1.0678  0.0146
11229TIP3   OH255177   5.076   0.510   5.048  0.4899 -0.3651 -0.4744
11229TIP3    H155178   5.162   0.534   5.083  1.4994 -1.5009 -2.0217
11229TIP3    H255179   5.084   0.417   5.026 -1.5651 -0.8308  0.4750
11230TIP3   OH255180   2.359   3.499  13.760  0.2949 -0.0555 -0.0947
11230TIP3    H155181   2.440   3.516  13.808  0.4018 -1.1893  0.1695
11230TIP3    H255182   2.373   3.537  13.674  0.9427  0.1342  0.0899
11231TIP3   OH255183   0.410   2.656  15.440  0.7662  0.1068  0.3368
11231TIP3    H155184   0.445   2.580  15.487  0.2395  0.6884  1.7126
11231TIP3    H255185   0.475   2.725  15.455 -0.4092  0.9063  2.0659
11232TIP3   OH255186   0.077   1.058   3.473  0.4296 -0.3010  0.1664
11232TIP3    H155187   0.135   0.983   3.486 -0.9304 -1.4086  0.1001
11232TIP3    H255188   0.127   1.119   3.419  1.0638 -1.7823 -0.9575
11233TIP3   OH255189   6.029   1.696   3.271  0.7217  0.1450  0.3932
11233TIP3    H155190   5.996   1.723   3.357  2.1521 -2.2071  1.8016
11233TIP3    H255191   6.020   1.600   3.271 -0.7529  0.1650 -2.8008
11234TIP3   OH255192   5.837   5.440  16.611  0.3496 -0.4239  0.3746
11234TIP3    H155193   5.812   5.503  16.543 -2.0162 -1.0675  0.5511
11234TIP3    H255194   5.903   5.384  16.570 -0.0252  0.0608 -0.9337
11235TIP3   OH255195   6.623   1.242  15.658 -0.1846 -0.4089  0.2077
11235TIP3    H155196   6.617   1.334  15.633 -0.4831 -0.1868  1.0679
11235TIP3    H255197   6.717   1.227  15.671 -0.0195 -0.5444 -1.0605
11236TIP3   OH255198   1.094   0.883   4.797  0.3601  0.2108 -0.0233
11236TIP3    H155199   1.051   0.966   4.773  2.3517  1.2876 -0.0241
11236TIP3    H255200   1.054   0.859   4.881 -0.7709  0.7615 -0.3851
11237TIP3   OH255201   2.979   6.531  14.989  0.1663 -0.0003 -0.3684
11237TIP3    H155202   2.895   6.571  15.011  0.0369  0.8567 -2.2499
11237TIP3    H255203   2.961   6.477  14.912  0.5878 -2.9043  1.4059
11238TIP3   OH255204   2.157   1.478   2.831  0.0269  0.3629 -0.0208
11238TIP3    H155205   2.247   1.452   2.849  0.3603  0.9706 -0.7161
11238TIP3    H255206   2.106   1.398   2.839  0.5817  0.0694  0.6675
11239TIP3   OH255207   0.474   1.272   0.270 -0.6942 -0.3043  0.4503
11239TIP3    H155208   0.503   1.288   0.360 -1.5830  0.6083  0.5944
11239TIP3    H255209   0.404   1.207   0.278  0.3532 -1.4870  0.2367
11240TIP3   OH255210   5.954   1.266   2.322  0.2123  0.4307 -0.2458
11240TIP3    H155211   6.038   1.228   2.350 -0.1832 -0.0009  0.3986
11240TIP3    H255212   5.921   1.309   2.401  0.0773  1.0642 -0.6451
11241TIP3   OH255213   2.679   1.427  12.853 -0.3102  0.0289 -0.3855
11241TIP3    H155214   2.591   1.450  12.881 -0.0377 -0.0829  0.6056
11241TIP3    H255215   2.692   1.338  12.885 -0.1861 -0.3224 -1.3764
11242TIP3   OH255216   2.657   6.204   0.712 -0.2417  0.0651 -0.5102
11242TIP3    H155217   2.577   6.166   0.747 -1.1550  1.7272 -0.6862
11242TIP3    H255218   2.644   6.205   0.617  0.9227 -1.5885 -0.7360
11243TIP3   OH255219   4.703   2.985  13.978 -0.2859 -0.1173  0.4634
11243TIP3    H155220   4.788   2.947  13.959 -0.4896 -0.8911  1.0307
11243TIP3    H255221   4.643   2.944  13.916 -0.3644 -0.1030  0.5281
11244TIP3   OH255222   6.737   4.363   3.459 -0.4805 -0.2652 -0.2002
11244TIP3    H155223   6.738   4.364   3.555 -0.3118  0.2945 -0.2038
11244TIP3    H255224   6.809   4.304   3.435 -1.1109 -1.1453  0.0166
11245TIP3   OH255225   6.192   3.495   0.371  0.7927 -0.3817  0.2156
11245TIP3    H155226   6.103   3.462   0.377  1.0992 -1.0072  2.2275
11245TIP3    H255227   6.227   3.457   0.291 -0.2780 -1.3257  0.1761
11246TIP3   OH255228   3.951   0.301  16.111  0.0497 -0.2798  0.5765
11246TIP3    H155229   3.994   0.271  16.031 -2.3785 -0.0509 -0.8943
11246TIP3    H255230   3.993   0.386  16.130 -1.9274  1.6864 -2.8361
11247TIP3   OH255231   1.921   1.271  13.882 -0.0550  0.1050  0.2507
11247TIP3    H155232   1.918   1.221  13.963  0.5121  1.0858  0.9050
11247TIP3    H255233   1.997   1.329  13.893 -0.2122  0.5321 -0.8108
11248TIP3   OH255234   0.214   0.378  17.302 -0.5408  0.3797 -0.2662
11248TIP3    H155235   0.283   0.440  17.277 -0.3539  0.2096 -0.1676
11248TIP3    H255236   0.155   0.377  17.226  0.3007 -0.5291 -0.9341
11249TIP3   OH255237   5.294   0.119  14.129  0.7243 -0.0443  0.1608
11249TIP3    H155238   5.207   0.079  14.123 -1.0523  3.5815 -1.7335
11249TIP3    H255239   5.344   0.080  14.057 -0.4729  0.0850 -0.7793
11250TIP3   OH255240   6.344   1.105   1.931  0.2555  0.3099  0.3502
11250TIP3    H155241   6.295   1.184   1.953 -0.9109 -0.3152  0.0732
11250TIP3    H255242   6.371   1.117   1.840  1.1957  0.9243  0.6873
11251TIP3   OH255243   2.960   2.910   6.124  0.1955  0.1801 -0.2023
11251TIP3    H155244   2.880   2.962   6.126 -0.6071 -0.8327 -2.2725
11251TIP3    H255245   2.961   2.862   6.207 -1.4551  0.0741 -0.2221
11252TIP3   OH255246   5.645   1.492   5.403  0.5355  0.0494  0.2509
11252TIP3    H155247   5.653   1.506   5.497 -0.7897  0.3724  0.3460
11252TIP3    H255248   5.552   1.506   5.385  0.9191  0.8712 -1.2497
11253TIP3   OH255249   5.196   5.837   0.557  0.8169  0.2751  0.0757
11253TIP3    H155250   5.239   5.809   0.638  1.8501 -0.4623 -0.7119
11253TIP3    H255251   5.109   5.797   0.562  0.2669  1.5484  1.5448
11254TIP3   OH255252   2.400   0.197   1.749  0.5430  0.2988  0.3880
11254TIP3    H155253   2.322   0.249   1.732 -1.0995 -2.2105 -0.4000
11254TIP3    H255254   2.473   0.254   1.726 -1.1000  2.2515 -0.2934
11255TIP3   OH255255   4.650   3.771  16.765 -0.2447  0.4177 -0.5357
11255TIP3    H155256   4.712   3.707  16.797  2.1260  2.1559 -1.3703
11255TIP3    H255257   4.620   3.817  16.843 -0.8305 -0.6905 -0.0885
11256TIP3   OH255258   5.558   4.956   1.135  0.4999  0.1929  0.4909
11256TIP3    H155259   5.529   4.954   1.043 -0.3454  2.0461  0.6756
11256TIP3    H255260   5.533   5.043   1.166  1.6929 -0.0306  2.2042
11257TIP3   OH255261   2.719   6.021  15.550  0.2011 -0.2512  0.0346
11257TIP3    H155262   2.737   6.115  15.553 -1.7388  0.1316  1.8361
11257TIP3    H255263   2.660   6.010  15.475 -0.3662  0.1352  0.4228
11258TIP3   OH255264   6.075   0.157   5.778  0.5028 -0.1159 -0.5992
11258TIP3    H155265   5.996   0.209   5.763 -0.6377 -1.6717 -0.2644
11258TIP3    H255266   6.147   0.216   5.758 -0.5800  2.6011  2.6042
11259TIP3   OH255267   6.258   3.087   4.086 -0.6780 -0.4512 -0.4367
11259TIP3    H155268   6.293   3.167   4.046 -0.2861 -0.9542 -1.1217
11259TIP3    H255269   6.187   3.118   4.142 -1.4857  0.2734 -1.7890
11260TIP3   OH255270   5.553   2.028  17.336 -0.5924 -0.4030 -0.6798
11260TIP3    H155271   5.620   2.076  17.385 -1.7410 -0.6723  1.2691
11260TIP3    H255272   5.589   2.019  17.248 -0.2215  3.8544 -1.1599
11261TIP3   OH255273   5.314   2.738   2.361  0.2904  0.0832 -0.0683
11261TIP3    H155274   5.363   2.755   2.442 -0.5940  0.9636  0.3016
11261TIP3    H255275   5.229   2.707   2.391  0.2360 -0.3818 -0.6883
11262TIP3   OH255276   5.729   0.231  11.207  0.1526  0.1918  0.3707
11262TIP3    H155277   5.780   0.151  11.198 -1.2300 -0.7155  0.2745
11262TIP3    H255278   5.715   0.260  11.117  0.5678  0.4953  0.4015
11263TIP3   OH255279   2.728   5.038   4.279 -0.0455  0.1604  0.4997
11263TIP3    H155280   2.726   5.110   4.342 -1.4217  1.5246 -1.0055
11263TIP3    H255281   2.651   5.052   4.225 -0.2054 -2.3397 -0.0116
11264TIP3   OH255282   4.603   1.158   2.727  0.6333  0.3481 -0.2158
11264TIP3    H155283   4.624   1.192   2.640  0.2418 -0.3907 -0.6070
11264TIP3    H255284   4.538   1.089   2.711 -0.6254  1.2367  0.7828
11265TIP3   OH255285   3.118   4.269  16.562 -0.3772 -0.3671  0.2227
11265TIP3    H155286   3.103   4.179  16.534 -0.1045 -0.7899  1.3786
11265TIP3    H255287   3.193   4.264  16.621  1.6354  1.0846 -2.0616
11266TIP3   OH255288   3.881   2.820   0.094 -0.3203  0.0969  0.5523
11266TIP3    H155289   3.868   2.737   0.140 -0.4448 -0.0786  0.2013
11266TIP3    H255290   3.976   2.834   0.098 -0.2913 -0.0935  0.5568
11267TIP3   OH255291   1.036   0.220  10.812  0.4434 -0.2393 -0.0118
11267TIP3    H155292   1.105   0.279  10.782 -0.6996  0.6548 -1.0208
11267TIP3    H255293   0.989   0.196  10.732 -0.3391 -0.9089  0.6266
11268TIP3   OH255294   6.750   2.106  11.915  0.6149 -0.1014  1.0445
11268TIP3    H155295   6.828   2.115  11.860 -1.0403 -0.4751 -1.5250
11268TIP3    H255296   6.744   2.012  11.933 -0.0198 -0.2673  0.0022
11269TIP3   OH255297   1.372   6.081   0.971  0.3669 -0.5175  0.2649
11269TIP3    H155298   1.349   6.174   0.975 -1.2225 -0.8801  0.7364
11269TIP3    H255299   1.417   6.070   0.888  0.2489  0.6147  0.0367
11270TIP3   OH255300   0.477   2.556  15.143  0.0254 -0.1824  0.5998
11270TIP3    H155301   0.390   2.584  15.171 -0.2461  0.5979 -0.8678
11270TIP3    H255302   0.519   2.523  15.222 -0.7614  1.5964  1.8396
11271TIP3   OH255303   4.260   3.743   3.760 -0.9552  0.2110  0.2346
11271TIP3    H155304   4.355   3.744   3.748 -0.9691  0.2992  0.1264
11271TIP3    H255305   4.235   3.835   3.755 -1.0676  0.1725  0.0853
11272TIP3   OH255306   6.204   5.575  15.886  0.1026 -0.2556 -0.3381
11272TIP3    H155307   6.290   5.606  15.857  0.7670 -1.1181  0.6240
11272TIP3    H255308   6.214   5.481  15.894 -0.8378 -0.3282  0.1162
11273TIP3   OH255309   2.307   5.018  14.955 -0.1630  0.3060 -0.4797
11273TIP3    H155310   2.238   5.075  14.989  0.6857  0.6251  0.7546
11273TIP3    H255311   2.383   5.075  14.945  0.7494 -0.5829  0.9403
11274TIP3   OH255312   0.502   3.739  11.361  0.9524 -0.2592 -0.1654
11274TIP3    H155313   0.477   3.821  11.404  0.4503 -0.7456  0.4987
11274TIP3    H255314   0.554   3.766  11.285  1.3940  0.6456  0.4413
11275TIP3   OH255315   4.586   5.771   2.851  0.0105 -0.5347  0.7187
11275TIP3    H155316   4.539   5.688   2.864  0.0946 -0.6937  0.0638
11275TIP3    H255317   4.518   5.838   2.856 -0.1064 -0.6698  0.9485
11276TIP3   OH255318   5.218   4.280  15.147 -0.1859 -0.0209  0.0200
11276TIP3    H155319   5.308   4.269  15.178 -0.3211  1.2443  0.9573
11276TIP3    H255320   5.189   4.191  15.126  1.0383 -0.5334  0.3857
11277TIP3   OH255321   5.525   0.150   3.024 -0.1628 -0.4717  0.2585
11277TIP3    H155322   5.447   0.141   3.079  0.4134 -0.9567  1.0176
11277TIP3    H255323   5.514   0.235   2.980 -0.3887  0.1768  1.5305
11278TIP3   OH255324   2.335   6.793  15.011  0.0300 -0.0050  0.8951
11278TIP3    H155325   2.408   6.766  15.067 -1.1935 -1.7995  1.7612
11278TIP3    H255326   2.376   6.827  14.932  1.8879 -3.3878  0.1941
11279TIP3   OH255327   6.619   3.836  15.815 -0.4169  0.2172 -0.0659
11279TIP3    H155328   6.609   3.765  15.879 -0.8926 -1.9635 -2.3732
11279TIP3    H255329   6.532   3.877  15.812 -0.8887 -0.7652 -0.4516
11280TIP3   OH255330   5.586   5.146   0.127 -0.4357 -0.4447 -0.1215
11280TIP3    H155331   5.536   5.137   0.208 -0.8809 -0.8440 -0.4366
11280TIP3    H255332   5.660   5.085   0.138 -0.5088 -0.5157 -0.0271
11281TIP3   OH255333   4.216   0.227   3.803  0.0559 -0.2249  0.9420
11281TIP3    H155334   4.292   0.227   3.745 -0.2625  1.2613  0.4827
11281TIP3    H255335   4.141   0.221   3.744 -0.2365  0.0463  1.2787
11282TIP3   OH255336   6.371   3.144   0.422  0.1422 -0.0760  0.0627
11282TIP3    H155337   6.438   3.171   0.360  0.5280  1.7603  1.1845
11282TIP3    H255338   6.417   3.136   0.506 -0.7495 -0.3115  0.5480
11283TIP3   OH255339   3.305   2.522   0.847 -0.3595  0.0739 -0.9191
11283TIP3    H155340   3.400   2.535   0.849 -0.2921 -0.4220 -0.6823
11283TIP3    H255341   3.276   2.542   0.936 -0.2638 -1.2380 -0.5681
11284TIP3   OH255342   5.108   5.612   3.762  0.3700  0.3574 -0.4696
11284TIP3    H155343   5.138   5.524   3.782 -1.8385 -0.4183 -0.2562
11284TIP3    H255344   5.155   5.669   3.823  1.6639 -0.6728 -0.4630
11285TIP3   OH255345   6.664   1.201  12.286 -0.1087  0.7611 -0.0670
11285TIP3    H155346   6.630   1.143  12.219  0.7155 -1.6209  1.4466
11285TIP3    H255347   6.726   1.258  12.240 -0.4157 -0.0190 -1.5042
11286TIP3   OH255348   6.112   0.695  16.106  0.4822  0.3962  0.4462
11286TIP3    H155349   6.192   0.682  16.157  0.9022 -0.0461 -0.2964
11286TIP3    H255350   6.127   0.777  16.058  0.6462  0.1371  0.0453
11287TIP3   OH255351   0.226   2.075  12.266 -0.3276 -0.0109  0.6238
11287TIP3    H155352   0.269   2.056  12.349 -2.0960 -1.1043  1.3364
11287TIP3    H255353   0.292   2.124  12.216  1.9880 -2.1541  1.3636
11288TIP3   OH255354   5.697   4.034   4.138 -0.3008 -0.2064 -0.4043
11288TIP3    H155355   5.707   3.949   4.095  3.1608  0.3839 -1.0132
11288TIP3    H255356   5.671   4.093   4.067  0.5039 -0.1672 -0.6725
11289TIP3   OH255357   3.398   5.866   3.967  0.3817  0.7614 -0.2352
11289TIP3    H155358   3.462   5.936   3.986 -0.0951  1.5957 -1.5902
11289TIP3    H255359   3.323   5.912   3.930 -0.8130 -0.2727  0.8253
11290TIP3   OH255360   1.092   3.431   3.394  0.2914  0.0992 -0.3937
11290TIP3    H155361   1.054   3.343   3.392 -1.4238  0.7814  0.4687
11290TIP3    H255362   1.053   3.475   3.318 -1.2518  1.0025  0.8548
11291TIP3   OH255363   3.611   6.327  11.611  0.6629 -0.1492  0.4724
11291TIP3    H155364   3.684   6.281  11.652  0.2836 -2.0379 -0.8640
11291TIP3    H255365   3.559   6.259  11.569 -0.3031  1.4261 -1.0321
11292TIP3   OH255366   1.970   3.014  11.221 -0.0075  0.2419 -0.1767
11292TIP3    H155367   2.014   2.936  11.187 -1.1700 -0.0459 -1.0710
11292TIP3    H255368   2.042   3.070  11.252  1.0195 -0.1138 -1.7760
11293TIP3   OH255369   4.065   6.262  14.915 -0.0782 -0.0825  0.9781
11293TIP3    H155370   4.063   6.168  14.901 -1.3249 -0.1654  1.6623
11293TIP3    H255371   3.989   6.295  14.868  0.6256  0.6570  0.3211
11294TIP3   OH255372   6.296   1.990   1.293 -1.0229  0.1884 -0.4334
11294TIP3    H155373   6.278   2.081   1.267 -1.3639  0.0935 -0.5303
11294TIP3    H255374   6.280   1.939   1.214 -0.0518  0.1265 -0.6043
11295TIP3   OH255375   0.972   6.560   6.626 -0.1574 -0.2369  1.0670
11295TIP3    H155376   1.035   6.589   6.560 -0.6797  0.1724  0.7422
11295TIP3    H255377   0.989   6.466   6.635  1.1493  0.0360  1.7042
11296TIP3   OH255378   1.496   4.491  13.528 -0.5871 -0.4232  0.4423
11296TIP3    H155379   1.499   4.573  13.479  1.2108 -2.0069 -2.3728
11296TIP3    H255380   1.433   4.436  13.480  0.4647 -1.6806  0.4298
11297TIP3   OH255381   2.687   4.317  17.199  0.1028 -0.2318 -0.5805
11297TIP3    H155382   2.635   4.258  17.145 -0.3615  0.2801 -0.6984
11297TIP3    H255383   2.686   4.400  17.152  1.2096 -0.2638 -0.6968
11298TIP3   OH255384   1.874   4.413  13.446  0.5687 -0.5200  0.5153
11298TIP3    H155385   1.880   4.318  13.434 -0.8423 -0.4141 -1.3223
11298TIP3    H255386   1.821   4.423  13.526  0.6966 -1.2652  0.7043
11299TIP3   OH255387   4.735   4.583  13.161 -0.1361  0.1656 -0.2990
11299TIP3    H155388   4.823   4.585  13.123 -0.3885  3.6696 -1.0516
11299TIP3    H255389   4.677   4.607  13.090 -1.2812  1.2051  0.9208
11300TIP3   OH255390   0.260   1.003   2.719 -0.2555  0.3715  0.3642
11300TIP3    H155391   0.299   0.934   2.773  0.8377  0.2128 -0.5958
11300TIP3    H255392   0.220   0.956   2.645  0.5377  0.7465 -0.3215
11301TIP3   OH255393   5.370   3.518   1.086 -0.7126  1.2815 -0.1627
11301TIP3    H155394   5.292   3.537   1.138 -0.2147  2.0243  0.3410
11301TIP3    H255395   5.345   3.444   1.030 -1.9016  1.7825 -0.3132
11302TIP3   OH255396   2.781   1.956  13.610  0.3997  0.1550 -0.2800
11302TIP3    H155397   2.834   1.952  13.531 -0.6751  0.3039 -1.0257
11302TIP3    H255398   2.712   1.892  13.596  0.0734  0.3324  0.4575
11303TIP3   OH255399   4.987   2.687   3.862  0.4121 -0.2814  0.0431
11303TIP3    H155400   4.896   2.672   3.838 -0.1731  0.6654  1.5386
11303TIP3    H255401   5.034   2.611   3.826 -1.0777 -1.2153 -0.0359
11304TIP3   OH255402   3.068   6.281   5.236 -0.2905 -0.1913  0.4987
11304TIP3    H155403   3.123   6.359   5.234 -1.3053  0.5278 -0.7713
11304TIP3    H255404   3.068   6.254   5.328  1.2171  0.4613  0.7231
11305TIP3   OH255405   4.627   3.845  17.331  0.0834  0.1038 -0.2562
11305TIP3    H155406   4.559   3.800  17.282 -0.2511 -0.8474  1.0386
11305TIP3    H255407   4.583   3.921  17.369 -0.1987 -0.3504  0.3396
11306TIP3   OH255408   6.362   3.681  16.719 -0.9800  0.0018 -0.0738
11306TIP3    H155409   6.297   3.752  16.715 -1.1737  0.0691  2.5666
11306TIP3    H255410   6.416   3.703  16.794  0.8597 -1.1302 -1.0117
11307TIP3   OH255411   0.335   1.845  11.619  0.0467 -0.0160  0.0080
11307TIP3    H155412   0.265   1.861  11.682  0.7167 -0.0307  0.7740
11307TIP3    H255413   0.318   1.907  11.548 -2.2091 -1.7233 -1.0746
11308TIP3   OH255414   4.462   0.707   5.124 -0.3914 -0.1020 -0.1373
11308TIP3    H155415   4.533   0.643   5.125 -0.8472 -0.6109 -0.0162
11308TIP3    H255416   4.443   0.721   5.031 -1.8314 -1.8913 -0.1647
11309TIP3   OH255417   5.257   2.452   4.587 -0.0198  0.0752  0.0826
11309TIP3    H155418   5.162   2.455   4.576 -0.3257 -1.3344  1.9185
11309TIP3    H255419   5.277   2.521   4.650  0.7425  2.8392 -2.8751
11310TIP3   OH255420   0.117   0.498   4.674 -0.4558  0.5312 -0.0354
11310TIP3    H155421   0.193   0.527   4.623  0.0961 -0.6919  0.0641
11310TIP3    H255422   0.155   0.453   4.750 -1.2800  0.6765  0.4698
11311TIP3   OH255423   4.707   2.077   5.422 -0.2768 -0.2161  0.9006
11311TIP3    H155424   4.800   2.100   5.426 -0.4450  0.4534  1.0447
11311TIP3    H255425   4.706   1.982   5.431  0.4303 -0.2817  0.3827
11312TIP3   OH255426   6.405   1.016   5.351 -0.1678  0.4913 -0.4804
11312TIP3    H155427   6.484   1.057   5.315 -0.0939  1.2010  0.4506
11312TIP3    H255428   6.404   0.928   5.313  1.6721  0.0823  0.3287
11313TIP3   OH255429   0.717   2.215   3.422  0.1767  0.1189  0.4963
11313TIP3    H155430   0.810   2.207   3.445 -0.3459 -0.1180  2.7579
11313TIP3    H255431   0.688   2.125   3.408  0.2579  0.1942 -0.2237
11314TIP3   OH255432   1.915   0.152  12.377 -0.5186 -0.0553 -0.2668
11314TIP3    H155433   1.976   0.175  12.307  0.7129 -0.8242  0.5111
11314TIP3    H255434   1.971   0.121  12.448 -1.7254  0.9191  1.1594
11315TIP3   OH255435   1.774   1.030   4.757  0.8363 -0.2060  0.2866
11315TIP3    H155436   1.705   1.059   4.696  2.6082  0.3860 -1.5513
11315TIP3    H255437   1.850   1.082   4.733  2.7436 -2.7784  0.3370
11316TIP3   OH255438   3.319   5.582   1.871  0.6095  0.2963  0.2104
11316TIP3    H155439   3.252   5.639   1.832  1.0504  0.5171 -0.2419
11316TIP3    H255440   3.325   5.507   1.812  0.6778  0.2180  0.3149
11317TIP3   OH255441   3.746   5.212  14.341  0.1954  0.3826 -0.1443
11317TIP3    H155442   3.831   5.168  14.341  0.2853  0.5286 -1.2898
11317TIP3    H255443   3.699   5.174  14.416  0.5702 -1.0594 -0.6039
11318TIP3   OH255444   1.464   2.304  10.853  0.0765  0.2081 -0.8523
11318TIP3    H155445   1.545   2.342  10.888  0.8045 -2.6153  0.8516
11318TIP3    H255446   1.395   2.363  10.884  1.1467  0.3976  1.3618
11319TIP3   OH255447   0.497   3.006   5.320  0.1685  0.1216 -0.2186
11319TIP3    H155448   0.545   2.956   5.254  0.0174  0.3434 -0.4995
11319TIP3    H255449   0.481   3.091   5.278  1.0023  0.6447  0.4861
11320TIP3   OH255450   6.738   5.032  15.929  0.1499  0.1133  0.3131
11320TIP3    H155451   6.829   5.024  15.959  0.8463  2.2042 -0.9613
11320TIP3    H255452   6.685   5.010  16.005  1.6645 -2.8019  0.6358
11321TIP3   OH255453   3.900   6.628  13.402  0.1789  0.1245 -0.4399
11321TIP3    H155454   3.879   6.535  13.406 -0.8029  0.3352 -0.4553
11321TIP3    H255455   3.855   6.660  13.324  1.5690  0.3722 -1.1802
11322TIP3   OH255456   5.116   5.500  11.422 -0.3498  0.3548  0.1947
11322TIP3    H155457   5.164   5.579  11.397 -1.5333  0.9804 -0.1950
11322TIP3    H255458   5.052   5.488  11.352  1.0871 -2.1245 -0.8170
11323TIP3   OH255459   0.784   2.582  16.402  0.9479 -0.0281  0.4486
11323TIP3    H155460   0.760   2.673  16.388 -0.4564 -0.2634  1.2164
11323TIP3    H255461   0.800   2.548  16.314  0.5646  0.7150  0.0827
11324TIP3   OH255462   6.301   3.943  15.460  0.0528  0.5859  0.4089
11324TIP3    H155463   6.271   3.862  15.500 -0.0156  0.0535 -0.6885
11324TIP3    H255464   6.247   4.011  15.499 -2.2686 -0.2804 -1.0841
11325TIP3   OH255465   0.948   6.209  12.079  0.4681  0.6598  1.0454
11325TIP3    H155466   0.915   6.296  12.056  0.6435  0.6985  0.9331
11325TIP3    H255467   1.043   6.221  12.083  0.6044  0.1753 -0.2592
11326TIP3   OH255468   4.243   0.303   1.345  0.2064  0.0185  0.1502
11326TIP3    H155469   4.198   0.290   1.262  0.4826  1.2290 -0.2098
11326TIP3    H255470   4.233   0.397   1.363 -0.2476 -0.2969  1.7174
11327TIP3   OH255471   0.044   2.917  15.874  0.0140  0.3267  0.1549
11327TIP3    H155472   0.014   2.831  15.904 -2.3450  1.2482  0.6308
11327TIP3    H255473   0.068   2.904  15.783 -3.4444 -0.2458 -0.7971
11328TIP3   OH255474   6.738   6.377  14.043  0.2977  0.3497  0.1569
11328TIP3    H155475   6.716   6.334  13.961 -0.9239  2.1998 -0.5668
11328TIP3    H255476   6.714   6.469  14.029  1.2473  0.9602  2.1525
11329TIP3   OH255477   1.536   4.441  14.082  0.3981  0.1979  0.2848
11329TIP3    H155478   1.536   4.439  13.986 -1.7974  0.4825  0.2226
11329TIP3    H255479   1.481   4.516  14.104 -0.9674 -1.1623  1.7335
11330TIP3   OH255480   2.703   1.881   4.187  0.0232 -0.7708  0.5338
11330TIP3    H155481   2.759   1.818   4.141  2.0156  0.9305  0.4501
11330TIP3    H255482   2.632   1.899   4.126 -0.4022 -2.6436  0.4307
11331TIP3   OH255483   3.089   2.877  12.500 -0.0629 -0.1231 -0.1073
11331TIP3    H155484   3.036   2.955  12.480  0.9699  0.6472  0.0482
11331TIP3    H255485   3.170   2.891  12.450  1.0474  0.0127  1.6517
11332TIP3   OH255486   5.178   6.080   1.567 -0.5930  0.4019 -0.0529
11332TIP3    H155487   5.162   6.174   1.566 -0.2814  0.4756  0.9856
11332TIP3    H255488   5.093   6.041   1.586 -0.2501  0.6345  2.2539
11333TIP3   OH255489   1.442   5.856   4.066  0.2082  0.2810  0.1723
11333TIP3    H155490   1.456   5.840   3.972  0.8057 -0.1526  0.3320
11333TIP3    H255491   1.464   5.773   4.108 -1.1371  0.1238  0.6105
11334TIP3   OH255492   3.858   4.352   1.277 -0.6615  0.0222  1.0790
11334TIP3    H155493   3.925   4.290   1.305  1.5495 -0.4743 -4.1516
11334TIP3    H255494   3.788   4.297   1.242 -1.1354  0.4852  1.3034
11335TIP3   OH255495   1.154   5.716  15.372 -0.1839 -0.4693  0.2318
11335TIP3    H155496   1.085   5.771  15.335 -1.1309  1.3467  4.1333
11335TIP3    H255497   1.111   5.632  15.387 -0.3365 -0.6137 -0.9473
11336TIP3   OH255498   6.311   2.402  12.365 -0.9498  0.0913  0.2137
11336TIP3    H155499   6.267   2.401  12.280  0.3395  2.2253 -0.5711
11336TIP3    H255500   6.382   2.339  12.357 -1.9809 -1.1333  0.4276
11337TIP3   OH255501   3.531   3.306  15.904  0.9679 -0.8736  0.6110
11337TIP3    H155502   3.450   3.352  15.879  1.1047 -1.2577 -0.5707
11337TIP3    H255503   3.512   3.270  15.990 -0.4519 -1.6983 -0.0134
11338TIP3   OH255504   2.213   6.307   0.246  0.7643  0.2811 -0.1818
11338TIP3    H155505   2.173   6.262   0.171  0.3494  0.5961 -0.1512
11338TIP3    H255506   2.141   6.321   0.307  1.0496  0.2702  0.1620
11339TIP3   OH255507   4.856   6.478   1.989  0.1501  0.1469  0.2425
11339TIP3    H155508   4.940   6.510   2.022  0.7476 -0.2631 -0.8528
11339TIP3    H255509   4.877   6.400   1.939 -0.4542  1.6466 -2.5828
11340TIP3   OH255510   2.891   4.461   2.174  0.4278 -0.2694  0.4578
11340TIP3    H155511   2.913   4.481   2.265  2.0513  1.0626 -0.1639
11340TIP3    H255512   2.859   4.371   2.176  3.5041 -1.4811  1.9459
11341TIP3   OH255513   1.197   1.046   6.175 -0.2805  0.1794  0.0847
11341TIP3    H155514   1.258   1.069   6.104 -1.7570 -1.0348 -1.6859
11341TIP3    H255515   1.189   1.126   6.227  1.3325  0.9268 -0.7276
11342TIP3   OH255516   4.632   6.532   4.125  0.0738  0.0932 -0.6716
11342TIP3    H155517   4.592   6.577   4.050 -3.1044  2.3831  2.0767
11342TIP3    H255518   4.701   6.591   4.155 -0.7468  0.7495 -0.0244
11343TIP3   OH255519   0.548   0.702   6.129 -0.4623 -0.1729  0.1302
11343TIP3    H155520   0.461   0.671   6.153 -0.9267  1.3689  0.5211
11343TIP3    H255521   0.604   0.675   6.202 -0.5242 -1.4221 -0.2545
11344TIP3   OH255522   4.037   4.628   0.854 -0.3768 -0.3236  0.1277
11344TIP3    H155523   3.999   4.716   0.849 -1.6708 -0.8858 -0.4102
11344TIP3    H255524   4.061   4.617   0.946 -1.6190  0.0453  0.5174
11345TIP3   OH255525   4.040   0.282   1.124  0.2911 -0.3920 -0.6422
11345TIP3    H155526   4.033   0.187   1.130  0.2235 -0.4421 -1.4078
11345TIP3    H255527   3.965   0.309   1.072 -0.4007  0.2234  0.6254
11346TIP3   OH255528   0.263   4.985  10.933  0.2910  0.6877  0.0585
11346TIP3    H155529   0.261   5.075  10.898 -2.0929  0.6935  0.0623
11346TIP3    H255530   0.206   4.988  11.010  1.4336 -0.5126  1.0089
11347TIP3   OH255531   3.242   2.551   2.320  0.1730  0.1420  0.1781
11347TIP3    H155532   3.243   2.647   2.325 -1.6379  0.1427  1.4986
11347TIP3    H255533   3.298   2.523   2.392  0.7864  0.1814 -0.2711
11348TIP3   OH255534   5.341   6.243  15.665  0.5155 -0.2219 -0.6227
11348TIP3    H155535   5.306   6.160  15.630 -0.7149  0.6579 -1.5901
11348TIP3    H255536   5.435   6.237  15.650  0.3377 -1.0424 -1.6023
11349TIP3   OH255537   0.838   1.353  15.630 -0.3736  1.1657 -0.2481
11349TIP3    H155538   0.749   1.371  15.598 -0.2672  0.7648 -0.7812
11349TIP3    H255539   0.889   1.338  15.551 -0.3261 -0.9129  0.1252
11350TIP3   OH255540   4.275   5.088  15.129  0.3362 -0.3947  0.6723
11350TIP3    H155541   4.182   5.071  15.123  0.5139 -1.5483  1.0535
11350TIP3    H255542   4.310   5.062  15.043  0.1772  1.0102  0.1577
11351TIP3   OH255543   0.689   0.800  11.623 -0.2864  0.1775  0.2468
11351TIP3    H155544   0.647   0.780  11.707  1.8445  0.5322  1.4416
11351TIP3    H255545   0.753   0.730  11.611 -2.2058 -1.2974 -2.3759
11352TIP3   OH255546   0.988   1.567   1.273 -0.2802 -0.4097  0.1513
11352TIP3    H155547   1.070   1.519   1.258  0.8515  0.4901  2.8490
11352TIP3    H255548   0.964   1.602   1.188  2.2830 -0.5140 -0.6837
11353TIP3   OH255549   3.457   4.518   3.534  0.4140  0.1825 -0.1935
11353TIP3    H155550   3.456   4.584   3.604 -1.0598 -0.6239  0.6023
11353TIP3    H255551   3.409   4.558   3.462 -1.3096 -0.3145  0.6279
11354TIP3   OH255552   4.667   0.267  12.850 -0.8564  0.1388  0.3321
11354TIP3    H155553   4.606   0.253  12.923  0.0811 -0.4097  1.0367
11354TIP3    H255554   4.620   0.325  12.791 -2.2023 -0.5439  0.6771
11355TIP3   OH255555   2.793   1.870  17.295  0.1536  0.4575 -0.2314
11355TIP3    H155556   2.811   1.932  17.366 -0.1025 -0.1444  0.3700
11355TIP3    H255557   2.698   1.866  17.290  0.1616 -0.3264  0.1343
11356TIP3   OH255558   0.631   2.339  11.644 -0.1780 -0.2111  0.4494
11356TIP3    H155559   0.699   2.328  11.710  0.6312  2.2567  0.1260
11356TIP3    H255560   0.607   2.250  11.618  3.6305 -1.2202 -0.1164
11357TIP3   OH255561   6.083   5.501   1.281  0.0011  0.3977  0.1689
11357TIP3    H155562   6.169   5.539   1.260  0.0259 -0.1898 -0.8233
11357TIP3    H255563   6.057   5.455   1.202 -0.5201 -0.7662  1.0000
11358TIP3   OH255564   0.145   3.776   3.088 -0.2583  0.3449  0.8439
11358TIP3    H155565   0.235   3.793   3.116 -0.7254 -0.6670  3.1252
11358TIP3    H255566   0.129   3.840   3.019  1.7865  1.3858  1.2696
11359TIP3   OH255567   4.854   0.181   5.664  0.0446  0.2756  0.0264
11359TIP3    H155568   4.944   0.209   5.681  0.1462  0.0760 -0.1739
11359TIP3    H255569   4.801   0.259   5.681  0.2759  0.4510 -0.0467
11360TIP3   OH255570   5.637   6.404   3.279 -0.4782  0.0502  0.8030
11360TIP3    H155571   5.622   6.463   3.205  0.3541 -0.0130  0.5698
11360TIP3    H255572   5.666   6.461   3.350  0.9415 -0.1141  0.3930
11361TIP3   OH255573   5.969   5.215  16.991  0.1507  0.6176 -0.1909
11361TIP3    H155574   5.903   5.242  17.056 -0.8065 -2.1493  0.1244
11361TIP3    H255575   6.010   5.138  17.030  0.6313 -0.1917 -2.2013
11362TIP3   OH255576   1.771   4.167   5.568  0.2268 -0.0109  0.5022
11362TIP3    H155577   1.778   4.257   5.602 -1.9117  0.4506 -0.1684
11362TIP3    H255578   1.691   4.133   5.608 -1.0083 -0.3108 -2.0471
11363TIP3   OH255579   6.614   6.623  14.095 -0.6747 -0.0069  0.3955
11363TIP3    H155580   6.569   6.628  14.010 -2.0638 -1.4696  0.9832
11363TIP3    H255581   6.618   6.713  14.126 -3.8095  0.1881  0.5519
11364TIP3   OH255582   5.112   1.065  12.879  0.0943 -0.1162  0.2875
11364TIP3    H155583   5.157   1.011  12.943  0.4741 -1.3922 -0.9929
11364TIP3    H255584   5.177   1.079  12.809 -1.9808 -4.3449 -2.9852
11365TIP3   OH255585   2.173   6.284   5.922  0.1634  0.3624  0.2739
11365TIP3    H155586   2.118   6.208   5.937 -2.0350  2.1798  2.2633
11365TIP3    H255587   2.214   6.302   6.007  2.3796  0.2185 -0.6851
11366TIP3   OH255588   3.927   4.187  12.498  0.6245 -0.0029  0.5345
11366TIP3    H155589   3.993   4.138  12.547 -0.3200  0.5825  2.4935
11366TIP3    H255590   3.868   4.221  12.565 -1.1559  0.2495 -1.0960
11367TIP3   OH255591   5.898   5.892  13.227  0.5906  0.2012 -0.6183
11367TIP3    H155592   5.944   5.817  13.264 -1.4092 -0.1611  1.4013
11367TIP3    H255593   5.960   5.965  13.232  1.8836 -0.8757 -0.7536
11368TIP3   OH255594   3.961   3.844   1.119  0.1049  0.6296  0.6831
11368TIP3    H155595   3.993   3.753   1.122  2.3310  1.3341  0.4511
11368TIP3    H255596   3.878   3.842   1.167 -0.1465 -1.6074  0.2584
11369TIP3   OH255597   1.172   5.191   2.395  0.1923  0.0057 -0.7936
11369TIP3    H155598   1.145   5.104   2.425  0.7208  0.4500  1.0869
11369TIP3    H255599   1.267   5.184   2.386  0.3294  0.5978  0.1295
11370TIP3   OH255600   2.524   1.889  13.355  0.2669 -0.1080  0.3314
11370TIP3    H155601   2.577   1.812  13.336  0.6888  0.0733  0.7303
11370TIP3    H255602   2.498   1.878  13.447  1.8046  1.0496  0.9658
11371TIP3   OH255603   5.590   4.418   2.094  0.1186 -0.2715 -0.5711
11371TIP3    H155604   5.598   4.370   2.177  0.4554  0.0804 -0.3999
11371TIP3    H255605   5.647   4.494   2.104 -0.4017  0.1592 -0.8532
11372TIP3   OH255606   4.302   2.433   1.815  0.2147 -0.1138  0.4989
11372TIP3    H155607   4.338   2.478   1.891  0.7273 -0.7840  0.6672
11372TIP3    H255608   4.213   2.410   1.840  0.1784  0.2018  0.6642
11373TIP3   OH255609   4.997   6.164   1.111  0.3634 -0.0772 -0.3654
11373TIP3    H155610   4.983   6.232   1.045 -0.3641  0.5364  0.3925
11373TIP3    H255611   4.952   6.087   1.077  0.7005 -0.0078 -0.9672
11374TIP3   OH255612   6.258   6.224   1.675 -0.0831 -0.4268  0.0281
11374TIP3    H155613   6.236   6.136   1.704  0.0965 -0.5478 -0.1994
11374TIP3    H255614   6.189   6.247   1.612  0.5187 -0.8692 -0.8077
11375TIP3   OH255615   3.839   5.568  15.706  0.6286  0.2037  0.4993
11375TIP3    H155616   3.839   5.657  15.671 -1.0553 -0.5406 -1.6059
11375TIP3    H255617   3.876   5.577  15.793  0.4420  2.9763  0.3910
11376TIP3   OH255618   4.470   3.182   3.714 -0.1961 -0.6463  0.8122
11376TIP3    H155619   4.479   3.207   3.622  1.7081 -0.9186  0.8759
11376TIP3    H255620   4.397   3.120   3.716  0.0902 -1.0517 -0.6008
11377TIP3   OH255621   1.076   0.396   6.212 -0.6029 -0.4041  0.5632
11377TIP3    H155622   1.048   0.425   6.125  0.1687  0.2665  0.5284
11377TIP3    H255623   1.097   0.477   6.259 -2.1655 -0.6825  1.7943
11378TIP3   OH255624   5.989   4.487  11.256  0.1858  0.0179  0.0575
11378TIP3    H155625   5.901   4.512  11.229 -0.2565  0.3165  1.6814
11378TIP3    H255626   6.046   4.549  11.209 -0.4306 -0.2376 -1.0730
11379TIP3   OH255627   5.642   5.048   4.433  0.1769  0.1129 -0.4989
11379TIP3    H155628   5.679   5.077   4.516  0.3874 -1.0669 -0.1591
11379TIP3    H255629   5.698   5.087   4.366  1.3739 -0.7464 -0.0182
11380TIP3   OH255630   3.974   4.700   3.075  0.0811  0.5803  0.4537
11380TIP3    H155631   3.906   4.735   3.133 -0.7068  0.3768 -0.3102
11380TIP3    H255632   3.937   4.618   3.042  0.2480  0.9622 -0.7541
11381TIP3   OH255633   6.238   2.573  16.621 -0.0490 -0.2216 -0.4119
11381TIP3    H155634   6.174   2.525  16.567  0.0164  0.1492 -0.8241
11381TIP3    H255635   6.201   2.571  16.709 -1.4903  1.4449 -0.9447
11382TIP3   OH255636   0.849   3.699  15.813  0.0145  0.0538  0.2118
11382TIP3    H155637   0.769   3.679  15.764  0.8819  0.9685 -1.6643
11382TIP3    H255638   0.830   3.669  15.902 -1.7940 -1.2682 -0.5504
11383TIP3   OH255639   3.980   3.098   1.041  0.1838  0.4076 -0.2952
11383TIP3    H155640   4.067   3.060   1.028  0.2045 -1.0410  3.0561
11383TIP3    H255641   3.995   3.173   1.100 -0.7771  0.3236  0.0745
11384TIP3   OH255642   4.424   4.943   0.218  0.3938 -0.1189 -0.0340
11384TIP3    H155643   4.455   4.964   0.306  1.2452 -1.5515  0.0372
11384TIP3    H255644   4.431   4.848   0.212 -0.8584 -0.1643 -1.2159
11385TIP3   OH255645   5.047   4.005  14.266  0.1005  0.2188 -0.2805
11385TIP3    H155646   5.007   4.074  14.214 -0.3620 -0.6003 -1.0417
11385TIP3    H255647   5.132   3.990  14.226  0.1410  0.2491 -0.2064
11386TIP3   OH255648   3.621   3.672  11.087  0.7527 -0.0858  0.4696
11386TIP3    H155649   3.610   3.717  11.003 -1.6185 -0.2178  0.6633
11386TIP3    H255650   3.619   3.742  11.152 -1.7510 -0.2922  0.6835
11387TIP3   OH255651   1.313   1.665   2.435 -0.3011 -0.7369  0.0662
11387TIP3    H155652   1.346   1.754   2.441  0.6480 -1.1467  1.8418
11387TIP3    H255653   1.375   1.620   2.378 -0.2844 -0.4559 -0.1367
11388TIP3   OH255654   3.408   1.414  13.405  0.3198 -0.0943 -0.7129
11388TIP3    H155655   3.445   1.480  13.463  1.6335  0.5082 -2.1759
11388TIP3    H255656   3.332   1.381  13.452  0.7972  1.0225  0.9285
11389TIP3   OH255657   3.129   6.189  11.308  0.4434 -1.0249  0.3917
11389TIP3    H155658   3.126   6.172  11.214 -0.8197 -0.1672  0.2604
11389TIP3    H255659   3.105   6.105  11.348  0.4550 -1.2446 -0.0575
11390TIP3   OH255660   1.076   5.135   5.653  0.5259 -0.5772 -0.2223
11390TIP3    H155661   1.147   5.163   5.712  1.7709 -3.3471 -0.2594
11390TIP3    H255662   1.026   5.072   5.705  1.1348 -2.4201 -1.7590
11391TIP3   OH255663   4.014   4.616   2.086  0.1017  0.5073  0.5559
11391TIP3    H155664   3.951   4.561   2.039  1.9449 -1.4118  0.1403
11391TIP3    H255665   4.040   4.562   2.162  0.7255  1.5274  1.0866
11392TIP3   OH255666   4.521   3.583   0.420 -0.1607  0.4748 -0.3767
11392TIP3    H155667   4.534   3.502   0.469 -1.8850 -0.8064 -1.9143
11392TIP3    H255668   4.608   3.622   0.414  0.8381 -1.5906 -0.1487
11393TIP3   OH255669   0.740   6.232   1.984  0.4368 -0.4560 -0.2805
11393TIP3    H155670   0.722   6.261   2.074  1.7359 -0.3547 -0.0435
11393TIP3    H255671   0.693   6.295   1.929  1.4141  0.8027  0.2816
11394TIP3   OH255672   4.850   4.777  14.557  0.3355  0.1113 -0.4337
11394TIP3    H155673   4.914   4.800  14.490  0.5869  1.2427  0.1714
11394TIP3    H255674   4.829   4.685  14.540  1.7548 -0.1418 -0.9446
11395TIP3   OH255675   2.726   5.646  14.832  0.1856 -0.1248  0.4592
11395TIP3    H155676   2.738   5.708  14.904  0.9203  1.1634 -0.7340
11395TIP3    H255677   2.722   5.700  14.753 -0.0174 -1.5408 -0.5487
11396TIP3   OH255678   1.762   6.779   6.446 -0.2884 -0.0320 -0.2969
11396TIP3    H155679   1.670   6.802   6.460 -0.3831 -0.0986 -0.8122
11396TIP3    H255680   1.797   6.770   6.535 -1.1289 -1.4106 -0.0676
11397TIP3   OH255681   3.536   4.436   6.605  0.5901  0.2783 -0.3946
11397TIP3    H155682   3.471   4.478   6.660  2.1160 -0.1716  1.8864
11397TIP3    H255683   3.490   4.362   6.565 -0.8929  1.3869 -0.8277
11398TIP3   OH255684   4.348   1.708  12.674  0.6422  0.1391  0.0215
11398TIP3    H155685   4.369   1.618  12.698 -1.4417 -0.3106  0.4055
11398TIP3    H255686   4.361   1.759  12.754  0.3830 -0.1161  0.2293
11399TIP3   OH255687   0.895   2.342   0.665 -0.7479  0.3012 -0.2959
11399TIP3    H155688   0.802   2.328   0.681 -1.4071  1.9156 -2.2815
11399TIP3    H255689   0.912   2.431   0.694  0.5572 -0.4483  1.3646
11400TIP3   OH255690   4.550   3.950  11.150  0.3529  0.2640  0.0660
11400TIP3    H155691   4.540   3.956  11.055 -0.0643 -1.0997 -0.0064
11400TIP3    H255692   4.627   4.003  11.170 -1.1460  2.8544 -0.6634
11401TIP3   OH255693   2.052   0.351  17.108  0.0588  0.7271 -0.3352
11401TIP3    H155694   2.028   0.361  17.016 -1.5599 -0.1116 -0.0461
11401TIP3    H255695   1.999   0.416  17.154 -0.6699 -0.1932  0.1800
11402TIP3   OH255696   5.899   5.349  10.620  0.3380 -0.6579  0.6059
11402TIP3    H155697   5.946   5.414  10.568  0.4012  0.1473  1.6468
11402TIP3    H255698   5.953   5.336  10.698 -0.2187 -1.1395  0.9189
11403TIP3   OH255699   4.504   6.314  16.764 -0.7729 -0.3556 -0.2704
11403TIP3    H155700   4.498   6.397  16.716 -1.7146 -0.8662 -1.0638
11403TIP3    H255701   4.554   6.257  16.706 -0.9029 -0.6208 -0.1184
11404TIP3   OH255702   5.375   6.324  13.570 -0.2279 -0.2245  0.1007
11404TIP3    H155703   5.333   6.381  13.634 -1.0985  0.4338 -1.0303
11404TIP3    H255704   5.436   6.270  13.622  0.6521  1.7321  1.2007
11405TIP3   OH255705   1.837   3.833  14.592 -0.2195  0.3344  0.4132
11405TIP3    H155706   1.913   3.884  14.619  0.0172  0.6855 -0.8579
11405TIP3    H255707   1.762   3.890  14.610 -0.1631  0.1698  1.2270
11406TIP3   OH255708   6.021   0.084  14.475  0.4620  0.4429 -0.0271
11406TIP3    H155709   6.093   0.027  14.447  0.5067 -0.2571  1.4462
11406TIP3    H255710   6.005   0.141  14.399  2.0972  0.1543 -0.6271
11407TIP3   OH255711   4.931   0.858  12.672  0.0865  0.3590  0.3269
11407TIP3    H155712   4.904   0.790  12.734  0.2248  0.0152  0.0134
11407TIP3    H255713   5.026   0.848  12.666  0.2616  1.3263  1.1477
11408TIP3   OH255714   1.441   4.963  15.697  0.2777  0.4654 -0.3014
11408TIP3    H155715   1.373   4.926  15.753 -2.5987 -1.5780 -4.6005
11408TIP3    H255716   1.498   4.890  15.677  1.0091  1.0552 -0.4064
11409TIP3   OH255717   3.890   6.085   3.347 -0.1313  0.0039  0.6653
11409TIP3    H155718   3.842   6.010   3.312 -0.6216  0.8346 -0.5052
11409TIP3    H255719   3.952   6.047   3.409  0.1580 -1.4339 -0.4612
11410TIP3   OH255720   5.593   2.186   4.238 -0.0724 -0.1706  0.3587
11410TIP3    H155721   5.517   2.129   4.247 -0.3330  0.2112  0.5800
11410TIP3    H255722   5.637   2.155   4.159  0.0648 -1.0055  0.7537
11411TIP3   OH255723   5.146   1.308  12.103 -0.2364  0.3068 -0.4307
11411TIP3    H155724   5.144   1.279  12.194  1.2497  3.4226  0.7199
11411TIP3    H255725   5.056   1.332  12.083 -0.4936  0.0192  0.3560
11412TIP3   OH255726   0.474   4.149   3.283 -0.3067  0.3528  0.5435
11412TIP3    H155727   0.517   4.174   3.365  1.9282  0.0849 -0.4557
11412TIP3    H255728   0.486   4.054   3.277  0.0579  0.4397 -0.3285
11413TIP3   OH255729   3.212   4.228   0.260 -0.2123 -0.0124 -0.0787
11413TIP3    H155730   3.273   4.204   0.191 -1.9421 -2.1370 -0.9660
11413TIP3    H255731   3.267   4.272   0.326  1.9178 -0.2063 -1.6226
11414TIP3   OH255732   5.564   2.713   0.586 -0.2115  0.2859  0.2940
11414TIP3    H155733   5.578   2.807   0.578  2.1114  0.3928  3.5203
11414TIP3    H255734   5.478   2.705   0.626 -0.8107  0.9413 -0.8187
11415TIP3   OH255735   6.457   2.734  11.831  0.5219 -0.3012 -0.0058
11415TIP3    H155736   6.482   2.769  11.746  1.0568 -1.8652 -0.5287
11415TIP3    H255737   6.436   2.811  11.883  0.6273  0.7191 -1.4029
11416TIP3   OH255738   3.517   4.809  16.292  0.3992  0.1994  0.0065
11416TIP3    H155739   3.612   4.812  16.285  0.3914  0.2548 -0.0823
11416TIP3    H255740   3.486   4.836  16.205  0.3085 -0.8593 -0.3088
11417TIP3   OH255741   2.235   2.557   5.659  0.2198 -0.4772 -0.1662
11417TIP3    H155742   2.217   2.629   5.598 -0.1467 -1.5260 -1.3581
11417TIP3    H255743   2.150   2.515   5.671  0.6001 -1.2956 -0.2788
11418TIP3   OH255744   0.510   1.483   4.087  0.3464  0.3374 -0.2374
11418TIP3    H155745   0.597   1.498   4.050  0.9339 -0.7452  0.6374
11418TIP3    H255746   0.506   1.389   4.102 -0.4480  0.5421  1.0151
11419TIP3   OH255747   0.876   3.870  11.412 -0.0689 -0.6611  0.2972
11419TIP3    H155748   0.833   3.818  11.345  0.8774 -1.3120  0.1716
11419TIP3    H255749   0.889   3.810  11.486  0.3945 -0.4181  0.4202
11420TIP3   OH255750   5.082   0.516   1.863 -0.2471 -0.0662  0.1208
11420TIP3    H155751   5.047   0.585   1.806 -2.1373 -1.3149 -0.3650
11420TIP3    H255752   5.007   0.457   1.877  1.0173 -1.4726  1.3358
11421TIP3   OH255753   2.854   0.478  15.113 -0.4585  0.4717 -0.0117
11421TIP3    H155754   2.942   0.448  15.093  0.2657  0.6442  2.5402
11421TIP3    H255755   2.848   0.565  15.074  0.0546  0.0046 -1.1731
11422TIP3   OH255756   1.026   5.550   3.510  0.1668  0.1124 -0.0861
11422TIP3    H155757   1.076   5.580   3.586 -0.1887 -0.9385  0.5870
11422TIP3    H255758   0.959   5.618   3.497 -0.6212 -0.3330  1.4037
11423TIP3   OH255759   0.392   0.566   3.189  0.4710  0.2382 -0.1070
11423TIP3    H155760   0.341   0.576   3.109 -0.2846 -0.3367  0.2874
11423TIP3    H255761   0.356   0.487   3.230  0.1568  1.0674  1.2849
11424TIP3   OH255762   0.688   1.168  14.641  0.9183 -0.2113 -0.0856
11424TIP3    H155763   0.612   1.165  14.584  1.7234 -0.5198 -1.1742
11424TIP3    H255764   0.667   1.236  14.706 -0.0063  0.1478 -0.7410
11425TIP3   OH255765   0.559   1.525  13.100 -0.0865 -0.4579 -0.3921
11425TIP3    H155766   0.511   1.607  13.093  0.9809  0.1468 -0.7007
11425TIP3    H255767   0.647   1.550  13.128 -0.2872 -1.6627  1.5270
11426TIP3   OH255768   5.090   3.533  15.882 -0.2467 -0.5570  0.3474
11426TIP3    H155769   5.036   3.605  15.850 -0.8109 -0.6821  1.0046
11426TIP3    H255770   5.090   3.543  15.977  2.1471  0.3480  0.3324
11427TIP3   OH255771   4.433   5.265   5.042  0.7613  0.1235  0.8582
11427TIP3    H155772   4.497   5.332   5.067  1.4445 -0.7143  1.3916
11427TIP3    H255773   4.486   5.194   5.005 -0.0065  0.1197 -0.2774
11428TIP3   OH255774   0.166   1.968  13.365 -0.0040  0.4677 -0.4867
11428TIP3    H155775   0.258   1.964  13.388  0.6243  1.1339 -2.6313
11428TIP3    H255776   0.144   2.061  13.369 -0.3729  0.3914 -0.6996
11429TIP3   OH255777   0.086   3.350  15.235 -0.0991  0.1151 -0.9121
11429TIP3    H155778   0.073   3.257  15.254  1.1577 -0.1252 -1.1604
11429TIP3    H255779   0.020   3.369  15.168 -2.0456  0.0559  0.8517
11430TIP3   OH255780   4.870   3.214  10.888 -0.5024 -0.0764  0.2210
11430TIP3    H155781   4.932   3.141  10.878  0.8260  1.1319 -0.6637
11430TIP3    H255782   4.799   3.177  10.941  0.4539 -1.8152  0.3784
11431TIP3   OH255783   6.339   5.409  14.283  0.0721 -0.4181  0.5124
11431TIP3    H155784   6.369   5.407  14.192  1.1955 -1.7434  0.8728
11431TIP3    H255785   6.244   5.410  14.278  0.0892  2.1718 -0.6833
11432TIP3   OH255786   5.457   5.482   5.542 -0.1144 -0.3504 -0.5270
11432TIP3    H155787   5.442   5.546   5.612  0.7340  1.6359 -2.0602
11432TIP3    H255788   5.393   5.414   5.558 -0.1400  0.1656  2.0096
11433TIP3   OH255789   6.409   5.565  11.145  0.0829 -0.4589 -0.2929
11433TIP3    H155790   6.433   5.625  11.074 -0.3293  0.0451 -0.0146
11433TIP3    H255791   6.412   5.478  11.106 -1.4857 -0.0865 -1.3018
11434TIP3   OH255792   2.032   2.062  12.734 -0.5930  0.2603  0.2548
11434TIP3    H155793   2.037   2.053  12.639 -0.1047  1.3064  0.1663
11434TIP3    H255794   2.115   2.104  12.758 -0.6827 -0.0574  1.1535
11435TIP3   OH255795   4.042   6.504   5.993 -0.0096  0.3263 -0.1473
11435TIP3    H155796   4.004   6.576   6.043  0.8140 -0.8804  2.4010
11435TIP3    H255797   3.974   6.481   5.930 -1.0053  2.1463  0.1872
11436TIP3   OH255798   2.724   4.523   5.752 -0.1348 -0.1121 -0.2882
11436TIP3    H155799   2.710   4.614   5.725 -0.2164 -0.3583 -1.0900
11436TIP3    H255800   2.714   4.472   5.672 -4.7852 -1.3915  0.8290
11437TIP3   OH255801   3.927   4.165  10.907  0.0571  0.3465  0.0076
11437TIP3    H155802   3.896   4.078  10.884 -0.8346  0.4026  0.9324
11437TIP3    H255803   3.900   4.177  10.998  0.8146  1.3031  0.1252
11438TIP3   OH255804   4.705   2.820  14.205 -0.0980 -0.6908  0.0447
11438TIP3    H155805   4.698   2.861  14.119 -0.1947  2.6888  1.4866
11438TIP3    H255806   4.617   2.788  14.224 -0.0950 -1.3664 -1.0515
11439TIP3   OH255807   0.495   6.601   3.300  0.0353 -0.6708 -0.3004
11439TIP3    H155808   0.467   6.512   3.279 -0.5820 -0.3041 -1.0586
11439TIP3    H255809   0.530   6.636   3.218  1.3435 -0.5986  0.2691
11440TIP3   OH255810   1.451   3.110   4.562 -0.1156 -0.6057  0.8299
11440TIP3    H155811   1.414   3.189   4.522  2.0098  0.4129  0.7584
11440TIP3    H255812   1.384   3.043   4.549 -0.8990  0.5292 -1.4659
11441TIP3   OH255813   3.557   6.332   5.768  0.1074  0.1455  0.5347
11441TIP3    H155814   3.576   6.389   5.694 -0.0153 -1.0888 -0.4805
11441TIP3    H255815   3.508   6.387   5.829  1.4830  1.5918  0.3777
11442TIP3   OH255816   1.441   3.258   3.909 -0.2360 -0.3854 -0.0972
11442TIP3    H155817   1.481   3.297   3.831 -0.0327 -0.8276 -0.2161
11442TIP3    H255818   1.365   3.313   3.926  0.0518  0.0759 -0.2521
11443TIP3   OH255819   2.352   3.231   4.670 -0.1380 -0.0462  0.6873
11443TIP3    H155820   2.327   3.322   4.685  1.0069  0.2128  1.1732
11443TIP3    H255821   2.423   3.216   4.732 -1.0122 -1.6071  1.3820
11444TIP3   OH255822   2.682   5.954  15.027  0.3950 -0.1937  0.3226
11444TIP3    H155823   2.662   6.035  14.979  0.7341 -0.1725  0.2166
11444TIP3    H255824   2.600   5.932  15.071  0.7300  1.1191  1.7039
11445TIP3   OH255825   5.186   5.729  10.648 -0.3799  0.2361 -0.1137
11445TIP3    H155826   5.202   5.823  10.636  0.6131 -0.0397 -1.2351
11445TIP3    H255827   5.094   5.717  10.627 -1.5797  1.4629  3.6125
11446TIP3   OH255828   6.538   2.387  13.011 -0.0571 -0.0112 -0.0686
11446TIP3    H155829   6.509   2.308  13.058  0.7496  0.7368  1.7555
11446TIP3    H255830   6.615   2.359  12.962 -1.1894 -0.9203 -1.4127
11447TIP3   OH255831   4.816   0.545  15.472  0.3075  0.6141  0.0376
11447TIP3    H155832   4.751   0.499  15.420 -0.0550 -0.0397  1.0468
11447TIP3    H255833   4.899   0.503  15.450  0.6318  2.2173 -2.1475
11448TIP3   OH255834   1.104   2.240  12.031  0.6826  0.3238 -0.0662
11448TIP3    H155835   1.095   2.148  12.005  4.7573 -0.8960  1.9704
11448TIP3    H255836   1.036   2.253  12.097  0.2870 -1.3619 -0.0932
11449TIP3   OH255837   2.820   3.631   3.340  0.2666 -0.1489  0.1775
11449TIP3    H155838   2.837   3.554   3.393 -0.7424 -0.1801  0.4716
11449TIP3    H255839   2.744   3.608   3.287  0.0302  0.5906  0.1761
11450TIP3   OH255840   3.663   1.678   5.137 -0.1788 -0.1255  0.4826
11450TIP3    H155841   3.709   1.675   5.052 -0.9605 -0.2970  0.0590
11450TIP3    H255842   3.732   1.659   5.201  0.1997 -1.1980 -0.2033
11451TIP3   OH255843   1.240   6.455   2.797 -0.3055 -0.0944  0.5905
11451TIP3    H155844   1.181   6.398   2.747 -1.0139 -0.9132  2.2609
11451TIP3    H255845   1.291   6.501   2.731  0.3133 -2.6691 -0.8958
11452TIP3   OH255846   5.043   1.537  15.097 -0.2256  0.0376  0.0867
11452TIP3    H155847   5.070   1.465  15.041 -1.5886 -0.9637  0.6518
11452TIP3    H255848   4.992   1.594  15.038 -0.2771 -0.1672 -0.0707
11453TIP3   OH255849   4.374   5.821  16.613 -0.4647  0.5381  0.3505
11453TIP3    H155850   4.308   5.840  16.546  0.2451  0.1197 -0.4858
11453TIP3    H255851   4.415   5.739  16.584 -0.5295  0.0271  1.6069
11454TIP3   OH255852   5.291   2.685  16.756  0.3574  0.3045 -0.3508
11454TIP3    H155853   5.248   2.612  16.800 -1.1399  1.4793  0.2073
11454TIP3    H255854   5.329   2.737  16.827  1.0721  0.2983 -0.7149
11455TIP3   OH255855   5.285   0.107  15.763 -0.2371 -0.0956  0.5034
11455TIP3    H155856   5.277   0.152  15.679  1.2456 -1.8153 -0.6569
11455TIP3    H255857   5.291   0.177  15.828 -1.8530  1.2820 -0.7516
11456TIP3   OH255858   5.260   0.668   3.550 -0.0623 -0.1452  0.0839
11456TIP3    H155859   5.206   0.729   3.501 -1.1138 -1.3922 -0.3729
11456TIP3    H255860   5.304   0.615   3.482  1.2811  0.4506  0.4555
11457TIP3   OH255861   5.601   2.320   5.477  0.6711 -0.2756  0.6068
11457TIP3    H155862   5.573   2.234   5.445 -0.6229 -0.2374  1.5948
11457TIP3    H255863   5.646   2.359   5.402  0.0072 -1.2356 -0.3193
11458TIP3   OH255864   2.843   5.163  12.632  0.0346  0.0148 -0.1247
11458TIP3    H155865   2.866   5.190  12.543 -0.5752 -1.6506 -0.8100
11458TIP3    H255866   2.899   5.087  12.649  0.9676  0.9813  1.3762
11459TIP3   OH255867   5.213   5.383   4.680  1.0059  0.2160 -0.3788
11459TIP3    H155868   5.242   5.413   4.765  2.3387 -0.8899 -0.4110
11459TIP3    H255869   5.266   5.431   4.617 -0.2427  1.3170 -0.6350
11460TIP3   OH255870   2.655   3.995  14.036  0.5011  0.1522 -0.7024
11460TIP3    H155871   2.695   3.911  14.057 -0.0685  0.3859  1.5972
11460TIP3    H255872   2.608   3.980  13.954  0.0194 -1.9386 -0.0986
11461TIP3   OH255873   1.494   4.418  16.403 -0.6029 -0.2642  0.3149
11461TIP3    H155874   1.401   4.437  16.410 -0.8925 -1.9443  1.7900
11461TIP3    H255875   1.535   4.470  16.472 -0.0205  2.4314 -1.8912
11462TIP3   OH255876   1.250   1.690  12.643  0.3217  0.1540  0.2295
11462TIP3    H155877   1.183   1.627  12.671 -2.1265  1.5670 -2.0382
11462TIP3    H255878   1.230   1.769  12.692 -2.1070  1.6939 -2.8750
11463TIP3   OH255879   5.014   1.574   1.970 -0.1089 -0.2455  0.0993
11463TIP3    H155880   5.093   1.573   2.024  0.0291 -2.3375 -0.0710
11463TIP3    H255881   5.012   1.662   1.932  2.5052 -0.3412 -0.4499
11464TIP3   OH255882   4.226   4.461  14.969 -0.3943  0.5306 -0.2438
11464TIP3    H155883   4.229   4.392  14.903 -3.1121  1.4463 -1.4804
11464TIP3    H255884   4.289   4.526  14.937  0.0113 -0.0611 -0.6783
11465TIP3   OH255885   6.511   2.113  12.778 -0.0150  0.4636 -0.0159
11465TIP3    H155886   6.581   2.141  12.836 -0.0342 -0.3683  0.4290
11465TIP3    H255887   6.553   2.050  12.719 -0.5725 -0.8016  0.8882
11466TIP3   OH255888   0.956   5.349  13.959  0.4109  0.1447 -0.0894
11466TIP3    H155889   1.006   5.345  14.041 -0.5417 -1.1468  0.4606
11466TIP3    H255890   0.964   5.262  13.922 -0.4461  0.2704 -0.5903
11467TIP3   OH255891   2.256   1.683  14.585  0.0781 -0.0787 -0.2531
11467TIP3    H155892   2.164   1.694  14.561 -0.6623 -0.8579  1.9769
11467TIP3    H255893   2.274   1.753  14.648  1.0778  0.1906 -0.8170
11468TIP3   OH255894   5.282   0.390   0.250  0.5078  0.0221  0.0138
11468TIP3    H155895   5.234   0.378   0.169  0.4362  0.7776 -0.0639
11468TIP3    H255896   5.260   0.479   0.278 -0.5514 -0.6932  1.5754
11469TIP3   OH255897   0.647   3.838   5.551 -0.3203 -0.0005 -0.2632
11469TIP3    H155898   0.685   3.792   5.626 -0.4119  2.6838  1.5860
11469TIP3    H255899   0.720   3.850   5.490  0.5316  0.3148  0.7754
11470TIP3   OH255900   2.188   3.736   6.023 -0.3911 -0.2584 -0.2071
11470TIP3    H155901   2.096   3.739   6.000 -0.2004  2.3152 -0.9176
11470TIP3    H255902   2.228   3.682   5.955 -1.5130 -2.8673  1.0518
11471TIP3   OH255903   3.545   6.212  14.440  0.0260  0.2378 -0.0364
11471TIP3    H155904   3.577   6.272  14.372  2.3277  0.1797  0.9133
11471TIP3    H255905   3.456   6.240  14.457 -0.4704  0.5527 -2.7447
11472TIP3   OH255906   3.366   3.379  14.440  0.2113  0.6640  0.8171
11472TIP3    H155907   3.403   3.467  14.429 -1.7209  1.2394 -1.8492
11472TIP3    H255908   3.273   3.389  14.423 -0.1356 -1.8542  0.8253
11473TIP3   OH255909   4.394   5.858   1.120 -0.4298  0.6194 -0.4918
11473TIP3    H155910   4.343   5.779   1.100 -0.7994 -0.0303  2.5050
11473TIP3    H255911   4.342   5.930   1.085 -1.0206 -0.3248 -1.6400
11474TIP3   OH255912   3.922   4.451   3.054  0.4689 -0.4495 -0.0321
11474TIP3    H155913   3.829   4.439   3.037  0.3781  0.4254 -0.2092
11474TIP3    H255914   3.939   4.401   3.134 -0.5840  0.9878  1.1437
11475TIP3   OH255915   0.020   5.475   2.511 -0.1252 -0.5129 -0.1313
11475TIP3    H155916  -0.075   5.483   2.503 -0.2244 -1.3804  0.0627
11475TIP3    H255917   0.054   5.555   2.471 -0.9722  0.5682  1.2208
11476TIP3   OH255918   4.196   2.729   0.941 -0.5336  0.2377  0.6885
11476TIP3    H155919   4.144   2.650   0.957  0.3670 -0.7804 -1.0097
11476TIP3    H255920   4.285   2.703   0.967 -0.1746  0.5676 -0.1835
11477TIP3   OH255921   4.758   2.909  11.943 -0.0787  0.4762  0.0602
11477TIP3    H155922   4.844   2.897  11.904  0.0566  1.9893 -0.1460
11477TIP3    H255923   4.707   2.953  11.876 -0.8143  0.2285  0.4448
11478TIP3   OH255924   1.086   3.043  16.375  0.0066  0.1301 -0.3934
11478TIP3    H155925   1.020   3.112  16.371  0.1333  0.2939  0.1887
11478TIP3    H255926   1.149   3.065  16.307 -1.0768 -0.6041 -1.6816
11479TIP3   OH255927   1.268   3.829   5.545  0.1260  0.0491 -0.6769
11479TIP3    H155928   1.195   3.777   5.510 -1.1609  0.8950  0.6398
11479TIP3    H255929   1.233   3.918   5.552  1.1232  0.3799  0.4271
11480TIP3   OH255930   5.163   5.347   4.413  0.0413  0.4398 -1.0580
11480TIP3    H155931   5.078   5.359   4.370 -0.1327  2.8427 -0.1937
11480TIP3    H255932   5.142   5.341   4.506  0.8423  3.9043 -0.4959
11481TIP3   OH255933   0.394   3.242   2.283  0.5613 -0.4874 -0.1384
11481TIP3    H155934   0.314   3.293   2.285  0.4101 -0.5515 -2.2560
11481TIP3    H255935   0.402   3.206   2.372 -2.1034 -1.0338 -0.0287
11482TIP3   OH255936   2.566   2.140  16.435 -0.0037  0.2758 -0.4026
11482TIP3    H155937   2.640   2.198  16.419  1.1281 -1.2086 -0.6671
11482TIP3    H255938   2.536   2.115  16.347 -1.1156  1.1805 -0.3127
11483TIP3   OH255939   3.435   0.332   4.299 -0.1725  0.2216  0.4495
11483TIP3    H155940   3.530   0.321   4.304 -0.0129  0.6732 -0.9039
11483TIP3    H255941   3.405   0.330   4.390  1.1578  0.3017  0.9117
11484TIP3   OH255942   0.151   0.666  17.065 -0.2887 -0.4364 -0.6012
11484TIP3    H155943   0.150   0.571  17.054 -0.4941 -0.5979  0.5968
11484TIP3    H255944   0.183   0.700  16.982  0.1307 -1.5757 -0.9249
11485TIP3   OH255945   2.422   5.207   6.895  0.5702  0.3259 -0.3046
11485TIP3    H155946   2.352   5.141   6.890  0.4933  0.4732 -1.4514
11485TIP3    H255947   2.380   5.288   6.866  0.9431  0.6512  0.0685
11486TIP3   OH255948   3.845   1.739   4.571 -0.8264  0.1994  0.0076
11486TIP3    H155949   3.762   1.693   4.583  0.9317 -3.5216 -0.8837
11486TIP3    H255950   3.855   1.745   4.476  0.5842 -0.8055  0.0704
11487TIP3   OH255951   0.478   5.458  12.585 -0.6579 -0.1800 -0.1013
11487TIP3    H155952   0.543   5.396  12.551 -0.9322 -0.9833  0.7980
11487TIP3    H255953   0.435   5.492  12.507 -1.3480 -2.0698 -0.6175
11488TIP3   OH255954   3.016   3.024   3.021  0.4947  0.2347 -0.3613
11488TIP3    H155955   2.983   3.112   3.039  0.6265  0.2861 -0.3666
11488TIP3    H255956   2.991   3.007   2.930  0.1953  0.1421 -0.2613
11489TIP3   OH255957   1.805   6.517  10.825 -0.1079  0.1178  0.0119
11489TIP3    H155958   1.830   6.609  10.821  0.5130 -0.0478 -0.0509
11489TIP3    H255959   1.710   6.518  10.833  0.0073  0.8235  1.9107
11490TIP3   OH255960   0.529   4.002   5.206 -0.3462  0.2867 -0.3610
11490TIP3    H155961   0.573   3.918   5.193  0.3614  0.5382  0.3547
11490TIP3    H255962   0.436   3.980   5.211 -0.0715 -0.6553  1.3505
11491TIP3   OH255963   0.451   1.910  13.361  0.1958 -0.2651  0.2268
11491TIP3    H155964   0.546   1.905  13.373  0.6011 -0.6562 -2.4459
11491TIP3    H255965   0.435   2.002  13.342  0.2852 -0.4497 -0.7879
11492TIP3   OH255966   1.829   5.354  15.865  0.1797 -0.2644  0.2278
11492TIP3    H155967   1.909   5.325  15.821  0.6392  0.5562  0.5151
11492TIP3    H255968   1.815   5.289  15.934  0.3353 -0.6629 -0.1042
11493TIP3   OH255969   2.404   1.282   2.729 -0.0910  0.5521  0.2308
11493TIP3    H155970   2.317   1.246   2.746 -0.1039  0.8266  0.7703
11493TIP3    H255971   2.462   1.206   2.733 -0.3576  0.2994 -0.5828
11494TIP3   OH255972   4.640   5.863   4.756 -0.5414 -0.3317 -0.2766
11494TIP3    H155973   4.734   5.854   4.739 -0.6642 -0.1259 -1.1442
11494TIP3    H255974   4.632   5.853   4.850  0.4376  0.3489 -0.0990
11495TIP3   OH255975   6.045   6.311   1.492 -0.1576  0.1300  0.0545
11495TIP3    H155976   5.998   6.248   1.437  1.0473 -1.0983  0.3699
11495TIP3    H255977   6.104   6.356   1.432  1.0050 -1.0625  0.2501
11496TIP3   OH255978   1.091   5.848  12.398 -0.8898  0.2010 -0.0729
11496TIP3    H155979   1.111   5.874  12.488 -0.3828 -0.6312  0.0708
11496TIP3    H255980   1.157   5.892  12.344 -0.9126  0.3358  0.0095
11497TIP3   OH255981   4.773   3.414  13.683 -0.0961 -0.0144  0.2778
11497TIP3    H155982   4.790   3.353  13.611  1.7512  0.6301  0.0981
11497TIP3    H255983   4.737   3.492  13.642  0.4595  0.1518  0.0894
11498TIP3   OH255984   5.589   1.152   2.344  0.1075 -0.5155  0.3472
11498TIP3    H155985   5.657   1.123   2.282 -1.1880 -1.2294 -0.7929
11498TIP3    H255986   5.607   1.102   2.424  1.0999 -0.4654  0.1640
11499TIP3   OH255987   1.308   0.840  13.294 -0.2066  0.8295  0.2759
11499TIP3    H155988   1.305   0.746  13.311 -2.2384  1.0024  1.2472
11499TIP3    H255989   1.273   0.848  13.205  0.5272  0.6508 -0.0396
11500TIP3   OH255990   6.161   0.442   4.252  0.0288 -0.4708  0.7175
11500TIP3    H155991   6.117   0.508   4.306 -0.2642 -0.7963  0.8784
11500TIP3    H255992   6.243   0.424   4.297  0.8892  0.9792 -0.1717
11501TIP3   OH255993   0.654   5.966  17.256 -0.4334 -0.0210 -0.4913
11501TIP3    H155994   0.694   5.946  17.171 -1.1639  1.7857 -1.3087
11501TIP3    H255995   0.612   6.051  17.244  0.5241  0.9254  2.0572
11502TIP3   OH255996   6.208   2.894  11.240 -0.3872  0.3509 -0.1684
11502TIP3    H155997   6.212   2.886  11.336 -1.0624 -0.9083 -0.2247
11502TIP3    H255998   6.211   2.988  11.224  0.9160  0.5425  1.0301
11503TIP3   OH255999   3.172   3.796   0.608  0.2416  0.2818  0.2457
11503TIP3    H156000   3.133   3.715   0.575  0.5623  0.0275  0.4883
11503TIP3    H256001   3.204   3.774   0.695  0.0475  0.7561  0.4409
11504TIP3   OH256002   0.111   6.645  14.139 -0.3247  0.0704  0.0063
11504TIP3    H156003   0.152   6.729  14.159 -0.3186 -0.2378  1.3703
11504TIP3    H256004   0.019   6.665  14.124 -0.4213  0.2647  0.8247
11505TIP3   OH256005   6.791   6.114  17.209  0.0792  0.4263  0.1273
11505TIP3    H156006   6.773   6.206  17.230  1.8511  1.9056 -3.7261
11505TIP3    H256007   6.712   6.083  17.165 -0.8715 -0.3130  2.2257
11506TIP3   OH256008   2.596   0.265  12.283 -0.4668  0.5386 -0.2544
11506TIP3    H156009   2.631   0.205  12.349 -2.1245  0.4715  0.6370
11506TIP3    H256010   2.520   0.219  12.247 -0.4038  1.1670 -1.2111
11507TIP3   OH256011   1.582   3.475  17.339  0.4462 -0.6653  0.3609
11507TIP3    H156012   1.618   3.391  17.310  2.5995  0.5742 -0.7891
11507TIP3    H256013   1.546   3.514  17.259  0.4805 -0.0199  0.6597
11508TIP3   OH256014   2.108   6.206  11.559  0.0066 -0.4612 -0.2463
11508TIP3    H156015   2.019   6.234  11.538 -0.2157  1.0500  2.2994
11508TIP3    H256016   2.096   6.140  11.628  0.8502  0.1252  0.4751
11509TIP3   OH256017   1.385   5.857  12.822  0.0793 -0.5803  0.0427
11509TIP3    H156018   1.432   5.881  12.743 -1.3510  0.5724 -0.5084
11509TIP3    H256019   1.326   5.787  12.795 -1.1919  0.5463 -0.2267
11510TIP3   OH256020   5.827   1.545  12.222 -0.1000 -0.4208  0.7825
11510TIP3    H156021   5.737   1.576  12.220 -0.0054 -0.1806 -0.7420
11510TIP3    H256022   5.869   1.596  12.292 -1.3312 -1.1631  2.1150
11511TIP3   OH256023   1.281   2.385   1.683 -0.1337  0.6179  0.1931
11511TIP3    H156024   1.370   2.378   1.647 -0.1861  0.0651  0.1729
11511TIP3    H256025   1.245   2.464   1.641 -0.2209 -0.0465 -1.0364
11512TIP3   OH256026   1.713   2.160  13.473  0.5137 -0.5902 -0.0236
11512TIP3    H156027   1.791   2.162  13.418  0.1205  0.4670 -0.5915
11512TIP3    H256028   1.709   2.248  13.512 -0.8485 -0.3111 -0.7123
11513TIP3   OH256029   3.482   3.253  17.012 -0.1026  0.2433 -0.4367
11513TIP3    H156030   3.469   3.195  16.938  1.9691 -0.1247 -0.5642
11513TIP3    H256031   3.568   3.292  16.998 -1.3519  3.2800 -0.2787
11514TIP3   OH256032   5.778   1.015   6.294  0.5611  0.4401  0.1680
11514TIP3    H156033   5.866   1.029   6.259 -0.1002 -1.0271 -2.2497
11514TIP3    H256034   5.787   0.937   6.350  0.4990 -0.8663 -1.5612
11515TIP3   OH256035   0.584   2.904  11.917 -0.0171  0.2066  0.4037
11515TIP3    H156036   0.614   2.943  11.835 -2.7743  0.5407 -0.5450
11515TIP3    H256037   0.495   2.936  11.928 -1.0133 -2.6679  1.6801
11516TIP3   OH256038   0.554   2.245   3.079 -0.1413  1.0158  0.2661
11516TIP3    H156039   0.598   2.321   3.041  1.4083  0.6181  1.1661
11516TIP3    H256040   0.623   2.179   3.088 -1.2478 -0.1723  0.3969
11517TIP3   OH256041   5.508   4.332   2.956 -0.0745 -0.4110 -0.2425
11517TIP3    H156042   5.558   4.276   3.016  1.0649 -1.4512 -2.0359
11517TIP3    H256043   5.570   4.401   2.931 -0.0328 -0.7994 -1.2665
11518TIP3   OH256044   0.176   3.367  11.922 -0.2804 -0.1866 -0.4186
11518TIP3    H156045   0.164   3.276  11.894  0.3325 -0.2467 -0.5207
11518TIP3    H256046   0.142   3.369  12.012  0.1260 -0.6366 -0.2489
11519TIP3   OH256047   0.770   0.151   1.809  0.6573 -0.4182 -0.2948
11519TIP3    H156048   0.804   0.144   1.898  0.6445 -0.5068 -0.2961
11519TIP3    H256049   0.845   0.174   1.756  0.4667  0.7102 -0.1092
11520TIP3   OH256050   3.011   2.071   2.975 -0.2700  0.0126 -0.2485
11520TIP3    H156051   2.922   2.093   3.003 -0.0172 -0.4504  1.0016
11520TIP3    H256052   3.057   2.155   2.971 -0.8325  0.2867 -1.2210
11521TIP3   OH256053   1.950   4.426  14.590  0.2224  0.3438  0.0231
11521TIP3    H156054   2.037   4.466  14.584  0.0767  0.5667 -0.6608
11521TIP3    H256055   1.967   4.333  14.573  0.2401  0.4958 -0.8561
11522TIP3   OH256056   3.284   0.634  12.817  0.7411 -0.1858  0.0476
11522TIP3    H156057   3.357   0.680  12.859  1.7067 -0.9178 -0.7800
11522TIP3    H256058   3.255   0.570  12.882  0.2613  0.6774  0.7022
11523TIP3   OH256059   2.901   4.362   3.926 -0.5979  0.1846 -0.0010
11523TIP3    H156060   2.888   4.294   3.992  4.0853 -0.3121  0.7847
11523TIP3    H256061   2.916   4.442   3.977  1.7208  0.0682 -0.3803
11524TIP3   OH256062   6.771   3.417  14.070 -0.0849  0.3181 -0.0708
11524TIP3    H156063   6.764   3.447  13.980  1.5350 -0.2708 -0.4316
11524TIP3    H256064   6.763   3.322  14.065  1.4179  0.1441  0.1879
11525TIP3   OH256065   4.685   5.959  15.901  0.1568  0.0981  0.5902
11525TIP3    H156066   4.704   6.050  15.878  0.2390 -0.2091 -0.6220
11525TIP3    H256067   4.763   5.930  15.947  0.2246  0.5675  0.7849
11526TIP3   OH256068   3.454   1.774  16.397 -0.0557 -0.0485 -0.2791
11526TIP3    H156069   3.409   1.757  16.480  0.6647 -1.4560 -0.1560
11526TIP3    H256070   3.442   1.694  16.347  2.0814 -0.3731 -0.3402
11527TIP3   OH256071   3.292   6.431  16.071  0.2587  0.4813  0.2829
11527TIP3    H156072   3.341   6.472  16.142 -1.1107 -0.9147  2.1703
11527TIP3    H256073   3.206   6.412  16.109 -0.2735 -1.0605 -1.5093
11528TIP3   OH256074   0.242   1.087  15.311  0.4520 -0.4936  0.2170
11528TIP3    H156075   0.305   1.101  15.240  0.5339 -2.8675 -0.2637
11528TIP3    H256076   0.280   1.015  15.362 -0.7666 -0.4177  1.2771
11529TIP3   OH256077   6.735   3.649   4.303 -0.5142 -0.4316  0.0262
11529TIP3    H156078   6.690   3.677   4.223 -0.7064 -0.1844  0.2189
11529TIP3    H256079   6.746   3.730   4.353  2.0350 -0.0953 -0.9384
11530TIP3   OH256080   0.376   6.003  13.448  0.6447 -0.3447  0.0779
11530TIP3    H156081   0.453   5.948  13.435  0.7772 -0.4550  1.2765
11530TIP3    H256082   0.362   6.044  13.362 -0.1980 -3.1216 -1.2517
11531TIP3   OH256083   5.821   6.576   3.848 -0.3424 -0.7181  0.6694
11531TIP3    H156084   5.727   6.589   3.839 -0.8963 -2.5802  2.7911
11531TIP3    H256085   5.849   6.643   3.910  0.3225  1.5140 -1.8721
11532TIP3   OH256086   1.333   2.711   6.416  0.5043 -0.1555 -0.0273
11532TIP3    H156087   1.272   2.692   6.346  0.2105 -0.0240  0.1905
11532TIP3    H256088   1.407   2.755   6.373  0.0632  0.4633 -0.1742
11533TIP3   OH256089   5.112   1.136   3.117  0.6924 -0.0420  0.2369
11533TIP3    H156090   5.119   1.228   3.091 -0.2340 -0.2312 -0.7810
11533TIP3    H256091   5.157   1.088   3.048  0.7990 -0.3748  0.5389
11534TIP3   OH256092   1.221   5.522  17.027 -0.5625 -0.8748  0.0130
11534TIP3    H156093   1.127   5.541  17.019 -0.4917 -0.2249  0.6626
11534TIP3    H256094   1.257   5.598  17.072  0.8669  0.5009 -3.1425
11535TIP3   OH256095   0.718   5.051   0.516  0.2168 -0.0220  0.0044
11535TIP3    H156096   0.746   5.121   0.457  0.2323  0.7693  0.9171
11535TIP3    H256097   0.788   4.987   0.513  0.3919  0.1912 -0.5414
11536TIP3   OH256098   3.194   4.811  13.002  0.3913  0.0614  0.5148
11536TIP3    H156099   3.158   4.882  13.054  0.9289  0.6036  0.1529
11536TIP3    H256100   3.118   4.768  12.964  0.0874  0.8770  0.1760
11537TIP3   OH256101   6.587   1.995  10.947 -0.2479 -0.2200  0.0490
11537TIP3    H156102   6.522   1.950  10.894  0.1237  0.1835 -0.7661
11537TIP3    H256103   6.667   1.993  10.895 -0.4636  2.2606 -0.5017
11538TIP3   OH256104   3.393   0.165  15.478 -0.1552 -0.4765  0.0617
11538TIP3    H156105   3.467   0.198  15.427 -0.9753  1.1042 -0.1714
11538TIP3    H256106   3.364   0.087  15.431  1.1099 -0.9188 -0.0371
11539TIP3   OH256107   2.317   0.594   2.065 -0.3504 -0.0908 -0.5447
11539TIP3    H156108   2.363   0.644   1.997 -0.3874  0.4919 -0.1517
11539TIP3    H256109   2.276   0.521   2.018 -0.7083  0.5244 -1.2133
11540TIP3   OH256110   5.749   4.315  11.543  1.0653 -0.4827  0.1113
11540TIP3    H156111   5.665   4.344  11.509  0.1179 -1.7645  1.2616
11540TIP3    H256112   5.798   4.396  11.559 -0.1485  0.3077 -0.0477
11541TIP3   OH256113   0.791   2.209   5.101  0.1892  0.7951 -0.0997
11541TIP3    H156114   0.710   2.182   5.144  0.9947 -0.8094  0.4643
11541TIP3    H256115   0.859   2.156   5.141  1.4353  1.6002 -1.0702
11542TIP3   OH256116   6.732   1.700   5.577  0.2227 -0.1329 -0.1631
11542TIP3    H156117   6.762   1.626   5.629  0.3489 -0.4270 -0.6558
11542TIP3    H256118   6.649   1.670   5.539 -0.4843  0.5018  0.8107
11543TIP3   OH256119   4.623   1.870   0.813  0.0355 -0.2464 -0.0666
11543TIP3    H156120   4.665   1.817   0.881 -1.5294 -0.4726  0.7562
11543TIP3    H256121   4.580   1.941   0.860  2.0766  1.8408 -1.1507
11544TIP3   OH256122   2.134   1.763  15.201  0.3514 -0.5564 -0.6869
11544TIP3    H156123   2.104   1.814  15.126  0.1758 -1.1934 -1.0615
11544TIP3    H256124   2.166   1.828  15.264 -0.0094  0.0159 -1.0871
11545TIP3   OH256125   2.378   4.392  11.416 -0.4253  0.3980  0.5521
11545TIP3    H156126   2.456   4.410  11.469 -0.7508  1.9686  0.5467
11545TIP3    H256127   2.377   4.461  11.351 -1.8627  0.4446  0.5940
11546TIP3   OH256128   1.572   6.306  13.889  0.2491 -0.3652  0.0264
11546TIP3    H156129   1.573   6.210  13.884 -1.8608 -0.4223 -0.4918
11546TIP3    H256130   1.480   6.328  13.905  0.6060  1.5959 -0.3613
11547TIP3   OH256131   6.641   2.836   5.000  0.3699 -0.5864  0.2925
11547TIP3    H156132   6.619   2.920   5.039 -0.3236 -0.8709  0.5314
11547TIP3    H256133   6.735   2.842   4.980  0.0685  0.6760 -0.8305
11548TIP3   OH256134   1.403   1.225  11.279  0.8149  0.3381  0.3448
11548TIP3    H156135   1.466   1.294  11.260 -0.4922  1.5617  0.2505
11548TIP3    H256136   1.429   1.191  11.365  2.1227  0.1685 -0.0952
11549TIP3   OH256137   6.339   0.690   1.580 -0.4502  0.0767  0.5173
11549TIP3    H156138   6.407   0.707   1.514 -1.5313 -2.7993 -1.5674
11549TIP3    H256139   6.299   0.775   1.596  1.6327  1.3351 -0.4809
11550TIP3   OH256140   0.404   0.201   4.446 -0.2745 -0.1219  0.0636
11550TIP3    H156141   0.389   0.221   4.538 -1.5906 -0.2534 -0.1111
11550TIP3    H256142   0.358   0.271   4.399 -1.5534 -1.3213 -0.5131
11551TIP3   OH256143   6.501   5.844  12.298 -0.0520 -0.0558  0.2825
11551TIP3    H156144   6.463   5.920  12.254  0.7665 -0.4254 -1.1159
11551TIP3    H256145   6.517   5.874  12.388 -2.1946  0.5655  0.5092
11552TIP3   OH256146   1.844   0.796  13.329 -0.4352  0.6762  0.7149
11552TIP3    H156147   1.921   0.759  13.372  0.2695  0.3702 -0.7587
11552TIP3    H256148   1.802   0.722  13.287 -0.1378  1.2057 -0.5617
11553TIP3   OH256149   3.389   5.211   4.985 -0.2202 -0.0622  0.0972
11553TIP3    H156150   3.350   5.259   5.058 -0.8362  2.3435 -1.7110
11553TIP3    H256151   3.315   5.187   4.930  0.4406  0.3491 -0.9949
11554TIP3   OH256152   3.926   1.163   0.692  0.3403 -0.0001  0.0253
11554TIP3    H156153   3.964   1.220   0.626 -2.2204  1.8426 -0.0270
11554TIP3    H256154   3.972   1.186   0.773  3.0625 -1.8347 -0.8648
11555TIP3   OH256155   1.275   0.008  12.296 -0.1623 -0.0389 -0.4207
11555TIP3    H156156   1.302  -0.075  12.337  2.8568  1.8316  1.8053
11555TIP3    H256157   1.344   0.025  12.232 -1.2492  0.3651 -1.5051
11556TIP3   OH256158   5.248   3.182  16.393 -0.0323 -0.0343 -0.3344
11556TIP3    H156159   5.316   3.192  16.326 -1.2504 -2.3998 -2.0296
11556TIP3    H256160   5.295   3.148  16.469  0.9637  0.0690 -0.8868
11557TIP3   OH256161   3.059   6.138   4.188 -0.1920 -0.1152 -0.1424
11557TIP3    H156162   3.127   6.084   4.228 -0.1221 -0.9514 -1.3309
11557TIP3    H256163   3.022   6.188   4.260  1.4122  0.0605  0.6061
11558TIP3   OH256164   5.200   4.172  16.551  0.0772  0.4703 -0.0422
11558TIP3    H156165   5.141   4.204  16.483 -0.2223 -0.3299 -0.1654
11558TIP3    H256166   5.250   4.103  16.509  2.2952  2.1961 -0.4255
11559TIP3   OH256167   4.744   6.288  12.860  0.4769 -0.4265 -0.3041
11559TIP3    H156168   4.811   6.255  12.919 -0.5178  0.1833  1.2413
11559TIP3    H256169   4.731   6.218  12.796  3.1212 -0.2342 -1.1598
11560TIP3   OH256170   3.149   2.384  16.159  0.3311 -0.3155 -0.1125
11560TIP3    H156171   3.185   2.442  16.091 -0.5023 -0.6938 -0.8912
11560TIP3    H256172   3.054   2.387  16.146  0.2025 -0.9490  0.5876
11561TIP3   OH256173   0.649   6.795  17.089 -0.3069 -0.0961  0.3269
11561TIP3    H156174   0.619   6.710  17.056  0.6665  0.7286 -3.1050
11561TIP3    H256175   0.705   6.829  17.019  0.8822  2.5585  2.4110
11562TIP3   OH256176   1.598   3.128  12.346  0.4325 -0.4711  0.5309
11562TIP3    H156177   1.524   3.152  12.402  1.0860 -1.4899  1.9051
11562TIP3    H256178   1.671   3.179  12.381  1.0552 -1.8067  1.2567
11563TIP3   OH256179   4.712   0.722  14.739  0.1144  0.5208  0.0560
11563TIP3    H156180   4.629   0.769  14.737  0.4171  1.2548  2.3003
11563TIP3    H256181   4.741   0.726  14.830  1.1914 -2.2633 -0.0398
11564TIP3   OH256182   2.900   5.076   5.145 -0.1859 -0.1886  0.5769
11564TIP3    H156183   2.885   5.141   5.076 -0.7084 -1.7390 -0.8708
11564TIP3    H256184   2.821   5.021   5.143  0.2554 -0.9017  1.7059
11565TIP3   OH256185   3.819   1.826  17.344 -0.1241 -0.0327  0.8053
11565TIP3    H156186   3.725   1.844  17.353 -0.0372  0.8304  0.0794
11565TIP3    H256187   3.832   1.815  17.250 -0.0624 -3.4229  1.0780
11566TIP3   OH256188   6.716   0.277   4.024  1.1116 -0.7794 -0.0332
11566TIP3    H156189   6.640   0.266   4.082 -0.9037  2.6706 -1.6736
11566TIP3    H256190   6.696   0.222   3.948 -1.0485  1.6503 -1.4061
11567TIP3   OH256191   3.795   1.464   2.542  0.6409 -0.2736  0.5051
11567TIP3    H156192   3.873   1.416   2.571 -0.4289 -1.9575  0.7520
11567TIP3    H256193   3.755   1.407   2.476  0.0631  0.9607 -0.2404
11568TIP3   OH256194   3.411   0.498  12.015 -0.0176  0.5130 -0.2648
11568TIP3    H156195   3.376   0.431  12.074 -0.0064 -0.0708 -0.9037
11568TIP3    H256196   3.352   0.573  12.026  0.2674  0.5901  0.8350
11569TIP3   OH256197   1.735   1.571   2.509  0.5920  0.4836 -0.7235
11569TIP3    H156198   1.724   1.589   2.602 -0.3841  1.1796 -0.9509
11569TIP3    H256199   1.748   1.477   2.504  0.5607  0.4267  0.1046
11570TIP3   OH256200   5.030   0.089  13.452 -0.4459 -0.3004  0.5359
11570TIP3    H156201   5.003  -0.002  13.465  0.2434 -0.4606  0.8907
11570TIP3    H256202   5.028   0.127  13.540 -2.6771  0.6024  0.1555
11571TIP3   OH256203   2.638   4.273   4.718  0.3424  0.0065  0.1675
11571TIP3    H156204   2.568   4.322   4.761  1.2995 -0.2412  2.0901
11571TIP3    H256205   2.635   4.302   4.627 -2.1837  0.0627  0.2005
11572TIP3   OH256206   1.842   2.580  11.130 -0.3440  0.1546  0.5013
11572TIP3    H156207   1.779   2.530  11.078 -1.5077  0.0330  1.9483
11572TIP3    H256208   1.927   2.538  11.113 -0.3744  1.0992 -2.4725
11573TIP3   OH256209   3.533   2.340   1.545 -0.0438 -0.0008 -0.4823
11573TIP3    H156210   3.455   2.357   1.598  1.4075  0.9946  1.4331
11573TIP3    H256211   3.558   2.250   1.566  0.5014  0.3764  0.5369
11574TIP3   OH256212   6.062   6.107   5.474 -0.2981  0.1018  0.3903
11574TIP3    H156213   6.008   6.109   5.396  0.5467 -0.3055 -0.2197
11574TIP3    H256214   6.090   6.197   5.487 -1.4959  0.4051  0.9926
11575TIP3   OH256215   4.254   6.606   3.487 -0.1132  0.0419  0.4486
11575TIP3    H156216   4.288   6.615   3.398 -0.5888 -2.6321 -0.0767
11575TIP3    H256217   4.187   6.673   3.494  0.6080  0.9458 -0.8382
11576TIP3   OH256218   1.859   0.859  13.665  0.0468 -0.5796  0.4047
11576TIP3    H156219   1.918   0.852  13.590 -0.9167  1.0720 -0.5760
11576TIP3    H256220   1.915   0.887  13.737  0.6234  0.1502 -0.3035
11577TIP3   OH256221   0.188   1.744  14.384  0.0008 -0.1160 -0.3662
11577TIP3    H156222   0.255   1.718  14.447 -0.3474 -0.8845 -0.3034
11577TIP3    H256223   0.128   1.799  14.435 -0.1302 -0.5094 -0.0955
11578TIP3   OH256224   1.018   6.130   5.524 -0.2087 -0.1505  0.0204
11578TIP3    H156225   0.943   6.076   5.547 -0.8198  0.6546 -0.0596
11578TIP3    H256226   1.000   6.216   5.562  0.1792  0.3428 -0.8562
11579TIP3   OH256227   6.678   4.337   1.813 -0.0596 -0.0442  0.0302
11579TIP3    H156228   6.739   4.293   1.753 -0.7591  0.5791 -1.1752
11579TIP3    H256229   6.618   4.268   1.841  1.4308 -0.7613  1.5831
11580TIP3   OH256230   4.387   4.937  13.319 -0.1391 -0.0372 -0.1462
11580TIP3    H156231   4.361   4.994  13.392  1.0616  0.0772  0.2146
11580TIP3    H256232   4.311   4.937  13.261 -0.5778  1.0408  0.3951
11581TIP3   OH256233   3.867   5.515   3.790 -0.3048 -0.0146  0.0239
11581TIP3    H156234   3.803   5.547   3.726 -1.3789 -0.5548  0.8040
11581TIP3    H256235   3.815   5.491   3.866  1.0872  2.3611  1.8711
11582TIP3   OH256236   0.161   0.103  11.117 -0.4267  0.8523  0.1828
11582TIP3    H156237   0.070   0.127  11.097 -0.0460  2.0381 -0.1769
11582TIP3    H256238   0.212   0.180  11.094  0.6031  0.4632  1.0857
11583TIP3   OH256239   5.648   0.794   1.321 -0.6114 -0.7344  0.4261
11583TIP3    H156240   5.709   0.801   1.394 -0.2384 -0.0204  0.0625
11583TIP3    H256241   5.644   0.883   1.285 -1.0572 -1.0020 -0.2088
11584TIP3   OH256242   6.334   4.391   5.693  0.0722  0.3370 -0.7787
11584TIP3    H156243   6.310   4.416   5.782  0.9266 -0.0525 -0.4368
11584TIP3    H256244   6.289   4.307   5.679  0.1276  0.2817 -0.6271
11585TIP3   OH256245   6.187   4.100   4.861 -0.1221 -0.1125  0.1273
11585TIP3    H156246   6.247   4.107   4.935  0.1883 -1.9914  0.0973
11585TIP3    H256247   6.106   4.067   4.899 -0.2392 -0.2526 -0.2402
11586TIP3   OH256248   4.800   3.243  11.233 -0.5867  0.5357  0.0819
11586TIP3    H156249   4.782   3.335  11.213  0.9690  0.5161 -1.6359
11586TIP3    H256250   4.856   3.246  11.311 -1.1702  0.9848  0.4945
11587TIP3   OH256251   1.427   5.104   5.277 -0.0381  0.3759  0.4963
11587TIP3    H156252   1.518   5.079   5.296  1.2155  1.0417 -3.6275
11587TIP3    H256253   1.419   5.193   5.310  1.0538  0.5790  0.2377
11588TIP3   OH256254   3.327   4.042   2.862 -0.7627 -0.3527 -0.3817
11588TIP3    H156255   3.312   4.033   2.767  2.9975  0.4847 -1.2184
11588TIP3    H256256   3.341   4.136   2.875 -1.7927 -0.3749  1.1807
11589TIP3   OH256257   0.316   0.496   3.531 -0.2579 -0.0941 -0.5324
11589TIP3    H156258   0.409   0.516   3.525 -0.5802  1.1059 -1.9015
11589TIP3    H256259   0.288   0.482   3.441 -1.3882 -0.5804 -0.1328
11590TIP3   OH256260   5.302   0.389   0.971  0.1113 -0.0745 -0.0304
11590TIP3    H156261   5.325   0.373   1.063 -1.3131  2.0695  0.7751
11590TIP3    H256262   5.367   0.340   0.922  0.5788 -1.7549  2.1127
11591TIP3   OH256263   6.196   0.153   4.792 -0.1113  0.1014 -0.0644
11591TIP3    H156264   6.217   0.078   4.848 -0.8250  0.5764  0.8687
11591TIP3    H256265   6.136   0.206   4.844 -0.7800  0.5825 -1.2732
11592TIP3   OH256266   5.427   0.069  16.228 -0.1070 -0.2603 -0.5987
11592TIP3    H156267   5.332   0.056  16.221 -0.0953 -0.1669 -0.9573
11592TIP3    H256268   5.462   0.034  16.146  0.3762 -2.2189  0.3840
11593TIP3   OH256269   2.084   4.623  17.385  0.5569  0.4041 -0.4179
11593TIP3    H156270   2.059   4.672  17.463 -0.9937  0.4579 -0.9074
11593TIP3    H256271   2.016   4.556  17.375  2.0054 -1.1332 -0.4144
11594TIP3   OH256272   1.995   1.653   1.668  0.1421  0.4887 -0.0587
11594TIP3    H156273   2.018   1.692   1.584 -0.8849  0.7807 -0.2154
11594TIP3    H256274   1.899   1.651   1.668  0.1497 -1.2650  0.2920
11595TIP3   OH256275   4.232   1.723   2.766 -0.2744  0.3403  0.1310
11595TIP3    H156276   4.196   1.678   2.689  0.6315  0.3423 -0.3115
11595TIP3    H256277   4.265   1.806   2.732  0.7064  0.0706  0.3937
11596TIP3   OH256278   3.718   2.517  11.438  0.2546  0.1266  0.2463
11596TIP3    H156279   3.702   2.438  11.489 -1.0784  0.6627  0.7233
11596TIP3    H256280   3.808   2.509  11.407  0.5210 -1.0201  1.2545
11597TIP3   OH256281   2.256   3.118   1.002  0.1122 -0.4429  0.4334
11597TIP3    H156282   2.178   3.173   1.010 -0.8117 -1.5947 -0.1317
11597TIP3    H256283   2.306   3.135   1.082  0.0742  1.4805  0.0868
11598TIP3   OH256284   0.944   2.687  11.000 -0.3444  0.2363  0.6291
11598TIP3    H156285   1.036   2.662  11.010 -0.2582  0.6276  0.8296
11598TIP3    H256286   0.931   2.758  11.063 -0.8023  0.1393  0.6492
11599TIP3   OH256287   4.339   2.253   3.006 -0.0898 -0.3202  0.1204
11599TIP3    H156288   4.372   2.169   3.037  0.7144  0.6191  1.9795
11599TIP3    H256289   4.251   2.234   2.973  0.2696 -1.9526  0.0446
11600TIP3   OH256290   1.978   3.598  16.180  0.5621 -0.0078 -0.2830
11600TIP3    H156291   1.896   3.618  16.134  0.5291  2.6566  0.7511
11600TIP3    H256292   2.031   3.677  16.169  2.2710 -0.9784  0.6239
11601TIP3   OH256293   0.069   6.314   5.023  0.0820  0.1506 -0.2299
11601TIP3    H156294   0.022   6.366   4.958 -1.6454 -1.4407 -0.3490
11601TIP3    H256295   0.059   6.362   5.105 -0.2438  0.7122 -0.5910
11602TIP3   OH256296   6.112   5.052   2.802  0.5317  0.0085 -0.3260
11602TIP3    H156297   6.045   5.089   2.860  0.8711  1.0883 -0.6016
11602TIP3    H256298   6.131   4.966   2.840 -0.2386  0.1249  0.3673
11603TIP3   OH256299   3.309   4.090  16.205 -0.2818  0.0798  0.4208
11603TIP3    H156300   3.302   4.182  16.228  0.0456 -0.2261  1.8116
11603TIP3    H256301   3.329   4.046  16.287 -1.6822 -1.4006  0.0236
11604TIP3   OH256302   3.644   5.929   2.393 -0.4408 -0.0135  0.1881
11604TIP3    H156303   3.667   5.852   2.341 -0.4402 -0.5991  1.0313
11604TIP3    H256304   3.726   5.955   2.435 -0.1002  1.3717 -1.2338
11605TIP3   OH256305   3.882   5.317  13.835  0.0054 -0.0781 -0.3479
11605TIP3    H156306   3.882   5.412  13.833  0.1683 -0.0822 -1.8181
11605TIP3    H256307   3.850   5.294  13.922  1.2574  1.3133  0.5042
11606TIP3   OH256308   4.276   5.635  16.159 -0.4944 -0.7562  0.6082
11606TIP3    H156309   4.350   5.575  16.151 -1.0661 -1.4328  0.3683
11606TIP3    H256310   4.201   5.580  16.181 -1.2924 -0.3066 -0.8560
11607TIP3   OH256311   1.236   0.078   0.726  0.5587 -0.3777 -1.0787
11607TIP3    H156312   1.319   0.070   0.679  1.3481 -0.9087  0.3118
11607TIP3    H256313   1.236   0.168   0.759  1.3244 -0.7765  0.1255
11608TIP3   OH256314   6.154   2.493  11.808  0.2646 -0.7660  0.2163
11608TIP3    H156315   6.242   2.482  11.845  1.1098 -1.3947 -1.8678
11608TIP3    H256316   6.120   2.404  11.801  0.6055 -0.7860 -1.5568
11609TIP3   OH256317   1.390   6.014  14.430  0.5615 -0.0942  0.2007
11609TIP3    H156318   1.477   5.992  14.395  0.2354 -0.0314 -0.6608
11609TIP3    H256319   1.337   6.034  14.353  0.0138  0.7396  0.7808
11610TIP3   OH256320   5.762   2.517   3.799 -0.2853  0.2009 -0.2742
11610TIP3    H156321   5.669   2.496   3.802  0.0114 -1.0802  1.3571
11610TIP3    H256322   5.792   2.483   3.715 -1.0175 -0.6539 -0.2020
11611TIP3   OH256323   2.973   3.876  12.320  0.2868 -0.3912  0.1706
11611TIP3    H156324   2.889   3.922  12.326 -0.5303 -1.9038  0.9693
11611TIP3    H256325   2.952   3.794  12.277  1.0702 -1.3983  1.6256
11612TIP3   OH256326   0.436   5.915   5.683  0.6090  0.2233  0.0895
11612TIP3    H156327   0.383   5.902   5.762  0.1644  1.8274  0.0908
11612TIP3    H256328   0.526   5.901   5.713  0.5187  1.6077  1.1041
11613TIP3   OH256329   1.929   1.862  15.534 -0.0129 -0.1857 -0.0377
11613TIP3    H156330   1.958   1.861  15.625  3.6002 -1.6516 -1.0576
11613TIP3    H256331   1.962   1.946  15.499 -1.8431  0.6224  0.0431
11614TIP3   OH256332   1.650   0.364   2.901 -0.3855  0.1705 -0.3860
11614TIP3    H156333   1.651   0.329   2.812  0.9720 -1.9980  0.4035
11614TIP3    H256334   1.729   0.417   2.907 -0.5541  0.4390 -0.4936
11615TIP3   OH256335   6.690   1.403  13.735 -0.1718  0.9436  0.2525
11615TIP3    H156336   6.601   1.368  13.742  0.7185 -1.3541  0.8034
11615TIP3    H256337   6.717   1.416  13.826 -0.8868  4.4401  0.1089
11616TIP3   OH256338   0.777   6.670  14.046  0.1031  0.0633  0.2139
11616TIP3    H156339   0.816   6.737  13.990 -0.9311  1.2358  0.8474
11616TIP3    H256340   0.849   6.639  14.101  0.9825 -0.6236 -1.2676
11617TIP3   OH256341   4.665   1.409   5.383  0.3753  0.4525 -0.0497
11617TIP3    H156342   4.729   1.398   5.313  0.0621 -0.0099 -0.2679
11617TIP3    H256343   4.695   1.351   5.453  1.0612  1.4107  0.4813
11618TIP3   OH256344   5.811   5.131   1.191  0.3390 -0.5189  0.0825
11618TIP3    H156345   5.800   5.164   1.281  0.7277 -0.2199  0.0230
11618TIP3    H256346   5.731   5.159   1.146 -0.1504 -1.2241  0.4931
11619TIP3   OH256347   1.361   2.769   0.077 -0.0069  0.4732  0.5258
11619TIP3    H156348   1.302   2.793   0.006 -0.4093  0.4305  0.8412
11619TIP3    H256349   1.311   2.786   0.157  0.3067  0.1804  0.7901
11620TIP3   OH256350   1.342   3.121   6.103 -0.5308 -0.3155  0.0035
11620TIP3    H156351   1.248   3.136   6.118 -0.2685  0.3450  1.0926
11620TIP3    H256352   1.382   3.136   6.189  0.9011  2.0470 -0.9776
11621TIP3   OH256353   6.453   4.331  17.287 -0.0786 -0.6490 -0.0052
11621TIP3    H156354   6.532   4.344  17.340  0.7834 -2.4495 -0.7723
11621TIP3    H256355   6.447   4.237  17.276 -0.4486 -0.3744 -2.7801
11622TIP3   OH256356   5.758   5.415  14.395  0.3314  0.4730 -0.5448
11622TIP3    H156357   5.821   5.450  14.458 -1.0927 -0.5940  1.6218
11622TIP3    H256358   5.724   5.336  14.438 -1.1365  0.0121 -2.4482
11623TIP3   OH256359   0.135   4.368  16.382 -0.0836 -0.7147 -0.0958
11623TIP3    H156360   0.117   4.367  16.288  1.3134 -0.5494 -0.3803
11623TIP3    H256361   0.051   4.393  16.422 -0.6187 -0.4985 -1.3000
11624TIP3   OH256362   2.235   0.614   3.936  0.2066  0.5926 -0.4953
11624TIP3    H156363   2.326   0.584   3.938 -0.7418 -2.5889 -0.2764
11624TIP3    H256364   2.215   0.623   3.843  0.3889  0.1036 -0.5830
11625TIP3   OH256365   2.254   2.086   3.871  0.5679  0.2495 -0.2219
11625TIP3    H156366   2.244   2.039   3.788  0.3070  0.3413 -0.2428
11625TIP3    H256367   2.336   2.052   3.908 -0.1853 -1.0668  0.3032
11626TIP3   OH256368   4.403   3.382  16.647  0.0296 -0.3185 -0.5578
11626TIP3    H156369   4.324   3.392  16.700 -0.3185  0.3011 -1.1793
11626TIP3    H256370   4.405   3.460  16.592  1.7171  0.2864  0.2716
11627TIP3   OH256371   2.412   5.431   0.680 -0.5576 -0.0797 -0.6712
11627TIP3    H156372   2.477   5.362   0.670 -1.2160 -1.1982  1.9171
11627TIP3    H256373   2.463   5.512   0.686  0.5423 -0.8207  0.2868
11628TIP3   OH256374   3.001   4.977  12.774  0.2836 -0.0536 -0.5533
11628TIP3    H156375   3.086   5.010  12.746  0.3766  1.5582  1.4123
11628TIP3    H256376   2.976   5.033  12.847 -3.7972  1.3619 -2.7086
11629TIP3   OH256377   0.879   5.365  17.064  0.1960  0.5957 -0.5560
11629TIP3    H156378   0.795   5.321  17.055  0.6205 -0.5633  0.6974
11629TIP3    H256379   0.891   5.412  16.981 -2.5626  2.4683 -0.0387
11630TIP3   OH256380   6.075   1.035   3.278  0.0694 -0.2301  0.1893
11630TIP3    H156381   6.026   1.005   3.201 -1.4841 -0.0729  1.0685
11630TIP3    H256382   6.117   1.116   3.250 -1.1227  0.2486 -0.3099
11631TIP3   OH256383   1.658   1.102  13.992  0.8299  0.5721 -0.0751
11631TIP3    H156384   1.604   1.119  13.915 -1.0801  1.0035  1.3010
11631TIP3    H256385   1.647   1.008  14.009 -1.2969  1.0133  1.4137
11632TIP3   OH256386   3.542   3.754   4.043 -0.3424 -0.0698 -0.1237
11632TIP3    H156387   3.490   3.684   4.004 -1.2014  1.0202 -1.0143
11632TIP3    H256388   3.489   3.787   4.115 -1.3424  1.5694 -1.5188
11633TIP3   OH256389   5.807   4.640  12.595 -0.1500 -0.6995  0.3704
11633TIP3    H156390   5.883   4.656  12.539 -0.1146  0.5640  0.7468
11633TIP3    H256391   5.841   4.588  12.667 -0.0767 -1.8514 -0.4722
11634TIP3   OH256392   5.877   4.085  12.028  0.6485 -0.1920  0.1221
11634TIP3    H156393   5.905   4.040  11.948 -1.5801  0.2510 -0.9844
11634TIP3    H256394   5.902   4.177  12.014 -1.4038  0.2511 -0.9755
11635TIP3   OH256395   2.111   0.134   0.584 -0.1904  0.0991 -0.2918
11635TIP3    H156396   2.157   0.073   0.641 -0.4252  0.8293  0.7123
11635TIP3    H256397   2.038   0.166   0.638 -0.5645  0.6290 -1.0925
11636TIP3   OH256398   0.857   2.065   4.707  0.4060 -0.2446 -0.4317
11636TIP3    H156399   0.883   2.048   4.617 -0.3190 -1.7738 -0.3858
11636TIP3    H256400   0.763   2.048   4.709  0.5815 -1.2370  0.8261
11637TIP3   OH256401   1.688   0.374   0.660  0.2436 -0.2941  0.1260
11637TIP3    H156402   1.772   0.332   0.679  1.3728  2.7444  2.6546
11637TIP3    H256403   1.650   0.319   0.591  4.3408 -1.7466 -1.3313
11638TIP3   OH256404   5.952   1.812   0.907  0.2658  0.5339  1.0891
11638TIP3    H156405   5.867   1.839   0.943  0.6317  0.0965  2.3459
11638TIP3    H256406   5.960   1.860   0.825 -1.6411 -0.1598  0.4529
11639TIP3   OH256407   3.669   5.591  13.768  0.5461  0.0634 -0.2440
11639TIP3    H156408   3.736   5.586  13.836  0.3401 -1.1692 -0.1256
11639TIP3    H256409   3.614   5.666  13.794  2.2613  1.5612 -0.7277
11640TIP3   OH256410   4.517   2.342  15.130 -0.4319  0.4016  0.0764
11640TIP3    H156411   4.493   2.327  15.039 -1.1959  1.3058  0.1086
11640TIP3    H256412   4.491   2.432  15.147 -0.6560  0.1282  1.2975
11641TIP3   OH256413   4.633   1.138  16.493  0.2723  0.2787  0.1869
11641TIP3    H156414   4.618   1.232  16.484  0.1100  0.2968  0.6386
11641TIP3    H256415   4.578   1.098  16.426 -0.8581  0.4160  1.0101
11642TIP3   OH256416   5.587   4.810  10.840  0.3861 -0.3281  0.2532
11642TIP3    H156417   5.681   4.793  10.833  0.3245 -0.3404 -0.5650
11642TIP3    H256418   5.581   4.902  10.866  0.6300 -0.4550  0.7765
11643TIP3   OH256419   0.033   3.315  13.532  0.9267  0.4349 -0.6066
11643TIP3    H156420   0.003   3.355  13.451 -0.5815  1.6974  0.5221
11643TIP3    H256421   0.038   3.221  13.512 -2.5452  0.2725 -1.3293
11644TIP3   OH256422   0.963   0.459   5.588  0.2229  0.3774  0.0645
11644TIP3    H156423   0.872   0.469   5.617 -0.6591 -0.0066 -2.3454
11644TIP3    H256424   0.972   0.365   5.570  0.0396  0.7980 -2.6476
11645TIP3   OH256425   4.755   3.834  10.459 -0.3402  0.3256  0.5886
11645TIP3    H156426   4.707   3.917  10.454 -2.2941 -0.8118 -2.3300
11645TIP3    H256427   4.688   3.767  10.443  1.7488 -1.5501 -0.8481
11646TIP3   OH256428   3.839   1.534   5.860 -0.1035  0.2815 -0.3544
11646TIP3    H156429   3.818   1.443   5.878  0.8558 -0.0313 -0.7180
11646TIP3    H256430   3.773   1.563   5.797  0.4391 -0.6157 -1.3669
11647TIP3   OH256431   0.004   0.635  13.081  0.3658 -0.2343  0.0077
11647TIP3    H156432   0.054   0.714  13.060 -1.1261  0.4550 -1.2106
11647TIP3    H256433  -0.072   0.668  13.130 -1.5755 -0.4896 -2.6143
11648TIP3   OH256434   1.011   6.631   3.908  0.2583 -0.5806 -0.4848
11648TIP3    H156435   0.934   6.597   3.953 -0.7357  1.2469 -0.7345
11648TIP3    H256436   1.062   6.553   3.886 -0.3761 -1.6771  1.6674
11649TIP3   OH256437   3.268   3.508   3.209  1.3457  0.7018 -0.2727
11649TIP3    H156438   3.287   3.601   3.222 -1.2040  1.4808 -1.5758
11649TIP3    H256439   3.227   3.481   3.291  2.8516  0.4677  0.4287
11650TIP3   OH256440   5.211   2.678  17.190 -0.4375 -0.4750 -0.0361
11650TIP3    H156441   5.296   2.668  17.232 -1.2219 -0.8759  1.5021
11650TIP3    H256442   5.149   2.637  17.250 -1.7872  0.2173 -0.9075
11651TIP3   OH256443   4.739   6.109   1.479  0.8881 -0.0775 -0.0842
11651TIP3    H156444   4.651   6.134   1.453  0.0374 -0.5638  2.1239
11651TIP3    H256445   4.761   6.035   1.422 -0.3432 -0.2653 -0.3344
11652TIP3   OH256446   0.572   4.407  12.500  0.6558  0.5959  0.0853
11652TIP3    H156447   0.546   4.490  12.538  1.8143 -0.4076  3.3955
11652TIP3    H256448   0.667   4.413  12.490  1.0798 -0.9280  2.3475
11653TIP3   OH256449   3.340   0.636  16.721 -0.2235 -0.4658 -0.3392
11653TIP3    H156450   3.342   0.545  16.750 -0.3501  0.7119  4.0897
11653TIP3    H256451   3.431   0.658  16.703 -0.0590 -1.1685 -0.3824
11654TIP3   OH256452   0.010   0.068  13.025  0.4003  0.1854 -1.1837
11654TIP3    H156453  -0.013   0.154  13.061 -0.0777 -0.0318 -0.9617
11654TIP3    H256454  -0.048   0.058  12.949  0.6139  0.1543 -1.3428
11655TIP3   OH256455   4.515   0.442  14.824 -0.1421 -0.3231 -0.2617
11655TIP3    H156456   4.492   0.351  14.808  1.9737 -1.2374  1.4181
11655TIP3    H256457   4.580   0.463  14.757  0.5270 -0.5904  0.2867
11656TIP3   OH256458   4.367   6.619  16.947  0.5052  0.2015  0.2404
11656TIP3    H156459   4.274   6.620  16.925  0.3147  1.0788  1.0178
11656TIP3    H256460   4.411   6.594  16.866 -0.2015  2.8024 -1.0593
11657TIP3   OH256461   0.385   0.830   2.177  0.0794 -0.1426  0.0662
11657TIP3    H156462   0.357   0.771   2.107  0.8791  1.1387 -1.3854
11657TIP3    H256463   0.310   0.888   2.190  0.1412 -0.0187 -0.1307
11658TIP3   OH256464   6.737   6.041  14.259  0.6139 -0.2102  0.3631
11658TIP3    H156465   6.649   6.012  14.283 -0.1745  0.6966 -1.2854
11658TIP3    H256466   6.728   6.074  14.170  2.7433 -0.5488 -0.0195
11659TIP3   OH256467   2.618   4.605  11.314  0.1467  0.3837  0.2269
11659TIP3    H156468   2.628   4.700  11.316 -0.2237  0.4219  0.4579
11659TIP3    H256469   2.531   4.591  11.277 -0.0141  0.1547  0.6813
11660TIP3   OH256470   0.085   4.614   1.420 -0.5283 -0.2247  0.2364
11660TIP3    H156471   0.018   4.678   1.444 -0.6247  0.1575 -0.9866
11660TIP3    H256472   0.111   4.574   1.503 -3.5633 -1.6924  0.6197
11661TIP3   OH256473   4.990   3.254  12.121 -0.0404 -0.4695  0.1875
11661TIP3    H156474   5.062   3.229  12.063  0.4379 -2.5635  1.5895
11661TIP3    H256475   4.994   3.349  12.124  1.6856 -0.4564 -0.9946
11662TIP3   OH256476   0.863   2.636   4.650  0.1159 -0.1595  0.4409
11662TIP3    H156477   0.872   2.543   4.671 -0.4769 -0.1775  0.6375
11662TIP3    H256478   0.914   2.681   4.717  2.2258 -0.4152 -0.8921
11663TIP3   OH256479   5.428   1.674  11.288  0.3758 -0.0671 -0.2750
11663TIP3    H156480   5.442   1.589  11.330  1.1507  0.5290  0.7318
11663TIP3    H256481   5.334   1.678  11.271  0.2853 -0.9831 -0.0367
11664TIP3   OH256482   5.716   1.789  15.793  0.4841  0.2470  0.4760
11664TIP3    H156483   5.724   1.695  15.811 -0.6116  0.3025  1.4364
11664TIP3    H256484   5.643   1.795  15.732  0.4032  0.4816  0.5964
11665TIP3   OH256485   0.588   5.426  17.207 -0.3748  0.2006 -0.3777
11665TIP3    H156486   0.595   5.491  17.137 -0.4041  1.1553  0.4733
11665TIP3    H256487   0.553   5.476  17.281  1.2860 -0.3609  0.8440
11666TIP3   OH256488   5.027   0.180  12.738  0.6412 -0.3177  0.0692
11666TIP3    H156489   4.972   0.227  12.675 -1.7469 -3.2433 -0.2177
11666TIP3    H256490   5.114   0.182  12.699  0.1608  1.7620 -1.0600
11667TIP3   OH256491   2.406   1.170  11.824  0.2658 -0.1192  0.1305
11667TIP3    H156492   2.330   1.213  11.863  0.5465  0.9589 -0.4647
11667TIP3    H256493   2.458   1.141  11.898 -0.4480 -0.3748  0.5431
11668TIP3   OH256494   6.609   1.349   1.960  0.1173  0.3596 -0.2889
11668TIP3    H156495   6.696   1.315   1.980 -0.0348 -0.1768 -0.5273
11668TIP3    H256496   6.562   1.345   2.044  0.0085 -0.3072 -0.3750
11669TIP3   OH256497   0.070   4.663  12.080 -0.2625 -0.0481  0.0207
11669TIP3    H156498  -0.007   4.718  12.066 -0.4571 -0.5829 -1.1592
11669TIP3    H256499   0.105   4.691  12.164 -0.7770  1.3665 -0.2137
11670TIP3   OH256500   4.021   3.715   0.557  0.0353  0.1144 -0.2488
11670TIP3    H156501   3.971   3.706   0.638 -1.0735 -0.6006 -0.9799
11670TIP3    H256502   4.078   3.638   0.556  0.8709  0.7031  0.3718
11671TIP3   OH256503   4.214   4.494   6.715  0.0078  0.4728  0.2066
11671TIP3    H156504   4.292   4.506   6.662  0.6560  0.8776  1.2202
11671TIP3    H256505   4.215   4.401   6.738 -0.0878  0.3703 -0.2059
11672TIP3   OH256506   6.502   0.248  14.549  0.1202 -0.2026 -0.4091
11672TIP3    H156507   6.547   0.307  14.489 -0.1740  2.0785  1.4624
11672TIP3    H256508   6.477   0.173  14.496 -0.5069  1.8589 -3.2339
11673TIP3   OH256509   6.569   1.619  11.143 -0.1467  1.1129 -0.4035
11673TIP3    H156510   6.518   1.663  11.212  0.6316 -0.2425  1.1027
11673TIP3    H256511   6.657   1.613  11.179 -0.1208 -1.2815 -0.6896
11674TIP3   OH256512   5.853   1.932  12.186 -0.0047  0.4175  0.3053
11674TIP3    H156513   5.854   2.026  12.170  1.0560  0.4608  0.5516
11674TIP3    H256514   5.946   1.907  12.190 -0.2757 -0.7495 -0.3804
11675TIP3   OH256515   1.314   4.361  12.748 -0.2413  0.0565  0.2183
11675TIP3    H156516   1.267   4.290  12.792 -0.1554  0.1406  0.4476
11675TIP3    H256517   1.406   4.334  12.751 -0.3408 -0.4570 -0.8738
11676TIP3   OH256518   4.046   3.132  17.393  0.8033  0.1995 -0.7895
11676TIP3    H156519   4.010   3.043  17.388  1.9765 -0.3710  0.4278
11676TIP3    H256520   4.014   3.166  17.477  1.8822  0.2269 -0.3839
11677TIP3   OH256521   6.508   0.054   0.206  0.4637 -0.3019  0.6488
11677TIP3    H156522   6.516   0.107   0.127  0.6658  0.7961  1.3795
11677TIP3    H256523   6.595   0.018   0.220  0.7044  0.3729  0.9445
11678TIP3   OH256524   0.407   2.406  12.516  0.2538  0.0899  0.3488
11678TIP3    H156525   0.436   2.388  12.606  1.1100 -0.0567  0.0474
11678TIP3    H256526   0.461   2.480  12.488 -0.0150  0.1367 -0.0494
11679TIP3   OH256527   3.648   1.051   1.866 -0.5365  0.5479  0.1373
11679TIP3    H156528   3.632   0.966   1.826 -3.4256  1.3529 -0.6713
11679TIP3    H256529   3.702   1.098   1.802 -1.2332  0.2291 -0.7030
11680TIP3   OH256530   4.444   4.629   5.678  0.4655 -0.2634  0.2205
11680TIP3    H156531   4.392   4.579   5.741  0.1810 -0.7179 -0.3664
11680TIP3    H256532   4.383   4.651   5.608  0.8867 -0.1451 -0.1165
11681TIP3   OH256533   3.227   2.740  10.637  0.3727 -0.0344 -0.3681
11681TIP3    H156534   3.259   2.655  10.667  1.6501  1.0884  1.6800
11681TIP3    H256535   3.289   2.803  10.672 -1.0741  1.8413 -0.9899
11682TIP3   OH256536   2.004   5.676   5.437  0.0741 -0.3822 -0.1622
11682TIP3    H156537   1.980   5.762   5.472 -0.5269 -0.9997  0.9647
11682TIP3    H256538   1.947   5.665   5.360 -0.5039 -0.1712  0.2324
11683TIP3   OH256539   1.481   1.307   2.959 -0.2948  0.3424 -0.2125
11683TIP3    H156540   1.473   1.246   2.884 -1.2001 -0.3788  0.4389
11683TIP3    H256541   1.536   1.260   3.021 -2.0443 -0.4297  0.8374
11684TIP3   OH256542   5.950   1.508   2.514 -0.6476 -0.3885 -0.4482
11684TIP3    H156543   5.972   1.602   2.516 -0.8109 -0.2960 -2.1619
11684TIP3    H256544   5.997   1.472   2.589  1.0267  0.7436 -0.8871
11685TIP3   OH256545   3.552   1.798   4.382  0.1347 -0.2711 -0.0253
11685TIP3    H156546   3.626   1.736   4.383  1.9244  1.7633  0.2083
11685TIP3    H256547   3.577   1.864   4.317 -1.1675  0.8662  0.5844
11686TIP3   OH256548   2.895   4.097   3.715 -0.3938 -0.6708 -0.1070
11686TIP3    H156549   2.886   4.085   3.810 -0.2948 -0.4133 -0.0652
11686TIP3    H256550   2.805   4.108   3.684 -0.3763 -0.0909  0.0462
11687TIP3   OH256551   0.138   1.872  13.991  0.1274 -0.0918 -0.3935
11687TIP3    H156552   0.219   1.846  14.033 -0.1154 -0.8110 -0.3619
11687TIP3    H256553   0.110   1.796  13.941 -0.0894  0.4324 -1.0871
11688TIP3   OH256554   0.504   1.137   4.123 -0.2912  0.2016  0.6703
11688TIP3    H156555   0.569   1.165   4.058 -0.4346 -0.3851  0.2651
11688TIP3    H256556   0.502   1.041   4.115 -1.1628  0.2078  0.7200
11689TIP3   OH256557   5.500   6.040  15.088  0.1132  0.9960  0.0472
11689TIP3    H156558   5.513   6.054  15.181  0.8071  1.2118 -0.0699
11689TIP3    H256559   5.427   5.979  15.082  3.4305 -3.6739  1.0080
11690TIP3   OH256560   1.234   1.013   3.721  0.3940 -0.9780 -0.1905
11690TIP3    H156561   1.197   1.101   3.728  2.0629 -0.2073 -0.6688
11690TIP3    H256562   1.158   0.955   3.727 -0.5987  0.4004  1.8061
11691TIP3   OH256563   4.773   5.305  12.609  0.3094  0.3914  0.3383
11691TIP3    H156564   4.699   5.307  12.669 -1.0812  1.3670 -1.3003
11691TIP3    H256565   4.850   5.292  12.664 -1.0291 -0.1179  2.1495
11692TIP3   OH256566   2.953   0.610  11.668  0.6228  0.3786  0.0298
11692TIP3    H156567   2.986   0.633  11.581  1.0118  0.8172  0.2900
11692TIP3    H256568   3.025   0.563  11.710  0.4485  0.2011  0.1352
11693TIP3   OH256569   3.693   2.239  14.422 -0.5753  0.0980 -0.5882
11693TIP3    H156570   3.611   2.288  14.422 -0.1766  0.7935 -1.4985
11693TIP3    H256571   3.746   2.281  14.354  1.4898  1.2662  1.6014
11694TIP3   OH256572   6.380   6.422   2.495 -0.2009  0.0480 -0.1638
11694TIP3    H156573   6.365   6.425   2.590  0.2729 -0.1310 -0.0804
11694TIP3    H256574   6.370   6.513   2.467 -0.4298  0.0900  0.0416
11695TIP3   OH256575   6.201   5.252  17.261  0.4164  0.2750 -0.0548
11695TIP3    H156576   6.293   5.224  17.255  0.6489  0.5892  1.5775
11695TIP3    H256577   6.196   5.331  17.207  0.9747 -0.0510 -0.5909
11696TIP3   OH256578   1.376   2.371   5.396 -0.4400  0.8602  0.1620
11696TIP3    H156579   1.414   2.457   5.379  1.8711 -0.2412 -0.6370
11696TIP3    H256580   1.383   2.359   5.490  1.1447  0.7544  0.0515
11697TIP3   OH256581   4.294   2.489   3.193  0.1191  0.2482  0.2065
11697TIP3    H156582   4.342   2.409   3.170  0.1965  0.0491  1.0424
11697TIP3    H256583   4.313   2.549   3.121  1.4067  0.0721  0.3649
11698TIP3   OH256584   4.042   5.532  10.606 -0.2172 -0.0011  0.0797
11698TIP3    H156585   3.990   5.454  10.585  0.7742 -0.4918 -0.6432
11698TIP3    H256586   3.978   5.596  10.635 -1.1075 -0.9449  0.2644
11699TIP3   OH256587   6.206   0.600   0.862  0.9143  0.4876  0.6632
11699TIP3    H156588   6.133   0.648   0.824  1.2992  0.6988  0.1862
11699TIP3    H256589   6.165   0.539   0.924  0.2654  0.0483 -0.1693
11700TIP3   OH256590   6.599   5.915  11.920 -0.2664 -0.1659 -0.4256
11700TIP3    H156591   6.627   5.866  11.842  0.8462 -0.2761  0.0273
11700TIP3    H256592   6.508   5.940  11.901 -0.7036 -1.9584 -0.8832
11701TIP3   OH256593   1.725   2.386   5.514  0.0990 -0.0526 -0.5823
11701TIP3    H156594   1.672   2.306   5.506  1.2724 -0.8392 -0.6873
11701TIP3    H256595   1.662   2.453   5.542 -1.3002 -0.5448 -2.3513
11702TIP3   OH256596   5.142   1.556  10.814 -0.0422 -0.3156 -0.3172
11702TIP3    H156597   5.191   1.503  10.751 -0.6540  0.7462 -1.7346
11702TIP3    H256598   5.074   1.599  10.762 -1.0938 -0.0274  1.2166
11703TIP3   OH256599   5.228   2.976   1.965  0.1998 -0.2238  0.7107
11703TIP3    H156600   5.164   3.042   1.941  1.0557  0.9862  1.6732
11703TIP3    H256601   5.313   3.019   1.955  0.8539 -1.5552  0.1886
11704TIP3   OH256602   5.307   6.512  12.290  0.6257 -0.6374 -0.8018
11704TIP3    H156603   5.296   6.593  12.241  2.0951  0.2141  0.2201
11704TIP3    H256604   5.384   6.526  12.344 -0.1005 -2.0692  0.7126
11705TIP3   OH256605   4.187   6.286   4.398 -0.5827  0.1695 -0.4021
11705TIP3    H156606   4.258   6.350   4.395  0.2296 -0.5656  1.5335
11705TIP3    H256607   4.113   6.334   4.434 -0.0098  0.0942  0.9317
11706TIP3   OH256608   3.666   3.578  10.655 -0.6241  0.4708  0.6400
11706TIP3    H156609   3.706   3.632  10.587  1.8451 -0.4262  1.2435
11706TIP3    H256610   3.634   3.640  10.720  1.8606  1.2994  1.1629
11707TIP3   OH256611   2.503   0.469  14.143 -0.0073  0.0799  0.5066
11707TIP3    H156612   2.424   0.460  14.090  0.7687 -2.0411 -0.4428
11707TIP3    H256613   2.475   0.453  14.232 -0.9000  0.9259  0.3829
11708TIP3   OH256614   6.140   2.639   3.804 -0.3242  0.0094  0.0189
11708TIP3    H156615   6.163   2.704   3.870  1.3511  0.0904 -0.5774
11708TIP3    H256616   6.056   2.667   3.770 -0.5603  0.7416  1.1401
11709TIP3   OH256617   4.225   4.110  10.886 -0.2283 -0.0182  0.0893
11709TIP3    H156618   4.235   4.131  10.794 -0.2800  1.0580  0.3199
11709TIP3    H256619   4.154   4.166  10.916  1.2100  1.2685  1.2752
11710TIP3   OH256620   2.355   1.305  14.582 -0.5219 -0.2225 -0.2129
11710TIP3    H156621   2.344   1.311  14.488  0.6237 -0.3039 -0.3712
11710TIP3    H256622   2.425   1.241  14.595 -0.9030 -0.4762  0.7084
11711TIP3   OH256623   0.953   3.190   3.420 -0.1087 -0.6066  0.0443
11711TIP3    H156624   0.970   3.118   3.482 -0.2020 -1.7950 -1.2663
11711TIP3    H256625   0.930   3.146   3.338 -0.3411  0.9382 -0.7489
11712TIP3   OH256626   4.827   5.237  16.233 -0.0649  0.1465 -0.7225
11712TIP3    H156627   4.815   5.158  16.179 -1.4897 -1.0634  1.2330
11712TIP3    H256628   4.760   5.298  16.201 -1.8125 -1.0648  0.4628
11713TIP3   OH256629   6.797   0.423   6.086  0.8905  0.0634  0.0560
11713TIP3    H156630   6.809   0.402   5.994  0.0348  1.2704 -0.3495
11713TIP3    H256631   6.705   0.403   6.103  0.9614  0.1559  0.5646
11714TIP3   OH256632   1.237   1.738  11.751 -0.2025  0.2154 -0.8369
11714TIP3    H156633   1.314   1.770  11.799  0.1013 -0.7705 -0.6402
11714TIP3    H256634   1.184   1.695  11.818 -1.0012  0.9988 -0.9500
11715TIP3   OH256635   6.211   5.338   4.207  0.1918  0.2100 -0.6435
11715TIP3    H156636   6.198   5.315   4.115  0.8060  0.4246 -0.7958
11715TIP3    H256637   6.150   5.410   4.223  0.5693  0.6421 -1.0921
11716TIP3   OH256638   1.129   5.080  16.225 -0.2075 -0.5696  0.5624
11716TIP3    H156639   1.084   4.997  16.238  0.5639 -0.9909  0.5867
11716TIP3    H256640   1.192   5.086  16.297 -1.3630  0.8121  1.5148
11717TIP3   OH256641   1.330   0.549   0.057 -0.2213  0.1858  0.1917
11717TIP3    H156642   1.399   0.534  -0.007  1.2586  0.5052  1.6217
11717TIP3    H256643   1.366   0.513   0.139 -1.3176  1.2882  1.1997
11718TIP3   OH256644   4.943   3.212  16.109  0.7495  0.3576 -0.4788
11718TIP3    H156645   4.904   3.128  16.133  0.3360  0.5232 -0.5720
11718TIP3    H256646   5.026   3.189  16.068  0.6852 -0.0008 -0.4067
11719TIP3   OH256647   1.533   4.279   2.780 -0.3212  0.3829  0.4018
11719TIP3    H156648   1.444   4.264   2.814 -0.8271  0.5314 -0.8118
11719TIP3    H256649   1.576   4.194   2.788 -1.5314 -0.4894 -1.6878
11720TIP3   OH256650   3.982   1.513  16.839  0.1179 -0.2343  0.6646
11720TIP3    H156651   4.027   1.593  16.868 -0.7410  0.3462  0.4137
11720TIP3    H256652   3.965   1.527  16.746  0.1544 -0.8117  0.5680
11721TIP3   OH256653   0.941   4.018  10.482  0.1080  0.1458  0.0976
11721TIP3    H156654   0.929   4.110  10.462 -0.4214  0.2207  0.7032
11721TIP3    H256655   0.852   3.982  10.485  0.3823 -1.0738 -3.1046
11722TIP3   OH256656   5.377   1.196  16.751 -0.0954 -0.5313  0.4026
11722TIP3    H156657   5.313   1.263  16.772  1.2283  0.8631  0.1909
11722TIP3    H256658   5.454   1.217  16.804  0.6993 -1.2940 -0.3795
11723TIP3   OH256659   2.513   4.258  15.575 -0.1140 -0.3376 -0.0084
11723TIP3    H156660   2.565   4.283  15.499 -0.7783  1.3386  0.0405
11723TIP3    H256661   2.577   4.231  15.640  0.4537 -2.0477 -1.2092
11724TIP3   OH256662   2.921   0.995  16.028  0.7450  0.0328 -0.5030
11724TIP3    H156663   2.903   0.903  16.046  0.9129 -0.0066 -0.5379
11724TIP3    H256664   2.922   1.036  16.115 -1.1906  0.3531 -0.5783
11725TIP3   OH256665   6.550   4.493  14.930  0.2464  0.0751  0.1858
11725TIP3    H156666   6.575   4.477  14.839  1.3670 -1.1834  0.6706
11725TIP3    H256667   6.604   4.567  14.957  0.1554  0.2388 -0.0833
11726TIP3   OH256668   0.883   6.736   6.854 -0.3615  0.2917 -0.5460
11726TIP3    H156669   0.939   6.706   6.925 -0.6314  1.9256  0.4237
11726TIP3    H256670   0.906   6.680   6.780  2.8864  1.1069 -0.3392
11727TIP3   OH256671   0.833   6.500  12.049  0.8983  0.1211  0.6821
11727TIP3    H156672   0.837   6.567  11.980  1.8192  0.1177  0.7277
11727TIP3    H256673   0.844   6.549  12.130  1.7512 -0.0999  0.7057
11728TIP3   OH256674   1.704   0.633   3.538  0.1678  0.3032  0.1084
11728TIP3    H156675   1.649   0.629   3.616 -0.4299 -2.8179 -0.3278
11728TIP3    H256676   1.772   0.696   3.560 -0.8214  0.6362  2.5579
11729TIP3   OH256677   4.211   4.008  15.178  0.3936 -0.0633  0.1162
11729TIP3    H156678   4.228   4.102  15.189  3.7233 -0.5492  0.1963
11729TIP3    H256679   4.160   3.984  15.255 -0.0627  1.5585  0.3665
11730TIP3   OH256680   3.266   0.146  11.037 -0.2236  0.0523  0.0330
11730TIP3    H156681   3.227   0.059  11.045 -0.3278  0.1888  1.2035
11730TIP3    H256682   3.208   0.192  10.976 -0.8562 -0.3250  0.3394
11731TIP3   OH256683   1.897   2.981  14.393  0.2418  0.2076 -0.3407
11731TIP3    H156684   1.807   2.985  14.424 -0.7644 -2.2274 -2.5548
11731TIP3    H256685   1.939   2.917  14.450  0.5086  1.1116  0.4942
11732TIP3   OH256686   3.798   6.335  13.607  0.0266  0.0654 -0.5488
11732TIP3    H156687   3.879   6.319  13.558  0.1104  1.5944 -0.9492
11732TIP3    H256688   3.728   6.307  13.547  0.2269 -2.6778  0.3496
11733TIP3   OH256689   6.745   3.711   3.828  0.2926 -0.1824 -0.0800
11733TIP3    H156690   6.726   3.736   3.919 -2.1317 -0.5498 -0.4206
11733TIP3    H256691   6.767   3.618   3.833 -0.6333 -0.4026  0.0657
11734TIP3   OH256692   2.725   1.854  13.902 -0.1781  0.0188 -0.5972
11734TIP3    H156693   2.778   1.812  13.835 -0.1827 -2.4844  0.8315
11734TIP3    H256694   2.773   1.839  13.983 -1.5224  0.4489  0.3135
11735TIP3   OH256695   0.341   0.334   1.729  0.2277  0.5428  0.0243
11735TIP3    H156696   0.255   0.337   1.771  0.6219 -0.1619  0.8947
11735TIP3    H256697   0.361   0.241   1.721  0.1671  0.6528 -1.7582
11736TIP3   OH256698   1.188   3.029  15.659  0.1746  0.0890 -0.1150
11736TIP3    H156699   1.241   2.963  15.614  0.3138 -1.5236  2.2700
11736TIP3    H256700   1.097   3.001  15.644  0.2548 -1.4397  1.8824
11737TIP3   OH256701   3.899   6.071  14.130  0.0840 -0.4580 -0.4950
11737TIP3    H156702   3.964   6.131  14.166 -2.3696  3.2695 -1.6793
11737TIP3    H256703   3.891   6.096  14.038 -1.5915 -2.1498 -0.8855
11738TIP3   OH256704   2.900   2.390  17.374  0.4622 -0.1300  0.0709
11738TIP3    H156705   2.807   2.375  17.391  0.5982 -0.8515  0.2281
11738TIP3    H256706   2.907   2.485  17.362 -0.1760  0.0179  0.7680
11739TIP3   OH256707   6.676   2.278  14.192 -0.0331  0.0379  0.0035
11739TIP3    H156708   6.742   2.347  14.201  3.8645 -2.9550 -2.5619
11739TIP3    H256709   6.675   2.234  14.276 -0.0642  1.1024  0.5804
11740TIP3   OH256710   6.693   0.469   2.592 -0.7426 -0.0853  0.1360
11740TIP3    H156711   6.752   0.398   2.618  0.1144 -0.2700 -2.1101
11740TIP3    H256712   6.619   0.424   2.551 -1.1743  0.2559  0.5346
11741TIP3   OH256713   0.562   3.932   5.809 -0.3370  0.7687 -0.0286
11741TIP3    H156714   0.642   3.972   5.845  1.5474 -2.8949  0.2434
11741TIP3    H256715   0.560   3.960   5.718  2.3149 -0.4429 -0.5267
11742TIP3   OH256716   5.297   4.544  11.684  0.4512  0.1830  0.1594
11742TIP3    H156717   5.331   4.461  11.651 -2.7489 -0.9545 -0.5598
11742TIP3    H256718   5.298   4.534  11.780 -3.1160 -2.2635  0.1086
11743TIP3   OH256719   3.076   4.091  13.606 -0.0449 -0.0372 -0.0598
11743TIP3    H156720   3.066   4.027  13.677 -0.8997  0.5202  0.3518
11743TIP3    H256721   3.150   4.145  13.633 -1.5938  1.4688  1.5094
11744TIP3   OH256722   4.433   0.787   4.711  0.6724 -0.3469  0.2065
11744TIP3    H156723   4.415   0.868   4.662  0.5891 -0.6635 -0.2941
11744TIP3    H256724   4.508   0.808   4.766  0.0835  0.3515  0.7591
11745TIP3   OH256725   0.476   3.614   3.774 -0.1273 -0.1721  0.1376
11745TIP3    H156726   0.382   3.602   3.786 -0.4604 -0.2389 -2.2040
11745TIP3    H256727   0.490   3.607   3.680  2.3245 -0.7469  0.4792
11746TIP3   OH256728   5.588   3.393   4.647 -0.3393 -0.1395  0.4311
11746TIP3    H156729   5.522   3.449   4.607  0.9087  0.7626 -0.4445
11746TIP3    H256730   5.584   3.311   4.599 -0.5582  0.0554  0.1192
11747TIP3   OH256731   2.889   5.215   6.694  0.2430  0.5669  0.2158
11747TIP3    H156732   2.912   5.123   6.682 -0.8432  0.4517 -1.3429
11747TIP3    H256733   2.799   5.213   6.726 -0.1660  1.0804 -0.8535
11748TIP3   OH256734   2.966   0.300  12.305 -0.1642 -0.1624  0.1879
11748TIP3    H156735   3.056   0.333  12.312 -0.7987  1.4401  1.2127
11748TIP3    H256736   2.931   0.307  12.393 -1.3257 -0.7244 -0.2190
11749TIP3   OH256737   5.980   5.205  17.415 -0.0385  0.4065 -0.2993
11749TIP3    H156738   6.044   5.210  17.344 -0.7934  2.1944 -0.9148
11749TIP3    H256739   5.895   5.205  17.371 -0.4917 -1.1254  0.5312
11750TIP3   OH256740   1.822   0.864  11.893 -0.6534  0.1023  0.0674
11750TIP3    H156741   1.861   0.819  11.968  0.2341  2.1180  0.9160
11750TIP3    H256742   1.732   0.881  11.920 -0.5205  0.2465  0.4331
11751TIP3   OH256743   6.104   2.510   3.131 -0.2195 -0.5579 -0.1623
11751TIP3    H156744   6.198   2.506   3.150  0.1820 -0.3411 -1.9504
11751TIP3    H256745   6.096   2.570   3.058 -1.7347 -0.7908 -0.2280
11752TIP3   OH256746   2.209   2.923   5.788  0.1353 -0.2367  0.2446
11752TIP3    H156747   2.269   2.997   5.796 -0.0962 -0.1417  1.2813
11752TIP3    H256748   2.126   2.954   5.824 -0.2792 -0.6649 -0.3117
11753TIP3   OH256749   6.066   0.158   5.194  0.5010 -0.5502 -0.7259
11753TIP3    H156750   6.142   0.157   5.251 -0.7118  1.0781  1.0565
11753TIP3    H256751   6.006   0.094   5.233 -0.9426  1.6263  0.8669
11754TIP3   OH256752   1.161   2.059   4.872 -0.4926  0.2166  0.5310
11754TIP3    H156753   1.194   2.026   4.788  0.8307  2.6460 -0.0102
11754TIP3    H256754   1.069   2.032   4.874 -0.1713 -1.1458 -1.0196
11755TIP3   OH256755   3.666   6.523  12.093 -0.3015  0.1640 -0.0136
11755TIP3    H156756   3.652   6.575  12.014 -0.2476  0.6314  0.2799
11755TIP3    H256757   3.625   6.439  12.073 -0.4459  0.3353 -0.4734
11756TIP3   OH256758   3.377   3.134  16.781  0.1484 -0.1705  0.0615
11756TIP3    H156759   3.379   3.146  16.686  0.2666  0.4827  0.1406
11756TIP3    H256760   3.405   3.043  16.794  2.3962  0.3900 -0.4172
11757TIP3   OH256761   2.716   4.990   0.828 -0.7233 -0.2786 -0.0434
11757TIP3    H156762   2.699   4.927   0.759 -1.8876 -0.9434  0.8035
11757TIP3    H256763   2.669   5.069   0.802 -0.8921 -0.4210 -0.1636
11758TIP3   OH256764   1.556   3.063  13.697  0.2382 -0.1531  0.4374
11758TIP3    H156765   1.536   2.971  13.710  1.1950 -0.2806  1.0942
11758TIP3    H256766   1.479   3.098  13.652  0.4505 -1.5637 -1.1333
11759TIP3   OH256767   3.182   1.513  14.800 -0.2999  0.4322  0.0186
11759TIP3    H156768   3.086   1.509  14.807 -0.3673  0.9361 -0.5614
11759TIP3    H256769   3.209   1.560  14.879 -0.5755  0.7537 -0.0752
11760TIP3   OH256770   3.965   0.200   5.035 -0.2200  0.3644  0.0921
11760TIP3    H156771   3.934   0.238   4.954 -0.6605 -0.7899 -0.3064
11760TIP3    H256772   3.893   0.213   5.097 -0.4453  0.0291 -0.0956
11761TIP3   OH256773   0.698   3.531  16.300  0.4559 -0.5797  0.2759
11761TIP3    H156774   0.626   3.514  16.361  1.9460 -1.3944  1.8984
11761TIP3    H256775   0.660   3.513  16.214 -1.0902 -1.7351  1.1211
11762TIP3   OH256776   1.072   6.349   3.879  0.0135  0.3076 -0.2179
11762TIP3    H156777   0.979   6.334   3.893  0.0382  0.0263 -0.3598
11762TIP3    H256778   1.113   6.263   3.889  0.2541  0.4208 -0.1992
11763TIP3   OH256779   1.049   2.750   4.360 -0.3314  1.2443 -0.3780
11763TIP3    H156780   0.984   2.680   4.357  0.1420  0.6060  2.1693
11763TIP3    H256781   1.040   2.794   4.275 -1.1223 -1.4270 -1.7978
11764TIP3   OH256782   4.108   3.963  16.786  0.0872 -0.0649  0.7362
11764TIP3    H156783   4.027   3.932  16.745 -2.5583  2.8254  3.2769
11764TIP3    H256784   4.122   4.050  16.749  2.0231 -0.4323  0.5036
11765TIP3   OH256785   6.226   1.535  13.701  0.3582  0.1062  0.4621
11765TIP3    H156786   6.198   1.611  13.650 -1.2942 -1.2899 -0.8459
11765TIP3    H256787   6.144   1.496  13.733  1.2011 -0.7962  1.6131
11766TIP3   OH256788   1.508   5.967   2.561 -0.0450  0.0709  0.8211
11766TIP3    H156789   1.459   6.016   2.627  0.4711  0.4615  0.9218
11766TIP3    H256790   1.492   6.013   2.479 -0.6436 -0.3835  0.6833
11767TIP3   OH256791   4.140   4.251   0.972 -0.2678 -0.7447 -0.1508
11767TIP3    H156792   4.167   4.231   1.062 -1.6538  0.2650  0.5173
11767TIP3    H256793   4.083   4.178   0.947  0.4531 -1.2416 -0.3895
11768TIP3   OH256794   2.855   4.007   5.098  0.0841  0.2349 -0.1706
11768TIP3    H156795   2.828   4.091   5.135 -1.6808 -0.3783  0.0319
11768TIP3    H256796   2.829   3.943   5.164  0.0461 -0.5945 -0.9807
11769TIP3   OH256797   0.583   0.042   0.482  0.4621  0.4946  0.4384
11769TIP3    H156798   0.617  -0.046   0.469  0.7457  0.6870 -0.1708
11769TIP3    H256799   0.522   0.055   0.409 -0.6454  0.2940  1.2963
11770TIP3   OH256800   2.428   6.026   0.743  0.0648 -0.5944  0.3440
11770TIP3    H156801   2.337   6.047   0.767 -0.3014 -0.8577 -0.7554
11770TIP3    H256802   2.425   6.014   0.649  1.4418  0.2903  0.1682
11771TIP3   OH256803   0.860   5.805  13.242  0.7775  0.4819 -0.7068
11771TIP3    H156804   0.786   5.745  13.246  0.8971  0.3082 -1.0692
11771TIP3    H256805   0.927   5.763  13.296 -0.0229  1.5580  1.2353
11772TIP3   OH256806   1.061   5.597   5.447 -0.1383  0.0468  0.3088
11772TIP3    H156807   1.025   5.592   5.358  0.2214  1.6637  0.0425
11772TIP3    H256808   1.152   5.568   5.438 -0.5997 -1.5400  0.5071
11773TIP3   OH256809   1.343   5.969  11.159  0.6125  0.8630  0.1530
11773TIP3    H156810   1.328   5.995  11.068 -2.0690  0.2611  0.3386
11773TIP3    H256811   1.360   6.051  11.205  1.5738  1.2161 -0.7970
11774TIP3   OH256812   1.118   3.252  12.277 -0.3457  0.3049 -0.0718
11774TIP3    H156813   1.058   3.185  12.245 -0.8279  0.5163  0.3676
11774TIP3    H256814   1.068   3.334  12.270 -0.0634  0.5013  0.1755
11775TIP3   OH256815   1.661   4.592   1.442  0.6172  0.3774  0.0300
11775TIP3    H156816   1.613   4.592   1.359  0.5683 -0.7140  0.0381
11775TIP3    H256817   1.600   4.631   1.505 -0.7036 -1.8496  0.2473
11776TIP3   OH256818   5.038   1.739   5.821  0.2388  0.5258  0.0884
11776TIP3    H156819   5.096   1.759   5.894  1.7787 -0.9786 -0.6498
11776TIP3    H256820   5.012   1.824   5.787  1.3438  1.2519  0.9865
11777TIP3   OH256821   6.044   0.531  16.901  0.0982  0.3572  0.5199
11777TIP3    H156822   5.956   0.496  16.889 -0.3169 -0.7244  5.0204
11777TIP3    H256823   6.102   0.462  16.867 -0.6713  0.7819 -1.8263
11778TIP3   OH256824   5.852   2.655  13.982 -0.2480 -0.2820  0.2102
11778TIP3    H156825   5.827   2.565  13.959  0.5291 -1.2727  2.8100
11778TIP3    H256826   5.947   2.656  13.970 -0.4967  0.9822 -2.0496
11779TIP3   OH256827   2.843   1.654   0.366  0.6372  0.2622  0.0200
11779TIP3    H156828   2.862   1.631   0.276 -1.5422  1.9993 -0.9719
11779TIP3    H256829   2.905   1.601   0.418  2.2265 -0.4749 -2.4479
11780TIP3   OH256830   5.597   4.754  12.101 -0.4830  0.5667  0.5602
11780TIP3    H156831   5.667   4.726  12.043  0.3249  1.1479  1.2263
11780TIP3    H256832   5.517   4.719  12.062  0.2641 -0.8919  0.2684
11781TIP3   OH256833   6.181   1.496   3.947 -0.4092 -0.3952  0.0698
11781TIP3    H156834   6.229   1.422   3.909  1.1675 -0.5480  2.1652
11781TIP3    H256835   6.227   1.573   3.916 -1.2781 -0.3093 -1.0836
11782TIP3   OH256836   5.895   0.420   2.064  0.1439 -0.1601  0.2791
11782TIP3    H156837   5.975   0.473   2.070  0.6507 -1.0564  2.1090
11782TIP3    H256838   5.924   0.331   2.084 -1.1933 -0.6305  0.2329
11783TIP3   OH256839   6.042   5.760  11.199  0.1280 -0.4474 -0.1641
11783TIP3    H156840   6.105   5.830  11.215 -0.2879  0.2014 -1.2562
11783TIP3    H256841   5.971   5.777  11.260  0.1755 -0.0978 -0.2049
11784TIP3   OH256842   2.876   4.815   0.987 -0.4756  0.3074  0.3466
11784TIP3    H156843   2.809   4.805   0.919 -2.3452  1.9351  1.8504
11784TIP3    H256844   2.841   4.769   1.063  1.1301 -0.6143  0.5822
11785TIP3   OH256845   6.366   1.143  12.356 -0.4905 -0.4150 -0.0442
11785TIP3    H156846   6.448   1.151  12.306 -0.8018 -2.7332 -1.0324
11785TIP3    H256847   6.297   1.157  12.291 -1.0085  2.5378  0.9601
11786TIP3   OH256848   4.546   2.357   2.852  0.6694 -0.1213  0.4187
11786TIP3    H156849   4.480   2.310   2.904 -0.0872  1.7628  1.2492
11786TIP3    H256850   4.535   2.323   2.763 -1.8008  0.4798  0.4277
11787TIP3   OH256851   2.625   2.960   2.195  0.2277 -0.5559 -0.2069
11787TIP3    H156852   2.558   2.957   2.263  1.1115  1.4894  0.8570
11787TIP3    H256853   2.636   2.869   2.167 -1.7267 -1.1492  0.8033
11788TIP3   OH256854   0.982   4.426  16.019  0.5158  0.5927  1.0785
11788TIP3    H156855   0.894   4.430  16.055 -0.1930  0.7931 -0.5852
11788TIP3    H256856   1.032   4.375  16.083 -0.3645  1.9139  2.8801
11789TIP3   OH256857   1.293   0.813  16.377 -0.1558 -0.1128  0.1509
11789TIP3    H156858   1.373   0.761  16.371 -1.0525 -1.5391  0.0332
11789TIP3    H256859   1.248   0.798  16.293 -0.8703  0.1013  0.4830
11790TIP3   OH256860   1.333   6.245   1.281  0.5132  0.0378  0.1434
11790TIP3    H156861   1.379   6.161   1.271  1.3192  0.4928 -0.0251
11790TIP3    H256862   1.242   6.225   1.258  0.8638 -0.6039 -0.7600
11791TIP3   OH256863   1.139   1.509   2.930  0.7365 -0.3555  0.2470
11791TIP3    H156864   1.228   1.533   2.903  0.1269  2.1808  0.3105
11791TIP3    H256865   1.101   1.590   2.962 -2.2239 -0.9299 -1.4703
11792TIP3   OH256866   6.017   3.364  13.591  0.2758  0.5147  0.6497
11792TIP3    H156867   6.011   3.378  13.685  0.2401  1.5889  0.4973
11792TIP3    H256868   5.982   3.276  13.578 -1.9843  1.2379  1.3775
11793TIP3   OH256869   2.330   3.491   0.388 -0.3577  0.3395  0.2993
11793TIP3    H156870   2.285   3.448   0.316  0.1676 -0.3315  0.3553
11793TIP3    H256871   2.263   3.544   0.431 -0.9053 -0.0484 -0.0691
11794TIP3   OH256872   2.892   0.326  13.030 -0.2049  0.3244 -0.0016
11794TIP3    H156873   2.854   0.389  12.968 -2.1223 -1.2390 -0.4883
11794TIP3    H256874   2.920   0.380  13.104 -0.9695  1.8416 -0.7715
11795TIP3   OH256875   2.833   2.915   0.995 -0.5676 -0.1602 -0.2708
11795TIP3    H156876   2.778   2.990   1.019 -0.6317 -0.4567  0.5600
11795TIP3    H256877   2.809   2.896   0.905 -0.4381  0.9131 -0.5510
11796TIP3   OH256878   5.299   4.110  11.992  0.2394  0.3003 -0.3699
11796TIP3    H156879   5.270   4.041  12.052  0.7923  0.9176  0.6406
11796TIP3    H256880   5.217   4.150  11.960 -0.1108 -1.3930 -1.6939
11797TIP3   OH256881   3.984   2.732   0.427  0.3131  0.3609 -0.2804
11797TIP3    H156882   4.019   2.660   0.480 -0.0129  0.7218  0.4452
11797TIP3    H256883   3.907   2.762   0.476  0.7361  1.5252 -0.3060
11798TIP3   OH256884   5.241   3.288   0.544 -0.3311  0.6966  0.1469
11798TIP3    H156885   5.304   3.262   0.611  0.4908  1.8241 -0.1463
11798TIP3    H256886   5.187   3.355   0.587  0.1746  1.3958 -0.2787
11799TIP3   OH256887   4.096   0.961  17.339  0.0082 -0.4898  0.0660
11799TIP3    H156888   4.026   0.896  17.346  0.0508 -0.3765  2.2065
11799TIP3    H256889   4.167   0.925  17.390  0.2982  0.9134  0.6941
11800TIP3   OH256890   2.841   5.224   2.977  0.0691 -0.0142  1.0657
11800TIP3    H156891   2.826   5.311   2.940  2.6900 -0.3355 -1.0572
11800TIP3    H256892   2.931   5.202   2.952 -0.7761 -3.7290  0.6745
11801TIP3   OH256893   1.370   5.843   5.904  0.2077  0.0935  0.3411
11801TIP3    H156894   1.363   5.836   5.809  0.8360 -1.9266  0.4040
11801TIP3    H256895   1.427   5.919   5.918  0.3554  0.2310 -0.8940
11802TIP3   OH256896   0.564   3.326   5.929  0.1533 -0.2727 -0.2541
11802TIP3    H156897   0.552   3.251   5.871  2.2882 -0.7538 -0.1691
11802TIP3    H256898   0.529   3.401   5.880  1.1836 -0.7905 -1.8486
11803TIP3   OH256899   5.460   5.651  17.131 -0.0641  0.2266  0.4939
11803TIP3    H156900   5.375   5.689  17.151  0.5324  1.0964  1.5017
11803TIP3    H256901   5.483   5.688  17.045 -0.8757 -0.3422  0.0241
11804TIP3   OH256902   1.632   3.369  13.679 -0.7899 -0.5564 -0.0780
11804TIP3    H156903   1.706   3.420  13.713  0.4562 -1.1934 -1.6997
11804TIP3    H256904   1.666   3.280  13.669 -0.8859 -0.3734 -3.2060
11805TIP3   OH256905   5.642   6.305  14.663 -0.1836 -0.6597  0.0535
11805TIP3    H156906   5.625   6.337  14.752 -1.4837 -0.4183 -0.2663
11805TIP3    H256907   5.564   6.330  14.613  0.9255  0.0444 -1.3904
11806TIP3   OH256908   1.238   2.559  13.339  0.1724 -0.1496  0.4723
11806TIP3    H156909   1.297   2.625  13.303  2.0566 -1.5755  0.7869
11806TIP3    H256910   1.270   2.544  13.428 -2.2069  0.7617  1.5559
11807TIP3   OH256911   1.776   5.093   1.762 -0.5146  0.0939 -0.4393
11807TIP3    H156912   1.785   5.052   1.848  0.1775  1.3302  0.1069
11807TIP3    H256913   1.711   5.039   1.716 -0.7455 -0.7031  0.7771
11808TIP3   OH256914   4.975   4.372   0.284 -0.3818 -0.0831 -0.4894
11808TIP3    H156915   5.023   4.291   0.267 -1.5420 -1.1518  1.0028
11808TIP3    H256916   5.035   4.442   0.258  1.3942 -1.3782 -0.0737
11809TIP3   OH256917   0.487   5.791   3.251  0.0727  0.2530  0.5401
11809TIP3    H156918   0.441   5.789   3.335 -0.3875 -0.2836  0.2841
11809TIP3    H256919   0.466   5.707   3.211  0.6455  0.3280  0.0765
11810TIP3   OH256920   4.399   5.405  14.267  0.3931  0.1360  0.1728
11810TIP3    H156921   4.384   5.317  14.301 -1.0889  0.4417  0.3696
11810TIP3    H256922   4.312   5.437  14.244  0.9167  1.5262  0.0373
11811TIP3   OH256923   2.950   5.110   4.647 -0.3030 -0.0238  0.7406
11811TIP3    H156924   3.017   5.176   4.627  1.0702 -1.1224  1.5311
11811TIP3    H256925   2.882   5.125   4.581  1.5378  0.0043 -1.2887
11812TIP3   OH256926   2.365   2.175   5.191 -0.1553  0.7088 -0.1148
11812TIP3    H156927   2.435   2.131   5.240 -0.3627  1.5174  0.9577
11812TIP3    H256928   2.379   2.268   5.209 -2.3708  0.8356  1.3803
11813TIP3   OH256929   1.595   2.102   3.837  0.1441 -0.7383 -0.2006
11813TIP3    H156930   1.640   2.029   3.794  0.6784 -0.1741 -0.6043
11813TIP3    H256931   1.609   2.087   3.930 -1.5469 -2.3220 -0.1302
11814TIP3   OH256932   4.496   0.778   0.836 -0.0798 -0.0049 -0.2847
11814TIP3    H156933   4.417   0.726   0.848  0.5103 -0.7181  0.7292
11814TIP3    H256934   4.566   0.722   0.871  1.0182  0.1657 -2.1152
11815TIP3   OH256935   2.708   3.270  15.332  0.1983 -0.6718 -0.3846
11815TIP3    H156936   2.729   3.282  15.239 -0.8596  0.9268 -0.4480
11815TIP3    H256937   2.728   3.354  15.372  1.6508 -1.6549  1.0879
11816TIP3   OH256938   4.463   0.024   2.520 -0.1953 -0.4126 -0.1620
11816TIP3    H156939   4.485   0.046   2.610  0.7646 -0.0879 -0.4538
11816TIP3    H256940   4.392   0.084   2.496  0.9999  1.0046 -0.2895
11817TIP3   OH256941   3.417   5.348  15.530 -0.3389 -1.0038  0.3405
11817TIP3    H156942   3.348   5.381  15.472  1.8930  0.2647 -1.7770
11817TIP3    H256943   3.464   5.426  15.559  0.3686 -1.8499  1.5669
11818TIP3   OH256944   3.548   6.568  13.653  0.0042  0.3834 -0.1064
11818TIP3    H156945   3.558   6.473  13.657  2.6596  0.6246  2.1317
11818TIP3    H256946   3.604   6.595  13.579  0.1604  0.2758 -0.0276
11819TIP3   OH256947   5.294   0.665   3.250 -0.2995 -0.4849  0.2809
11819TIP3    H156948   5.251   0.580   3.262  0.2350 -0.8665 -0.4247
11819TIP3    H256949   5.237   0.712   3.188 -0.2286 -0.6056  0.1219
11820TIP3   OH256950   0.889   3.566   1.921 -0.0157 -0.0572  0.0345
11820TIP3    H156951   0.848   3.570   2.007 -0.9572 -0.5335 -0.3796
11820TIP3    H256952   0.978   3.599   1.935  0.2197 -1.1649  1.4122
11821TIP3   OH256953   1.789   1.151   5.059 -0.2679  0.4108  0.2797
11821TIP3    H156954   1.856   1.106   5.111 -0.2353 -1.1428 -1.0385
11821TIP3    H256955   1.756   1.085   4.999 -0.4942  2.0513 -1.5238
11822TIP3   OH256956   6.603   6.716  13.830 -1.0559 -0.0128  0.1316
11822TIP3    H156957   6.567   6.693  13.745  0.6485 -2.1660 -0.0992
11822TIP3    H256958   6.697   6.728  13.815 -1.0904  2.2486  1.2609
11823TIP3   OH256959   2.979   4.937  13.114 -0.0498  0.2200 -0.5323
11823TIP3    H156960   2.956   5.027  13.094  0.7061  1.3171  2.8053
11823TIP3    H256961   2.899   4.887  13.100 -0.2487  1.1462 -3.2941
11824TIP3   OH256962   5.438   3.935  14.661  0.4279 -0.4731 -0.7111
11824TIP3    H156963   5.345   3.951  14.649  0.0142 -3.0123 -1.4807
11824TIP3    H256964   5.444   3.842  14.682  2.6550  0.0159  1.3598
11825TIP3   OH256965   3.446   5.564  14.524 -0.2220 -0.6415  0.1791
11825TIP3    H156966   3.396   5.505  14.581 -1.4950 -2.4897 -2.6235
11825TIP3    H256967   3.451   5.518  14.441  0.9682  2.1750 -1.4485
11826TIP3   OH256968   4.304   2.091  12.993 -0.0845 -0.0084 -0.5307
11826TIP3    H156969   4.366   2.035  13.038  0.0912  0.0876 -0.6536
11826TIP3    H256970   4.337   2.097  12.903 -1.2625 -1.4562 -1.1074
11827TIP3   OH256971   3.688   0.931  13.561 -0.1439  0.1376  0.7991
11827TIP3    H156972   3.781   0.915  13.544 -0.2826  0.0437  0.1148
11827TIP3    H256973   3.681   1.027  13.565 -0.1315  0.1662  0.1814
11828TIP3   OH256974   3.076   3.985  13.351 -0.1932 -0.3382 -0.5964
11828TIP3    H156975   3.050   4.005  13.441  0.9616 -0.1677 -0.2874
11828TIP3    H256976   3.171   3.991  13.351 -0.2322  0.7819 -2.1112
11829TIP3   OH256977   2.583   5.302  16.615  0.0903  0.1367  0.5281
11829TIP3    H156978   2.606   5.383  16.569  1.0255 -1.5022 -2.1336
11829TIP3    H256979   2.586   5.325  16.708  2.4975  2.6093 -0.0310
11830TIP3   OH256980   5.103   3.879   1.679  0.3983 -0.0475 -0.3275
11830TIP3    H156981   5.047   3.904   1.752 -1.6260 -0.1537 -1.7472
11830TIP3    H256982   5.084   3.943   1.610  1.4892 -0.5247 -1.1130
11831TIP3   OH256983   4.990   1.438  17.128 -0.0785  0.0304 -0.1975
11831TIP3    H156984   4.958   1.443  17.038  0.5232  2.2924 -0.3517
11831TIP3    H256985   4.950   1.513  17.172  0.9858 -0.0393  0.9708
11832TIP3   OH256986   5.008   5.893  13.081 -0.0273 -0.0700  0.1685
11832TIP3    H156987   5.102   5.878  13.070 -0.1866 -1.8552  0.8771
11832TIP3    H256988   4.983   5.948  13.007  1.6859  1.0122  0.3413
11833TIP3   OH256989   3.763   0.115  15.858 -0.3973  0.4777 -0.5474
11833TIP3    H156990   3.671   0.120  15.830 -0.4879  0.7181 -0.2063
11833TIP3    H256991   3.811   0.159  15.787 -0.7047  1.7743  0.0168
11834TIP3   OH256992   6.738   5.470   2.844  0.2175  0.9828 -0.4321
11834TIP3    H156993   6.698   5.547   2.805  0.2884  0.5166 -1.4738
11834TIP3    H256994   6.665   5.421   2.881 -0.1500  0.4133 -1.8359
11835TIP3   OH256995   4.243   3.082  13.130  0.0058 -0.2394  0.0446
11835TIP3    H156996   4.169   3.064  13.188 -0.1346  0.3082  0.0356
11835TIP3    H256997   4.282   3.163  13.164  1.8258 -1.5486  1.2761
11836TIP3   OH256998   0.767   0.715  15.746 -0.1485 -0.3647 -0.5585
11836TIP3    H156999   0.829   0.783  15.774  0.9022 -1.4297 -0.1867
11836TIP3    H257000   0.791   0.696  15.655  1.2458 -1.9539  0.0849
11837TIP3   OH257001   2.503   0.511   4.201 -0.0985 -0.6459  0.1474
11837TIP3    H157002   2.484   0.433   4.253  2.0994 -1.0693  0.4145
11837TIP3    H257003   2.487   0.483   4.110 -1.2892 -0.7510  0.3783
11838TIP3   OH257004   3.189   5.663   3.122 -0.2606  0.0173  0.1625
11838TIP3    H157005   3.212   5.580   3.080  1.8800  1.4536 -1.7614
11838TIP3    H257006   3.167   5.721   3.050 -0.1996  1.5637  1.3454
11839TIP3   OH257007   4.697   2.568  13.948  0.6344 -0.1618  0.5937
11839TIP3    H157008   4.766   2.630  13.924  0.0678  0.3305  0.2083
11839TIP3    H257009   4.695   2.505  13.876  0.0199  0.4003  0.0955
11840TIP3   OH257010   2.820   4.187  10.708  0.1551 -0.0921 -0.1153
11840TIP3    H157011   2.896   4.132  10.687 -0.3616 -0.4855 -1.0126
11840TIP3    H257012   2.854   4.251  10.771  1.1840 -0.3755 -0.3548
11841TIP3   OH257013   2.886   5.889   2.897 -0.2029  0.2212  0.4140
11841TIP3    H157014   2.795   5.864   2.888 -0.1531 -0.0784  0.7350
11841TIP3    H257015   2.889   5.941   2.978  0.4450 -2.4436  2.2310
11842TIP3   OH257016   6.635   2.518   6.025 -0.2632  0.3048 -0.3805
11842TIP3    H157017   6.677   2.539   6.108 -0.8751  2.0551 -0.4751
11842TIP3    H257018   6.690   2.449   5.987  0.0955 -0.4421  1.3853
11843TIP3   OH257019   6.283   6.383   2.769 -0.0926 -0.1938 -0.1246
11843TIP3    H157020   6.233   6.353   2.845  0.2698  0.4088  0.3590
11843TIP3    H257021   6.374   6.365   2.791  0.3020  2.4664  0.8143
11844TIP3   OH257022   6.318   6.011   0.424  0.4044 -0.3047 -0.4478
11844TIP3    H157023   6.361   5.934   0.462 -0.2428  0.2102  1.4121
11844TIP3    H257024   6.255   5.974   0.362 -1.0793 -1.4518  1.6017
11845TIP3   OH257025   0.121   2.365   3.521  0.6215 -0.0589  0.4192
11845TIP3    H157026   0.140   2.410   3.603 -1.3683  0.3042  0.7356
11845TIP3    H257027   0.168   2.415   3.454  2.3221 -0.3994  1.3074
11846TIP3   OH257028   5.098   1.666  14.490  0.2452 -0.8470 -0.5358
11846TIP3    H157029   5.043   1.652  14.413  0.4755 -0.8518 -0.7007
11846TIP3    H257030   5.106   1.579  14.530 -0.9114 -0.6299  0.2083
11847TIP3   OH257031   2.622   0.657  11.939  0.0819 -0.0103  0.7733
11847TIP3    H157032   2.714   0.661  11.912  0.0768 -2.3966  0.1891
11847TIP3    H257033   2.617   0.580  11.994 -1.4713  0.4654  1.3307
11848TIP3   OH257034   1.044   0.620  15.726  0.2826  0.5392 -0.3331
11848TIP3    H157035   1.007   0.692  15.778 -1.8169 -1.0805  0.5941
11848TIP3    H257036   0.984   0.610  15.653  1.0490  0.2780 -0.9338
11849TIP3   OH257037   5.894   0.764   1.878  0.1430  0.0843  0.2074
11849TIP3    H157038   5.822   0.703   1.892 -1.2245  1.7361  0.8481
11849TIP3    H257039   5.958   0.743   1.946 -1.4533  0.9369  2.0654
11850TIP3   OH257040   3.835   2.090   6.707 -0.2489  0.2397 -0.6536
11850TIP3    H157041   3.762   2.029   6.718 -1.5577  1.8774  0.0602
11850TIP3    H257042   3.859   2.115   6.796  0.2093  0.8357 -0.9367
11851TIP3   OH257043   3.338   4.332  12.439  0.3249 -0.6216  0.6872
11851TIP3    H157044   3.328   4.428  12.438 -2.5156 -0.8149  1.1517
11851TIP3    H257045   3.325   4.309  12.531  0.2692 -1.4854  0.4669
11852TIP3   OH257046   6.775   2.287   5.967 -0.7747 -0.9722 -0.2570
11852TIP3    H157047   6.726   2.206   5.976  1.0162 -2.1137 -0.2419
11852TIP3    H257048   6.818   2.280   5.882  1.1906 -1.1152  0.6897
11853TIP3   OH257049   3.832   0.666   2.210 -0.1852  0.3045  0.0158
11853TIP3    H157050   3.921   0.664   2.175 -1.1158 -1.9637 -2.6512
11853TIP3    H257051   3.832   0.602   2.282  0.1976 -0.2828 -0.4937
11854TIP3   OH257052   5.423   0.470  14.809 -0.1316 -0.1046  0.4438
11854TIP3    H157053   5.411   0.448  14.717 -0.7025  1.9522 -0.0334
11854TIP3    H257054   5.491   0.410  14.840  1.4564  0.4051 -1.8223
11855TIP3   OH257055   4.041   2.087   2.653  0.0003  0.1912  0.4830
11855TIP3    H157056   4.131   2.065   2.678  0.1253 -0.5920 -0.6082
11855TIP3    H257057   3.987   2.033   2.711  0.2424  0.1501  0.6741
11856TIP3   OH257058   6.510   6.167  15.417 -0.0519 -0.3221 -0.2741
11856TIP3    H157059   6.528   6.080  15.451  0.0596 -0.4654 -0.6939
11856TIP3    H257060   6.596   6.209  15.413  0.0803 -0.6660 -1.3507
11857TIP3   OH257061   4.773   4.488  14.737 -0.0335  0.0834  0.1439
11857TIP3    H157062   4.704   4.462  14.676  0.3301 -0.0788 -0.2001
11857TIP3    H257063   4.743   4.456  14.822  0.6529 -1.9726 -0.3368
11858TIP3   OH257064   0.717   0.408   1.727 -0.1785 -0.1967 -0.5369
11858TIP3    H157065   0.723   0.316   1.753 -1.9571 -0.2895 -0.3626
11858TIP3    H257066   0.727   0.406   1.631  0.8724 -0.4304 -0.4389
11859TIP3   OH257067   6.111   0.258  16.458  0.1989 -0.1670  0.2220
11859TIP3    H157068   6.125   0.250  16.364 -0.0972  0.0763  0.1535
11859TIP3    H257069   6.181   0.315  16.489  0.5597 -0.6035  0.2244
11860TIP3   OH257070   0.224   1.104   3.972  0.1481 -0.0244  0.7364
11860TIP3    H157071   0.312   1.135   3.993  0.2944  0.6078 -0.6567
11860TIP3    H257072   0.177   1.105   4.055  1.9972 -2.3318  1.9077
11861TIP3   OH257073   3.699   3.896   5.883 -0.6252 -0.2089 -0.2126
11861TIP3    H157074   3.794   3.907   5.878 -0.5881 -0.0442  0.6489
11861TIP3    H257075   3.665   3.943   5.807 -0.1136  1.3585  0.4842
11862TIP3   OH257076   0.933   5.208  17.338 -0.3809 -0.0723 -0.0026
11862TIP3    H157077   0.927   5.302  17.358  0.0817 -0.0917  0.2301
11862TIP3    H257078   1.025   5.186  17.352 -0.3760 -0.4437 -0.5867
11863TIP3   OH257079   5.945   5.693   5.539  0.0023 -0.2061  0.3983
11863TIP3    H157080   6.040   5.690   5.546  0.0043 -1.4314  0.1996
11863TIP3    H257081   5.917   5.604   5.564 -1.0419 -0.0187 -0.0631
11864TIP3   OH257082   2.252   2.073  11.582 -0.1105 -0.0798  0.0105
11864TIP3    H157083   2.205   2.003  11.536 -0.8988  0.0112  0.6548
11864TIP3    H257084   2.275   2.034  11.667 -3.2293  1.3044  1.6570
11865TIP3   OH257085   3.720   0.129   5.216 -0.4078  0.9762 -0.2890
11865TIP3    H157086   3.691   0.167   5.299  0.5743  1.7595 -0.2870
11865TIP3    H257087   3.677   0.182   5.149 -1.0275  0.4808 -0.2960
11866TIP3   OH257088   5.444   1.280  15.891  0.9391 -0.2824 -0.0923
11866TIP3    H157089   5.436   1.185  15.881  0.3014 -0.0561 -2.0940
11866TIP3    H257090   5.356   1.309  15.915  0.7934 -0.0597 -0.8760
11867TIP3   OH257091   0.400   4.539  11.793 -0.0699 -0.0746  0.4605
11867TIP3    H157092   0.426   4.461  11.745 -2.9890 -0.8202 -0.1026
11867TIP3    H257093   0.339   4.507  11.860 -1.2745  1.6795  0.2705
11868TIP3   OH257094   4.855   5.129   1.607 -0.4827 -0.3921 -0.1974
11868TIP3    H157095   4.933   5.163   1.563 -0.6036  0.4376  0.2110
11868TIP3    H257096   4.858   5.035   1.593  1.7736 -0.6778  1.6712
11869TIP3   OH257097   5.577   1.707   0.470 -0.0445 -0.3273  0.6220
11869TIP3    H157098   5.634   1.725   0.545  1.2339 -1.2756 -0.0726
11869TIP3    H257099   5.570   1.791   0.425  0.2042 -0.0280  1.1358
11870TIP3   OH257100   6.496   0.973   3.461 -0.1062  0.3686  0.4771
11870TIP3    H157101   6.409   0.952   3.426 -1.3592 -0.1130  3.5029
11870TIP3    H257102   6.557   0.946   3.393 -2.2656 -0.3011 -1.3265
11871TIP3   OH257103   2.302   6.045  12.095  0.1832 -0.0596  0.4472
11871TIP3    H157104   2.243   6.108  12.136 -0.3396  0.0466 -0.4543
11871TIP3    H257105   2.249   5.967  12.080  0.4674 -0.2343  0.3307
11872TIP3   OH257106   4.436   6.665   6.545 -0.0431  0.1816  0.1360
11872TIP3    H157107   4.466   6.574   6.546  0.1703  0.2266  2.6594
11872TIP3    H257108   4.493   6.710   6.607 -1.5221  1.5759  0.5358
11873TIP3   OH257109   0.962   2.000  14.689 -0.2067  0.3991 -0.1629
11873TIP3    H157110   0.938   2.090  14.712 -0.2088 -0.3314  3.1471
11873TIP3    H257111   0.902   1.946  14.740  0.9413 -1.4916 -0.7284
11874TIP3   OH257112   0.447   2.250  14.104  0.5182  0.3409 -0.0640
11874TIP3    H157113   0.431   2.269  14.012  1.6217  2.5194  0.1228
11874TIP3    H257114   0.459   2.336  14.145 -0.2170 -0.5512  2.1799
11875TIP3   OH257115   2.712   5.260   5.857  0.5094  0.0975 -0.5305
11875TIP3    H157116   2.649   5.331   5.871 -0.1863 -0.9670  2.4507
11875TIP3    H257117   2.667   5.200   5.797 -0.7593  0.0696  0.4035
11876TIP3   OH257118   5.155   3.992  10.648 -0.5097  0.1700 -0.0707
11876TIP3    H157119   5.145   3.981  10.553  0.5310  0.3701 -0.2185
11876TIP3    H257120   5.226   3.933  10.671 -1.8300 -1.1117  0.8829
11877TIP3   OH257121   6.767   0.713   6.147  0.2864 -0.2405  0.0134
11877TIP3    H157122   6.861   0.727   6.161  0.7368 -1.5591 -1.4168
11877TIP3    H257123   6.762   0.628   6.103 -1.6601 -0.6307  0.8897
11878TIP3   OH257124   3.114   3.343   6.164 -0.7935  0.7494 -0.5986
11878TIP3    H157125   3.164   3.344   6.246 -0.2992 -0.0059 -0.8856
11878TIP3    H257126   3.089   3.434   6.150 -2.0635  0.7237  1.1172
11879TIP3   OH257127   3.225   3.792   5.283  0.0521 -0.1532  0.3016
11879TIP3    H157128   3.233   3.804   5.188 -0.1422  0.3716  0.3468
11879TIP3    H257129   3.133   3.808   5.301  0.6205  3.0391  1.0009
11880TIP3   OH257130   0.322   2.555   0.857  0.0777 -0.1921  0.4656
11880TIP3    H157131   0.285   2.504   0.784 -0.1938  0.9901 -0.2603
11880TIP3    H257132   0.352   2.490   0.920 -0.7535 -1.2316 -0.1847
11881TIP3   OH257133   4.427   4.825  16.445 -0.1229  0.1501 -0.8787
11881TIP3    H157134   4.440   4.837  16.539  0.0626 -0.5588 -0.8078
11881TIP3    H257135   4.500   4.871  16.404  0.5766 -0.7036 -0.6179
11882TIP3   OH257136   4.620   5.671  12.241 -0.6841 -0.5181  0.1007
11882TIP3    H157137   4.679   5.628  12.302 -0.8438  0.0602  0.6689
11882TIP3    H257138   4.666   5.669  12.157  0.6014  0.8152  0.7280
11883TIP3   OH257139   4.932   6.280  17.139  0.2445  0.2744 -0.1543
11883TIP3    H157140   4.916   6.229  17.219  0.9696  0.3411  0.0427
11883TIP3    H257141   4.988   6.224  17.086 -1.9735 -0.6917 -1.6131
11884TIP3   OH257142   5.852   2.717   0.054  0.2108 -0.0500  0.8138
11884TIP3    H157143   5.819   2.784   0.113  1.7979  0.8446  0.7480
11884TIP3    H257144   5.913   2.666   0.107 -0.6489 -1.1902  0.7409
11885TIP3   OH257145   6.196   1.495   5.468 -0.2783  0.0014  0.1849
11885TIP3    H157146   6.204   1.436   5.393  4.0416 -0.3464  0.7104
11885TIP3    H257147   6.203   1.583   5.429  0.9427 -0.1410  0.0647
11886TIP3   OH257148   3.323   5.793  13.378 -0.0058 -0.1896  0.2124
11886TIP3    H157149   3.363   5.853  13.441  2.4050 -0.6737 -0.7529
11886TIP3    H257150   3.395   5.764  13.322 -0.8647 -4.3993  0.8940
11887TIP3   OH257151   2.000   1.607  11.236  0.0464 -0.5817 -0.2162
11887TIP3    H157152   2.059   1.682  11.249 -1.1503  0.6174 -1.4276
11887TIP3    H257153   1.948   1.603  11.316  1.2242 -1.1953  0.5560
11888TIP3   OH257154   5.013   0.655  15.150  0.0954  0.1785  0.5684
11888TIP3    H157155   5.098   0.698  15.159 -0.0772  0.7909 -0.5021
11888TIP3    H257156   5.006   0.599  15.227  1.0619  0.8169  1.1474
11889TIP3   OH257157   0.647   6.020  16.189 -0.1662 -0.6357 -0.1386
11889TIP3    H157158   0.564   5.999  16.232  0.6185 -0.9560  1.2988
11889TIP3    H257159   0.650   6.116  16.189 -0.2391 -0.6291  0.4288
11890TIP3   OH257160   3.975   1.451  14.769 -0.1050  0.2762  0.0226
11890TIP3    H157161   3.995   1.397  14.845  1.7498  0.6406 -0.1656
11890TIP3    H257162   3.898   1.410  14.730 -0.2047 -0.7658  1.2738
11891TIP3   OH257163   4.262   3.235  14.528  0.7719 -0.2074  0.4974
11891TIP3    H157164   4.232   3.170  14.464  1.8190 -0.8561  0.6416
11891TIP3    H257165   4.195   3.233  14.596 -0.4028  0.5448 -0.5713
11892TIP3   OH257166   2.605   6.421  14.406 -0.3334  0.5282 -0.3014
11892TIP3    H157167   2.645   6.336  14.422 -0.2235  0.9017  1.7518
11892TIP3    H257168   2.673   6.484  14.429 -1.0627  1.1671  0.1523
11893TIP3   OH257169   0.805   0.346  14.765 -0.6668  0.2980 -0.2522
11893TIP3    H157170   0.848   0.397  14.697 -2.1394  2.1491  0.1174
11893TIP3    H257171   0.816   0.255  14.737  1.9159  0.7638 -1.0171
11894TIP3   OH257172   6.242   3.996   1.598  0.4062  0.1015  0.0225
11894TIP3    H157173   6.297   3.940   1.543  0.5249 -0.7799  1.0045
11894TIP3    H257174   6.302   4.033   1.662 -0.1079 -0.8751  1.1123
11895TIP3   OH257175   3.187   1.478   5.139  0.3709 -0.4429 -0.1722
11895TIP3    H157176   3.235   1.423   5.077 -0.9166 -1.3901 -0.3711
11895TIP3    H257177   3.195   1.433   5.223 -3.0570 -2.6585 -0.8294
11896TIP3   OH257178   6.171   4.438   5.301  0.1766 -0.1047 -0.1456
11896TIP3    H157179   6.241   4.458   5.239  0.7610 -1.0407  0.1940
11896TIP3    H257180   6.171   4.342   5.307 -1.0868 -0.1183 -0.0773
11897TIP3   OH257181   5.316   2.863   0.659 -0.0510  0.1236 -0.5240
11897TIP3    H157182   5.386   2.884   0.721  1.4375 -1.4215 -1.5956
11897TIP3    H257183   5.302   2.944   0.610  2.0771  0.1003 -1.2756
11898TIP3   OH257184   5.930   3.144   2.182  0.4724  0.2696 -0.0020
11898TIP3    H157185   5.956   3.053   2.163 -1.1328 -0.9346  2.9006
11898TIP3    H257186   6.010   3.186   2.212  0.8851 -0.7432  0.3735
11899TIP3   OH257187   5.353   4.651  11.449 -0.2439  0.4166 -0.3954
11899TIP3    H157188   5.310   4.576  11.409 -1.1087  1.2484 -1.0433
11899TIP3    H257189   5.332   4.643  11.542 -0.0747 -0.2997 -0.4095
11900TIP3   OH257190   2.582   5.268   0.840  0.2690 -0.7205  0.0179
11900TIP3    H157191   2.641   5.308   0.903 -0.6395  0.5463  0.0850
11900TIP3    H257192   2.532   5.204   0.891 -1.8202  1.6330  1.0906
11901TIP3   OH257193   6.718   2.812   0.648 -0.1642  0.2491 -0.1921
11901TIP3    H157194   6.693   2.729   0.608  0.6673  0.6836 -1.7095
11901TIP3    H257195   6.797   2.791   0.699  0.4941  0.2391 -1.1970
11902TIP3   OH257196   1.821   3.063  16.293 -0.3857 -0.4277 -0.0236
11902TIP3    H157197   1.875   3.057  16.214  0.2593  1.2979  0.2333
11902TIP3    H257198   1.735   3.090  16.262  0.4133  2.4081 -0.0573
11903TIP3   OH257199   1.522   0.877   3.705 -0.1621  0.1664  0.3704
11903TIP3    H157200   1.553   0.898   3.616  0.1854 -1.0709  0.1788
11903TIP3    H257201   1.428   0.892   3.702  0.1243  2.3347  0.4656
11904TIP3   OH257202   5.274   0.543  11.341 -0.1747  0.0871  0.1697
11904TIP3    H157203   5.353   0.547  11.287 -0.4257  0.4756 -0.1698
11904TIP3    H257204   5.202   0.532  11.279 -0.8479  3.7997  0.0825
11905TIP3   OH257205   0.660   1.914  14.613  0.0977 -0.6914 -0.0449
11905TIP3    H157206   0.601   1.979  14.574  3.1257  1.4467 -1.4546
11905TIP3    H257207   0.685   1.951  14.697  1.7686 -0.0193 -0.8130
11906TIP3   OH257208   3.462   3.089   6.119  0.6241  0.3500 -0.1669
11906TIP3    H157209   3.408   3.155   6.076 -0.6293 -0.1243  0.6309
11906TIP3    H257210   3.480   3.124   6.206 -1.1930 -0.8789  0.7693
11907TIP3   OH257211   1.632   3.619   2.703  0.0855 -0.2536 -0.3428
11907TIP3    H157212   1.648   3.600   2.795  0.0826  0.6764 -0.1418
11907TIP3    H257213   1.540   3.597   2.690  0.0984 -0.4346 -0.1394
11908TIP3   OH257214   3.180   1.204  15.443  0.4979  0.1151  0.2395
11908TIP3    H157215   3.182   1.124  15.391 -1.7936  0.5825 -0.6551
11908TIP3    H257216   3.090   1.213  15.472  0.9521  1.7681  1.3243
11909TIP3   OH257217   0.087   6.305   3.003 -0.3998 -0.1024  0.0441
11909TIP3    H157218   0.154   6.237   2.999 -0.1146  0.0699  1.3560
11909TIP3    H257219   0.013   6.263   3.047 -0.3765  0.2912  0.4724
11910TIP3   OH257220   3.744   0.798  14.025 -0.1183  0.2321  0.5461
11910TIP3    H157221   3.767   0.714  14.066  1.3121  1.0424  1.5150
11910TIP3    H257222   3.813   0.812  13.960 -1.4453 -0.2401 -1.0286
11911TIP3   OH257223   1.522   3.070   0.928  0.2015  0.2301 -0.1323
11911TIP3    H157224   1.548   2.982   0.902  1.6123  0.1742  1.3191
11911TIP3    H257225   1.497   3.113   0.846 -1.7382 -1.8453 -0.7529
11912TIP3   OH257226   5.206   5.714   1.546  0.2330  0.0194 -0.0041
11912TIP3    H157227   5.166   5.704   1.632  0.1073  1.1800  0.0809
11912TIP3    H257228   5.257   5.794   1.552  0.7621 -0.2441 -0.8144
11913TIP3   OH257229   2.584   0.215   0.926  0.3301 -0.5011 -0.0943
11913TIP3    H157230   2.615   0.125   0.923  1.8893 -0.1661  2.5666
11913TIP3    H257231   2.662   0.268   0.905 -0.3551  0.2630 -0.7924
11914TIP3   OH257232   4.581   3.136  16.051 -0.1779  0.1654  0.3710
11914TIP3    H157233   4.491   3.105  16.041  0.1478 -0.5265 -0.5539
11914TIP3    H257234   4.574   3.232  16.052 -1.0683  0.1256  1.9401
11915TIP3   OH257235   4.647   0.332  11.663 -0.1633 -0.2699 -0.2812
11915TIP3    H157236   4.694   0.280  11.598  0.1651 -0.1081 -0.1744
11915TIP3    H257237   4.593   0.268  11.711  1.2753 -0.7381  0.7790
11916TIP3   OH257238   2.255   5.979   2.193 -0.3507 -0.0854 -0.4732
11916TIP3    H157239   2.324   6.021   2.245 -1.3920  0.3453  0.6181
11916TIP3    H257240   2.173   6.011   2.232 -1.2700  1.6471 -3.4430
11917TIP3   OH257241   3.132   5.112   2.936 -0.4880  0.3321 -0.0322
11917TIP3    H157242   3.221   5.096   2.905 -0.6342  0.6380 -0.6167
11917TIP3    H257243   3.144   5.155   3.021 -0.0934 -2.1102  1.2520
11918TIP3   OH257244   2.358   2.168   1.594 -0.2833  0.0234 -0.3241
11918TIP3    H157245   2.354   2.226   1.518 -1.3779  0.7800  0.2933
11918TIP3    H257246   2.326   2.084   1.561 -1.5578  0.5627 -0.5309
11919TIP3   OH257247   4.932   5.910  14.856 -0.4466  0.0507 -0.0894
11919TIP3    H157248   5.002   5.972  14.875  0.0660  0.1552 -2.1466
11919TIP3    H257249   4.886   5.900  14.940 -0.0365  2.5444  0.5219
11920TIP3   OH257250   6.738   1.709   2.701 -0.5884 -0.0821 -0.2232
11920TIP3    H157251   6.659   1.751   2.734 -0.9828 -0.6755 -0.4035
11920TIP3    H257252   6.794   1.782   2.674 -0.8585  0.3584  0.3853
11921TIP3   OH257253   6.572   4.350  12.165 -0.3894  0.2335  0.1378
11921TIP3    H157254   6.617   4.267  12.147 -0.0399  0.6117 -0.8378
11921TIP3    H257255   6.485   4.324  12.194 -0.6042 -0.4951 -1.0561
11922TIP3   OH257256   6.095   0.259  17.028  0.5044  0.1780 -0.5851
11922TIP3    H157257   6.129   0.316  17.097  0.5736 -0.9642  0.3643
11922TIP3    H257258   6.012   0.226  17.063  1.3927 -1.8350 -0.2149
11923TIP3   OH257259   3.629   3.873   4.963 -0.5397  0.6301  0.6220
11923TIP3    H157260   3.580   3.811   5.018  0.9470 -2.1857 -0.9688
11923TIP3    H257261   3.712   3.884   5.009 -0.3690  0.5160  0.3411
11924TIP3   OH257262   1.546   1.484  16.284  0.5222  0.0293  0.1058
11924TIP3    H157263   1.522   1.435  16.205  0.7324  0.3014 -0.1301
11924TIP3    H257264   1.484   1.454  16.351 -0.0199  0.1997 -0.3085
11925TIP3   OH257265   5.968   4.627   1.042 -0.2916 -0.0567 -0.1058
11925TIP3    H157266   5.891   4.596   1.090 -0.4030  0.9201  0.3708
11925TIP3    H257267   6.039   4.571   1.074 -0.7938 -0.9922 -0.5777
11926TIP3   OH257268   0.156   6.148   4.396 -0.6654 -0.1235 -0.1945
11926TIP3    H157269   0.143   6.242   4.396 -0.5464 -0.1062 -0.9132
11926TIP3    H257270   0.236   6.134   4.346  0.7264 -0.4314  1.9818
11927TIP3   OH257271   0.498   4.049  16.692 -0.1364  0.1212  0.1262
11927TIP3    H157272   0.438   3.996  16.745 -0.6143 -0.1590 -0.6767
11927TIP3    H257273   0.441   4.098  16.633  0.2746  1.8277  1.0909
11928TIP3   OH257274   2.362   0.491  13.145 -0.1396 -0.8457 -0.0539
11928TIP3    H157275   2.335   0.481  13.053 -0.3945 -0.8892  0.0263
11928TIP3    H257276   2.370   0.401  13.177 -3.0496 -0.8822  0.8525
11929TIP3   OH257277   5.509   4.236  12.648  0.3608  0.1116  0.1635
11929TIP3    H157278   5.515   4.330  12.631  0.4612  0.0335 -0.2557
11929TIP3    H257279   5.421   4.211  12.619  0.4284  0.0296  0.0269
11930TIP3   OH257280   0.895   0.902  13.776  0.0642 -0.2965  0.6151
11930TIP3    H157281   0.852   0.917  13.861 -1.4073 -0.6651 -0.0304
11930TIP3    H257282   0.846   0.957  13.715  0.0641 -1.2682 -0.2779
11931TIP3   OH257283   0.180   1.661   2.197  0.0382 -0.2513 -0.2107
11931TIP3    H157284   0.202   1.666   2.104  0.6952  0.8961 -0.0118
11931TIP3    H257285   0.114   1.591   2.203  0.7211 -1.0233 -1.3857
11932TIP3   OH257286   6.308   2.263  15.638  0.0435 -0.3226 -0.1601
11932TIP3    H157287   6.322   2.351  15.604 -0.1123 -0.4607 -0.5885
11932TIP3    H257288   6.287   2.210  15.561 -1.5233 -0.4053  0.2885
11933TIP3   OH257289   5.661   4.270   1.520  0.7662 -0.3101  0.3008
11933TIP3    H157290   5.649   4.310   1.434  0.1653 -1.9355 -0.4152
11933TIP3    H257291   5.751   4.291   1.544  0.2044  2.2948  0.4696
11934TIP3   OH257292   0.916   3.918  15.651 -0.4851  0.0269 -0.1812
11934TIP3    H157293   0.910   3.836  15.700  0.3115 -0.1097 -0.3077
11934TIP3    H257294   0.998   3.911  15.602 -0.2994  0.9889 -0.0230
11935TIP3   OH257295   4.792   6.131   3.144  0.8285  0.0275 -0.4170
11935TIP3    H157296   4.814   6.063   3.080 -2.1978 -1.1508 -0.3748
11935TIP3    H257297   4.794   6.087   3.228  0.0523  0.2880 -0.2550
11936TIP3   OH257298   2.654   6.374   2.728 -0.5399 -0.3119 -0.2830
11936TIP3    H157299   2.638   6.282   2.751 -2.5639 -0.0276 -0.4132
11936TIP3    H257300   2.703   6.408   2.803  1.7290 -1.8555 -0.9514
11937TIP3   OH257301   1.734   4.474  14.261 -0.7375  0.1880  0.1264
11937TIP3    H157302   1.667   4.517  14.314  0.7168  0.1769  2.0528
11937TIP3    H257303   1.686   4.405  14.214 -1.9347 -0.5854  2.3193
11938TIP3   OH257304   1.968   0.717   0.245  0.1583 -0.1535  0.2639
11938TIP3    H157305   1.963   0.779   0.172  0.2138  1.1075  1.2907
11938TIP3    H257306   2.061   0.694   0.250  0.1931 -0.0537  0.0832
11939TIP3   OH257307   4.122   3.605   4.755 -0.0266 -0.1634  0.3759
11939TIP3    H157308   4.067   3.671   4.713 -1.7382 -1.8790 -0.2011
11939TIP3    H257309   4.177   3.572   4.684 -0.8488 -0.9924  0.1048
11940TIP3   OH257310   5.142   0.482   3.992 -0.2911 -0.2650 -0.1375
11940TIP3    H157311   5.192   0.493   3.911  0.4552 -0.2639  0.3119
11940TIP3    H257312   5.114   0.571   4.015 -0.5101 -0.2672 -0.3984
11941TIP3   OH257313   3.708   1.508  15.968  0.1370 -0.0828  0.3353
11941TIP3    H157314   3.714   1.461  16.051 -2.9000  1.1028  1.3420
11941TIP3    H257315   3.640   1.461  15.919  1.0533 -0.0407 -1.0267
11942TIP3   OH257316   2.327   4.522  17.395 -0.9820  0.0698 -0.0933
11942TIP3    H157317   2.236   4.552  17.404 -1.0867  0.2877 -1.6302
11942TIP3    H257318   2.373   4.565  17.467 -1.8407  0.9883 -0.0645
11943TIP3   OH257319   3.632   1.985   6.385  0.5475  0.4538  0.0565
11943TIP3    H157320   3.670   2.069   6.410  0.0096  0.7188  0.0102
11943TIP3    H257321   3.556   2.008   6.331  2.6611 -0.0867 -3.4840
11944TIP3   OH257322   5.336   1.327  14.370 -0.4629 -0.0905 -0.2732
11944TIP3    H157323   5.323   1.405  14.315  1.8985  0.3630 -0.3274
11944TIP3    H257324   5.378   1.362  14.449  0.7879 -1.3063 -0.3737
11945TIP3   OH257325   2.462   5.415  15.239  0.0637 -0.0842  0.3438
11945TIP3    H157326   2.383   5.469  15.248  0.9092  1.0256  1.5556
11945TIP3    H257327   2.485   5.392  15.329  0.9960 -0.5852 -0.0177
11946TIP3   OH257328   0.389   3.145   4.515 -0.3698  0.0584  0.5670
11946TIP3    H157329   0.430   3.086   4.578 -0.9432 -2.3340 -1.1765
11946TIP3    H257330   0.461   3.199   4.482  0.6111 -1.1858  0.6041
11947TIP3   OH257331   1.889   3.366   4.981 -0.1387 -0.1348  0.6423
11947TIP3    H157332   1.857   3.283   5.017  0.3081  0.1499  1.7259
11947TIP3    H257333   1.835   3.380   4.903 -1.6687 -0.4010  1.5939
11948TIP3   OH257334   0.110   1.679   5.998  0.9110 -0.2812 -0.1967
11948TIP3    H157335   0.016   1.693   6.013  0.8103  0.8423 -1.6606
11948TIP3    H257336   0.128   1.725   5.916  2.8105 -0.2311  0.2111
11949TIP3   OH257337   6.686   5.168   2.762  0.7361 -0.2411  0.0108
11949TIP3    H157338   6.776   5.195   2.746  0.8007 -0.3938  0.1182
11949TIP3    H257339   6.635   5.248   2.748  0.7763 -0.3885 -1.0109
11950TIP3   OH257340   4.469   3.756   3.176 -0.9104 -0.4305  0.2537
11950TIP3    H157341   4.461   3.831   3.116  0.4853 -1.2120 -0.9628
11950TIP3    H257342   4.508   3.793   3.255 -0.7865  0.2417 -0.1146
11951TIP3   OH257343   3.677   3.967  13.018  0.1831 -0.0402  0.0130
11951TIP3    H157344   3.675   4.061  13.034 -0.6831 -0.0356 -0.0850
11951TIP3    H257345   3.590   3.946  12.985  0.4986 -0.8088 -0.3627
11952TIP3   OH257346   3.126   3.594  13.078 -0.5468 -0.1205  0.5171
11952TIP3    H157347   3.120   3.498  13.073  0.2439 -0.2177  1.2029
11952TIP3    H257348   3.074   3.617  13.155  0.2896 -0.1290  1.1003
11953TIP3   OH257349   5.788   4.763   0.865  0.6199 -0.0531  0.3352
11953TIP3    H157350   5.832   4.726   0.941  1.3186  0.8164  0.3816
11953TIP3    H257351   5.859   4.781   0.803  0.0954 -0.4567 -0.3958
11954TIP3   OH257352   6.094   2.784  11.879 -0.1101  0.0124 -0.3495
11954TIP3    H157353   6.169   2.844  11.875 -0.1097 -0.0392 -2.8020
11954TIP3    H257354   6.132   2.698  11.863 -0.5903 -0.1031 -0.8919
11955TIP3   OH257355   0.461   3.524  12.501  0.8076  0.2140  0.3122
11955TIP3    H157356   0.539   3.504  12.450 -0.2574 -0.5082 -1.1319
11955TIP3    H257357   0.471   3.475  12.582  1.8019  0.0632  0.1067
11956TIP3   OH257358   1.076   2.565  16.304 -0.2415  0.1541  0.1577
11956TIP3    H157359   1.033   2.479  16.305  0.3149 -0.1647 -1.1756
11956TIP3    H257360   1.136   2.563  16.379 -2.5722  0.6738  2.1698
11957TIP3   OH257361   6.763   3.347  16.589 -0.2434 -0.3043 -0.6483
11957TIP3    H157362   6.704   3.317  16.519 -2.5245  0.7494  0.6817
11957TIP3    H257363   6.729   3.434  16.612  1.0195 -0.2343  1.1238
11958TIP3   OH257364   0.678   3.691  13.710 -0.0391 -0.1395 -0.4310
11958TIP3    H157365   0.748   3.735  13.662  1.6750 -1.7642  0.4749
11958TIP3    H257366   0.649   3.754  13.775  0.1803  0.7479 -1.1796
11959TIP3   OH257367   1.308   1.247   0.965 -0.0543 -0.3365  0.1293
11959TIP3    H157368   1.311   1.234   0.871 -1.3138  0.2484 -0.0139
11959TIP3    H257369   1.325   1.160   1.002  1.4425 -0.3773 -0.5916
11960TIP3   OH257370   1.739   6.597  12.056 -0.5520  0.0534 -0.1626
11960TIP3    H157371   1.721   6.657  12.128 -0.5002 -0.3844  0.2204
11960TIP3    H257372   1.834   6.597  12.046 -0.2932 -1.8904  1.5542
11961TIP3   OH257373   3.552   5.475  12.841  0.6613 -0.1175 -0.3336
11961TIP3    H157374   3.518   5.452  12.927  2.6481 -1.6018  0.1390
11961TIP3    H257375   3.636   5.519  12.859  1.4633 -1.0977 -1.4750
11962TIP3   OH257376   1.129   1.798   5.055  0.1218 -0.3907  0.2592
11962TIP3    H157377   1.174   1.777   4.973  0.1043  0.3989  0.0367
11962TIP3    H257378   1.070   1.870   5.031 -0.9183 -1.0918  0.6481
11963TIP3   OH257379   5.505   5.964   4.989  0.0152  0.4272  0.1370
11963TIP3    H157380   5.587   5.919   5.007  0.9410  1.7357 -0.6438
11963TIP3    H257381   5.438   5.897   5.001  1.1106 -0.4753  1.5482
11964TIP3   OH257382   5.865   2.106   5.892  0.6512  0.2403  0.0247
11964TIP3    H157383   5.812   2.061   5.826 -0.3499 -0.6005  1.3646
11964TIP3    H257384   5.941   2.049   5.904  0.7256  0.2840 -0.2187
11965TIP3   OH257385   4.730   5.492   4.373  0.0789  0.4397 -0.0200
11965TIP3    H157386   4.680   5.410   4.365  1.1213 -0.1613 -0.5508
11965TIP3    H257387   4.680   5.555   4.321 -0.9547  0.2701  0.7173
11966TIP3   OH257388   6.284   2.617   5.320  0.2437 -0.7959  0.1330
11966TIP3    H157389   6.300   2.645   5.230  0.3919 -0.4126  0.2772
11966TIP3    H257390   6.304   2.523   5.320  1.1755 -0.6100 -0.0164
11967TIP3   OH257391   3.235   6.301  10.957 -0.3466  0.2202 -0.2583
11967TIP3    H157392   3.244   6.228  11.019 -1.1944  0.1185 -0.2475
11967TIP3    H257393   3.263   6.265  10.873  1.6011  0.5795  0.1700
11968TIP3   OH257394   2.429   2.449  16.265 -0.4419  0.1711 -0.1043
11968TIP3    H157395   2.463   2.432  16.177  1.0749 -0.7925  0.6125
11968TIP3    H257396   2.507   2.443  16.321 -1.0543  2.5130  1.1081
11969TIP3   OH257397   0.386   2.418  11.756  0.4849  0.3359  0.6350
11969TIP3    H157398   0.477   2.391  11.745  0.5584  0.1999  1.5125
11969TIP3    H257399   0.353   2.427  11.667  1.9205  2.3716  0.2351
11970TIP3   OH257400   2.473   4.365  11.919  0.6836  0.2275  0.4522
11970TIP3    H157401   2.509   4.435  11.866  2.3245 -2.1786 -1.9073
11970TIP3    H257402   2.529   4.362  11.997  2.6017 -0.3361 -0.8791
11971TIP3   OH257403   4.980   4.267  12.813 -0.0214 -0.5157  0.1038
11971TIP3    H157404   4.898   4.225  12.842  0.3700 -0.6490  1.0689
11971TIP3    H257405   5.028   4.282  12.894  1.3079 -1.2568 -0.5171
11972TIP3   OH257406   1.948   2.089   0.753  0.7614  0.0649  0.0010
11972TIP3    H157407   2.037   2.075   0.722  0.7562 -0.6863  0.3060
11972TIP3    H257408   1.893   2.047   0.687  0.5851  1.0721 -0.5194
11973TIP3   OH257409   5.184   0.857  11.482 -0.4719  0.1766  0.5488
11973TIP3    H157410   5.185   0.910  11.562 -0.9780  1.0900 -0.0331
11973TIP3    H257411   5.098   0.874  11.443  0.6089  1.5785 -1.3743
11974TIP3   OH257412   2.534   1.230   1.458  0.1549  0.0692  0.2304
11974TIP3    H157413   2.508   1.293   1.390 -0.7672  0.5390  0.9851
11974TIP3    H257414   2.530   1.145   1.415 -1.1053  0.2899 -0.1367
11975TIP3   OH257415   0.627   4.626   6.402 -0.3362  0.2684  0.0509
11975TIP3    H157416   0.554   4.608   6.342 -0.9956  0.4328  0.7784
11975TIP3    H257417   0.588   4.619   6.489  0.1279  1.9856  0.4349
11976TIP3   OH257418   0.984   0.891  12.853 -0.3373  0.2493 -0.1804
11976TIP3    H157419   0.979   0.802  12.888 -2.1179  0.1162 -0.6661
11976TIP3    H257420   0.954   0.947  12.925  1.2443  0.5504  0.2932
11977TIP3   OH257421   0.458   1.578   2.251 -0.0333 -0.3526  0.2036
11977TIP3    H157422   0.388   1.635   2.219  0.6786  1.8363  2.3006
11977TIP3    H257423   0.417   1.527   2.321  0.1976  0.2032  0.7509
11978TIP3   OH257424   1.920   2.937  11.575 -0.2954 -0.0953  0.1625
11978TIP3    H157425   1.911   2.872  11.505  3.1299  1.1164 -1.6174
11978TIP3    H257426   1.936   2.886  11.654  2.0026 -1.5418 -1.1301
11979TIP3   OH257427   2.417   3.447  11.007 -0.3548 -0.4591 -0.1931
11979TIP3    H157428   2.357   3.492  10.947  0.1934  0.9904  0.3016
11979TIP3    H257429   2.433   3.511  11.077  0.8195 -1.2682  0.3100
11980TIP3   OH257430   4.206   2.291  16.806 -0.6179 -0.4633 -0.5162
11980TIP3    H157431   4.248   2.239  16.874 -0.9830  1.3697  1.2198
11980TIP3    H257432   4.276   2.308  16.743  0.5230  0.0541  0.8171
11981TIP3   OH257433   0.932   4.660  12.074  0.1913 -0.2515  0.2308
11981TIP3    H157434   0.987   4.667  12.152  1.5750  1.5876 -0.8320
11981TIP3    H257435   0.844   4.647  12.109  1.1588 -2.7379  1.9912
11982TIP3   OH257436   5.066   0.217  13.706 -0.0920 -0.2991  0.4735
11982TIP3    H157437   5.144   0.227  13.760  0.5121 -1.3476 -0.1672
11982TIP3    H257438   5.022   0.302  13.710  1.1104  0.3238  0.7983
11983TIP3   OH257439   6.607   2.719  12.334  0.3553  0.1793 -0.1459
11983TIP3    H157440   6.619   2.654  12.403 -0.6487 -0.0867 -0.1942
11983TIP3    H257441   6.512   2.726  12.325  0.4127 -0.9522 -2.5523
11984TIP3   OH257442   0.253   4.580   1.934  0.2836  0.2543 -0.0568
11984TIP3    H157443   0.157   4.583   1.931  0.3135  1.0357 -0.9115
11984TIP3    H257444   0.273   4.512   1.998 -0.8353  0.6354  0.7239
11985TIP3   OH257445   5.679   2.360  10.980 -0.0480  0.2909  0.0896
11985TIP3    H157446   5.642   2.435  11.026 -2.7790 -2.5172  2.9443
11985TIP3    H257447   5.606   2.322  10.931  0.7693 -1.5335  0.1929
11986TIP3   OH257448   5.499   1.763  13.544 -0.6319  0.1147 -0.5607
11986TIP3    H157449   5.476   1.670  13.545 -0.3101  0.0247 -1.2349
11986TIP3    H257450   5.477   1.793  13.456 -1.2521  0.8183 -0.1815
11987TIP3   OH257451   5.677   5.759   2.934  0.5283 -0.5508  0.1343
11987TIP3    H157452   5.691   5.749   3.028 -1.2005 -1.0624  0.3690
11987TIP3    H257453   5.622   5.684   2.910 -1.0127  0.8300 -0.8272
11988TIP3   OH257454   3.872   3.371  17.252  0.0046 -0.1274 -0.3098
11988TIP3    H157455   3.952   3.401  17.294  0.0704 -0.1353 -0.4303
11988TIP3    H257456   3.863   3.280  17.280 -0.7798  0.3131  0.9494
11989TIP3   OH257457   5.340   5.191  15.159 -0.2656 -0.3076  0.0068
11989TIP3    H157458   5.319   5.164  15.249  0.7525 -2.6275 -0.3652
11989TIP3    H257459   5.433   5.168  15.149 -0.7768 -1.6975 -2.1245
11990TIP3   OH257460   5.847   1.727  11.974 -0.0848 -0.1920 -0.0411
11990TIP3    H157461   5.850   1.654  12.036 -2.6045 -1.3942 -1.1845
11990TIP3    H257462   5.814   1.801  12.026  0.7095 -0.3352  0.6931
11991TIP3   OH257463   4.404   2.951   2.933 -0.1149 -0.6388 -0.1218
11991TIP3    H157464   4.477   2.964   2.993  0.2737 -1.0618 -0.4940
11991TIP3    H257465   4.445   2.930   2.849 -0.6222  1.1420 -0.8564
11992TIP3   OH257466   6.187   2.553   1.072 -0.2276 -0.3761  0.3862
11992TIP3    H157467   6.265   2.508   1.040 -0.8767 -0.1663 -1.6924
11992TIP3    H257468   6.218   2.637   1.104  0.3713 -0.1009 -0.8586
11993TIP3   OH257469   5.876   4.995   2.128  0.7183  0.3613 -0.1529
11993TIP3    H157470   5.891   4.900   2.123  1.0088  0.4530 -1.3482
11993TIP3    H257471   5.908   5.020   2.215 -2.6552 -1.1790  1.7298
11994TIP3   OH257472   3.697   0.540   3.956 -0.4082 -0.1464  0.2329
11994TIP3    H157473   3.752   0.546   4.034 -0.2688 -0.2580  0.1456
11994TIP3    H257474   3.754   0.500   3.890 -0.6417 -0.3999  0.1823
11995TIP3   OH257475   5.958   5.878   0.873  0.6803  0.2368 -0.0561
11995TIP3    H157476   5.910   5.954   0.905 -2.4425 -1.0882 -1.1802
11995TIP3    H257477   6.006   5.846   0.949 -0.9597  1.1469  1.4468
11996TIP3   OH257478   4.434   5.765   3.859  0.2972  0.1249  0.5278
11996TIP3    H157479   4.393   5.824   3.922  1.0877  0.4430  0.7645
11996TIP3    H257480   4.425   5.811   3.775 -1.1652 -0.5125  0.3131
11997TIP3   OH257481   4.934   4.806  13.706 -0.1953  0.3614  0.2774
11997TIP3    H157482   4.955   4.721  13.744 -0.4419 -0.0675 -0.5213
11997TIP3    H257483   4.976   4.870  13.764  0.7084 -0.3361  0.4032
11998TIP3   OH257484   2.115   6.027  11.790  0.1332  0.4862 -0.0509
11998TIP3    H157485   2.145   5.964  11.724 -1.5259 -0.0557 -0.3413
11998TIP3    H257486   2.122   5.980  11.873  0.0589  0.3380 -0.1262
11999TIP3   OH257487   2.680   0.816   1.233 -0.3248 -0.0071  0.4231
11999TIP3    H157488   2.649   0.759   1.163 -2.0859  1.9530 -0.4709
11999TIP3    H257489   2.662   0.767   1.313 -3.3625 -0.1078 -0.2134
12000TIP3   OH257490   1.520   4.566  12.265 -0.8067  0.2373 -0.2197
12000TIP3    H157491   1.583   4.550  12.195 -0.7479  1.9825 -0.6329
12000TIP3    H257492   1.549   4.648  12.305 -1.8733  0.2162  0.6623
12001TIP3   OH257493   2.109   5.283  13.189  0.8906  0.2801  0.4383
12001TIP3    H157494   2.130   5.356  13.131 -0.3947 -0.5898 -1.2281
12001TIP3    H257495   2.095   5.323  13.274  1.2026  1.8346 -0.2062
12002TIP3   OH257496   1.407   4.910   2.839 -0.1009 -0.1708 -0.2167
12002TIP3    H157497   1.461   4.831   2.834 -0.6240 -0.5287 -0.2092
12002TIP3    H257498   1.398   4.927   2.933  0.8524  0.4834 -0.2275
12003TIP3   OH257499   6.227   2.165   6.057  0.2360  0.3817 -0.1771
12003TIP3    H157500   6.218   2.234   6.123  1.1616  1.6908 -1.3259
12003TIP3    H257501   6.209   2.210   5.974  0.4365 -0.8864 -0.9317
12004TIP3   OH257502   4.360   3.982  11.423  0.0561 -0.5734 -0.1009
12004TIP3    H157503   4.427   4.042  11.456  0.0156 -0.5522 -0.0569
12004TIP3    H257504   4.311   4.033  11.359 -1.8192  0.3923  1.9790
12005TIP3   OH257505   3.624   4.716   4.175  0.3111  0.0501 -0.2242
12005TIP3    H157506   3.578   4.795   4.202  3.0793  1.6781  0.1543
12005TIP3    H257507   3.588   4.647   4.231 -1.8714  1.0953 -0.2496
12006TIP3   OH257508   3.969   1.120   1.020  0.2325  0.1572 -0.6572
12006TIP3    H157509   3.920   1.039   1.032 -1.7269  1.4442  0.6761
12006TIP3    H257510   4.040   1.115   1.084 -0.1417 -0.3226 -0.2766
12007TIP3   OH257511   3.395   3.492   1.286  0.1904 -0.1592 -0.4027
12007TIP3    H157512   3.467   3.430   1.275 -0.6878 -1.7041  1.6865
12007TIP3    H257513   3.322   3.451   1.239 -0.5634 -1.1367  1.4984
12008TIP3   OH257514   3.523   5.641  12.026 -0.9092 -0.1446  0.0939
12008TIP3    H157515   3.591   5.624  12.092 -1.8520  0.3832  1.2563
12008TIP3    H257516   3.570   5.676  11.951  0.2436 -1.0784  0.3673
12009TIP3   OH257517   4.559   3.145   3.964  0.0559 -0.2288  0.0515
12009TIP3    H157518   4.535   3.179   3.878 -2.5199 -0.7340  0.4830
12009TIP3    H257519   4.634   3.089   3.948 -0.2230 -0.1272 -1.8222
12010TIP3   OH257520   0.308   1.407   1.547 -0.8367 -0.5193 -0.1448
12010TIP3    H157521   0.342   1.319   1.534  0.8026 -0.3039  2.0033
12010TIP3    H257522   0.382   1.465   1.529 -1.8111  0.4213 -1.2613
12011TIP3   OH257523   4.512   3.206   1.153 -0.3919 -0.8135 -0.0488
12011TIP3    H157524   4.510   3.110   1.144 -0.9166 -0.7595 -0.5381
12011TIP3    H257525   4.530   3.238   1.065 -0.3283 -0.4540  0.0938
12012TIP3   OH257526   1.981   6.268   4.220  0.0084  0.0879  0.4073
12012TIP3    H157527   2.001   6.175   4.204 -1.7695 -0.2260 -0.3375
12012TIP3    H257528   2.038   6.293   4.292  3.2036 -0.5150 -1.6956
12013TIP3   OH257529   0.721   6.712   0.793  0.3305 -0.3376 -0.3556
12013TIP3    H157530   0.778   6.786   0.771 -0.5430  0.3718 -0.3021
12013TIP3    H257531   0.776   6.652   0.843  0.9036  0.5436  0.0834
12014TIP3   OH257532   5.757   0.261   3.194  0.3178  0.2425 -0.7351
12014TIP3    H157533   5.823   0.310   3.145  0.5490  1.9081  1.1339
12014TIP3    H257534   5.673   0.293   3.162  0.4235 -0.2305 -1.5077
12015TIP3   OH257535   5.097   4.444  11.953 -0.3253 -0.2715 -0.0865
12015TIP3    H157536   5.097   4.376  12.020  0.2135 -1.1158 -0.9346
12015TIP3    H257537   5.184   4.482  11.957 -1.2516  1.9442  1.8979
12016TIP3   OH257538   3.883   1.270   2.813  0.8860 -0.2493 -0.2993
12016TIP3    H157539   3.919   1.225   2.737  0.8294  1.8232 -1.6472
12016TIP3    H257540   3.791   1.243   2.815  1.0781 -0.9382 -0.4801
12017TIP3   OH257541   6.682   3.353  15.013 -0.1671  0.2884 -0.4174
12017TIP3    H157542   6.634   3.434  15.032 -1.1015 -0.0908 -1.1318
12017TIP3    H257543   6.618   3.296  14.970  0.9876 -0.1139 -1.6829
12018TIP3   OH257544   4.302   4.329   5.980  0.3497  0.4080  0.0233
12018TIP3    H157545   4.370   4.265   5.960 -1.0371 -0.7769 -1.1149
12018TIP3    H257546   4.248   4.332   5.902 -2.0092 -0.1363  1.5204
12019TIP3   OH257547   2.615   5.003   5.227 -0.0935  0.2473 -0.4840
12019TIP3    H157548   2.537   4.957   5.256 -1.0714  2.3491  0.4468
12019TIP3    H257549   2.656   5.035   5.308  1.2447 -0.0306 -1.0157
12020TIP3   OH257550   5.037   0.708  12.355  0.2944  0.3384  0.1264
12020TIP3    H157551   5.100   0.762  12.307  1.7097  0.3214  1.8563
12020TIP3    H257552   4.971   0.771  12.386 -0.0687  0.4959 -0.9265
12021TIP3   OH257553   0.317   5.428   4.639 -0.2849 -0.4238 -0.5116
12021TIP3    H157554   0.245   5.491   4.649  0.5726  0.4247  0.8063
12021TIP3    H257555   0.305   5.366   4.711  0.5129 -0.0149  0.0000
12022TIP3   OH257556   1.359   1.499   3.899 -0.5623 -0.1241  0.0963
12022TIP3    H157557   1.284   1.482   3.957 -2.1085  0.9044 -1.5046
12022TIP3    H257558   1.346   1.589   3.869  0.7527 -0.2851 -1.0416
12023TIP3   OH257559   1.005   4.902  14.791  0.0817 -0.3821 -0.3075
12023TIP3    H157560   0.987   4.972  14.728  0.3016 -0.2824 -0.2594
12023TIP3    H257561   1.048   4.947  14.864  1.6698 -0.8155 -0.9436
12024TIP3   OH257562   0.063   6.088  15.208  0.6064 -0.2595  0.2627
12024TIP3    H157563   0.044   5.998  15.234 -0.3381 -0.3841 -0.8056
12024TIP3    H257564   0.040   6.092  15.115 -0.8857  1.5050  0.6654
12025TIP3   OH257565   6.657   1.454  13.186  0.3597  1.0326 -0.2785
12025TIP3    H157566   6.712   1.378  13.165 -0.9797  0.0887 -0.4916
12025TIP3    H257567   6.709   1.504  13.248  1.1987 -0.1654  0.0304
12026TIP3   OH257568   0.193   0.118   3.883  0.0350 -0.0158 -0.2792
12026TIP3    H157569   0.176   0.201   3.839  1.5309  0.6044  0.2412
12026TIP3    H257570   0.288   0.110   3.883  0.0488 -0.4736  1.9168
12027TIP3   OH257571   2.972   3.311  16.517 -0.0618  0.1051 -0.9297
12027TIP3    H157572   2.949   3.347  16.602  0.3278 -2.1505  0.1993
12027TIP3    H257573   3.061   3.341  16.500 -0.0617  0.3886 -0.4250
12028TIP3   OH257574   2.502   3.094  14.340  0.4500  0.4626  0.5604
12028TIP3    H157575   2.541   3.062  14.422  0.2156  1.6252  1.1480
12028TIP3    H257576   2.461   3.177  14.364  1.2620  1.3384 -0.9727
12029TIP3   OH257577   5.176   5.125  11.385  0.5348  0.3357 -0.0657
12029TIP3    H157578   5.096   5.074  11.373 -0.2585  0.1739  4.3206
12029TIP3    H257579   5.230   5.072  11.443  3.4283  0.9640 -1.9944
12030TIP3   OH257580   3.134   2.920   0.456  0.1063  0.3925  0.2116
12030TIP3    H157581   3.129   2.889   0.547  0.3392  1.5240  0.6293
12030TIP3    H257582   3.215   2.883   0.422 -0.2929 -0.5474  0.2623
12031TIP3   OH257583   2.959   4.881  13.774  0.2992  0.2427  0.0684
12031TIP3    H157584   3.024   4.890  13.704 -1.4336  0.0415 -1.6594
12031TIP3    H257585   3.003   4.826  13.840  1.2901 -1.4427 -1.8577
12032TIP3   OH257586   4.780   5.759   1.835  0.1053  0.0147 -0.7718
12032TIP3    H157587   4.813   5.670   1.845  0.4159  0.1070 -0.9460
12032TIP3    H257588   4.697   5.749   1.789 -1.5812 -0.4531  2.1585
12033TIP3   OH257589   1.808   4.130  12.721 -0.0685  0.4565 -0.3061
12033TIP3    H157590   1.715   4.146  12.702 -0.8940  0.3573  3.0248
12033TIP3    H257591   1.850   4.216  12.709 -1.3347  1.4021  1.5333
12034TIP3   OH257592   5.718   3.390  12.207  0.0869 -0.7879  0.0440
12034TIP3    H157593   5.633   3.350  12.227 -0.5046  0.7627  0.7596
12034TIP3    H257594   5.751   3.339  12.133 -1.9122 -0.8362 -0.8879
12035TIP3   OH257595   3.180   2.160  10.914  0.3022 -0.1898  0.3981
12035TIP3    H157596   3.155   2.184  10.825 -1.2134 -0.5451  0.7036
12035TIP3    H257597   3.275   2.149  10.910  0.0896 -1.7725 -1.5438
12036TIP3   OH257598   2.080   3.794   6.733 -0.0528  0.0284 -0.6372
12036TIP3    H157599   2.055   3.834   6.815  0.8375  0.3116 -0.4909
12036TIP3    H257600   2.051   3.703   6.741  0.6314 -0.1254  0.2763
12037TIP3   OH257601   1.597   2.615  15.954  0.0045  0.7830 -0.4057
12037TIP3    H157602   1.595   2.690  16.014 -0.1095  0.9029 -0.5589
12037TIP3    H257603   1.530   2.555  15.990  2.3587 -0.7913  1.6975
12038TIP3   OH257604   3.779   0.046   0.953  0.0081 -0.2485  0.2180
12038TIP3    H157605   3.839   0.120   0.938 -0.1951 -0.1808 -0.2629
12038TIP3    H257606   3.811   0.006   1.034  1.2202 -0.7186 -0.4619
12039TIP3   OH257607   4.105   3.092  14.008  0.0158  0.1103  0.4572
12039TIP3    H157608   4.171   3.135  13.954 -0.2698  0.2375  0.2008
12039TIP3    H257609   4.075   3.018  13.954 -0.7555  0.6361  0.1484
12040TIP3   OH257610   0.842   1.159  15.829 -0.4378  0.1235 -0.6108
12040TIP3    H157611   0.853   1.241  15.781 -0.3600 -0.5917 -1.8610
12040TIP3    H257612   0.891   1.094  15.777 -0.0850 -0.6223  0.6116
12041TIP3   OH257613   6.243   1.798   0.761 -0.7910 -0.2830  0.1781
12041TIP3    H157614   6.235   1.891   0.779  0.5634  0.1742 -1.3920
12041TIP3    H257615   6.153   1.768   0.749 -1.2375  0.8133  0.6737
12042TIP3   OH257616   4.119   4.384   5.307 -0.9342 -0.2363  0.1156
12042TIP3    H157617   4.054   4.453   5.319 -2.0655 -0.9205 -1.6485
12042TIP3    H257618   4.069   4.311   5.270  1.0061 -0.3597 -2.5508
12043TIP3   OH257619   1.096   3.175   0.247 -0.0266 -0.5791 -0.5001
12043TIP3    H157620   1.135   3.263   0.244  0.1682 -0.6403  0.0403
12043TIP3    H257621   1.002   3.190   0.249  0.0114 -0.2961  1.3283
12044TIP3   OH257622   2.216   0.359  13.753  0.3956 -0.2122 -0.0089
12044TIP3    H157623   2.304   0.358  13.713  0.0026  0.5679 -0.9335
12044TIP3    H257624   2.185   0.449  13.740 -0.4062 -0.3886  0.6218
12045TIP3   OH257625   5.051   1.913  17.343 -0.7120  0.1522  0.2471
12045TIP3    H157626   5.061   2.000  17.305 -0.0041 -0.3723 -0.8071
12045TIP3    H257627   5.139   1.876  17.345 -1.1084 -0.8631 -0.1238
12046TIP3   OH257628   5.561   1.572   1.920  0.4612  0.3575 -0.0412
12046TIP3    H157629   5.568   1.500   1.858  1.7863  0.9118 -0.5711
12046TIP3    H257630   5.568   1.530   2.006 -0.4571 -0.3077 -0.2689
12047TIP3   OH257631   6.042   0.703  13.195 -0.1966  0.1360  0.0440
12047TIP3    H157632   6.066   0.789  13.230  0.0718  0.0457  0.0905
12047TIP3    H257633   5.954   0.687  13.229  0.8267 -0.8463  2.4252
12048TIP3   OH257634   0.945   4.067   1.403 -0.2145 -0.0997 -0.5841
12048TIP3    H157635   1.041   4.067   1.398 -0.2386 -1.4342 -1.5162
12048TIP3    H257636   0.923   4.153   1.439  1.2560  0.7861 -1.6957
12049TIP3   OH257637   5.307   0.763   2.671  0.3364 -0.4336  0.3291
12049TIP3    H157638   5.388   0.714   2.655  0.6133 -0.2991  1.2867
12049TIP3    H257639   5.238   0.698   2.662  0.4617 -0.4071 -1.2274
12050TIP3   OH257640   5.310   4.666  17.309 -0.1009 -1.0330  0.0900
12050TIP3    H157641   5.389   4.661  17.256 -0.2949 -1.6564 -0.1391
12050TIP3    H257642   5.287   4.759  17.308 -0.0048 -1.0125 -0.7654
12051TIP3   OH257643   3.415   0.664   5.581 -0.1423 -0.9055 -0.2371
12051TIP3    H157644   3.329   0.629   5.604 -1.3721  0.8159 -1.8298
12051TIP3    H257645   3.437   0.723   5.653  0.7479 -2.9379  1.2094
12052TIP3   OH257646   3.707   3.129  15.183  0.3656 -0.0249 -0.2729
12052TIP3    H157647   3.694   3.035  15.173 -0.2093 -0.0607  0.7786
12052TIP3    H257648   3.773   3.151  15.117  0.0321 -1.0462 -0.9607
12053TIP3   OH257649   3.970   0.542  12.222  0.2180  0.8073 -0.0702
12053TIP3    H157650   4.058   0.504  12.227 -0.0037  0.3691  0.6534
12053TIP3    H257651   3.982   0.634  12.246  0.7664  1.2565 -1.8680
12054TIP3   OH257652   2.676   4.002  17.128  0.2665  0.0098  0.1023
12054TIP3    H157653   2.620   3.955  17.190  1.1771 -1.3428 -0.0617
12054TIP3    H257654   2.623   4.012  17.049 -0.5375  0.8363  0.7252
12055TIP3   OH257655   4.648   5.823  17.310 -0.2828 -0.1098 -0.1023
12055TIP3    H157656   4.623   5.779  17.391  0.6731  0.3784  0.4702
12055TIP3    H257657   4.573   5.880  17.289  0.6657  2.1912  2.2007
12056TIP3   OH257658   0.903   6.690  11.521 -0.0588  0.3238 -0.0025
12056TIP3    H157659   0.888   6.782  11.498 -1.9534  0.5203  1.6961
12056TIP3    H257660   0.990   6.688  11.559 -0.7869  1.9224  1.9414
12057TIP3   OH257661   3.045   3.953   1.174 -0.4513  0.4783 -0.1518
12057TIP3    H157662   3.011   3.982   1.259 -1.9801 -2.6857  0.4707
12057TIP3    H257663   3.139   3.944   1.187 -0.2786  2.4713  0.3429
12058TIP3   OH257664   6.490   2.906   4.769  0.3508  0.2705  0.5353
12058TIP3    H157665   6.532   2.952   4.696 -1.5168  1.0457 -0.1198
12058TIP3    H257666   6.563   2.870   4.820  1.7256 -0.4849 -1.7959
12059TIP3   OH257667   3.746   1.460  13.757  0.5548 -0.4785 -0.1543
12059TIP3    H157668   3.825   1.467  13.810  0.3817 -0.7363  0.1466
12059TIP3    H257669   3.775   1.424  13.674  1.2500  2.3678 -1.2489
12060TIP3   OH257670   6.225   1.397   1.350  0.2267  0.4012 -1.0067
12060TIP3    H157671   6.298   1.380   1.410 -0.5410 -0.0833 -0.1795
12060TIP3    H257672   6.263   1.451   1.281  1.4696 -0.1920 -0.8229
12061TIP3   OH257673   0.418   0.228   2.317 -0.2336 -0.4839  0.4799
12061TIP3    H157674   0.323   0.232   2.329 -0.3127  1.0167 -0.2944
12061TIP3    H257675   0.451   0.303   2.367  0.7226 -1.8015  1.9133
12062TIP3   OH257676   3.021   5.221   6.429 -0.2822  0.2466  0.2755
12062TIP3    H157677   2.951   5.227   6.495 -0.7897 -0.2107 -0.2141
12062TIP3    H257678   3.019   5.130   6.400 -0.5431  0.6041 -0.8865
12063TIP3   OH257679   3.368   5.254   5.705  0.3014  0.2876  0.3466
12063TIP3    H157680   3.285   5.227   5.743  0.7257  0.8404  1.7691
12063TIP3    H257681   3.407   5.311   5.772  1.3962  0.7996 -0.6816
12064TIP3   OH257682   1.292   2.632  12.109  0.0107  0.0381 -0.7263
12064TIP3    H157683   1.327   2.543  12.120 -0.3524 -0.0221 -0.0301
12064TIP3    H257684   1.261   2.656  12.196  0.1299  0.8613 -0.9071
12065TIP3   OH257685   4.616   4.884   5.503 -0.6708  0.4195 -0.5495
12065TIP3    H157686   4.642   4.854   5.589  0.8267 -0.3624 -1.2381
12065TIP3    H257687   4.525   4.858   5.494 -0.8455  0.5246  0.7803
12066TIP3   OH257688   5.698   5.883   4.427 -0.1959 -0.0957 -0.1168
12066TIP3    H157689   5.604   5.888   4.405 -1.0433 -3.2072  2.0955
12066TIP3    H257690   5.707   5.940   4.503 -0.6463 -0.8746  0.5333
12067TIP3   OH257691   1.324   6.380   2.498 -0.1770  0.6495 -0.1497
12067TIP3    H157692   1.371   6.445   2.551  0.4032  0.6367 -0.6409
12067TIP3    H257693   1.312   6.422   2.413 -0.2588  0.3092 -0.3097
12068TIP3   OH257694   1.821   4.217   0.465  0.0482  0.0604 -0.1518
12068TIP3    H157695   1.743   4.250   0.510  0.6840  0.2409  0.8411
12068TIP3    H257696   1.828   4.126   0.492  0.1940  0.0501 -0.2235
12069TIP3   OH257697   3.713   0.955  15.663 -0.0133 -0.3092  0.2396
12069TIP3    H157698   3.790   0.899  15.674  1.2313  1.1872 -0.5106
12069TIP3    H257699   3.686   0.976  15.752  2.8992  2.3238  0.6602
12070TIP3   OH257700   6.132   6.615   2.859 -0.1367 -0.3433 -0.2334
12070TIP3    H157701   6.047   6.593   2.898 -0.8873 -0.5150 -1.8937
12070TIP3    H257702   6.148   6.546   2.795  1.5350 -0.6054  0.4366
12071TIP3   OH257703   3.709   5.090   2.284 -0.3075 -0.1173 -0.0444
12071TIP3    H157704   3.628   5.063   2.240  0.2599 -0.8495 -0.6605
12071TIP3    H257705   3.746   5.156   2.227  0.1347 -0.6479 -0.3765
12072TIP3   OH257706   0.411   4.132   4.805  0.6591  0.1772 -0.3586
12072TIP3    H157707   0.455   4.217   4.815 -0.0090  0.3813  1.2195
12072TIP3    H257708   0.322   4.154   4.778  0.1255  0.0916  1.2283
12073TIP3   OH257709   3.352   1.925   3.516 -0.2737  0.0065 -0.5867
12073TIP3    H157710   3.338   1.988   3.587 -0.0518  1.2406 -1.5902
12073TIP3    H257711   3.442   1.894   3.529 -0.7484 -0.9607  0.5460
12074TIP3   OH257712   0.070   5.731   2.397 -0.4025  0.0939 -0.1195
12074TIP3    H157713   0.048   5.803   2.456 -1.1072 -0.0282 -0.2206
12074TIP3    H257714   0.118   5.773   2.326 -0.2984  0.3760  0.1161
12075TIP3   OH257715   6.100   2.702  14.263 -0.3529 -0.5682 -0.5188
12075TIP3    H157716   6.107   2.697  14.358  0.5784 -0.2338 -0.5662
12075TIP3    H257717   6.030   2.766  14.248  0.9007  0.9649 -0.0595
12076TIP3   OH257718   5.489   1.472   0.367 -0.1149 -0.2277  0.0905
12076TIP3    H157719   5.525   1.455   0.280 -0.4182 -0.4153 -0.0022
12076TIP3    H257720   5.528   1.555   0.394  0.4773 -0.4849  0.0463
12077TIP3   OH257721   6.274   4.117  11.578  0.1749  0.3795 -0.2033
12077TIP3    H157722   6.305   4.028  11.562 -3.4976 -0.9032 -0.9756
12077TIP3    H257723   6.182   4.108  11.601 -0.0402  3.9342  1.0927
12078TIP3   OH257724   1.065   4.538   5.471  0.3007  0.2728 -1.0744
12078TIP3    H157725   1.024   4.584   5.544  0.5899  1.4626 -1.6358
12078TIP3    H257726   1.070   4.603   5.401 -0.2347 -0.9193 -2.2698
12079TIP3   OH257727   0.443   6.743  13.625 -0.5878 -0.2093  0.8906
12079TIP3    H157728   0.513   6.710  13.681  1.8958  0.6140 -1.5084
12079TIP3    H257729   0.373   6.678  13.632  0.9424 -1.7817  2.3873
12080TIP3   OH257730   2.440   1.201  12.657  0.0853 -0.8093  0.0075
12080TIP3    H157731   2.462   1.160  12.740  0.9846 -0.2008  0.0886
12080TIP3    H257732   2.516   1.186  12.602 -0.0321 -0.2335 -0.3264
12081TIP3   OH257733   1.289   4.635  12.850  0.6295  0.3273 -0.4849
12081TIP3    H157734   1.355   4.627  12.919 -0.4137 -1.0032  0.3858
12081TIP3    H257735   1.298   4.554  12.799  0.2960  0.5642 -0.9233
12082TIP3   OH257736   3.542   4.042  14.454 -0.0137  0.4704 -0.5709
12082TIP3    H157737   3.507   3.989  14.525 -1.7347  2.4573  0.1804
12082TIP3    H257738   3.615   3.991  14.420  0.1770 -1.0719  1.8766
12083TIP3   OH257739   0.808   2.343  17.154  0.0879 -0.1063  0.4443
12083TIP3    H157740   0.859   2.264  17.137 -0.9478 -0.7169  0.0781
12083TIP3    H257741   0.822   2.398  17.076 -1.1339 -1.0110 -0.4669
12084TIP3   OH257742   3.435   6.458   4.279  0.0557 -0.1627 -0.4180
12084TIP3    H157743   3.434   6.375   4.232  0.2355 -0.7503  0.5945
12084TIP3    H257744   3.386   6.441   4.359 -1.4626  1.2045 -0.9849
12085TIP3   OH257745   0.610   4.568   0.161  0.5423  0.0625  0.3099
12085TIP3    H157746   0.544   4.558   0.230 -1.8970  1.6062 -1.6239
12085TIP3    H257747   0.694   4.566   0.208 -0.9274 -0.0207  3.1624
12086TIP3   OH257748   4.028   3.271  15.065 -0.0344  0.2399  0.3520
12086TIP3    H157749   3.951   3.246  15.015  0.8148  0.7150 -1.2485
12086TIP3    H257750   4.052   3.193  15.114 -1.6918  0.1772  1.1386
12087TIP3   OH257751   5.829   6.453  10.594  0.3008  0.2962  0.3373
12087TIP3    H157752   5.839   6.539  10.633 -0.3550 -0.5421  2.5479
12087TIP3    H257753   5.735   6.444  10.580  0.5708  1.0798 -2.9285
12088TIP3   OH257754   2.125   3.856   4.835 -0.0094  0.1044 -0.3051
12088TIP3    H157755   2.096   3.824   4.750 -0.5605  0.2941 -0.1909
12088TIP3    H257756   2.070   3.809   4.899 -0.1840  0.5862 -0.0959
12089TIP3   OH257757   5.047   6.442   6.363 -0.2768  0.0988 -0.6655
12089TIP3    H157758   5.039   6.363   6.417 -0.2806 -0.9458 -2.1162
12089TIP3    H257759   4.969   6.493   6.382  0.1768  0.2310  0.9921
12090TIP3   OH257760   6.330   3.621  14.195  0.1798 -0.4016  0.6076
12090TIP3    H157761   6.343   3.669  14.113  0.8340 -1.6395 -0.0337
12090TIP3    H257762   6.418   3.592  14.220  0.2771  1.4675  2.7385
12091TIP3   OH257763   2.354   2.898  11.920 -0.4725  0.0256 -0.3018
12091TIP3    H157764   2.430   2.878  11.974  0.6637  2.0410 -1.0346
12091TIP3    H257765   2.376   2.866  11.833  0.0734  1.5505 -0.7697
12092TIP3   OH257766   5.231   4.485  14.091 -0.2708  0.3796  0.2691
12092TIP3    H157767   5.287   4.480  14.168  0.8101  0.3743 -0.5066
12092TIP3    H257768   5.242   4.401  14.046 -0.6454  0.5018 -0.0669
12093TIP3   OH257769   3.641   4.246  13.011  0.6612  0.0808 -0.0741
12093TIP3    H157770   3.607   4.334  12.991  1.0556 -0.2051 -2.2862
12093TIP3    H257771   3.721   4.261  13.060 -0.0470  0.9025  0.8614
12094TIP3   OH257772   5.785   5.751   3.613  0.6291 -0.0140 -0.0121
12094TIP3    H157773   5.870   5.727   3.650  0.3039 -0.6839  0.3285
12094TIP3    H257774   5.777   5.845   3.629 -0.5746 -0.5890  3.9733
12095TIP3   OH257775   6.707   3.933   4.370  0.0255 -0.3082 -0.3557
12095TIP3    H157776   6.656   3.998   4.418  0.1990  1.8724 -2.8687
12095TIP3    H257777   6.788   3.924   4.421 -0.4137  0.7216  0.5622
12096TIP3   OH257778   6.638   6.439   5.518  0.4079  0.2986 -0.3204
12096TIP3    H157779   6.628   6.392   5.435  0.0016  0.0427 -0.1341
12096TIP3    H257780   6.601   6.526   5.501 -0.0406  0.1147 -0.2968
12097TIP3   OH257781   6.302   5.029   5.423  0.4692  0.2168 -0.1129
12097TIP3    H157782   6.377   5.063   5.375  1.3704 -1.8763 -0.2898
12097TIP3    H257783   6.230   5.031   5.360  1.1217 -0.5451 -0.8996
12098TIP3   OH257784   0.937   5.556  17.249  0.2496  0.0702 -0.2266
12098TIP3    H157785   0.938   5.618  17.176  2.1528  1.2744  0.7419
12098TIP3    H257786   0.913   5.472  17.209  2.2246  0.4717 -2.4584
12099TIP3   OH257787   4.684   3.274  13.412  0.4552  0.7878  0.1294
12099TIP3    H157788   4.615   3.316  13.360  0.7881 -1.5261 -2.4166
12099TIP3    H257789   4.637   3.223  13.478 -0.1585  1.0614 -0.0878
12100TIP3   OH257790   1.829   0.728   5.439 -0.1135  0.3160  0.0660
12100TIP3    H157791   1.779   0.678   5.374  0.3697 -1.4484  0.9954
12100TIP3    H257792   1.815   0.682   5.522 -1.1954  2.8459  1.3960
12101TIP3   OH257793   4.411   2.603  14.012 -0.1080 -0.2158 -0.6117
12101TIP3    H157794   4.504   2.624  14.001 -0.2487 -0.0321 -1.5097
12101TIP3    H257795   4.387   2.555  13.933 -0.8604  0.0379 -0.5492
12102TIP3   OH257796   0.652   2.706  14.556  0.5199  0.3165  0.4560
12102TIP3    H157797   0.687   2.766  14.621 -0.5799  2.8384 -1.1182
12102TIP3    H257798   0.603   2.641  14.607  1.1099  1.1849  2.2074
12103TIP3   OH257799   1.460   6.170  16.384 -0.2038  0.7372 -0.3360
12103TIP3    H157800   1.405   6.225  16.440  0.6872  2.3404 -1.0070
12103TIP3    H257801   1.535   6.224  16.362  0.0934 -0.3074 -2.0516
12104TIP3   OH257802   5.716   3.527  17.405  0.2468  0.5779 -0.0794
12104TIP3    H157803   5.741   3.457  17.465 -0.7014  0.5944  0.3505
12104TIP3    H257804   5.674   3.482  17.332  2.8461  0.3997 -1.5973
12105TIP3   OH257805   6.014   2.839  15.940 -0.2245  0.0721 -0.2030
12105TIP3    H157806   6.052   2.908  15.885  0.3018  0.7215  0.9499
12105TIP3    H257807   6.068   2.762  15.923 -1.0138 -0.1723 -1.7492
12106TIP3   OH257808   2.370   3.801  14.660  0.8249 -0.3657  0.1034
12106TIP3    H157809   2.383   3.880  14.712  1.8432 -1.3349  1.3862
12106TIP3    H257810   2.336   3.833  14.577 -0.7838  1.2660  1.2944
12107TIP3   OH257811   1.686   0.223   5.253 -0.2166 -0.0610 -0.3068
12107TIP3    H157812   1.751   0.265   5.309 -1.3304  2.3601 -0.7110
12107TIP3    H257813   1.678   0.134   5.288  1.3523  0.4080  1.3922
12108TIP3   OH257814   5.397   0.407  14.550 -0.0984  0.0294  0.4213
12108TIP3    H157815   5.311   0.397  14.508  0.3433  0.7337 -0.7042
12108TIP3    H257816   5.440   0.323  14.535 -0.2261  0.0160  0.1161
12109TIP3   OH257817   2.906   2.905  14.114 -0.0812 -0.1252 -0.1272
12109TIP3    H157818   2.977   2.951  14.070  1.6272 -3.0474 -0.6958
12109TIP3    H257819   2.862   2.855  14.045 -0.8813 -0.5617  0.6653
12110TIP3   OH257820   1.661   6.421   1.675  0.0640  0.9269  0.4181
12110TIP3    H157821   1.665   6.336   1.719  1.0743 -0.2693 -1.8095
12110TIP3    H257822   1.581   6.417   1.623  1.0906  0.4950 -1.1953
12111TIP3   OH257823   6.522   4.024  12.071  0.2048  0.2452  0.7837
12111TIP3    H157824   6.447   4.007  12.127 -0.1764 -1.8267 -0.2604
12111TIP3    H257825   6.586   4.065  12.129 -0.1765 -1.7717  2.7657
12112TIP3   OH257826   4.408   0.132  11.699  0.0024  0.5820 -0.2420
12112TIP3    H157827   4.339   0.072  11.670 -0.1033  1.5889 -2.2409
12112TIP3    H257828   4.473   0.075  11.741 -0.7832 -0.7391 -0.7307
12113TIP3   OH257829   3.498   2.832   4.457 -0.0698 -0.4574 -0.2799
12113TIP3    H157830   3.570   2.890   4.481 -0.9945  0.8624 -0.5901
12113TIP3    H257831   3.467   2.865   4.373 -0.2551 -1.7844 -0.7621
12114TIP3   OH257832   4.719   0.695   1.695  0.3903 -0.3188  0.6819
12114TIP3    H157833   4.749   0.625   1.637 -0.0515  1.0615 -1.3154
12114TIP3    H257834   4.790   0.706   1.759  0.8864 -1.8934  0.4296
12115TIP3   OH257835   0.747   5.565  10.762 -0.3398  0.0556  0.2072
12115TIP3    H157836   0.803   5.634  10.725  1.3495  0.0553  2.5085
12115TIP3    H257837   0.664   5.573  10.715  1.0346  1.1609 -2.2252
12116TIP3   OH257838   3.207   1.073   0.383 -0.1321 -0.5142 -0.1559
12116TIP3    H157839   3.264   1.000   0.355  0.2418 -0.0186 -0.7120
12116TIP3    H257840   3.126   1.059   0.334 -0.0588 -0.5543 -0.2678
12117TIP3   OH257841   4.388   2.984  12.906 -0.2666  0.4048  0.5807
12117TIP3    H157842   4.458   3.023  12.958  2.0495 -1.3161 -1.0208
12117TIP3    H257843   4.312   2.986  12.963  1.6065  0.4296  3.2770
12118TIP3   OH257844   0.074   6.514   5.228 -0.0057 -0.3815  0.1174
12118TIP3    H157845   0.125   6.587   5.193 -2.3707  1.8853  1.0138
12118TIP3    H257846   0.121   6.486   5.306 -0.4876  2.2527  1.4413
12119TIP3   OH257847   0.428   1.692   3.267  0.2551  0.0753 -0.2968
12119TIP3    H157848   0.380   1.760   3.221  0.8857  0.9672  0.3334
12119TIP3    H257849   0.387   1.688   3.354  0.6549  0.1239 -0.1040
12120TIP3   OH257850   0.854   1.723  12.367  0.5811 -0.1063 -0.7356
12120TIP3    H157851   0.950   1.719  12.372  0.6060  1.1633  0.2095
12120TIP3    H257852   0.833   1.816  12.376 -0.7642 -0.4031 -0.5735
12121TIP3   OH257853   6.077   6.014  14.320  0.4825 -0.5245  0.5921
12121TIP3    H157854   6.066   6.071  14.395 -1.1191  0.9005 -0.6365
12121TIP3    H257855   5.990   6.007  14.282  1.1019 -1.8227 -0.7046
12122TIP3   OH257856   3.231   4.984   6.151  0.1269  0.6388  0.1516
12122TIP3    H157857   3.229   5.076   6.175 -0.2436  0.3923  1.1000
12122TIP3    H257858   3.180   4.940   6.219  2.9005 -0.6659  1.5684
12123TIP3   OH257859   0.587   5.631  12.030  0.2621 -0.3828  0.7737
12123TIP3    H157860   0.602   5.661  11.940 -1.4890 -2.4977 -0.3372
12123TIP3    H257861   0.497   5.658  12.050  0.5936 -0.0382  1.8629
12124TIP3   OH257862   0.461   3.013  13.683 -0.3218 -0.3161 -0.1462
12124TIP3    H157863   0.452   3.107  13.674  0.4838 -0.1093  0.9254
12124TIP3    H257864   0.376   2.977  13.657 -0.0957  0.5508 -2.2526
12125TIP3   OH257865   0.610   1.189   2.307 -0.0236 -0.3842  0.5183
12125TIP3    H157866   0.564   1.140   2.376  3.2819 -1.5580  2.1182
12125TIP3    H257867   0.675   1.242   2.354  2.0736 -0.8894 -1.6108
12126TIP3   OH257868   3.048   1.420   5.734  0.1675 -0.0561  0.1817
12126TIP3    H157869   3.034   1.404   5.640  0.2974 -0.6559  0.2619
12126TIP3    H257870   2.981   1.484   5.758 -0.7369 -0.9077 -0.0208
12127TIP3   OH257871   1.888   3.379  14.118  0.4984 -0.8104  0.0696
12127TIP3    H157872   1.950   3.450  14.103 -0.2189 -0.4894 -1.6106
12127TIP3    H257873   1.901   3.355  14.210  0.7132  1.5368  0.7179
12128TIP3   OH257874   4.692   3.329  11.529 -0.2973 -0.1773  0.3088
12128TIP3    H157875   4.764   3.296  11.582  1.0399  0.0207 -1.3130
12128TIP3    H257876   4.734   3.376  11.457 -1.9041 -2.0029 -2.0097
12129TIP3   OH257877   4.721   4.683   5.682 -0.1607  0.1247  0.0263
12129TIP3    H157878   4.644   4.642   5.722  0.3857  0.4180  1.4548
12129TIP3    H257879   4.718   4.655   5.591 -1.3805 -0.7294  0.2945
12130TIP3   OH257880   3.471   4.221  12.159  0.1924  0.2625  0.1543
12130TIP3    H157881   3.464   4.261  12.246 -3.5144 -0.5300  0.4027
12130TIP3    H257882   3.491   4.129  12.176 -0.8463  0.0404  0.2232
12131TIP3   OH257883   5.628   1.338  12.797  0.0192 -0.3589 -0.0392
12131TIP3    H157884   5.657   1.373  12.713 -0.5183 -0.9943 -0.4963
12131TIP3    H257885   5.701   1.355  12.856  0.5895 -0.3162 -0.7446
12132TIP3   OH257886   5.280   4.876   1.437  0.5489 -0.2670 -0.4063
12132TIP3    H157887   5.192   4.865   1.474  0.7951 -1.3794 -0.1136
12132TIP3    H257888   5.301   4.968   1.453  0.0619 -0.3659  0.9430
12133TIP3   OH257889   1.440   3.619  16.158  0.0718 -0.4154  0.0444
12133TIP3    H157890   1.345   3.612  16.149 -0.1867  2.3066 -0.2105
12133TIP3    H257891   1.464   3.693  16.103  2.1695 -0.2387  1.0836
12134TIP3   OH257892   5.681   2.179  15.662  0.1266  0.2952  0.1871
12134TIP3    H157893   5.669   2.139  15.748  0.7665  0.2601  0.2694
12134TIP3    H257894   5.596   2.215  15.639 -0.0886  0.1539  0.7612
12135TIP3   OH257895   4.153   4.932  10.931  0.1045 -0.3038  0.2235
12135TIP3    H157896   4.184   5.004  10.876 -0.1321 -0.3307  0.0574
12135TIP3    H257897   4.086   4.971  10.987 -0.1095 -0.4204  0.0507
12136TIP3   OH257898   4.199   5.624   0.721  0.4039 -0.3350 -0.2425
12136TIP3    H157899   4.268   5.670   0.673  1.1446 -0.2759  0.8360
12136TIP3    H257900   4.128   5.687   0.729  0.0486 -0.5087 -1.6737
12137TIP3   OH257901   6.327   0.854   3.053 -0.4097  0.1405 -0.6772
12137TIP3    H157902   6.402   0.795   3.050 -0.3221  0.2250 -0.2374
12137TIP3    H257903   6.362   0.939   3.027 -0.0272  0.4955  0.8655
12138TIP3   OH257904   0.420   6.554   5.210 -0.1839  0.2844  0.3614
12138TIP3    H157905   0.395   6.487   5.146 -1.7120  1.4233 -0.3093
12138TIP3    H257906   0.392   6.518   5.294  0.3361 -0.5210  0.1990
12139TIP3   OH257907   2.401   6.178   3.589 -0.1740 -0.3442  0.2479
12139TIP3    H157908   2.330   6.143   3.643 -0.6189  0.2174  0.0373
12139TIP3    H257909   2.367   6.261   3.555  1.6754  1.5422  2.6117
12140TIP3   OH257910   0.354   1.767  12.311  0.1626  0.5650 -0.4996
12140TIP3    H157911   0.421   1.702  12.330 -0.3070 -0.5472 -2.4700
12140TIP3    H257912   0.286   1.750  12.375  0.3121 -0.4912 -0.6069
12141TIP3   OH257913   2.009   0.567  15.859 -0.2387  0.5723 -0.6605
12141TIP3    H157914   1.915   0.565  15.876 -0.0003  1.4930  0.8565
12141TIP3    H257915   2.045   0.624  15.927  1.0904  2.4442 -2.7862
12142TIP3   OH257916   4.132   1.089   5.303 -0.0533  0.5156 -0.0355
12142TIP3    H157917   4.110   1.045   5.385  0.8995 -0.3763 -0.2404
12142TIP3    H257918   4.220   1.057   5.282 -0.5292  0.2364 -1.7224
12143TIP3   OH257919   2.409   4.827  13.711  0.7046 -0.0101  0.2147
12143TIP3    H157920   2.482   4.785  13.665  0.2306 -0.4694 -0.1200
12143TIP3    H257921   2.361   4.872  13.642  1.2417  1.1579  0.5722
12144TIP3   OH257922   4.587   4.737  15.163 -0.2501  0.0463  0.0523
12144TIP3    H157923   4.610   4.744  15.071 -0.1630 -2.5473 -0.1917
12144TIP3    H257924   4.643   4.667  15.196 -2.4217 -1.1806  1.3124
12145TIP3   OH257925   1.816   1.913   5.943 -0.3746  0.6384  0.5183
12145TIP3    H157926   1.897   1.890   5.897 -1.1346  1.0074 -1.0794
12145TIP3    H257927   1.814   2.009   5.939 -0.4050  0.6906  1.4691
12146TIP3   OH257928   5.325   3.214  17.203  0.6860  0.0811  0.0500
12146TIP3    H157929   5.240   3.169  17.201 -0.2776  1.6151  1.9931
12146TIP3    H257930   5.388   3.147  17.179 -1.1366 -0.8080 -2.7537
12147TIP3   OH257931   5.624   3.822  16.829  0.2157 -0.1002  0.0692
12147TIP3    H157932   5.564   3.808  16.903  0.8030  1.4714  0.8902
12147TIP3    H257933   5.687   3.887  16.861  1.3693 -0.4676 -1.3394
12148TIP3   OH257934   4.399   1.954   5.701  0.6865  0.2729  0.1617
12148TIP3    H157935   4.491   1.960   5.674  0.9426 -2.1282  0.3416
12148TIP3    H257936   4.395   2.008   5.781  1.7256  1.0387 -0.2721
12149TIP3   OH257937   1.005   4.018  12.310  0.4362 -0.4129  0.1192
12149TIP3    H157938   0.924   3.968  12.303  1.3968 -1.9276 -1.0128
12149TIP3    H257939   1.065   3.961  12.359  1.0500  0.3556  0.2905
12150TIP3   OH257940   4.812   0.941   2.874  0.3456 -0.8251 -0.3551
12150TIP3    H157941   4.722   0.949   2.842 -0.2085 -1.0029  1.0495
12150TIP3    H257942   4.851   1.026   2.857 -0.4569 -0.3688  0.0070
12151TIP3   OH257943   0.730   0.220   0.338  0.1820 -0.0460 -0.4483
12151TIP3    H157944   0.656   0.282   0.344  0.9212  0.7343  1.2692
12151TIP3    H257945   0.710   0.153   0.403  0.9001  0.0998 -0.0672
12152TIP3   OH257946   2.743   5.092   0.015  0.5075 -0.0890 -0.1035
12152TIP3    H157947   2.771   5.018  -0.039  1.4411 -0.4154  0.7961
12152TIP3    H257948   2.820   5.114   0.068 -0.2349  0.5058  0.7697
12153TIP3   OH257949   1.443   3.613  17.131  0.1252  0.0892 -0.3345
12153TIP3    H157950   1.447   3.703  17.100  2.0956  0.1338 -0.0986
12153TIP3    H257951   1.352   3.600  17.157 -0.5182  1.5298 -1.7216
12154TIP3   OH257952   3.045   1.199  14.834  0.3099 -0.1493  0.0526
12154TIP3    H157953   3.128   1.244  14.821 -0.4079  1.4850  0.8113
12154TIP3    H257954   3.005   1.243  14.910 -1.1129 -1.0807 -0.1085
12155TIP3   OH257955   4.213   6.160   2.417  0.4383 -0.1410  0.1020
12155TIP3    H157956   4.284   6.096   2.419  0.9594  0.4474  1.0478
12155TIP3    H257957   4.148   6.121   2.359  0.7281 -1.5453  0.6647
12156TIP3   OH257958   0.816   6.315   3.923  0.7416  0.0263 -0.1243
12156TIP3    H157959   0.774   6.373   3.860  3.0561  0.5006 -1.3253
12156TIP3    H257960   0.746   6.256   3.952 -0.5054  0.0360 -2.8522
12157TIP3   OH257961   3.245   3.895  12.713 -0.0791 -0.1940  0.0299
12157TIP3    H157962   3.211   3.811  12.682  1.1584 -0.5210 -0.4997
12157TIP3    H257963   3.238   3.953  12.637 -1.0692  0.2572  0.4363
12158TIP3   OH257964   0.378   5.680  12.253  0.0290  0.2624  0.1003
12158TIP3    H157965   0.431   5.692  12.331  0.4147  0.4272 -0.1813
12158TIP3    H257966   0.307   5.623  12.281  1.7941 -2.2084 -0.1199
12159TIP3   OH257967   3.834   1.441  12.284  0.4422 -0.1793 -0.1376
12159TIP3    H157968   3.924   1.409  12.293  0.9053  1.2806  0.8125
12159TIP3    H257969   3.792   1.418  12.367 -0.1113 -0.9204 -0.6055
12160TIP3   OH257970   3.877   2.718   1.049  0.6838 -0.1158  0.4653
12160TIP3    H157971   3.813   2.671   1.103  2.1105 -1.3723  1.1479
12160TIP3    H257972   3.925   2.772   1.111  1.0539 -0.0728  0.1423
12161TIP3   OH257973   5.732   0.870   4.167 -0.4987  0.1741 -0.1633
12161TIP3    H157974   5.661   0.808   4.152 -1.7142  1.7934 -1.5388
12161TIP3    H257975   5.688   0.953   4.187  1.0413  0.7907  0.8834
12162TIP3   OH257976   4.231   4.498   1.750 -0.0040  0.3210  0.5132
12162TIP3    H157977   4.241   4.409   1.782  2.2391  1.0998  2.2270
12162TIP3    H257978   4.310   4.515   1.699 -1.1919  0.8132 -1.2593
12163TIP3   OH257979   5.172   6.514   4.598  0.4942 -0.2049 -0.2508
12163TIP3    H157980   5.089   6.466   4.602  1.6080 -2.1741  0.4126
12163TIP3    H257981   5.154   6.588   4.540 -2.2912  0.5936  1.4213
12164TIP3   OH257982   2.231   5.246  17.134 -0.4236 -0.3496 -0.3563
12164TIP3    H157983   2.300   5.193  17.174  0.5808  1.0986 -0.0855
12164TIP3    H257984   2.171   5.182  17.095 -0.1574 -1.7214  1.3781
12165TIP3   OH257985   5.171   0.963   3.613 -0.0835  0.5686 -0.0322
12165TIP3    H157986   5.201   0.986   3.524 -0.2004  2.8747  0.4608
12165TIP3    H257987   5.165   1.047   3.658 -0.0795 -0.5551  2.1729
12166TIP3   OH257988   0.967   0.151  11.063 -0.1204 -0.1411 -0.0323
12166TIP3    H157989   0.983   0.189  10.976  0.3496 -0.1005  0.0717
12166TIP3    H257990   0.963   0.226  11.121  0.9063 -0.2482  0.1896
12167TIP3   OH257991   0.235   0.435  11.824  0.2942  0.7727  0.1259
12167TIP3    H157992   0.278   0.369  11.878 -0.9797  0.6708  1.0764
12167TIP3    H257993   0.174   0.479  11.885 -0.2446  1.5253 -0.9309
12168TIP3   OH257994   0.964   1.169  13.231 -0.0107  0.4111 -0.7431
12168TIP3    H157995   1.005   1.239  13.281 -1.3290  0.8176 -0.1985
12168TIP3    H257996   1.037   1.112  13.206  1.0782  1.9233 -1.1547
12169TIP3   OH257997   3.059   1.535   1.721  0.4126 -0.2368 -0.2550
12169TIP3    H157998   3.068   1.530   1.626  1.2751 -0.5970 -0.1587
12169TIP3    H257999   2.991   1.470   1.742  1.0830 -1.0420 -0.5112
12170TIP3   OH258000   4.565   5.184   4.060  0.3279 -0.1598 -0.5118
12170TIP3    H158001   4.499   5.133   4.013 -0.2058  0.0335  0.0032
12170TIP3    H258002   4.649   5.154   4.025 -0.0143 -0.7569 -0.8357
12171TIP3   OH258003   0.808   0.935   4.269 -0.8474 -0.4289 -0.3744
12171TIP3    H158004   0.773   0.919   4.356  1.6133  0.0934  0.8096
12171TIP3    H258005   0.753   1.003   4.232 -1.2217  0.1990  1.2710
12172TIP3   OH258006   2.864   0.364  14.792 -1.0484 -0.5332  0.3414
12172TIP3    H158007   2.955   0.387  14.776 -1.4589  1.7906  0.9786
12172TIP3    H258008   2.868   0.278  14.835  1.0656  0.7552  3.0113
12173TIP3   OH258009   4.031   5.337  16.660  0.6558 -0.0669  0.2275
12173TIP3    H158010   4.105   5.388  16.693 -0.3703  0.8786  1.1404
12173TIP3    H258011   4.026   5.261  16.719  0.0255  0.6177  1.0795
12174TIP3   OH258012   4.095   5.604   1.069 -0.6119 -0.4848 -0.6324
12174TIP3    H158013   4.026   5.626   1.133 -0.8680  0.0481 -1.0784
12174TIP3    H258014   4.048   5.564   0.996 -0.3394 -0.9357 -0.5638
12175TIP3   OH258015   3.158   5.829  12.876 -0.4924 -0.2877 -0.5557
12175TIP3    H158016   3.250   5.856  12.874  0.1683 -2.3748 -0.5779
12175TIP3    H258017   3.127   5.859  12.961 -0.3630  2.0462 -1.2615
12176TIP3   OH258018   4.224   3.034  12.368 -0.5035  0.1409 -0.2193
12176TIP3    H158019   4.154   3.020  12.432 -1.2261  0.9619 -0.8160
12176TIP3    H258020   4.228   3.129  12.357  0.4861  0.0855 -0.4427
12177TIP3   OH258021   4.788   6.441  14.314  0.2952  0.6154  0.3305
12177TIP3    H158022   4.742   6.521  14.342 -0.5041  0.6951 -1.1389
12177TIP3    H258023   4.847   6.470  14.245  0.2391 -0.0142  0.0126
12178TIP3   OH258024   6.381   3.739   4.932 -0.3838  0.3668 -0.0060
12178TIP3    H158025   6.431   3.698   5.003  0.7675  0.2961 -0.8270
12178TIP3    H258026   6.437   3.811   4.902 -1.5797  1.4230  0.2093
12179TIP3   OH258027   1.426   0.657  14.363 -0.2760 -0.5108 -0.0401
12179TIP3    H158028   1.476   0.674  14.283  0.8210 -2.1427  0.2534
12179TIP3    H258029   1.483   0.688  14.433 -1.2011  0.8393  0.1399
12180TIP3   OH258030   2.418   1.710   2.802 -0.4593  0.4778 -0.2314
12180TIP3    H158031   2.394   1.672   2.887 -0.7228  0.5377 -0.2775
12180TIP3    H258032   2.355   1.673   2.740 -1.0960  1.4302 -0.1778
12181TIP3   OH258033   3.185   5.608  15.913  0.8036 -0.8354  0.0634
12181TIP3    H158034   3.202   5.517  15.891 -1.1884 -1.0304 -0.8923
12181TIP3    H258035   3.244   5.658  15.857  1.4287 -1.5081  0.1088
12182TIP3   OH258036   0.315   6.168  13.648  0.6928 -0.0631  0.3762
12182TIP3    H158037   0.338   6.110  13.576  1.7608 -0.9163  1.3627
12182TIP3    H258038   0.235   6.131  13.685 -1.7910  2.1760 -2.2571
12183TIP3   OH258039   5.793   4.868   5.994 -0.0604  0.0180 -0.3601
12183TIP3    H158040   5.747   4.908   6.068 -3.3038 -0.9452 -1.6954
12183TIP3    H258041   5.876   4.916   5.989 -1.5428  3.0520  1.2625
12184TIP3   OH258042   5.345   0.471   1.797  0.6527 -0.5529 -0.4879
12184TIP3    H158043   5.346   0.546   1.737  0.6741 -0.3490 -0.2374
12184TIP3    H258044   5.255   0.466   1.828  0.2158 -1.7032 -1.8101
12185TIP3   OH258045   5.030   1.799   4.753  0.9418 -0.5113 -0.0108
12185TIP3    H158046   5.008   1.868   4.691 -1.6436 -1.8956 -0.7655
12185TIP3    H258047   5.084   1.843   4.819 -1.1810  2.4375 -0.0407
12186TIP3   OH258048   1.426   5.913   4.403  0.0115  0.2532  0.2326
12186TIP3    H158049   1.386   6.000   4.401 -0.0984  0.2037  0.2305
12186TIP3    H258050   1.389   5.867   4.328  0.6757  0.4626 -0.2285
12187TIP3   OH258051   6.476   4.363   3.851  0.3645 -0.1553  0.1902
12187TIP3    H158052   6.563   4.353   3.812 -0.0692 -0.9034 -0.6147
12187TIP3    H258053   6.483   4.318   3.936  0.9526  0.4073  0.4520
12188TIP3   OH258054   3.961   3.249  16.273  0.5011 -0.2320  0.4017
12188TIP3    H158055   3.964   3.203  16.189  2.7017 -1.0851  0.8585
12188TIP3    H258056   3.943   3.180  16.337  0.4626  0.1288  0.7805
12189TIP3   OH258057   6.228   6.363  11.942  0.9028  0.2959 -0.2812
12189TIP3    H158058   6.159   6.369  11.877  0.8257  0.8696 -0.1549
12189TIP3    H258059   6.272   6.280  11.924  0.5211  0.1850 -0.6986
12190TIP3   OH258060   6.752   3.242   1.754  0.6231  0.2832 -0.0166
12190TIP3    H158061   6.708   3.198   1.827  1.7281  0.1628  0.5997
12190TIP3    H258062   6.695   3.228   1.679 -0.1634 -0.2431  0.6670
12191TIP3   OH258063   4.152   4.918   3.436  0.1865  0.3733 -0.6412
12191TIP3    H158064   4.182   4.860   3.366 -0.4285 -0.8739  0.1029
12191TIP3    H258065   4.153   4.864   3.515 -5.4233 -0.3771 -0.7222
12192TIP3   OH258066   5.694   6.782   0.779  0.2718  0.3357 -0.2625
12192TIP3    H158067   5.648   6.773   0.695  0.6099  0.4361 -0.4612
12192TIP3    H258068   5.718   6.692   0.803 -1.4910  0.0805  0.6832
12193TIP3   OH258069   4.745   2.671   2.151  0.0666 -0.2316  0.1242
12193TIP3    H158070   4.788   2.646   2.069 -3.1073 -0.6990 -1.5687
12193TIP3    H258071   4.717   2.761   2.137  1.9778  0.7299  1.9384
12194TIP3   OH258072   2.249   5.948   4.015  1.1248  0.8608 -0.2136
12194TIP3    H158073   2.176   5.899   4.054  0.9329  2.5789  1.7921
12194TIP3    H258074   2.323   5.888   4.021 -0.1019 -1.1611 -2.8427
12195TIP3   OH258075   3.013   0.845  11.820  0.4270  0.3485 -0.7973
12195TIP3    H158076   3.020   0.765  11.768  0.7573  0.4441 -0.9009
12195TIP3    H258077   2.985   0.912  11.757 -0.8259  0.1127 -0.5193
12196TIP3   OH258078   4.333   5.323   5.981 -0.5087 -0.1786 -0.1179
12196TIP3    H158079   4.245   5.312   6.016 -1.1246  2.2663 -0.7011
12196TIP3    H258080   4.320   5.353   5.891  0.9188  0.1897 -0.2308
12197TIP3   OH258081   6.305   2.184  12.626  0.1691  0.2314  0.5060
12197TIP3    H158082   6.382   2.168  12.681 -0.3899 -4.3199  0.3504
12197TIP3    H258083   6.315   2.121  12.554 -2.8948  0.6955 -0.4415
12198TIP3   OH258084   0.765   6.533  15.374  0.1071 -0.1239 -0.8570
12198TIP3    H158085   0.809   6.504  15.294 -1.4097  0.0308 -1.7944
12198TIP3    H258086   0.715   6.457  15.403 -0.7230  0.3297 -1.0600
12199TIP3   OH258087   4.904   1.674   3.133  0.0466 -0.5858 -0.3456
12199TIP3    H158088   4.833   1.611   3.139 -0.1779 -0.3486 -0.4766
12199TIP3    H258089   4.981   1.626   3.161  0.2757 -1.5579 -2.4321
12200TIP3   OH258090   2.101   2.369   2.248 -0.0074 -0.7493 -0.2412
12200TIP3    H158091   2.019   2.320   2.249 -1.4630  1.3642 -3.1096
12200TIP3    H258092   2.075   2.461   2.243  2.5065 -0.0089 -1.5331
12201TIP3   OH258093   1.817   1.138  12.397  0.6456 -0.2232 -0.6088
12201TIP3    H158094   1.850   1.119  12.309 -0.2248 -2.5548 -0.5107
12201TIP3    H258095   1.731   1.177  12.382  1.9616  2.9632 -0.7819
12202TIP3   OH258096   5.548   0.761   2.480  1.1245 -0.7312 -0.2698
12202TIP3    H158097   5.502   0.769   2.397  0.1829  1.4238  0.4022
12202TIP3    H258098   5.606   0.686   2.468  0.5549 -0.8596 -2.6374
12203TIP3   OH258099   2.188   5.542   1.876  0.0238  0.5602 -0.2717
12203TIP3    H158100   2.107   5.591   1.861  0.7019  1.7311 -0.2227
12203TIP3    H258101   2.168   5.453   1.848 -1.0735  0.9833 -0.8826
12204TIP3   OH258102   6.275   2.159   4.869  0.0071  0.0997 -0.0480
12204TIP3    H158103   6.247   2.104   4.942  0.3007 -0.9107 -0.6693
12204TIP3    H258104   6.370   2.154   4.871  0.0065 -0.8992 -1.1753
12205TIP3   OH258105   6.191   3.890   3.320 -0.0963 -0.9232  0.1768
12205TIP3    H158106   6.163   3.951   3.388  2.1183 -0.5685  0.8402
12205TIP3    H258107   6.232   3.945   3.254  1.4610 -1.6092  0.5400
12206TIP3   OH258108   6.008   5.356   0.674 -0.2415 -0.0652  0.5855
12206TIP3    H158109   6.039   5.413   0.604  1.2774 -0.2186  1.0815
12206TIP3    H258110   6.032   5.401   0.755 -1.7589  0.0022  1.0332
12207TIP3   OH258111   0.326   2.834   6.470 -0.5725 -0.2806  0.3597
12207TIP3    H158112   0.403   2.798   6.515 -0.5327  0.0878  0.5893
12207TIP3    H258113   0.360   2.905   6.416 -0.5338 -1.0999 -0.7264
12208TIP3   OH258114   4.660   3.320   4.664  0.0968  0.3329 -0.4570
12208TIP3    H158115   4.742   3.330   4.713  0.0606 -0.7798 -0.1278
12208TIP3    H258116   4.592   3.344   4.727  0.0213 -1.5034  0.2548
12209TIP3   OH258117   6.163   1.235  16.512 -0.0552 -0.7018 -0.5336
12209TIP3    H158118   6.192   1.320  16.479  2.1520 -2.0704 -2.3981
12209TIP3    H258119   6.072   1.228  16.484  0.3503  0.2112 -2.1894
12210TIP3   OH258120   3.979   4.500   3.781  0.1433  0.0038 -0.1541
12210TIP3    H158121   4.055   4.473   3.834 -0.2197 -1.1123 -0.1864
12210TIP3    H258122   3.942   4.574   3.829  1.5365  0.8986 -0.3941
12211TIP3   OH258123   0.832   5.858  11.847 -0.2933 -0.0920  0.4173
12211TIP3    H158124   0.913   5.808  11.858 -1.2316 -1.7924  0.0088
12211TIP3    H258125   0.823   5.907  11.928  1.1250  0.1054  0.4809
12212TIP3   OH258126   3.282   6.006  14.385 -0.0394 -0.0997  0.0874
12212TIP3    H158127   3.311   6.095  14.405 -0.0511 -0.0566 -0.0859
12212TIP3    H258128   3.285   5.960  14.469  0.4193 -0.0626  0.0939
12213TIP3   OH258129   1.875   3.409   1.342  0.0390 -0.2829  0.0574
12213TIP3    H158130   1.866   3.498   1.307 -0.4786 -0.8573 -1.3358
12213TIP3    H258131   1.859   3.419   1.436 -0.5736  1.0119 -0.1620
12214TIP3   OH258132   1.535   6.359  12.039  0.2933  0.0787  0.4927
12214TIP3    H158133   1.573   6.444  12.017  2.4287 -0.6609  1.0312
12214TIP3    H258134   1.505   6.323  11.956  1.0833  0.6023 -0.0247
12215TIP3   OH258135   4.639   5.149  14.465 -0.1507  0.7745  0.3781
12215TIP3    H158136   4.723   5.127  14.505  0.6072 -0.9076 -1.9560
12215TIP3    H258137   4.658   5.227  14.412  0.6566 -0.9662 -2.0540
12216TIP3   OH258138   0.205   4.420  15.884 -0.6789  0.0018  0.3846
12216TIP3    H158139   0.245   4.381  15.807  0.2072 -0.7164  1.1805
12216TIP3    H258140   0.141   4.483  15.850 -1.6733 -1.6540 -0.9401
12217TIP3   OH258141   1.081   6.298   0.252  0.0088 -0.0775  0.1374
12217TIP3    H158142   1.176   6.292   0.244  0.2794  2.3154  0.8939
12217TIP3    H258143   1.066   6.349   0.331 -1.9943 -1.8417  1.0202
12218TIP3   OH258144   3.181   2.010   2.199  0.2665  0.0229 -0.3338
12218TIP3    H158145   3.209   1.968   2.280 -1.2786  1.0439  0.7726
12218TIP3    H258146   3.188   2.103   2.216 -2.8104  0.3303 -0.2976
12219TIP3   OH258147   6.280   4.258  15.960 -0.5187  0.1876  0.1315
12219TIP3    H158148   6.185   4.264  15.944 -0.8872 -2.7973  0.6217
12219TIP3    H258149   6.296   4.165  15.974  2.4654  0.6598  0.4947
12220TIP3   OH258150   2.347   0.699  12.484 -0.4069 -0.0405 -0.7519
12220TIP3    H158151   2.413   0.745  12.431 -1.2602  1.7838 -0.2614
12220TIP3    H258152   2.300   0.645  12.420  1.3327 -1.1908 -1.1568
12221TIP3   OH258153   0.475   5.299  11.315 -0.2430  0.4004 -0.4179
12221TIP3    H158154   0.453   5.385  11.280 -2.7605  0.1545  0.2836
12221TIP3    H258155   0.508   5.316  11.403 -1.7269  0.6521  0.1178
12222TIP3   OH258156   5.483   3.598  15.867 -0.2345 -0.2669 -0.0005
12222TIP3    H158157   5.431   3.671  15.900  0.1385 -0.3254  0.7363
12222TIP3    H258158   5.571   3.634  15.855 -0.3837 -0.2204 -1.0522
12223TIP3   OH258159   5.533   2.701  12.918  0.3028  0.2381 -0.2433
12223TIP3    H158160   5.520   2.720  13.010 -0.5522  3.4056 -0.9197
12223TIP3    H258161   5.628   2.710  12.904  0.3379  0.4832  0.1685
12224TIP3   OH258162   4.210   5.652   1.979 -0.0891 -0.1311 -0.3159
12224TIP3    H158163   4.225   5.665   2.073  2.6174 -1.2486 -0.5077
12224TIP3    H258164   4.240   5.733   1.938 -0.8350  0.1766 -0.2633
12225TIP3   OH258165   1.688   2.689   1.143 -0.0044 -0.0218 -0.0907
12225TIP3    H158166   1.755   2.750   1.175 -1.5816  1.3313  0.8242
12225TIP3    H258167   1.613   2.745   1.123 -1.0891 -1.5469 -0.4583
12226TIP3   OH258168   2.260   6.729   6.108 -0.3139 -0.1070  0.7123
12226TIP3    H158169   2.234   6.670   6.037  0.7134 -0.4199  0.5767
12226TIP3    H258170   2.325   6.678   6.158  1.6366  1.3643 -0.1926
12227TIP3   OH258171   2.852   1.439   6.511 -0.7041 -0.1767 -0.0674
12227TIP3    H158172   2.783   1.472   6.453 -0.0106  0.5482 -0.5027
12227TIP3    H258173   2.816   1.359   6.548 -1.8696  0.3125 -0.1084
12228TIP3   OH258174   5.029   6.459  12.960  0.3268 -0.8013 -0.4138
12228TIP3    H158175   5.115   6.433  12.992  0.7396  2.0272  1.1666
12228TIP3    H258176   5.038   6.553  12.942 -1.8268 -0.8916 -2.4524
12229TIP3   OH258177   6.116   2.677  13.968 -0.3646 -0.1434  0.4179
12229TIP3    H158178   6.149   2.703  13.882 -2.7072  0.4357 -0.3988
12229TIP3    H258179   6.168   2.728  14.030  0.5331  0.3762 -0.7266
12230TIP3   OH258180   4.609   4.550   1.902 -0.2438  0.3711 -0.1674
12230TIP3    H158181   4.631   4.504   1.983 -0.5363  0.0639 -0.2583
12230TIP3    H258182   4.689   4.545   1.849 -0.4840 -0.6689 -0.4657
12231TIP3   OH258183   3.395   0.702  13.055 -0.2956  0.4747  0.5311
12231TIP3    H158184   3.490   0.720  13.055 -0.3998  1.0517  0.2841
12231TIP3    H258185   3.389   0.608  13.036  0.1859  0.7302 -1.1345
12232TIP3   OH258186   3.833   2.592   4.160 -0.0582  0.4146 -0.2970
12232TIP3    H158187   3.875   2.678   4.154 -0.2646  0.6181  0.8119
12232TIP3    H258188   3.784   2.583   4.079  0.1615  1.2439 -0.5328
12233TIP3   OH258189   0.600   3.958  14.606  0.3639  0.5140 -0.0624
12233TIP3    H158190   0.599   3.947  14.701 -0.5221 -0.5226 -0.1733
12233TIP3    H258191   0.629   3.873  14.572  0.0706  0.6709 -0.7386
12234TIP3   OH258192   3.086   3.736   4.847 -0.8156  0.6095  0.4687
12234TIP3    H158193   3.073   3.647   4.879 -2.2601  1.2539  1.8272
12234TIP3    H258194   3.096   3.726   4.752 -2.4333 -0.8974  0.4045
12235TIP3   OH258195   3.768   1.957  11.575  0.6249  0.0588  0.1066
12235TIP3    H158196   3.736   1.876  11.535  1.2946 -0.2011  0.0845
12235TIP3    H258197   3.702   1.978  11.641 -0.6131  0.6067 -1.2467
12236TIP3   OH258198   2.570   5.262   1.474  0.1098 -0.1011  0.1862
12236TIP3    H158199   2.609   5.180   1.504  0.2089  0.0181  0.3836
12236TIP3    H258200   2.591   5.325   1.542 -0.5995 -0.0835  0.3930
12237TIP3   OH258201   3.797   4.034   5.646 -0.4823 -0.5683 -0.2052
12237TIP3    H158202   3.830   4.122   5.628 -0.9824 -0.1365  0.8837
12237TIP3    H258203   3.845   3.977   5.587  0.7590  0.2842 -0.0432
12238TIP3   OH258204   3.268   2.947   2.960  0.2104  0.1119 -0.1967
12238TIP3    H158205   3.275   2.895   3.040  0.3701 -1.3559 -1.1160
12238TIP3    H258206   3.175   2.967   2.952  0.1769  0.1567  0.2906
12239TIP3   OH258207   6.282   6.017   0.781 -0.3088 -0.6906  0.6037
12239TIP3    H158208   6.288   5.923   0.769 -0.1936 -0.9609  2.5825
12239TIP3    H258209   6.277   6.052   0.691  1.3340 -2.4191 -0.2220
12240TIP3   OH258210   1.102   1.709   0.455 -0.1347  0.6684 -0.2138
12240TIP3    H158211   1.187   1.746   0.431 -0.3794  1.1649 -0.3166
12240TIP3    H258212   1.097   1.627   0.407  0.3138  0.6076 -0.1608
12241TIP3   OH258213   1.883   0.706   0.495 -0.3546 -0.2750  0.0890
12241TIP3    H158214   1.900   0.712   0.401  1.0873 -3.3345  0.0389
12241TIP3    H258215   1.969   0.710   0.535 -0.6130 -2.1691  0.9582
12242TIP3   OH258216   3.507   3.648   3.005  0.0929 -0.2446 -0.0105
12242TIP3    H158217   3.501   3.715   3.074  2.8779  0.4348 -0.2940
12242TIP3    H258218   3.505   3.698   2.923 -0.4705 -0.7768 -0.3208
12243TIP3   OH258219   6.348   4.760  14.628  0.2600 -0.3978  0.3819
12243TIP3    H158220   6.368   4.681  14.578  0.4827  0.8550 -1.6322
12243TIP3    H258221   6.400   4.828  14.586 -2.2531  1.4229  0.0176
12244TIP3   OH258222   4.072   6.501  15.499  0.1900 -0.7708  0.1512
12244TIP3    H158223   4.088   6.563  15.428 -1.8247 -0.1342  0.2144
12244TIP3    H258224   4.000   6.446  15.467 -0.7723 -0.4477  1.6875
12245TIP3   OH258225   2.592   5.312   4.812 -0.4840  0.1368  0.4070
12245TIP3    H158226   2.569   5.337   4.722 -0.3783  2.4910  0.9594
12245TIP3    H258227   2.514   5.334   4.864 -0.3960 -0.8171  0.9725
12246TIP3   OH258228   5.161   0.776   4.343 -0.2950 -0.1280  0.3452
12246TIP3    H158229   5.189   0.720   4.416  0.4006  1.4493  1.3421
12246TIP3    H258230   5.182   0.865   4.372 -0.7532  0.6067 -1.4656
12247TIP3   OH258231   4.325   0.261  15.337  0.5420 -0.1894  0.0617
12247TIP3    H158232   4.285   0.209  15.267  1.7388 -1.4661  0.3040
12247TIP3    H258233   4.356   0.340  15.293 -0.8971  0.1565 -0.3894
12248TIP3   OH258234   3.154   2.855  14.870 -0.0958  0.0014  0.2475
12248TIP3    H158235   3.250   2.860  14.872 -0.1793  3.6148  0.8248
12248TIP3    H258236   3.128   2.921  14.806 -2.2371 -0.5293  0.5134
12249TIP3   OH258237   4.333   2.751   6.500 -0.3577  0.1770 -0.0060
12249TIP3    H158238   4.421   2.711   6.499 -1.7116 -3.1796  0.5830
12249TIP3    H258239   4.318   2.773   6.592  0.6119  2.9381 -0.4012
12250TIP3   OH258240   3.731   5.022  11.015 -0.5234  0.2099  0.4156
12250TIP3    H158241   3.807   5.057  10.968  0.6936 -1.5918  0.9107
12250TIP3    H258242   3.733   5.065  11.100  0.4658 -0.4257  0.7285
12251TIP3   OH258243   0.514   3.304   1.857  0.3200 -0.9175 -0.2523
12251TIP3    H158244   0.425   3.270   1.858  0.6813 -1.9090  1.4998
12251TIP3    H258245   0.568   3.228   1.835  0.9399 -1.0050  1.4207
12252TIP3   OH258246   2.876   0.657  12.145 -0.0126  0.1110  0.1043
12252TIP3    H158247   2.887   0.684  12.236  0.1553  0.3974  0.0006
12252TIP3    H258248   2.885   0.738  12.095  2.7041 -0.3873 -0.4007
12253TIP3   OH258249   1.049   4.687  15.319  0.2799 -0.5528  0.4221
12253TIP3    H158250   1.078   4.776  15.337  1.8454 -1.0911  0.7153
12253TIP3    H258251   0.966   4.678  15.365  1.1807  0.0669  2.2418
12254TIP3   OH258252   0.067   6.294  14.720 -0.6135 -0.9412  0.7110
12254TIP3    H158253   0.036   6.268  14.634  1.2493  0.1203 -0.3508
12254TIP3    H258254   0.014   6.371  14.742 -0.9965 -1.1291  0.4575
12255TIP3   OH258255   5.144   1.768   3.684 -0.2600 -0.8532 -0.4763
12255TIP3    H158256   5.062   1.772   3.734  0.1081 -0.3375  0.0934
12255TIP3    H258257   5.127   1.820   3.606 -0.3876 -0.5162 -0.2260
12256TIP3   OH258258   1.531   2.752  11.222 -0.2146  0.3094  0.7702
12256TIP3    H158259   1.569   2.823  11.169 -0.8800  0.6810  0.7792
12256TIP3    H258260   1.521   2.791  11.309  2.4438 -0.8103  1.6662
12257TIP3   OH258261   2.510   5.691  10.590  0.4540  0.0630 -0.0442
12257TIP3    H158262   2.518   5.736  10.506  1.2967 -1.4571 -0.8341
12257TIP3    H258263   2.420   5.708  10.618 -0.0080  0.1749 -1.5158
12258TIP3   OH258264   3.615   1.810   5.550  0.1552 -0.5871 -0.1406
12258TIP3    H158265   3.615   1.845   5.461 -2.2080 -1.4631 -0.5753
12258TIP3    H258266   3.598   1.886   5.606 -0.6760 -0.3566 -0.6807
12259TIP3   OH258267   2.034   3.642  14.101 -0.7923 -0.5033  0.3887
12259TIP3    H158268   1.964   3.676  14.157 -0.4237 -0.3548  0.7552
12259TIP3    H258269   2.049   3.711  14.037  2.3663  1.6646  3.1654
12260TIP3   OH258270   2.112   0.880  12.375  0.7657  0.1103 -0.5813
12260TIP3    H158271   2.177   0.944  12.346  0.8310  0.3255  0.0238
12260TIP3    H258272   2.092   0.905  12.466  3.0952 -2.5666  0.8240
12261TIP3   OH258273   4.579   3.093   2.366 -0.5061  0.8146  0.4608
12261TIP3    H158274   4.631   3.172   2.351  0.3620  0.1781  0.0613
12261TIP3    H258275   4.568   3.054   2.279 -1.5586  0.8719  0.5543
12262TIP3   OH258276   3.831   4.316  12.210 -0.0226  0.0738  0.1942
12262TIP3    H158277   3.803   4.404  12.237 -0.4090  0.1767 -0.5349
12262TIP3    H258278   3.868   4.278  12.290  0.3739  0.9868  0.4539
12263TIP3   OH258279   6.016   0.650   4.356  0.0094 -0.3829 -0.1156
12263TIP3    H158280   5.960   0.670   4.430 -0.8949 -1.4369 -0.4697
12263TIP3    H258281   5.972   0.576   4.312  0.3931  0.3413 -1.8111
12264TIP3   OH258282   2.390   3.089  15.075 -0.3073 -0.5901 -0.2076
12264TIP3    H158283   2.397   3.009  15.023  1.0463 -0.4214 -0.3333
12264TIP3    H258284   2.463   3.083  15.138  0.5290  1.0351 -0.9598
12265TIP3   OH258285   1.432   4.106   5.632 -0.0809 -0.2705 -0.2342
12265TIP3    H158286   1.416   4.067   5.547 -1.2923 -0.3022 -0.0176
12265TIP3    H258287   1.346   4.136   5.661  0.6816  2.0225 -0.1321
12266TIP3   OH258288   4.798   2.990   3.907  0.0447  0.1584 -0.2646
12266TIP3    H158289   4.882   2.990   3.952  0.2964  0.2129 -0.7325
12266TIP3    H258290   4.763   2.902   3.920 -0.1227  0.3279  0.4759
12267TIP3   OH258291   1.230   0.864  14.533  0.1788 -0.5869 -0.5261
12267TIP3    H158292   1.209   0.854  14.625  0.8290  0.6253 -0.2153
12267TIP3    H258293   1.285   0.789  14.512  1.6980  0.1487  0.6297
12268TIP3   OH258294   2.222   0.639  14.330  0.5149  0.0317  0.2415
12268TIP3    H158295   2.159   0.641  14.402  1.3133 -1.6729  1.0503
12268TIP3    H258296   2.200   0.560  14.280  0.7998  0.4797 -0.6223
12269TIP3   OH258297   3.483   6.475  13.135  0.2888 -0.6582  0.6408
12269TIP3    H158298   3.571   6.511  13.131  0.4474 -1.1654 -1.1787
12269TIP3    H258299   3.426   6.550  13.120  0.4021 -0.3870  1.5011
12270TIP3   OH258300   6.031   2.110  16.064  0.5274  0.6885 -1.1688
12270TIP3    H158301   5.980   2.161  16.000 -0.7126  0.2249 -0.5872
12270TIP3    H258302   6.025   2.161  16.145 -2.5716 -1.2937  0.0286
12271TIP3   OH258303   6.307   5.664  16.189 -0.6250 -0.0736 -0.1464
12271TIP3    H158304   6.244   5.617  16.134 -1.5811  1.5455 -0.4839
12271TIP3    H258305   6.287   5.756  16.176  0.7358  0.4343  1.0528
12272TIP3   OH258306   6.343   5.752  15.647 -0.0550 -0.0904  0.1273
12272TIP3    H158307   6.305   5.684  15.593  0.8146  0.5504 -1.3518
12272TIP3    H258308   6.420   5.711  15.686 -0.0706 -0.2347  0.0058
12273TIP3   OH258309   4.399   4.966  13.671 -0.1120  0.4208 -0.8334
12273TIP3    H158310   4.446   5.047  13.691  1.9788 -0.8952 -0.1739
12273TIP3    H258311   4.457   4.896  13.700 -2.3701 -1.3417 -0.2575
12274TIP3   OH258312   0.398   4.735  11.985  0.3284  0.0784  0.1944
12274TIP3    H158313   0.386   4.702  11.896  2.3442 -0.9465  0.2488
12274TIP3    H258314   0.343   4.678  12.039  1.0963 -0.9922 -0.1235
12275TIP3   OH258315   4.110   5.518   4.687 -0.4386  0.1344 -0.1534
12275TIP3    H158316   4.112   5.582   4.758  0.3849 -0.8154  0.7091
12275TIP3    H258317   4.197   5.524   4.648 -0.3013 -0.5781  0.0417
12276TIP3   OH258318   4.528   0.533   3.360  0.2999 -0.0365 -0.3248
12276TIP3    H158319   4.476   0.489   3.293 -0.5569 -0.3710  0.5348
12276TIP3    H258320   4.615   0.493   3.353  0.2904  0.0934 -1.3695
12277TIP3   OH258321   4.706   0.776   4.136 -0.4332  0.4701 -0.4826
12277TIP3    H158322   4.691   0.870   4.131 -1.2591  0.2840 -2.6797
12277TIP3    H258323   4.749   0.763   4.221  0.1947  2.8645 -0.3553
12278TIP3   OH258324   6.135   1.131   0.160 -0.0362 -0.4171 -0.0725
12278TIP3    H158325   6.092   1.056   0.117  0.2453 -0.7687  0.2576
12278TIP3    H258326   6.208   1.153   0.102  0.8616 -1.4335  0.6298
12279TIP3   OH258327   0.387   4.766   3.886 -0.0096 -0.0190  0.5391
12279TIP3    H158328   0.326   4.699   3.854  0.3588  0.2395 -0.7410
12279TIP3    H258329   0.452   4.775   3.817  0.2744  1.2642  0.9496
12280TIP3   OH258330   2.638   5.908   3.548 -0.0446  0.5414 -0.0981
12280TIP3    H158331   2.588   5.838   3.505  1.2302 -0.2105 -0.4014
12280TIP3    H258332   2.705   5.932   3.484 -1.3099  3.0594 -0.5690
12281TIP3   OH258333   1.319   3.145  14.939  1.0668  0.3247  0.2825
12281TIP3    H158334   1.285   3.082  15.002  0.3840  0.0156 -0.3775
12281TIP3    H258335   1.399   3.105  14.905  1.7978  0.7868  1.4104
12282TIP3   OH258336   2.486   1.337   1.219  0.0308 -0.1394 -0.0832
12282TIP3    H158337   2.439   1.271   1.168 -1.7724  0.4484  0.7458
12282TIP3    H258338   2.420   1.402   1.242  1.5032  1.3601  0.1563
12283TIP3   OH258339   4.855   4.898  16.790  0.0641 -0.0564  0.3953
12283TIP3    H158340   4.793   4.827  16.809 -1.2600  1.2842  1.2870
12283TIP3    H258341   4.941   4.857  16.797 -0.6664 -1.8990 -0.5137
12284TIP3   OH258342   4.507   2.604  14.826  0.1943  0.6225  0.4079
12284TIP3    H158343   4.451   2.527  14.818  0.9147  0.2462 -1.5449
12284TIP3    H258344   4.580   2.587  14.767  1.1103  2.2009  1.0069
12285TIP3   OH258345   5.565   6.529   5.330  0.5268  0.0028 -0.6503
12285TIP3    H158346   5.625   6.586   5.378 -2.5350  3.3099 -0.3169
12285TIP3    H258347   5.605   6.519   5.244  1.8021  1.7064 -0.3122
12286TIP3   OH258348   0.552   4.866   3.677 -0.5306 -0.3512  0.1133
12286TIP3    H158349   0.546   4.955   3.713  0.9311 -0.1814 -0.0171
12286TIP3    H258350   0.575   4.880   3.585  1.7142 -0.8655  0.5438
12287TIP3   OH258351   1.429   6.443   3.788  0.2032 -0.2854 -0.0188
12287TIP3    H158352   1.409   6.462   3.880 -1.3085 -2.3711  0.1726
12287TIP3    H258353   1.470   6.357   3.790  1.9258  0.4661 -1.1843
12288TIP3   OH258354   0.468   5.312  16.873 -0.1353 -0.0301 -0.3039
12288TIP3    H158355   0.471   5.371  16.797 -1.4885  0.9214  0.3383
12288TIP3    H258356   0.423   5.363  16.940  2.8553 -0.0073  1.9003
12289TIP3   OH258357   6.076   2.977  16.459 -0.1511 -0.2863  0.3707
12289TIP3    H158358   6.027   2.922  16.520 -0.1758 -0.2988  0.3390
12289TIP3    H258359   6.069   2.931  16.375  2.3684 -1.8451  0.9321
12290TIP3   OH258360   5.292   1.854   3.221  0.2535  0.0889 -0.1007
12290TIP3    H158361   5.198   1.873   3.232  0.1381 -0.6452  0.2673
12290TIP3    H258362   5.329   1.866   3.308 -0.0258 -2.3174  0.4387
12291TIP3   OH258363   4.386   2.096  17.287  0.0434 -0.0255  0.0437
12291TIP3    H158364   4.474   2.102  17.324  0.2578  2.0224 -0.6405
12291TIP3    H258365   4.336   2.048  17.353  1.3031  0.1964  1.2188
12292TIP3   OH258366   4.736   2.637  12.590 -0.4335  0.2482  0.1673
12292TIP3    H158367   4.687   2.630  12.508  1.1138  1.3293 -0.9133
12292TIP3    H258368   4.738   2.731  12.609 -2.2390 -0.0941  2.4347
12293TIP3   OH258369   5.393   3.933  12.348 -0.2917 -0.4774 -0.9251
12293TIP3    H158370   5.481   3.935  12.309 -0.9989  1.7907 -2.6856
12293TIP3    H258371   5.366   4.025  12.350 -2.2826 -1.0118  0.4716
12294TIP3   OH258372   4.770   4.085  12.448  0.3645  0.0858 -0.2428
12294TIP3    H158373   4.752   4.128  12.365 -0.5889 -0.3674 -0.2891
12294TIP3    H258374   4.695   4.107  12.503  1.8144  1.8674  1.1309
12295TIP3   OH258375   4.288   5.034   4.031 -0.0205  0.7990  0.6893
12295TIP3    H158376   4.242   4.963   4.076  1.1450  0.1255  0.8605
12295TIP3    H258377   4.228   5.109   4.036  0.2133  0.9232  3.8106
12296TIP3   OH258378   0.273   2.561   6.356  0.6675 -0.2503  0.3730
12296TIP3    H158379   0.290   2.629   6.421  3.0149 -0.8649  0.4942
12296TIP3    H258380   0.271   2.480   6.405 -0.2055 -0.4656 -0.0064
12297TIP3   OH258381   1.868   6.481  12.306 -0.3279  0.2153  0.2361
12297TIP3    H158382   1.894   6.471  12.398 -1.5212 -1.1135  0.4808
12297TIP3    H258383   1.772   6.471  12.308 -0.4668  1.1321 -1.0439
12298TIP3   OH258384   1.443   5.250   0.190 -0.3799  0.0731  0.2691
12298TIP3    H158385   1.533   5.262   0.160 -0.0665 -1.6928  0.3932
12298TIP3    H258386   1.437   5.303   0.269  0.4594  0.4290  0.1021
12299TIP3   OH258387   1.200   0.694   3.698  0.4906 -0.0381 -0.1686
12299TIP3    H158388   1.199   0.712   3.604  1.8170  0.5593 -0.0943
12299TIP3    H258389   1.244   0.609   3.705 -0.3677 -0.4891 -0.1288
12300TIP3   OH258390   5.045   5.463  16.115  0.2063 -0.3073  0.2460
12300TIP3    H158391   5.089   5.486  16.197 -0.0086  0.1282  0.2452
12300TIP3    H258392   4.982   5.533  16.102  1.1484  0.3648 -0.9820
12301TIP3   OH258393   6.500   1.899  16.202  0.1916  0.2279  0.2436
12301TIP3    H158394   6.422   1.935  16.245 -0.3566 -0.9281  0.2523
12301TIP3    H258395   6.469   1.818  16.161  1.0653  0.5140 -1.0196
12302TIP3   OH258396   0.471   5.344  16.529 -0.1703 -1.0225 -0.3207
12302TIP3    H158397   0.402   5.408  16.545  0.2025 -0.9453  1.1418
12302TIP3    H258398   0.425   5.263  16.508 -0.7844 -1.1934  1.4656
12303TIP3   OH258399   4.359   0.641  13.816 -0.2485 -0.2312  0.7136
12303TIP3    H158400   4.360   0.545  13.816 -2.7268 -0.3523 -1.2805
12303TIP3    H258401   4.277   0.664  13.858  0.5096  1.0789  1.5301
12304TIP3   OH258402   0.550   5.174  17.314  0.3862 -0.1342  0.1983
12304TIP3    H158403   0.576   5.257  17.275  1.9463 -0.4257  0.5475
12304TIP3    H258404   0.567   5.109  17.245 -2.1751 -0.0671 -0.6025
12305TIP3   OH258405   1.680   1.112  12.094 -0.0218 -0.4232 -0.0884
12305TIP3    H158406   1.647   1.036  12.048 -1.6980 -0.0058  0.3673
12305TIP3    H258407   1.627   1.118  12.173 -0.8096  1.9251 -0.7086
12306TIP3   OH258408   6.059   2.145   2.579  0.1671  0.4109 -0.0824
12306TIP3    H158409   6.123   2.128   2.510 -0.7960  2.1506 -1.4793
12306TIP3    H258410   6.104   2.207   2.638  0.4763  0.0251  0.0970
12307TIP3   OH258411   3.163   4.294  17.100 -0.1867  0.6699 -0.2821
12307TIP3    H158412   3.126   4.369  17.053 -1.1966 -1.0207 -2.3622
12307TIP3    H258413   3.088   4.256  17.146 -0.3483 -0.7363 -1.6524
12308TIP3   OH258414   2.107   4.950   2.112 -0.1938  0.3908 -0.1557
12308TIP3    H158415   2.062   4.900   2.180  0.4201  1.7917  1.3442
12308TIP3    H258416   2.200   4.936   2.130 -0.0186  0.4624 -0.9603
12309TIP3   OH258417   5.648   0.702  17.249 -0.1348 -0.3628  0.0306
12309TIP3    H158418   5.650   0.786  17.203 -0.8460 -0.4097 -0.1038
12309TIP3    H258419   5.580   0.713  17.316 -0.1364 -0.7837  0.1028
12310TIP3   OH258420   4.332   0.319   0.235 -0.1916  0.7201  0.0214
12310TIP3    H158421   4.359   0.342   0.324  0.7208  1.3459 -0.4023
12310TIP3    H258422   4.284   0.396   0.204 -3.3309 -0.6448  1.0364
12311TIP3   OH258423   2.625   0.946   3.850 -0.2892 -0.5891  0.0935
12311TIP3    H158424   2.700   0.888   3.867  0.4489  0.0322 -0.9226
12311TIP3    H258425   2.612   0.991   3.933  0.5763 -0.5899  0.2458
12312TIP3   OH258426   4.255   5.852  12.738  0.6150  0.4951  0.3916
12312TIP3    H158427   4.209   5.895  12.666  0.2392 -0.4275  0.0688
12312TIP3    H258428   4.189   5.843  12.807  0.8159  0.8428  0.6329
12313TIP3   OH258429   3.824   2.540  10.656  1.2648  0.3690  0.7228
12313TIP3    H158430   3.828   2.446  10.644  0.4396  0.4743 -0.5732
12313TIP3    H258431   3.778   2.552  10.739  2.0860 -0.3577  1.3036
12314TIP3   OH258432   0.144   3.755   0.479 -0.4472  0.3820 -0.1907
12314TIP3    H158433   0.206   3.691   0.444 -0.6479 -0.2866  0.6284
12314TIP3    H258434   0.162   3.756   0.573 -1.6968  0.1347  0.0757
12315TIP3   OH258435   1.513   3.001  12.982  0.4782  0.0690 -0.0024
12315TIP3    H158436   1.461   3.009  13.062  0.2342  2.2097 -0.3232
12315TIP3    H258437   1.450   3.013  12.911  1.0409  0.3934 -0.4564
12316TIP3   OH258438   3.216   0.270   0.388 -0.1965  0.4099  0.2308
12316TIP3    H158439   3.277   0.224   0.330 -0.5178  0.2065  0.0512
12316TIP3    H258440   3.162   0.322   0.329  0.1948  1.0571  0.4381
12317TIP3   OH258441   1.311   0.566  11.465 -0.2325 -0.0921 -0.1343
12317TIP3    H158442   1.311   0.657  11.496 -0.0225 -0.0780 -0.1759
12317TIP3    H258443   1.395   0.555  11.421 -0.4378 -0.1794 -0.5121
12318TIP3   OH258444   4.406   5.982   2.857  0.0161  0.2884  0.1200
12318TIP3    H158445   4.312   5.995   2.844  0.1155  1.9539  0.7530
12318TIP3    H258446   4.439   6.069   2.880  1.9843  0.1002 -1.6304
12319TIP3   OH258447   6.734   5.221   3.905  0.1735 -0.1586  0.0371
12319TIP3    H158448   6.700   5.133   3.884 -1.2905  0.1926  0.7827
12319TIP3    H258449   6.687   5.279   3.845 -1.1160  0.4104  1.5068
12320TIP3   OH258450   3.175   1.463  15.245  0.1793  0.2140  0.0548
12320TIP3    H158451   3.165   1.432  15.335  0.1131 -1.1630 -0.4076
12320TIP3    H258452   3.137   1.394  15.191 -0.3792  1.3126 -1.0185
12321TIP3   OH258453   6.344   5.518  14.018 -0.3443 -0.2424 -0.1676
12321TIP3    H158454   6.366   5.468  13.939 -0.7642 -0.4454 -0.1610
12321TIP3    H258455   6.378   5.606  14.001  0.9565 -0.6860  0.0769
12322TIP3   OH258456   4.642   3.518  15.073 -0.3800 -0.1368 -0.4601
12322TIP3    H158457   4.720   3.471  15.041  0.2092  0.5328 -0.0491
12322TIP3    H258458   4.651   3.516  15.168 -1.0507 -0.3358 -0.3956
12323TIP3   OH258459   5.667   6.087   4.621  0.0330  0.4350 -0.0316
12323TIP3    H158460   5.687   6.164   4.567 -1.1291  0.9000  0.1554
12323TIP3    H258461   5.653   6.123   4.709  0.4374 -0.1243  0.2656
12324TIP3   OH258462   3.923   0.285   2.655 -0.3240 -0.3211 -0.0357
12324TIP3    H158463   3.898   0.194   2.640 -1.1945 -0.0756 -0.1305
12324TIP3    H258464   4.018   0.282   2.671 -0.4429 -1.2998  0.5391
12325TIP3   OH258465   5.917   0.116  13.522  0.2182  0.3398  0.1998
12325TIP3    H158466   5.874   0.092  13.439  0.2200 -1.1669  0.5967
12325TIP3    H258467   6.009   0.091  13.509  0.9015  2.8477 -0.3704
12326TIP3   OH258468   2.322   0.360  15.797  0.0036  0.2018  0.1098
12326TIP3    H158469   2.270   0.336  15.720  0.4969  1.7200 -0.7409
12326TIP3    H258470   2.296   0.298  15.864 -1.5607 -0.2185 -0.8396
12327TIP3   OH258471   0.834   3.102   0.246 -0.0672  0.4754  0.4755
12327TIP3    H158472   0.897   3.032   0.228  1.6748  1.3353  2.7149
12327TIP3    H258473   0.803   3.130   0.159  0.5242 -1.8325 -0.5427
12328TIP3   OH258474   3.907   1.879  12.291 -0.3641 -0.1709 -0.0420
12328TIP3    H158475   3.823   1.853  12.331  0.1855  0.8435  1.8789
12328TIP3    H258476   3.945   1.796  12.260 -1.5202 -0.7972  0.1554
12329TIP3   OH258477   2.267   0.097   2.000 -0.0043 -0.1854  0.5313
12329TIP3    H158478   2.222   0.020   1.965 -2.2727  0.7929  1.1273
12329TIP3    H258479   2.295   0.145   1.922 -2.9853  0.8265 -0.0336
12330TIP3   OH258480   4.593   1.165  15.402 -0.6975  0.4507 -0.2840
12330TIP3    H158481   4.644   1.241  15.373  1.5667 -1.2604 -1.1321
12330TIP3    H258482   4.608   1.161  15.496  1.3886 -0.3649 -0.5938
12331TIP3   OH258483   6.644   0.203   0.759 -0.6454  0.3248  0.0802
12331TIP3    H158484   6.675   0.165   0.676 -1.8720 -1.7345  0.4966
12331TIP3    H258485   6.715   0.186   0.821 -0.5259  0.1346 -0.1061
12332TIP3   OH258486   5.001   4.097   4.886  0.1407  0.0648 -0.5848
12332TIP3    H158487   4.911   4.070   4.867  0.2799 -1.0378  0.2273
12332TIP3    H258488   4.992   4.167   4.950 -0.1140 -1.6928  1.3893
12333TIP3   OH258489   0.539   0.264  13.618 -0.2969  0.0407 -0.1315
12333TIP3    H158490   0.469   0.329  13.609 -1.0604 -0.8478 -0.8499
12333TIP3    H258491   0.505   0.201  13.682  0.3171  0.1917  0.3473
12334TIP3   OH258492   0.822   4.419   5.465 -0.9755 -0.5066 -0.4095
12334TIP3    H158493   0.832   4.332   5.505 -1.5149 -1.0491 -1.4173
12334TIP3    H258494   0.911   4.452   5.458 -0.6668 -1.3960 -0.8920
12335TIP3   OH258495   6.470   0.238   2.426 -0.1364 -0.2633  0.0720
12335TIP3    H158496   6.435   0.310   2.374 -2.4666 -0.9202  0.6127
12335TIP3    H258497   6.393   0.194   2.463  1.2516 -2.1574  0.9492
12336TIP3   OH258498   1.181   3.959   0.275 -0.0310 -0.6212 -0.1471
12336TIP3    H158499   1.262   3.999   0.243 -0.1683 -0.4066 -0.2274
12336TIP3    H258500   1.130   3.940   0.196  0.1629 -1.2450 -0.1333
12337TIP3   OH258501   4.029   1.033   4.250  0.1298 -0.4585 -0.4731
12337TIP3    H158502   3.983   0.988   4.180  0.1624 -0.4250 -0.5169
12337TIP3    H258503   3.963   1.050   4.317  0.2548 -1.1648 -0.1604
12338TIP3   OH258504   0.293   4.230  15.292 -0.2867 -0.0910 -0.2690
12338TIP3    H158505   0.236   4.224  15.368 -0.9406 -1.4548 -0.8334
12338TIP3    H258506   0.365   4.169  15.311  0.0780  0.3162 -0.3172
12339TIP3   OH258507   3.622   3.885   0.719  0.4632 -0.0997  0.0878
12339TIP3    H158508   3.618   3.979   0.732  0.8023 -0.0703  0.0036
12339TIP3    H258509   3.606   3.872   0.626  1.3844 -0.0414 -0.0955
12340TIP3   OH258510   2.975   2.973   1.225  0.1144 -0.4465  0.1613
12340TIP3    H158511   3.017   2.898   1.266 -0.5672 -1.2647 -0.6069
12340TIP3    H258512   2.935   2.938   1.146  0.5018  0.8910 -0.6548
12341TIP3   OH258513   4.413   0.324   3.226  0.1067  0.8331 -0.1453
12341TIP3    H158514   4.484   0.261   3.239 -0.8597  0.0049  1.4640
12341TIP3    H258515   4.334   0.270   3.221 -0.3652  1.6194 -3.2092
12342TIP3   OH258516   3.520   1.374   4.177 -0.4468  0.2732 -0.1024
12342TIP3    H158517   3.612   1.395   4.194 -0.2625  0.1976 -0.9525
12342TIP3    H258518   3.513   1.371   4.082 -1.3514  0.3533 -0.0508
12343TIP3   OH258519   0.544   1.799   4.524 -0.0695  0.3187 -0.0618
12343TIP3    H158520   0.596   1.754   4.458  0.4273 -0.6587  0.9588
12343TIP3    H258521   0.458   1.759   4.518 -0.1294  0.4902 -0.3595
12344TIP3   OH258522   4.624   3.402   0.602 -0.3162  0.3701 -0.4069
12344TIP3    H158523   4.607   3.311   0.625 -0.4995  0.5010  0.0007
12344TIP3    H258524   4.613   3.449   0.685  0.1131  0.7155 -0.5430
12345TIP3   OH258525   4.718   2.962   6.094 -0.0108 -0.5584  0.3476
12345TIP3    H158526   4.708   2.941   6.186 -2.3592  1.0068  0.5408
12345TIP3    H258527   4.699   3.056   6.088  1.2350 -0.3588 -1.5908
12346TIP3   OH258528   1.281   3.163  14.603 -0.2642  0.0713  0.2580
12346TIP3    H158529   1.272   3.084  14.550  0.4930 -0.9157  1.5378
12346TIP3    H258530   1.306   3.131  14.690  2.2145  1.7868  0.2928
12347TIP3   OH258531   0.406   6.374   1.412  0.7108 -0.0513 -0.4780
12347TIP3    H158532   0.372   6.402   1.327  0.0531 -1.3390 -0.6695
12347TIP3    H258533   0.489   6.331   1.393  1.0615  0.5727 -0.3495
12348TIP3   OH258534   5.396   1.790  13.822 -0.2769 -0.3190  0.1260
12348TIP3    H158535   5.305   1.808  13.844 -0.5564 -1.7780  0.2865
12348TIP3    H258536   5.400   1.800  13.727 -0.1493  1.5019  0.2867
12349TIP3   OH258537   5.201   3.953  14.925 -0.3920  0.0574  0.1664
12349TIP3    H158538   5.286   3.961  14.968 -1.0377 -0.1992  1.5525
12349TIP3    H258539   5.201   4.021  14.858  1.7402 -1.3124 -1.3361
12350TIP3   OH258540   5.904   6.615   1.680  0.6831  0.6667  0.4245
12350TIP3    H158541   5.998   6.631   1.682  1.8341 -4.0414 -1.5987
12350TIP3    H258542   5.881   6.619   1.587 -0.1462 -2.0448  0.4413
12351TIP3   OH258543   2.594   6.669  13.219  0.5079  0.0565 -0.6542
12351TIP3    H158544   2.653   6.602  13.185 -0.3556 -1.0744  0.0086
12351TIP3    H258545   2.641   6.751  13.207  2.3424 -0.8319  0.1398
12352TIP3   OH258546   5.191   2.743  12.041  0.2791 -0.5416 -0.4246
12352TIP3    H158547   5.232   2.801  12.106  1.1623  0.6739 -1.9807
12352TIP3    H258548   5.211   2.655  12.071 -0.7029 -0.0950  1.7774
12353TIP3   OH258549   5.233   6.313   6.131  0.0735 -0.1048  0.2333
12353TIP3    H158550   5.235   6.324   6.036 -0.9406 -0.4345  0.1664
12353TIP3    H258551   5.237   6.219   6.145 -0.4992 -0.0897  0.4952
12354TIP3   OH258552   0.506   4.539  14.977 -0.6856 -0.1148 -0.0214
12354TIP3    H158553   0.494   4.554  15.071 -0.9360 -0.3693 -0.0113
12354TIP3    H258554   0.431   4.581  14.936 -0.3087  0.4382 -0.1489
12355TIP3   OH258555   5.175   5.331  13.573  0.0509  0.8024 -0.0274
12355TIP3    H158556   5.144   5.408  13.526  1.8433  1.6443  0.0669
12355TIP3    H258557   5.271   5.335  13.564  0.1989 -1.2186  0.2851
12356TIP3   OH258558   4.697   2.981   0.151 -0.1230  0.2450  0.2355
12356TIP3    H158559   4.692   3.071   0.181 -1.2853  0.1348  0.4245
12356TIP3    H258560   4.676   2.928   0.228  2.8063 -0.3411  0.7661
12357TIP3   OH258561   0.599   2.898  15.410  0.4706  0.0826  0.4623
12357TIP3    H158562   0.533   2.966  15.394 -1.4743 -1.7377  0.3314
12357TIP3    H258563   0.641   2.885  15.326  0.0711  0.3481  0.2196
12358TIP3   OH258564   3.209   3.041   3.222  0.1758  0.3705 -0.1546
12358TIP3    H158565   3.135   3.007   3.171  0.1496 -0.6619  0.5345
12358TIP3    H258566   3.168   3.095   3.290  0.0782  0.1540 -0.0395
12359TIP3   OH258567   4.925   6.752   1.809 -0.2689  0.1399  0.1309
12359TIP3    H158568   4.930   6.670   1.760 -1.4926 -0.4487  0.9208
12359TIP3    H258569   4.990   6.741   1.879  0.6997  0.5299 -0.6782
12360TIP3   OH258570   4.687   5.097   1.921  1.0131  0.1507 -0.9397
12360TIP3    H158571   4.772   5.056   1.934 -0.1880 -2.7464 -1.3678
12360TIP3    H258572   4.626   5.023   1.915 -1.4843  2.0917 -1.0016
12361TIP3   OH258573   1.013   5.302  13.558  0.2877 -0.3375  0.0653
12361TIP3    H158574   0.947   5.366  13.583 -0.3987 -0.7452 -0.6467
12361TIP3    H258575   1.084   5.354  13.520  0.8375  0.1817  1.7406
12362TIP3   OH258576   2.929   3.074   0.722 -0.2402  0.1593 -0.3328
12362TIP3    H158577   2.944   3.119   0.805 -0.1109  1.5217 -1.0811
12362TIP3    H258578   2.841   3.036   0.732 -0.5837  1.0430  0.1033
12363TIP3   OH258579   5.749   0.761   4.833 -0.0787  0.2815  0.1555
12363TIP3    H158580   5.668   0.774   4.882 -0.2725  0.7701 -0.2842
12363TIP3    H258581   5.747   0.669   4.806 -0.8967  0.4958 -0.5622
12364TIP3   OH258582   4.461   2.881   2.651 -0.8932  0.8883  0.0133
12364TIP3    H158583   4.383   2.836   2.619 -1.1902  1.7757 -0.5608
12364TIP3    H258584   4.511   2.901   2.572 -0.4170  0.9300  0.3220
12365TIP3   OH258585   1.028   1.130  14.977  0.1730  0.5387  0.0700
12365TIP3    H158586   1.069   1.201  14.926  0.2800 -0.1079 -0.7644
12365TIP3    H258587   1.098   1.066  14.988 -0.2477  0.0182 -0.2319
12366TIP3   OH258588   3.805   0.334   3.467 -0.3836  0.3908 -0.4793
12366TIP3    H158589   3.779   0.396   3.399  0.1612  0.3745 -0.7102
12366TIP3    H258590   3.736   0.341   3.533  0.1567  1.9762 -0.0265
12367TIP3   OH258591   5.572   5.865   0.883  0.0311 -0.6281  0.3938
12367TIP3    H158592   5.573   5.857   0.788 -0.2734 -0.7051  0.3961
12367TIP3    H258593   5.596   5.956   0.900 -2.2898  0.1002  0.1540
12368TIP3   OH258594   6.198   3.571   1.425  0.0664  0.1537  0.0479
12368TIP3    H158595   6.127   3.596   1.484 -0.6563 -2.0785  0.2124
12368TIP3    H258596   6.262   3.528   1.481  0.0032 -0.7720 -0.5777
12369TIP3   OH258597   1.947   0.828   3.500 -0.0668 -0.1956  0.5414
12369TIP3    H158598   1.993   0.776   3.434 -0.8833  0.0279 -0.2297
12369TIP3    H258599   2.005   0.827   3.576  0.0796 -2.0155  0.4646
12370TIP3   OH258600   1.769   4.867  14.415  0.0591  0.3441 -0.0923
12370TIP3    H158601   1.798   4.797  14.356 -0.3121  0.3194 -0.2497
12370TIP3    H258602   1.850   4.901  14.453  0.1805 -1.1920  1.1509
12371TIP3   OH258603   3.489   0.348   0.487  0.0959 -0.2299 -0.6202
12371TIP3    H158604   3.411   0.298   0.513 -0.1499  1.0576  1.2397
12371TIP3    H258605   3.551   0.281   0.458  0.0110 -1.7336  2.3599
12372TIP3   OH258606   6.080   2.155  16.643  0.0689 -0.3935  0.1995
12372TIP3    H158607   6.044   2.068  16.627  0.5784 -1.0821  2.4215
12372TIP3    H258608   6.095   2.191  16.556 -2.8225 -1.3593 -0.8052
12373TIP3   OH258609   1.421   2.774   0.699 -0.9774  0.0057  0.3722
12373TIP3    H158610   1.400   2.758   0.607 -0.8411  2.2939 -0.1201
12373TIP3    H258611   1.508   2.736   0.711 -1.1232 -0.5708 -0.3477
12374TIP3   OH258612   5.828   2.450   4.058 -0.1600  0.1794  0.2614
12374TIP3    H158613   5.827   2.476   3.966 -1.2554 -0.3392  0.1022
12374TIP3    H258614   5.916   2.415   4.073 -0.6197 -1.7072 -1.1790
12375TIP3   OH258615   0.731   1.564  16.150  0.1445 -1.1981 -0.5773
12375TIP3    H158616   0.676   1.638  16.124 -0.1088 -0.0181  2.7596
12375TIP3    H258617   0.720   1.499  16.080 -3.1168  0.1694 -1.5140
12376TIP3   OH258618   5.318   1.132  16.478 -0.2340  0.0665  0.2511
12376TIP3    H158619   5.319   1.132  16.574  1.4688 -0.4367  0.2674
12376TIP3    H258620   5.315   1.040  16.454 -0.7019  0.1917 -0.1854
12377TIP3   OH258621   5.557   4.846   1.419 -0.2888 -0.3376 -0.7841
12377TIP3    H158622   5.463   4.864   1.421  0.0268  1.7904 -1.7954
12377TIP3    H258623   5.585   4.875   1.332  1.5784  0.7172  0.1118
12378TIP3   OH258624   1.800   3.272  12.734 -0.1011  0.1218 -0.5365
12378TIP3    H158625   1.842   3.357  12.733  2.2036 -0.9632 -1.2116
12378TIP3    H258626   1.858   3.217  12.787 -1.1476 -1.2202 -0.7268
12379TIP3   OH258627   6.272   6.352   0.140 -0.1277 -0.5879  0.0770
12379TIP3    H158628   6.323   6.432   0.125  1.6290 -1.5827  0.6066
12379TIP3    H258629   6.238   6.330   0.053  1.9440 -0.9373 -0.7042
12380TIP3   OH258630   6.027   3.489  17.345 -0.2143  0.1642 -0.2045
12380TIP3    H158631   5.947   3.444  17.371  0.9196 -1.8738 -0.0929
12380TIP3    H258632   6.023   3.573  17.391 -0.8834 -1.0964  2.1829
12381TIP3   OH258633   3.524   1.480   0.439  0.4101 -0.1281 -0.0754
12381TIP3    H158634   3.525   1.416   0.511  0.2077  0.3215  0.3327
12381TIP3    H258635   3.509   1.564   0.483 -3.1944 -0.1857 -0.9170
12382TIP3   OH258636   1.994   3.230   2.587  0.2065 -0.2648  0.3635
12382TIP3    H158637   2.021   3.222   2.678 -0.8119 -0.6149  0.6481
12382TIP3    H258638   1.910   3.276   2.591 -0.0159 -0.5897 -0.3661
12383TIP3   OH258639   1.413   2.273  16.635  0.1102  0.3218  0.2115
12383TIP3    H158640   1.344   2.238  16.692 -0.1694 -2.2170 -1.5136
12383TIP3    H258641   1.441   2.198  16.582  2.0897  1.9785 -1.2721
12384TIP3   OH258642   4.729   0.450   0.504  0.1610  0.3762 -0.2542
12384TIP3    H158643   4.701   0.416   0.419 -0.8280  0.6229 -0.0347
12384TIP3    H258644   4.713   0.379   0.566  1.4708 -0.0351 -0.3517
12385TIP3   OH258645   4.377   2.873   3.358 -0.4589 -0.6175 -0.0206
12385TIP3    H158646   4.428   2.923   3.295 -0.3843  0.3337  0.7829
12385TIP3    H258647   4.300   2.927   3.375  0.7557  0.4414  2.6687
12386TIP3   OH258648   1.373   3.240   5.048  0.0481 -0.1256 -0.3954
12386TIP3    H158649   1.375   3.272   4.957  1.3993  2.9959  0.6115
12386TIP3    H258650   1.282   3.254   5.075 -0.4589 -1.4102 -1.3111
12387TIP3   OH258651   5.994   4.065   2.317  0.0795  0.5354  0.4681
12387TIP3    H158652   6.068   4.015   2.282 -0.4018  0.4648 -0.4773
12387TIP3    H258653   5.937   4.000   2.358 -0.2136  0.3913 -0.1634
12388TIP3   OH258654   1.976   2.274   5.470 -0.1237 -0.6549  0.0296
12388TIP3    H158655   1.993   2.239   5.382  1.6501  2.1286 -0.8645
12388TIP3    H258656   1.885   2.304   5.466  0.0549 -0.1928 -1.0321
12389TIP3   OH258657   5.645   1.432   2.167 -0.1107  0.1935  0.1448
12389TIP3    H158658   5.570   1.428   2.226 -1.4117  1.3690 -1.3748
12389TIP3    H258659   5.675   1.341   2.162 -0.7748 -0.1415  1.5543
12390TIP3   OH258660   6.420   3.628   1.167  0.2769 -0.8809 -0.0936
12390TIP3    H158661   6.403   3.716   1.134  2.1757 -0.4687 -0.0983
12390TIP3    H258662   6.434   3.575   1.089  1.6117 -0.6032 -0.0719
12391TIP3   OH258663   3.885   6.757  15.440  0.2147 -0.2852  0.0014
12391TIP3    H158664   3.930   6.785  15.519 -1.1812 -0.3295  0.8572
12391TIP3    H258665   3.792   6.756  15.465 -0.1925 -0.9413 -1.4396
12392TIP3   OH258666   3.901   3.068   3.071 -0.2198  0.0601  0.1443
12392TIP3    H158667   3.972   3.094   3.130  0.6076 -0.9456 -0.3845
12392TIP3    H258668   3.822   3.076   3.124  0.3189  0.8756  0.8445
12393TIP3   OH258669   2.477   3.612  11.966 -0.4897 -0.4265  0.1507
12393TIP3    H158670   2.484   3.648  11.878  0.0879 -0.7487  0.0657
12393TIP3    H258671   2.432   3.529  11.954 -1.4436  0.0501  0.2998
12394TIP3   OH258672   5.244   4.619   2.748  0.1463  0.4292  0.1010
12394TIP3    H158673   5.260   4.526   2.763 -1.7495 -0.3954 -2.2096
12394TIP3    H258674   5.301   4.642   2.675  2.8323  2.0029  2.5033
12395TIP3   OH258675   1.264   0.804  13.980 -0.4093  0.1732  0.1351
12395TIP3    H158676   1.187   0.851  13.946 -1.4916 -1.6521 -0.1035
12395TIP3    H258677   1.254   0.808  14.075 -1.8619 -1.5834  0.1103
12396TIP3   OH258678   2.359   5.176   1.295 -0.4789  0.1075 -0.0959
12396TIP3    H158679   2.425   5.189   1.364 -1.0094 -1.7324  0.8239
12396TIP3    H258680   2.401   5.208   1.215  0.7784  0.7627  0.7923
12397TIP3   OH258681   2.497   5.943  14.536 -0.1308  0.4497 -0.0801
12397TIP3    H158682   2.525   5.852  14.536 -1.1116  0.1418 -0.2256
12397TIP3    H258683   2.493   5.967  14.629 -0.3079  0.2134 -0.0274
12398TIP3   OH258684   3.469   0.529   1.607 -0.1061  0.3420 -0.3017
12398TIP3    H158685   3.401   0.491   1.551  0.3574  0.2789 -0.8266
12398TIP3    H258686   3.546   0.474   1.592 -0.9774 -2.2619  3.4067
12399TIP3   OH258687   2.576   2.538   4.957  0.2235  0.8872  0.1696
12399TIP3    H158688   2.528   2.461   4.926  0.9648  0.1531  0.7958
12399TIP3    H258689   2.631   2.505   5.028  0.3589  2.0561  0.6371
12400TIP3   OH258690   5.622   4.209  12.880 -0.0752  0.4089  0.7136
12400TIP3    H158691   5.585   4.213  12.792  1.6209 -0.1346 -0.0619
12400TIP3    H258692   5.607   4.119  12.908  0.6150  0.1843  0.3932
12401TIP3   OH258693   3.905   2.084   0.059 -0.5226  0.0299 -0.5830
12401TIP3    H158694   3.827   2.034   0.036 -1.6044  0.7808  1.2712
12401TIP3    H258695   3.913   2.074   0.154  1.1687  0.6465 -0.6221
12402TIP3   OH258696   3.767   4.771  14.772  0.2031 -0.3189 -0.2709
12402TIP3    H158697   3.772   4.859  14.808 -0.6215  0.0512 -1.0241
12402TIP3    H258698   3.853   4.757  14.731  0.4199  0.0361  0.0571
12403TIP3   OH258699   5.300   3.147   3.006 -0.1386  0.3103  0.1390
12403TIP3    H158700   5.240   3.219   2.984 -0.2667  0.1199 -0.1456
12403TIP3    H258701   5.330   3.167   3.095 -2.6174 -0.9059  1.3652
12404TIP3   OH258702   4.856   0.076  13.208 -0.3848  0.6635 -0.2106
12404TIP3    H158703   4.883   0.111  13.123  1.4452 -0.6571 -0.2387
12404TIP3    H258704   4.937   0.070  13.258 -1.5978  2.9332  2.3030
12405TIP3   OH258705   2.791   6.507   1.647  0.0262  0.0328 -0.4967
12405TIP3    H158706   2.800   6.527   1.740 -0.1247 -0.6993 -0.3202
12405TIP3    H258707   2.878   6.477   1.620 -0.6550 -2.8179  0.1788
12406TIP3   OH258708   2.270   3.636  12.638  0.3732 -0.6509 -0.2948
12406TIP3    H158709   2.340   3.700  12.630  1.1680 -1.5017 -0.1901
12406TIP3    H258710   2.217   3.669  12.711 -1.5126  1.9894 -2.6124
12407TIP3   OH258711   5.039   5.838   4.463  0.3630  0.5051  0.5074
12407TIP3    H158712   5.035   5.915   4.407  2.0341 -0.4288 -1.0143
12407TIP3    H258713   5.021   5.765   4.405  1.1467 -0.4326  1.3993
12408TIP3   OH258714   2.385   0.819   3.376  0.0915 -0.5012  0.2100
12408TIP3    H158715   2.309   0.878   3.381  0.1918 -0.0419 -2.1313
12408TIP3    H258716   2.353   0.736   3.412 -0.8750  0.2400  1.1378
12409TIP3   OH258717   2.393   6.253   4.908  0.0454  0.1089 -0.3635
12409TIP3    H158718   2.339   6.223   4.981  0.7994 -1.2484 -0.3261
12409TIP3    H258719   2.344   6.226   4.830  0.9284 -1.7581 -0.3333
12410TIP3   OH258720   1.885   1.122   4.178 -0.3531  0.1493 -0.1180
12410TIP3    H158721   1.870   1.056   4.110  0.4999 -0.9251  0.6931
12410TIP3    H258722   1.807   1.178   4.174 -2.1893 -2.1491  0.5316
12411TIP3   OH258723   5.281   4.000  12.611 -0.9242  0.2302 -0.1818
12411TIP3    H158724   5.363   4.032  12.649 -1.0368  0.2291  0.0632
12411TIP3    H258725   5.306   3.968  12.524 -0.3801 -1.2006  0.4706
12412TIP3   OH258726   3.617   3.358  11.226 -0.5280 -0.4722  0.7386
12412TIP3    H158727   3.700   3.386  11.187 -0.5200  0.9107  1.6914
12412TIP3    H258728   3.636   3.345  11.318 -0.2600 -4.8916  0.2525
12413TIP3   OH258729   1.486   5.990  16.154 -0.0448 -0.0558 -0.1199
12413TIP3    H158730   1.457   5.926  16.218  4.0495 -1.1384  0.9322
12413TIP3    H258731   1.477   6.074  16.198 -0.9941 -0.3648  0.3043
12414TIP3   OH258732   1.613   4.302   4.808  0.0370 -0.3581  0.3273
12414TIP3    H158733   1.553   4.228   4.798  0.8521 -1.0350  0.3027
12414TIP3    H258734   1.598   4.334   4.897 -2.4559  1.3970 -0.5906
12415TIP3   OH258735   1.396   4.409   1.171 -0.1237  0.4151  0.7032
12415TIP3    H158736   1.484   4.371   1.160 -0.2150  0.7397 -2.0207
12415TIP3    H258737   1.383   4.462   1.092 -2.6094  0.7353  1.2405
12416TIP3   OH258738   1.073   2.120   6.191 -0.0450 -0.0038  0.4425
12416TIP3    H158739   1.159   2.134   6.152  0.0953 -1.9429 -0.0284
12416TIP3    H258740   1.088   2.126   6.286  0.5575 -0.0599  0.3511
12417TIP3   OH258741   4.461   5.345  12.329 -0.1415  0.2092  0.1146
12417TIP3    H158742   4.448   5.329  12.422 -0.3719  3.2715  0.7210
12417TIP3    H258743   4.545   5.305  12.309  0.4802  0.5000  1.9633
12418TIP3   OH258744   4.916   1.561   3.401  0.4604  0.4581  0.5757
12418TIP3    H158745   4.990   1.545   3.342  1.6738  1.9299  1.6286
12418TIP3    H258746   4.948   1.535   3.488 -0.7437 -0.1582  0.8676
12419TIP3   OH258747   3.899   3.586  12.669 -0.2941 -0.1239  0.2377
12419TIP3    H158748   3.973   3.561  12.615  0.8148  2.6920  0.3190
12419TIP3    H258749   3.843   3.637  12.611 -0.7981  0.0715  0.8835
12420TIP3   OH258750   4.931   4.824  15.498 -0.2630 -0.4961  0.2884
12420TIP3    H158751   5.013   4.802  15.541 -0.8725 -1.9046  0.7646
12420TIP3    H258752   4.938   4.785  15.411 -0.3421 -0.4395  0.2551
12421TIP3   OH258753   0.860   2.905   2.768  0.3850  0.5057  0.4568
12421TIP3    H158754   0.800   2.977   2.751 -0.1975 -0.0770 -0.0110
12421TIP3    H258755   0.872   2.863   2.683  0.8923  0.1848  0.6811
12422TIP3   OH258756   2.061   3.006   0.662 -0.3804 -0.1677  0.1091
12422TIP3    H158757   2.057   3.056   0.580  0.3003 -1.0121 -0.4498
12422TIP3    H258758   2.008   3.057   0.723 -0.3285  0.8439 -0.6582
12423TIP3   OH258759   2.010   2.039  12.099  0.5800 -0.2523 -0.0824
12423TIP3    H158760   2.015   2.111  12.162 -0.6716  1.2104 -1.5606
12423TIP3    H258761   2.100   2.008  12.091  0.9521  0.2879  1.5190
12424TIP3   OH258762   5.916   4.512   0.480 -0.3534  0.0720  0.6486
12424TIP3    H158763   5.823   4.504   0.461 -0.4673 -0.1695  1.2817
12424TIP3    H258764   5.946   4.422   0.492  0.0923  0.1096 -0.1358
12425TIP3   OH258765   3.257   0.667   6.848 -0.4325 -0.5675  0.8698
12425TIP3    H158766   3.204   0.725   6.793  0.9317  1.7037  1.8395
12425TIP3    H258767   3.248   0.581   6.807 -2.1808  0.3806 -0.8938
12426TIP3   OH258768   1.661   2.378   0.646 -0.5105 -0.1306  0.2488
12426TIP3    H158769   1.623   2.375   0.733 -0.6481  0.2456  0.2021
12426TIP3    H258770   1.636   2.463   0.611 -2.5947 -1.2072 -1.1250
12427TIP3   OH258771   1.209   6.566  12.419  0.0815 -0.1149  0.6681
12427TIP3    H158772   1.233   6.530  12.505 -1.9584  1.3894  1.9631
12427TIP3    H258773   1.126   6.524  12.397 -0.0052  0.3840  0.0126
12428TIP3   OH258774   1.449   2.838  15.011  0.5352 -0.1380  0.2068
12428TIP3    H158775   1.402   2.890  15.076  0.0923 -0.9077  0.5184
12428TIP3    H258776   1.486   2.765  15.062  1.3512  0.0013 -0.1743
12429TIP3   OH258777   2.790   3.020   2.466  0.0785 -0.0626 -0.9081
12429TIP3    H158778   2.756   3.073   2.394 -0.9881  0.2032 -0.2349
12429TIP3    H258779   2.769   2.930   2.441 -2.8149  0.1836  0.2682
12430TIP3   OH258780   3.677   0.991   1.236  0.1999  0.5628  0.4783
12430TIP3    H158781   3.651   0.904   1.205 -1.1155  0.8662  0.6901
12430TIP3    H258782   3.670   0.986   1.331 -0.6800  1.1414  0.4502
12431TIP3   OH258783   0.616   4.032  13.269  0.0383  0.1138  0.3747
12431TIP3    H158784   0.606   4.111  13.217  0.3317  0.4452  0.8181
12431TIP3    H258785   0.623   3.962  13.204  2.3798  0.7368 -0.1184
12432TIP3   OH258786   5.567   0.150  11.710 -0.1279  0.1484  0.2638
12432TIP3    H158787   5.475   0.122  11.701 -0.2032  0.5378 -0.2111
12432TIP3    H258788   5.605   0.136  11.624 -0.2135  1.6520 -0.0445
12433TIP3   OH258789   4.904   5.255  11.403 -0.0382  0.3502 -0.4576
12433TIP3    H158790   4.853   5.335  11.416 -0.1733  0.2189 -0.1602
12433TIP3    H258791   4.854   5.205  11.338 -0.4151  0.1174  0.0073
12434TIP3   OH258792   1.385   4.466   2.598 -0.0365 -0.9837 -0.5351
12434TIP3    H158793   1.377   4.451   2.504  0.8816 -2.3463 -0.4266
12434TIP3    H258794   1.459   4.526   2.607 -2.0539  1.7256 -0.8142
12435TIP3   OH258795   0.866   5.802  16.771  0.1754  0.5959  0.2654
12435TIP3    H158796   0.821   5.755  16.701  1.5831 -0.1369 -0.1872
12435TIP3    H258797   0.912   5.873  16.726  2.6932 -1.0327  0.0746
12436TIP3   OH258798   0.211   4.615   5.333 -0.1371  0.0098  0.3140
12436TIP3    H158799   0.195   4.575   5.418 -0.3316  2.6380  1.6203
12436TIP3    H258800   0.290   4.668   5.346  1.4933 -1.6630 -1.9854
12437TIP3   OH258801   3.580   6.777  13.057  0.3069  0.0979  0.2636
12437TIP3    H158802   3.661   6.728  13.075 -1.2393 -3.0666 -0.6178
12437TIP3    H258803   3.603   6.833  12.982  1.5934 -1.1054 -0.3044
12438TIP3   OH258804   5.486   3.937   1.068 -0.2779 -0.2588  0.1572
12438TIP3    H158805   5.542   3.861   1.054  0.8750  0.4952  0.5364
12438TIP3    H258806   5.397   3.905   1.053  0.2561 -1.4570 -0.5556
12439TIP3   OH258807   6.032   1.323   2.718  0.2978 -0.0044  0.2732
12439TIP3    H158808   6.056   1.260   2.649 -1.4622  0.6225 -0.9747
12439TIP3    H258809   5.937   1.331   2.712  0.4670  3.0999  0.0563
12440TIP3   OH258810   3.867   0.565   4.199  0.0920  0.3448 -0.0366
12440TIP3    H158811   3.884   0.517   4.280  3.1336  2.1940  0.6022
12440TIP3    H258812   3.955   0.582   4.163 -0.9995  2.4977 -1.9424
12441TIP3   OH258813   6.380   0.210   4.058 -0.1197  0.1072  0.0728
12441TIP3    H158814   6.287   0.192   4.072 -0.4936  0.4547 -1.7274
12441TIP3    H258815   6.412   0.135   4.007  0.3926  0.3696 -0.0054
12442TIP3   OH258816   6.443   4.018   0.377  0.2268  0.1517  0.1194
12442TIP3    H158817   6.400   4.063   0.449  0.6414  1.1377 -0.2401
12442TIP3    H258818   6.402   3.931   0.375 -0.1786  0.3101  1.1747
12443TIP3   OH258819   1.234   5.525  14.605  0.2701 -0.0185 -0.2686
12443TIP3    H158820   1.302   5.578  14.647  0.3780 -0.7848  0.5693
12443TIP3    H258821   1.240   5.440  14.649 -1.7348  0.1163  0.3679
12444TIP3   OH258822   6.247   6.152  16.650 -0.3265  0.0666 -0.0277
12444TIP3    H158823   6.177   6.109  16.600  0.6245 -0.3857 -1.0322
12444TIP3    H258824   6.237   6.245  16.630 -0.3231 -0.0509 -0.6180
12445TIP3   OH258825   3.892   4.784  10.696 -0.2287  0.7971 -0.4443
12445TIP3    H158826   3.960   4.832  10.648  1.1589 -0.7054 -0.1069
12445TIP3    H258827   3.922   4.693  10.694 -1.4293  0.3166  1.1193
12446TIP3   OH258828   4.947   6.094   4.286  0.5541  0.0354 -0.5064
12446TIP3    H158829   4.915   6.183   4.296  0.3203 -0.0859 -0.1439
12446TIP3    H258830   4.999   6.095   4.205  0.9513  0.6072 -0.2424
12447TIP3   OH258831   4.941   2.887   0.343  0.4133 -0.1066 -0.2416
12447TIP3    H158832   4.849   2.874   0.366  1.0325 -1.5278  1.8083
12447TIP3    H258833   4.939   2.942   0.265 -2.1002  2.6019  1.4850
12448TIP3   OH258834   4.809   2.767  12.176 -0.3743 -0.3012  0.2794
12448TIP3    H158835   4.733   2.767  12.234 -0.6262 -1.9191  0.0063
12448TIP3    H258836   4.782   2.818  12.100 -1.6585 -1.8490 -0.3525
12449TIP3   OH258837   2.680   1.648   2.377  0.0786 -0.1930 -1.0777
12449TIP3    H158838   2.680   1.706   2.453  0.4901  0.5278 -1.6178
12449TIP3    H258839   2.682   1.560   2.414 -2.2942  0.0564 -0.2050
12450TIP3   OH258840   0.887   0.389   4.187 -0.1106 -0.0261  0.2271
12450TIP3    H158841   0.859   0.480   4.182  0.4702  0.2101  1.1484
12450TIP3    H258842   0.898   0.363   4.095 -1.4752  0.4313 -0.0970
12451TIP3   OH258843   1.730   6.382  17.031  0.6699  0.3350 -0.3404
12451TIP3    H158844   1.661   6.443  17.057 -0.2220 -0.3019 -1.1413
12451TIP3    H258845   1.798   6.438  16.994  1.1430  1.0828  1.5303
12452TIP3   OH258846   6.406   4.569  14.445  0.5312  0.0248 -0.1597
12452TIP3    H158847   6.362   4.633  14.389 -1.0768  0.6430  1.6573
12452TIP3    H258848   6.443   4.506  14.385  0.7494  1.7702 -1.9794
12453TIP3   OH258849   2.507   3.703   4.947 -0.4405  0.8712  0.5200
12453TIP3    H158850   2.584   3.751   4.916 -0.8836 -0.7646 -3.8170
12453TIP3    H258851   2.543   3.626   4.991  0.3080  1.6308  1.2729
12454TIP3   OH258852   1.940   6.342   5.754 -0.3099 -0.0894  0.0908
12454TIP3    H158853   2.031   6.352   5.782 -0.0775  0.4194 -0.8139
12454TIP3    H258854   1.932   6.250   5.729  0.0466 -0.0491 -0.1658
12455TIP3   OH258855   4.964   0.842  17.333  0.9214 -0.2610  0.8811
12455TIP3    H158856   4.909   0.904  17.380 -0.2578  0.0664 -0.8358
12455TIP3    H258857   4.946   0.758  17.374  0.3607  0.0980  1.3909
12456TIP3   OH258858   3.680   6.163  13.070 -0.0253  0.5696 -0.4508
12456TIP3    H158859   3.753   6.108  13.040 -0.6903  0.0456 -1.1136
12456TIP3    H258860   3.660   6.129  13.157 -1.5408 -1.4100 -1.5011
12457TIP3   OH258861   3.204   4.192  11.747  0.4428  0.1850 -0.4811
12457TIP3    H158862   3.206   4.169  11.839 -0.6042 -0.3122 -0.5707
12457TIP3    H258863   3.164   4.279  11.745  0.1645  0.0594 -0.4818
12458TIP3   OH258864   4.450   6.068   4.927  0.2720 -0.2386 -0.1371
12458TIP3    H158865   4.519   6.091   4.989 -0.4598  0.5456  0.4058
12458TIP3    H258866   4.469   6.120   4.849  0.7440 -0.6314 -0.2914
12459TIP3   OH258867   6.739   6.792   5.295 -0.1792 -0.0103 -0.0553
12459TIP3    H158868   6.726   6.765   5.204 -1.4574 -0.0053  0.1066
12459TIP3    H258869   6.834   6.799   5.305 -0.0398  0.4043 -1.5070
12460TIP3   OH258870   2.871   1.629   5.814  0.3910  0.5070 -0.5243
12460TIP3    H158871   2.815   1.677   5.754  0.6900  0.9629 -0.4428
12460TIP3    H258872   2.815   1.611   5.890  0.2703  0.7067 -0.5652
12461TIP3   OH258873   2.073   1.988   4.946 -0.7518 -0.1927  0.4118
12461TIP3    H158874   2.025   2.016   4.868  0.0827  0.8543  0.2421
12461TIP3    H258875   2.094   2.070   4.991 -1.1488 -0.7823  1.7016
12462TIP3   OH258876   6.534   2.133  13.881 -0.1581  0.0243  0.3553
12462TIP3    H158877   6.500   2.214  13.843 -1.1170 -0.6535 -0.2887
12462TIP3    H258878   6.629   2.145  13.881 -0.1019  0.1851 -2.0999
12463TIP3   OH258879   3.112   3.302  13.537  0.0530 -0.0884  0.2332
12463TIP3    H158880   3.079   3.364  13.472  1.1290  0.0206 -0.2324
12463TIP3    H258881   3.176   3.249  13.489 -0.1400 -0.9196  0.8650
12464TIP3   OH258882   0.012   4.214   2.521 -0.1039  0.1127  0.0428
12464TIP3    H158883   0.041   4.305   2.525 -0.3248  0.1514  0.9344
12464TIP3    H258884  -0.030   4.199   2.606  0.6246 -1.0446  0.2197
12465TIP3   OH258885   1.392   5.805  15.712  0.1437  0.2047 -0.3021
12465TIP3    H158886   1.419   5.893  15.741  1.4522 -0.4391  0.5441
12465TIP3    H258887   1.391   5.753  15.793  0.0587 -0.7269 -0.8909
12466TIP3   OH258888   1.121   4.002  12.004  0.2123  0.2413  0.0337
12466TIP3    H158889   1.049   4.044  12.052 -0.3645 -2.0528  1.3111
12466TIP3    H258890   1.200   4.040  12.042 -0.2933  0.2213  1.1426
12467TIP3   OH258891   0.744   2.862  11.552  0.5327  0.0417  0.6310
12467TIP3    H158892   0.750   2.784  11.607 -3.0869 -1.2101 -0.5284
12467TIP3    H258893   0.781   2.835  11.468 -1.6056 -0.8651 -0.0815
12468TIP3   OH258894   2.312   5.128  12.302 -0.2168  0.0488  0.0139
12468TIP3    H158895   2.400   5.090  12.293 -0.9575 -1.6026 -0.5814
12468TIP3    H258896   2.279   5.135  12.213 -0.3210  1.7040  0.1367
12469TIP3   OH258897   3.475   5.976   5.299  0.6565 -0.6805  0.0203
12469TIP3    H158898   3.440   5.889   5.277  2.7817 -1.5577 -0.1280
12469TIP3    H258899   3.560   5.958   5.340  2.1934  1.3672 -2.0269
12470TIP3   OH258900   3.590   2.141   3.993 -0.9750 -0.0833 -0.2859
12470TIP3    H158901   3.506   2.175   4.024 -1.6105  0.0395 -2.0350
12470TIP3    H258902   3.651   2.213   4.008 -1.0036 -0.4138  1.6283
12471TIP3   OH258903   4.305   5.532   1.211  0.0827 -0.3845 -0.3999
12471TIP3    H158904   4.217   5.567   1.202 -0.5574 -1.6875  0.5080
12471TIP3    H258905   4.345   5.544   1.125 -0.7630  0.7751 -0.6498
12472TIP3   OH258906   2.416   2.386   4.815  0.1918 -0.5746  0.1066
12472TIP3    H158907   2.390   2.386   4.723 -1.5701 -1.4410  0.5669
12472TIP3    H258908   2.345   2.342   4.861  1.3888 -0.8660  1.8047
12473TIP3   OH258909   3.744   2.813  17.265  0.2695  0.3472 -0.1834
12473TIP3    H158910   3.806   2.798  17.336  0.8882 -1.5210 -1.0563
12473TIP3    H258911   3.686   2.737  17.269 -1.8075  1.8614  0.3793
12474TIP3   OH258912   1.538   1.179  12.352  0.2881 -0.2253  0.3105
12474TIP3    H158913   1.509   1.200  12.441  2.6377 -0.5213  1.2237
12474TIP3    H258914   1.479   1.228  12.295  0.0924  1.7681  2.1151
12475TIP3   OH258915   0.847   2.775  12.273 -0.0425 -0.1075 -0.2911
12475TIP3    H158916   0.776   2.719  12.240  0.5408 -2.1644  1.6875
12475TIP3    H258917   0.926   2.722  12.262  0.5582  0.3467  1.5366
12476TIP3   OH258918   0.008   1.100   4.710  0.0865 -0.2804 -0.4173
12476TIP3    H158919  -0.085   1.103   4.734  1.0257  1.8436  4.0283
12476TIP3    H258920   0.029   1.007   4.711 -1.4753 -0.7038  1.4272
12477TIP3   OH258921   3.958   4.281  15.371 -0.0937  0.0794 -0.2790
12477TIP3    H158922   3.942   4.189  15.352  0.7836 -0.4050  1.1563
12477TIP3    H258923   3.880   4.310  15.419 -0.0732 -0.1079 -0.1331
12478TIP3   OH258924   2.369   3.385  11.320  0.3499  0.0533 -0.2785
12478TIP3    H158925   2.420   3.438  11.259 -0.3397 -0.6431 -1.4944
12478TIP3    H258926   2.288   3.435  11.333 -0.1852 -0.5461 -1.2142
12479TIP3   OH258927   2.216   1.627   3.541  0.5268 -0.4139 -0.3008
12479TIP3    H158928   2.238   1.687   3.613  0.6378  0.7292 -1.2518
12479TIP3    H258929   2.300   1.594   3.511  0.9391  2.2762 -2.5142
12480TIP3   OH258930   3.254   5.243   3.479  0.3165 -0.8825  0.2599
12480TIP3    H158931   3.288   5.330   3.503 -2.1391 -0.2494  1.8905
12480TIP3    H258932   3.332   5.189   3.468  1.9067  1.2694  0.2127
12481TIP3   OH258933   5.870   4.743  10.886 -0.6311 -0.7514 -0.7324
12481TIP3    H158934   5.944   4.761  10.828 -1.1073  0.7695 -0.9047
12481TIP3    H258935   5.867   4.817  10.946 -0.9732 -1.6418  0.3949
12482TIP3   OH258936   4.009   2.637   3.812 -0.1539  0.1121 -0.7221
12482TIP3    H158937   3.966   2.722   3.824  0.4420  0.2086  1.1841
12482TIP3    H258938   3.937   2.575   3.802 -0.6668  0.5987 -0.1428
12483TIP3   OH258939   2.629   1.836   1.342  0.4194  0.2237  0.4350
12483TIP3    H158940   2.645   1.877   1.427 -0.8468 -1.2016  1.4104
12483TIP3    H258941   2.569   1.895   1.298 -0.1122  0.2371  1.1604
12484TIP3   OH258942   4.026   5.630   4.959 -0.5088  0.3509  0.5980
12484TIP3    H158943   4.094   5.607   5.022 -0.7947  0.2545  0.8699
12484TIP3    H258944   4.004   5.721   4.980  0.2473  0.7272 -0.1391
12485TIP3   OH258945   1.080   4.377  15.009 -0.0200  0.2044  0.2983
12485TIP3    H158946   1.103   4.326  15.087 -1.3156 -1.3718 -0.2967
12485TIP3    H258947   1.123   4.332  14.937  2.4221  2.5000  0.1591
12486TIP3   OH258948   0.075   6.306  13.224 -0.5393 -0.6741  0.3621
12486TIP3    H158949   0.024   6.357  13.160  1.6247 -1.0206 -1.8221
12486TIP3    H258950   0.137   6.370  13.261  1.1741 -1.2867 -1.2733
12487TIP3   OH258951   4.615   4.427   0.841 -0.3738 -0.5112  0.0602
12487TIP3    H158952   4.607   4.332   0.845 -3.6726 -0.4239 -1.0885
12487TIP3    H258953   4.528   4.459   0.866  0.8352  2.2667  1.1592
12488TIP3   OH258954   2.266   2.075  15.757 -0.5194  0.1926  0.2995
12488TIP3    H158955   2.191   2.081  15.816 -0.9829  0.7672 -0.3266
12488TIP3    H258956   2.252   2.146  15.693  1.2213  1.1388  0.9117
12489TIP3   OH258957   3.510   2.898   2.194 -0.0947  0.0935  0.0690
12489TIP3    H158958   3.598   2.935   2.201 -0.3348  0.9503 -1.0625
12489TIP3    H258959   3.492   2.899   2.100 -1.5185  0.4238  0.3229
12490TIP3   OH258960   0.880   4.590   3.088 -0.1552 -0.3434 -0.2809
12490TIP3    H158961   0.862   4.519   3.027  1.5598 -0.0901 -1.1280
12490TIP3    H258962   0.975   4.600   3.088 -0.3674  2.9055 -1.3266
12491TIP3   OH258963   2.762   0.970  14.305 -0.2162  0.2547  0.2421
12491TIP3    H158964   2.752   0.882  14.343  1.1161  0.0056  0.0623
12491TIP3    H258965   2.768   1.028  14.381  0.3573  0.0081  0.3898
12492TIP3   OH258966   5.026   0.840  16.120 -0.5022 -0.3671  0.3207
12492TIP3    H158967   4.938   0.859  16.087 -0.0674  0.7852 -0.2573
12492TIP3    H258968   5.072   0.801  16.046  0.1537  1.2259 -0.1597
12493TIP3   OH258969   6.428   2.779   3.447 -0.2580 -0.3243  0.0275
12493TIP3    H158970   6.492   2.709   3.452  1.8784  1.5323  0.0471
12493TIP3    H258971   6.349   2.743   3.489  0.2381 -3.1587 -1.2803
12494TIP3   OH258972   4.128   5.040   4.440  0.5283  0.4194  0.0988
12494TIP3    H158973   4.046   4.993   4.457  0.7089  0.5238  1.3218
12494TIP3    H258974   4.172   4.986   4.374 -0.4937  0.3406 -0.5503
12495TIP3   OH258975   1.333   5.902  14.845 -0.3084 -0.1667  0.4506
12495TIP3    H158976   1.341   5.988  14.802 -0.5541  0.7988  2.2410
12495TIP3    H258977   1.378   5.842  14.785  0.8208  1.3893 -0.3591
12496TIP3   OH258978   1.962   1.034  15.890 -0.4541 -0.4790 -0.0864
12496TIP3    H158979   1.887   1.084  15.922 -0.0992  0.8028 -1.1682
12496TIP3    H258980   1.924   0.967  15.833 -0.7960  0.5405 -1.1160
12497TIP3   OH258981   1.358   5.094  16.369 -0.1883  0.3525  0.7981
12497TIP3    H158982   1.362   5.154  16.444  1.6331  0.4409  0.6750
12497TIP3    H258983   1.438   5.043  16.375 -1.1214 -1.2588  0.1970
12498TIP3   OH258984   6.778   0.829  12.307 -0.0119 -0.1935  0.5581
12498TIP3    H158985   6.869   0.855  12.322  0.1902  0.1387 -1.0264
12498TIP3    H258986   6.766   0.839  12.212 -1.7141 -0.1900  0.7486
12499TIP3   OH258987   1.817   6.666  11.774  0.5006 -1.0009 -0.6085
12499TIP3    H158988   1.745   6.643  11.716  1.0027 -0.3358 -1.5227
12499TIP3    H258989   1.778   6.671  11.861 -1.3814  2.7627 -1.4834
12500TIP3   OH258990   2.951   2.671  17.234  0.0339 -0.4614  0.1056
12500TIP3    H158991   3.005   2.678  17.155 -0.5856  2.2384 -0.1542
12500TIP3    H258992   2.861   2.670  17.202 -0.2278  0.7822  0.7693
12501TIP3   OH258993   3.796   3.373  12.273  0.3188 -0.5706  0.3163
12501TIP3    H158994   3.770   3.328  12.193  0.9471 -1.7842  0.7659
12501TIP3    H258995   3.760   3.320  12.344  1.7080 -0.8183  0.8746
12502TIP3   OH258996   0.543   5.948   3.025  0.6164  0.3306  0.2822
12502TIP3    H158997   0.607   5.882   3.000  0.0389  0.6836 -2.3695
12502TIP3    H258998   0.501   5.913   3.104  1.1375 -1.8752 -0.3729
12503TIP3   OH258999   4.086   1.760   0.754  0.0203 -0.2769  0.3327
12503TIP3    H159000   4.159   1.753   0.693 -0.1698  0.6545 -0.0174
12503TIP3    H259001   4.022   1.695   0.722  0.3515 -0.5254  0.1637
12504TIP3   OH259002   4.840   1.125   4.819  0.2833  0.3091  0.3805
12504TIP3    H159003   4.803   1.123   4.907 -2.2404  0.7891 -0.5832
12504TIP3    H259004   4.931   1.151   4.832  0.2057 -0.4065  2.8854
12505TIP3   OH259005   3.881   5.322   0.107 -0.4292  0.8642 -0.2344
12505TIP3    H159006   3.964   5.369   0.106  1.7268 -2.2852  3.1005
12505TIP3    H259007   3.850   5.330   0.197 -0.6739 -2.5912  0.1263
12506TIP3   OH259008   1.832   5.220  16.966  0.0589 -0.1794  0.0409
12506TIP3    H159009   1.912   5.171  16.986  0.1716  0.4689  1.2503
12506TIP3    H259010   1.863   5.308  16.943 -0.3397  0.3138  1.3323
12507TIP3   OH259011   4.333   3.457   3.872 -0.2804  0.1502  0.0339
12507TIP3    H159012   4.428   3.467   3.861  0.0473 -2.9644 -0.9467
12507TIP3    H259013   4.297   3.540   3.840  2.0432  0.9680 -0.6927
12508TIP3   OH259014   4.231   3.816   2.592 -0.1044  0.5724  0.3886
12508TIP3    H159015   4.135   3.816   2.582 -0.2470  1.6131  1.4846
12508TIP3    H259016   4.248   3.750   2.658 -0.0301  0.1700 -0.0294
12509TIP3   OH259017   5.926   2.308  10.899 -0.3227  0.1156  0.9984
12509TIP3    H159018   5.939   2.253  10.822 -1.9576  0.2680  0.5910
12509TIP3    H259019   5.832   2.317  10.907 -0.2246 -0.1632  3.2278
12510TIP3   OH259020   6.227   2.388   1.608 -0.3453  0.0082 -0.4096
12510TIP3    H159021   6.280   2.425   1.678  0.5731  1.3108 -1.7359
12510TIP3    H259022   6.162   2.334   1.653  0.4380  0.5103  1.4064
12511TIP3   OH259023   1.171   1.621  16.029  0.6419 -0.3458 -0.4741
12511TIP3    H159024   1.112   1.690  16.001  2.4418  0.9220 -1.3839
12511TIP3    H259025   1.141   1.543  15.982  0.0027  0.3908 -1.3259
12512TIP3   OH259026   5.367   5.254   4.262  0.1450  0.1219  0.1430
12512TIP3    H159027   5.448   5.281   4.307  0.6922 -1.7095  0.3435
12512TIP3    H259028   5.298   5.303   4.306  1.1688  2.1679 -0.4043
12513TIP3   OH259029   1.815   1.535   5.926 -0.3120 -0.1494 -0.4051
12513TIP3    H159030   1.768   1.592   5.865  1.2938  1.3334 -0.3213
12513TIP3    H259031   1.753   1.522   5.999 -1.8404 -1.0640 -1.7887
12514TIP3   OH259032   3.442   1.428   3.490 -0.4775 -0.9546 -0.0731
12514TIP3    H159033   3.522   1.444   3.539  0.8396 -1.2249 -2.0421
12514TIP3    H259034   3.438   1.499   3.426 -1.5709 -1.2008 -0.3061
12515TIP3   OH259035   6.443   1.293   2.201 -0.5081  0.4379  0.0994
12515TIP3    H159036   6.483   1.206   2.205 -0.0506  0.6495  0.2191
12515TIP3    H259037   6.352   1.278   2.226 -0.6548 -0.1387 -0.7563
12516TIP3   OH259038   6.274   2.514   0.298 -0.5848  0.5749 -0.5085
12516TIP3    H159039   6.259   2.422   0.276 -0.9954  0.7078 -0.7863
12516TIP3    H259040   6.369   2.526   0.289  0.2995 -1.0091  3.9752
12517TIP3   OH259041   3.874   5.320   5.026 -0.3326  1.1216  0.2290
12517TIP3    H159042   3.942   5.317   4.958 -0.1341  0.8023  0.4395
12517TIP3    H259043   3.827   5.402   5.008  0.5062  1.6716  0.4644
12518TIP3   OH259044   5.593   5.714  11.323 -0.0265  0.4795 -0.4005
12518TIP3    H159045   5.574   5.782  11.387  0.9981  0.3248  0.0939
12518TIP3    H259046   5.669   5.747  11.274  1.7929 -1.1115  1.1843
12519TIP3   OH259047   0.312   1.993   4.709 -0.0083 -0.1948  0.2002
12519TIP3    H159048   0.255   2.064   4.739  0.9025  0.8010 -0.3511
12519TIP3    H259049   0.259   1.946   4.644  0.2225  1.5988 -1.4025
12520TIP3   OH259050   5.214   4.165  16.186 -0.2850 -0.1794 -0.3184
12520TIP3    H159051   5.148   4.226  16.216  0.6484  0.0171  1.4848
12520TIP3    H259052   5.170   4.080  16.183 -1.3375  0.3735 -1.9519
12521TIP3   OH259053   2.869   0.999   1.340  0.0446 -0.4602 -0.1405
12521TIP3    H159054   2.819   0.962   1.268 -2.4458  0.4763  0.9905
12521TIP3    H259055   2.892   1.088   1.311 -1.5622  0.1720  0.4095
12522TIP3   OH259056   0.922   4.097  11.050 -0.6176 -0.4324  0.0525
12522TIP3    H159057   0.964   4.020  11.089  0.3503  0.2308  0.3585
12522TIP3    H259058   0.959   4.102  10.962  0.4544  0.5119  0.5342
12523TIP3   OH259059   0.502   4.054  15.284 -0.1108  0.3818 -0.1560
12523TIP3    H159060   0.580   4.107  15.267  1.1694 -1.1266  0.7933
12523TIP3    H259061   0.483   4.012  15.200  0.9463 -0.2959 -0.0775
12524TIP3   OH259062   5.296   1.053  15.382 -0.1918 -0.0712  0.1487
12524TIP3    H159063   5.363   0.991  15.352  0.4553 -0.2225  1.8044
12524TIP3    H259064   5.305   1.054  15.477 -1.9526  0.6027  0.3496
12525TIP3   OH259065   1.087   0.223   3.091 -0.4089 -0.4088  0.2758
12525TIP3    H159066   1.068   0.261   3.006 -2.3244 -0.3939  0.6760
12525TIP3    H259067   1.061   0.132   3.084  1.0399 -0.8538  0.3489
12526TIP3   OH259068   2.104   6.515   3.799  0.5703 -0.5591 -0.0548
12526TIP3    H159069   2.052   6.460   3.857 -0.4049  0.5025  0.1107
12526TIP3    H259070   2.188   6.525   3.845 -0.0073 -0.1506  0.9632
12527TIP3   OH259071   5.966   6.183   4.585 -0.4360  0.2389  0.0585
12527TIP3    H159072   5.904   6.253   4.607  0.5749  1.2162 -0.0931
12527TIP3    H259073   6.050   6.228   4.574  0.4399 -1.1272  0.8557
12528TIP3   OH259074   3.777   6.421   3.729  0.3915  0.0483  0.3828
12528TIP3    H159075   3.755   6.447   3.639  0.1230  0.3372  0.5321
12528TIP3    H259076   3.743   6.332   3.737  2.8446 -1.0791 -0.7043
12529TIP3   OH259077   1.680   6.119  11.319  0.2792 -0.0564  0.0614
12529TIP3    H159078   1.607   6.065  11.288  0.3029  0.5837 -1.1680
12529TIP3    H259079   1.724   6.149  11.239  0.9460  0.8529  0.7411
12530TIP3   OH259080   1.734   4.711   5.992 -0.7723  0.6811 -0.3302
12530TIP3    H159081   1.780   4.710   6.076 -0.0634 -1.2329 -0.6972
12530TIP3    H259082   1.645   4.682   6.013 -0.4401 -0.3443 -0.3070
12531TIP3   OH259083   4.563   5.021   5.782 -0.3997 -0.3490  0.2719
12531TIP3    H159084   4.587   4.941   5.827  0.5578 -0.3809 -0.2679
12531TIP3    H259085   4.467   5.017   5.774 -0.4706 -0.8467  1.3130
12532TIP3   OH259086   2.196   4.497  15.971 -0.4846  0.5024  0.9940
12532TIP3    H159087   2.153   4.445  16.039 -1.4685 -0.7713 -0.5330
12532TIP3    H259088   2.206   4.584  16.010 -3.1529  0.4600  1.9706
12533TIP3   OH259089   2.772   5.630   1.492  0.0732  0.3390 -0.0735
12533TIP3    H159090   2.722   5.576   1.553  0.4689 -0.4369 -0.4234
12533TIP3    H259091   2.863   5.616   1.516  0.1639  1.3101  0.1969
12534TIP3   OH259092   0.707   3.140  16.953 -0.3897 -0.0619 -0.3029
12534TIP3    H159093   0.681   3.177  17.037  1.2414  0.1651  0.1382
12534TIP3    H259094   0.657   3.058  16.946  0.6480 -0.9420  1.6877
12535TIP3   OH259095   3.193   3.367   1.169  0.2416 -0.2547  0.0548
12535TIP3    H159096   3.114   3.318   1.194  1.1336 -1.4576  0.6375
12535TIP3    H259097   3.195   3.361   1.073 -0.4223 -0.1287  0.0260
12536TIP3   OH259098   2.322   5.771  13.673 -0.4774 -0.2020  0.2960
12536TIP3    H159099   2.364   5.700  13.625 -0.9266 -0.2304 -0.0611
12536TIP3    H259100   2.383   5.792  13.744 -0.8504 -1.7081  1.0975
12537TIP3   OH259101   6.031   3.204  12.749 -0.4479 -0.5405  0.4149
12537TIP3    H159102   5.982   3.158  12.817  0.5952 -1.6724  0.4573
12537TIP3    H259103   5.980   3.192  12.669 -0.4760 -1.3233  0.5415
12538TIP3   OH259104   4.652   4.628  16.801  0.1286 -0.3158  0.0353
12538TIP3    H159105   4.709   4.623  16.878 -1.3147  1.5476  1.2995
12538TIP3    H259106   4.606   4.544  16.801  2.1431 -1.5004 -0.5108
12539TIP3   OH259107   4.041   1.819   0.403  0.1479  0.5126 -0.8746
12539TIP3    H159108   4.040   1.912   0.382 -0.5903  0.4991 -0.9332
12539TIP3    H259109   3.950   1.792   0.395  0.3953 -0.2758 -1.1230
12540TIP3   OH259110   4.061   4.268  13.875  0.1268 -0.1358 -0.7573
12540TIP3    H159111   4.152   4.292  13.890  0.0423  1.3642 -2.3161
12540TIP3    H259112   4.011   4.328  13.930  0.0612 -0.9699  0.1106
12541TIP3   OH259113   1.274   1.003   0.279 -0.0754  0.1034  1.0803
12541TIP3    H159114   1.246   0.914   0.257  0.8478  0.1473 -0.3594
12541TIP3    H259115   1.202   1.038   0.331 -0.7374 -1.2631  1.1325
12542TIP3   OH259116   1.304   5.106  14.631 -0.1831 -0.4113 -0.7391
12542TIP3    H159117   1.306   5.010  14.634 -2.0142 -0.4784 -0.4008
12542TIP3    H259118   1.306   5.128  14.538  2.1124 -0.6543 -0.8101
12543TIP3   OH259119   2.195   4.375   3.476 -0.2295 -0.2087  0.1998
12543TIP3    H159120   2.204   4.283   3.501 -0.2139 -0.4426 -0.6369
12543TIP3    H259121   2.123   4.407   3.529 -0.0756 -0.6389  0.6805
12544TIP3   OH259122   5.517   1.990  13.360 -0.1253 -0.5392 -0.0200
12544TIP3    H159123   5.601   2.025  13.391  1.1344 -2.0266 -1.5448
12544TIP3    H259124   5.456   2.062  13.370  1.5696  0.9500  0.1905
12545TIP3   OH259125   1.746   3.685  15.493  0.7378 -0.3980 -0.4417
12545TIP3    H159126   1.672   3.742  15.474  0.7380 -0.9222 -2.2278
12545TIP3    H259127   1.817   3.721  15.440  1.0878 -1.3119 -0.6066
12546TIP3   OH259128   0.319   4.254   0.091  0.4709 -0.1750 -0.0925
12546TIP3    H159129   0.307   4.320   0.159 -0.5390  0.1793 -0.5933
12546TIP3    H259130   0.375   4.188   0.131  1.1544  0.7749  0.5586
12547TIP3   OH259131   6.553   0.689   3.086  0.3720  0.2157 -0.2601
12547TIP3    H159132   6.599   0.727   3.161 -0.7595  2.8783 -0.7899
12547TIP3    H259133   6.597   0.726   3.009  0.2847 -0.9383 -0.8874
12548TIP3   OH259134   2.286   0.724  14.996  0.0218 -0.0799  0.3866
12548TIP3    H159135   2.292   0.660  14.925 -0.3922 -0.7285  0.9257
12548TIP3    H259136   2.359   0.702  15.054  1.7911  1.8740 -0.9407
12549TIP3   OH259137   3.365   5.149  17.137 -0.0539  0.6496  0.4230
12549TIP3    H159138   3.282   5.184  17.171 -0.8970  0.2033 -1.0766
12549TIP3    H259139   3.362   5.168  17.043  0.9640 -0.4847  0.1358
12550TIP3   OH259140   6.272   2.059   0.854 -0.3025 -0.0564  1.1134
12550TIP3    H159141   6.219   2.129   0.894 -0.8308  0.1454  0.0829
12550TIP3    H259142   6.362   2.088   0.866 -0.4313 -0.1152  2.3575
12551TIP3   OH259143   4.983   0.446  12.441 -0.2051 -0.3158  0.8576
12551TIP3    H159144   4.996   0.539  12.423  0.0245 -0.1668  1.7354
12551TIP3    H259145   5.001   0.403  12.358  0.8686  0.3307  0.7276
12552TIP3   OH259146   4.395   5.045   3.754  0.0234  0.2618 -0.5174
12552TIP3    H159147   4.466   5.110   3.750 -0.5005  0.8529 -0.4804
12552TIP3    H259148   4.365   5.048   3.845  0.0380 -0.0772 -0.5018
12553TIP3   OH259149   0.290   3.177   0.801  0.1039 -0.0522  0.9419
12553TIP3    H159150   0.286   3.272   0.793 -0.1519 -0.2410 -2.4622
12553TIP3    H259151   0.214   3.155   0.855 -1.1283  1.5704 -0.0121
12554TIP3   OH259152   3.378   3.511  11.653 -0.4767  0.7086  0.2154
12554TIP3    H159153   3.366   3.493  11.746  0.3223 -0.5401  0.1100
12554TIP3    H259154   3.308   3.460  11.610 -0.3179  0.5951  0.0903
12555TIP3   OH259155   0.575   4.308   4.667  0.2330  0.1598  0.4767
12555TIP3    H159156   0.648   4.281   4.612 -0.6792 -2.3917  0.3634
12555TIP3    H259157   0.602   4.288   4.756 -0.6668 -1.9074  0.3467
12556TIP3   OH259158   0.961   0.461   3.892 -0.2700 -0.6385 -0.8080
12556TIP3    H159159   0.958   0.509   3.809 -1.7032 -0.7130 -0.8186
12556TIP3    H259160   1.038   0.497   3.937 -0.9086  1.2366 -1.0943
12557TIP3   OH259161   6.176   6.404  16.489 -0.1765  0.2702 -0.8256
12557TIP3    H159162   6.247   6.448  16.441 -0.3440  0.9886 -0.4296
12557TIP3    H259163   6.117   6.475  16.514 -0.0020 -0.0705  0.6073
12558TIP3   OH259164   6.439   5.035  13.114 -0.0411 -0.2991  0.5276
12558TIP3    H159165   6.462   4.996  13.029 -1.3924 -0.0501  0.0287
12558TIP3    H259166   6.346   5.015  13.126 -0.3629  1.3165  1.0337
12559TIP3   OH259167   2.323   6.178  15.938  0.0081 -0.1804 -0.5594
12559TIP3    H159168   2.385   6.146  15.873 -0.9439  0.7758 -1.9944
12559TIP3    H259169   2.306   6.268  15.913  0.2818  0.5223  1.5699
12560TIP3   OH259170   3.496   4.603  11.920  0.1888  0.1092  0.3273
12560TIP3    H159171   3.412   4.560  11.936 -0.0007  0.3601  0.0125
12560TIP3    H259172   3.474   4.685  11.876  0.5942  0.2101  0.3043
12561TIP3   OH259173   0.932   0.293   6.407  0.4819 -0.4708  0.1796
12561TIP3    H159174   0.985   0.340   6.343  0.7834 -0.7073  0.2548
12561TIP3    H259175   0.954   0.201   6.394  0.4547 -0.5301  0.5437
12562TIP3   OH259176   5.351   5.382  11.550  0.2669 -0.4101 -0.0376
12562TIP3    H159177   5.422   5.325  11.578  0.7142  1.2916  2.6431
12562TIP3    H259178   5.391   5.469  11.546 -1.0329  0.1690 -1.3127
12563TIP3   OH259179   5.982   6.640  12.003  0.2670  0.3429  0.1447
12563TIP3    H159180   6.044   6.710  12.024  0.2373  0.2468  0.5545
12563TIP3    H259181   5.967   6.595  12.086 -1.4483  1.2373  0.3427
12564TIP3   OH259182   4.981   2.419   5.467  0.4903 -0.4029  0.3037
12564TIP3    H159183   4.934   2.443   5.388  0.6706 -1.9039 -0.2839
12564TIP3    H259184   4.939   2.339   5.498  0.7190 -0.1001  1.4789
12565TIP3   OH259185   5.272   2.024   3.959  0.0772 -0.5141 -0.0807
12565TIP3    H159186   5.320   2.011   3.877  0.6327 -0.0254  0.1585
12565TIP3    H259187   5.286   1.942   4.007 -1.3458 -1.3351 -0.9990
12566TIP3   OH259188   5.442   0.005  14.945  0.5451 -0.3983  0.1251
12566TIP3    H159189   5.532  -0.011  14.916 -0.1193 -0.7421 -1.8815
12566TIP3    H259190   5.447   0.088  14.993  2.0698 -0.8648  0.8161
12567TIP3   OH259191   2.077   5.486   4.215  0.2455  0.1495  0.2233
12567TIP3    H159192   1.993   5.515   4.178  0.3959 -1.3201 -1.3507
12567TIP3    H259193   2.139   5.553   4.188 -0.3346  1.1283  1.2014
12568TIP3   OH259194   3.261   5.759  15.236  0.6065  0.4466 -0.0073
12568TIP3    H159195   3.190   5.743  15.173 -1.0542 -0.8735  2.0730
12568TIP3    H259196   3.336   5.785  15.182 -0.7407 -0.5572 -2.4993
12569TIP3   OH259197   1.481   4.650  17.280 -0.2402 -0.2107 -0.2822
12569TIP3    H159198   1.513   4.740  17.291  1.2866 -0.7082 -0.4351
12569TIP3    H259199   1.417   4.639  17.350 -0.1537  0.8626 -0.0028
12570TIP3   OH259200   0.802   6.461  14.852  0.0793  0.1723  0.2685
12570TIP3    H159201   0.790   6.509  14.934  0.0263  1.5770 -0.5263
12570TIP3    H259202   0.879   6.405  14.867  0.0513  0.3999  1.2730
12571TIP3   OH259203   1.190   3.544   2.866  0.1620  0.2019 -0.4488
12571TIP3    H159204   1.225   3.471   2.917  1.4664  1.5446  0.6614
12571TIP3    H259205   1.095   3.528   2.864  0.1564 -0.3667  1.6610
12572TIP3   OH259206   1.295   2.904   3.577 -0.0639 -0.0753  0.7446
12572TIP3    H159207   1.324   2.994   3.558  1.0444 -0.7140 -0.7546
12572TIP3    H259208   1.340   2.881   3.658  2.0705 -0.3159 -0.4597
12573TIP3   OH259209   6.051   6.322   2.277 -0.2720 -0.2297  0.0455
12573TIP3    H159210   6.015   6.334   2.189  1.2823  1.4234 -0.4334
12573TIP3    H259211   5.982   6.279   2.326 -1.6639 -0.0203 -1.6419
12574TIP3   OH259212   4.963   2.720  16.650  0.2688 -0.0401  0.3214
12574TIP3    H159213   4.918   2.666  16.585  0.0962  0.0751  0.3442
12574TIP3    H259214   5.032   2.663  16.685  0.8803  0.1682 -0.5403
12575TIP3   OH259215   3.656   0.162   1.238  0.6033 -0.0990  0.4461
12575TIP3    H159216   3.727   0.105   1.268  1.8594  0.8096 -0.6717
12575TIP3    H259217   3.699   0.228   1.184 -1.1128  0.4279 -0.3687
12576TIP3   OH259218   5.710   5.917  15.626 -0.2282  0.2960 -0.2577
12576TIP3    H159219   5.798   5.883  15.611 -0.0700  0.6700 -0.1970
12576TIP3    H259220   5.653   5.861  15.573  0.2178  1.0722 -1.6020
12577TIP3   OH259221   2.501   2.015  14.155 -0.5851  0.1950 -0.1876
12577TIP3    H159222   2.550   2.035  14.075 -0.3611 -0.1546 -0.1376
12577TIP3    H259223   2.427   1.963  14.125 -1.3400  1.3352 -0.3562
12578TIP3   OH259224   4.497   3.036  14.619 -0.2383  0.4080  0.4777
12578TIP3    H159225   4.458   2.982  14.688  0.2088  1.5280  1.6575
12578TIP3    H259226   4.460   3.002  14.538 -0.5001 -1.1978  1.2295
12579TIP3   OH259227   6.066   5.368  16.463 -0.9100  0.2116 -0.5306
12579TIP3    H159228   6.161   5.379  16.463 -0.6789 -1.0577  2.2350
12579TIP3    H259229   6.052   5.278  16.433 -1.2476  0.3841 -0.9030
12580TIP3   OH259230   6.767   2.505   6.513 -0.1866 -0.6482 -0.3693
12580TIP3    H159231   6.764   2.538   6.603 -0.4128 -1.3442 -0.1174
12580TIP3    H259232   6.803   2.417   6.522  0.7889 -0.3432 -1.0740
12581TIP3   OH259233   3.311   1.355  11.227  0.3499  0.1707  0.6467
12581TIP3    H159234   3.363   1.415  11.173  2.8832 -2.6607 -0.3286
12581TIP3    H259235   3.245   1.320  11.167  1.6195 -1.1569 -0.0255
12582TIP3   OH259236   1.499   0.528  10.538  0.0318 -0.1956 -0.4783
12582TIP3    H159237   1.431   0.462  10.520  0.2301 -0.7052  0.6056
12582TIP3    H259238   1.514   0.522  10.632  2.0223 -0.5218 -0.7662
12583TIP3   OH259239   1.986   4.604  14.987 -0.0641 -0.0172  0.2175
12583TIP3    H159240   2.026   4.524  14.953  0.5299 -0.1523  1.1966
12583TIP3    H259241   2.061   4.658  15.013 -0.4955  0.0767  1.2965
12584TIP3   OH259242   4.688   1.565  15.975 -0.5176 -0.0477  0.0838
12584TIP3    H159243   4.753   1.577  15.905 -1.4322 -2.6623 -1.3637
12584TIP3    H259244   4.653   1.478  15.959 -3.0495  0.5395  1.9597
12585TIP3   OH259245   1.755   3.011  17.088 -0.5209 -0.0953 -0.1950
12585TIP3    H159246   1.715   3.038  17.005  0.6775 -1.0090 -1.1086
12585TIP3    H259247   1.849   3.020  17.073 -0.2966  0.5291  1.3797
12586TIP3   OH259248   1.563   2.682  13.396  0.2376  0.1049  0.2901
12586TIP3    H159249   1.541   2.658  13.306  0.0706  0.6979  0.1735
12586TIP3    H259250   1.601   2.602  13.433  3.0606  0.6374 -1.1739
12587TIP3   OH259251   0.511   3.571  14.841  0.3090  0.1840 -0.4730
12587TIP3    H159252   0.440   3.508  14.854  0.7350 -0.3361 -0.5999
12587TIP3    H259253   0.468   3.649  14.805 -0.4580  0.5761  1.2131
12588TIP3   OH259254   5.067   4.467   2.501  0.0728  0.2376  0.2556
12588TIP3    H159255   5.085   4.375   2.520 -1.2835 -0.1521 -0.2188
12588TIP3    H259256   5.148   4.513   2.523  1.0463 -1.1706 -0.2791
12589TIP3   OH259257   4.021   3.302   2.307  0.2137  0.1103 -0.0799
12589TIP3    H159258   3.979   3.382   2.337 -0.6237  0.1688 -1.3491
12589TIP3    H259259   4.029   3.248   2.386 -2.2975  0.0833  0.2165
12590TIP3   OH259260   3.019   2.167   1.354 -0.8746 -0.2351 -0.1535
12590TIP3    H159261   3.115   2.169   1.357 -0.8987 -0.2971  1.1506
12590TIP3    H259262   2.996   2.235   1.291  0.0462 -1.2719 -1.7021
12591TIP3   OH259263   3.076   1.799   5.886  0.1605 -0.0375  0.1844
12591TIP3    H159264   3.088   1.829   5.796  0.8130 -1.1257 -0.1039
12591TIP3    H259265   3.010   1.730   5.879  0.7739 -0.6535  0.4247
12592TIP3   OH259266   3.402   1.806   4.747 -0.2338 -0.8334 -0.2140
12592TIP3    H159267   3.469   1.762   4.798  1.0266  1.0254 -0.1434
12592TIP3    H259268   3.323   1.802   4.801  0.5407 -0.7128  0.9373
12593TIP3   OH259269   3.974   2.909   3.853 -0.0912 -0.6485 -0.7125
12593TIP3    H159270   4.027   2.963   3.794 -0.4655 -0.9265 -1.3150
12593TIP3    H259271   3.955   2.966   3.928  0.4371 -0.3083 -0.8341
12594TIP3   OH259272   2.419   2.681   2.312 -0.2547 -0.3234  0.3824
12594TIP3    H159273   2.507   2.702   2.344  0.6331 -2.1070 -0.6740
12594TIP3    H259274   2.403   2.592   2.343  0.0850 -1.6105 -2.7652
12595TIP3   OH259275   2.673   5.793  16.873 -0.3741  0.0237  0.0254
12595TIP3    H159276   2.701   5.871  16.921  0.5816 -0.0966 -0.3167
12595TIP3    H259277   2.750   5.736  16.872 -0.4991 -0.1652 -1.2585
12596TIP3   OH259278   3.659   2.724  14.372  0.3912 -0.4918 -0.4261
12596TIP3    H159279   3.575   2.768  14.388  1.1124  1.3301 -1.2757
12596TIP3    H259280   3.692   2.702  14.459  0.7198  2.2135  0.2252
12597TIP3   OH259281   2.904   0.100   0.249 -0.6356  0.1325  0.7744
12597TIP3    H159282   2.981   0.090   0.305 -0.2937  1.4975  0.5938
12597TIP3    H259283   2.841   0.147   0.304 -1.6410 -1.5976  1.1645
12598TIP3   OH259284   5.233   1.631   2.138  0.1020 -0.0943 -0.7515
12598TIP3    H159285   5.277   1.715   2.144  0.5271 -0.3984  2.8693
12598TIP3    H259286   5.304   1.567   2.134 -0.1753 -0.3804 -1.2047
12599TIP3   OH259287   0.099   3.990  14.911 -0.1400 -0.5627  0.2201
12599TIP3    H159288   0.048   4.071  14.909 -1.7336 -1.4920  1.5837
12599TIP3    H259289   0.081   3.949  14.826 -0.6598 -0.2877  0.1938
12600TIP3   OH259290   0.467   1.327  16.868  0.1566 -0.1281  0.0669
12600TIP3    H159291   0.556   1.302  16.894  0.8608  0.0554 -2.0210
12600TIP3    H259292   0.469   1.329  16.772 -2.1580 -0.2948 -0.0425
12601TIP3   OH259293   1.765   3.216   3.227  0.2663  0.0032 -0.2747
12601TIP3    H159294   1.692   3.226   3.288  1.1264 -0.2324  0.8251
12601TIP3    H259295   1.798   3.127   3.243  0.3913 -0.1334 -1.2216
12602TIP3   OH259296   0.237   3.987   1.495  0.3015  0.9175 -0.0233
12602TIP3    H159297   0.314   4.009   1.443 -0.0307  0.2227 -0.8378
12602TIP3    H259298   0.208   3.902   1.460 -0.5718  0.9656  0.5555
12603TIP3   OH259299   5.115   0.202  11.662  0.2541 -0.3732 -0.1073
12603TIP3    H159300   5.192   0.252  11.634  0.5296  0.1601  1.5047
12603TIP3    H259301   5.041   0.256  11.634  0.5381  0.5840  0.9083
12604TIP3   OH259302   3.424   5.006  13.640  0.5506 -0.2277  0.8914
12604TIP3    H159303   3.485   5.034  13.708  1.5814 -1.4632  0.5256
12604TIP3    H259304   3.475   4.946  13.586 -0.8714 -0.9412  0.2947
12605TIP3   OH259305   0.021   1.839  10.748 -0.1014 -0.0363 -0.2683
12605TIP3    H159306  -0.031   1.818  10.670 -0.2390  3.1738 -1.1917
12605TIP3    H259307   0.102   1.790  10.736 -0.7199 -0.7791 -1.6752
12606TIP3   OH259308   2.856   0.076   4.438 -0.0194 -0.4887  0.2089
12606TIP3    H159309   2.911   0.114   4.507  1.0173 -3.4131  1.1791
12606TIP3    H259310   2.772   0.060   4.481 -0.5143  0.8083 -0.2504
12607TIP3   OH259311   6.660   5.456  12.378  0.6278  0.5199 -0.1430
12607TIP3    H159312   6.638   5.449  12.285  3.6121 -1.3634 -0.8763
12607TIP3    H259313   6.740   5.509  12.379  1.4974 -0.7298  1.0976
12608TIP3   OH259314   2.464   3.079   4.031  0.5739  0.0441 -0.6844
12608TIP3    H159315   2.442   3.160   3.985 -0.9349 -0.0506 -0.1904
12608TIP3    H259316   2.526   3.034   3.974  1.8652  1.7729 -0.7205
12609TIP3   OH259317   2.410   1.845   4.317 -0.1582  0.1070  0.9441
12609TIP3    H159318   2.363   1.908   4.371 -1.3250  0.0495  0.0304
12609TIP3    H259319   2.480   1.895   4.276  1.9136 -0.1953  3.8123
12610TIP3   OH259320   3.070   5.907   4.784  0.3805  0.0709 -0.2424
12610TIP3    H159321   3.059   5.906   4.879 -1.0987  2.5223 -0.2852
12610TIP3    H259322   3.164   5.903   4.769  0.8224  2.4545  1.4925
12611TIP3   OH259323   0.191   6.214   1.123  0.0043 -0.3227  0.0062
12611TIP3    H159324   0.123   6.153   1.152  0.0711  1.0831  3.6267
12611TIP3    H259325   0.144   6.296   1.108  0.7149  0.4268  1.6825
12612TIP3   OH259326   3.283   2.485   6.388 -0.2116  0.3252  0.2986
12612TIP3    H159327   3.281   2.578   6.410 -0.3627 -0.0342  1.9016
12612TIP3    H259328   3.197   2.452   6.413 -0.0039 -0.3391  0.1791
12613TIP3   OH259329   1.918   0.433  14.219 -0.1214  0.0547 -0.0089
12613TIP3    H159330   1.884   0.361  14.166  2.3997 -0.9460 -0.3957
12613TIP3    H259331   1.867   0.430  14.300  0.0965 -2.3874  0.1115
12614TIP3   OH259332   2.618   1.454  14.412  0.2890  0.6262 -0.3771
12614TIP3    H159333   2.640   1.389  14.479 -1.0524 -0.5486 -1.0372
12614TIP3    H259334   2.635   1.410  14.329  0.1767  1.4242 -0.8311
12615TIP3   OH259335   3.904   2.920   0.836  0.3368 -0.6400 -0.2035
12615TIP3    H159336   3.875   2.832   0.861 -2.0163 -0.0062 -0.4373
12615TIP3    H259337   3.924   2.963   0.919  0.0222 -0.9369  0.0312
12616TIP3   OH259338   2.173   2.988   7.006 -0.0796  0.5901 -0.0124
12616TIP3    H159339   2.094   2.934   7.018 -0.2874  1.1779  1.4282
12616TIP3    H259340   2.245   2.927   7.020 -0.2302 -0.0910 -1.9279
12617TIP3   OH259341   4.000   4.887  11.995 -0.1285 -0.1817 -0.2981
12617TIP3    H159342   3.926   4.946  11.999 -1.2978 -1.5277 -1.1645
12617TIP3    H259343   4.070   4.938  11.954 -1.1528  0.5452 -1.1756
12618TIP3   OH259344   3.729   1.258   5.008 -0.1251 -0.5670 -0.0340
12618TIP3    H159345   3.804   1.205   4.985  1.4461  1.7852 -0.7116
12618TIP3    H259346   3.766   1.338   5.046 -2.2017  0.9628 -0.9791
12619TIP3   OH259347   5.665   5.654   4.139 -0.0293 -0.3543  0.4467
12619TIP3    H159348   5.594   5.663   4.074 -0.2619 -5.2226 -0.3810
12619TIP3    H259349   5.744   5.678   4.091 -0.5870 -0.0895 -0.3674
12620TIP3   OH259350   6.417   0.009   3.548 -0.3175 -0.1720 -0.6621
12620TIP3    H159351   6.386  -0.081   3.551 -1.3685  0.1985  0.5269
12620TIP3    H259352   6.431   0.026   3.455 -2.5579 -0.7774 -1.1740
12621TIP3   OH259353   1.816   6.612  15.895  0.0119 -0.1321  0.0071
12621TIP3    H159354   1.862   6.695  15.884 -0.1901 -0.0731 -0.4002
12621TIP3    H259355   1.830   6.565  15.813 -0.2220 -0.3293  0.0773
12622TIP3   OH259356   1.073   4.735  16.051 -0.5353 -0.2057  0.4146
12622TIP3    H159357   1.019   4.774  16.120 -1.0242  0.8256 -0.5214
12622TIP3    H259358   1.014   4.674  16.007 -0.8917  0.7211 -0.4355
12623TIP3   OH259359   5.631   2.054   1.900  0.1719 -0.1278 -0.6419
12623TIP3    H159360   5.583   2.028   1.978  0.3041  0.9468 -0.1963
12623TIP3    H259361   5.668   2.139   1.921  0.0479  0.2714 -1.9432
12624TIP3   OH259362   6.650   6.110   4.252 -0.3309  0.1574 -0.6154
12624TIP3    H159363   6.637   6.103   4.346  0.3719  0.3716 -0.4954
12624TIP3    H259364   6.727   6.166   4.243  1.4141 -2.1931 -1.2314
12625TIP3   OH259365   1.641   1.787  14.584 -0.3416  0.9887 -0.4341
12625TIP3    H159366   1.558   1.802  14.631 -0.4348 -0.6560 -0.0147
12625TIP3    H259367   1.706   1.834  14.636 -0.5738 -0.1382  0.9640
12626TIP3   OH259368   4.840   5.814   1.507  0.2641  0.5271 -0.3389
12626TIP3    H159369   4.842   5.841   1.415 -0.6929 -1.3290 -0.9591
12626TIP3    H259370   4.925   5.842   1.542 -0.0791  2.9351 -1.2508
12627TIP3   OH259371   6.062   2.330  12.569 -0.4566  0.0327 -1.2561
12627TIP3    H159372   6.062   2.287  12.484 -0.0720  0.0189 -1.2476
12627TIP3    H259373   6.145   2.305  12.609 -1.4917 -1.6577 -0.0234
12628TIP3   OH259374   4.577   0.993  13.770 -0.1163 -0.7111 -0.0563
12628TIP3    H159375   4.611   0.919  13.820 -0.9095  0.5119  2.4693
12628TIP3    H259376   4.490   1.009  13.807 -0.9249  0.0781 -2.1262
12629TIP3   OH259377   0.268   4.456   5.807  0.0086 -0.2987 -0.7323
12629TIP3    H159378   0.291   4.364   5.821  0.7462 -0.1619 -0.9782
12629TIP3    H259379   0.349   4.503   5.827 -0.8360  0.4427  1.0604
12630TIP3   OH259380   6.594   6.321   4.922 -0.2302  0.3341 -0.2418
12630TIP3    H159381   6.560   6.398   4.968 -1.1712 -1.2274  1.8667
12630TIP3    H259382   6.527   6.298   4.859 -0.4194  0.6387 -0.1525
12631TIP3   OH259383   5.331   2.124  11.168  0.3771  0.5689  0.1150
12631TIP3    H159384   5.298   2.200  11.121 -1.4865 -0.2223  0.0581
12631TIP3    H259385   5.276   2.052  11.139 -0.1439 -0.1557  2.6422
12632TIP3   OH259386   4.132   1.787   5.144  0.0198 -0.1215  0.0863
12632TIP3    H159387   4.139   1.715   5.206  0.2587 -0.1880 -0.0149
12632TIP3    H259388   4.223   1.815   5.130 -0.0681  0.1747  0.0985
12633TIP3   OH259389   4.555   3.658  10.490 -0.0327 -0.7454 -0.4392
12633TIP3    H159390   4.477   3.627  10.443 -0.0267 -1.6280  0.1131
12633TIP3    H259391   4.623   3.595  10.468  0.1961 -0.6781  0.0669
12634TIP3   OH259392   5.867   6.790   4.035  0.2735  0.6289 -0.3355
12634TIP3    H159393   5.838   6.869   4.080  0.8211  0.6809 -0.0577
12634TIP3    H259394   5.896   6.732   4.106  0.3769  0.3919 -0.5714
12635TIP3   OH259395   3.286   0.751  13.319  0.5461  0.3864 -0.0271
12635TIP3    H159396   3.328   0.753  13.233  0.7483 -3.1886 -0.1481
12635TIP3    H259397   3.356   0.726  13.380 -0.1936  0.0469  0.7107
12636TIP3   OH259398   3.001   6.698   1.182  0.0008 -0.2196 -0.5790
12636TIP3    H159399   2.946   6.745   1.245  1.1380 -0.0759  0.3473
12636TIP3    H259400   3.059   6.764   1.146 -1.6838  0.0216 -3.0415
12637TIP3   OH259401   4.731   3.165  14.176 -0.0829  0.1405  0.4024
12637TIP3    H159402   4.709   3.096  14.112 -1.5432  0.0999  0.9108
12637TIP3    H259403   4.739   3.118  14.259 -0.7066  0.5337  0.6856
12638TIP3   OH259404   5.400   1.826   4.626 -0.0322 -0.5415  0.4740
12638TIP3    H159405   5.483   1.866   4.600 -0.3587 -0.1839 -0.0416
12638TIP3    H259406   5.336   1.862   4.564 -0.8606  0.4089  1.8435
12639TIP3   OH259407   0.396   3.159  17.254  0.3241  0.4083 -0.3388
12639TIP3    H159408   0.471   3.216  17.237  0.1644  1.1455  1.2407
12639TIP3    H259409   0.434   3.072  17.268  0.8971  0.7560  0.3315
12640TIP3   OH259410   1.900   2.313   4.011 -0.1367 -1.0460  0.1240
12640TIP3    H159411   1.876   2.344   3.924  0.6576 -0.8823 -0.0431
12640TIP3    H259412   1.994   2.329   4.017 -0.5246  1.1136  1.8785
12641TIP3   OH259413   2.516   3.227  16.327  0.2037  0.9610 -0.2951
12641TIP3    H159414   2.463   3.193  16.256  1.0125 -0.9362 -0.0324
12641TIP3    H259415   2.454   3.245  16.397 -0.2252 -0.2268 -0.3594
12642TIP3   OH259416   6.605   5.432  13.318  0.1201 -0.3717  0.0607
12642TIP3    H159417   6.668   5.486  13.271 -1.0246  0.0894 -0.9920
12642TIP3    H259418   6.626   5.342  13.293 -0.2310 -0.1563 -1.0468
12643TIP3   OH259419   2.613   2.546   5.874  0.4566  0.5715 -0.1817
12643TIP3    H159420   2.553   2.497   5.930  1.7847 -0.7290  0.1815
12643TIP3    H259421   2.648   2.615   5.930  0.3503  0.4568  0.0255
12644TIP3   OH259422   3.140   1.034  17.036 -0.2213 -0.7221 -0.6649
12644TIP3    H159423   3.214   1.020  16.977  0.7727  0.1291  0.3455
12644TIP3    H259424   3.139   0.957  17.093  1.3451  0.2813  0.8047
12645TIP3   OH259425   1.595   5.206   4.808  0.2016 -0.2011  0.1933
12645TIP3    H159426   1.551   5.195   4.724  1.1732  0.9158 -0.5015
12645TIP3    H259427   1.537   5.262   4.859 -0.3344 -0.7857  0.2352
12646TIP3   OH259428   4.944   1.675  12.211 -0.6258  0.0719  0.4434
12646TIP3    H159429   4.997   1.647  12.285 -1.0636  2.3542  1.7147
12646TIP3    H259430   5.000   1.664  12.135 -0.6937 -3.8750  0.7736
12647TIP3   OH259431   6.591   4.562  17.407 -0.3364  0.4988  0.4366
12647TIP3    H159432   6.652   4.635  17.417 -0.2271  0.3656  0.7432
12647TIP3    H259433   6.646   4.484  17.410 -0.6113  0.3290  1.6308
12648TIP3   OH259434   5.051   5.142  12.485 -0.4191 -0.6361 -0.0245
12648TIP3    H159435   4.998   5.204  12.436  2.3714  1.0670 -1.0698
12648TIP3    H259436   5.045   5.172  12.576  0.2282  0.7142 -0.4059
12649TIP3   OH259437   5.469   5.980  14.544  0.7486 -0.1270 -0.2458
12649TIP3    H159438   5.520   5.997  14.623  1.0682  0.2710 -0.5319
12649TIP3    H259439   5.391   5.935  14.575  0.6962  0.3507  0.3443
12650TIP3   OH259440   5.921   6.424   2.033  0.2710  0.9565  0.4051
12650TIP3    H159441   5.983   6.412   1.961  0.0111  1.0464  0.1649
12650TIP3    H259442   5.855   6.484   1.998 -1.4322 -1.1829 -0.3054
12651TIP3   OH259443   2.974   6.569  16.560  0.4066 -0.1957 -0.2702
12651TIP3    H159444   2.915   6.587  16.632 -0.3954  0.8935 -1.1553
12651TIP3    H259445   2.926   6.507  16.505  0.7227 -0.4879 -0.2165
12652TIP3   OH259446   1.551   0.392  14.863 -0.5426  0.2819  0.5721
12652TIP3    H159447   1.621   0.437  14.909 -1.0727  1.7041  0.0608
12652TIP3    H259448   1.483   0.378  14.929  0.3526 -1.5083  1.1777
12653TIP3   OH259449   0.007   3.021  13.212 -0.5005 -0.2390 -0.1518
12653TIP3    H159450   0.078   3.018  13.148  1.0031 -0.3418  1.4522
12653TIP3    H259451   0.039   3.080  13.281 -1.4288 -1.2743  1.2184
12654TIP3   OH259452   2.665   4.998   1.510  0.3095 -0.4992  0.1160
12654TIP3    H159453   2.737   4.937   1.490  0.8536  0.7004 -1.8616
12654TIP3    H259454   2.612   4.951   1.575  2.1782 -1.9357  0.7124
12655TIP3   OH259455   1.505   4.971  11.546 -0.1325  0.5119 -0.3191
12655TIP3    H159456   1.452   4.899  11.582 -0.9862  1.2991  0.0545
12655TIP3    H259457   1.489   4.968  11.452  1.2338 -0.8697 -0.5342
12656TIP3   OH259458   0.776   4.880  12.800 -0.2024  0.0836 -0.1159
12656TIP3    H159459   0.815   4.798  12.771  1.0608  1.4418 -2.5590
12656TIP3    H259460   0.850   4.934  12.827 -0.5701  1.7080 -2.1114
12657TIP3   OH259461   4.862   5.157   6.010  0.7088 -0.3077  0.4547
12657TIP3    H159462   4.866   5.083   6.071 -0.5117 -0.1716  0.7248
12657TIP3    H259463   4.771   5.159   5.981  0.6255  1.3250  0.7638
12658TIP3   OH259464   2.801   2.856   6.956  0.0683 -0.2918  0.2073
12658TIP3    H159465   2.770   2.908   7.030 -0.5182  0.0476 -0.2643
12658TIP3    H259466   2.813   2.768   6.991  3.3570  0.5731  1.6211
12659TIP3   OH259467   0.623   5.995   2.134 -0.5305  0.1509  0.0134
12659TIP3    H159468   0.619   5.930   2.204 -1.8500  0.2323  0.0473
12659TIP3    H259469   0.589   6.075   2.174  2.8402  1.4555  0.5312
12660TIP3   OH259470   1.958   6.078   3.689 -0.1735 -0.3816 -0.4133
12660TIP3    H159471   1.925   6.167   3.700 -1.3799 -0.7076 -1.1818
12660TIP3    H259472   1.978   6.071   3.595  1.6577 -0.3587 -0.0521
12661TIP3   OH259473   0.221   4.364  12.416  0.9356 -0.8929  0.0100
12661TIP3    H159474   0.236   4.319  12.332 -0.0372  0.2177 -0.7925
12661TIP3    H259475   0.125   4.366  12.424  0.9827  0.3340  0.3977
12662TIP3   OH259476   4.654   0.743   0.018  0.6414 -0.2358 -0.2524
12662TIP3    H159477   4.700   0.819   0.053  1.1708 -1.0197  0.8421
12662TIP3    H259478   4.693   0.728  -0.068  1.4063 -0.0153  0.0498
12663TIP3   OH259479   6.718   0.081  15.045  0.4601  0.2578  0.3463
12663TIP3    H159480   6.735   0.128  14.963  0.5214  0.8412  0.6825
12663TIP3    H259481   6.622   0.078  15.050  0.4452 -0.5437 -0.1620
12664TIP3   OH259482   3.122   0.617  14.455  0.2277 -0.1793  0.4698
12664TIP3    H159483   3.099   0.524  14.449  0.1350 -0.1757  0.7646
12664TIP3    H259484   3.176   0.633  14.378  0.6478 -0.5965  0.6750
12665TIP3   OH259485   0.989   0.783  10.631  0.2769 -0.3897  0.2562
12665TIP3    H159486   0.929   0.710  10.612  1.3701 -0.7026 -2.5072
12665TIP3    H259487   0.982   0.840  10.554  2.4503  0.3029  0.5119
12666TIP3   OH259488   0.433   0.347  13.162 -0.5794  0.8077  0.0554
12666TIP3    H159489   0.519   0.388  13.169 -1.1867  1.9358  1.9548
12666TIP3    H259490   0.433   0.305  13.077  2.7023 -1.2464  0.8797
12667TIP3   OH259491   0.315   5.969   5.415 -0.2969 -0.1344 -0.1846
12667TIP3    H159492   0.358   5.966   5.501  1.8595  1.8028 -1.1034
12667TIP3    H259493   0.346   6.050   5.375 -3.4188  0.4259 -1.7514
12668TIP3   OH259494   3.462   1.877   2.898 -0.7523  0.6509 -0.3488
12668TIP3    H159495   3.503   1.939   2.958 -2.8809 -0.4461  2.4652
12668TIP3    H259496   3.518   1.799   2.900 -1.4299  0.1642  1.3054
12669TIP3   OH259497   3.834   0.816   0.996  0.0564 -0.2893  0.0093
12669TIP3    H159498   3.799   0.749   1.054 -0.1717  0.1971  0.4453
12669TIP3    H259499   3.830   0.778   0.908  0.4197 -1.0416  0.3096
12670TIP3   OH259500   5.667   5.097  16.833 -0.0692  0.4070 -0.0310
12670TIP3    H159501   5.753   5.115  16.794 -1.1048  1.3490 -2.0024
12670TIP3    H259502   5.609   5.163  16.795 -1.7595 -0.4590  0.9517
12671TIP3   OH259503   3.741   6.756   2.802 -0.3699  0.2089 -0.3764
12671TIP3    H159504   3.765   6.701   2.877  1.3154  0.8969 -0.3702
12671TIP3    H259505   3.691   6.828   2.840  1.5805  1.2589  0.3311
12672TIP3   OH259506   6.236   4.155   5.354  0.0257  0.4477 -0.2897
12672TIP3    H159507   6.321   4.139   5.394 -0.1799  2.6679  1.1397
12672TIP3    H259508   6.185   4.077   5.376  1.5621 -0.8282 -0.9880
12673TIP3   OH259509   1.924   1.285  16.885 -0.5872  0.5380  0.1499
12673TIP3    H159510   1.954   1.332  16.807 -0.3472 -2.3996 -1.6666
12673TIP3    H259511   2.004   1.256  16.929 -0.6896 -0.9459 -0.5913
12674TIP3   OH259512   4.948   6.384  16.423 -0.8221  0.3615  0.0422
12674TIP3    H159513   5.002   6.308  16.403 -2.7888 -1.1772  0.3140
12674TIP3    H259514   4.958   6.396  16.517 -1.1689 -0.1124  0.1443
12675TIP3   OH259515   4.994   1.123   1.312  0.0098  0.4242 -0.1540
12675TIP3    H159516   4.961   1.128   1.402  0.4396  2.4498 -0.0562
12675TIP3    H259517   5.087   1.143   1.319 -0.2246  2.1117 -1.1517
12676TIP3   OH259518   1.955   6.468   0.086 -0.5268 -0.3404 -0.1682
12676TIP3    H159519   1.878   6.492   0.035 -1.6532 -1.7435  0.7586
12676TIP3    H259520   1.998   6.400   0.034  0.1065  0.4318 -0.6780
12677TIP3   OH259521   2.909   2.153  15.198  0.5269 -0.2128 -0.3169
12677TIP3    H159522   2.906   2.224  15.262 -0.3138  0.1421 -0.7321
12677TIP3    H259523   2.956   2.082  15.242  2.8234  1.1374 -0.4459
12678TIP3   OH259524   2.957   5.385   3.817 -0.2236  0.1151  0.3959
12678TIP3    H159525   2.944   5.356   3.908  1.1757  1.9532  1.2572
12678TIP3    H259526   3.011   5.316   3.778 -1.4417 -1.0604  0.7082
12679TIP3   OH259527   2.247   3.017   0.221 -0.5711 -0.2386  0.5545
12679TIP3    H159528   2.296   3.009   0.303 -0.6962 -1.3393  0.5316
12679TIP3    H259529   2.209   3.105   0.225  0.1376  0.0534  1.2723
12680TIP3   OH259530   6.791   3.333   4.950 -0.4190 -0.4228 -0.4608
12680TIP3    H159531   6.714   3.331   4.892 -0.1842  1.6052 -0.9125
12680TIP3    H259532   6.864   3.308   4.893 -0.4707 -0.4869 -0.4998
12681TIP3   OH259533   2.548   2.010  12.059  0.6830 -0.0815  0.1132
12681TIP3    H159534   2.616   1.945  12.079  0.3157 -0.7897 -0.8483
12681TIP3    H259535   2.590   2.070  11.998  1.4323  1.3909  1.9801
12682TIP3   OH259536   6.264   1.193  12.831 -0.1475 -0.1294  0.1138
12682TIP3    H159537   6.221   1.279  12.824 -2.3542 -1.1408  0.4736
12682TIP3    H259538   6.295   1.190  12.921  0.0324  0.3394  0.0701
12683TIP3   OH259539   0.977   5.062   3.540  0.8120 -0.2438 -0.3816
12683TIP3    H159540   0.960   5.046   3.633  1.3998  0.8686 -0.0673
12683TIP3    H259541   0.937   4.987   3.495  0.3404 -0.6894  0.7458
12684TIP3   OH259542   5.675   3.529   3.973 -0.6371  0.3239 -0.4108
12684TIP3    H159543   5.712   3.441   3.969 -0.1126  0.5549 -0.8147
12684TIP3    H259544   5.638   3.544   3.886  0.2280  0.8995 -0.6942
12685TIP3   OH259545   3.838   3.837  15.946 -0.0598  0.1912  0.2446
12685TIP3    H159546   3.891   3.840  15.866  1.0235 -0.6951  0.9064
12685TIP3    H259547   3.793   3.922  15.948 -0.8186 -0.1133 -1.7622
12686TIP3   OH259548   0.031   6.560   3.078 -0.0961  0.0119 -0.0188
12686TIP3    H159549   0.075   6.485   3.037  0.2521 -1.4358  2.8073
12686TIP3    H259550  -0.061   6.536   3.080 -0.3628  0.7988 -1.2843
12687TIP3   OH259551   4.013   6.141  16.904 -0.0150  0.0414 -0.1824
12687TIP3    H159552   3.917   6.143  16.905 -0.0759  0.5440  2.6271
12687TIP3    H259553   4.035   6.049  16.916 -0.1733  0.0454  0.1461
12688TIP3   OH259554   4.747   3.292   1.894  0.2513  0.2628 -0.4537
12688TIP3    H159555   4.697   3.366   1.928  2.4302  0.8997  1.5995
12688TIP3    H259556   4.838   3.322   1.894  1.5224 -2.9420  2.3658
12689TIP3   OH259557   1.748   1.469  12.672  0.5908 -0.7134 -0.2442
12689TIP3    H159558   1.701   1.388  12.653  1.5641 -1.4880  0.5516
12689TIP3    H259559   1.693   1.515  12.736  0.3761 -1.0918 -0.1562
12690TIP3   OH259560   5.948   1.271   5.092 -0.4000 -0.4361 -0.6345
12690TIP3    H159561   5.946   1.205   5.022  1.8700  0.2789 -1.4525
12690TIP3    H259562   5.866   1.258   5.140 -1.8290 -1.2502 -3.1482
12691TIP3   OH259563   4.357   5.335  15.136 -0.1917 -0.6969 -0.2537
12691TIP3    H159564   4.331   5.243  15.132  0.1728 -0.8050 -0.2115
12691TIP3    H259565   4.287   5.378  15.186 -0.1974 -1.0140  0.0140
12692TIP3   OH259566   2.143   0.621  13.764  0.3463 -0.2450  0.6216
12692TIP3    H159567   2.234   0.640  13.740  0.0424 -0.7810 -1.0882
12692TIP3    H259568   2.097   0.614  13.680 -0.8231 -2.2187  1.3495
12693TIP3   OH259569   5.769   2.758   4.913  0.8472 -0.3426 -0.6591
12693TIP3    H159570   5.718   2.839   4.909 -0.6527 -1.1164  1.1496
12693TIP3    H259571   5.841   2.778   4.973 -0.2626 -0.6522  0.8503
12694TIP3   OH259572   5.397   2.405  15.282  0.0770  0.0734 -0.3632
12694TIP3    H159573   5.471   2.440  15.331  0.8766  0.0100 -1.4692
12694TIP3    H259574   5.333   2.476  15.281 -0.0585 -0.0118  0.9381
12695TIP3   OH259575   0.113   6.465   1.026 -0.4278  1.0842  0.1711
12695TIP3    H159576   0.040   6.460   0.964  2.0296 -3.4636 -2.9945
12695TIP3    H259577   0.191   6.478   0.971  1.7086 -0.9378  2.4498
12696TIP3   OH259578   0.210   0.133   6.485  0.5710  0.2636 -0.5483
12696TIP3    H159579   0.150   0.059   6.495  0.1033  0.8022  0.9553
12696TIP3    H259580   0.276   0.120   6.553  1.6506  0.1730 -1.5870
12697TIP3   OH259581   1.917   3.229   6.679 -0.3592  0.4462 -0.2490
12697TIP3    H159582   2.003   3.216   6.720 -0.9441 -1.3949  0.5023
12697TIP3    H259583   1.877   3.300   6.729  1.3121  2.5539 -1.6887
12698TIP3   OH259584   3.948   2.694  16.036  0.4424 -0.2819 -0.4743
12698TIP3    H159585   3.977   2.655  15.953  2.3211  1.2741 -0.6337
12698TIP3    H259586   3.854   2.706  16.025  0.4695 -1.0933 -1.9461
12699TIP3   OH259587   0.099   6.360   5.961  0.1648 -0.0062  0.0245
12699TIP3    H159588   0.083   6.341   5.868  0.3006  0.6851 -0.1493
12699TIP3    H259589   0.109   6.274   6.002 -0.9141 -0.3496 -0.4163
12700TIP3   OH259590   2.532   0.861  12.349 -0.4890  0.2440  0.0405
12700TIP3    H159591   2.486   0.945  12.353  1.2290  1.3327 -1.3072
12700TIP3    H259592   2.622   0.882  12.376  0.1734 -0.9814 -1.0962
12701TIP3   OH259593   0.006   5.097   4.453  0.1294 -0.6166 -0.2780
12701TIP3    H159594   0.062   5.025   4.481  0.0235 -0.9906 -0.9893
12701TIP3    H259595   0.067   5.164   4.421  0.1858 -0.8403 -0.6371
12702TIP3   OH259596   6.630   5.840  17.247 -0.4331 -0.4074 -0.8409
12702TIP3    H159597   6.725   5.852  17.242  0.0096 -2.2069  1.4116
12702TIP3    H259598   6.618   5.745  17.241 -1.6773 -0.5877  2.2682
12703TIP3   OH259599   6.484   5.390   2.954 -0.0042  0.3620  0.1482
12703TIP3    H159600   6.406   5.446   2.948 -0.2206  0.3324  2.0010
12703TIP3    H259601   6.450   5.301   2.958  0.0799  0.3545  1.0666
12704TIP3   OH259602   5.700   5.604   4.881 -0.2719  0.1098 -0.2063
12704TIP3    H159603   5.659   5.686   4.854  2.2216  1.4846 -0.1474
12704TIP3    H259604   5.688   5.601   4.976  0.2903  0.8508 -0.1000
12705TIP3   OH259605   1.181   6.235  14.818  0.1227 -0.1539  0.6721
12705TIP3    H159606   1.197   6.215  14.726 -0.0216 -0.3662  0.6915
12705TIP3    H259607   1.268   6.240  14.858  0.4082  3.0928 -0.0990
12706TIP3   OH259608   3.463   0.302   3.095 -0.6187 -0.5253 -0.0246
12706TIP3    H159609   3.376   0.341   3.082 -1.1711 -1.7035  0.0429
12706TIP3    H259610   3.488   0.328   3.183 -0.4659  0.6341 -0.3940
12707TIP3   OH259611   0.735   0.439   0.904  0.6690  0.3210 -0.3150
12707TIP3    H159612   0.652   0.403   0.873  1.1359 -1.2424  0.1765
12707TIP3    H259613   0.755   0.509   0.841 -1.3109  1.1971 -0.0702
12708TIP3   OH259614   2.775   2.898   0.012  0.0232  0.5698 -0.6764
12708TIP3    H159615   2.795   2.983  -0.027 -2.3449  0.9269 -1.2210
12708TIP3    H259616   2.851   2.880   0.068  1.2857  2.2901 -1.7106
12709TIP3   OH259617   3.332   5.990   2.047 -0.3359 -0.7069  0.3746
12709TIP3    H159618   3.388   5.926   2.003 -1.7268 -1.4873 -0.3375
12709TIP3    H259619   3.379   6.013   2.127  1.2862 -0.8349 -0.5039
12710TIP3   OH259620   3.312   3.711  13.314 -0.4304  0.3950  0.4501
12710TIP3    H159621   3.228   3.671  13.293  0.5839 -0.8894 -1.3776
12710TIP3    H259622   3.339   3.755  13.233  1.0208  0.1217  0.7617
12711TIP3   OH259623   5.140   4.753  14.727  0.0176 -0.3368  0.2639
12711TIP3    H159624   5.227   4.722  14.754 -0.1629 -1.5929 -0.4746
12711TIP3    H259625   5.133   4.726  14.635 -0.9977  0.1105  0.1980
12712TIP3   OH259626   0.258   6.523  15.356  0.0747  0.3856 -0.5990
12712TIP3    H159627   0.245   6.494  15.266  1.8117  0.3857 -0.8912
12712TIP3    H259628   0.200   6.468  15.409 -0.2627 -0.2552 -1.6184
12713TIP3   OH259629   6.243   4.113   5.936  0.1870 -0.1811  0.2483
12713TIP3    H159630   6.269   4.128   5.845 -1.0994  1.7336  0.1405
12713TIP3    H259631   6.189   4.034   5.933  1.3130 -0.9562 -0.3950
12714TIP3   OH259632   4.923   0.852  11.360 -0.5743 -0.6878 -0.7295
12714TIP3    H159633   4.849   0.913  11.362 -0.5756 -0.6423 -1.6730
12714TIP3    H259634   4.890   0.776  11.312  0.7835  0.4673 -3.7380
12715TIP3   OH259635   5.661   6.655  14.346  0.0371  0.1634 -0.0345
12715TIP3    H159636   5.682   6.700  14.264 -1.8177 -1.1906 -1.3236
12715TIP3    H259637   5.745   6.620  14.376  0.7960  0.9195 -1.1985
12716TIP3   OH259638   0.825   0.106   4.304 -0.2795  0.2830  0.1653
12716TIP3    H159639   0.853   0.085   4.215 -0.5934  1.6673 -0.2838
12716TIP3    H259640   0.731   0.123   4.296 -0.5543 -0.7563  0.9939
12717TIP3   OH259641   6.473   2.178  12.055 -0.2819  0.4227  0.1865
12717TIP3    H159642   6.426   2.199  11.975 -0.2331 -1.0395 -0.2530
12717TIP3    H259643   6.565   2.168  12.028 -0.2763 -0.1524  0.3890
12718TIP3   OH259644   4.914   2.860   4.969 -0.2651  0.5341 -0.0220
12718TIP3    H159645   4.930   2.936   4.913  0.0666 -0.3675 -1.2181
12718TIP3    H259646   4.895   2.896   5.055 -3.3897  2.1206 -1.2464
12719TIP3   OH259647   2.253   2.487  15.678 -0.4800  0.2963  0.3534
12719TIP3    H159648   2.315   2.417  15.660 -1.2870 -1.4748  3.6709
12719TIP3    H259649   2.307   2.559  15.709  0.2197  0.6979 -1.6038
12720TIP3   OH259650   4.744   3.905  14.408  0.4820  0.4597 -0.2270
12720TIP3    H159651   4.776   3.820  14.436  1.3834  0.6212 -0.7167
12720TIP3    H259652   4.736   3.956  14.489  1.1725  0.3088 -0.0625
12721TIP3   OH259653   0.608   5.960  13.192  0.1753 -0.1610 -0.8116
12721TIP3    H159654   0.636   5.922  13.275 -1.1660 -0.8896 -0.6597
12721TIP3    H259655   0.689   5.987  13.149  0.8601  0.6726  0.9314
12722TIP3   OH259656   0.206   3.546   3.829 -0.5024  0.0181 -0.4161
12722TIP3    H159657   0.186   3.602   3.903  0.7645  1.2031 -0.9319
12722TIP3    H259658   0.250   3.470   3.868 -1.0870 -0.0340  0.1605
12723TIP3   OH259659   3.668   3.060  13.660  0.4671 -0.2473 -0.3755
12723TIP3    H159660   3.640   3.027  13.745  0.5376 -0.0801 -0.2871
12723TIP3    H259661   3.656   3.155  13.666  0.9367 -0.1834 -0.3798
12724TIP3   OH259662   3.517   2.765  15.462 -0.3848  0.8343  0.0985
12724TIP3    H159663   3.597   2.768  15.515  2.2942 -0.8832 -3.4243
12724TIP3    H259664   3.480   2.679  15.481  0.7352  0.0972 -0.8522
12725TIP3   OH259665   1.520   3.878   0.338  0.7733 -0.6810  0.3729
12725TIP3    H159666   1.454   3.905   0.275  1.8333  0.3349 -0.3562
12725TIP3    H259667   1.603   3.905   0.298  1.7209 -2.7456  0.8173
12726TIP3   OH259668   5.170   0.065   0.218 -0.2041  0.1026 -0.3721
12726TIP3    H159669   5.130   0.133   0.271 -0.3600 -1.1287  1.1664
12726TIP3    H259670   5.178   0.104   0.130  0.9344  2.5509  0.7186
12727TIP3   OH259671   0.008   2.242  16.725  0.8859  0.7195 -1.0354
12727TIP3    H159672  -0.006   2.148  16.726  0.1694  0.7667  1.4125
12727TIP3    H259673   0.027   2.263  16.634  0.2124 -1.6519 -1.7934
12728TIP3   OH259674   4.177   1.968   4.749  0.2608  0.2539 -0.6823
12728TIP3    H159675   4.123   2.046   4.760  0.2530  0.2792 -0.9053
12728TIP3    H259676   4.266   1.997   4.767 -0.0040 -0.2546  1.9850
12729TIP3   OH259677   0.895   3.618  16.757  0.1673 -0.3830 -0.2610
12729TIP3    H159678   0.904   3.590  16.666 -1.9228 -0.4162 -0.4984
12729TIP3    H259679   0.908   3.713  16.754 -0.1801 -0.3439 -0.6546
12730TIP3   OH259680   4.529   6.110  11.933  0.4147  0.3744  0.0509
12730TIP3    H159681   4.601   6.071  11.884  1.6389  0.4996  1.6385
12730TIP3    H259682   4.516   6.052  12.008 -2.2035 -0.4692 -0.9406
12731TIP3   OH259683   6.404   0.992   2.165 -0.1201  0.3701  0.3016
12731TIP3    H159684   6.379   1.023   2.077 -0.0124 -0.6876 -0.1142
12731TIP3    H259685   6.327   0.945   2.197  0.8524 -1.9738 -0.5478
12732TIP3   OH259686   1.445   3.635  13.062  0.5665 -0.6666  0.1385
12732TIP3    H159687   1.449   3.553  13.111  1.9004 -0.2459  0.7872
12732TIP3    H259688   1.414   3.609  12.975 -0.5964 -1.6043  0.8058
12733TIP3   OH259689   5.025   1.905   2.877  0.1473  0.1778  0.3547
12733TIP3    H159690   4.965   1.832   2.888  0.3050 -0.2786 -1.5000
12733TIP3    H259691   4.968   1.981   2.861  0.0262 -0.1820 -1.0138
12734TIP3   OH259692   4.895   3.786  12.795  0.4412 -0.0794  0.1363
12734TIP3    H159693   4.973   3.842  12.799  0.6314 -0.2223 -1.1094
12734TIP3    H259694   4.929   3.699  12.773 -0.0065 -0.2883  0.2709
12735TIP3   OH259695   2.681   5.354  11.130 -0.2000 -0.3197 -0.7685
12735TIP3    H159696   2.614   5.422  11.121 -0.1106 -0.2193 -0.6914
12735TIP3    H259697   2.658   5.288  11.065 -0.3404 -0.2586 -0.7807
12736TIP3   OH259698   4.747   4.123   5.906 -0.1546  0.4499  0.4130
12736TIP3    H159699   4.751   4.057   5.974  2.5892 -0.5360 -0.5684
12736TIP3    H259700   4.750   4.207   5.953  1.1950 -0.2038  1.5519
12737TIP3   OH259701   2.323   4.374   6.085  0.2941  0.4749 -0.3135
12737TIP3    H159702   2.378   4.372   6.164 -1.4369  1.0192  0.9542
12737TIP3    H259703   2.308   4.467   6.068 -0.4728  0.3289 -0.4737
12738TIP3   OH259704   3.845   2.785   1.615 -0.0813 -0.4122  0.2726
12738TIP3    H159705   3.796   2.725   1.559  0.6489 -0.5231 -0.2454
12738TIP3    H259706   3.909   2.730   1.660  0.5211 -0.0387 -0.1260
12739TIP3   OH259707   0.162   6.327  11.386  0.3424  0.0173  0.3174
12739TIP3    H159708   0.239   6.376  11.413  0.9581 -0.2907 -0.8133
12739TIP3    H259709   0.171   6.241  11.428 -0.1465  0.4631  1.3616
12740TIP3   OH259710   3.440   2.251   6.480  0.0700 -0.2899 -0.3259
12740TIP3    H159711   3.534   2.246   6.495  0.1916 -1.0041 -1.2304
12740TIP3    H259712   3.428   2.333   6.431  0.3150 -0.5731 -0.8614
12741TIP3   OH259713   0.174   2.045   5.863  0.5260 -0.0619 -0.0944
12741TIP3    H159714   0.182   2.139   5.849  0.2761  0.2272  1.5299
12741TIP3    H259715   0.152   2.010   5.777  1.6227  1.2313 -0.9514
12742TIP3   OH259716   0.698   1.182  13.189  0.4805  0.0121 -0.5506
12742TIP3    H159717   0.645   1.123  13.242  0.0844  1.3605  0.6095
12742TIP3    H259718   0.785   1.179  13.229  0.3533  0.5132 -0.2251
12743TIP3   OH259719   6.096   0.294  15.122 -0.3921  0.2022 -0.2063
12743TIP3    H159720   6.134   0.329  15.042  1.9141  0.1870  0.7904
12743TIP3    H259721   6.022   0.242  15.093  1.3991 -1.2780 -2.5220
12744TIP3   OH259722   2.533   2.354   2.303  0.4667  0.5694  0.2477
12744TIP3    H159723   2.495   2.350   2.215 -0.3875  0.6567  0.6056
12744TIP3    H259724   2.457   2.352   2.362  0.8901  2.7639  0.9510
12745TIP3   OH259725   6.195   6.083   1.033 -0.0519  0.0556 -0.1677
12745TIP3    H159726   6.263   6.026   1.069  0.5572  1.2449  0.6263
12745TIP3    H259727   6.203   6.073   0.938 -0.4554 -1.7186 -0.0522
12746TIP3   OH259728   4.768   4.057  15.583 -0.2937  0.5006  0.3285
12746TIP3    H159729   4.723   4.117  15.642  0.4385  0.9755  0.4188
12746TIP3    H259730   4.855   4.096  15.571  0.2277 -0.5699  0.4485
12747TIP3   OH259731   4.716   3.259  12.726  0.1097  0.0058  0.4732
12747TIP3    H159732   4.729   3.286  12.636 -0.8197  1.8479  0.8526
12747TIP3    H259733   4.805   3.249  12.761  0.4770  0.6985 -0.2359
12748TIP3   OH259734   6.586   3.620  17.181 -0.0793 -0.1715  0.3731
12748TIP3    H159735   6.492   3.609  17.199 -0.0252 -1.9432 -0.1990
12748TIP3    H259736   6.612   3.538  17.139  1.8343  0.1029  0.9156
12749TIP3   OH259737   0.160   0.395   2.154  0.4548  0.0078  0.3319
12749TIP3    H159738   0.146   0.398   2.249 -0.3271  2.6615  0.1993
12749TIP3    H259739   0.254   0.411   2.144  0.5026 -0.0661  0.6388
12750TIP3   OH259740   2.683   3.940  13.301  0.1027 -0.5807 -0.3233
12750TIP3    H159741   2.719   3.909  13.384 -3.2979  2.6426  2.7156
12750TIP3    H259742   2.746   4.006  13.271  0.5469 -0.5526  0.6276
12751TIP3   OH259743   5.020   1.940   3.230 -0.2575  0.5226 -0.0975
12751TIP3    H159744   4.976   1.989   3.299 -2.0757  0.6625 -1.2619
12751TIP3    H259745   4.961   1.865   3.213  1.0754 -0.5296 -0.2332
12752TIP3   OH259746   6.123   6.726   0.180 -0.0825 -0.0443 -0.4596
12752TIP3    H159747   6.192   6.730   0.115  1.4507 -0.6974  1.0423
12752TIP3    H259748   6.160   6.770   0.257 -0.0611 -3.0697  1.4140
12753TIP3   OH259749   5.495   0.818  15.965  1.0052  0.4447  0.2858
12753TIP3    H159750   5.469   0.771  15.886 -0.2039 -0.7645  1.3743
12753TIP3    H259751   5.543   0.895  15.932 -0.4977  0.6119 -1.6572
12754TIP3   OH259752   4.689   1.593  12.950  0.2816  0.3642 -0.0999
12754TIP3    H159753   4.740   1.673  12.966  0.5398  0.2895 -0.5130
12754TIP3    H259754   4.724   1.529  13.011 -1.4939  1.1785  1.9166
12755TIP3   OH259755   5.934   1.885   4.149 -0.2586  0.3057  0.6685
12755TIP3    H159756   5.967   1.836   4.074  1.3636  2.1255  0.1084
12755TIP3    H259757   6.006   1.943   4.173 -2.1167  2.5989  1.1107
12756TIP3   OH259758   4.252   5.032  17.244 -0.4670  0.3830 -0.3557
12756TIP3    H159759   4.297   4.966  17.191 -1.9609  0.9197 -2.4234
12756TIP3    H259760   4.262   5.113  17.194 -0.9617  1.1714  0.7851
12757TIP3   OH259761   2.678   2.386  13.389  0.1825 -0.1137  0.0991
12757TIP3    H159762   2.672   2.481  13.386  0.6948  0.1025  2.8743
12757TIP3    H259763   2.770   2.367  13.369 -0.0938 -0.1294 -1.2485
12758TIP3   OH259764   4.850   6.634   4.259  0.2271 -0.6249 -0.3293
12758TIP3    H159765   4.929   6.613   4.210 -0.3602  1.1685 -2.2260
12758TIP3    H259766   4.858   6.728   4.279 -0.1213 -1.0283  2.0484
12759TIP3   OH259767   3.398   0.917   1.033 -0.4042  0.4866 -0.0734
12759TIP3    H159768   3.323   0.863   1.010 -0.3841  0.7640 -0.8207
12759TIP3    H259769   3.364   0.978   1.100  0.0509 -1.6664  2.2846
12760TIP3   OH259770   2.099   4.039   2.747  0.3384  0.7374 -0.2681
12760TIP3    H159771   2.115   3.986   2.669  0.2744 -1.1199  0.9283
12760TIP3    H259772   2.005   4.028   2.764  0.5456  0.3171  0.6275
12761TIP3   OH259773   3.817   1.654   6.823 -0.3218  0.2332 -0.5286
12761TIP3    H159774   3.862   1.582   6.868 -0.6116  1.0638  1.1310
12761TIP3    H259775   3.874   1.730   6.836 -0.6845  0.6160 -1.1132
12762TIP3   OH259776   4.363   3.079   5.400 -0.1047  0.0661  0.1547
12762TIP3    H159777   4.409   3.128   5.332 -0.2550 -0.2901 -0.2057
12762TIP3    H259778   4.432   3.046   5.457 -0.0626  2.0750  1.3621
12763TIP3   OH259779   2.631   5.804  13.941 -0.6759  0.5038 -0.0292
12763TIP3    H159780   2.615   5.727  13.886  1.5986 -0.5166  0.6463
12763TIP3    H259781   2.687   5.861  13.888  0.9328 -0.1586  0.8855
12764TIP3   OH259782   0.662   0.329   4.374  0.5044 -0.0728 -0.1135
12764TIP3    H159783   0.582   0.305   4.421  0.3106 -1.5844 -1.1781
12764TIP3    H259784   0.637   0.404   4.320 -0.1019 -0.3120 -0.1698
12765TIP3   OH259785   0.223   2.346   6.080  0.3077 -0.1581 -0.1874
12765TIP3    H159786   0.210   2.329   6.173  2.5931  0.5421  0.3102
12765TIP3    H259787   0.141   2.318   6.039 -0.7541 -0.4789  2.0138
12766TIP3   OH259788   0.410   4.167   2.610 -0.0421 -0.5289 -0.1320
12766TIP3    H159789   0.480   4.177   2.674 -0.5397  0.1086  0.3253
12766TIP3    H259790   0.375   4.080   2.626  0.9217 -1.0258 -0.6539
12767TIP3   OH259791   3.411   2.223  11.626  0.3451  0.2643 -0.0068
12767TIP3    H159792   3.481   2.287  11.631 -0.0579  0.6956  0.1742
12767TIP3    H259793   3.416   2.188  11.536  2.3827 -1.5503  0.7164
12768TIP3   OH259794   5.270   1.651   4.876  0.7314  1.0486  0.4485
12768TIP3    H159795   5.363   1.675   4.872  1.4656 -1.3186  1.4756
12768TIP3    H259796   5.247   1.632   4.785  1.8051 -0.1289  0.3926
12769TIP3   OH259797   5.506   6.277   3.040 -0.0456  0.4106  0.2779
12769TIP3    H159798   5.489   6.358   2.992  0.7527  0.4769  0.0919
12769TIP3    H259799   5.530   6.214   2.972  0.2011  0.2596  0.5033
12770TIP3   OH259800   2.142   4.026   3.261 -0.0411  0.3557 -0.3321
12770TIP3    H159801   2.078   3.955   3.268 -0.2812  0.6512  0.8625
12770TIP3    H259802   2.097   4.093   3.209 -0.8550  0.6861  0.7564
12771TIP3   OH259803   4.460   0.742  15.041 -0.1688  0.0964  0.3788
12771TIP3    H159804   4.549   0.773  15.057 -0.9420  2.9211 -0.3240
12771TIP3    H259805   4.438   0.777  14.955 -1.8856 -0.7843  0.4225
12772TIP3   OH259806   1.433   6.029   5.447 -0.3796  0.0476 -0.4524
12772TIP3    H159807   1.402   6.019   5.358  0.4698  0.9531 -0.8754
12772TIP3    H259808   1.457   5.941   5.475 -2.6193 -0.5699 -0.3409
12773TIP3   OH259809   6.661   5.131  13.998 -0.0716 -0.3722 -0.2058
12773TIP3    H159810   6.577   5.175  13.984 -0.4089 -1.1952 -0.8520
12773TIP3    H259811   6.637   5.041  14.022  0.6188 -0.4441  0.2438
12774TIP3   OH259812   6.119   1.916  15.888 -0.1315 -0.1259  0.1641
12774TIP3    H159813   6.044   1.883  15.939  1.1880 -1.6297  1.2516
12774TIP3    H259814   6.082   1.936  15.802 -1.9108 -0.1885  0.8566
12775TIP3   OH259815   2.047   5.428   6.585  0.7366  0.3142  0.0530
12775TIP3    H159816   1.989   5.499   6.558 -0.8183  0.2904  2.9182
12775TIP3    H259817   2.001   5.348   6.558 -0.3049  0.3179  1.6805
12776TIP3   OH259818   3.840   5.716   2.097 -0.6174 -0.0175  0.1672
12776TIP3    H159819   3.876   5.640   2.051  2.1723  0.3195  1.5856
12776TIP3    H259820   3.819   5.779   2.028 -2.0741 -1.6304 -0.9600
12777TIP3   OH259821   6.795   6.430   2.626  0.2004  0.6806 -0.0686
12777TIP3    H159822   6.727   6.372   2.593  0.4453 -0.2762  1.0449
12777TIP3    H259823   6.856   6.373   2.672  1.2624  1.6407 -0.2319
12778TIP3   OH259824   0.080   0.548   6.776 -0.1756  0.0274 -0.7169
12778TIP3    H159825   0.146   0.528   6.842  0.9308  1.2434 -1.4174
12778TIP3    H259826   0.037   0.464   6.759 -0.8120 -0.2532  1.8276
12779TIP3   OH259827   2.575   4.574  15.209  0.8593  0.4183 -0.0448
12779TIP3    H159828   2.580   4.597  15.116 -3.0057  3.8199  0.3399
12779TIP3    H259829   2.629   4.641  15.253  2.6217 -1.1384  0.2907
12780TIP3   OH259830   1.967   1.172   0.517  0.0002  0.7325 -0.7475
12780TIP3    H159831   1.953   1.209   0.430 -2.2722  0.8262 -0.3981
12780TIP3    H259832   1.951   1.245   0.578  1.5801  0.6769 -0.2154
12781TIP3   OH259833   6.135   0.950  13.362  0.0114  0.0363 -0.6008
12781TIP3    H159834   6.183   0.989  13.434 -0.1331 -0.4496 -0.2404
12781TIP3    H259835   6.127   1.020  13.297  0.1292  0.4739 -0.1398
12782TIP3   OH259836   1.358   6.358   5.290 -0.2334  0.2818 -0.0046
12782TIP3    H159837   1.312   6.421   5.235  0.7772  1.7620  0.7582
12782TIP3    H259838   1.404   6.301   5.229  0.1852  1.3581 -0.7270
12783TIP3   OH259839   6.746   1.892  14.664  0.3169  0.5037 -0.0087
12783TIP3    H159840   6.782   1.804  14.669 -0.1949  0.2377 -0.7967
12783TIP3    H259841   6.760   1.929  14.751  1.6142  0.0749 -0.0100
12784TIP3   OH259842   4.118   5.836  17.244 -0.3952 -0.4775 -0.3379
12784TIP3    H159843   4.113   5.746  17.276 -0.5475 -0.4273 -0.2182
12784TIP3    H259844   4.052   5.840  17.175 -0.1028 -0.5709 -0.6220
12785TIP3   OH259845   3.935   4.294  17.112  0.2867  0.4582 -0.1043
12785TIP3    H159846   3.888   4.248  17.182  0.0540 -1.0549 -1.2085
12785TIP3    H259847   3.939   4.231  17.040  1.1749  1.7108 -1.2021
12786TIP3   OH259848   4.974   6.121   2.167  0.0765  0.9311 -0.4455
12786TIP3    H159849   5.000   6.199   2.215 -0.1047  1.4286 -1.1453
12786TIP3    H259850   4.887   6.100   2.200 -0.0363  1.2551 -0.5340
12787TIP3   OH259851   4.592   2.940   5.524  0.3419 -0.6268  0.0975
12787TIP3    H159852   4.601   2.846   5.542  0.9964 -0.4999  0.4874
12787TIP3    H259853   4.682   2.973   5.525  0.0165  0.3241  1.7329
12788TIP3   OH259854   5.208   0.414  10.888  0.0792 -0.1165  0.3093
12788TIP3    H159855   5.223   0.466  10.967  0.3964 -1.3365  1.0805
12788TIP3    H259856   5.274   0.444  10.826 -0.9379  1.7026  0.0482
12789TIP3   OH259857   1.677   1.912   2.000 -0.3039  0.2474  0.4198
12789TIP3    H159858   1.600   1.924   1.944  1.2172  1.6932 -1.5266
12789TIP3    H259859   1.665   1.826   2.040 -1.0374 -1.4081 -3.0189
12790TIP3   OH259860   4.999   2.113  16.560 -0.4652  0.0138 -0.0686
12790TIP3    H159861   5.013   2.033  16.610  3.2363  0.6092  0.1623
12790TIP3    H259862   4.933   2.162  16.609 -0.3055 -1.4331  1.6736
12791TIP3   OH259863   3.287   2.418   5.457 -0.3257 -0.5262  0.1424
12791TIP3    H159864   3.347   2.427   5.383 -2.6836 -0.3540 -1.8779
12791TIP3    H259865   3.273   2.507   5.488 -0.9115 -0.3400 -0.6059
12792TIP3   OH259866   3.529   0.707   6.863 -0.0380 -0.6868 -0.0513
12792TIP3    H159867   3.434   0.695   6.871 -0.1223 -0.5161 -0.8010
12792TIP3    H259868   3.563   0.619   6.847 -0.1257 -0.6615 -0.3669
12793TIP3   OH259869   2.585   1.561  15.415  0.1665 -0.1354  0.0892
12793TIP3    H159870   2.614   1.569  15.506  0.1906 -1.5043  0.2128
12793TIP3    H259871   2.575   1.652  15.385  3.5504  0.4467  0.3685
12794TIP3   OH259872   0.140   0.976  17.061  0.1681 -0.4096 -0.0047
12794TIP3    H159873   0.083   0.989  17.136  0.6442  0.2450  0.2520
12794TIP3    H259874   0.226   1.008  17.090  0.9208 -2.2856 -0.0384
12795TIP3   OH259875   0.089   0.272  12.728  1.2917  0.3690  0.7974
12795TIP3    H159876   0.049   0.270  12.815  1.5493 -2.2627  0.9273
12795TIP3    H259877   0.134   0.188  12.720  1.4040  0.6034 -1.8272
12796TIP3   OH259878   1.573   1.356  14.744 -0.1335 -0.6964 -0.6447
12796TIP3    H159879   1.661   1.378  14.714 -0.5546  0.5897 -0.9893
12796TIP3    H259880   1.586   1.285  14.807  1.1425 -0.5223 -0.6931
12797TIP3   OH259881   2.169   4.162  15.205 -0.0609  0.3427 -0.2556
12797TIP3    H159882   2.197   4.077  15.238 -1.7634  0.1627  0.8626
12797TIP3    H259883   2.223   4.226  15.253  1.3815 -0.0871 -1.2687
12798TIP3   OH259884   4.876   6.353  15.271  1.1456  0.0612 -0.2216
12798TIP3    H159885   4.798   6.299  15.281  2.2824 -1.3107  2.5044
12798TIP3    H259886   4.873   6.383  15.181 -2.4439  0.0148 -0.2595
12799TIP3   OH259887   0.420   1.511   3.060  1.0086 -0.4932 -1.0401
12799TIP3    H159888   0.429   1.548   3.148  2.1715  0.0861 -1.3763
12799TIP3    H259889   0.429   1.587   3.002  2.6807 -1.1847 -1.7282
12800TIP3   OH259890   1.574   5.374  14.447  0.0919 -0.4291  0.1967
12800TIP3    H159891   1.592   5.346  14.536  0.1503 -2.0438 -0.2804
12800TIP3    H259892   1.566   5.292  14.397 -0.3260  0.4176 -1.2001
12801TIP3   OH259893   1.250   3.141   0.468 -0.1672  0.1514  0.2279
12801TIP3    H159894   1.194   3.146   0.391 -0.7420 -1.0424  0.5453
12801TIP3    H259895   1.192   3.112   0.538  0.7605 -0.8497  0.6236
12802TIP3   OH259896   6.237   1.155  17.283 -0.0492  0.1919  0.0088
12802TIP3    H159897   6.155   1.203  17.281 -1.4112 -1.9743  0.0826
12802TIP3    H259898   6.252   1.129  17.192  1.3965  1.8150 -0.2622
12803TIP3   OH259899   2.737   2.141  12.259  0.5195  0.5271  0.6077
12803TIP3    H159900   2.666   2.148  12.322 -0.7083  2.2432 -0.8691
12803TIP3    H259901   2.697   2.099  12.182  1.3351  0.6959  0.0748
12804TIP3   OH259902   4.609   5.599   3.735 -0.0197  0.3998 -0.0013
12804TIP3    H159903   4.540   5.546   3.694  2.0268 -0.9380 -1.9966
12804TIP3    H259904   4.565   5.648   3.804 -2.6202 -1.6625 -0.0521
12805TIP3   OH259905   0.756   2.011   6.309  0.0618 -0.0398  0.5593
12805TIP3    H159906   0.771   2.012   6.214 -0.4454 -0.2717  0.4750
12805TIP3    H259907   0.835   1.972   6.346  0.4535  0.4580  0.2701
12806TIP3   OH259908   5.339   4.327  11.522 -0.4598  0.1943  0.3381
12806TIP3    H159909   5.345   4.368  11.436  1.5359  0.9197  0.7925
12806TIP3    H259910   5.348   4.233  11.505  0.7337  0.3951 -0.1931
12807TIP3   OH259911   6.658   3.743  13.010 -0.1701  0.7785  0.1374
12807TIP3    H159912   6.612   3.659  13.010 -0.1821  0.7823  0.6574
12807TIP3    H259913   6.634   3.784  13.093  1.9011  0.1391  1.1395
12808TIP3   OH259914   3.792   4.527   5.448  0.1998  0.2110 -0.0698
12808TIP3    H159915   3.773   4.556   5.359 -2.5101 -1.4161 -0.1308
12808TIP3    H259916   3.776   4.604   5.502 -0.7853  0.5245 -0.7668
12809TIP3   OH259917   1.674   2.578  14.058  0.4140  0.3130  0.5637
12809TIP3    H159918   1.594   2.527  14.059  0.5796 -0.0667 -1.5096
12809TIP3    H259919   1.744   2.513  14.067  0.5447  0.5459  1.3445
12810TIP3   OH259920   2.078   4.414   3.952  0.6765  0.4376  0.0681
12810TIP3    H159921   2.046   4.504   3.960  1.2948  0.6365  0.3489
12810TIP3    H259922   2.158   4.422   3.900 -0.2952 -0.1865 -1.5756
12811TIP3   OH259923   1.314   3.645  15.568  0.5517 -0.4971 -0.4112
12811TIP3    H159924   1.321   3.582  15.496  2.9863 -0.0391 -0.6396
12811TIP3    H259925   1.317   3.591  15.647  1.1534 -0.7747 -0.6198
12812TIP3   OH259926   5.907   1.513  14.744  0.2835  0.2184 -0.2037
12812TIP3    H159927   5.925   1.550  14.658 -1.3509 -0.0555 -0.6872
12812TIP3    H259928   5.987   1.466  14.767  0.6448  0.0616 -1.6960
12813TIP3   OH259929   3.899   5.912   2.532 -0.2951  0.6591 -0.3287
12813TIP3    H159930   3.915   5.852   2.459 -0.5780  1.8713 -1.4332
12813TIP3    H259931   3.841   5.863   2.591  2.2456 -1.4344  0.5931
12814TIP3   OH259932   0.391   0.545  14.422 -0.3594  0.0084  0.0805
12814TIP3    H159933   0.305   0.519  14.454  0.4238 -1.0391  1.4861
12814TIP3    H259934   0.409   0.485  14.350 -0.9771  0.5207 -0.5077
12815TIP3   OH259935   3.180   1.016  12.220 -0.3280  0.4528 -0.0505
12815TIP3    H159936   3.154   0.973  12.138  0.6274  0.0245 -0.1427
12815TIP3    H259937   3.251   1.074  12.194 -2.2029  2.8982 -0.1181
12816TIP3   OH259938   6.560   5.778  13.480 -0.0156 -0.4171 -0.5227
12816TIP3    H159939   6.564   5.796  13.386  1.0795 -1.5402 -0.7294
12816TIP3    H259940   6.573   5.683  13.487 -2.1605 -0.6869  0.6592
12817TIP3   OH259941   0.213   0.846  17.405 -0.2545  0.4159  0.3603
12817TIP3    H159942   0.173   0.810  17.484 -0.6498  0.8215  0.3486
12817TIP3    H259943   0.185   0.788  17.335 -2.4375  1.7259  0.0390
12818TIP3   OH259944   3.965   0.053   4.543  0.1248 -0.6062  0.0237
12818TIP3    H159945   3.954   0.001   4.623  2.7846 -2.9952 -0.9860
12818TIP3    H259946   4.028   0.121   4.568  0.1112 -0.6665  0.2263
12819TIP3   OH259947   1.273   6.343  10.960 -0.1869 -0.3401 -0.5035
12819TIP3    H159948   1.219   6.357  10.883  0.3824 -0.2746 -0.9005
12819TIP3    H259949   1.310   6.256  10.948  1.6566  0.5224 -1.4217
12820TIP3   OH259950   2.271   3.490   6.696 -0.2586 -0.2206  0.2524
12820TIP3    H159951   2.338   3.554   6.717 -0.5248 -0.1868  1.0428
12820TIP3    H259952   2.319   3.407   6.686  0.5648  0.5293 -3.9602
12821TIP3   OH259953   1.382   5.336   4.313 -0.1008 -0.3466  0.1115
12821TIP3    H159954   1.351   5.406   4.370 -0.7507 -0.7788  0.3034
12821TIP3    H259955   1.474   5.356   4.298 -0.3163  0.6315  0.0305
12822TIP3   OH259956   5.808   0.694   3.453 -0.1099  0.2934  0.6675
12822TIP3    H159957   5.900   0.680   3.432 -0.3437  0.6411 -0.7171
12822TIP3    H259958   5.775   0.607   3.477  0.0598 -0.3007 -1.0841
12823TIP3   OH259959   2.718   1.653   3.598 -0.1018  0.1978 -0.4043
12823TIP3    H159960   2.712   1.560   3.575  0.9276 -0.5326  1.9317
12823TIP3    H259961   2.803   1.681   3.566  0.0095  0.0539 -0.2354
12824TIP3   OH259962   1.133   1.718   2.142  0.1203 -0.2610  0.6164
12824TIP3    H159963   1.068   1.788   2.137  1.3146  0.9263  1.2133
12824TIP3    H259964   1.121   1.680   2.229  0.4074  0.1441  0.8346
12825TIP3   OH259965   4.666   1.224   2.429 -0.4004  0.4468 -0.2640
12825TIP3    H159966   4.689   1.136   2.401 -2.0162 -0.1161  0.0369
12825TIP3    H259967   4.654   1.273   2.348  0.8099  0.4972 -0.4282
12826TIP3   OH259968   3.383   4.920   1.932  0.2456  0.1016  0.5539
12826TIP3    H159969   3.333   4.895   1.854  2.6260  0.1277 -1.1022
12826TIP3    H259970   3.332   4.991   1.971 -1.8278 -0.9763 -0.0283
12827TIP3   OH259971   3.992   1.123  10.947  0.1878 -0.2821  0.5032
12827TIP3    H159972   3.907   1.159  10.972 -0.2185 -0.6341 -0.3308
12827TIP3    H259973   3.971   1.055  10.883  1.2274  1.1908 -1.4873
12828TIP3   OH259974   4.884   2.187  15.331  0.2595 -0.3140  0.3343
12828TIP3    H159975   4.845   2.154  15.250 -1.5200 -2.9940  2.1287
12828TIP3    H259976   4.978   2.187  15.314 -0.0795 -0.1475 -1.9115
12829TIP3   OH259977   4.534   2.039  13.208 -0.0536  0.3125  0.1915
12829TIP3    H159978   4.592   2.038  13.132 -1.3808 -0.0637 -0.8544
12829TIP3    H259979   4.587   2.002  13.279  1.4006  1.2279 -0.3719
12830TIP3   OH259980   3.211   5.473   5.534 -0.5357 -0.1916 -0.3611
12830TIP3    H159981   3.249   5.411   5.596  1.3575 -1.5002 -2.6340
12830TIP3    H259982   3.273   5.475   5.461 -2.1882  1.9012 -1.8469
12831TIP3   OH259983   0.085   2.358  13.843 -0.2984 -0.4655 -0.0404
12831TIP3    H159984   0.061   2.286  13.900 -1.9237 -0.5119 -0.7446
12831TIP3    H259985   0.051   2.436  13.887  1.3302 -0.0924  0.6493
12832TIP3   OH259986   4.280   3.365  12.147 -0.3685 -0.1461 -0.3110
12832TIP3    H159987   4.227   3.413  12.083 -1.2593 -2.2945 -1.3010
12832TIP3    H259988   4.358   3.338  12.098  0.6195  1.1040  0.5210
12833TIP3   OH259989   0.897   0.657   3.239  0.0080  0.6221  0.2103
12833TIP3    H159990   0.978   0.606   3.232 -0.2558 -0.0157  1.5713
12833TIP3    H259991   0.830   0.592   3.263 -0.9025  1.1618 -0.7606
12834TIP3   OH259992   4.488   4.948  14.077 -0.1627  0.1765 -0.4016
12834TIP3    H159993   4.525   5.035  14.066 -0.5713  0.4747  0.5085
12834TIP3    H259994   4.418   4.942  14.012  0.3277  0.2626 -0.9381
12835TIP3   OH259995   5.980   6.543  12.247 -0.3189  0.2540  0.5624
12835TIP3    H159996   5.897   6.589  12.259 -0.7672 -0.5403  0.5766
12835TIP3    H259997   6.032   6.566  12.324 -0.1651  1.4802  0.1189
12836TIP3   OH259998   2.499   4.161  11.568 -0.0732  0.1158  0.2254
12836TIP3    H159999   2.414   4.119  11.580 -0.3323  0.4151 -0.4743
12836TIP3    H260000   2.551   4.098  11.517  0.5435 -0.5653  1.6441
12837TIP3   OH260001   6.562   2.918   0.203  0.1068  0.3841  0.0958
12837TIP3    H160002   6.625   2.986   0.179 -0.1012 -0.1461 -2.2046
12837TIP3    H260003   6.482   2.943   0.158 -0.6321 -0.2299  1.0300
12838TIP3   OH260004   5.657   2.468  17.073  0.4313  0.0299 -0.1615
12838TIP3    H160005   5.729   2.413  17.043  1.3587  1.3769 -0.4830
12838TIP3    H260006   5.664   2.467  17.168  0.3400 -0.5176 -0.1566
12839TIP3   OH260007   2.784   0.680   0.643  0.6247  0.3786  0.4394
12839TIP3    H160008   2.769   0.770   0.671  0.3769  0.4054  0.2242
12839TIP3    H260009   2.856   0.649   0.698  1.1065  0.8942  0.1134
12840TIP3   OH260010   2.122   2.648   4.311 -0.7567 -0.2565 -0.4264
12840TIP3    H160011   2.207   2.636   4.354 -1.3567  0.9110  1.2012
12840TIP3    H260012   2.065   2.585   4.354 -0.9448 -0.3995 -0.8788
12841TIP3   OH260013   2.498   6.602   5.634  0.4478  0.0322  0.1921
12841TIP3    H160014   2.453   6.672   5.682 -0.6521  0.1848 -1.0132
12841TIP3    H260015   2.590   6.611   5.659  0.1867  1.2933  0.8016
12842TIP3   OH260016   2.027   2.774   5.634  0.1585  0.2594 -0.0654
12842TIP3    H160017   2.093   2.775   5.703 -0.4101  1.0710  0.4964
12842TIP3    H260018   1.951   2.816   5.675 -0.5463 -0.2553 -0.8414
12843TIP3   OH260019   3.455   4.780   1.197 -0.6790 -0.6146  0.2076
12843TIP3    H160020   3.482   4.871   1.184  0.7997 -0.7652  1.9396
12843TIP3    H260021   3.537   4.731   1.201 -1.3614 -1.7104  1.4072
12844TIP3   OH260022   1.482   6.562   2.621 -0.1659  0.3252 -0.2526
12844TIP3    H160023   1.558   6.613   2.650  0.5012  0.0202 -1.4039
12844TIP3    H260024   1.413   6.627   2.608  0.5550  0.9036 -1.3245
12845TIP3   OH260025   1.264   4.887  12.661  0.1025 -0.4724 -0.1729
12845TIP3    H160026   1.359   4.893  12.648  0.1554 -2.4177 -1.1306
12845TIP3    H260027   1.254   4.814  12.722 -0.8147 -1.1025 -1.0569
12846TIP3   OH260028   3.907   2.088   0.397 -0.2158  0.0322 -0.0883
12846TIP3    H160029   3.835   2.101   0.459 -1.3091 -0.8720 -1.1227
12846TIP3    H260030   3.974   2.149   0.425 -0.3920 -0.8143  2.3997
12847TIP3   OH260031   4.726   2.765   0.636  0.2288  0.0501 -0.1688
12847TIP3    H160032   4.795   2.702   0.612  0.6736  0.2781  0.4988
12847TIP3    H260033   4.693   2.734   0.720  1.5663  1.5991  0.9792
12848TIP3   OH260034   6.543   1.554   3.733 -0.4903  0.8007  0.2209
12848TIP3    H160035   6.610   1.486   3.723 -0.2336  0.8309  1.5751
12848TIP3    H260036   6.592   1.634   3.751 -0.8300  1.2120 -0.5981
12849TIP3   OH260037   6.342   0.250   3.112 -0.7503  0.1314  1.1940
12849TIP3    H160038   6.417   0.304   3.137 -0.0207 -0.1842 -0.2008
12849TIP3    H260039   6.334   0.187   3.184  0.6804 -0.1798  1.1165
12850TIP3   OH260040   5.853   5.032  15.246  0.5417  0.1778  0.5612
12850TIP3    H160041   5.806   4.971  15.303 -0.1561  0.6497  0.4961
12850TIP3    H260042   5.927   5.062  15.300  0.7738 -0.5598  0.6642
12851TIP3   OH260043   2.227   0.280  13.254  0.0710  0.4544 -0.1860
12851TIP3    H160044   2.175   0.265  13.176  1.0705 -0.4847 -0.7105
12851TIP3    H260045   2.170   0.330  13.313 -1.4381 -0.6256 -0.6748
12852TIP3   OH260046   5.918   5.769   0.619  0.0104  0.6006 -0.6449
12852TIP3    H160047   5.924   5.857   0.581 -1.4317  0.8010 -0.4370
12852TIP3    H260048   5.939   5.781   0.711 -1.6942  1.0089 -0.2836
12853TIP3   OH260049   4.338   6.465   3.203 -0.0696  0.3287  0.2349
12853TIP3    H160050   4.335   6.378   3.243 -0.4235 -0.4542 -1.4172
12853TIP3    H260051   4.421   6.467   3.156  0.6172  1.4588  1.4123
12854TIP3   OH260052   5.556   6.691   5.821  0.1937 -0.5520  0.7434
12854TIP3    H160053   5.647   6.674   5.798  0.0683 -1.8849  1.1738
12854TIP3    H260054   5.507   6.619   5.781 -0.6773  0.1625  0.4949
12855TIP3   OH260055   5.940   0.712  14.768  0.5223 -0.5620  0.4834
12855TIP3    H160056   6.029   0.745  14.775  0.9645 -1.3994 -0.8142
12855TIP3    H260057   5.950   0.623  14.736 -0.8129 -0.3695 -0.5408
12856TIP3   OH260058   4.143   2.481  11.930  0.3184 -0.2437 -0.9737
12856TIP3    H160059   4.069   2.533  11.899 -0.5422 -1.4295 -0.9752
12856TIP3    H260060   4.104   2.401  11.964  1.4151  0.0454  1.1421
12857TIP3   OH260061   5.366   4.212   5.910 -0.1556  0.1723  0.0747
12857TIP3    H160062   5.404   4.299   5.898 -1.8077  0.9533  0.1870
12857TIP3    H260063   5.357   4.202   6.004  2.3869 -1.2414  0.2484
12858TIP3   OH260064   1.163   5.834  14.434 -0.0684 -0.0393  0.5650
12858TIP3    H160065   1.128   5.890  14.504 -0.7776  2.2920 -1.5168
12858TIP3    H260066   1.248   5.872  14.413  0.6987 -1.4790  0.9277
12859TIP3   OH260067   1.865   5.383   0.496 -0.3555 -0.0981  0.8083
12859TIP3    H160068   1.891   5.443   0.566 -0.1903  0.0695  0.6075
12859TIP3    H260069   1.938   5.385   0.435 -1.0328  0.7870 -0.0273
12860TIP3   OH260070   4.789   0.585  11.335 -0.6261 -0.1652 -0.4457
12860TIP3    H160071   4.813   0.532  11.259 -0.1925 -0.1549 -0.3139
12860TIP3    H260072   4.707   0.546  11.367 -0.3427 -0.7117 -0.3882
12861TIP3   OH260073   4.909   6.062  14.488  0.4572  0.1842  0.1746
12861TIP3    H160074   4.849   6.129  14.522  1.8214  0.8380  1.4183
12861TIP3    H260075   4.990   6.076  14.537  1.1032 -1.7540 -0.2720
12862TIP3   OH260076   1.862   4.095   0.040 -0.4367 -0.2700  0.0224
12862TIP3    H160077   1.949   4.098  -0.000 -0.1058 -0.8365  0.6795
12862TIP3    H260078   1.807   4.055  -0.027  0.1047 -1.1850  0.0991
12863TIP3   OH260079   4.492   1.233   0.141  0.5922  0.1575  0.1315
12863TIP3    H160080   4.505   1.163   0.205  1.0374  0.5759  0.5112
12863TIP3    H260081   4.541   1.307   0.177 -0.2176  0.7995 -0.0460
12864TIP3   OH260082   2.805   2.678  12.072 -0.3739  0.0122  0.4207
12864TIP3    H160083   2.814   2.608  12.007  0.5138 -0.5902  1.1654
12864TIP3    H260084   2.862   2.748  12.039 -1.3785  0.4743 -0.4026
12865TIP3   OH260085   6.210   3.050  16.928 -0.1246  0.2589 -0.6986
12865TIP3    H160086   6.250   2.964  16.911  0.2819  0.4561 -0.7448
12865TIP3    H260087   6.165   3.072  16.847  0.3799  0.4190 -0.9373
12866TIP3   OH260088   5.968   5.636  17.341  0.1378 -0.2793 -0.2491
12866TIP3    H160089   6.009   5.583  17.272  0.5327 -0.1159 -0.1415
12866TIP3    H260090   6.000   5.598  17.422 -1.8304 -1.7189 -0.0645
12867TIP3   OH260091   5.031   6.074   4.009  0.3110 -0.2824 -0.0860
12867TIP3    H160092   5.102   6.081   3.945  0.2547  0.8566 -0.0496
12867TIP3    H260093   4.963   6.023   3.964  0.3116  0.4161 -0.9117
12868TIP3   OH260094   2.108   4.657   6.084 -0.5385  0.5982  0.3194
12868TIP3    H160095   2.179   4.693   6.137  0.4753  0.7336 -1.0762
12868TIP3    H260096   2.032   4.660   6.141  0.6443  0.0691  2.0220
12869TIP3   OH260097   6.688   3.042  12.049  0.6376 -0.4228 -0.0360
12869TIP3    H160098   6.696   3.054  12.143 -1.2808 -0.8838  0.2266
12869TIP3    H260099   6.712   2.951  12.034  0.2579 -0.5489  0.1149
12870TIP3   OH260100   4.853   3.827  15.223 -0.0800  0.2278  0.7510
12870TIP3    H160101   4.810   3.863  15.145 -0.2834  0.4821  0.9780
12870TIP3    H260102   4.896   3.748  15.192 -3.2261 -1.8035  1.1052
12871TIP3   OH260103   4.170   2.810   3.162  0.6687  0.2993 -0.2541
12871TIP3    H160104   4.232   2.788   3.232  0.0078 -2.5255 -0.4188
12871TIP3    H260105   4.225   2.843   3.091  1.5958  1.1212  0.8082
12872TIP3   OH260106   6.432   0.049  14.367 -0.3505  0.7405  0.1097
12872TIP3    H160107   6.424  -0.032  14.417 -1.5776  1.1882  0.6812
12872TIP3    H260108   6.370   0.039  14.294  0.3631  0.6858 -0.4972
12873TIP3   OH260109   4.669   1.436   4.928 -0.0802  0.3011  0.0657
12873TIP3    H160110   4.681   1.528   4.904  0.8688 -0.0891 -1.0403
12873TIP3    H260111   4.698   1.387   4.851 -0.8009 -0.9296  0.5481
12874TIP3   OH260112   4.301   2.054  14.336  0.0627 -0.3234  0.1870
12874TIP3    H160113   4.252   2.113  14.279  1.1599 -2.2880 -3.0861
12874TIP3    H260114   4.311   2.102  14.418 -0.6125  3.2613 -1.6336
12875TIP3   OH260115   1.573   6.349  15.903  0.2760 -0.0180  0.4714
12875TIP3    H160116   1.616   6.434  15.906  0.2277  0.0625 -0.6230
12875TIP3    H260117   1.508   6.352  15.973 -0.0566  1.0270  0.1315
12876TIP3   OH260118   0.992   3.285   1.045 -0.1861  0.1557  0.1694
12876TIP3    H160119   1.044   3.255   0.971 -0.4835  1.1216 -0.4476
12876TIP3    H260120   1.053   3.292   1.118  0.1295 -0.6957 -0.0072
12877TIP3   OH260121   4.361   5.963  13.620  0.4776  0.1312 -0.0130
12877TIP3    H160122   4.284   6.013  13.594  0.3494  0.5976  1.1909
12877TIP3    H260123   4.338   5.872  13.603 -0.2809  0.2852  0.1577
12878TIP3   OH260124   6.099   6.347   0.991  0.0406 -0.1091  0.2189
12878TIP3    H160125   6.152   6.268   1.002 -1.7953 -1.2929  1.0009
12878TIP3    H260126   6.112   6.373   0.900  0.2425 -1.6551 -0.2121
12879TIP3   OH260127   6.201   5.359   3.638  0.1006  0.0155 -0.0807
12879TIP3    H160128   6.232   5.437   3.591 -0.8014  0.0339 -0.6650
12879TIP3    H260129   6.239   5.286   3.590 -2.2410 -0.0421 -1.9936
12880TIP3   OH260130   4.225   6.446   4.026  0.0942  0.7027 -0.1504
12880TIP3    H160131   4.230   6.527   4.077 -0.4887  0.9218 -0.4324
12880TIP3    H260132   4.154   6.461   3.963  0.7044  0.3757 -0.9270
12881TIP3   OH260133   3.549   2.914   5.275  0.1038  0.3839 -0.0391
12881TIP3    H160134   3.620   2.953   5.325  0.3209 -0.0145 -0.0312
12881TIP3    H260135   3.469   2.945   5.319  0.2438  1.5548 -0.5971
12882TIP3   OH260136   1.465   0.217   2.121 -0.6914  0.7416  0.5274
12882TIP3    H160137   1.502   0.129   2.109  0.6500  0.7602  3.5163
12882TIP3    H260138   1.376   0.201   2.153 -0.1055  0.3875  2.0564
12883TIP3   OH260139   3.352   5.771  11.753  0.3899 -0.0422  0.3553
12883TIP3    H160140   3.290   5.703  11.778  0.3184 -0.0918  0.0508
12883TIP3    H260141   3.344   5.838  11.821 -0.1579  0.0540  0.1977
12884TIP3   OH260142   3.098   2.940   4.790  0.2604 -0.1635 -0.0790
12884TIP3    H160143   3.027   2.997   4.761  0.4129  0.5467  0.8561
12884TIP3    H260144   3.175   2.997   4.790  0.7432 -0.8107 -0.6776
12885TIP3   OH260145   2.450   3.887   0.932 -0.1775 -0.3977  0.4775
12885TIP3    H160146   2.467   3.922   0.844  0.1013 -0.4693  0.5012
12885TIP3    H260147   2.407   3.959   0.978 -1.0594 -0.6363  0.0393
12886TIP3   OH260148   2.712   3.384  13.087 -0.3881  0.0729 -0.5756
12886TIP3    H160149   2.655   3.423  13.154  0.6936 -1.2536  1.2004
12886TIP3    H260150   2.716   3.450  13.018 -0.5813  2.0534  1.2011
12887TIP3   OH260151   1.948   3.063  12.586  0.2111  0.1474  0.0914
12887TIP3    H160152   1.888   3.128  12.549  2.0702  0.7750 -1.9732
12887TIP3    H260153   1.918   2.980  12.550 -0.9482  0.0685  1.1508
12888TIP3   OH260154   4.628   4.663   4.155  0.4883 -0.2533  0.9480
12888TIP3    H160155   4.589   4.594   4.101 -0.5511  1.2275 -0.3444
12888TIP3    H260156   4.553   4.701   4.201  1.0720 -0.1232  1.7937
12889TIP3   OH260157   3.250   3.849   5.016  0.4384 -0.3301 -0.8881
12889TIP3    H160158   3.276   3.906   4.943  2.8080 -1.3039 -0.8941
12889TIP3    H260159   3.183   3.791   4.979 -1.5705  1.9368 -1.0478
12890TIP3   OH260160   5.877   1.008   4.965  0.3474  0.3013  0.2519
12890TIP3    H160161   5.855   0.943   4.899  0.7919  0.7722 -0.3779
12890TIP3    H260162   5.885   0.958   5.046  0.5761 -0.4112 -0.1977
12891TIP3   OH260163   6.127   1.325  14.804 -0.1800  0.2286 -0.1638
12891TIP3    H160164   6.193   1.259  14.824 -1.3255 -1.1257 -0.6761
12891TIP3    H260165   6.110   1.368  14.889 -0.6269 -1.3147  0.5640
12892TIP3   OH260166   1.563   4.791   2.110 -0.0661 -0.2930  0.0669
12892TIP3    H160167   1.576   4.733   2.185  0.7043  1.2107  1.1649
12892TIP3    H260168   1.533   4.734   2.040 -1.5163 -1.6675  1.7130
12893TIP3   OH260169   0.944   4.859   6.432 -0.6959  0.0201  0.3920
12893TIP3    H160170   1.022   4.913   6.431  0.5270 -1.6607  0.9954
12893TIP3    H260171   0.878   4.911   6.386  0.5100  1.8302  0.6316
12894TIP3   OH260172   2.053   0.703  16.094  0.1657  0.0256 -0.6885
12894TIP3    H160173   1.994   0.769  16.132 -0.0976  0.1759 -1.3447
12894TIP3    H260174   2.047   0.629  16.154  0.2414  0.4937 -0.0963
12895TIP3   OH260175   1.187   4.807   2.072  0.1015  0.5401 -0.6449
12895TIP3    H160176   1.105   4.808   2.122 -0.1729 -1.4221 -0.9680
12895TIP3    H260177   1.197   4.896   2.039 -2.3807  0.6135 -1.3598
12896TIP3   OH260178   0.284   1.302   3.566  0.1863 -0.1143  0.8915
12896TIP3    H160179   0.218   1.277   3.631  0.1639 -3.9312 -0.3281
12896TIP3    H260180   0.241   1.288   3.482  1.5561  0.5521  0.0494
12897TIP3   OH260181   3.014   4.231   4.260 -0.2653 -0.3264  0.3605
12897TIP3    H160182   3.047   4.295   4.197 -0.8812 -0.7035 -0.3639
12897TIP3    H260183   3.034   4.146   4.220 -0.3507 -0.5764  0.8416
12898TIP3   OH260184   1.239   6.511  14.634 -0.2932 -0.2982  0.0226
12898TIP3    H160185   1.155   6.543  14.601  0.2288  0.6727 -0.4223
12898TIP3    H260186   1.239   6.418  14.614  0.4204  0.3410 -3.8873
12899TIP3   OH260187   2.278   0.473  11.990 -0.8468  0.2472 -0.1459
12899TIP3    H160188   2.359   0.522  12.005  0.1913 -1.6433  0.7573
12899TIP3    H260189   2.243   0.510  11.908  1.5186  0.3748 -1.1840
12900TIP3   OH260190   5.062   0.737   5.349  0.1598 -0.0936  1.5142
12900TIP3    H160191   5.043   0.827   5.374 -1.5541 -0.2779  1.0155
12900TIP3    H260192   4.990   0.713   5.291  0.0178 -2.1039  2.4284
12901TIP3   OH260193   2.556   2.197   3.313 -0.4215 -0.1121  0.3200
12901TIP3    H160194   2.531   2.252   3.239 -1.3011 -0.6259  0.2207
12901TIP3    H260195   2.503   2.118   3.303  1.4699 -1.4046 -0.0703
12902TIP3   OH260196   0.597   1.082  12.620  0.7696  0.2452  0.2999
12902TIP3    H160197   0.679   1.069  12.666 -0.0455  1.6902  2.2787
12902TIP3    H260198   0.580   1.176  12.625 -0.4586  0.1423 -1.0684
12903TIP3   OH260199   1.060   4.608  13.794  0.6084 -0.2079  0.2381
12903TIP3    H160200   1.033   4.576  13.880  0.6248 -1.2244 -0.1207
12903TIP3    H260201   1.009   4.688  13.781 -2.7689 -2.3070 -0.6215
12904TIP3   OH260202   0.258   1.616  13.182 -0.0776 -0.1312 -0.0937
12904TIP3    H160203   0.307   1.614  13.264  0.9477  0.6461 -0.6626
12904TIP3    H260204   0.282   1.699  13.141 -1.7848  0.2231 -0.4723
12905TIP3   OH260205   5.954   4.596   5.404  0.2547  0.1758  0.2440
12905TIP3    H160206   6.034   4.558   5.370 -0.9306 -1.7155 -0.6166
12905TIP3    H260207   5.887   4.529   5.389 -2.2004  2.8213 -2.1378
12906TIP3   OH260208   5.637   1.547  14.285 -0.1840 -0.3086  0.0671
12906TIP3    H160209   5.720   1.506  14.258 -0.0469  0.7588 -1.2221
12906TIP3    H260210   5.663   1.616  14.345 -0.1489 -0.1380 -0.1415
12907TIP3   OH260211   1.185   3.335  16.535 -0.0293  0.7253 -0.0523
12907TIP3    H160212   1.147   3.404  16.479 -0.1602 -0.3215 -1.2961
12907TIP3    H260213   1.259   3.302  16.485 -0.0594 -0.1449  0.4684
12908TIP3   OH260214   4.235   5.065   4.767 -0.2489 -0.3274 -0.5215
12908TIP3    H160215   4.229   5.038   4.676 -0.0822  1.3184 -1.0442
12908TIP3    H260216   4.306   5.129   4.769  0.3614 -1.0037  0.9459
12909TIP3   OH260217   6.483   1.302   1.126  0.0616  0.5538 -0.1639
12909TIP3    H160218   6.485   1.230   1.063 -0.4114 -0.2404  0.7048
12909TIP3    H260219   6.409   1.355   1.099 -1.2651 -0.7618  0.7344
12910TIP3   OH260220   0.548   0.047   1.162 -0.0836  0.5983 -0.5717
12910TIP3    H160221   0.587   0.128   1.131 -0.4020  0.3779 -1.5846
12910TIP3    H260222   0.522   0.001   1.082 -1.8025  0.4342  0.0373
12911TIP3   OH260223   4.394   6.753   3.755  0.3995 -0.0578  0.2579
12911TIP3    H160224   4.412   6.846   3.737 -0.5275  0.0958  0.0950
12911TIP3    H260225   4.344   6.724   3.679 -1.9591  0.1045  1.6817
12912TIP3   OH260226   1.124   0.198   4.360 -0.4430  0.6551  0.1615
12912TIP3    H160227   1.182   0.250   4.303 -0.1584  0.1887  0.0263
12912TIP3    H260228   1.153   0.108   4.348  0.0647  0.6168  1.5779
12913TIP3   OH260229   0.423   5.529  11.147  0.5307  0.3497 -0.0910
12913TIP3    H160230   0.419   5.600  11.210  1.7076  0.1003  0.2832
12913TIP3    H260231   0.383   5.565  11.067  0.0539  1.0247  0.4468
12914TIP3   OH260232   4.215   5.161   0.975  0.5664 -0.2800  0.2410
12914TIP3    H160233   4.209   5.239   0.920 -3.0566 -0.4011  0.2058
12914TIP3    H260234   4.205   5.087   0.915 -0.7436 -0.5274  0.7344
12915TIP3   OH260235   0.793   6.057   3.062  0.4005  0.4084 -0.3475
12915TIP3    H160236   0.707   6.041   3.023  0.2769  2.9908 -1.3129
12915TIP3    H260237   0.855   6.024   2.997  0.2107 -2.0561  0.6336
12916TIP3   OH260238   1.049   2.932   1.907 -0.1178 -0.2601 -0.3143
12916TIP3    H160239   0.990   2.859   1.926  1.7917 -1.8481 -0.1075
12916TIP3    H260240   1.050   2.939   1.812  0.7342 -1.4693 -0.4140
12917TIP3   OH260241   3.047   4.729  14.207 -0.1905  0.4221 -0.8346
12917TIP3    H160242   3.067   4.820  14.187 -1.2230  0.9699  0.4037
12917TIP3    H260243   3.030   4.729  14.302 -4.4091 -0.1468 -1.3956
12918TIP3   OH260244   1.731   6.795   0.115 -0.2919  0.5708 -0.0126
12918TIP3    H160245   1.809   6.796   0.059  0.2096 -2.1971  0.4853
12918TIP3    H260246   1.738   6.875   0.166  1.0551  1.4760 -1.4960
12919TIP3   OH260247   3.070   0.416   0.223  0.1928  0.0891  0.1086
12919TIP3    H160248   3.118   0.499   0.224  0.1546  0.1452 -0.9658
12919TIP3    H260249   2.978   0.443   0.224  0.1349 -0.0206  2.3090
12920TIP3   OH260250   1.502   2.967  14.776  0.0546  0.0899 -0.5807
12920TIP3    H160251   1.483   2.941  14.867  0.9693 -0.5939 -0.5762
12920TIP3    H260252   1.586   2.927  14.757  0.2261  0.8693 -1.4914
12921TIP3   OH260253   0.556   0.509  14.116  0.8517  0.2389  0.0190
12921TIP3    H160254   0.501   0.445  14.069 -0.1915  1.8079 -0.9952
12921TIP3    H260255   0.642   0.467  14.121  0.1928 -1.2684 -0.5593
12922TIP3   OH260256   4.781   5.591   3.103  0.0316 -0.2497 -0.7292
12922TIP3    H160257   4.846   5.652   3.140 -0.8041 -0.3788  1.0796
12922TIP3    H260258   4.717   5.581   3.173 -1.0056 -1.5074 -1.8329
12923TIP3   OH260259   5.187   6.491   1.287 -0.7440 -0.3380  0.2268
12923TIP3    H160260   5.132   6.523   1.358 -1.5867 -0.0632 -0.5333
12923TIP3    H260261   5.175   6.396   1.288 -0.9613 -0.3101  0.2829
12924TIP3   OH260262   1.683   1.717   5.782 -0.0027  0.1179  0.1119
12924TIP3    H160263   1.657   1.761   5.700 -1.1451 -1.3171 -0.3248
12924TIP3    H260264   1.727   1.786   5.832 -2.2693  1.9824 -0.2713
12925TIP3   OH260265   5.077   2.393  13.568  0.2024  0.2666 -0.2194
12925TIP3    H160266   5.002   2.361  13.518  1.1419 -1.2896 -0.7161
12925TIP3    H260267   5.143   2.413  13.502  0.7902  0.0371  0.2859
12926TIP3   OH260268   0.295   0.068  15.723 -0.0907  0.1576 -0.8031
12926TIP3    H160269   0.355   0.056  15.796  0.4891 -1.1926 -1.4696
12926TIP3    H260270   0.209   0.079  15.764  0.5159  1.7233  0.1470
12927TIP3   OH260271   2.917   1.855  13.152  0.1837 -0.6710  0.2491
12927TIP3    H160272   2.926   1.871  13.246 -0.3656 -0.1446  0.2151
12927TIP3    H260273   2.871   1.771  13.147  0.0161 -0.5952  0.4574
12928TIP3   OH260274   0.343   1.862  11.304 -0.1921 -0.0568  0.2952
12928TIP3    H160275   0.429   1.845  11.341  2.2499  2.6935 -3.4157
12928TIP3    H260276   0.324   1.785  11.250  1.1794  0.2760 -0.7176
12929TIP3   OH260277   0.879   6.740  12.170 -0.1366 -0.2845 -0.0921
12929TIP3    H160278   0.842   6.814  12.122 -0.1953  0.0591  0.4866
12929TIP3    H260279   0.934   6.779  12.237 -1.5493 -0.6952  1.3774
12930TIP3   OH260280   2.640   4.839  14.101  0.2516  0.1084  0.3773
12930TIP3    H160281   2.652   4.933  14.118 -1.6331  0.2911  0.9625
12930TIP3    H260282   2.721   4.812  14.058  1.1912  1.8124  0.9613
12931TIP3   OH260283   4.804   4.355  12.308 -0.1098 -0.2134  0.4166
12931TIP3    H160284   4.784   4.328  12.218  0.2469 -0.0489  0.2833
12931TIP3    H260285   4.742   4.425  12.326  0.9281  0.9557 -0.3397
12932TIP3   OH260286   0.381   0.572  12.982 -0.4808  0.3770 -0.2001
12932TIP3    H160287   0.389   0.644  13.044  0.1730  0.5098 -0.4321
12932TIP3    H260288   0.386   0.493  13.036  1.3721  0.4550 -0.1709
12933TIP3   OH260289   0.330   1.896  15.344  0.3765 -0.2788  0.1866
12933TIP3    H160290   0.261   1.837  15.314  0.0995 -0.5326  1.2817
12933TIP3    H260291   0.305   1.918  15.434  0.8893  0.8959  0.0562
12934TIP3   OH260292   4.513   5.294  12.877  0.1472 -0.3682 -0.1201
12934TIP3    H160293   4.472   5.313  12.961 -0.5756 -1.4721 -0.2096
12934TIP3    H260294   4.521   5.199  12.874  0.8832 -0.2928 -0.9715
12935TIP3   OH260295   2.449   2.461  14.843 -0.6575 -0.2816  0.3223
12935TIP3    H160296   2.515   2.522  14.877 -1.1772 -0.2855  1.3728
12935TIP3    H260297   2.500   2.384  14.815 -0.0986  0.2287 -0.0907
12936TIP3   OH260298   3.442   6.495   1.537  0.1235 -0.4113  0.6387
12936TIP3    H160299   3.532   6.479   1.566  1.0689 -0.2047 -1.9146
12936TIP3    H260300   3.411   6.409   1.510 -0.3057 -0.3956  1.0628
12937TIP3   OH260301   4.827   2.104  13.932 -0.0614  0.2331 -0.2506
12937TIP3    H160302   4.825   2.114  13.836 -0.0239  0.4864 -0.2263
12937TIP3    H260303   4.755   2.158  13.963  0.1886  0.4861 -0.1072
12938TIP3   OH260304   6.684   4.402   4.925  0.1044 -0.1189 -0.3669
12938TIP3    H160305   6.754   4.417   4.862  0.1208 -1.8899 -0.8003
12938TIP3    H260306   6.705   4.461   4.998  1.6593 -0.1277 -0.7809
12939TIP3   OH260307   3.699   2.125   0.559 -0.7328 -0.0004 -0.3154
12939TIP3    H160308   3.681   2.052   0.619 -1.0152 -0.7954 -1.3492
12939TIP3    H260309   3.719   2.198   0.617 -0.5788 -0.8559  0.7537
12940TIP3   OH260310   6.015   5.511   4.003 -0.0938  0.0480  0.1768
12940TIP3    H160311   5.952   5.442   4.023 -0.8588  0.7152  0.1033
12940TIP3    H260312   6.084   5.467   3.952 -1.8149 -0.2054 -2.1055
12941TIP3   OH260313   5.150   3.563  12.843 -0.4461 -0.2399 -0.0986
12941TIP3    H160314   5.228   3.509  12.832 -0.3454 -0.7484  2.4983
12941TIP3    H260315   5.100   3.549  12.762  1.6268 -0.7192 -1.3714
12942TIP3   OH260316   6.264   0.090   0.344 -0.2906 -0.4916  0.2160
12942TIP3    H160317   6.285   0.070   0.436 -0.9105  3.2869  1.3672
12942TIP3    H260318   6.347   0.081   0.298  0.2664 -1.4215  1.3408
12943TIP3   OH260319   3.012   4.172  14.967  0.7308 -0.3324 -0.5057
12943TIP3    H160320   3.047   4.204  15.050  0.5852  1.7498 -1.1965
12943TIP3    H260321   3.027   4.077  14.970  0.8490 -0.2915  1.8119
12944TIP3   OH260322   5.106   1.967  14.814 -0.0530  0.0328  0.1628
12944TIP3    H160323   5.196   1.941  14.795 -0.4319 -0.2112 -1.4419
12944TIP3    H260324   5.075   1.902  14.877  0.8170  0.0058  0.5830
12945TIP3   OH260325   1.904   0.334   5.722 -0.3825  0.5248  0.0904
12945TIP3    H160326   1.978   0.390   5.746 -0.5702 -0.0503  2.2282
12945TIP3    H260327   1.905   0.264   5.788 -1.0721 -1.1530 -1.6055
12946TIP3   OH260328   4.835   2.494  15.052 -0.2834  0.0535  0.0100
12946TIP3    H160329   4.784   2.420  15.021  0.4555 -0.9586  1.0852
12946TIP3    H260330   4.910   2.454  15.097 -1.0562  1.3732  2.6686
12947TIP3   OH260331   5.613   1.171   5.743 -0.5108 -0.0402 -0.1986
12947TIP3    H160332   5.521   1.181   5.767 -0.2714  0.2852  0.6288
12947TIP3    H260333   5.636   1.083   5.773 -0.6437 -0.2668 -0.7446
12948TIP3   OH260334   4.398   1.917  11.675 -0.5027 -0.4331  0.3295
12948TIP3    H160335   4.336   1.989  11.667  3.5575  3.4611  0.0298
12948TIP3    H260336   4.417   1.911  11.768  0.2912 -0.0575  0.1937
12949TIP3   OH260337   1.290   1.159  14.449  0.4314 -0.0682  0.3306
12949TIP3    H160338   1.351   1.091  14.479  3.1170  2.2875  0.6734
12949TIP3    H260339   1.324   1.185  14.364 -0.3295  1.0568  0.3489
12950TIP3   OH260340   1.053   6.616   2.531 -0.3717  0.1215 -0.3865
12950TIP3    H160341   1.021   6.653   2.613  1.5774 -2.2461  1.6007
12950TIP3    H260342   0.993   6.542   2.514 -0.0831 -0.0939 -0.4685
12951TIP3   OH260343   4.342   4.179  17.058 -0.2552 -0.3687  0.2494
12951TIP3    H160344   4.416   4.168  16.999  0.1806 -0.8599  0.8797
12951TIP3    H260345   4.324   4.273  17.056  0.0228 -0.3241 -0.3388
12952TIP3   OH260346   4.036   2.385  15.032  0.2773  0.3216 -0.0774
12952TIP3    H160347   4.048   2.334  15.112 -1.4500 -0.1143 -0.0524
12952TIP3    H260348   4.125   2.404  15.002  0.9653 -1.2028  0.8687
12953TIP3   OH260349   6.262   3.214   6.391  0.1443  0.0611  0.1847
12953TIP3    H160350   6.204   3.157   6.339 -1.4351  2.6557 -1.0751
12953TIP3    H260351   6.325   3.153   6.430 -0.7845 -2.4426 -1.8729
12954TIP3   OH260352   5.392   2.108  12.575  0.1516  0.2369 -0.4383
12954TIP3    H160353   5.354   2.076  12.656  0.6495  1.3860  0.2720
12954TIP3    H260354   5.351   2.055  12.506 -0.9112 -0.1730  0.4905
12955TIP3   OH260355   1.054   1.772  16.635 -0.4042  0.2121  0.0513
12955TIP3    H160356   1.016   1.684  16.634 -0.5377  0.2650 -1.3102
12955TIP3    H260357   1.107   1.774  16.715 -0.2373 -1.1731  0.0055
12956TIP3   OH260358   5.058   6.217  16.244 -0.2112  0.2185 -0.2200
12956TIP3    H160359   5.107   6.135  16.240 -1.6085 -0.5954 -2.4094
12956TIP3    H260360   5.105   6.277  16.187 -0.4095  0.2155 -0.3895
12957TIP3   OH260361   3.397   5.399   4.533  0.1383 -0.3056 -0.1228
12957TIP3    H160362   3.362   5.479   4.493  1.1335 -0.4492 -1.3690
12957TIP3    H260363   3.490   5.418   4.547 -0.0494 -0.5015  1.5872
12958TIP3   OH260364   3.765   6.649  14.242 -0.2705  0.1608  0.6074
12958TIP3    H160365   3.716   6.683  14.167  2.7834  1.0434 -1.1572
12958TIP3    H260366   3.784   6.727  14.295 -0.1229 -0.0504  0.8679
12959TIP3   OH260367   0.083   6.088   3.492 -0.0419  0.1460  0.4698
12959TIP3    H160368   0.179   6.092   3.496  0.0694 -1.5141  0.1714
12959TIP3    H260369   0.054   6.169   3.533  1.4878  0.4927  0.9297
12960TIP3   OH260370   2.360   4.204   5.700 -0.2971 -0.0492  0.2631
12960TIP3    H160371   2.291   4.189   5.764  0.2080 -1.3022  0.5362
12960TIP3    H260372   2.427   4.253   5.749  0.1374 -1.1019  0.7476
12961TIP3   OH260373   1.919   0.169   1.866  0.4261 -0.2209  0.2114
12961TIP3    H160374   1.904   0.146   1.774 -1.6512 -0.1538  0.4940
12961TIP3    H260375   1.921   0.265   1.867 -1.4614 -0.1606  0.4689
12962TIP3   OH260376   3.685   0.828  17.331  0.8170  0.1932  0.2767
12962TIP3    H160377   3.647   0.895  17.388  0.8600  0.0237  0.5066
12962TIP3    H260378   3.703   0.754  17.389  2.1154  0.5066  0.3090
12963TIP3   OH260379   2.340   2.263   0.890  0.0284  0.2361 -0.3236
12963TIP3    H160380   2.351   2.358   0.898 -1.0885  0.4179 -0.7234
12963TIP3    H260381   2.288   2.251   0.810  1.7790 -0.8469 -1.3518
12964TIP3   OH260382   1.897   0.545   1.548  0.1342 -0.5539 -0.6940
12964TIP3    H160383   1.901   0.536   1.643 -1.1244  0.3014 -0.5263
12964TIP3    H260384   1.970   0.493   1.515  1.8834  0.8108  0.8353
12965TIP3   OH260385   4.619   6.064  16.903  0.3250 -0.2008  0.0448
12965TIP3    H160386   4.542   6.100  16.947 -0.1944 -1.3801  0.1427
12965TIP3    H260387   4.596   6.064  16.810  0.6471  0.4436 -0.0461
12966TIP3   OH260388   5.349   2.389   1.434 -0.1203 -0.5781 -0.2138
12966TIP3    H160389   5.352   2.326   1.506  1.1195 -1.9850 -1.4324
12966TIP3    H260390   5.438   2.389   1.399 -0.6972  0.0812 -1.7285
12967TIP3   OH260391   4.136   6.118  13.728 -0.2440  0.3921  0.4915
12967TIP3    H160392   4.044   6.144  13.736 -0.5875 -0.9377  1.1490
12967TIP3    H260393   4.184   6.201  13.723 -1.4247  1.1147  0.7696
12968TIP3   OH260394   1.568   4.816  15.918 -0.2884  0.4731 -0.3337
12968TIP3    H160395   1.546   4.892  15.972  0.3668  2.1166 -2.2544
12968TIP3    H260396   1.499   4.813  15.852  0.3448  0.1376 -0.9894
12969TIP3   OH260397   3.844   6.358   2.810  0.2876 -0.5587  0.3554
12969TIP3    H160398   3.854   6.273   2.767 -1.7556 -0.0098 -1.3922
12969TIP3    H260399   3.836   6.420   2.737 -0.6416  0.7998  1.5610
12970TIP3   OH260400   2.295   0.985  13.204  0.0742 -0.2884 -0.0205
12970TIP3    H160401   2.275   1.042  13.130  2.1786 -0.1846 -0.5783
12970TIP3    H260402   2.313   1.045  13.277 -0.9507 -0.3596  0.3012
12971TIP3   OH260403   1.438   5.071  14.133 -0.0702  0.4053  0.0607
12971TIP3    H160404   1.446   5.157  14.093 -0.1982  0.7293  0.7136
12971TIP3    H260405   1.442   5.088  14.227 -0.5501 -0.2487  0.2104
12972TIP3   OH260406   3.969   1.550   5.590  0.0993 -0.2262  0.7301
12972TIP3    H160407   4.002   1.486   5.527  1.4474  2.3066 -1.3469
12972TIP3    H260408   3.965   1.502   5.673 -0.1441 -3.2660 -0.8938
12973TIP3   OH260409   6.647   5.366   3.220  0.1778  0.3174 -0.3053
12973TIP3    H160410   6.646   5.456   3.188 -0.5417 -0.0504 -1.3716
12973TIP3    H260411   6.564   5.356   3.266 -1.0067 -0.5341 -2.4505
12974TIP3   OH260412   1.633   4.323  14.672 -0.3166  0.1431  0.0303
12974TIP3    H160413   1.544   4.288  14.665 -0.1249 -0.0023 -2.0480
12974TIP3    H260414   1.623   4.416  14.652  0.1386 -0.1049 -1.4572
12975TIP3   OH260415   2.229   0.877  16.845 -0.4145  0.5352  0.3218
12975TIP3    H160416   2.320   0.847  16.852 -0.4443  0.1123 -0.8760
12975TIP3    H260417   2.178   0.797  16.856 -0.6114  0.6189 -0.0103
12976TIP3   OH260418   5.543   6.478  13.428  0.5135  0.3339  0.7194
12976TIP3    H160419   5.496   6.406  13.471  1.9560 -0.2665  1.3541
12976TIP3    H260420   5.612   6.502  13.490  1.0098  1.2311 -0.1510
12977TIP3   OH260421   2.147   6.671   1.890  0.0136 -0.0074 -0.0764
12977TIP3    H160422   2.119   6.633   1.974  0.0573 -0.4877 -0.2767
12977TIP3    H260423   2.117   6.608   1.824  0.2798  0.2024 -0.3979
12978TIP3   OH260424   5.525   3.073   2.269  0.6810 -0.0433  0.5263
12978TIP3    H160425   5.569   3.090   2.352  0.5040  0.3816  0.5344
12978TIP3    H260426   5.510   3.160   2.231 -0.5337 -0.1389  0.7276
12979TIP3   OH260427   4.702   2.140  15.126  0.3367 -0.6275 -0.0465
12979TIP3    H160428   4.664   2.228  15.134 -1.7875 -1.5516  1.0614
12979TIP3    H260429   4.632   2.088  15.087  0.9203 -2.1643  0.8738
12980TIP3   OH260430   0.387   5.471  12.843  0.4332 -0.3105 -0.0034
12980TIP3    H160431   0.415   5.455  12.752 -1.7216  0.7001 -0.9014
12980TIP3    H260432   0.469   5.489  12.889  1.5316 -0.0240 -1.9200
12981TIP3   OH260433   5.030   0.498   4.265 -0.2587  0.2793  0.0131
12981TIP3    H160434   5.092   0.459   4.204 -2.9803 -2.5505 -1.2206
12981TIP3    H260435   5.004   0.581   4.225  2.3803  1.4228  0.4646
12982TIP3   OH260436   1.872   0.868  14.396  0.4937 -0.5210  0.2651
12982TIP3    H160437   1.857   0.880  14.490 -0.0015 -0.8868  0.2331
12982TIP3    H260438   1.785   0.866  14.357  0.7132  0.4999 -0.3213
12983TIP3   OH260439   0.832   6.619   1.550 -0.0188  0.4982 -0.2778
12983TIP3    H160440   0.758   6.660   1.506  0.4570  0.2767 -1.2953
12983TIP3    H260441   0.801   6.531   1.573 -0.3936  0.7452  0.2097
12984TIP3   OH260442   5.787   1.785   2.004  0.3389  0.2905 -0.6895
12984TIP3    H160443   5.763   1.763   2.094  1.2556  2.2528  0.0733
12984TIP3    H260444   5.706   1.818   1.965 -0.6675 -2.6742 -1.3851
12985TIP3   OH260445   5.217   5.699   2.379 -0.0711 -0.1887 -0.0856
12985TIP3    H160446   5.162   5.727   2.307 -0.7346  0.5083  0.6704
12985TIP3    H260447   5.300   5.674   2.338 -0.3615  0.4002 -1.0526
12986TIP3   OH260448   3.164   6.738   0.327 -0.2513  0.2696  0.0966
12986TIP3    H160449   3.193   6.707   0.412 -0.3023  1.0699  0.4094
12986TIP3    H260450   3.112   6.666   0.292  0.0803 -0.2098  0.5755
12987TIP3   OH260451   6.269   0.725  15.759  0.0374  0.4340 -0.4515
12987TIP3    H160452   6.251   0.649  15.704  0.7320 -0.4498  0.5116
12987TIP3    H260453   6.292   0.794  15.697  0.7224 -0.5155 -1.2842
12988TIP3   OH260454   1.365   2.044  14.865 -0.4241  0.3699 -0.0681
12988TIP3    H160455   1.423   2.086  14.801  0.7392  1.3441  1.5762
12988TIP3    H260456   1.311   2.114  14.898 -0.6397 -0.0249  0.4211
12989TIP3   OH260457   3.238   1.196  17.237 -0.1346 -0.3473 -0.2181
12989TIP3    H160458   3.273   1.280  17.207  1.3975 -1.5265 -1.9242
12989TIP3    H260459   3.257   1.135  17.167  0.7149 -2.6161  1.8401
12990TIP3   OH260460   3.333   6.019   4.724  0.5439 -0.4254  0.5587
12990TIP3    H160461   3.396   6.043   4.793  1.2252 -2.7065  0.8054
12990TIP3    H260462   3.369   5.940   4.685 -1.2370 -0.7173 -0.5989
12991TIP3   OH260463   3.990   6.445  11.532  0.3155  0.7588  0.3457
12991TIP3    H160464   4.050   6.471  11.463 -1.6201  0.7118 -1.4317
12991TIP3    H260465   3.987   6.349  11.527 -0.8689  0.8245 -0.4559
12992TIP3   OH260466   6.080   5.989   3.692  0.5989  0.0766 -0.4196
12992TIP3    H160467   6.132   5.927   3.744 -0.8370 -1.6675 -0.9543
12992TIP3    H260468   6.107   5.972   3.602  0.6545  0.7124 -0.5261
12993TIP3   OH260469   0.791   4.159  14.499 -0.3810  0.3597 -0.5066
12993TIP3    H160470   0.732   4.090  14.529 -0.0818 -0.3654 -1.5291
12993TIP3    H260471   0.814   4.207  14.578  0.0440 -1.2225  0.3721
12994TIP3   OH260472   6.358   1.180  14.831  0.2508 -0.4100 -0.3842
12994TIP3    H160473   6.311   1.143  14.906 -0.4098 -3.2830 -2.0561
12994TIP3    H260474   6.448   1.148  14.841  0.0312 -1.2841 -1.0486
12995TIP3   OH260475   4.376   2.594   5.180 -0.2119  0.6763  0.4279
12995TIP3    H160476   4.393   2.589   5.275 -0.5126  1.4843  0.5290
12995TIP3    H260477   4.325   2.674   5.169 -1.6189 -0.2877 -0.2220
12996TIP3   OH260478   0.019   0.908  13.511 -0.3133 -0.4207 -0.8608
12996TIP3    H160479  -0.038   0.965  13.460 -0.1971 -0.7182 -1.3334
12996TIP3    H260480   0.104   0.914  13.469  0.4027  1.1221  0.6870
12997TIP3   OH260481   5.308   3.319  13.851 -0.2186  0.4229  0.2776
12997TIP3    H160482   5.327   3.375  13.776  0.2742  0.6072  0.5330
12997TIP3    H260483   5.234   3.265  13.823  0.8880 -0.5569 -0.9006
12998TIP3   OH260484   3.922   3.763   4.640  0.4872 -0.3664 -0.3067
12998TIP3    H160485   3.878   3.710   4.573 -0.6026 -0.9176  0.8097
12998TIP3    H260486   3.960   3.836   4.591  0.4627 -1.1989 -1.6394
12999TIP3   OH260487   6.386   4.836   3.082 -0.4608 -0.2872  0.1123
12999TIP3    H160488   6.389   4.891   3.161  2.3000  0.2707 -0.2885
12999TIP3    H260489   6.438   4.884   3.018  0.1175 -2.2966 -0.9844
13000TIP3   OH260490   2.374   5.372  12.469 -0.0434 -0.0084  0.7815
13000TIP3    H160491   2.408   5.317  12.540 -1.2447  0.4235  1.7315
13000TIP3    H260492   2.331   5.310  12.410 -0.6686 -0.1791  1.4083
13001TIP3   OH260493   4.333   0.584  16.328  0.1369 -0.7189  0.0292
13001TIP3    H160494   4.391   0.572  16.253 -0.1499 -0.3995 -0.2439
13001TIP3    H260495   4.246   0.562  16.296  0.0427 -0.7883  0.3246
13002TIP3   OH260496   1.842   1.510  16.702  0.4420  0.0861  0.2657
13002TIP3    H160497   1.826   1.580  16.766  0.3167 -0.1569  0.5038
13002TIP3    H260498   1.922   1.536  16.657  0.2335  0.5318  0.1476
13003TIP3   OH260499   3.949   3.597   0.058 -0.0661 -0.2933 -0.7281
13003TIP3    H160500   3.944   3.501   0.060 -1.0354 -0.2557  1.1598
13003TIP3    H260501   3.919   3.624   0.145 -1.5310  1.7959 -1.8046
13004TIP3   OH260502   5.094   6.077  17.028 -0.2693  0.7836 -0.0360
13004TIP3    H160503   5.156   6.022  17.076  0.9359  2.2135  0.1120
13004TIP3    H260504   5.068   6.023  16.953 -0.8556 -0.8204  1.2691
13005TIP3   OH260505   3.029   6.275  16.541  0.0131  0.3347 -0.0317
13005TIP3    H160506   3.074   6.348  16.583  0.3830  2.1690 -3.2739
13005TIP3    H260507   2.963   6.317  16.485  1.1226 -1.6202 -3.0659
13006TIP3   OH260508   4.497   1.069   1.909 -0.1918  0.1372  0.3280
13006TIP3    H160509   4.528   1.157   1.891 -0.8770  0.3469  0.1328
13006TIP3    H260510   4.576   1.015   1.911  0.1623  0.6262 -0.2772
13007TIP3   OH260511   6.678   4.572   3.306 -0.0459  0.7894 -0.4229
13007TIP3    H160512   6.671   4.527   3.222 -1.5999  2.1091 -1.0650
13007TIP3    H260513   6.717   4.507   3.365 -1.7114 -1.2279 -1.4030
13008TIP3   OH260514   3.080   5.054  16.115  0.3039 -0.2819  0.3867
13008TIP3    H160515   3.110   5.143  16.133 -1.0793  0.3974 -0.5090
13008TIP3    H260516   3.069   5.051  16.020 -0.3957 -1.1581  0.4772
13009TIP3   OH260517   4.564   2.964   4.312  0.4041  0.4202 -0.1879
13009TIP3    H160518   4.492   2.902   4.325  0.5850  0.0423 -0.9158
13009TIP3    H260519   4.638   2.910   4.285  0.3464  1.0124 -1.6272
13010TIP3   OH260520   5.674   1.091   4.625  0.2091 -0.4897 -0.0216
13010TIP3    H160521   5.651   1.156   4.691  0.4093 -0.5161  0.0760
13010TIP3    H260522   5.680   1.140   4.543  0.7894 -0.3021  0.1258
13011TIP3   OH260523   6.652   5.607  15.628  0.3853  0.0737  0.0350
13011TIP3    H160524   6.635   5.623  15.721  1.5960 -0.6891  0.4181
13011TIP3    H260525   6.651   5.512  15.619  2.4406  0.0304 -0.2468
13012TIP3   OH260526   1.997   3.246   3.392  0.3138  0.4426  0.5982
13012TIP3    H160527   1.920   3.268   3.340  0.2904 -1.3996 -0.2049
13012TIP3    H260528   2.055   3.199   3.332  0.7985 -0.7370  1.9190
13013TIP3   OH260529   3.153   6.539   0.985 -0.9327  0.4835 -0.1683
13013TIP3    H160530   3.131   6.460   1.034  0.5405  0.2514  0.1638
13013TIP3    H260531   3.109   6.610   1.032  1.1029  0.3841  2.0361
13014TIP3   OH260532   6.022   6.443   3.753 -0.2587  0.0325  0.5586
13014TIP3    H160533   6.034   6.359   3.797 -1.4189 -1.1578 -1.2443
13014TIP3    H260534   5.958   6.490   3.806 -1.7971 -1.4556  0.1113
13015TIP3   OH260535   1.184   5.812   2.073 -0.6381  0.5814 -0.2464
13015TIP3    H160536   1.174   5.883   2.009  0.5640  3.2304  2.2864
13015TIP3    H260537   1.099   5.805   2.114 -0.8219  0.3941 -0.6534
13016TIP3   OH260538   4.316   4.758   2.995 -0.4129  0.0767 -0.0949
13016TIP3    H160539   4.407   4.760   2.964 -0.2341  1.4637  0.4275
13016TIP3    H260540   4.271   4.700   2.934  0.4470  0.7988 -1.4625
13017TIP3   OH260541   2.571   3.437   5.485  0.1391 -0.0490 -0.3939
13017TIP3    H160542   2.557   3.525   5.520  1.7067 -0.2879  0.9616
13017TIP3    H260543   2.518   3.381   5.541  0.3510 -0.1251 -0.2694
13018TIP3   OH260544   2.484   3.071  13.005  0.6514  0.1327 -0.8451
13018TIP3    H160545   2.447   3.027  12.929 -0.0173 -0.0915 -0.4012
13018TIP3    H260546   2.465   3.164  12.991  0.6975  0.1130 -1.0395
13019TIP3   OH260547   2.237   3.636   1.852  0.2115 -0.0541 -0.0371
13019TIP3    H160548   2.203   3.712   1.900  1.1073  1.1368 -1.2282
13019TIP3    H260549   2.223   3.562   1.912  0.6269  1.2575  1.7598
13020TIP3   OH260550   6.759   2.182   4.408 -0.3659 -0.2057  0.3011
13020TIP3    H160551   6.710   2.109   4.446  0.8712 -2.0301 -1.4217
13020TIP3    H260552   6.849   2.151   4.402 -0.1554  0.6022 -2.3922
13021TIP3   OH260553   6.047   6.344  12.625 -0.4181 -0.0662  0.0975
13021TIP3    H160554   5.983   6.383  12.685 -0.1659  0.1776  0.2052
13021TIP3    H260555   6.054   6.253  12.654  0.7435  0.3863  1.3317
13022TIP3   OH260556   2.535   2.789  16.472  0.1269 -0.0891 -0.1627
13022TIP3    H160557   2.605   2.791  16.408  0.1517  1.2616 -0.1093
13022TIP3    H260558   2.576   2.753  16.551 -0.0213 -2.2262 -0.9836
13023TIP3   OH260559   1.378   5.497   5.987  0.0394 -0.1404 -0.8711
13023TIP3    H160560   1.359   5.521   6.078  0.1495 -1.6688 -0.4099
13023TIP3    H260561   1.379   5.580   5.940  1.1745  0.8262  0.7354
13024TIP3   OH260562   4.066   3.133   2.536 -0.0233 -0.0677  0.0577
13024TIP3    H160563   3.994   3.080   2.502 -0.8880  0.5157  0.9378
13024TIP3    H260564   4.033   3.170   2.618  0.4488  2.0120 -0.6075
13025TIP3   OH260565   2.484   1.454  13.522 -0.1910  0.1126  0.3240
13025TIP3    H160566   2.557   1.500  13.563 -0.3746  0.6373  0.0797
13025TIP3    H260567   2.436   1.523  13.476 -0.2184 -0.3926 -0.4286
13026TIP3   OH260568   6.067   4.786   2.654 -0.0850 -0.2189  0.2388
13026TIP3    H160569   6.146   4.794   2.708  0.3555 -1.1615 -0.2341
13026TIP3    H260570   6.099   4.797   2.564 -0.1942 -2.1624 -0.0808
13027TIP3   OH260571   3.953   4.971  14.334  0.1146  0.2547  0.2014
13027TIP3    H160572   3.997   4.995  14.415 -0.4486  0.6307  0.4052
13027TIP3    H260573   3.942   4.876  14.339  0.1605  0.2670  0.5219
13028TIP3   OH260574   1.178   3.221  15.842 -0.5463  0.3319  0.2403
13028TIP3    H160575   1.165   3.147  15.782  0.4610 -1.0165  1.5812
13028TIP3    H260576   1.089   3.252  15.861 -1.0013 -0.5807 -0.3189
13029TIP3   OH260577   3.536   5.900   5.826  0.6686  0.3100 -0.7391
13029TIP3    H160578   3.502   5.908   5.915  2.1351 -1.7407  0.0809
13029TIP3    H260579   3.486   5.828   5.787  2.0340 -0.8201 -0.4910
13030TIP3   OH260580   6.692   1.086   2.800 -0.8497  0.4040  0.5016
13030TIP3    H160581   6.709   1.076   2.707 -1.7933  0.0199  0.3677
13030TIP3    H260582   6.687   1.181   2.814 -2.0781  0.4295 -0.0895
13031TIP3   OH260583   2.997   0.083  12.699  0.0936  0.0115 -0.0661
13031TIP3    H160584   2.992   0.026  12.622 -0.1321 -0.8408  0.5636
13031TIP3    H260585   3.046   0.159  12.670  0.2506 -0.4300 -0.9773
13032TIP3   OH260586   1.263   2.306  13.897 -0.0496  0.1675 -0.3580
13032TIP3    H160587   1.209   2.379  13.866 -0.5181 -0.6184 -1.4743
13032TIP3    H260588   1.205   2.257  13.955 -0.7240 -0.8793 -1.8381
13033TIP3   OH260589   1.211   2.672   0.883  0.1293 -0.0929  0.0577
13033TIP3    H160590   1.235   2.692   0.973 -1.9063  1.5536  0.2987
13033TIP3    H260591   1.272   2.724   0.830  0.4347  0.0078  0.5046
13034TIP3   OH260592   1.484   5.196   2.687  0.3179 -0.3045 -0.1751
13034TIP3    H160593   1.441   5.277   2.658 -1.3817 -1.1355 -0.0777
13034TIP3    H260594   1.569   5.225   2.721 -0.8377  1.6455  1.2595
13035TIP3   OH260595   2.074   3.072  13.677  0.0121 -0.2912 -0.2435
13035TIP3    H160596   2.113   2.985  13.689  0.5563  0.0464  0.6024
13035TIP3    H260597   2.057   3.079  13.583 -2.4939 -2.3293 -0.0323
13036TIP3   OH260598   2.669   3.425   5.228  0.1550 -0.0932  0.5375
13036TIP3    H160599   2.707   3.337   5.236  1.0183  0.2903  0.7176
13036TIP3    H260600   2.621   3.438   5.310 -0.9300 -0.8303  0.0448
13037TIP3   OH260601   1.291   3.980   4.260  0.2765  0.7130  0.8966
13037TIP3    H160602   1.318   3.888   4.269 -0.0129  0.4737 -0.4545
13037TIP3    H260603   1.236   3.996   4.337  0.3861 -0.2213  1.1875
13038TIP3   OH260604   2.553   5.289   0.144  0.0695 -0.7247  0.2590
13038TIP3    H160605   2.622   5.227   0.119  0.4903 -0.2007  0.1102
13038TIP3    H260606   2.566   5.364   0.087  0.0674 -0.1632  0.9860
13039TIP3   OH260607   6.140   3.142   3.364 -0.6166 -0.0558  0.2855
13039TIP3    H160608   6.173   3.109   3.448  1.4348 -2.0569 -1.1831
13039TIP3    H260609   6.093   3.068   3.326  0.6014 -0.0255 -1.3651
13040TIP3   OH260610   3.469   0.717   3.459 -0.4462  0.0750 -0.3085
13040TIP3    H160611   3.448   0.747   3.548 -0.0445 -0.0184 -0.1807
13040TIP3    H260612   3.385   0.715   3.414 -0.6213  0.3540  0.0019
13041TIP3   OH260613   4.799   5.466  13.172  0.0624  0.4864  0.2581
13041TIP3    H160614   4.808   5.378  13.208  2.1759  1.1957  1.6682
13041TIP3    H260615   4.707   5.488  13.187 -0.1300 -0.8896  1.3699
13042TIP3   OH260616   5.906   0.387   5.980 -0.6217  0.4325  0.2784
13042TIP3    H160617   5.891   0.394   6.074 -1.6798 -0.3003  0.1754
13042TIP3    H260618   5.858   0.309   5.953  1.0427 -0.3336 -0.6014
13043TIP3   OH260619   0.966   5.476  16.673  0.5948 -0.2223 -0.5403
13043TIP3    H160620   0.984   5.389  16.639 -0.5385  0.3491 -2.8122
13043TIP3    H260621   0.874   5.472  16.700  0.6142  0.2021 -0.4085
13044TIP3   OH260622   3.320   4.430   0.966  0.4128  0.3656 -0.3089
13044TIP3    H160623   3.278   4.409   0.883 -1.0886  0.9850  0.2618
13044TIP3    H260624   3.375   4.506   0.947  1.2062 -0.3703 -1.0357
13045TIP3   OH260625   1.946   3.289  11.273  0.3580 -0.7488  0.2071
13045TIP3    H160626   1.917   3.199  11.257  0.2987 -0.6630 -0.1723
13045TIP3    H260627   1.986   3.316  11.190 -0.1815 -0.2112  0.1130
13046TIP3   OH260628   1.104   2.502  11.576  0.0880  0.6878 -0.3868
13046TIP3    H160629   1.122   2.595  11.567  1.0330  0.5990  0.3601
13046TIP3    H260630   1.088   2.489  11.670  0.1685  0.0708 -0.4504
13047TIP3   OH260631   3.019   2.090  16.459 -0.2814 -0.1907 -0.5523
13047TIP3    H160632   2.984   2.169  16.499  0.0152 -0.5496  0.4365
13047TIP3    H260633   2.943   2.050  16.416 -0.6502  0.1041 -0.1849
13048TIP3   OH260634   6.276   3.290  12.010  0.2236  0.4010  0.3829
13048TIP3    H160635   6.260   3.207  12.055 -3.4368 -0.6302 -2.3446
13048TIP3    H260636   6.362   3.279  11.969  0.8410 -1.0311  1.9454
13049TIP3   OH260637   3.135   2.871  10.856  0.4374 -0.3473 -0.2188
13049TIP3    H160638   3.101   2.808  10.792 -0.7374  0.6480 -0.6166
13049TIP3    H260639   3.230   2.861  10.851  0.3578 -0.5175 -1.8986
13050TIP3   OH260640   0.681   5.208  16.980  0.2733 -0.1671 -0.4084
13050TIP3    H160641   0.604   5.251  16.944  0.1583  1.2711  1.4160
13050TIP3    H260642   0.650   5.123  17.010 -1.1094  1.0748  1.9567
13051TIP3   OH260643   4.567   3.876  14.716 -1.3196  0.4265  0.4956
13051TIP3    H160644   4.627   3.801  14.719 -0.4238  1.1503  2.2185
13051TIP3    H260645   4.500   3.855  14.781 -2.0793  0.3338 -0.3019
13052TIP3   OH260646   4.540   6.374   1.826  0.8176  0.5138  0.1394
13052TIP3    H160647   4.559   6.280   1.818  0.2774  0.5221 -1.7783
13052TIP3    H260648   4.481   6.380   1.901  1.5735 -0.5450  0.8650
13053TIP3   OH260649   0.708   6.720   2.632  0.2472  0.7358 -0.2494
13053TIP3    H160650   0.624   6.689   2.667  1.0814 -1.9029 -0.3223
13053TIP3    H260651   0.686   6.761   2.548 -1.0299  0.7810  0.0882
13054TIP3   OH260652   1.745   5.596   3.843 -0.0342 -0.3151  0.1809
13054TIP3    H160653   1.676   5.555   3.789  1.3729 -2.1418 -0.3452
13054TIP3    H260654   1.734   5.690   3.828 -1.5569 -0.6231 -0.9492
13055TIP3   OH260655   3.159   6.248   1.417 -0.1210  0.2066 -0.4644
13055TIP3    H160656   3.253   6.246   1.433 -0.3362 -0.2414  0.9556
13055TIP3    H260657   3.149   6.289   1.331  1.5143 -2.2350 -1.9287
13056TIP3   OH260658   1.477   5.600   4.194 -0.2446 -0.0109 -0.0502
13056TIP3    H160659   1.514   5.535   4.135 -1.4559  0.9151 -1.9214
13056TIP3    H260660   1.518   5.582   4.279  0.1707 -2.5559 -0.7214
13057TIP3   OH260661   3.469   0.966  16.681  0.1900 -0.6223 -0.0891
13057TIP3    H160662   3.529   0.892  16.697 -1.7272 -1.8008  2.2959
13057TIP3    H260663   3.443   0.956  16.590 -0.2126 -3.1290  0.2211
13058TIP3   OH260664   2.867   4.157  13.238  0.1427  0.5851  0.4180
13058TIP3    H160665   2.940   4.108  13.199 -0.0191  1.1359 -0.6068
13058TIP3    H260666   2.901   4.187  13.322  0.2702 -1.2080  1.0587
13059TIP3   OH260667   3.591   4.548   0.743 -0.3976 -0.2042 -0.5058
13059TIP3    H160668   3.510   4.576   0.787  0.1295 -1.8735  1.6881
13059TIP3    H260669   3.603   4.613   0.674 -2.7874  0.9812  0.0521
13060TIP3   OH260670   6.794   4.971  13.498 -0.0545  0.1648 -0.2610
13060TIP3    H160671   6.728   4.966  13.567  1.7400  1.7388  1.6805
13060TIP3    H260672   6.753   4.927  13.423 -1.7929 -2.3847  1.9763
13061TIP3   OH260673   4.813   0.129   3.024 -0.0546 -0.0446  0.2675
13061TIP3    H160674   4.862   0.153   3.102  1.3285  0.5391 -0.7360
13061TIP3    H260675   4.830   0.199   2.961 -0.4620 -0.8919 -0.8461
13062TIP3   OH260676   5.204   3.792   1.275  0.0363  0.2607 -0.1919
13062TIP3    H160677   5.297   3.781   1.297  0.0091  0.5307  0.0708
13062TIP3    H260678   5.175   3.705   1.248  0.8493  0.5311 -2.1556
13063TIP3   OH260679   3.373   3.052  13.129 -0.1885 -0.2954  0.3595
13063TIP3    H160680   3.340   3.011  13.049  0.0883 -0.4406  0.3195
13063TIP3    H260681   3.466   3.030  13.131  0.3829  1.7979 -0.5896
13064TIP3   OH260682   4.751   6.463   6.157 -0.1278 -0.1078  0.4129
13064TIP3    H160683   4.747   6.537   6.097 -1.2608 -0.2958  0.2485
13064TIP3    H260684   4.694   6.397   6.118 -0.8651 -0.2398  1.6701
13065TIP3   OH260685   3.681   3.168  10.820  0.0243 -0.2190  0.0565
13065TIP3    H160686   3.663   3.098  10.883  0.7425 -0.0389  0.4768
13065TIP3    H260687   3.737   3.127  10.754  1.3503  0.1848  0.8670
13066TIP3   OH260688   0.697   6.560   0.547 -0.2880  0.5118 -0.2120
13066TIP3    H160689   0.771   6.588   0.493  0.2106  0.5580  0.4803
13066TIP3    H260690   0.711   6.604   0.631 -1.8420  1.6304 -0.4829
13067TIP3   OH260691   2.533   6.748   4.776 -0.0402  0.4281  0.1748
13067TIP3    H160692   2.579   6.769   4.694  1.3373 -2.0756  0.1956
13067TIP3    H260693   2.441   6.770   4.758  0.3548  0.7360 -1.7513
13068TIP3   OH260694   0.115   6.629   4.609  0.0782  0.0900  0.0504
13068TIP3    H160695   0.142   6.696   4.672 -1.4584  1.2757 -0.4893
13068TIP3    H260696   0.086   6.678   4.532 -1.8335 -1.1210 -0.0683
13069TIP3   OH260697   0.884   1.966   4.032  0.1074 -0.2436 -0.9083
13069TIP3    H160698   0.914   2.044   4.078  0.4605 -1.3221  0.7746
13069TIP3    H260699   0.843   1.999   3.952 -0.7924  1.7267  0.3065
13070TIP3   OH260700   3.534   4.903   2.854 -0.0733  0.0181 -0.0212
13070TIP3    H160701   3.605   4.939   2.907  0.1994 -1.0812  0.3894
13070TIP3    H260702   3.480   4.979   2.831  1.2887  0.8902 -0.4506
13071TIP3   OH260703   5.970   3.848  15.237  0.2839 -0.0911 -0.0176
13071TIP3    H160704   6.015   3.775  15.195 -0.8544 -0.9683  0.2287
13071TIP3    H260705   6.018   3.864  15.318  1.4535  0.4691 -0.8003
13072TIP3   OH260706   4.936   0.447  14.986 -0.0707 -0.7226 -0.2501
13072TIP3    H160707   4.939   0.523  15.043 -0.1982 -1.3346  0.5856
13072TIP3    H260708   5.024   0.408  14.993 -0.7892 -2.1817  1.4792
13073TIP3   OH260709   2.672   6.167  11.589 -0.0921 -0.1672 -0.5089
13073TIP3    H160710   2.699   6.204  11.505 -0.9389 -0.9318 -1.1354
13073TIP3    H260711   2.579   6.145  11.577 -0.4488  0.4493  0.8943
13074TIP3   OH260712   2.524   2.774  12.078 -0.6275  0.3188  0.2073
13074TIP3    H160713   2.612   2.745  12.055 -0.7242 -0.4973  0.8353
13074TIP3    H260714   2.503   2.727  12.158 -1.1511  1.4649  0.7577
13075TIP3   OH260715   3.578   3.270   1.332 -0.1285  0.1891  0.5679
13075TIP3    H160716   3.651   3.299   1.387  0.6839  0.2848 -0.5132
13075TIP3    H260717   3.618   3.209   1.270 -0.8322  0.7210 -0.4492
13076TIP3   OH260718   5.355   4.218  12.329  0.0796  0.0957  0.0613
13076TIP3    H160719   5.307   4.245  12.407  0.4897 -1.6209  0.9460
13076TIP3    H260720   5.401   4.297  12.301 -0.6429  0.9222  1.1186
13077TIP3   OH260721   1.057   2.562  12.806 -0.8618 -0.1738 -0.2889
13077TIP3    H160722   1.101   2.630  12.856 -0.1948 -0.2602 -0.7481
13077TIP3    H260723   0.964   2.577  12.822 -0.6589 -0.7043  1.6492
13078TIP3   OH260724   5.437   1.218   2.108  0.1403  1.1212 -0.3797
13078TIP3    H160725   5.428   1.213   2.012 -1.6973 -1.1973 -0.1944
13078TIP3    H260726   5.383   1.293   2.133 -1.7934  0.0180 -1.0150
13079TIP3   OH260727   4.783   2.235   4.169 -0.0282  0.0784  0.1692
13079TIP3    H160728   4.749   2.317   4.206  0.4350  1.1253 -1.6218
13079TIP3    H260729   4.848   2.206   4.234 -1.6348 -0.0041  1.8221
13080TIP3   OH260730   4.733   6.218  14.127  0.1872  0.0702 -0.5224
13080TIP3    H160731   4.735   6.278  14.202 -1.3529 -1.6607  1.0316
13080TIP3    H260732   4.794   6.148  14.151  0.2619 -0.1239 -1.2547
13081TIP3   OH260733   3.878   4.845  15.791  0.1541  0.3961 -0.0549
13081TIP3    H160734   3.788   4.869  15.771 -0.1189 -0.8140 -0.3346
13081TIP3    H260735   3.930   4.916  15.755 -0.5927  0.3252 -1.3257
13082TIP3   OH260736   4.833   1.781  14.967  0.0593  0.3426 -0.3489
13082TIP3    H160737   4.882   1.737  14.898 -0.8970 -0.4206 -0.5611
13082TIP3    H260738   4.751   1.806  14.925 -0.5658 -0.2036  0.5173
13083TIP3   OH260739   3.102   3.919  14.978  0.4794 -0.3518  0.1426
13083TIP3    H160740   3.075   3.858  14.909 -2.6566  1.5629 -0.5180
13083TIP3    H260741   3.184   3.957  14.946 -1.2446  1.0703 -3.0919
13084TIP3   OH260742   5.212   1.942  15.594  0.2573  0.1953  0.1395
13084TIP3    H160743   5.230   2.008  15.527  2.1099  1.5890  1.8591
13084TIP3    H260744   5.298   1.914  15.625 -0.4784 -2.5726 -0.0065
13085TIP3   OH260745   3.512   0.007   5.795 -0.4146  0.1157  0.5943
13085TIP3    H160746   3.444   0.071   5.816 -0.0878  0.3224  1.0291
13085TIP3    H260747   3.569   0.005   5.872 -0.8404 -1.2460  0.9176
13086TIP3   OH260748   4.845   3.160   4.290  0.6120  0.3982 -1.0801
13086TIP3    H160749   4.797   3.124   4.215 -0.8191  0.6642 -0.3273
13086TIP3    H260750   4.801   3.124   4.367 -0.8562  3.5612 -0.2633
13087TIP3   OH260751   5.468   5.647   6.339 -0.0356 -0.4137 -0.1975
13087TIP3    H160752   5.419   5.722   6.305  0.8842 -1.0294 -3.1405
13087TIP3    H260753   5.536   5.686   6.394 -0.0700  0.8568 -1.0055
13088TIP3   OH260754   2.035   6.454  15.658 -0.1343  0.1666  0.4102
13088TIP3    H160755   2.026   6.459  15.562 -2.0562 -0.0075  0.5358
13088TIP3    H260756   2.098   6.522  15.680  1.5487 -0.8160 -1.0987
13089TIP3   OH260757   2.614   4.772   1.876  0.8118 -0.1065  0.6856
13089TIP3    H160758   2.548   4.828   1.917  0.2265 -1.0603  1.0893
13089TIP3    H260759   2.624   4.808   1.788 -1.5427 -0.9532 -0.0061
13090TIP3   OH260760   6.526   0.525  16.068  0.2167 -0.1698  0.2398
13090TIP3    H160761   6.557   0.468  15.998 -1.7108  0.0994 -0.9055
13090TIP3    H260762   6.499   0.605  16.024 -1.9115 -0.3286  1.1124
13091TIP3   OH260763   3.988   2.561   2.830 -0.1402 -0.2241 -0.3650
13091TIP3    H160764   3.911   2.535   2.780 -0.0435  1.1629 -1.2937
13091TIP3    H260765   3.971   2.528   2.919 -0.9033 -1.6078 -0.9834
13092TIP3   OH260766   5.197   0.931  10.854 -0.6780 -0.3244  0.0831
13092TIP3    H160767   5.152   0.855  10.817  0.3244  0.0716 -2.0946
13092TIP3    H260768   5.144   1.006  10.824 -1.4174 -0.0861  1.8543
13093TIP3   OH260769   2.709   6.096   0.084 -0.1218  0.4084 -0.3890
13093TIP3    H160770   2.721   6.007   0.050 -0.4508  0.4364 -0.5828
13093TIP3    H260771   2.787   6.112   0.137 -0.4769 -0.3285  0.3747
13094TIP3   OH260772   2.550   3.732  16.818 -0.0559  0.1047 -0.0300
13094TIP3    H160773   2.479   3.782  16.779 -1.4215  0.4860  2.6813
13094TIP3    H260774   2.525   3.640  16.806 -1.7248  0.2312  1.8891
13095TIP3   OH260775   0.234   1.671   2.633  0.3178 -0.0184  0.1667
13095TIP3    H160776   0.152   1.706   2.669 -0.2890 -2.0846  0.9620
13095TIP3    H260777   0.262   1.736   2.569 -1.2650  1.3643  0.7962
13096TIP3   OH260778   5.911   4.920   5.370 -0.4703  0.3512  0.6777
13096TIP3    H160779   5.818   4.926   5.349 -0.5065  0.0627  0.7497
13096TIP3    H260780   5.946   4.861   5.303 -0.5357 -0.3693  1.2662
13097TIP3   OH260781   6.149   6.622  15.447  0.3136 -0.1483 -0.0522
13097TIP3    H160782   6.175   6.530  15.450  1.8518  0.2435 -0.7020
13097TIP3    H260783   6.088   6.632  15.521  0.1271 -1.6664  0.0307
13098TIP3   OH260784   4.392   6.520  10.916 -0.0591 -0.1963 -0.5041
13098TIP3    H160785   4.301   6.495  10.899 -0.6552  0.7502  1.0988
13098TIP3    H260786   4.396   6.534  11.011  1.1963  1.9424 -0.8043
13099TIP3   OH260787   2.915   2.441   6.866  0.1095  0.2543  0.3307
13099TIP3    H160788   2.929   2.346   6.873 -0.2986  0.1902  0.3064
13099TIP3    H260789   2.864   2.452   6.786  1.4563  0.6409 -0.4975
13100TIP3   OH260790   5.291   3.551  14.010  0.3958 -0.1984  0.0501
13100TIP3    H160791   5.243   3.608  13.950  0.3942 -0.6219 -0.3553
13100TIP3    H260792   5.289   3.465  13.968  1.4051 -0.2447  0.0880
13101TIP3   OH260793   2.220   2.949   5.335 -0.2593 -0.5313  0.0943
13101TIP3    H160794   2.214   3.039   5.367  0.7143  0.8409 -3.1765
13101TIP3    H260795   2.129   2.921   5.324 -0.6663  1.2411 -1.6301
13102TIP3   OH260796   3.976   1.124  14.893  0.3886  0.8268  0.1506
13102TIP3    H160797   3.883   1.139  14.873  0.8985  1.7880 -1.6799
13102TIP3    H260798   3.974   1.068  14.970 -1.7117  2.1564  1.1816
13103TIP3   OH260799   6.192   0.800  15.492 -0.1656 -0.2023  0.0438
13103TIP3    H160800   6.140   0.856  15.551 -0.3737  0.6304 -0.8990
13103TIP3    H260801   6.182   0.841  15.406 -3.5421 -3.7576 -1.5734
13104TIP3   OH260802   1.924   3.275  14.355 -1.3493 -0.0342 -0.5733
13104TIP3    H160803   1.923   3.179  14.363  1.1962 -0.0042  1.6975
13104TIP3    H260804   1.893   3.306  14.440  1.8921  0.9796  0.3884
13105TIP3   OH260805   3.389   3.393  14.800  0.4566  0.7818 -0.6049
13105TIP3    H160806   3.447   3.442  14.858 -0.5519  1.0310  0.2427
13105TIP3    H260807   3.422   3.410  14.712  2.2404  0.1007 -0.0991
13106TIP3   OH260808   5.291   2.387   5.323 -0.0179 -0.6721  0.1910
13106TIP3    H160809   5.253   2.417   5.241  1.3066 -1.6840 -0.8316
13106TIP3    H260810   5.256   2.299   5.335  1.0756 -1.1889 -0.2028
13107TIP3   OH260811   5.408   2.034   2.087 -0.1460  0.5689  0.0199
13107TIP3    H160812   5.348   2.093   2.042  0.6177  1.0200 -0.4040
13107TIP3    H260813   5.412   1.957   2.030 -1.1611  0.0691  0.5857
13108TIP3   OH260814   4.921   4.029   5.529 -0.8141  0.0339 -0.0822
13108TIP3    H160815   4.911   4.059   5.439 -0.0279 -0.5795 -0.3865
13108TIP3    H260816   4.886   3.940   5.528 -0.1441 -0.2388  0.0363
13109TIP3   OH260817   3.727   5.362   0.646 -0.1689  0.0777  0.2242
13109TIP3    H160818   3.811   5.316   0.644  1.1360  2.3134 -2.3948
13109TIP3    H260819   3.744   5.441   0.696 -1.0535  0.0550  0.5790
13110TIP3   OH260820   5.232   0.478  15.057  0.1930  0.0649 -0.0787
13110TIP3    H160821   5.304   0.483  14.995  1.6460 -0.6354  1.4544
13110TIP3    H260822   5.232   0.563  15.102  0.5106 -0.1662  0.3689
13111TIP3   OH260823   2.362   1.659   4.665 -0.0257 -0.2144 -0.2482
13111TIP3    H160824   2.286   1.703   4.702 -0.1570 -0.7209  0.0989
13111TIP3    H260825   2.325   1.590   4.610  0.1650  0.6009 -1.4248
13112TIP3   OH260826   1.899   2.180  13.265 -0.4532  0.0050  0.1355
13112TIP3    H160827   1.941   2.251  13.218  0.2577 -0.0499  0.6742
13112TIP3    H260828   1.898   2.107  13.203  0.7560 -0.1661  0.2898
13113TIP3   OH260829   2.577   6.714   3.503 -0.1639  0.5121  0.0364
13113TIP3    H160830   2.562   6.650   3.434  0.2602 -2.1652  2.2219
13113TIP3    H260831   2.497   6.767   3.505  0.0936  1.1335 -2.8409
13114TIP3   OH260832   2.742   5.808  16.212  0.4773  0.9058  0.5653
13114TIP3    H160833   2.817   5.765  16.253  1.2817  1.8288  0.0812
13114TIP3    H260834   2.678   5.738  16.200  0.9350  0.2615  1.7135
13115TIP3   OH260835   1.365   4.089   5.359  0.2370  0.2146  0.0580
13115TIP3    H160836   1.317   4.171   5.375 -1.2654 -0.7106  0.5383
13115TIP3    H260837   1.389   4.093   5.266 -1.9221  0.1856 -0.5613
13116TIP3   OH260838   3.760   3.221  14.909  0.8796 -0.5549  0.1352
13116TIP3    H160839   3.665   3.234  14.903  1.1384  2.6861  1.4271
13116TIP3    H260840   3.780   3.159  14.838 -2.1237 -1.0960 -0.3627
13117TIP3   OH260841   2.325   2.481   2.637  0.1320  0.0249  0.0508
13117TIP3    H160842   2.380   2.441   2.705  0.1834  0.0344  0.0150
13117TIP3    H260843   2.318   2.414   2.570  1.5147  0.6228 -0.7280
13118TIP3   OH260844   1.530   4.860  12.681  0.3583  0.5482  0.4541
13118TIP3    H160845   1.554   4.769  12.695  0.7465  0.8693  2.1120
13118TIP3    H260846   1.613   4.904  12.660  0.0681  0.4215 -1.0690
13119TIP3   OH260847   2.573   1.035  13.625  0.0594 -0.6491 -0.0927
13119TIP3    H160848   2.545   1.036  13.717  0.9594 -1.5983  0.2154
13119TIP3    H260849   2.564   0.944  13.598 -2.2292 -0.0470 -1.6470
13120TIP3   OH260850   3.490   6.783   5.481 -0.0786 -0.5563  0.2934
13120TIP3    H160851   3.547   6.860   5.474 -1.7375  0.6107 -1.2991
13120TIP3    H260852   3.444   6.796   5.564  1.3916 -1.1697  1.2633
13121TIP3   OH260853   0.105   0.964   2.476  0.6160  0.1513  0.3483
13121TIP3    H160854   0.085   0.870   2.482  0.7723  0.0906 -0.0849
13121TIP3    H260855   0.113   0.981   2.382 -0.4518  0.8160  0.3601
13122TIP3   OH260856   2.413   2.545   6.131  0.5011  0.0513 -0.1314
13122TIP3    H160857   2.353   2.492   6.079  0.5219 -0.8479  0.7375
13122TIP3    H260858   2.358   2.612   6.171  0.0091 -0.9005  0.8415
13123TIP3   OH260859   4.133   1.102  13.949  0.0516  0.0495 -0.1030
13123TIP3    H160860   4.210   1.157  13.932  0.7400 -1.3752 -1.7741
13123TIP3    H260861   4.081   1.107  13.869 -0.2790 -1.0741  0.0252
13124TIP3   OH260862   2.641   1.251  14.611 -0.2882  0.0203  0.4539
13124TIP3    H160863   2.713   1.222  14.556 -2.1675 -0.5361 -1.8911
13124TIP3    H260864   2.639   1.188  14.683  1.2136 -0.2445  0.2918
13125TIP3   OH260865   0.674   0.796  12.869  0.0105  0.2756 -0.5403
13125TIP3    H160866   0.735   0.829  12.802  0.8459 -1.4060 -0.6517
13125TIP3    H260867   0.719   0.813  12.952 -0.3158  0.9127 -0.4868
13126TIP3   OH260868   0.295   0.541   4.951  0.3798 -0.2047 -0.3039
13126TIP3    H160869   0.377   0.495   4.931 -0.2970 -1.0115 -1.3162
13126TIP3    H260870   0.294   0.614   4.890 -0.2912 -0.9945 -1.2780
13127TIP3   OH260871   2.785   3.802   0.595  0.1140 -0.6129 -0.1915
13127TIP3    H160872   2.702   3.757   0.579  0.2922 -1.9538  2.1659
13127TIP3    H260873   2.840   3.779   0.521 -0.9546 -1.4041 -0.7689
13128TIP3   OH260874   2.799   5.584   0.161  0.2603  0.3575  0.1107
13128TIP3    H160875   2.847   5.562   0.241 -1.4386 -2.1976  0.5219
13128TIP3    H260876   2.849   5.543   0.091 -0.8250 -1.6918  0.4647
13129TIP3   OH260877   0.451   5.100  12.269 -0.0102 -0.2683  0.0621
13129TIP3    H160878   0.451   5.151  12.350  0.0381 -1.2405  0.6900
13129TIP3    H260879   0.505   5.152  12.209  0.4967  0.1525  0.8540
13130TIP3   OH260880   4.311   5.241   1.262 -0.1664 -0.6573  0.5685
13130TIP3    H160881   4.224   5.211   1.237 -0.0393  0.4630 -1.3722
13130TIP3    H260882   4.313   5.333   1.238  0.5604  0.1683  3.3834
13131TIP3   OH260883   6.703   1.497  15.565  0.1260 -0.1813 -0.1828
13131TIP3    H160884   6.799   1.495  15.559  0.4368 -3.8401  2.4305
13131TIP3    H260885   6.684   1.579  15.611  2.2625 -0.4167  1.2740
13132TIP3   OH260886   6.400   4.921  16.022  0.7432 -0.5729 -0.2706
13132TIP3    H160887   6.446   4.926  16.105  0.6446 -0.4479 -0.2234
13132TIP3    H260888   6.430   4.839  15.983  1.2520 -0.3376 -0.3844
13133TIP3   OH260889   3.733   3.758  14.703  0.1567 -0.3363  0.0746
13133TIP3    H160890   3.669   3.737  14.634  0.3096 -1.5468  0.2823
13133TIP3    H260891   3.744   3.853  14.697  0.6997 -0.4838 -2.0449
13134TIP3   OH260892   3.876   5.133   1.550  0.3081  0.7613 -0.5324
13134TIP3    H160893   3.945   5.080   1.591  0.5914  0.0521 -1.8590
13134TIP3    H260894   3.795   5.098   1.586  0.4906 -0.5700 -1.3295
13135TIP3   OH260895   1.596   2.358  17.406 -0.4400  0.0801 -0.8895
13135TIP3    H160896   1.663   2.386  17.343 -0.0953 -0.7260 -0.8983
13135TIP3    H260897   1.538   2.434  17.415  0.6868  0.9278 -0.5932
13136TIP3   OH260898   2.640   6.507   2.357 -0.5849  0.0523 -0.0518
13136TIP3    H160899   2.577   6.528   2.426 -1.4748  1.4955 -1.2425
13136TIP3    H260900   2.609   6.556   2.281  0.5110 -1.2877 -1.4206
13137TIP3   OH260901   2.936   6.507  11.257  0.2913  0.7301 -0.1911
13137TIP3    H160902   2.877   6.507  11.181  0.2985  2.7757 -0.2480
13137TIP3    H260903   2.916   6.425  11.303 -0.6932  0.1174 -1.6414
13138TIP3   OH260904   5.552   4.123   3.431  0.3119 -0.3214 -0.2418
13138TIP3    H160905   5.487   4.187   3.459  1.2948  1.0888 -1.0511
13138TIP3    H260906   5.529   4.043   3.479 -0.1308  1.0061  1.8970
13139TIP3   OH260907   4.819   3.796  15.495 -0.3244  0.4865  0.3386
13139TIP3    H160908   4.824   3.810  15.400 -0.4467 -0.9224  0.1148
13139TIP3    H260909   4.820   3.885  15.531 -0.8794  1.0775 -1.0033
13140TIP3   OH260910   5.467   6.734   4.419 -0.2540 -0.1239  0.0855
13140TIP3    H160911   5.453   6.641   4.436  1.4377 -0.2257  1.2039
13140TIP3    H260912   5.554   6.751   4.454 -1.2807  2.3132  1.7281
13141TIP3   OH260913   1.955   2.911   5.299 -0.0023  0.2416  0.1121
13141TIP3    H160914   1.919   2.971   5.365  1.8236  1.0582  0.4335
13141TIP3    H260915   1.917   2.826   5.321 -2.4840  1.1690 -0.2109
13142TIP3   OH260916   0.652   3.080  11.697  0.3925 -0.1289 -0.2970
13142TIP3    H160917   0.708   3.024  11.643  0.2092 -1.2994  0.6724
13142TIP3    H260918   0.599   3.128  11.634 -0.5638 -2.2250 -1.2115
13143TIP3   OH260919   2.508   3.358   1.448  0.1280 -0.2145  0.1588
13143TIP3    H160920   2.496   3.406   1.530 -0.9800 -0.7155  0.3063
13143TIP3    H260921   2.435   3.386   1.393  0.1602 -0.8221 -0.1979
13144TIP3   OH260922   3.779   1.650   4.305  0.0257 -0.0762 -0.5964
13144TIP3    H160923   3.841   1.691   4.245  0.3593 -0.2680 -0.3831
13144TIP3    H260924   3.788   1.556   4.288  0.1553 -0.1330 -0.2064
13145TIP3   OH260925   2.500   2.646   4.187 -0.2260 -0.0447 -0.1780
13145TIP3    H160926   2.474   2.600   4.267  2.0130 -0.8949  0.1524
13145TIP3    H260927   2.562   2.713   4.216  2.4741 -1.8628 -1.2696
13146TIP3   OH260928   1.373   2.115   4.307 -0.4367 -0.3880  0.5233
13146TIP3    H160929   1.399   2.027   4.334 -2.9379 -1.0468  0.9527
13146TIP3    H260930   1.363   2.110   4.212 -2.1048 -1.0490  0.7035
13147TIP3   OH260931   4.488   3.934   2.520 -0.2480  0.2488 -0.0897
13147TIP3    H160932   4.407   3.882   2.519  0.7200 -1.3864  0.8751
13147TIP3    H260933   4.492   3.970   2.609  0.7940 -0.9607  0.3960
13148TIP3   OH260934   5.717   1.129   5.490 -0.1307  0.3785 -0.1635
13148TIP3    H160935   5.667   1.187   5.433  0.8800  1.1199 -0.3270
13148TIP3    H260936   5.699   1.161   5.578  0.8543  1.3280 -0.2837
13149TIP3   OH260937   6.045   3.845   5.181  0.9006 -0.1933  0.2550
13149TIP3    H160938   6.035   3.937   5.155  1.6745  0.3054  1.6426
13149TIP3    H260939   5.956   3.816   5.199  0.7052  0.4621  0.3904
13150TIP3   OH260940   0.292   0.429   4.325  0.0753  0.0745 -0.1309
13150TIP3    H160941   0.241   0.486   4.383 -0.7436 -2.4765  1.8483
13150TIP3    H260942   0.226   0.390   4.267  0.5197  0.5194 -0.9482
13151TIP3   OH260943   4.204   4.815  10.572 -0.7325  0.0505 -0.6598
13151TIP3    H160944   4.141   4.884  10.594  0.1245  1.0567 -1.2209
13151TIP3    H260945   4.289   4.850  10.601 -0.6066 -2.1075  1.9090
13152TIP3   OH260946   6.132   5.211  12.548  0.5336 -0.5913  0.3344
13152TIP3    H160947   6.146   5.273  12.620 -2.2567  1.7993 -0.9740
13152TIP3    H260948   6.116   5.267  12.472 -1.3726 -2.9498 -1.1031
13153TIP3   OH260949   6.379   6.061   4.939 -0.2164  0.2622 -0.0069
13153TIP3    H160950   6.451   6.026   4.991  1.1338  0.1548 -1.8563
13153TIP3    H260951   6.306   6.001   4.956  1.6280 -2.8194 -1.9904
13154TIP3   OH260952   1.304   1.456   1.841  0.3513  0.2572 -0.1144
13154TIP3    H160953   1.395   1.485   1.833  0.0875  1.2060  0.1892
13154TIP3    H260954   1.306   1.392   1.913  0.8148  0.0757 -0.2824
13155TIP3   OH260955   6.323   6.329  14.238 -0.4765  0.9736  0.0958
13155TIP3    H160956   6.329   6.246  14.191  0.2261  1.3031 -0.4184
13155TIP3    H260957   6.378   6.316  14.316 -2.5299  0.0424  1.4644
13156TIP3   OH260958   1.924   6.750   2.916 -0.0766 -0.0955 -0.0071
13156TIP3    H160959   1.923   6.837   2.956 -1.8118  0.2771 -0.7330
13156TIP3    H260960   1.951   6.691   2.986  1.0213  1.0036  0.5334
13157TIP3   OH260961   3.159   5.294   4.693  0.0510  0.3774 -0.3812
13157TIP3    H160962   3.215   5.345   4.634 -0.4957  0.8906 -0.4593
13157TIP3    H260963   3.158   5.344   4.774  1.1689 -0.5570  0.2386
13158TIP3   OH260964   5.573   1.928  16.454 -0.5520 -0.1115 -0.1012
13158TIP3    H160965   5.568   1.876  16.535 -0.9779 -2.3103 -1.4405
13158TIP3    H260966   5.485   1.964  16.444 -0.7940 -0.6949 -0.1066
13159TIP3   OH260967   2.654   0.152  14.914  0.0920 -0.0566 -0.3912
13159TIP3    H160968   2.658   0.247  14.901 -0.4792  0.0490  0.1250
13159TIP3    H260969   2.696   0.138  14.999  0.4835 -0.3047 -0.6258
13160TIP3   OH260970   4.377   3.738   5.458 -0.4481  0.2561 -0.2264
13160TIP3    H160971   4.377   3.697   5.545  3.2154  0.0506 -0.1281
13160TIP3    H260972   4.327   3.678   5.403 -1.6634 -0.3417  1.4506
13161TIP3   OH260973   4.293   5.171   2.941 -0.5144  0.1117  0.4808
13161TIP3    H160974   4.236   5.239   2.905 -0.1396 -0.6523 -1.6440
13161TIP3    H260975   4.234   5.105   2.976 -0.8928  0.4241  0.4309
13162TIP3   OH260976   1.627   0.724  17.065 -0.4999 -0.2274 -0.0706
13162TIP3    H160977   1.692   0.794  17.075  2.7221 -3.1574  1.4294
13162TIP3    H260978   1.614   0.717  16.970  1.2419  0.6047 -0.4012
13163TIP3   OH260979   1.989   4.866   5.571 -0.4831  0.7895 -0.6196
13163TIP3    H160980   2.030   4.801   5.514  0.7695  0.8848  0.1453
13163TIP3    H260981   1.918   4.818   5.615  0.9774 -0.3321  0.5985
13164TIP3   OH260982   4.518   6.595   0.316 -0.0599 -0.3153  0.8390
13164TIP3    H160983   4.558   6.623   0.234  1.0872 -0.5557  1.2852
13164TIP3    H260984   4.474   6.513   0.295 -0.4624  0.0395  0.2926
13165TIP3   OH260985   2.024   2.411  13.182  0.1605  0.0581  0.1996
13165TIP3    H160986   2.074   2.383  13.259  1.1407  0.6192 -0.2188
13165TIP3    H260987   1.990   2.497  13.206 -0.1335 -0.0753  0.2664
13166TIP3   OH260988   0.434   1.119   1.044 -0.0305 -0.1784  0.3806
13166TIP3    H160989   0.360   1.080   0.998  0.3962 -0.1904 -0.2998
13166TIP3    H260990   0.462   1.051   1.106 -0.3929 -0.2871  0.4254
13167TIP3   OH260991   4.647   0.103  13.417  0.5261 -0.3165 -0.0646
13167TIP3    H160992   4.691   0.066  13.493  2.2718  1.4954 -0.1004
13167TIP3    H260993   4.678   0.051  13.343  1.9472  0.3433  0.0311
13168TIP3   OH260994   4.005   2.953  12.564 -0.6101 -0.0329 -0.0064
13168TIP3    H160995   3.958   2.897  12.503 -1.1430  0.1723  0.2110
13168TIP3    H260996   3.937   3.002  12.609 -0.1320  1.2705 -0.6461
13169TIP3   OH260997   6.712   4.240  14.836 -0.0612  0.3265  0.4238
13169TIP3    H160998   6.653   4.171  14.867 -3.0520  1.8750 -1.3189
13169TIP3    H260999   6.732   4.292  14.914 -1.7403  0.2101  0.9796
13170TIP3   OH261000   3.606   5.055   5.181  0.2789 -0.3381  0.0416
13170TIP3    H161001   3.532   5.077   5.238  0.2538 -0.5203  0.0783
13170TIP3    H261002   3.640   4.974   5.217  0.0627 -0.6252 -0.3977
13171TIP3   OH261003   5.640   0.271  11.463  0.4020  0.1925  0.5291
13171TIP3    H161004   5.660   0.241  11.375 -1.0281 -0.8602  0.5240
13171TIP3    H261005   5.703   0.341  11.480  0.2173  0.9496 -1.6194
13172TIP3   OH261006   1.095   4.312   5.163  0.5965 -0.4282 -0.1635
13172TIP3    H161007   1.123   4.239   5.106  2.6007  1.6599 -2.0785
13172TIP3    H261008   1.145   4.299   5.244  2.7630 -0.0206 -1.3451
13173TIP3   OH261009   0.923   1.740  12.687 -0.1782 -0.3653  0.1155
13173TIP3    H161010   0.850   1.801  12.699 -0.3837 -0.8668  1.7503
13173TIP3    H261011   0.884   1.654  12.706  0.5138 -0.8073 -0.4310
13174TIP3   OH261012   1.169   0.625   0.835 -0.3436 -0.1069  0.5588
13174TIP3    H161013   1.250   0.649   0.790 -0.7114  0.7590  0.3200
13174TIP3    H261014   1.180   0.659   0.924 -0.3469 -0.2010  0.5949
13175TIP3   OH261015   3.036   6.163  14.327 -0.0160 -0.4433 -0.0438
13175TIP3    H161016   3.100   6.092  14.324  0.3476 -0.2429  1.6460
13175TIP3    H261017   3.023   6.188  14.235  3.7620  0.7355 -0.4669
13176TIP3   OH261018   4.257   5.825   0.503  0.5210  0.1983 -0.2384
13176TIP3    H161019   4.195   5.898   0.501  1.4459  1.0014 -2.1338
13176TIP3    H261020   4.240   5.778   0.422 -0.1847 -1.8643  1.0403
13177TIP3   OH261021   5.694   0.838  16.147 -0.0882  0.0437  0.5571
13177TIP3    H161022   5.612   0.823  16.098  0.2221 -2.0636  0.5936
13177TIP3    H261023   5.744   0.897  16.091 -1.0743  0.2854 -0.1136
13178TIP3   OH261024   3.121   3.660   4.397  0.1985  0.0669  0.0161
13178TIP3    H161025   3.137   3.749   4.426  0.5588  0.1960 -0.5734
13178TIP3    H261026   3.034   3.663   4.356 -0.4329 -0.1723  1.2739
13179TIP3   OH261027   4.994   4.584  13.046  0.2306 -0.5175  0.3280
13179TIP3    H161028   5.066   4.586  13.109  1.5332 -0.8054 -1.1059
13179TIP3    H261029   5.032   4.546  12.967 -0.6251  2.1170 -1.4970
13180TIP3   OH261030   3.380   3.027  14.717 -0.4169 -0.2989 -0.2743
13180TIP3    H161031   3.451   3.052  14.658  0.1862 -0.8153  0.2148
13180TIP3    H261032   3.301   3.039  14.665  0.1111 -0.8677 -1.2460
13181TIP3   OH261033   5.282   4.080   4.931  0.5353 -0.0718  0.2250
13181TIP3    H161034   5.190   4.063   4.908  0.8608 -1.7301 -0.0017
13181TIP3    H261035   5.278   4.152   4.994 -1.1314 -1.5929  1.9857
13182TIP3   OH261036   0.140   2.785   4.343 -0.0876  0.3671  0.4451
13182TIP3    H161037   0.231   2.801   4.318 -0.2467 -2.2113 -2.3161
13182TIP3    H261038   0.091   2.792   4.261 -2.2923  0.8541  1.7278
13183TIP3   OH261039   1.640   5.854   5.751 -0.3477  0.3327  0.0204
13183TIP3    H161040   1.732   5.864   5.729 -0.1775 -0.6705  0.2568
13183TIP3    H261041   1.615   5.940   5.787  0.2539  0.8859 -0.8497
13184TIP3   OH261042   4.682   0.854   1.918 -0.1626 -0.5819  0.0758
13184TIP3    H161043   4.658   0.829   1.829 -1.5736  0.7479  0.0588
13184TIP3    H261044   4.642   0.786   1.973 -2.4188  0.5360 -0.0919
13185TIP3   OH261045   2.899   0.553   0.438  0.4211 -0.4696  0.0714
13185TIP3    H161046   2.888   0.633   0.387  1.1654 -0.9056 -0.7808
13185TIP3    H261047   2.843   0.567   0.515  1.0682  1.1551  0.2958
13186TIP3   OH261048   6.068   3.117   2.920 -0.0638  0.5769 -0.2133
13186TIP3    H161049   6.028   3.087   2.839  0.9976  0.1888 -0.6149
13186TIP3    H261050   6.014   3.078   2.989 -1.1724  1.1825 -0.7133
13187TIP3   OH261051   2.124   6.537  14.771  0.3841  0.0494 -0.1670
13187TIP3    H161052   2.072   6.457  14.761 -1.7433  0.6707  3.7359
13187TIP3    H261053   2.155   6.533  14.862  0.4788  3.4543  0.0529
13188TIP3   OH261054   4.983   5.625   4.285  0.4607 -0.2253  0.3904
13188TIP3    H161055   5.024   5.610   4.200 -0.2898  1.0072 -0.2269
13188TIP3    H261056   4.920   5.553   4.294 -1.0315  0.8075 -1.1606
13189TIP3   OH261057   4.520   2.285  15.407 -0.7173  0.3090  0.1535
13189TIP3    H161058   4.573   2.205  15.411  1.6206  1.7685 -0.0543
13189TIP3    H261059   4.496   2.294  15.315 -0.5607  0.1304  0.0953
13190TIP3   OH261060   2.755   6.058   3.301 -0.0015  0.2365 -0.1398
13190TIP3    H161061   2.782   6.084   3.213 -0.4307  1.5246  0.0827
13190TIP3    H261062   2.815   5.988   3.326 -0.8029 -1.1877 -2.0157
13191TIP3   OH261063   0.901   2.710  14.147  0.5290  0.2558  0.5289
13191TIP3    H161064   0.864   2.761  14.075 -0.9790 -0.4568  0.7639
13191TIP3    H261065   0.981   2.758  14.172  0.1257  1.4747 -0.4409
13192TIP3   OH261066   0.460   4.319  11.628  0.2963 -0.1751 -0.4611
13192TIP3    H161067   0.390   4.274  11.582 -1.7451  3.0090 -0.8200
13192TIP3    H261068   0.526   4.336  11.560 -0.1193 -0.3317 -0.9076
13193TIP3   OH261069   5.621   5.087  12.575  0.0392  0.1527  0.3059
13193TIP3    H161070   5.532   5.055  12.558 -0.2744 -0.2876  2.4081
13193TIP3    H261071   5.659   5.021  12.634  2.1701 -0.2073 -1.3483
13194TIP3   OH261072   2.859   1.310  13.880  0.1573  0.2346  0.4052
13194TIP3    H161073   2.765   1.314  13.863  0.4490 -0.3639 -1.6311
13194TIP3    H261074   2.868   1.246  13.951 -1.1031  2.1150  2.3575
13195TIP3   OH261075   3.484   6.304  13.622 -0.2891 -0.1830 -0.1964
13195TIP3    H161076   3.470   6.210  13.611  3.4027 -1.0798  1.0850
13195TIP3    H261077   3.479   6.339  13.533  0.4749 -2.0306 -1.0309
13196TIP3   OH261078   2.937   2.069  12.480  0.1352  0.2061  0.4242
13196TIP3    H161079   2.944   2.161  12.507  1.2164 -0.7989  4.0981
13196TIP3    H261080   2.856   2.065  12.429  0.9807  3.4548 -1.4574
13197TIP3   OH261081   3.242   2.647  13.821  1.3666  0.2581 -0.2615
13197TIP3    H161082   3.220   2.579  13.885  0.2846  1.3559  0.5865
13197TIP3    H261083   3.173   2.642  13.755  0.6863  1.1901  0.3576
13198TIP3   OH261084   0.561   6.305   4.401  0.4180  0.1707  0.7465
13198TIP3    H161085   0.647   6.346   4.399  0.1606  0.9447  2.8615
13198TIP3    H261086   0.503   6.369   4.361  0.4412  0.7430  1.6157
13199TIP3   OH261087   3.467   0.021   0.990 -0.7279 -0.3023 -0.4964
13199TIP3    H161088   3.484  -0.012   1.078 -2.0158 -2.5795 -1.0324
13199TIP3    H261089   3.553   0.047   0.957 -0.4315  2.4147  2.0258
13200TIP3   OH261090   2.489   2.223  11.659  0.2097 -0.0599  0.7759
13200TIP3    H161091   2.536   2.141  11.646  2.7936  1.2741  1.0696
13200TIP3    H261092   2.538   2.268  11.728 -1.0524  1.7782  0.5371
13201TIP3   OH261093   1.105   2.265  14.156  0.2022 -0.3249 -0.5842
13201TIP3    H161094   1.028   2.310  14.192 -0.7367 -0.0485 -2.7952
13201TIP3    H261095   1.147   2.226  14.233 -1.5347  0.4173  0.8365
13202TIP3   OH261096   5.454   6.716  17.334 -1.0651  0.0361 -0.0488
13202TIP3    H161097   5.481   6.808  17.344  1.8268 -0.5471 -1.4438
13202TIP3    H261098   5.414   6.693  17.418  0.8897  1.7422  1.4515
13203TIP3   OH261099   2.799   1.631  13.051 -0.1494 -0.3301 -0.4115
13203TIP3    H161100   2.803   1.536  13.065  1.1141 -0.5053 -1.7655
13203TIP3    H261101   2.716   1.645  13.006 -1.4264 -0.4632  1.7392
13204TIP3   OH261102   0.124   4.096   2.781 -0.3431  0.1339  0.2339
13204TIP3    H161103   0.035   4.128   2.765 -0.8784 -1.2850  0.2052
13204TIP3    H261104   0.156   4.070   2.695 -1.0528 -2.1270  0.5921
13205TIP3   OH261105   1.732   1.305  13.444 -0.3205 -0.6568 -0.1585
13205TIP3    H161106   1.794   1.292  13.516 -0.6886 -0.3015  0.2286
13205TIP3    H261107   1.779   1.359  13.381  0.0102 -0.9825 -0.1962
13206TIP3   OH261108   0.686   3.109   2.750 -0.4496 -0.3052 -0.4499
13206TIP3    H161109   0.632   3.164   2.694 -1.8276 -0.1155  0.9802
13206TIP3    H261110   0.663   3.135   2.839  2.3729  0.1148  0.2689
13207TIP3   OH261111   2.413   0.611   0.858  0.3965 -0.3015  0.2447
13207TIP3    H161112   2.433   0.595   0.766  0.7937 -0.9714  0.4480
13207TIP3    H261113   2.321   0.585   0.867 -0.6416  2.6021 -0.6412
13208TIP3   OH261114   5.381   0.490   1.480  0.1375  0.2934  0.4915
13208TIP3    H161115   5.309   0.430   1.501  0.8302 -0.3711  1.0372
13208TIP3    H261116   5.406   0.466   1.391 -0.4168  0.6441  0.2332
13209TIP3   OH261117   6.479   5.632   6.319  0.2260  0.6445  0.4707
13209TIP3    H161118   6.536   5.709   6.328  2.3693 -0.7919 -0.2895
13209TIP3    H261119   6.507   5.590   6.239 -0.2835 -1.4464  1.3256
13210TIP3   OH261120   3.358   0.975  14.532 -0.0577 -0.0929 -0.3941
13210TIP3    H161121   3.418   1.034  14.486  1.0887 -0.2214  0.8821
13210TIP3    H261122   3.358   0.895  14.479  0.8737 -0.0767 -0.4287
13211TIP3   OH261123   2.112   2.652  15.321  0.4090 -0.1004 -0.1585
13211TIP3    H161124   2.106   2.559  15.344  0.5612  0.6190  3.4657
13211TIP3    H261125   2.081   2.698  15.400  2.5801  2.9573 -0.9007
13212TIP3   OH261126   1.003   2.364   6.461 -0.6861 -0.6670 -0.0240
13212TIP3    H161127   1.051   2.418   6.523  0.1674  0.8518 -1.8796
13212TIP3    H261128   1.063   2.291   6.442 -0.3176 -0.3361 -0.1558
13213TIP3   OH261129   3.430   1.539  16.706  0.6026 -0.0464 -0.9918
13213TIP3    H161130   3.367   1.497  16.647 -0.7595 -0.1552  0.4861
13213TIP3    H261131   3.395   1.627  16.719  1.0279  0.0582 -0.5389
13214TIP3   OH261132   4.647   1.057  13.253  0.2047  0.3239 -0.0294
13214TIP3    H161133   4.602   1.010  13.324  1.9780 -4.1537 -1.4921
13214TIP3    H261134   4.728   1.088  13.292 -0.5409  1.3342  0.7518
13215TIP3   OH261135   2.051   0.048  14.106  0.0175  0.5212 -0.8909
13215TIP3    H161136   2.050   0.008  14.019  0.1303 -1.1904 -0.1360
13215TIP3    H261137   1.981   0.004  14.154  1.7331 -0.5778  0.7297
13216TIP3   OH261138   1.908   3.673   1.269  0.2272 -0.4399 -0.1348
13216TIP3    H161139   1.988   3.716   1.299 -1.1751  1.9468  0.4963
13216TIP3    H261140   1.839   3.737   1.287 -1.9093 -2.5921 -0.1862
13217TIP3   OH261141   2.953   6.733  13.644 -0.2608  0.5620  0.1147
13217TIP3    H161142   2.890   6.690  13.702  0.5193  1.0081  1.3328
13217TIP3    H261143   2.931   6.701  13.556 -0.5832 -1.2145  0.8099
13218TIP3   OH261144   6.132   3.398  17.090 -0.5164 -0.1967 -0.6353
13218TIP3    H161145   6.070   3.421  17.159  0.2047 -1.5383  0.5156
13218TIP3    H261146   6.103   3.312  17.059  1.1683 -1.2416  0.4922
13219TIP3   OH261147   1.059   4.054   2.316 -0.3074 -0.3240 -0.4684
13219TIP3    H161148   1.118   4.010   2.255 -0.8155 -0.5350 -0.8099
13219TIP3    H261149   1.114   4.119   2.359 -0.0315  0.0975 -1.4338
13220TIP3   OH261150   3.284   1.588   3.123 -0.4357 -0.2139  0.0609
13220TIP3    H161151   3.241   1.626   3.200 -0.2883 -1.5476  0.8427
13220TIP3    H261152   3.376   1.579   3.150  0.2112  1.7914 -1.2719
13221TIP3   OH261153   1.616   1.649  16.480 -0.0002 -0.3194  0.2385
13221TIP3    H161154   1.595   1.576  16.421 -1.9114 -0.5196  1.0744
13221TIP3    H261155   1.711   1.648  16.487  0.1275 -1.6412 -1.1336
13222TIP3   OH261156   3.958   4.192   5.212  0.3569 -0.3464  0.6146
13222TIP3    H161157   3.897   4.134   5.257  0.9616 -0.2513  1.5885
13222TIP3    H261158   3.908   4.272   5.196 -0.1358 -0.7124  0.2755
13223TIP3   OH261159   2.037   2.799   4.102 -0.2440  0.2792  0.3512
13223TIP3    H161160   1.941   2.806   4.104 -0.3064 -0.6115  1.2598
13223TIP3    H261161   2.059   2.746   4.179  0.9648  0.2588  0.0135
13224TIP3   OH261162   5.043   3.083   2.623  0.5636  0.3688 -0.0374
13224TIP3    H161163   5.068   3.037   2.543  2.2520 -0.9041  1.1347
13224TIP3    H261164   5.126   3.114   2.660  0.2724 -1.7385  2.7302
13225TIP3   OH261165   3.245   5.257  12.281 -0.1405  0.1240 -0.1938
13225TIP3    H161166   3.166   5.281  12.232 -1.4927 -1.1146  1.2440
13225TIP3    H261167   3.225   5.281  12.371  0.2684 -2.0399  0.5410
13226TIP3   OH261168   3.275   3.634  16.667  0.0958  0.2914 -0.3432
13226TIP3    H161169   3.294   3.595  16.752  0.3774 -0.7820 -0.8916
13226TIP3    H261170   3.360   3.656  16.631 -0.0600  1.6515  0.0440
13227TIP3   OH261171   3.849   4.721   5.053 -0.5000  0.0923 -0.2228
13227TIP3    H161172   3.795   4.764   5.119 -1.7893  1.9497 -2.3367
13227TIP3    H261173   3.936   4.758   5.066 -0.6928  0.3035  0.5392
13228TIP3   OH261174   6.372   0.908   1.127  0.5706  0.0152 -0.3576
13228TIP3    H161175   6.430   0.919   1.202  1.0708  0.2501 -0.7717
13228TIP3    H261176   6.287   0.941   1.157  0.6074 -0.4691  0.2979
13229TIP3   OH261177   0.127   2.915   1.478  0.4811  0.3872 -0.0439
13229TIP3    H161178   0.177   2.834   1.466  1.5400  0.9970  0.0736
13229TIP3    H261179   0.066   2.896   1.548  0.9472 -0.2108  0.2110
13230TIP3   OH261180   0.972   4.984  14.527  0.2232 -0.1542 -0.2473
13230TIP3    H161181   0.911   5.055  14.547 -0.0654 -0.0080 -1.5455
13230TIP3    H261182   1.057   5.027  14.519  0.4598 -0.2986  1.1382
13231TIP3   OH261183   6.462   0.185  12.611  0.2740  0.2455 -0.1159
13231TIP3    H161184   6.513   0.174  12.531  0.7057  1.3177 -0.0009
13231TIP3    H261185   6.433   0.276  12.609 -0.6211 -0.0191  0.4211
13232TIP3   OH261186   6.722   5.725  16.706 -0.0853  0.0226 -0.2006
13232TIP3    H161187   6.628   5.726  16.726 -0.1422 -0.0444 -0.4581
13232TIP3    H261188   6.740   5.812  16.670  0.3187  0.6662  1.4682
13233TIP3   OH261189   2.683   3.619  13.292  0.9702  0.6745 -0.2701
13233TIP3    H161190   2.643   3.536  13.315 -0.0858  0.7340 -1.7881
13233TIP3    H261191   2.776   3.599  13.281  0.7096 -0.3448 -0.7596
13234TIP3   OH261192   1.985   5.850   6.227 -0.1769 -0.0742 -0.3953
13234TIP3    H161193   2.058   5.887   6.277  0.8675 -2.1859 -0.2495
13234TIP3    H261194   1.908   5.899   6.258  1.1581  2.5132 -0.8585
13235TIP3   OH261195   1.078   1.007  13.957 -0.5901 -0.4182  0.1343
13235TIP3    H161196   1.054   1.017  14.049 -1.1566  1.2470 -0.1701
13235TIP3    H261197   0.994   0.996  13.912 -0.2947 -1.6669 -0.1739
13236TIP3   OH261198   2.380   0.962   5.086  0.1136  0.6856 -0.0029
13236TIP3    H161199   2.383   0.975   4.991 -0.9404  2.3661  0.1440
13236TIP3    H261200   2.450   1.019   5.119 -0.6003  1.4008  0.3074
13237TIP3   OH261201   1.811   1.431  15.975 -0.1287  0.6370  0.1660
13237TIP3    H161202   1.824   1.495  16.046 -3.5286  0.2086  1.3829
13237TIP3    H261203   1.871   1.460  15.906  2.1238  2.1020  2.5114
13238TIP3   OH261204   1.568   1.089  16.110 -0.6564 -0.2057  0.4819
13238TIP3    H161205   1.656   1.063  16.136 -1.1341 -3.7576 -0.9171
13238TIP3    H261206   1.523   1.107  16.192  1.4215  2.4325  1.2100
13239TIP3   OH261207   2.821   3.788  15.360  0.0176 -0.0010  0.1917
13239TIP3    H161208   2.883   3.717  15.378 -0.5626 -0.8734 -1.0549
13239TIP3    H261209   2.774   3.759  15.282 -1.6643  0.8302  0.8408
13240TIP3   OH261210   5.713   5.358   5.922  0.5709 -0.0068 -0.3563
13240TIP3    H161211   5.653   5.391   5.989  0.0039 -0.3514 -0.6876
13240TIP3    H261212   5.710   5.263   5.932  1.5363 -0.0040  0.0275
13241TIP3   OH261213   3.871   2.219  16.323  0.7550 -0.1779  0.7658
13241TIP3    H161214   3.846   2.303  16.284  0.5365  0.2677  1.8367
13241TIP3    H261215   3.957   2.200  16.287 -0.2065 -0.7385 -1.4174
13242TIP3   OH261216   1.964   2.750  12.157 -0.2425 -0.4078 -0.8523
13242TIP3    H161217   1.918   2.782  12.235  0.2885 -0.0860 -0.6650
13242TIP3    H261218   1.926   2.800  12.085  0.4410  0.5205 -0.5856
13243TIP3   OH261219   6.566   2.138   2.802  0.0347  0.6607 -0.6482
13243TIP3    H161220   6.660   2.118   2.806  0.3154  1.0174 -3.2072
13243TIP3    H261221   6.524   2.054   2.785 -0.1390  0.4845  0.6074
13244TIP3   OH261222   0.913   1.088  12.657  0.0933 -0.5599  0.0703
13244TIP3    H161223   0.986   1.127  12.608 -0.5918  1.8297  0.8213
13244TIP3    H261224   0.955   1.033  12.722  1.1591 -0.6067 -0.6293
13245TIP3   OH261225   5.174   3.061  16.111  0.3628  0.0762 -0.1650
13245TIP3    H161226   5.221   2.996  16.163  1.5859  0.8560 -0.2509
13245TIP3    H261227   5.187   3.034  16.020  0.3086  0.0751 -0.1723
13246TIP3   OH261228   6.589   6.455   3.037  0.2037 -0.2018  0.3768
13246TIP3    H161229   6.581   6.377   2.983  1.1690 -0.7102  0.9471
13246TIP3    H261230   6.501   6.468   3.074 -0.0477 -0.8077  0.0080
13247TIP3   OH261231   0.278   4.199   2.332  0.4869 -0.7270  0.0026
13247TIP3    H161232   0.201   4.222   2.383  0.4779 -0.5498 -0.0895
13247TIP3    H261233   0.351   4.207   2.393  0.7323  1.4500 -0.4957
13248TIP3   OH261234   5.857   1.497   4.466 -0.5787  0.1613  0.0428
13248TIP3    H161235   5.785   1.449   4.425  0.1986 -0.8192 -0.1971
13248TIP3    H261236   5.855   1.583   4.424 -2.9350  0.9529  1.5403
13249TIP3   OH261237   5.191   0.002   3.032  0.2412  0.5288 -0.2898
13249TIP3    H161238   5.229   0.070   3.087 -0.6284  1.0974 -0.3713
13249TIP3    H261239   5.161   0.049   2.954  0.1856 -0.0455 -0.6195
13250TIP3   OH261240   2.705   5.996  16.589  0.1650  0.2105  0.1680
13250TIP3    H161241   2.761   5.985  16.512 -1.7041  1.4913 -1.4787
13250TIP3    H261242   2.700   6.090  16.601  1.6374  0.0192  2.8866
13251TIP3   OH261243   6.306   2.324   2.415 -0.1253 -0.2490 -0.1107
13251TIP3    H161244   6.308   2.237   2.374 -1.1144  0.3957 -1.6327
13251TIP3    H261245   6.392   2.333   2.456  1.4527 -0.5122 -3.0802
13252TIP3   OH261246   2.774   2.256   3.038  0.4354  0.3251 -0.3380
13252TIP3    H161247   2.746   2.280   3.126 -0.1960  0.5393 -0.5846
13252TIP3    H261248   2.814   2.335   3.002  0.7244  0.2277 -0.2338
13253TIP3   OH261249   4.633   2.366   3.354  0.1156  0.5756 -0.5059
13253TIP3    H161250   4.706   2.335   3.300 -0.3582  0.4770 -1.1024
13253TIP3    H261251   4.588   2.430   3.300  0.4422  1.5139  0.3121
13254TIP3   OH261252   6.011   2.152   5.189 -0.2928 -0.7004  0.1639
13254TIP3    H161253   5.925   2.190   5.169  0.0583  1.3556  2.1439
13254TIP3    H261254   5.994   2.086   5.256 -0.2682  0.2807  1.1531
13255TIP3   OH261255   2.202   1.976   1.871  0.7515 -0.2928 -0.6055
13255TIP3    H161256   2.210   1.900   1.813  0.7167 -0.0771 -0.8974
13255TIP3    H261257   2.117   1.965   1.914  0.6716 -0.3375 -0.7721
13256TIP3   OH261258   5.552   0.042  11.975 -0.5087 -0.2550 -0.0688
13256TIP3    H161259   5.538   0.066  11.883 -1.3033 -1.2474 -0.2333
13256TIP3    H261260   5.640   0.072  11.995 -0.1734 -0.3614 -1.2827
13257TIP3   OH261261   3.175   4.640  17.227  0.5051 -0.5978 -0.6476
13257TIP3    H161262   3.191   4.716  17.171  0.4419  0.6074  0.9161
13257TIP3    H261263   3.086   4.613  17.206  0.1346  0.4413 -0.4597
13258TIP3   OH261264   3.157   4.387   0.707 -0.1603  0.0685 -0.1939
13258TIP3    H161265   3.219   4.341   0.650  0.7239  2.3798 -1.2538
13258TIP3    H261266   3.088   4.418   0.648 -0.8627 -0.1087  0.5179
13259TIP3   OH261267   0.771   3.575   0.839  0.7223 -0.6303 -0.6083
13259TIP3    H161268   0.745   3.603   0.751  3.4778  2.1743 -0.7010
13259TIP3    H261269   0.856   3.532   0.826  2.7563  2.6049  0.8159
13260TIP3   OH261270   3.417   3.765  13.581  0.3121  0.0388  0.5243
13260TIP3    H161271   3.376   3.695  13.631  0.4971  1.8716  3.5150
13260TIP3    H261272   3.383   3.755  13.493 -1.0862 -2.6601  1.2631
13261TIP3   OH261273   3.892   2.553  14.850 -0.2022  0.0955  0.1114
13261TIP3    H161274   3.966   2.610  14.869 -0.0294  0.3325 -1.2215
13261TIP3    H261275   3.913   2.471  14.895  0.2138  0.6030  0.8676
13262TIP3   OH261276   3.849   1.138  17.074  0.1562  0.6297  0.8116
13262TIP3    H161277   3.867   1.168  17.163 -0.2681  2.6231  0.2772
13262TIP3    H261278   3.935   1.128  17.033  0.4258 -1.4725  1.7305
13263TIP3   OH261279   2.988   3.622  12.179  0.3373  0.2201  0.0412
13263TIP3    H161280   3.067   3.593  12.134 -0.2940 -1.9318  0.2451
13263TIP3    H261281   2.919   3.563  12.149 -0.9908  1.3443  0.7158
13264TIP3   OH261282   2.438   1.006   1.932 -0.1607 -0.1147  0.1052
13264TIP3    H161283   2.481   1.089   1.951  1.5898 -0.5245 -1.7166
13264TIP3    H261284   2.397   0.980   2.014 -0.9519  2.6262  0.6658
13265TIP3   OH261285   5.844   0.296   5.705  0.0946 -0.2268  0.6349
13265TIP3    H161286   5.770   0.292   5.766  1.1039  0.9469  1.9917
13265TIP3    H261287   5.840   0.384   5.668  0.4870 -0.3610  0.2631
13266TIP3   OH261288   4.855   2.100  15.735 -0.2216 -0.2179  0.3030
13266TIP3    H161289   4.925   2.045  15.772 -0.1323 -0.8187 -0.7180
13266TIP3    H261290   4.854   2.178  15.791  1.4800 -0.0523  0.1706
13267TIP3   OH261291   0.567   4.385  14.020  0.1555  0.4697 -0.4498
13267TIP3    H161292   0.630   4.439  14.068  0.1002  0.3278 -0.2197
13267TIP3    H261293   0.536   4.442  13.949 -0.1858  0.8719  0.0151
13268TIP3   OH261294   6.097   0.318   3.407  0.0852 -0.3367 -0.2343
13268TIP3    H161295   6.151   0.248   3.370  0.5000 -0.5406  0.7196
13268TIP3    H261296   6.112   0.312   3.502 -0.2760  0.7149 -0.1003
13269TIP3   OH261297   3.391   5.426   1.648 -0.1473 -0.0264  0.6603
13269TIP3    H161298   3.422   5.436   1.557 -1.4163 -2.6713 -0.1475
13269TIP3    H261299   3.305   5.386   1.640 -1.1919  1.5125  3.0410
13270TIP3   OH261300   0.879   1.629  13.496  0.0642 -0.2254 -0.8150
13270TIP3    H161301   0.879   1.591  13.583  1.2000  1.1595 -0.1825
13270TIP3    H261302   0.971   1.636  13.472 -0.1719  0.9673 -1.4246
13271TIP3   OH261303   1.494   5.266  11.444 -0.5166 -0.1818 -0.0353
13271TIP3    H161304   1.440   5.213  11.503  1.6107 -0.5958  1.6974
13271TIP3    H261305   1.513   5.345  11.495  0.5346 -0.0763 -0.5733
13272TIP3   OH261306   4.147   1.322  15.017 -0.7764 -0.4308 -0.2356
13272TIP3    H161307   4.145   1.335  15.112  2.0084 -0.9566 -0.0015
13272TIP3    H261308   4.076   1.261  15.000 -1.1865 -0.5255  1.5648
13273TIP3   OH261309   5.739   0.750   0.784  0.2827 -0.2846 -0.6631
13273TIP3    H161310   5.753   0.777   0.694  0.6196  0.1604 -0.4800
13273TIP3    H261311   5.766   0.825   0.837  3.5226 -1.7079 -0.0469
13274TIP3   OH261312   2.507   3.869  15.305  0.1308 -0.3213  0.2215
13274TIP3    H161313   2.520   3.825  15.389 -0.7213 -2.4126 -0.6955
13274TIP3    H261314   2.544   3.810  15.240 -0.6105  0.5283 -1.0210
13275TIP3   OH261315   3.414   6.211  15.787 -0.2811  0.1730 -0.2677
13275TIP3    H161316   3.332   6.234  15.742  0.1144  1.6135 -0.2771
13275TIP3    H261317   3.450   6.294  15.815  1.1210 -0.4640 -0.1245
13276TIP3   OH261318   2.845   3.391  16.739 -0.3217  0.8323 -0.4763
13276TIP3    H161319   2.823   3.442  16.817  0.3866  1.1863 -0.5055
13276TIP3    H261320   2.812   3.303  16.758  0.4954  0.7305  0.5211
13277TIP3   OH261321   4.699   5.175   1.356 -0.2156 -0.3931  0.1796
13277TIP3    H161322   4.665   5.089   1.382 -0.4910 -0.8206 -1.4492
13277TIP3    H261323   4.788   5.177   1.390  0.4348 -2.1055 -1.2737
13278TIP3   OH261324   3.969   0.630   3.423  0.3185  0.7188  0.1866
13278TIP3    H161325   3.880   0.648   3.456 -0.4740  0.1566 -1.5172
13278TIP3    H261326   4.026   0.652   3.496 -1.2219  1.1273  1.3334
13279TIP3   OH261327   3.130   1.410  10.968 -0.1595 -0.7642 -0.0312
13279TIP3    H161328   3.078   1.463  11.028  1.1344 -2.1046  2.4084
13279TIP3    H261329   3.212   1.458  10.958 -0.8365  0.1094 -1.8889
13280TIP3   OH261330   4.422   1.198   4.798  0.1762 -0.1866 -0.5126
13280TIP3    H161331   4.393   1.131   4.735  1.0973 -0.7931 -0.3167
13280TIP3    H261332   4.410   1.281   4.752  0.2097 -0.5776 -1.2405
13281TIP3   OH261333   2.503   4.499   4.011 -0.4149 -0.1664  0.1580
13281TIP3    H161334   2.421   4.548   4.007 -0.0645  0.5365  1.3951
13281TIP3    H261335   2.554   4.531   3.937 -0.8500  0.1062 -0.0278
13282TIP3   OH261336   4.077   3.588  14.829  0.5633  0.1115  0.1848
13282TIP3    H161337   4.154   3.642  14.811  0.1177  0.5389 -0.5133
13282TIP3    H261338   4.004   3.650  14.829  0.0598 -0.4671 -0.5079
13283TIP3   OH261339   5.741   4.091   2.663 -0.0412 -0.0441 -0.3366
13283TIP3    H161340   5.780   4.178   2.668 -1.3565  0.5631 -0.2440
13283TIP3    H261341   5.647   4.106   2.667 -0.2956 -1.5882  1.6302
13284TIP3   OH261342   1.792   4.176   1.106  0.2183 -0.2956 -0.3497
13284TIP3    H161343   1.867   4.161   1.164  0.1979 -0.1480 -0.2846
13284TIP3    H261344   1.817   4.253   1.054  0.9587 -1.4060 -1.7290
13285TIP3   OH261345   5.590   3.690   5.829 -0.4719  0.0051  0.0313
13285TIP3    H161346   5.670   3.639   5.816 -0.4165 -0.3001  1.4397
13285TIP3    H261347   5.527   3.651   5.767  1.0215  1.7278 -2.7915
13286TIP3   OH261348   0.218   1.262   4.850  0.1241 -0.2591  0.3168
13286TIP3    H161349   0.163   1.218   4.785 -1.0091  0.2747  0.8988
13286TIP3    H261350   0.229   1.351   4.815 -0.0845 -0.1133  0.6245
13287TIP3   OH261351   3.232   2.024  17.337  0.1494 -0.0985 -0.5326
13287TIP3    H161352   3.320   2.051  17.310  0.7409 -0.1743  1.1864
13287TIP3    H261353   3.244   1.937  17.375 -0.8681 -0.5789 -1.2592
13288TIP3   OH261354   5.812   5.401  12.821  0.3730  0.0209 -0.3331
13288TIP3    H161355   5.783   5.323  12.869 -3.7887  1.4018 -0.1613
13288TIP3    H261356   5.842   5.461  12.888 -0.0100 -0.1032 -0.0450
13289TIP3   OH261357   0.260   4.645   2.427  0.2901  0.6233  0.0974
13289TIP3    H161358   0.255   4.734   2.461  2.6899  0.1816  1.8276
13289TIP3    H261359   0.301   4.655   2.341  0.6811  1.1998  0.3397
13290TIP3   OH261360   4.496   5.241  13.737  0.6844  0.3197  0.4304
13290TIP3    H161361   4.521   5.281  13.820  1.2815 -3.3388  2.1986
13290TIP3    H261362   4.578   5.230  13.689  0.7148  0.0158  0.5492
13291TIP3   OH261363   1.661   5.741   2.644  0.0743  0.3469 -0.1594
13291TIP3    H161364   1.661   5.824   2.595 -1.1574  0.6180  0.2648
13291TIP3    H261365   1.617   5.679   2.585 -1.1400  0.5998  0.4497
13292TIP3   OH261366   1.416   3.979  17.270  0.4038  0.0770  0.3958
13292TIP3    H161367   1.456   4.066  17.263  1.4281 -0.4356 -0.3376
13292TIP3    H261368   1.386   3.959  17.181  1.1823 -0.7807  0.3196
13293TIP3   OH261369   4.685   4.898   5.090 -0.5367  0.6498  0.8378
13293TIP3    H161370   4.780   4.891   5.089 -0.3880  1.9339  2.0983
13293TIP3    H261371   4.664   4.958   5.019 -0.5792 -0.9402 -0.5361
13294TIP3   OH261372   2.876   1.060   4.206 -0.2402  0.5122 -0.2606
13294TIP3    H161373   2.855   1.112   4.128  0.4494  1.1947 -0.0024
13294TIP3    H261374   2.799   1.069   4.262 -0.2341  1.0382 -0.3353
13295TIP3   OH261375   3.935   6.435  15.984 -0.1357  0.4361 -0.5425
13295TIP3    H161376   3.865   6.375  16.009 -0.3843  1.7872  2.5116
13295TIP3    H261377   3.890   6.512  15.950 -0.0692  0.6991 -0.0433
13296TIP3   OH261378   6.634   0.468   2.211  0.4027 -0.5808 -0.3607
13296TIP3    H161379   6.566   0.424   2.159  0.8247 -1.1863 -0.4055
13296TIP3    H261380   6.716   0.448   2.166  0.6274  0.0464 -0.2352
13297TIP3   OH261381   0.982   2.604  15.541 -0.1599 -0.7860  0.3519
13297TIP3    H161382   0.943   2.533  15.592  0.8326 -0.9328  0.9316
13297TIP3    H261383   1.011   2.668  15.605  1.2945 -1.0725  0.0161
13298TIP3   OH261384   3.016   5.590   1.021 -0.0771 -0.3288  0.4636
13298TIP3    H161385   2.946   5.625   0.965  0.4127  0.0503  0.0724
13298TIP3    H261386   3.045   5.666   1.072 -0.3584 -0.6223  1.0623
13299TIP3   OH261387   4.849   3.078  13.346 -0.2045  0.2226  0.0163
13299TIP3    H161388   4.771   3.131  13.359 -0.9326 -0.7905 -0.0678
13299TIP3    H261389   4.905   3.098  13.420 -0.9852  0.2071  0.6213
13300TIP3   OH261390   0.281   3.256   2.731  0.0408 -0.3423  0.5988
13300TIP3    H161391   0.249   3.228   2.816  0.0294  0.1671  0.7669
13300TIP3    H261392   0.352   3.195   2.710  0.2926 -0.2434  1.1455
13301TIP3   OH261393   2.700   6.272   2.208 -0.6467 -0.0082 -0.4031
13301TIP3    H161394   2.750   6.204   2.252  0.5829  0.9941 -0.2044
13301TIP3    H261395   2.676   6.333   2.278 -0.1534  0.7024 -0.8365
13302TIP3   OH261396   4.759   0.437   5.608 -0.2238 -0.7681  0.7083
13302TIP3    H161397   4.779   0.421   5.516  0.9992 -2.2386  1.1778
13302TIP3    H261398   4.757   0.532   5.616  1.2724 -0.5928 -0.5279
13303TIP3   OH261399   1.006   3.093  17.326 -0.0204  0.0645 -0.0052
13303TIP3    H161400   0.923   3.071  17.282 -0.5648  0.9724  0.5180
13303TIP3    H261401   1.038   3.010  17.359 -0.4887 -0.3732 -0.6123
13304TIP3   OH261402   1.312   3.190  12.089  0.6230 -0.2109 -0.0315
13304TIP3    H161403   1.276   3.225  12.171 -1.6387 -0.9515 -0.6383
13304TIP3    H261404   1.297   3.260  12.026 -0.0446 -0.6136 -0.3367
13305TIP3   OH261405   5.764   0.016  14.136  0.2631  0.0235 -0.0349
13305TIP3    H161406   5.777   0.102  14.176 -0.1698  0.8775 -1.6712
13305TIP3    H261407   5.848  -0.005  14.095  0.4204 -0.4316  0.4997
13306TIP3   OH261408   1.999   0.872  16.311 -0.2435  0.3328  0.0765
13306TIP3    H161409   2.015   0.965  16.327  0.9945  0.3107 -0.8944
13306TIP3    H261410   2.066   0.826  16.362 -0.2372  0.0209 -0.2082
13307TIP3   OH261411   2.623   5.880  14.209  0.5340  0.3836 -0.2370
13307TIP3    H161412   2.651   5.891  14.117  0.0305 -1.2301 -0.6130
13307TIP3    H261413   2.534   5.914  14.211  0.3177 -0.1431 -0.5165
13308TIP3   OH261414   0.417   6.472  11.437  0.1830  0.6645  0.0068
13308TIP3    H161415   0.405   6.511  11.350 -1.2618  1.8324  0.6843
13308TIP3    H261416   0.462   6.540  11.487 -2.8556  1.8634  1.3606
13309TIP3   OH261417   4.287   0.571  17.036 -0.4719 -0.5061 -0.0389
13309TIP3    H161418   4.321   0.482  17.028 -0.8926 -0.7697  0.9274
13309TIP3    H261419   4.332   0.607  17.113 -0.2000  0.1651 -0.5111
13310TIP3   OH261420   4.070   2.541  13.033 -0.4224  0.4711  0.3327
13310TIP3    H161421   3.991   2.557  12.981 -0.5773  1.5337  0.8689
13310TIP3    H261422   4.064   2.603  13.105  0.2017 -0.4140  1.1754
13311TIP3   OH261423   3.164   0.497  11.788 -0.7739  0.0049 -0.8384
13311TIP3    H161424   3.146   0.432  11.856 -0.6026  2.0425  1.2532
13311TIP3    H261425   3.256   0.520  11.801 -0.5955  0.0519 -2.1130
13312TIP3   OH261426   5.912   5.442   1.942  0.0264 -0.3099 -0.6307
13312TIP3    H161427   5.940   5.491   2.019 -0.7024  0.6206 -0.9451
13312TIP3    H261428   5.823   5.473   1.925  0.4715  0.1186 -2.3397
13313TIP3   OH261429   4.483   3.303  11.983 -1.1790 -0.4654 -0.2080
13313TIP3    H161430   4.571   3.270  11.965 -0.6765  0.4365  0.4957
13313TIP3    H261431   4.433   3.283  11.904  0.3534  1.4633 -1.7799
13314TIP3   OH261432   3.376   3.350  13.090 -0.3602  0.0173 -0.3422
13314TIP3    H161433   3.412   3.301  13.163  0.6978  0.3738 -0.6056
13314TIP3    H261434   3.282   3.330  13.091 -0.1590 -0.9428  0.3540
13315TIP3   OH261435   3.251   6.378  14.030 -0.2924  0.4079  0.0186
13315TIP3    H161436   3.259   6.283  14.028  0.2797  0.4416  0.6667
13315TIP3    H261437   3.256   6.404  13.938  1.4121 -0.0396 -0.0471
13316TIP3   OH261438   4.305   0.797   0.032  0.0398 -0.1172  0.0007
13316TIP3    H161439   4.341   0.712   0.059 -1.1927 -0.2474  1.3767
13316TIP3    H261440   4.346   0.860   0.090 -1.6425 -0.2370  1.4136
13317TIP3   OH261441   0.581   1.445  13.928  0.0080  0.5777 -0.2232
13317TIP3    H161442   0.579   1.349  13.933  1.2601  0.5631  0.1742
13317TIP3    H261443   0.526   1.466  13.852  1.2927 -0.5602 -1.5147
13318TIP3   OH261444   3.744   4.793   5.534  0.0607 -0.1216  0.5456
13318TIP3    H161445   3.659   4.763   5.566 -0.0510 -2.5875 -1.7177
13318TIP3    H261446   3.792   4.818   5.614 -1.7410 -1.5104  2.1672
13319TIP3   OH261447   0.105   4.314   5.289 -0.5495  0.0553 -0.0346
13319TIP3    H161448   0.167   4.366   5.340  2.2090 -1.8588 -1.2352
13319TIP3    H261449   0.036   4.377   5.264  2.5061  3.1955 -1.3520
13320TIP3   OH261450   0.945   5.050   1.169 -0.3687  0.5316  0.1498
13320TIP3    H161451   0.896   5.130   1.187 -0.9930 -0.0640  1.2264
13320TIP3    H261452   0.911   5.019   1.085 -0.4245  1.1595 -0.0676
13321TIP3   OH261453   5.004   3.131  14.109  0.8191  0.3333  0.0901
13321TIP3    H161454   4.916   3.149  14.142  2.0155  2.9057  2.3780
13321TIP3    H261455   5.021   3.200  14.045  1.1488 -0.1940 -0.4019
13322TIP3   OH261456   4.304   0.846   1.638  0.2960  0.0980  0.8257
13322TIP3    H161457   4.365   0.771   1.638  0.9209  0.5034  3.0953
13322TIP3    H261458   4.260   0.840   1.723 -2.4820  0.1766 -0.5077
13323TIP3   OH261459   0.029   4.949  14.941 -0.0238  0.3394 -0.5315
13323TIP3    H161460   0.111   4.904  14.921 -0.4350 -1.1208  0.7617
13323TIP3    H261461   0.055   5.037  14.967  1.1549 -0.1240 -0.0655
13324TIP3   OH261462   6.346   5.896  11.690  0.1234  0.2834  0.1788
13324TIP3    H161463   6.433   5.857  11.683 -0.4309 -0.7756 -1.5300
13324TIP3    H261464   6.319   5.909  11.599 -1.7563  0.0173  0.6647
13325TIP3   OH261465   6.432   1.248  11.028 -0.1341 -0.3649  0.1874
13325TIP3    H161466   6.510   1.292  10.995  0.5921 -0.3471  1.8223
13325TIP3    H261467   6.433   1.162  10.987  1.2190 -0.6768  0.8280
13326TIP3   OH261468   0.039   0.272   6.693 -0.0778 -0.3558  0.0273
13326TIP3    H161469  -0.012   0.195   6.721  0.8110 -1.3297 -0.9525
13326TIP3    H261470   0.048   0.261   6.599 -0.8697  1.5534 -0.3111
13327TIP3   OH261471   5.264   2.783   1.742  0.1190  0.9026  0.0343
13327TIP3    H161472   5.174   2.755   1.758  0.6662 -0.7378  0.4553
13327TIP3    H261473   5.308   2.771   1.826  0.8971  0.9775 -0.3556
13328TIP3   OH261474   3.028   4.223  16.182  0.7559 -0.2361  0.5145
13328TIP3    H161475   3.038   4.295  16.245 -1.8594 -0.1529  0.9369
13328TIP3    H261476   3.028   4.144  16.236  0.3396 -0.2985  0.4265
13329TIP3   OH261477   0.313   1.936   4.188 -0.0264  0.9716 -0.1819
13329TIP3    H161478   0.294   1.842   4.182 -0.5996  1.1336 -0.9552
13329TIP3    H261479   0.409   1.941   4.188  0.0056  0.4279 -0.8084
13330TIP3   OH261480   3.245   2.004   1.618 -0.5034 -0.5910 -0.2774
13330TIP3    H161481   3.177   2.061   1.655  0.1150 -0.8114  1.2954
13330TIP3    H261482   3.197   1.926   1.588 -0.9493 -0.9258  1.1779
13331TIP3   OH261483   2.128   2.442   4.831  0.3125  0.4957 -0.0378
13331TIP3    H161484   2.036   2.449   4.805  0.4457  2.1170 -0.1404
13331TIP3    H261485   2.125   2.396   4.915 -0.4866 -0.4634 -0.5621
13332TIP3   OH261486   3.676   3.330  13.711  0.4124 -0.2454  0.2146
13332TIP3    H161487   3.758   3.308  13.755  0.7218 -1.7611 -1.0241
13332TIP3    H261488   3.668   3.425  13.720  0.9630 -0.3703  2.5913
13333TIP3   OH261489   1.216   5.466  12.048  0.5284 -0.8773 -0.0186
13333TIP3    H161490   1.142   5.523  12.069  0.9296 -0.5502  0.5186
13333TIP3    H261491   1.241   5.492  11.959  1.1292  0.2609  0.4645
13334TIP3   OH261492   3.292   6.556   3.671  0.0306  0.8090  0.4164
13334TIP3    H161493   3.336   6.507   3.741  1.7194  1.9438  0.1960
13334TIP3    H261494   3.359   6.569   3.605 -1.3560  0.3600 -1.1456
13335TIP3   OH261495   5.188   4.535  15.247  0.3595  0.6815 -0.2548
13335TIP3    H161496   5.154   4.448  15.226 -0.6057  1.1715 -0.7890
13335TIP3    H261497   5.283   4.527  15.237  0.5373 -0.9462  2.0712
13336TIP3   OH261498   5.140   5.291   0.799  0.2817 -0.3588  0.1707
13336TIP3    H161499   5.156   5.361   0.736 -1.2596 -0.5066 -0.4227
13336TIP3    H261500   5.118   5.336   0.881 -0.4984 -0.1403 -0.1549
13337TIP3   OH261501   2.869   0.592   1.033 -0.1961  0.1269 -0.0139
13337TIP3    H161502   2.857   0.502   1.063 -0.0307 -0.9074 -2.7870
13337TIP3    H261503   2.962   0.610   1.045 -0.2275 -0.0787  0.5396
13338TIP3   OH261504   0.439   3.193   3.154 -0.2214 -0.6380 -0.0433
13338TIP3    H161505   0.360   3.222   3.201  0.0652 -0.7548  0.5120
13338TIP3    H261506   0.475   3.123   3.208 -0.5051 -1.5468 -1.0083
13339TIP3   OH261507   1.556   5.007   1.625 -0.5618 -0.2921  0.4112
13339TIP3    H161508   1.512   4.980   1.545 -0.5849 -0.3890  0.4560
13339TIP3    H261509   1.512   5.089   1.651  2.4689  2.4666 -2.2246
13340TIP3   OH261510   3.463   1.974   5.972 -0.6928  0.0692 -0.1241
13340TIP3    H161511   3.500   2.042   6.029 -1.0480  0.3322 -0.2070
13340TIP3    H261512   3.428   1.909   6.033  0.2300 -0.3742 -0.0374
13341TIP3   OH261513   0.796   5.540   1.613  0.1120  0.0021  0.9449
13341TIP3    H161514   0.869   5.562   1.555 -1.0325  0.1812 -0.5153
13341TIP3    H261515   0.738   5.616   1.607 -1.1716 -0.9664  0.3836
13342TIP3   OH261516   1.878   0.423   3.345 -0.5486 -0.3934 -0.3660
13342TIP3    H161517   1.948   0.443   3.406 -2.0839 -0.5670  1.5614
13342TIP3    H261518   1.911   0.451   3.260  1.5859  0.0799  0.5561
13343TIP3   OH261519   1.313   3.182  13.623  0.4431  0.3501 -0.3851
13343TIP3    H161520   1.234   3.129  13.636 -0.9055  2.2769 -0.2846
13343TIP3    H261521   1.307   3.250  13.690  1.5259  1.2803 -1.1937
13344TIP3   OH261522   4.793   5.018   4.012 -0.7112 -0.2246 -0.2356
13344TIP3    H161523   4.798   4.929   3.978 -1.5607 -0.7810  1.0218
13344TIP3    H261524   4.864   5.023   4.077 -0.4874  0.1077 -0.5037
13345TIP3   OH261525   1.553   1.712  15.238 -0.5934  0.1637  0.5729
13345TIP3    H161526   1.508   1.754  15.164  0.2627 -0.0999 -0.1071
13345TIP3    H261527   1.555   1.780  15.306 -2.9458 -0.1292  1.0417
13346TIP3   OH261528   2.064   5.491   6.219 -0.3288  0.5183 -0.4244
13346TIP3    H161529   2.117   5.419   6.252 -1.0036 -0.4633 -1.4070
13346TIP3    H261530   1.986   5.491   6.274  0.8738  2.3561  1.4254
13347TIP3   OH261531   0.586   0.121  12.686  0.2795 -0.5980 -0.3756
13347TIP3    H161532   0.607   0.042  12.736 -0.1837  0.7778  2.1671
13347TIP3    H261533   0.669   0.147  12.647  0.8556 -1.2730  0.3632
13348TIP3   OH261534   2.207   3.268   2.217 -0.6474  0.0592  0.4115
13348TIP3    H161535   2.129   3.249   2.268 -1.3471 -0.9769 -0.9961
13348TIP3    H261536   2.176   3.320   2.143  0.7359  4.1982  2.3998
13349TIP3   OH261537   6.015   5.850  16.631 -0.0669  0.3659  0.4249
13349TIP3    H161538   5.951   5.835  16.701  0.8237  0.8184  1.3648
13349TIP3    H261539   5.963   5.884  16.558 -0.8467  1.1611  1.3219
13350TIP3   OH261540   4.777   6.204   4.819  0.9060 -0.2003  0.2433
13350TIP3    H161541   4.754   6.164   4.735  0.8531 -0.4134  0.3578
13350TIP3    H261542   4.693   6.227   4.859  0.8825 -1.0355  0.6879
13351TIP3   OH261543   0.129   1.918  15.874  0.4962  0.4095 -0.4299
13351TIP3    H161544   0.094   1.832  15.850  0.6104  0.9078 -2.6231
13351TIP3    H261545   0.054   1.965  15.911 -0.0688  0.0114 -1.0397
13352TIP3   OH261546   3.723   5.170  14.044 -0.5537  0.3395  0.3019
13352TIP3    H161547   3.711   5.150  14.137 -0.3956  0.7906  0.4252
13352TIP3    H261548   3.643   5.217  14.019 -0.5380  0.3377  0.2481
13353TIP3   OH261549   4.234   3.239   1.254 -0.5107  0.5888 -0.1582
13353TIP3    H161550   4.304   3.206   1.197 -0.4301  0.4960 -0.0059
13353TIP3    H261551   4.254   3.332   1.266 -0.6862  0.6725 -0.5129
13354TIP3   OH261552   1.520   6.112   3.112 -0.4478 -0.2557  0.4437
13354TIP3    H161553   1.606   6.153   3.105 -0.9745  0.7738 -0.2346
13354TIP3    H261554   1.492   6.100   3.021 -0.6708 -1.3749  0.6424
13355TIP3   OH261555   6.481   2.383   2.692 -0.8783  0.1496 -0.2208
13355TIP3    H161556   6.548   2.405   2.626 -2.5748  0.1020 -2.0483
13355TIP3    H261557   6.515   2.304   2.735  1.4062  1.5294  0.7047
13356TIP3   OH261558   2.324   3.833   2.740 -0.1331  0.1245  0.5866
13356TIP3    H161559   2.349   3.918   2.705  0.8137 -1.3464 -2.7098
13356TIP3    H261560   2.398   3.808   2.797 -0.2718  1.3131  1.3160
13357TIP3   OH261561   3.854   0.843  11.872 -0.1097 -0.4204 -0.0056
13357TIP3    H161562   3.858   0.798  11.788  1.6158  0.9678 -0.7226
13357TIP3    H261563   3.938   0.824  11.914  0.2530  1.2539  0.1012
13358TIP3   OH261564   4.303   5.548  10.663  0.1091  0.1870  0.1813
13358TIP3    H161565   4.225   5.530  10.612  0.0749 -1.7165  0.8362
13358TIP3    H261566   4.323   5.465  10.706  1.3152  1.1883  1.6287
13359TIP3   OH261567   5.510   2.681   5.583  0.2255  0.8051 -0.0249
13359TIP3    H161568   5.519   2.717   5.671  2.1502  2.2627 -0.7257
13359TIP3    H261569   5.513   2.758   5.526  2.4140 -0.2574 -1.4985
13360TIP3   OH261570   1.906   5.643  16.300  0.4980 -0.1484 -0.3545
13360TIP3    H161571   1.840   5.661  16.367  0.4967 -0.1006 -0.3690
13360TIP3    H261572   1.922   5.549  16.307  0.3334 -0.1826 -0.4418
13361TIP3   OH261573   6.044   0.764  13.579  0.1246  0.2303  0.2272
13361TIP3    H161574   5.959   0.736  13.613  0.3538  0.2184  0.7919
13361TIP3    H261575   6.026   0.788  13.488 -0.2552 -0.8859 -0.0133
13362TIP3   OH261576   2.651   5.040   3.410 -0.6355 -0.0995  0.1730
13362TIP3    H161577   2.611   4.954   3.420  1.0716 -0.8869  0.6261
13362TIP3    H261578   2.744   5.022   3.396  0.1205  1.7006  2.2541
13363TIP3   OH261579   5.572   4.941   0.832 -0.5875  0.2008 -0.0229
13363TIP3    H161580   5.637   4.876   0.859  0.1876  1.2656  0.7740
13363TIP3    H261581   5.605   5.024   0.866 -2.1270  0.8575 -0.0179
13364TIP3   OH261582   5.063   0.615  11.533 -0.0186 -0.2349 -0.5114
13364TIP3    H161583   4.993   0.637  11.472  0.5620  0.5017 -0.9351
13364TIP3    H261584   5.143   0.618  11.479  0.4188 -0.2691  0.1291
13365TIP3   OH261585   3.369   2.194  15.517  0.3096  0.9565 -0.1100
13365TIP3    H161586   3.354   2.287  15.529  2.5608  1.0618  3.0457
13365TIP3    H261587   3.407   2.164  15.600  1.0581 -2.4735 -1.4963
13366TIP3   OH261588   1.184   3.324  12.862  0.0672  0.4311  0.1440
13366TIP3    H161589   1.162   3.233  12.883  1.2192 -0.7642 -3.1077
13366TIP3    H261590   1.149   3.337  12.774 -1.4443  3.7686  1.0966
13367TIP3   OH261591   1.124   6.689   5.054 -0.6564 -0.4633  0.4368
13367TIP3    H161592   1.053   6.746   5.086  0.2836  1.6563 -1.0577
13367TIP3    H261593   1.115   6.691   4.959  0.0622 -2.0358  0.3044
13368TIP3   OH261594   6.394   0.592  13.137 -0.7094 -0.1000  0.3618
13368TIP3    H161595   6.396   0.545  13.054 -0.8850  0.9767 -0.2814
13368TIP3    H261596   6.327   0.660  13.124 -1.3840 -0.4720  1.7007
13369TIP3   OH261597   4.713   3.507   4.074  0.8133  0.2910 -0.3447
13369TIP3    H161598   4.804   3.506   4.101  1.0160  0.4292 -1.0010
13369TIP3    H261599   4.712   3.459   3.992  0.5028  1.2858 -0.9504
13370TIP3   OH261600   4.036   4.970  11.682  0.6593  0.2555  0.0440
13370TIP3    H161601   4.114   5.024  11.690 -0.7803  2.6137 -0.8717
13370TIP3    H261602   4.069   4.883  11.661  3.0828  0.6820  1.6645
13371TIP3   OH261603   3.885   1.515  14.412  0.1710 -0.1016  0.0552
13371TIP3    H161604   3.821   1.478  14.473 -1.9873 -1.1302 -2.6445
13371TIP3    H261605   3.950   1.445  14.399  0.9982  0.3456  1.5359
13372TIP3   OH261606   5.567   4.361  13.108  0.2352  0.7128 -0.1019
13372TIP3    H161607   5.564   4.292  13.174  2.8131 -0.4156 -1.0223
13372TIP3    H261608   5.585   4.315  13.026 -0.7235  2.2703 -1.2334
13373TIP3   OH261609   3.600   0.334   0.843  0.3674 -0.2720 -0.0849
13373TIP3    H161610   3.550   0.253   0.829  0.2724 -0.4173  1.0286
13373TIP3    H261611   3.624   0.363   0.755 -1.1827 -0.5116 -0.6102
13374TIP3   OH261612   5.475   0.743   1.903 -0.0029  0.4398 -0.6719
13374TIP3    H161613   5.551   0.687   1.918 -1.3854 -1.0929  1.0596
13374TIP3    H261614   5.507   0.832   1.917  1.3775 -0.1973  0.4151
13375TIP3   OH261615   6.718   5.445  16.398  0.3880 -0.4347  0.5318
13375TIP3    H161616   6.703   5.396  16.479 -0.3144  0.5598  1.0208
13375TIP3    H261617   6.682   5.532  16.415  1.2101  0.1293 -0.4707
13376TIP3   OH261618   0.825   1.588  11.435 -0.0526 -0.3283 -0.0153
13376TIP3    H161619   0.891   1.637  11.384  1.6478  0.2291  2.5214
13376TIP3    H261620   0.874   1.514  11.471 -1.4564 -1.2612  0.0284
13377TIP3   OH261621   5.910   4.204   1.350 -0.6038 -0.1531  0.1258
13377TIP3    H161622   5.901   4.131   1.288 -3.7351 -0.4829  0.8018
13377TIP3    H261623   5.896   4.282   1.297 -2.1575 -0.3695  0.1816
13378TIP3   OH261624   6.717   2.806   2.731 -0.3710 -0.5635 -0.1003
13378TIP3    H161625   6.725   2.780   2.640  0.3495  3.4264 -1.3588
13378TIP3    H261626   6.622   2.814   2.745 -0.4663 -0.5423 -0.7278
13379TIP3   OH261627   3.922   3.673   1.435 -0.3646 -0.3011 -0.1944
13379TIP3    H161628   3.930   3.585   1.471  1.7341 -0.3651 -0.6964
13379TIP3    H261629   3.827   3.690   1.434 -1.0796 -3.4937 -2.3633
13380TIP3   OH261630   1.215   5.580   1.428  0.0975  0.3379  0.4825
13380TIP3    H161631   1.122   5.595   1.413  0.1638 -0.7934 -1.3102
13380TIP3    H261632   1.240   5.646   1.493 -1.8104  1.0441  0.5508
13381TIP3   OH261633   5.508   0.674   1.111 -0.1940  0.1391  0.2313
13381TIP3    H161634   5.437   0.619   1.144  0.5461 -1.1459 -0.2457
13381TIP3    H261635   5.558   0.697   1.189  0.7016 -1.6626  0.2559
13382TIP3   OH261636   3.735   2.982  12.143  0.2053  0.1825  0.1960
13382TIP3    H161637   3.707   3.051  12.083  1.0186 -1.1795 -1.8559
13382TIP3    H261638   3.802   3.022  12.197 -0.2770  1.3524 -0.0483
13383TIP3   OH261639   2.887   0.085  17.296  0.3519 -0.0372  0.4285
13383TIP3    H161640   2.966   0.075  17.350  0.0142 -0.2289  0.8892
13383TIP3    H261641   2.921   0.105  17.209  0.8988  0.4695  0.7485
13384TIP3   OH261642   1.746   4.172  16.604 -0.0842 -0.8068 -0.6695
13384TIP3    H161643   1.802   4.250  16.602 -2.0101  0.6671 -3.1499
13384TIP3    H261644   1.767   4.129  16.687  2.0232  1.6128  0.1719
13385TIP3   OH261645   2.538   6.211   1.368  0.6522  0.8870  0.3815
13385TIP3    H161646   2.526   6.241   1.458  1.3785  0.1917  0.7173
13385TIP3    H261647   2.632   6.196   1.359  0.3295 -1.5123  0.3357
13386TIP3   OH261648   0.445   3.852   3.043  0.0230  0.8029  0.3841
13386TIP3    H161649   0.455   3.909   2.967 -0.8772 -0.3478 -0.6440
13386TIP3    H261650   0.503   3.779   3.026 -0.2795  0.4754  0.7446
13387TIP3   OH261651   3.758   1.107  11.194 -0.2372  0.2513  0.8348
13387TIP3    H161652   3.730   1.183  11.142  0.7427  0.5243  0.6998
13387TIP3    H261653   3.697   1.037  11.167 -0.8007  0.8360  0.5608
13388TIP3   OH261654   4.575   3.570   2.513 -0.4237  0.3068  0.3437
13388TIP3    H161655   4.594   3.482   2.480 -0.1358 -0.5594  2.6352
13388TIP3    H261656   4.480   3.575   2.513 -0.4500  1.0581 -2.2712
13389TIP3   OH261657   2.348   6.019   5.419 -0.3987 -0.0973  0.1210
13389TIP3    H161658   2.399   6.090   5.458 -0.3066  0.0913 -0.3253
13389TIP3    H261659   2.413   5.964   5.376 -0.0772 -2.3026  3.1504
13390TIP3   OH261660   1.609   6.253  14.278 -0.9425 -0.3271  0.0807
13390TIP3    H161661   1.618   6.158  14.286 -0.4699 -0.3944 -0.9917
13390TIP3    H261662   1.563   6.265  14.195  0.3162  0.4128 -0.5330
13391TIP3   OH261663   1.944   1.901   4.036 -0.3122 -0.6339 -0.0857
13391TIP3    H161664   1.966   1.893   3.943  1.1200 -1.2669  0.2849
13391TIP3    H261665   1.972   1.818   4.074 -3.9312 -1.8141  0.3867
13392TIP3   OH261666   0.237   3.623  12.119 -0.3750 -0.1642  0.1020
13392TIP3    H161667   0.165   3.573  12.080 -1.5181  1.5662 -0.1322
13392TIP3    H261668   0.256   3.691  12.054  0.6693  0.1062  0.6814
13393TIP3   OH261669   4.255   4.294  15.199  0.7814  0.4245 -0.1823
13393TIP3    H161670   4.241   4.324  15.289  1.9043  0.3271  0.0352
13393TIP3    H261671   4.255   4.375  15.147  2.1859  0.6738  0.1883
13394TIP3   OH261672   5.082   5.175   5.829 -0.2540  0.4976 -0.4511
13394TIP3    H161673   5.117   5.087   5.844  1.0777  1.1112  0.2748
13394TIP3    H261674   5.011   5.183   5.892 -0.1164  0.0803 -0.2362
13395TIP3   OH261675   3.220   1.718  14.518  0.0991 -0.0679  0.2212
13395TIP3    H161676   3.142   1.662  14.518 -1.4072  1.9217 -0.2049
13395TIP3    H261677   3.292   1.659  14.497 -1.4913 -1.7261 -0.8801
13396TIP3   OH261678   5.792   5.615  15.483  0.1068 -0.3410  0.1007
13396TIP3    H161679   5.855   5.685  15.504 -0.1779 -0.4391  1.3480
13396TIP3    H261680   5.802   5.552  15.554  1.1204 -2.1502 -1.5546
13397TIP3   OH261681   1.490   3.623  14.215 -0.2856 -0.2270 -0.0481
13397TIP3    H161682   1.529   3.600  14.299  1.0399 -0.3825 -0.6857
13397TIP3    H261683   1.447   3.543  14.185 -0.4882 -0.2587  0.3270
13398TIP3   OH261684   2.933   2.466  14.839 -0.1269 -0.3803  0.6557
13398TIP3    H161685   2.862   2.430  14.893 -0.6696  0.5787  0.5854
13398TIP3    H261686   2.965   2.390  14.790  0.2735 -1.2587  2.1910
13399TIP3   OH261687   0.799   5.498   4.666 -0.3762  0.1573  0.1438
13399TIP3    H161688   0.838   5.574   4.623 -0.0232 -1.6224 -2.9489
13399TIP3    H261689   0.874   5.445   4.693 -0.5664 -1.0222 -1.5306
13400TIP3   OH261690   6.747   0.011   2.112 -0.4830 -0.3289 -0.5097
13400TIP3    H161691   6.736   0.033   2.205  0.8935  1.1484 -0.6508
13400TIP3    H261692   6.672   0.051   2.068 -1.0256 -0.8479 -0.0634
13401TIP3   OH261693   6.020   1.221  15.220 -0.1900 -0.3326 -0.6007
13401TIP3    H161694   5.982   1.231  15.133  0.3202 -2.3772 -1.1111
13401TIP3    H261695   5.959   1.164  15.267  1.0133 -1.7383 -0.6674
13402TIP3   OH261696   5.696   1.025   0.697 -0.9382 -0.2843  0.1494
13402TIP3    H161697   5.732   1.102   0.653  0.0841 -0.2581  1.0140
13402TIP3    H261698   5.613   1.056   0.734 -1.7529 -0.2743 -1.6127
13403TIP3   OH261699   3.689   4.905   1.678  0.2530  0.1109  0.0600
13403TIP3    H161700   3.629   4.965   1.634 -0.6789 -0.9510 -0.1774
13403TIP3    H261701   3.695   4.938   1.767  0.2167  0.8861 -0.2179
13404TIP3   OH261702   6.253   0.477  14.381  0.2787  0.1784 -0.0693
13404TIP3    H161703   6.162   0.503  14.373  0.4537  0.8565  0.0614
13404TIP3    H261704   6.271   0.426  14.301 -0.1252  0.3068 -0.2428
13405TIP3   OH261705   0.751   2.210  14.035 -0.4160 -0.0336  0.1514
13405TIP3    H161706   0.656   2.217  14.034 -0.2960  2.3052  0.4059
13405TIP3    H261707   0.781   2.294  14.069  1.7705 -0.5542 -0.3577
13406TIP3   OH261708   5.833   6.051  17.332  0.4615  0.6561  0.9369
13406TIP3    H161709   5.771   6.110  17.374  1.6292  2.3436  0.4004
13406TIP3    H261710   5.846   6.089  17.245  1.9985  0.1920  0.9405
13407TIP3   OH261711   2.602   5.957   0.936 -0.4573  0.6395  0.5048
13407TIP3    H161712   2.526   5.955   0.995 -1.7307 -0.9494 -1.0789
13407TIP3    H261713   2.564   5.964   0.848  1.3367  1.8578 -0.2302
13408TIP3   OH261714   5.905   5.737  14.821  0.2169 -0.5799 -0.2797
13408TIP3    H161715   5.958   5.777  14.751 -1.3809  0.2680 -1.0611
13408TIP3    H261716   5.815   5.760  14.799 -0.4511 -1.4921  1.3259
13409TIP3   OH261717   3.735   6.405   1.320  0.1248 -0.5281  0.3607
13409TIP3    H161718   3.689   6.480   1.357  2.1380 -0.7664  3.8936
13409TIP3    H261719   3.706   6.331   1.374  0.6425 -1.6612 -0.8569
13410TIP3   OH261720   1.613   1.722   2.174 -0.0485 -0.0157 -0.2880
13410TIP3    H161721   1.548   1.658   2.202 -0.0042 -0.3944 -1.0176
13410TIP3    H261722   1.696   1.689   2.208  0.0178 -0.5146 -0.9237
13411TIP3   OH261723   2.311   0.188  12.426 -0.5804  0.2250  0.6385
13411TIP3    H161724   2.397   0.201  12.466  0.6675 -0.9272 -1.4576
13411TIP3    H261725   2.256   0.255  12.466  0.5563 -0.6044  3.9421
13412TIP3   OH261726   3.422   2.569   4.382  0.2639 -0.4033  0.3372
13412TIP3    H161727   3.463   2.632   4.441 -1.5409  0.4649  0.7607
13412TIP3    H261728   3.365   2.622   4.326 -0.4944 -1.5509 -0.0167
13413TIP3   OH261729   6.569   0.782   1.826 -0.1502 -0.6146 -0.4925
13413TIP3    H161730   6.639   0.833   1.786  1.2089 -0.1754  2.1668
13413TIP3    H261731   6.602   0.692   1.829  0.6761 -0.2937  1.3611
13414TIP3   OH261732   0.248   6.494   0.027 -0.1093  0.7316  0.0676
13414TIP3    H161733   0.166   6.450   0.048 -0.2243  1.1203  0.4493
13414TIP3    H261734   0.223   6.565  -0.032 -0.1244  1.1777  0.6021
13415TIP3   OH261735   5.286   0.548   3.796 -0.4060 -0.6061 -1.0004
13415TIP3    H161736   5.254   0.614   3.735 -1.3408  0.7085  0.8051
13415TIP3    H261737   5.348   0.496   3.745  0.5532  1.7782 -2.4650
13416TIP3   OH261738   3.088   1.000  13.908 -0.2242  0.5135  0.4162
13416TIP3    H161739   3.001   0.996  13.946 -0.3404 -1.8414  0.0546
13416TIP3    H261740   3.147   1.013  13.982 -0.8572  2.5701  0.6168
13417TIP3   OH261741   3.838   0.258  13.712  0.7423 -0.1778 -0.1256
13417TIP3    H161742   3.888   0.184  13.679  1.3350 -0.3748  1.1253
13417TIP3    H261743   3.888   0.335  13.684  1.1227 -0.3303  0.1193
13418TIP3   OH261744   2.008   2.959  14.964 -0.2583  0.2112  0.3989
13418TIP3    H161745   2.070   2.904  15.013  1.3173  2.3860  0.9864
13418TIP3    H261746   1.922   2.928  14.991  0.5357 -2.1064  0.4938
13419TIP3   OH261747   1.112   5.729  17.375  0.0556 -0.4444 -0.2401
13419TIP3    H161748   1.029   5.686  17.357 -0.4369 -0.0598  1.0117
13419TIP3    H261749   1.151   5.678  17.445  0.2106  0.2083  0.1553
13420TIP3   OH261750   1.161   4.764  16.913 -0.2119 -0.0744 -0.2103
13420TIP3    H161751   1.112   4.688  16.881 -1.6541  0.6634  0.1958
13420TIP3    H261752   1.110   4.797  16.987  0.8197  0.8301  0.1306
13421TIP3   OH261753   2.608   2.276   1.635  0.5533  0.2937  0.6015
13421TIP3    H161754   2.568   2.362   1.620 -1.2249 -0.6408 -0.3897
13421TIP3    H261755   2.534   2.218   1.652  1.7182 -1.0671  1.2710
13422TIP3   OH261756   5.465   1.505  13.349 -0.2871  0.3293 -0.3591
13422TIP3    H161757   5.396   1.543  13.295 -0.6462 -2.3665 -1.9494
13422TIP3    H261758   5.546   1.528  13.304 -0.3621  0.7843 -0.2664
13423TIP3   OH261759   1.162   4.623   1.694 -0.4888 -0.2255  0.3130
13423TIP3    H161760   1.212   4.704   1.692  0.8211 -0.9191  2.1652
13423TIP3    H261761   1.134   4.609   1.603 -1.8777  2.9160  0.1417
13424TIP3   OH261762   0.726   1.353   0.844 -0.2490 -0.5796 -0.0378
13424TIP3    H161763   0.680   1.428   0.808  0.2344 -0.0230  0.4878
13424TIP3    H261764   0.786   1.326   0.774  0.2325  0.0980  0.1052
13425TIP3   OH261765   2.228   1.691  11.514 -0.1798  0.5014 -0.3361
13425TIP3    H161766   2.224   1.720  11.422  2.0268  1.3608 -0.2284
13425TIP3    H261767   2.165   1.747  11.559 -0.1035  1.2002 -1.0731
13426TIP3   OH261768   5.798   2.613   1.336  0.4604 -0.1909 -0.2017
13426TIP3    H161769   5.734   2.657   1.280  1.5548  1.9432  0.1008
13426TIP3    H261770   5.772   2.638   1.425  0.3804 -1.2336  0.0791
13427TIP3   OH261771   2.493   1.831   5.540 -0.1472 -0.2576  0.2425
13427TIP3    H161772   2.435   1.803   5.470 -1.2211  0.8091  0.6781
13427TIP3    H261773   2.449   1.804   5.621  0.9305 -1.1968  0.5452
13428TIP3   OH261774   3.417   2.220  11.327  0.3409 -0.0891 -0.3958
13428TIP3    H161775   3.420   2.124  11.328 -2.2152 -0.2216  1.1374
13428TIP3    H261776   3.493   2.245  11.274  3.5176 -2.8044  2.4120
13429TIP3   OH261777   4.017   0.070  12.846 -0.0439  0.2577  0.3865
13429TIP3    H161778   4.051   0.042  12.931 -0.4674 -1.5623 -0.0004
13429TIP3    H261779   4.095   0.084  12.792  0.2120  1.0279  0.9473
13430TIP3   OH261780   1.549   0.174  12.471  0.1508  0.3840 -0.0392
13430TIP3    H161781   1.584   0.240  12.530  2.2831  1.6162 -2.4908
13430TIP3    H261782   1.467   0.211  12.438  1.2781  1.8596 -1.3092
13431TIP3   OH261783   2.987   4.348   4.516 -0.1800 -0.2359  0.4035
13431TIP3    H161784   2.912   4.406   4.521 -0.3925 -0.5372  0.7268
13431TIP3    H261785   2.982   4.310   4.428 -1.1399 -1.2303  0.8668
13432TIP3   OH261786   6.238   2.514  11.121 -0.3916  0.0486 -0.1870
13432TIP3    H161787   6.258   2.606  11.142 -0.2105 -0.0875  0.2488
13432TIP3    H261788   6.321   2.478  11.090  0.1670 -0.5809  1.8509
13433TIP3   OH261789   0.841   3.647   1.231  0.1840 -0.4219 -0.6401
13433TIP3    H161790   0.871   3.636   1.321 -0.5736 -0.9308 -0.4436
13433TIP3    H261791   0.864   3.737   1.209 -1.9690  0.6044  0.9777
13434TIP3   OH261792   0.903   2.371  16.027 -0.3209 -0.3128 -0.3596
13434TIP3    H161793   0.829   2.429  16.044  0.3039  0.2903  0.4217
13434TIP3    H261794   0.933   2.395  15.939  0.8173  1.6159  0.4815
13435TIP3   OH261795   1.318   4.793   6.297  0.4780  0.5794 -0.3624
13435TIP3    H161796   1.287   4.856   6.362 -0.4884 -0.7562  0.5346
13435TIP3    H261797   1.239   4.767   6.250  0.7433 -0.4751 -0.2401
13436TIP3   OH261798   5.251   1.204   6.588 -0.7432  0.4593 -0.0731
13436TIP3    H161799   5.331   1.219   6.638  0.6155 -1.6734 -1.4275
13436TIP3    H261800   5.180   1.210   6.653  0.8297 -1.0872  1.8950
13437TIP3   OH261801   0.803   5.727   5.540  0.4171 -0.2871 -0.1956
13437TIP3    H161802   0.801   5.709   5.634 -1.1346  1.3440  0.1344
13437TIP3    H261803   0.886   5.688   5.510  0.6116 -1.4731  1.6795
13438TIP3   OH261804   6.039   3.461   5.201  0.0760 -0.3167  0.2639
13438TIP3    H161805   6.058   3.431   5.290  0.5970 -0.8291 -0.0099
13438TIP3    H261806   5.945   3.476   5.200  0.0428 -0.4622  0.8549
13439TIP3   OH261807   2.824   6.424  13.508  0.1545  0.0894 -0.3798
13439TIP3    H161808   2.864   6.372  13.439  0.4097 -1.0597  0.6044
13439TIP3    H261809   2.737   6.387  13.520 -0.0855  0.6230 -0.4377
13440TIP3   OH261810   5.708   0.772   5.955  0.8338  0.3417 -0.1330
13440TIP3    H161811   5.658   0.749   6.033  2.1705 -0.5390  0.5105
13440TIP3    H261812   5.799   0.776   5.985  1.2492  1.1414 -1.4101
13441TIP3   OH261813   2.153   5.169   0.494  0.2804 -0.2627 -0.1846
13441TIP3    H161814   2.152   5.223   0.573  2.9042 -1.3717  0.7212
13441TIP3    H261815   2.221   5.209   0.439  0.2378 -0.9719 -0.7649
13442TIP3   OH261816   2.441   2.703  12.577  0.0546 -0.1632  0.4581
13442TIP3    H161817   2.370   2.657  12.621 -0.9370  0.8089 -0.0908
13442TIP3    H261818   2.413   2.794  12.572  2.0037  0.5643  1.5592
13443TIP3   OH261819   4.834   6.536  12.547 -0.1814  0.5499  0.4375
13443TIP3    H161820   4.845   6.506  12.637 -1.5316  0.5667  0.6279
13443TIP3    H261821   4.894   6.610  12.539  3.1528 -1.9674 -0.0018
13444TIP3   OH261822   5.394   3.631   6.319  0.9668  0.9678 -0.6344
13444TIP3    H161823   5.385   3.537   6.304 -1.2144  1.1059 -0.5465
13444TIP3    H261824   5.375   3.671   6.234 -2.9451  1.4187  0.2446
13445TIP3   OH261825   0.536   5.004  11.810  0.4828 -0.8055 -0.2873
13445TIP3    H161826   0.559   4.983  11.900  0.1929  0.1061  0.0110
13445TIP3    H261827   0.616   5.041  11.773 -0.1068  1.3638  0.4337
13446TIP3   OH261828   4.372   4.001  10.619  0.0095  0.9400 -0.1683
13446TIP3    H161829   4.316   4.077  10.606  0.2390  1.0730 -0.3907
13446TIP3    H261830   4.447   4.016  10.560  0.9292  1.4079  1.0890
13447TIP3   OH261831   3.801   1.536   3.921  0.0637  0.6250 -0.0150
13447TIP3    H161832   3.876   1.589   3.895  0.0124  0.5823 -0.2479
13447TIP3    H261833   3.829   1.446   3.906  0.8164  0.4546  2.0449
13448TIP3   OH261834   2.428   4.790   2.174  0.3306  0.2431  0.0304
13448TIP3    H161835   2.512   4.744   2.176  0.3394  0.0216 -2.3240
13448TIP3    H261836   2.382   4.752   2.099 -2.1736 -0.0848  1.5932
13449TIP3   OH261837   3.093   0.088   6.153  0.3441 -0.5606 -0.6643
13449TIP3    H161838   3.057   0.158   6.098  1.3336 -0.6014 -1.3937
13449TIP3    H261839   3.021   0.064   6.211  0.4171  2.0712  0.6392
13450TIP3   OH261840   2.505   1.786   6.405  0.0960 -0.4484 -0.8996
13450TIP3    H161841   2.418   1.789   6.364  0.3646  2.5842 -1.4113
13450TIP3    H261842   2.490   1.814   6.495  0.4175 -1.0517 -0.6510
13451TIP3   OH261843   2.397   2.753   2.650 -0.0362 -0.1716 -0.3359
13451TIP3    H161844   2.444   2.726   2.729  0.0164 -0.0060 -0.3109
13451TIP3    H261845   2.356   2.673   2.618 -1.1711 -0.0088  0.6129
13452TIP3   OH261846   6.324   4.795  17.370  0.1114 -0.1876 -0.1974
13452TIP3    H161847   6.252   4.857  17.362  0.0711 -0.0184  1.1778
13452TIP3    H261848   6.363   4.815  17.456 -1.2003 -3.3498  1.3112
13453TIP3   OH261849   1.272   4.586   0.018  0.0426 -0.5224  0.4299
13453TIP3    H161850   1.259   4.494   0.042 -1.4591 -0.2557  0.7636
13453TIP3    H261851   1.183   4.623   0.017  0.4449  0.5173 -1.4045
13454TIP3   OH261852   1.981   6.503  16.541 -0.5795  0.7332 -0.5692
13454TIP3    H161853   1.934   6.440  16.487 -0.4162  0.2974 -0.2005
13454TIP3    H261854   1.939   6.587  16.521  0.3794  0.8016 -2.4105
13455TIP3   OH261855   1.481   4.155  16.691  0.3973 -0.0385 -0.3042
13455TIP3    H161856   1.409   4.207  16.654  0.0254  0.0568  0.5291
13455TIP3    H261857   1.559   4.187  16.645  0.2489  1.5653  0.4796
13456TIP3   OH261858   1.775   4.634   0.330  0.0153  0.3404  0.3532
13456TIP3    H161859   1.829   4.713   0.329  0.4459  0.0461  0.5944
13456TIP3    H261860   1.820   4.574   0.388 -1.3802  0.6619  1.8532
13457TIP3   OH261861   3.684   6.402   1.036 -0.1319 -0.4054 -0.1565
13457TIP3    H161862   3.610   6.457   1.008  0.7023  1.9731  1.9299
13457TIP3    H261863   3.679   6.403   1.132  1.9572 -1.1237  0.0047
13458TIP3   OH261864   3.036   0.306  16.000 -0.3274 -0.3451  0.2233
13458TIP3    H161865   2.947   0.329  15.975 -1.0173 -0.9785  1.9588
13458TIP3    H261866   3.051   0.220  15.960 -0.6863 -0.4687  0.3530
13459TIP3   OH261867   5.829   5.159   4.644  0.0385 -0.1867  0.4804
13459TIP3    H161868   5.850   5.240   4.692  1.5095 -0.5699  0.5277
13459TIP3    H261869   5.914   5.126   4.615 -0.7225 -0.5728 -1.4520
13460TIP3   OH261870   5.468   4.318  16.274 -0.4840 -0.1442  0.5453
13460TIP3    H161871   5.382   4.277  16.267 -0.7050  0.1877  1.1845
13460TIP3    H261872   5.467   4.359  16.361 -0.7484  2.2383 -0.5011
13461TIP3   OH261873   0.358   4.888  11.624  0.1145 -0.3420  0.2076
13461TIP3    H161874   0.416   4.812  11.624 -0.4601 -0.7956 -1.0662
13461TIP3    H261875   0.397   4.947  11.688  1.4132 -1.0599  0.1091
13462TIP3   OH261876   3.768   2.623   3.420  0.0012 -0.2636  0.0508
13462TIP3    H161877   3.694   2.570   3.452  0.3875 -0.4459  0.6606
13462TIP3    H261878   3.842   2.564   3.422  0.3436  0.1673  0.2925
13463TIP3   OH261879   3.603   0.856  16.390  0.8481  0.0377  0.2497
13463TIP3    H161880   3.550   0.891  16.318  1.5054  0.2342 -0.1503
13463TIP3    H261881   3.571   0.767  16.402  0.5874  0.0765 -0.1499
13464TIP3   OH261882   3.540   1.078   5.405  0.0586  0.2523 -0.0762
13464TIP3    H161883   3.512   1.134   5.332 -1.3871  0.9898  0.9973
13464TIP3    H261884   3.512   0.990   5.380 -0.9827  0.5946 -0.1479
13465TIP3   OH261885   6.211   2.205  10.857  0.0990  0.0817 -0.1667
13465TIP3    H161886   6.153   2.198  10.781  0.2262  0.9181 -0.3465
13465TIP3    H261887   6.250   2.292  10.850  1.1183 -0.3313  0.1385
13466TIP3   OH261888   0.418   1.085   2.482  0.0339  0.3226 -0.6427
13466TIP3    H161889   0.327   1.097   2.509  0.5593  1.1755  0.8781
13466TIP3    H261890   0.417   1.004   2.431 -1.2068 -1.0133  1.3509
13467TIP3   OH261891   2.240   0.010   4.129 -0.1670 -0.4308  0.8084
13467TIP3    H161892   2.196   0.092   4.108 -1.8116 -1.0694  1.5247
13467TIP3    H261893   2.235  -0.041   4.048  0.1197 -0.1309  0.6024
13468TIP3   OH261894   5.374   6.643  11.880  0.3924  0.4264  0.0161
13468TIP3    H161895   5.397   6.571  11.938  0.3472  0.6182  0.2716
13468TIP3    H261896   5.439   6.711  11.899 -0.5364  1.0855  0.9517
13469TIP3   OH261897   3.098   5.839   5.543 -0.4608  0.3682  0.3255
13469TIP3    H161898   3.021   5.882   5.507 -1.3369 -1.4543 -0.1175
13469TIP3    H261899   3.072   5.748   5.553  1.9772 -0.5681 -0.8812
13470TIP3   OH261900   3.557   0.099   1.926  0.6155 -0.0068 -0.1043
13470TIP3    H161901   3.470   0.125   1.955  0.9570  1.3868 -0.2717
13470TIP3    H261902   3.617   0.135   1.992  1.1509  0.1326 -0.6543
13471TIP3   OH261903   4.349   1.553  11.616 -0.0474  0.4054  0.3776
13471TIP3    H161904   4.332   1.459  11.606 -2.0311  0.6606  0.8799
13471TIP3    H261905   4.371   1.583  11.527 -0.7517 -0.3093 -0.0529
13472TIP3   OH261906   3.758   6.036   4.168  0.0792  0.0314  0.1050
13472TIP3    H161907   3.785   5.998   4.252 -1.5304  0.1189  0.6921
13472TIP3    H261908   3.822   6.105   4.151  1.3610 -1.0366  0.4446
13473TIP3   OH261909   1.774   0.734  11.277 -0.1527 -0.8946 -0.0007
13473TIP3    H161910   1.790   0.690  11.361 -0.4794 -1.6759 -0.3387
13473TIP3    H261911   1.823   0.681  11.213  1.5442  0.6798 -0.0839
13474TIP3   OH261912   6.151   4.092  15.623  0.0727  0.3818  0.5519
13474TIP3    H161913   6.219   4.157  15.642 -0.2857  1.4367 -1.4303
13474TIP3    H261914   6.071   4.144  15.616 -0.5492 -0.5349  0.7411
13475TIP3   OH261915   0.978   0.329  12.107 -0.9890 -0.3293 -0.2006
13475TIP3    H161916   1.036   0.289  12.043 -0.1962 -0.8455  0.7996
13475TIP3    H261917   0.890   0.318  12.071 -0.6950 -1.9717 -0.5039
13476TIP3   OH261918   6.175   0.075  12.587  0.4184  0.0210 -0.1620
13476TIP3    H161919   6.262   0.115  12.583  0.5519 -0.3402 -0.9613
13476TIP3    H261920   6.135   0.112  12.666  1.7778 -0.7889  0.9543
13477TIP3   OH261921   4.629   0.584  13.243 -0.2804 -0.6015 -0.2803
13477TIP3    H161922   4.573   0.595  13.166 -0.6124 -2.7012 -0.3987
13477TIP3    H261923   4.672   0.499  13.230  0.9939 -0.2135  1.0390
13478TIP3   OH261924   4.445   5.288  12.599  0.5029  0.1092 -0.5508
13478TIP3    H161925   4.510   5.217  12.591  1.1996  0.7151 -0.4059
13478TIP3    H261926   4.461   5.325  12.686  0.2926  0.5829 -0.7115
13479TIP3   OH261927   3.995   5.587  16.339  0.2235  0.0051  0.5422
13479TIP3    H161928   3.999   5.647  16.414  1.8919  0.7661 -0.0929
13479TIP3    H261929   3.902   5.576  16.321 -0.1520  1.4048  1.4821
13480TIP3   OH261930   3.550   0.782  17.101 -0.0639  0.4172  0.0384
13480TIP3    H161931   3.577   0.784  17.193 -0.0021  2.3355  0.0320
13480TIP3    H261932   3.521   0.692  17.086  0.2690 -0.0307  1.8268
13481TIP3   OH261933   2.244   5.532  15.320  0.3131  0.2250  0.1782
13481TIP3    H161934   2.212   5.449  15.355 -0.3805  1.3848  2.4976
13481TIP3    H261935   2.171   5.566  15.269 -0.2823  0.4795  1.1810
13482TIP3   OH261936   2.437   4.157  13.818 -0.5624  0.4036  0.2212
13482TIP3    H161937   2.503   4.226  13.828 -1.1053  0.9501  0.0814
13482TIP3    H261938   2.358   4.203  13.788 -1.1397 -0.1830  0.8151
13483TIP3   OH261939   0.001   4.028  11.661 -0.3594 -0.0260 -0.4434
13483TIP3    H161940   0.008   3.933  11.660 -0.4031 -0.0837  1.3554
13483TIP3    H261941  -0.054   4.049  11.586 -2.3480 -1.6296  0.4648
13484TIP3   OH261942   2.290   0.237  13.976  0.5838  0.0399  0.3920
13484TIP3    H161943   2.292   0.143  13.955 -2.1072  0.0670 -0.4695
13484TIP3    H261944   2.277   0.280  13.892  2.8417  1.3387  0.6472
13485TIP3   OH261945   4.521   6.059  12.984 -0.0688  0.0352 -0.1495
13485TIP3    H161946   4.472   6.120  12.928 -1.0986 -0.8485 -0.2449
13485TIP3    H261947   4.532   5.980  12.931  2.1229  0.4369 -0.3796
13486TIP3   OH261948   2.339   4.469   2.924 -0.2368 -0.3933  0.4783
13486TIP3    H161949   2.385   4.408   2.868  1.0100 -0.8226  1.9293
13486TIP3    H261950   2.348   4.434   3.013 -0.2161  1.4264  1.2501
13487TIP3   OH261951   2.435   1.103  15.525  0.3636 -0.6872  0.3458
13487TIP3    H161952   2.343   1.078  15.521  0.7114 -2.1441  0.9445
13487TIP3    H261953   2.478   1.030  15.569  1.9845 -0.4871 -0.8253
13488TIP3   OH261954   3.688   6.652  12.591  0.4618 -0.4439 -0.0663
13488TIP3    H161955   3.626   6.592  12.551 -0.6670 -0.1047  1.1372
13488TIP3    H261956   3.669   6.737  12.551  1.0793 -0.5941 -0.6953
13489TIP3   OH261957   3.309   3.094   2.515  0.1674  0.5468  0.2246
13489TIP3    H161958   3.394   3.071   2.554  0.4464 -0.2267 -0.7969
13489TIP3    H261959   3.245   3.042   2.564  0.6594 -1.5558 -1.2213
13490TIP3   OH261960   2.103   1.336  11.276 -0.1500  0.6514 -0.0619
13490TIP3    H161961   2.007   1.340  11.284 -0.1486  0.8866 -0.1529
13490TIP3    H261962   2.134   1.411  11.326 -0.0861  1.4666 -1.2978
13491TIP3   OH261963   2.868   2.740  15.226  0.0403 -0.8048 -0.2463
13491TIP3    H161964   2.849   2.834  15.222  2.2164 -0.0390  2.8541
13491TIP3    H261965   2.867   2.711  15.135  0.3859  2.4861 -1.4414
13492TIP3   OH261966   6.518   6.493  11.788 -0.1860  0.0330 -0.5097
13492TIP3    H161967   6.586   6.557  11.808 -0.9723  0.7124  0.0845
13492TIP3    H261968   6.561   6.408  11.795  0.1554  0.3440  1.8396
13493TIP3   OH261969   6.011   0.670   0.650  0.1647  0.4457  0.0952
13493TIP3    H161970   5.945   0.632   0.592 -1.2306 -0.7698  2.3358
13493TIP3    H261971   6.043   0.747   0.602 -2.1113  0.4820 -1.5455
13494TIP3   OH261972   1.137   0.257  16.775  0.5469  1.1388  0.8694
13494TIP3    H161973   1.134   0.262  16.680  1.2744  2.3165  0.8765
13494TIP3    H261974   1.046   0.246  16.802  0.6176 -3.1983 -0.0589
13495TIP3   OH261975   3.068   6.089  16.055 -0.6832  0.7548  0.5142
13495TIP3    H161976   3.064   6.116  15.964 -0.3185 -0.0353  0.2629
13495TIP3    H261977   3.065   5.994  16.053 -1.2993  0.7368  1.3605
13496TIP3   OH261978   0.724   6.118  13.621 -0.3004 -0.5868  0.4025
13496TIP3    H161979   0.662   6.190  13.608 -1.1141 -1.6587 -2.4690
13496TIP3    H261980   0.711   6.092  13.712 -1.2544  1.6937  1.0036
13497TIP3   OH261981   3.581   5.040  15.167 -0.0414 -0.3419  0.0134
13497TIP3    H161982   3.508   5.019  15.108 -0.0199  0.7430 -0.4246
13497TIP3    H261983   3.596   5.133  15.154 -0.4682  0.0953  2.2435
13498TIP3   OH261984   5.251   3.289   2.703  0.4514 -0.2181  0.3522
13498TIP3    H161985   5.337   3.314   2.739  0.3907 -0.3424  0.5823
13498TIP3    H261986   5.263   3.294   2.608  0.7088 -0.2173  0.3832
13499TIP3   OH261987   1.269   5.589   5.201 -0.2273 -0.1445 -0.0608
13499TIP3    H161988   1.362   5.569   5.195 -0.2984 -0.2854 -0.7129
13499TIP3    H261989   1.226   5.504   5.194 -0.4123 -0.0781  0.2283
13500TIP3   OH261990   0.471   4.136  12.429 -0.1062 -0.0813 -0.4057
13500TIP3    H161991   0.481   4.231  12.421  1.0454 -0.2680 -1.5925
13500TIP3    H261992   0.381   4.119  12.401  0.0550  0.5564 -1.3747
13501TIP3   OH261993   0.113   5.395  15.297  0.4971 -0.0025  0.1248
13501TIP3    H161994   0.084   5.308  15.324  1.3620 -0.2279  0.3631
13501TIP3    H261995   0.033   5.439  15.266 -0.3771 -0.0861  2.0743
13502TIP3   OH261996   6.755   3.250  15.583  0.5316 -0.2397  0.0889
13502TIP3    H161997   6.739   3.341  15.609  1.5209 -0.2604  0.8370
13502TIP3    H261998   6.695   3.199  15.637 -0.4123 -0.0092 -0.7190
13503TIP3   OH261999   3.975   2.823   4.188  0.2751  0.3631 -0.0072
13503TIP3    H162000   4.015   2.895   4.139  2.1336 -0.4355  0.2532
13503TIP3    H262001   3.917   2.865   4.251  1.1995  1.6249  0.0201
13504TIP3   OH262002   5.116   5.528  15.315  0.0944 -0.4542 -0.0559
13504TIP3    H162003   5.112   5.591  15.386 -1.1699 -0.1151 -0.4143
13504TIP3    H262004   5.041   5.471  15.328 -2.2964  1.6906 -2.9806
13505TIP3   OH262005   3.687   4.627  16.873  0.0217  0.5420 -0.1616
13505TIP3    H162006   3.662   4.535  16.874  0.9699  0.2515 -0.9426
13505TIP3    H262007   3.729   4.642  16.957 -0.0950  0.2477 -0.0496
13506TIP3   OH262008   5.837   4.326   1.764 -0.1538  0.5065 -0.4254
13506TIP3    H162009   5.896   4.271   1.712  0.4831 -1.1828  1.9208
13506TIP3    H262010   5.895   4.388   1.808 -0.5173  0.9310 -0.5335
13507TIP3   OH262011   3.100   1.969  12.069 -0.4820  0.7860  0.5512
13507TIP3    H162012   3.049   2.042  12.104 -1.4047 -0.2072  1.3921
13507TIP3    H262013   3.176   2.009  12.027 -0.7162  2.1843  1.4165
13508TIP3   OH262014   3.186   5.971   1.451  0.3760 -0.0673 -0.0892
13508TIP3    H162015   3.135   5.945   1.528  2.7933  1.2820  2.1391
13508TIP3    H262016   3.174   6.066   1.446  2.4255  0.2470  0.3829
13509TIP3   OH262017   3.600   4.742   0.469  0.0357  0.8556  0.1425
13509TIP3    H162018   3.612   4.732   0.375 -0.0122  0.5665  0.1663
13509TIP3    H262019   3.561   4.829   0.479 -0.9112  0.4818 -0.1866
13510TIP3   OH262020   2.651   0.599   1.427 -0.2550  0.3682  0.1055
13510TIP3    H162021   2.573   0.578   1.477 -0.0577  1.2281  0.7971
13510TIP3    H262022   2.643   0.547   1.347 -1.1414 -0.1421  0.5126
13511TIP3   OH262023   4.879   4.989   2.184  0.7386 -0.2398 -0.5518
13511TIP3    H162024   4.789   4.970   2.211  0.0338  2.1343 -0.9832
13511TIP3    H262025   4.929   4.988   2.266  0.0521 -0.3103 -0.1235
13512TIP3   OH262026   3.328   0.744   2.603 -0.5370  0.0701 -0.1464
13512TIP3    H162027   3.349   0.654   2.631 -1.0668 -0.6076 -1.7835
13512TIP3    H262028   3.305   0.790   2.684  3.1302 -0.2425  1.2858
13513TIP3   OH262029   1.919   1.290   2.822 -0.0572  0.2590  0.0041
13513TIP3    H162030   1.853   1.342   2.776 -0.9714 -0.4317  0.5138
13513TIP3    H262031   1.870   1.243   2.889  0.8233 -0.8839 -0.1244
13514TIP3   OH262032   1.812   1.123   0.761  0.0775 -0.2973  0.0999
13514TIP3    H162033   1.804   1.088   0.672  1.3474 -0.1663 -0.0915
13514TIP3    H262034   1.742   1.081   0.810  0.2560 -1.4983 -0.6353
13515TIP3   OH262035   4.775   1.575   2.588 -0.6926 -0.0982 -0.2552
13515TIP3    H162036   4.737   1.661   2.575 -0.8341  0.4308  2.8484
13515TIP3    H262037   4.707   1.525   2.634  0.1247 -1.1904 -0.1786
13516TIP3   OH262038   6.616   5.576   0.599  0.3472  0.4372  0.3312
13516TIP3    H162039   6.697   5.613   0.565  0.2724  1.1799  0.9343
13516TIP3    H262040   6.594   5.505   0.539  1.4433  0.2307  0.1657
13517TIP3   OH262041   2.520   1.807   1.947 -0.6094  0.1437 -0.1309
13517TIP3    H162042   2.514   1.889   1.998  1.3431  0.5903 -0.5330
13517TIP3    H262043   2.528   1.836   1.856 -0.4783 -0.5154 -0.3332
13518TIP3   OH262044   4.874   6.044  16.676  0.3041 -0.9016 -0.3452
13518TIP3    H162045   4.870   6.109  16.746  1.3080 -0.7896 -0.3813
13518TIP3    H262046   4.942   5.983  16.703  0.9401 -0.6725 -1.3702
13519TIP3   OH262047   5.164   2.453   2.544  0.5123  0.4422 -0.9956
13519TIP3    H162048   5.134   2.533   2.502 -0.0399 -0.0236 -1.5053
13519TIP3    H262049   5.088   2.420   2.592  1.4050  1.5470  1.3643
13520TIP3   OH262050   0.890   0.894   3.962 -0.0134  0.5186 -0.5434
13520TIP3    H162051   0.893   0.982   3.999  1.4579 -0.0551  0.8322
13520TIP3    H262052   0.852   0.840   4.031  1.8344 -0.4010 -0.1865
13521TIP3   OH262053   5.620   3.136  15.928  0.0794 -0.2198  0.2668
13521TIP3    H162054   5.710   3.149  15.958  0.3260 -0.8707 -0.1861
13521TIP3    H262055   5.627   3.075  15.856 -0.7171 -0.1513  0.1220
13522TIP3   OH262056   4.078   6.221   0.908  0.2454  0.0789 -0.0079
13522TIP3    H162057   3.984   6.238   0.902  0.0345 -0.9787  0.0963
13522TIP3    H262058   4.114   6.256   0.827 -0.1984  0.6967  0.0518
13523TIP3   OH262059   5.234   2.277  10.969  0.6877  0.9645  0.0300
13523TIP3    H162060   5.213   2.366  10.998 -0.3062  1.5938 -2.4044
13523TIP3    H262061   5.223   2.280  10.874  1.2938 -1.6124 -0.1741
13524TIP3   OH262062   3.133   6.157   3.678 -0.1838 -0.1984  0.5019
13524TIP3    H162063   3.073   6.210   3.626  0.0655 -0.2342  0.1739
13524TIP3    H262064   3.105   6.067   3.661 -0.1561 -0.2058  0.4967
13525TIP3   OH262065   3.142   1.611  13.984  0.6205  0.2741  0.0351
13525TIP3    H162066   3.059   1.623  14.029  1.4213 -0.0201  1.6674
13525TIP3    H262067   3.132   1.660  13.902 -1.4017 -0.3863 -0.1735
13526TIP3   OH262068   6.123   4.652  11.061 -0.1244  0.4528 -0.0774
13526TIP3    H162069   6.162   4.701  10.989  0.4473  0.0889 -0.0210
13526TIP3    H262070   6.070   4.585  11.019  0.6968 -0.1500 -0.1756
13527TIP3   OH262071   0.804   2.509  13.045  0.4601  0.0808 -0.7561
13527TIP3    H162072   0.784   2.567  12.972 -0.2371  0.9944  0.1329
13527TIP3    H262073   0.724   2.508  13.098  1.0655 -0.2643  0.1851
13528TIP3   OH262074   5.443   1.933   3.010  0.0519 -0.0788  0.2695
13528TIP3    H162075   5.461   2.027   3.015 -1.0500  0.2265 -0.9420
13528TIP3    H262076   5.396   1.913   3.090 -0.6949  0.6599  0.0363
13529TIP3   OH262077   4.075   2.621   6.480  0.5737  0.0645 -0.3188
13529TIP3    H162078   4.037   2.699   6.440  0.2059 -0.3970 -0.8820
13529TIP3    H262079   4.094   2.647   6.571 -1.1189  0.3117 -0.0062
13530TIP3   OH262080   1.294   1.218  16.701  0.1875 -0.0236 -0.1606
13530TIP3    H162081   1.325   1.244  16.788 -1.7778 -0.0700  0.5973
13530TIP3    H262082   1.365   1.243  16.642  1.4654  0.2304  1.4169
13531TIP3   OH262083   4.109   1.309   0.138 -0.0846 -0.6235  0.5897
13531TIP3    H162084   4.095   1.403   0.149  0.1753 -0.2494 -1.8343
13531TIP3    H262085   4.190   1.291   0.185 -0.5510  0.1742  1.7570
13532TIP3   OH262086   1.009   5.520  15.183  0.1329  0.3500 -0.2001
13532TIP3    H162087   0.992   5.576  15.107 -2.5427  1.1543  0.8614
13532TIP3    H262088   1.009   5.431  15.148 -0.6926  0.7235 -1.2194
13533TIP3   OH262089   2.200   4.292   2.522 -0.2041 -0.2310  0.5596
13533TIP3    H162090   2.127   4.345   2.553 -0.7937 -0.7286  0.0280
13533TIP3    H262091   2.166   4.245   2.446  1.2920  1.2718 -1.1710
13534TIP3   OH262092   2.543   4.514  16.920  0.1308  0.4210 -0.4076
13534TIP3    H162093   2.516   4.590  16.869  0.1523  1.7653  1.4463
13534TIP3    H262094   2.580   4.551  17.000  1.8069 -1.5273 -0.1927
13535TIP3   OH262095   1.128   3.560  15.369  0.2320 -0.0277 -0.1272
13535TIP3    H162096   1.054   3.614  15.343  1.4809  1.0618 -1.5976
13535TIP3    H262097   1.098   3.515  15.448 -1.2605  1.9806  0.5365
13536TIP3   OH262098   1.603   0.793  13.657  0.9045  0.6831  0.0631
13536TIP3    H162099   1.588   0.853  13.730  2.3406 -0.5027  1.4156
13536TIP3    H262100   1.696   0.804  13.636  0.8010  0.0990 -0.7475
13537TIP3   OH262101   4.929   5.271   5.008 -0.0490  0.0187  0.0911
13537TIP3    H162102   4.917   5.237   4.919  0.3493  0.4605 -0.1324
13537TIP3    H262103   4.951   5.363   4.996  1.3675 -0.2384  0.5875
13538TIP3   OH262104   5.396   0.010   6.057  0.1798 -0.0132  0.1297
13538TIP3    H162105   5.456   0.009   5.982 -0.3935  1.9154 -0.4277
13538TIP3    H262106   5.440   0.066   6.121 -0.5720  0.6479  0.0883
13539TIP3   OH262107   0.176   2.047   0.975 -0.4579 -0.5295  0.2803
13539TIP3    H162108   0.213   2.014   0.893  1.0898  1.1036  0.2581
13539TIP3    H262109   0.126   1.973   1.011 -0.0736 -1.6852 -1.4712
13540TIP3   OH262110   6.061   4.163  12.724  0.1726 -0.1789 -0.0273
13540TIP3    H162111   6.018   4.246  12.703 -1.8308 -1.2229 -0.3335
13540TIP3    H262112   6.154   4.180  12.713 -0.2534  1.7491 -1.0546
13541TIP3   OH262113   4.755   0.971  14.034 -0.4052  0.0248 -0.5135
13541TIP3    H162114   4.706   0.899  14.073 -0.9949 -0.2933 -1.8127
13541TIP3    H262115   4.820   0.929  13.978  1.6258  0.4224  1.3773
13542TIP3   OH262116   0.239   0.544  10.957 -0.1972  0.3998  0.2826
13542TIP3    H162117   0.147   0.522  10.973  0.2013 -3.0359 -1.2981
13542TIP3    H262118   0.288   0.472  10.997  1.6889  1.0194 -0.7867
13543TIP3   OH262119   6.366   0.945   2.641  0.2044  0.3977 -0.5171
13543TIP3    H162120   6.367   1.040   2.640  0.8046  0.4247  0.5618
13543TIP3    H262121   6.440   0.920   2.585 -0.1612  0.5444 -1.0779
13544TIP3   OH262122   1.746   5.184  16.620  0.3753  0.2797 -0.0880
13544TIP3    H162123   1.662   5.225  16.643  0.5017  1.7408 -2.0056
13544TIP3    H262124   1.811   5.234  16.669  0.2960  0.5252 -0.2307
13545TIP3   OH262125   5.290   4.697  13.491 -0.2094 -0.1471  0.2898
13545TIP3    H162126   5.242   4.632  13.440  1.1345 -1.9040  1.1793
13545TIP3    H262127   5.363   4.723  13.434  0.9527 -1.6704  1.0362
13546TIP3   OH262128   6.463   1.030   1.361  0.1669  0.3169 -0.0850
13546TIP3    H162129   6.545   0.999   1.401  0.3239  0.6408 -0.1493
13546TIP3    H262130   6.450   1.118   1.398 -0.6940 -0.1348  0.7069
13547TIP3   OH262131   1.020   3.566   2.622  0.3043  0.4461  0.2812
13547TIP3    H162132   1.017   3.510   2.700  1.8150  2.2904  1.7465
13547TIP3    H262133   1.013   3.504   2.549  0.1739 -1.4772  1.8203
13548TIP3   OH262134   4.325   4.561   5.246 -0.2081 -0.1281  0.6269
13548TIP3    H162135   4.344   4.522   5.161  0.3400  0.7809  0.3256
13548TIP3    H262136   4.267   4.498   5.289 -0.4808 -0.5928 -0.4083
13549TIP3   OH262137   0.923   2.075   3.233  0.5551 -0.1008  0.0848
13549TIP3    H162138   0.899   2.137   3.163 -1.3714 -0.9291 -0.0353
13549TIP3    H262139   1.013   2.049   3.211  0.2805  0.2660 -1.6437
13550TIP3   OH262140   1.868   4.269   4.712  0.0953  0.5126 -0.3939
13550TIP3    H162141   1.898   4.329   4.781  0.0440 -0.0993  0.1668
13550TIP3    H262142   1.774   4.257   4.730 -0.2606  1.5217 -1.4632
13551TIP3   OH262143   1.641   3.588   4.195 -0.2537 -0.0877  0.7423
13551TIP3    H162144   1.624   3.499   4.165 -2.6536 -0.1122  1.9054
13551TIP3    H262145   1.663   3.636   4.115 -3.3525 -0.8145 -0.7183
13552TIP3   OH262146   2.415   3.837   0.383 -0.6272 -0.9216  0.0691
13552TIP3    H162147   2.322   3.812   0.380 -1.2815  1.3412 -0.8840
13552TIP3    H262148   2.445   3.827   0.293  0.4233 -2.6987  0.5684
13553TIP3   OH262149   4.687   6.688   3.128  0.1587  0.7146 -0.0528
13553TIP3    H162150   4.738   6.608   3.121 -0.5132  0.3971 -3.1763
13553TIP3    H262151   4.742   6.756   3.090  0.2079  1.4945  1.3447
13554TIP3   OH262152   4.284   2.394  12.546  0.0764  0.3168  0.0062
13554TIP3    H162153   4.290   2.485  12.515 -0.9684  0.6209  0.6300
13554TIP3    H262154   4.375   2.364  12.548  0.2912  0.7317 -1.9516
13555TIP3   OH262155   4.283   4.647  11.486  0.4506  0.3758  0.1765
13555TIP3    H162156   4.294   4.684  11.399  0.4559 -1.7244 -0.7671
13555TIP3    H262157   4.371   4.643  11.522  0.9506 -1.8763 -1.1212
13556TIP3   OH262158   4.002   0.543  11.001 -0.4360  0.5373 -0.4574
13556TIP3    H162159   3.976   0.484  11.072 -1.2420  1.2986 -0.1074
13556TIP3    H262160   3.943   0.618  11.009  0.4567  1.3192 -1.0104
13557TIP3   OH262161   3.624   1.593  11.931 -0.3993  0.4179  0.2228
13557TIP3    H162162   3.607   1.583  12.024 -1.0062  1.3019  0.2175
13557TIP3    H262163   3.539   1.574  11.889 -0.7383  2.2089  0.0139
13558TIP3   OH262164   2.981   2.554   2.241  0.5056 -0.1981 -0.1240
13558TIP3    H162165   2.932   2.506   2.308 -0.1287 -0.3188 -0.6566
13558TIP3    H262166   3.073   2.544   2.266  0.3414 -1.0871  0.1743
13559TIP3   OH262167   2.454   1.475  14.121  0.7306  0.2762  0.1949
13559TIP3    H162168   2.385   1.423  14.081  0.4373 -0.5882  1.7299
13559TIP3    H262169   2.418   1.502  14.206  1.8496  0.7647  0.5344
13560TIP3   OH262170   3.385   4.630   3.312 -0.2383 -0.4475 -0.1650
13560TIP3    H162171   3.404   4.625   3.218  0.8093 -0.3852  0.0279
13560TIP3    H262172   3.380   4.723   3.331  1.1062 -0.4160  0.1171
13561TIP3   OH262173   0.533   1.094   5.080 -0.3063  0.3857  0.3987
13561TIP3    H162174   0.558   1.026   5.142 -1.5957  0.4037  0.9742
13561TIP3    H262175   0.611   1.148   5.071  1.1660 -1.8163 -1.0264
13562TIP3   OH262176   1.285   1.022  16.965  0.4028  0.2344 -0.4129
13562TIP3    H162177   1.361   1.034  16.909  1.6881 -1.6869  0.7741
13562TIP3    H262178   1.255   0.933  16.947 -1.7515  1.0102 -0.9947
13563TIP3   OH262179   5.164   6.255  16.548 -0.0553  0.2137 -0.0952
13563TIP3    H162180   5.126   6.323  16.603  2.0976  2.0897 -0.7921
13563TIP3    H262181   5.208   6.196  16.610 -2.4774 -1.0602  0.5643
13564TIP3   OH262182   0.238   5.060  14.669 -0.2654  0.2273 -0.4465
13564TIP3    H162183   0.314   5.035  14.722  0.0599  0.4346 -0.8185
13564TIP3    H262184   0.270   5.128  14.610 -0.9333  0.9113 -0.0443
13565TIP3   OH262185   3.604   3.635   1.407 -0.1277 -0.0931  0.0461
13565TIP3    H162186   3.588   3.583   1.486  0.3828 -1.4735 -0.7108
13565TIP3    H262187   3.537   3.606   1.345  1.7272 -1.8619 -1.2745
13566TIP3   OH262188   4.478   1.990   4.783  0.0480 -0.1701  0.1214
13566TIP3    H162189   4.477   1.957   4.693  1.0759  0.2803 -0.0654
13566TIP3    H262190   4.470   2.084   4.774 -2.4256 -0.2690  0.6365
13567TIP3   OH262191   3.132   2.401  14.023 -0.1491  0.4326 -0.6876
13567TIP3    H162192   3.069   2.429  14.089 -1.9572 -3.3239 -0.6271
13567TIP3    H262193   3.086   2.336  13.970  3.6846 -2.8782 -0.4150
13568TIP3   OH262194   0.518   6.735   3.756  0.1973 -0.2445 -0.0108
13568TIP3    H162195   0.444   6.731   3.695  0.3549 -1.0071 -0.1698
13568TIP3    H262196   0.486   6.787   3.829 -0.8004 -1.2468  0.3044
13569TIP3   OH262197   0.596   0.463   2.379 -0.0917  0.0342 -0.0456
13569TIP3    H162198   0.608   0.442   2.472  0.8398  1.0412  0.0860
13569TIP3    H262199   0.672   0.516   2.357  1.3867 -2.7605 -2.2489
13570TIP3   OH262200   2.130   3.653   0.487 -0.5882  0.5883  0.1367
13570TIP3    H162201   2.067   3.682   0.552 -0.5887  0.2160  0.3052
13570TIP3    H262202   2.136   3.726   0.425 -0.1083  1.2093  0.8955
13571TIP3   OH262203   3.854   4.589  15.732 -0.2589 -0.0937 -0.6392
13571TIP3    H162204   3.886   4.665  15.781 -0.3313 -0.2799 -0.3023
13571TIP3    H262205   3.770   4.617  15.695  0.6013  0.6540 -2.1425
13572TIP3   OH262206   1.580   5.310  17.032 -0.3886 -0.0960 -0.1819
13572TIP3    H162207   1.669   5.297  16.998 -0.6952 -0.8013 -0.7459
13572TIP3    H262208   1.546   5.222  17.046 -0.4595  0.1822  1.5254
13573TIP3   OH262209   5.531   4.758  13.361  0.0514  0.1681  0.5787
13573TIP3    H162210   5.508   4.761  13.268 -0.6119 -0.3010  0.7243
13573TIP3    H262211   5.622   4.728  13.363 -0.0778 -0.2549  0.1028
13574TIP3   OH262212   6.609   4.628  13.439 -0.0961  0.3727 -0.0392
13574TIP3    H162213   6.569   4.709  13.470  0.1651  0.7963 -0.7902
13574TIP3    H262214   6.576   4.560  13.498  1.2749  1.2992  1.9215
13575TIP3   OH262215   2.881   1.054   2.004 -0.1358  0.7873 -0.1731
13575TIP3    H162216   2.835   1.057   2.088  0.2057 -0.2855  0.0698
13575TIP3    H262217   2.964   1.100   2.020  1.1410 -1.6970  0.8996
13576TIP3   OH262218   1.502   6.717  13.935 -0.2024 -0.1192 -0.5001
13576TIP3    H162219   1.591   6.739  13.907  0.0013 -2.2522 -1.8007
13576TIP3    H262220   1.483   6.777  14.006  1.9824  0.9196 -0.7201
13577TIP3   OH262221   0.955   5.913  10.375 -0.1780 -0.6170 -0.2227
13577TIP3    H162222   0.966   5.929  10.281  0.6559  0.5317  0.0413
13577TIP3    H262223   0.897   5.982  10.405  0.1464 -0.5318  0.2275
13578TIP3   OH262224   2.154   4.711  17.134  0.8961 -0.4764  0.4206
13578TIP3    H162225   2.164   4.668  17.219  0.8886 -3.3436 -0.9020
13578TIP3    H262226   2.060   4.731  17.128  0.8108 -0.7217  0.8949
13579TIP3   OH262227   0.921   5.797   3.691 -0.4250 -0.1605 -0.1707
13579TIP3    H162228   0.906   5.887   3.718 -0.9957 -0.2324 -0.2354
13579TIP3    H262229   1.011   5.796   3.658 -0.6070  0.5142 -0.7034
13580TIP3   OH262230   4.449   3.000   0.665  0.1238 -0.2850 -0.3631
13580TIP3    H162231   4.477   2.926   0.719 -0.7018  0.5091  1.2024
13580TIP3    H262232   4.364   3.025   0.700 -0.0946  0.7634 -1.5443
13581TIP3   OH262233   6.004   3.303   4.603  0.2854 -0.0067  0.2692
13581TIP3    H162234   5.977   3.387   4.565  1.4197  1.1035  1.8112
13581TIP3    H262235   6.070   3.270   4.542  0.0460  0.3617 -0.1994
13582TIP3   OH262236   4.124   1.581   2.976 -0.0640 -0.0999  0.0371
13582TIP3    H162237   4.180   1.547   3.046  0.4456 -3.0343 -1.6245
13582TIP3    H262238   4.182   1.635   2.923  0.1572  0.1288  0.4981
13583TIP3   OH262239   6.483   4.467  15.963 -0.0936  0.1832 -0.5823
13583TIP3    H162240   6.447   4.379  15.966 -0.4675  0.3076 -1.2804
13583TIP3    H262241   6.465   4.503  16.050 -1.6905  0.2520 -0.9163
13584TIP3   OH262242   2.576   1.073   2.689  0.1935 -0.0550  0.3194
13584TIP3    H162243   2.582   0.993   2.637  1.4809 -0.7234  1.4207
13584TIP3    H262244   2.627   1.054   2.768 -0.3695  1.4829  1.0946
13585TIP3   OH262245   5.357   4.516  12.302 -0.0163  0.5618  0.5830
13585TIP3    H162246   5.364   4.491  12.210 -0.7378 -0.6554  0.8378
13585TIP3    H262247   5.433   4.572  12.318  0.0784  0.8339 -0.7604
13586TIP3   OH262248   0.582   2.135   5.285  0.0370  0.3227 -0.1751
13586TIP3    H162249   0.524   2.071   5.328 -3.3022  1.6810 -2.2797
13586TIP3    H262250   0.579   2.212   5.341  1.8673 -0.3231  0.9254
13587TIP3   OH262251   6.100   3.485   4.309 -0.8716  0.0772 -0.0299
13587TIP3    H162252   6.042   3.514   4.378 -0.0896 -0.8923  1.0674
13587TIP3    H262253   6.183   3.531   4.326 -0.4632 -0.6885  0.1146
13588TIP3   OH262254   5.949   0.931  12.979  0.0683 -0.5562 -1.0084
13588TIP3    H162255   5.894   0.925  13.058 -0.7265 -1.7763 -1.6268
13588TIP3    H262256   6.036   0.952  13.013 -0.4002 -0.3462  0.1385
13589TIP3   OH262257   4.607   1.314  15.142 -0.2659 -0.2366 -0.2438
13589TIP3    H162258   4.685   1.328  15.089  0.3626  0.5391  0.8304
13589TIP3    H262259   4.603   1.391  15.200 -2.1108  0.0009 -0.6066
13590TIP3   OH262260   3.694   2.626  16.288 -0.4501  0.3036  0.1147
13590TIP3    H162261   3.604   2.657  16.298 -0.1112  1.1115  0.9064
13590TIP3    H262262   3.747   2.706  16.284  0.2732 -0.1558  0.1605
13591TIP3   OH262263   2.480   6.217   0.211 -0.2407 -0.2074 -0.2377
13591TIP3    H162264   2.390   6.235   0.183 -0.6352 -0.2110  0.9621
13591TIP3    H262265   2.512   6.151   0.149 -0.2936  1.3581 -2.0069
13592TIP3   OH262266   1.844   0.655   5.730 -0.2550 -0.4009 -0.2247
13592TIP3    H162267   1.875   0.737   5.769 -0.6054 -1.1614  1.7959
13592TIP3    H262268   1.879   0.587   5.787 -1.5287 -1.5403 -0.7556
13593TIP3   OH262269   3.851   4.464   5.120 -0.3350  0.0030 -0.4741
13593TIP3    H162270   3.772   4.421   5.086 -0.1764 -0.2968 -0.4647
13593TIP3    H262271   3.853   4.549   5.076 -0.6314 -0.0127 -0.5205
13594TIP3   OH262272   2.585   6.709  11.623 -0.8078 -0.5717 -0.1239
13594TIP3    H162273   2.638   6.696  11.544  2.4211 -0.0934  1.8113
13594TIP3    H262274   2.594   6.627  11.672  1.2541  0.7237  1.8618
13595TIP3   OH262275   2.927   5.961  16.430 -0.4671 -0.5280 -0.3786
13595TIP3    H162276   2.947   5.874  16.394 -0.2187  0.6645 -3.3367
13595TIP3    H262277   2.991   6.019  16.389 -1.3663  1.2553  0.6401
13596TIP3   OH262278   3.234   4.107  14.066 -0.9543  0.5981  0.2468
13596TIP3    H162279   3.328   4.114  14.051 -1.0362 -1.8069 -2.3327
13596TIP3    H262280   3.225   4.072  14.154  0.6235  0.0803  0.2229
13597TIP3   OH262281   1.777   6.195   2.185  0.0522 -0.0835  0.0022
13597TIP3    H162282   1.839   6.237   2.245 -0.2890 -1.2196  1.1839
13597TIP3    H262283   1.731   6.131   2.239 -0.4900 -0.9184 -1.4071
13598TIP3   OH262284   0.172   3.525   4.561  0.3209 -0.4772 -0.5720
13598TIP3    H162285   0.077   3.518   4.560  0.2367  0.4489 -0.2103
13598TIP3    H262286   0.198   3.486   4.645  0.2654 -0.7706 -0.6909
13599TIP3   OH262287   5.170   3.828  16.090 -0.3429  0.4016  0.1548
13599TIP3    H162288   5.258   3.825  16.051 -0.1544  0.9632  0.5274
13599TIP3    H262289   5.139   3.737  16.085  0.7469 -0.0577  1.1128
13600TIP3   OH262290   5.485   2.826   6.089  0.4971 -0.2149 -0.1426
13600TIP3    H162291   5.407   2.871   6.121  1.7800  2.1889 -0.1650
13600TIP3    H262292   5.548   2.834   6.160  0.8065 -2.0433 -0.1599
13601TIP3   OH262293   4.232   5.258  13.235 -0.5706 -0.6769  0.0286
13601TIP3    H162294   4.160   5.238  13.295 -0.3358 -0.3396  0.4313
13601TIP3    H262295   4.233   5.184  13.174 -0.1317 -1.5995  1.1024
13602TIP3   OH262296   4.966   0.870  13.196  0.2589 -0.4782 -0.4326
13602TIP3    H162297   5.006   0.799  13.247  1.7118 -0.3204 -1.3149
13602TIP3    H262298   5.019   0.947  13.217 -0.2474 -0.0198 -0.8118
13603TIP3   OH262299   2.831   0.920  15.203  0.1620 -0.0878  0.4447
13603TIP3    H162300   2.878   0.858  15.259 -0.9876 -1.1259  0.2772
13603TIP3    H262301   2.763   0.957  15.259  0.4550  0.5926  0.3687
13604TIP3   OH262302   5.687   4.783  15.331  0.2732  0.2710  0.0819
13604TIP3    H162303   5.675   4.784  15.236  1.3030  0.2696 -0.0603
13604TIP3    H262304   5.599   4.798  15.367 -0.1893 -0.1198 -0.8580
13605TIP3   OH262305   1.690   0.355   1.616 -0.5548  0.2692  0.4722
13605TIP3    H162306   1.759   0.418   1.596 -1.2456  0.4786 -1.3858
13605TIP3    H262307   1.735   0.270   1.618  0.1452  0.6441  1.6715
13606TIP3   OH262308   2.467   4.281   1.582 -0.1640 -1.0204  0.3502
13606TIP3    H162309   2.450   4.310   1.671  0.6702  0.7891 -0.0247
13606TIP3    H262310   2.514   4.199   1.592 -0.4820 -1.0691  1.5653
13607TIP3   OH262311   3.330   3.675   1.745 -0.0912 -0.2430  0.1233
13607TIP3    H162312   3.248   3.627   1.735  0.4214 -0.9354 -0.8654
13607TIP3    H262313   3.392   3.629   1.690  0.4974  1.3870 -0.6506
13608TIP3   OH262314   3.894   4.254   5.881  0.1426  0.4793 -1.0305
13608TIP3    H162315   3.897   4.266   5.786  1.1277  0.1289 -1.0545
13608TIP3    H262316   3.880   4.160   5.893  1.4585  0.2798 -0.8474
13609TIP3   OH262317   1.525   2.617   5.361  0.5951 -0.1473  0.2571
13609TIP3    H162318   1.604   2.618   5.306 -1.5663 -2.7561 -3.3515
13609TIP3    H262319   1.475   2.693   5.333  0.1822 -0.6145 -0.3001
13610TIP3   OH262320   6.599   3.644  15.987 -0.3948 -0.1463  0.4323
13610TIP3    H162321   6.574   3.599  15.906 -3.0336  0.0302  1.0688
13610TIP3    H262322   6.682   3.604  16.012 -0.6956 -1.8596 -1.1086
13611TIP3   OH262323   5.633   5.696  14.354  0.5782  0.0190 -0.5390
13611TIP3    H162324   5.538   5.691  14.353  0.5303 -1.1563  1.8395
13611TIP3    H262325   5.662   5.606  14.338  1.2096  0.0772  0.1756
13612TIP3   OH262326   5.254   5.872  15.057  0.6488 -0.4266 -0.1781
13612TIP3    H162327   5.196   5.905  15.127  0.8567  2.0922 -1.0814
13612TIP3    H262328   5.207   5.797  15.021 -0.2752 -0.7271  1.5061
13613TIP3   OH262329   2.379   2.294  14.526 -0.1263  0.0705  0.4377
13613TIP3    H162330   2.311   2.241  14.569 -0.9309 -0.0821 -0.9799
13613TIP3    H262331   2.444   2.230  14.496 -0.2054  0.0651  0.2826
13614TIP3   OH262332   4.631   5.403  14.679 -0.5597 -0.3265  0.0139
13614TIP3    H162333   4.599   5.429  14.592  0.3139 -1.2465 -0.6146
13614TIP3    H262334   4.726   5.392  14.667 -0.4870 -0.8900  0.9716
13615TIP3   OH262335   1.290   2.118   1.760  0.3451 -0.2516  0.5435
13615TIP3    H162336   1.257   2.097   1.672  0.2698 -2.3950  1.0438
13615TIP3    H262337   1.310   2.212   1.755  0.3470 -0.3015 -1.7531
13616TIP3   OH262338   5.671   4.640   2.317  0.2484  0.0536 -0.5301
13616TIP3    H162339   5.618   4.570   2.356 -1.0874  0.1317 -2.0747
13616TIP3    H262340   5.611   4.715   2.312  0.8005  0.4491 -1.4163
13617TIP3   OH262341   3.426   1.680  11.315  0.1490 -0.2732  0.0139
13617TIP3    H162342   3.456   1.611  11.257  0.8425  0.3674 -0.4134
13617TIP3    H262343   3.334   1.660  11.332  0.2627 -1.1216 -0.3480
13618TIP3   OH262344   3.914   0.007   3.606  0.5609  0.4267 -0.3911
13618TIP3    H162345   3.994   0.021   3.555  1.4995 -2.1793  0.2297
13618TIP3    H262346   3.852  -0.030   3.543  0.5481  0.4317 -0.3815
13619TIP3   OH262347   1.962   2.740   2.251 -0.4332 -0.0918  0.2713
13619TIP3    H162348   1.993   2.678   2.184  0.2582 -0.1300  0.6175
13619TIP3    H262349   1.867   2.734   2.247 -0.3764 -1.0079  0.1383
13620TIP3   OH262350   4.551   0.159  15.118 -0.4239 -0.6994 -0.1158
13620TIP3    H162351   4.621   0.178  15.055  0.1615 -0.3005  0.6442
13620TIP3    H262352   4.561   0.226  15.186 -0.1832 -1.9319  1.1025
13621TIP3   OH262353   0.101   6.170   0.476 -0.2561 -0.1262  0.2133
13621TIP3    H162354   0.160   6.144   0.546 -0.6302  0.8607  0.9033
13621TIP3    H262355   0.156   6.218   0.414  0.0793 -1.0198 -0.1969
13622TIP3   OH262356   2.745   4.462  15.914  0.1309  0.3674 -0.1878
13622TIP3    H162357   2.798   4.518  15.857  0.6432 -0.6642 -0.7451
13622TIP3    H262358   2.657   4.468  15.878  0.3654  0.0742 -0.8326
13623TIP3   OH262359   4.245   4.468  13.937 -0.5253 -0.7740 -0.2392
13623TIP3    H162360   4.255   4.481  14.031 -0.5909  0.0112 -0.3329
13623TIP3    H262361   4.289   4.544  13.898  2.2069 -2.5828 -0.9554
13624TIP3   OH262362   3.269   5.343  15.818 -0.0844 -0.4017  0.1509
13624TIP3    H162363   3.260   5.387  15.734 -1.5401  0.0483  0.5127
13624TIP3    H262364   3.279   5.251  15.796 -1.8043 -0.4703 -0.5153
13625TIP3   OH262365   5.937   5.627  12.080 -0.3403  0.2112  0.2751
13625TIP3    H162366   5.929   5.538  12.047 -0.4278  0.8404 -1.5220
13625TIP3    H262367   5.960   5.617  12.172  1.2782 -1.6695 -0.2642
13626TIP3   OH262368   5.095   3.366   0.053  0.3618  0.0656 -0.7095
13626TIP3    H162369   5.129   3.365  -0.036 -0.0537 -0.7052 -0.8715
13626TIP3    H262370   5.136   3.442   0.094  0.3755  0.5673 -1.6231
13627TIP3   OH262371   2.601   2.476  16.004 -0.2638 -0.0337 -0.5423
13627TIP3    H162372   2.571   2.563  15.975  0.3676  0.0625 -0.9425
13627TIP3    H262373   2.685   2.493  16.046  0.1962 -0.5287 -1.2380
13628TIP3   OH262374   2.549   5.705  12.763  0.0033 -0.3632 -0.3020
13628TIP3    H162375   2.609   5.769  12.802 -2.2407  3.3782 -2.4654
13628TIP3    H262376   2.605   5.652  12.706  1.7682  0.5523  0.5068
13629TIP3   OH262377   3.683   0.481   5.252  0.0489 -0.0172 -0.1308
13629TIP3    H162378   3.714   0.571   5.266  0.3922 -0.1877  0.2144
13629TIP3    H262379   3.590   0.491   5.231  0.3198  0.4955 -1.1451
13630TIP3   OH262380   4.437   3.173  12.693  0.4625  0.2354 -0.5145
13630TIP3    H162381   4.389   3.145  12.771  1.2187  0.2312 -0.0438
13630TIP3    H262382   4.528   3.182  12.722  0.9033 -0.5678 -1.5899
13631TIP3   OH262383   2.879   5.538   3.099 -0.0733  0.3358 -0.6267
13631TIP3    H162384   2.938   5.612   3.112  0.2680 -0.2398  1.3818
13631TIP3    H262385   2.805   5.557   3.157  0.9747 -1.8398  1.5841
13632TIP3   OH262386   4.616   5.456   2.622  0.6029  0.1705 -0.0406
13632TIP3    H162387   4.692   5.432   2.568  2.1448 -2.2206  2.9197
13632TIP3    H262388   4.652   5.471   2.709 -2.1807  0.4884  1.1485
13633TIP3   OH262389   6.117   0.407   0.608  1.0642  0.1934  0.2689
13633TIP3    H162390   6.094   0.495   0.639 -0.9219  0.1600 -0.8928
13633TIP3    H262391   6.134   0.357   0.688  0.7678  1.2700  1.0274
13634TIP3   OH262392   1.751   5.116  13.652  0.2754 -0.1193 -0.1822
13634TIP3    H162393   1.693   5.089  13.723 -0.0286  0.2128 -0.2972
13634TIP3    H262394   1.837   5.081  13.675  0.8050  2.1857  1.7194
13635TIP3   OH262395   4.662   4.786  13.880  0.2467  0.4943 -0.2887
13635TIP3    H162396   4.688   4.728  13.952 -2.0783  0.3541  0.5252
13635TIP3    H262397   4.724   4.859  13.884  1.5739 -0.6214  0.3587
13636TIP3   OH262398   0.488   4.971  14.719  0.1084  0.4306 -0.8729
13636TIP3    H162399   0.553   4.906  14.692 -0.0166  0.5381 -1.4406
13636TIP3    H262400   0.539   5.048  14.742  0.3248 -0.1144  0.5985
13637TIP3   OH262401   1.151   2.662   1.658  0.3215 -0.4567  0.4910
13637TIP3    H162402   1.214   2.662   1.586 -2.1721  0.9458 -1.9415
13637TIP3    H262403   1.157   2.750   1.696  1.3533 -1.0640  1.7906
13638TIP3   OH262404   5.411   1.141   2.756 -0.2176 -0.3088  0.3412
13638TIP3    H162405   5.457   1.072   2.708 -0.0274 -0.3004  0.5088
13638TIP3    H262406   5.428   1.221   2.706 -2.0955 -0.6738 -0.9935
13639TIP3   OH262407   2.092   1.796   4.464 -1.0432  0.2916 -0.4173
13639TIP3    H162408   2.164   1.734   4.448 -1.2612 -0.0231 -0.2029
13639TIP3    H262409   2.014   1.749   4.435 -1.3292  0.0874  0.6191
13640TIP3   OH262410   2.609   3.334   5.801  0.0379  0.2643 -0.6668
13640TIP3    H162411   2.607   3.240   5.816 -0.4384  0.4782  0.7514
13640TIP3    H262412   2.693   3.363   5.837  0.1765  0.3907 -1.0835
13641TIP3   OH262413   4.428   1.636   0.746 -0.0789  0.2582  0.4118
13641TIP3    H162414   4.361   1.656   0.680 -1.4811 -1.1839  1.3100
13641TIP3    H262415   4.482   1.714   0.750 -0.0957  0.4958 -2.2418
13642TIP3   OH262416   5.765   1.772  13.301  0.2189 -0.1489  0.0855
13642TIP3    H162417   5.720   1.808  13.378  1.0486 -0.2150  0.6167
13642TIP3    H262418   5.795   1.848  13.253  1.6903 -0.0850  1.0395
13643TIP3   OH262419   5.761   5.256  12.138 -0.1677  0.1604  0.4730
13643TIP3    H162420   5.837   5.215  12.096  0.1127 -0.5587  1.6336
13643TIP3    H262421   5.691   5.191  12.131 -0.7595  0.9040 -0.7788
13644TIP3   OH262422   2.508   0.628   0.594  0.3209  0.3119  0.5014
13644TIP3    H162423   2.508   0.621   0.498  0.3099  1.0922  0.4450
13644TIP3    H262424   2.599   0.650   0.616  0.1186  1.0449  0.6040
13645TIP3   OH262425   6.410   5.028   3.735 -0.1184  0.4752  0.2410
13645TIP3    H162426   6.331   4.995   3.692 -0.5763  1.1996  0.5071
13645TIP3    H262427   6.441   5.098   3.677 -0.7062  1.4168  1.0543
13646TIP3   OH262428   1.532   0.383   4.730 -0.0612 -1.0698  0.1843
13646TIP3    H162429   1.550   0.440   4.805 -0.4713  0.4144 -0.8009
13646TIP3    H262430   1.616   0.345   4.708 -0.0913 -2.2636  1.9451
13647TIP3   OH262431   6.720   4.395   3.111  0.3937  0.3662 -0.1800
13647TIP3    H162432   6.811   4.422   3.108  0.7641 -0.8842 -1.0135
13647TIP3    H262433   6.723   4.299   3.109 -0.9350  0.3076 -0.6382
13648TIP3   OH262434   1.317   5.587   6.244  0.4197  0.3978  0.4116
13648TIP3    H162435   1.281   5.666   6.204 -1.2729 -0.1300  0.8235
13648TIP3    H262436   1.302   5.598   6.338 -4.7918 -2.5444  0.2863
13649TIP3   OH262437   6.080   4.853   0.327 -0.2735 -0.4002  0.4899
13649TIP3    H162438   5.997   4.807   0.342  0.0237 -1.3119 -0.5323
13649TIP3    H262439   6.147   4.787   0.342  0.2517  0.2013  0.8090
13650TIP3   OH262440   5.535   3.856  14.147 -0.1405  0.1586  0.2271
13650TIP3    H162441   5.533   3.886  14.238 -1.7063  1.9645 -0.3260
13650TIP3    H262442   5.558   3.764  14.153 -0.5209  0.1392  2.4883
13651TIP3   OH262443   2.865   0.522  14.074  0.1592 -0.9415 -0.0367
13651TIP3    H162444   2.862   0.446  14.016 -0.9529 -0.1308 -1.0960
13651TIP3    H262445   2.774   0.539  14.096  0.3297  0.4429 -0.3226
13652TIP3   OH262446   0.611   2.362   0.474  0.1819 -0.1613  0.4293
13652TIP3    H162447   0.531   2.399   0.436 -0.4321 -1.9778 -0.2061
13652TIP3    H262448   0.655   2.435   0.515 -1.5880  0.9864  0.3825
13653TIP3   OH262449   1.714   5.459  16.141  0.5909  0.3937  0.1676
13653TIP3    H162450   1.639   5.400  16.133  1.1692 -0.3833  0.3061
13653TIP3    H262451   1.695   5.530  16.080 -0.1387  0.0826  0.0189
13654TIP3   OH262452   0.624   2.876   0.226  0.4183 -0.2685  0.2136
13654TIP3    H162453   0.710   2.886   0.186  0.3878 -2.7792 -0.6507
13654TIP3    H262454   0.563   2.890   0.153  0.1577 -0.2105  0.4421
13655TIP3   OH262455   3.330   5.475   4.144  0.2989  0.4144 -0.5647
13655TIP3    H162456   3.255   5.442   4.193  1.2484 -0.7659  0.1738
13655TIP3    H262457   3.320   5.570   4.145 -0.6565  0.3252  0.3829
13656TIP3   OH262458   2.666   2.677  14.807 -0.4324 -0.0873  0.1677
13656TIP3    H162459   2.685   2.667  14.714  0.3204 -3.6130  0.5818
13656TIP3    H262460   2.741   2.725  14.842 -0.3994  0.6761 -0.8944
13657TIP3   OH262461   2.332   3.367  11.871  0.0331 -0.2642  0.5194
13657TIP3    H162462   2.299   3.310  11.941  0.3401 -1.0883  0.0123
13657TIP3    H262463   2.377   3.307  11.811 -1.3305  0.2427 -1.0635
13658TIP3   OH262464   0.068   0.989  16.510 -0.0956 -0.0735  0.3833
13658TIP3    H162465   0.113   1.045  16.573  1.5003  0.9618 -1.5639
13658TIP3    H262466  -0.024   1.016  16.515  0.1572  0.6474  1.5339
13659TIP3   OH262467   1.258   2.271   0.101  0.9152  0.4381 -0.3514
13659TIP3    H162468   1.285   2.356   0.066  0.3215  0.6936 -0.2069
13659TIP3    H262469   1.315   2.256   0.177  0.6045  1.0093  0.0035
13660TIP3   OH262470   2.068   3.730  11.912  0.1465  0.3271 -0.5071
13660TIP3    H162471   2.139   3.790  11.937 -0.1435  0.0185  1.1950
13660TIP3    H262472   2.001   3.786  11.873  0.3348  0.9526  0.0543
13661TIP3   OH262473   1.437   1.368  11.848  0.1275  0.4084  0.1897
13661TIP3    H162474   1.512   1.308  11.844  1.4323  1.8470  1.4039
13661TIP3    H262475   1.453   1.430  11.776 -0.1615  0.4402  0.1533
13662TIP3   OH262476   1.242   5.395   2.984 -0.8281 -0.2589 -0.1619
13662TIP3    H162477   1.245   5.400   3.080 -0.9305 -2.2660  0.0054
13662TIP3    H262478   1.255   5.302   2.965  1.7151  0.3934 -2.2297
13663TIP3   OH262479   1.794   4.087  11.616  0.9155  0.3219 -0.2008
13663TIP3    H162480   1.831   4.007  11.579  1.3249 -0.1043  1.0588
13663TIP3    H262481   1.703   4.086  11.589  0.8818 -0.6485 -0.1045
13664TIP3   OH262482   4.739   2.194  14.821  0.3602 -0.1957  0.5208
13664TIP3    H162483   4.800   2.201  14.748  1.3164  3.6772  1.4495
13664TIP3    H262484   4.794   2.183  14.898  0.0363  2.9854  1.3328
13665TIP3   OH262485   5.604   0.673  12.750  0.2943 -0.1757 -0.0793
13665TIP3    H162486   5.657   0.700  12.676  3.1384 -2.7349  0.8317
13665TIP3    H262487   5.658   0.693  12.827 -1.3178 -0.2492  1.1292
13666TIP3   OH262488   5.582   4.971  11.707  0.2770 -0.0508 -0.3837
13666TIP3    H162489   5.520   4.900  11.725  1.3734 -0.5259  1.9533
13666TIP3    H262490   5.529   5.050  11.710 -0.4580 -0.5515  0.1908
13667TIP3   OH262491   4.069   5.275  11.506 -0.3799  0.0554  0.1502
13667TIP3    H162492   4.143   5.313  11.552 -1.3308  0.8217  1.1037
13667TIP3    H262493   4.103   5.194  11.467  1.6400  1.7000 -1.7118
13668TIP3   OH262494   4.292   0.193  16.402  0.3982  0.4131 -0.5374
13668TIP3    H162495   4.205   0.205  16.438  0.7443 -1.3775  1.0763
13668TIP3    H262496   4.281   0.204  16.307 -1.3029  1.4298 -0.2589
13669TIP3   OH262497   6.423   2.475   3.148  0.5399 -0.6277  0.5436
13669TIP3    H162498   6.418   2.383   3.123 -0.6018 -0.4167 -0.0992
13669TIP3    H262499   6.469   2.518   3.075 -0.4439 -0.4387  0.0070
13670TIP3   OH262500   0.215   2.487   0.275 -0.2653 -0.3574  0.0720
13670TIP3    H162501   0.200   2.539   0.354 -0.3009 -0.2508 -0.0058
13670TIP3    H262502   0.129   2.449   0.255 -1.4064  3.0823 -2.4405
13671TIP3   OH262503   2.576   0.391   1.655  0.1717 -0.6146  0.3749
13671TIP3    H162504   2.509   0.446   1.615  1.2952  0.6800  0.2059
13671TIP3    H262505   2.650   0.451   1.671  0.9338 -1.7878  1.4258
13672TIP3   OH262506   2.606   3.982  12.887 -0.7079 -0.0981 -0.1534
13672TIP3    H162507   2.695   4.011  12.907  0.2175 -0.7717 -2.8953
13672TIP3    H262508   2.555   4.005  12.965  1.8773  0.1141  1.5897
13673TIP3   OH262509   4.961   0.457  13.801 -0.7687  0.2990  0.2232
13673TIP3    H162510   4.915   0.505  13.732 -2.2351 -0.8311  0.3665
13673TIP3    H262511   5.042   0.506  13.814  0.3301 -0.2410 -3.3451
13674TIP3   OH262512   1.185   3.708   2.329  0.2899 -0.1784  0.3517
13674TIP3    H162513   1.199   3.775   2.262 -2.5484  0.1989  0.0037
13674TIP3    H262514   1.151   3.757   2.405  0.0347 -1.0070  0.7776
13675TIP3   OH262515   3.399   3.635  13.018 -0.5462  0.0555 -0.7228
13675TIP3    H162516   3.415   3.543  13.041 -0.5440  0.1378 -0.3932
13675TIP3    H262517   3.305   3.646  13.028 -0.4006  0.3912  0.3607
13676TIP3   OH262518   1.996   1.521   1.364 -0.2073 -0.0913  0.0218
13676TIP3    H162519   1.943   1.505   1.286 -1.4870 -0.3916  0.9146
13676TIP3    H262520   1.984   1.613   1.384 -0.0082 -0.0515 -0.0368
13677TIP3   OH262521   4.391   1.655  12.108 -0.3943 -0.2622  0.2944
13677TIP3    H162522   4.297   1.665  12.098 -0.2482  1.4627  0.2921
13677TIP3    H262523   4.413   1.575  12.059 -1.8564 -0.7700  0.4336
13678TIP3   OH262524   0.146   3.316  17.404  0.0143 -0.1319 -0.0002
13678TIP3    H162525   0.224   3.264  17.382  0.0524 -0.2458  0.3813
13678TIP3    H262526   0.113   3.348  17.320  1.5318  1.4595 -0.0482
13679TIP3   OH262527   1.527   4.805  14.065  0.7498  0.1675 -0.0530
13679TIP3    H162528   1.469   4.880  14.079  1.2172  0.6891 -0.8035
13679TIP3    H262529   1.555   4.813  13.974  2.0036 -0.0591  0.2847
13680TIP3   OH262530   5.783   3.933   4.624  0.4203  0.3762 -0.1791
13680TIP3    H162531   5.865   3.909   4.580  1.2130  0.0320  1.4184
13680TIP3    H262532   5.748   4.005   4.572  1.0840 -0.3113 -1.6232
13681TIP3   OH262533   6.202   4.227   1.882  0.5690  0.1089  0.8825
13681TIP3    H162534   6.232   4.305   1.836 -2.7974  0.4555 -1.0592
13681TIP3    H262535   6.159   4.261   1.961  1.3013 -0.0235  1.3473
13682TIP3   OH262536   1.462   4.033   1.582 -0.2926 -0.4920  0.3489
13682TIP3    H162537   1.550   4.053   1.550  0.1362  0.4475  2.0039
13682TIP3    H262538   1.476   3.975   1.656 -1.0720 -0.2715  0.6823
13683TIP3   OH262539   5.873   5.118   0.735 -0.0868  0.1313  0.0183
13683TIP3    H162540   5.842   5.078   0.655  1.2022 -0.9959  0.0428
13683TIP3    H262541   5.930   5.190   0.706  1.6638 -1.2542 -0.1765
13684TIP3   OH262542   3.554   6.658   4.985 -0.0090 -0.0835 -0.1785
13684TIP3    H162543   3.604   6.718   4.929 -0.6069  0.3015 -0.3038
13684TIP3    H262544   3.523   6.590   4.926  1.6034 -1.1564  0.1432
13685TIP3   OH262545   1.876   4.088  13.835  0.3041  0.3810  0.0246
13685TIP3    H162546   1.897   4.168  13.785 -0.1161  0.3982 -0.1265
13685TIP3    H262547   1.790   4.105  13.872 -0.0956 -0.2871 -0.5969
13686TIP3   OH262548   4.085   4.425  17.291  0.0281  0.4624  0.1595
13686TIP3    H162549   4.163   4.373  17.310 -0.8671 -0.2844  2.0261
13686TIP3    H262550   4.032   4.369  17.234  1.3482  1.4817 -2.2203
13687TIP3   OH262551   1.966   4.360   1.752 -0.1337  0.0019 -0.0528
13687TIP3    H162552   1.969   4.265   1.744 -0.3082 -0.1164  1.1951
13687TIP3    H262553   1.882   4.379   1.794  1.1727  0.4605  2.5643
13688TIP3   OH262554   2.486   6.346   3.861 -0.4079  0.3571  0.5427
13688TIP3    H162555   2.522   6.257   3.858 -1.3793 -0.0316  0.0095
13688TIP3    H262556   2.556   6.401   3.826 -0.5258 -0.4688 -1.1278
13689TIP3   OH262557   5.569   1.650  14.893  0.0733 -0.5354 -0.3823
13689TIP3    H162558   5.603   1.625  14.807  1.4287  0.4693 -0.1717
13689TIP3    H262559   5.486   1.603  14.900  0.2739 -1.1991 -1.9349
13690TIP3   OH262560   0.289   3.399  14.865 -0.1588 -0.5457  0.6197
13690TIP3    H162561   0.220   3.333  14.860  0.1309 -0.8056 -0.2385
13690TIP3    H262562   0.244   3.480  14.887 -0.6130 -0.8989  0.9924
13691TIP3   OH262563   5.909   6.077  13.629 -0.9273 -0.8129  0.3295
13691TIP3    H162564   5.842   6.054  13.566 -0.9029  0.7055 -0.2736
13691TIP3    H262565   5.863   6.127  13.697 -0.4035  0.4047 -0.1871
13692TIP3   OH262566   4.362   2.831  14.780 -0.3539  0.3255 -0.0350
13692TIP3    H162567   4.321   2.809  14.696 -0.2046 -0.4469  0.0892
13692TIP3    H262568   4.414   2.755  14.802  0.9063  1.1570 -0.0261
13693TIP3   OH262569   0.778   6.365  12.516 -0.1326  0.0179 -0.1941
13693TIP3    H162570   0.841   6.365  12.444 -0.4936 -0.0953 -0.5106
13693TIP3    H262571   0.725   6.444  12.501  0.6101  0.7138  0.6761
13694TIP3   OH262572   2.062   0.763   6.141 -0.4307 -0.1825 -0.7836
13694TIP3    H162573   2.052   0.751   6.235  0.6196  0.2236 -0.5954
13694TIP3    H262574   2.081   0.857   6.131  1.4953 -0.5605 -1.1665
13695TIP3   OH262575   2.387   5.737  11.095 -0.3979  0.5776  0.5694
13695TIP3    H162576   2.409   5.830  11.089  0.6585  0.4842  2.2414
13695TIP3    H262577   2.453   5.693  11.040  1.5075  0.5992  2.6611
13696TIP3   OH262578   6.736   3.684   5.396 -0.0861  0.2043 -0.0599
13696TIP3    H162579   6.736   3.599   5.351 -1.9711 -0.0393  0.3409
13696TIP3    H262580   6.815   3.681   5.450 -0.6848 -1.8138  0.8284
13697TIP3   OH262581   4.241   5.909  13.889  0.2409  0.6444 -0.1347
13697TIP3    H162582   4.223   5.978  13.826  0.4285 -0.3241 -1.2907
13697TIP3    H262583   4.292   5.952  13.958 -0.2070  1.7855 -0.4956
13698TIP3   OH262584   3.608   5.893   3.700  0.2128 -0.1870  0.7320
13698TIP3    H162585   3.558   5.974   3.703 -0.7024 -0.6792 -0.4452
13698TIP3    H262586   3.661   5.895   3.779 -0.0879  1.3620  0.9268
13699TIP3   OH262587   1.779   1.333  11.977  0.2831 -0.0500 -0.1634
13699TIP3    H162588   1.743   1.259  12.026 -0.2089 -0.1898 -0.7282
13699TIP3    H262589   1.872   1.334  12.001  0.3777 -1.0932 -0.4504
13700TIP3   OH262590   4.195   5.057  11.401 -0.6874  0.0149 -0.3472
13700TIP3    H162591   4.138   5.020  11.334  0.5998 -0.8695 -0.9894
13700TIP3    H262592   4.278   5.011  11.391 -0.3636  0.0278  1.7030
13701TIP3   OH262593   1.248   6.026   5.651 -0.1937  0.0394 -0.0457
13701TIP3    H162594   1.170   6.059   5.607 -0.0924 -0.4343 -0.5953
13701TIP3    H262595   1.320   6.046   5.590 -0.2386 -1.9852 -0.8246
13702TIP3   OH262596   2.353   5.959   6.141 -0.7551 -0.1590 -0.3231
13702TIP3    H162597   2.429   5.946   6.197  0.7959 -1.4104 -2.5146
13702TIP3    H262598   2.289   6.002   6.196  1.0824 -0.1917  2.0001
13703TIP3   OH262599   1.698   3.131   2.440 -0.4158 -0.7595 -0.5517
13703TIP3    H162600   1.720   3.181   2.361 -0.3182 -1.9529 -1.3068
13703TIP3    H262601   1.699   3.196   2.510 -1.5148  0.5431 -1.6712
13704TIP3   OH262602   3.913   2.428  12.542  0.6388  0.2963  0.6380
13704TIP3    H162603   3.971   2.451  12.470  0.2096 -2.0631 -0.5686
13704TIP3    H262604   3.850   2.368  12.503  0.1920 -0.8087  2.9129
13705TIP3   OH262605   5.057   4.957   4.719 -0.0068 -0.4062  0.1768
13705TIP3    H162606   5.022   4.871   4.696 -0.7361 -0.2652  0.7277
13705TIP3    H262607   5.149   4.954   4.692 -0.4252 -0.7924 -1.2638
13706TIP3   OH262608   0.645   2.841  13.575  0.2402  0.0512 -0.3095
13706TIP3    H162609   0.618   2.821  13.486 -0.7049  1.6392 -0.4143
13706TIP3    H262610   0.576   2.898  13.609  0.2289 -1.0388  1.6733
13707TIP3   OH262611   2.885   5.841   3.400  0.1794  0.3951  0.3853
13707TIP3    H162612   2.847   5.755   3.416 -2.4891  1.3328 -0.4784
13707TIP3    H262613   2.954   5.849   3.467 -0.1702 -1.9621  1.1262
13708TIP3   OH262614   2.673   6.700   2.114  0.0856 -0.4578 -0.4717
13708TIP3    H162615   2.678   6.796   2.113  1.7623 -0.4955  0.2427
13708TIP3    H262616   2.583   6.681   2.141 -0.5248  0.8883 -1.4248
13709TIP3   OH262617   0.454   1.625  13.396  0.3003  0.0470 -0.6188
13709TIP3    H162618   0.528   1.598  13.342  0.4228 -0.3002 -0.2840
13709TIP3    H262619   0.445   1.719  13.380  0.8543  0.1011 -0.6064
13710TIP3   OH262620   3.231   4.093  11.995  0.0238 -0.0574 -0.1673
13710TIP3    H162621   3.201   4.027  12.058  0.1182  0.8786  0.8923
13710TIP3    H262622   3.299   4.142  12.041 -0.2502  0.9745 -0.8066
13711TIP3   OH262623   1.547   5.847   0.893  0.0107  0.4078 -0.4453
13711TIP3    H162624   1.635   5.810   0.880  0.1506  0.2433  0.8214
13711TIP3    H262625   1.508   5.790   0.960 -0.2641  1.7310  0.5516
13712TIP3   OH262626   5.740   5.652   0.797  0.0483 -0.3317  0.6145
13712TIP3    H162627   5.686   5.722   0.833 -0.0044 -0.4649  0.7967
13712TIP3    H262628   5.780   5.690   0.719 -0.5084 -0.3153  0.3368
13713TIP3   OH262629   0.937   2.800  11.342 -0.5817  0.2585 -0.4967
13713TIP3    H162630   0.894   2.846  11.269  1.3929  0.1266 -1.8355
13713TIP3    H262631   0.984   2.869  11.388 -1.5812  0.2906  0.5102
13714TIP3   OH262632   3.319   2.640  11.265 -0.1189  0.3530 -0.6610
13714TIP3    H162633   3.329   2.615  11.357 -0.3572 -0.1347 -0.7631
13714TIP3    H262634   3.268   2.721  11.268 -1.1898 -0.3162 -0.4162
13715TIP3   OH262635   2.045   3.548   6.861  0.3611  0.0774 -0.5021
13715TIP3    H162636   2.115   3.492   6.827  1.0094  0.3054  0.4159
13715TIP3    H262637   2.087   3.602   6.928 -0.6171  0.4687 -0.1765
13716TIP3   OH262638   5.777   0.964  14.221  0.0607  0.4192 -0.2179
13716TIP3    H162639   5.753   0.904  14.291 -1.4697  1.2703  0.0336
13716TIP3    H262640   5.754   1.051  14.255 -0.2679  0.8937 -1.5851
13717TIP3   OH262641   4.348   4.023  17.292  0.9195  0.2240 -0.4508
13717TIP3    H162642   4.331   4.066  17.207  1.2117  1.4990  0.1033
13717TIP3    H262643   4.377   3.935  17.269 -1.3783 -0.3117 -1.5984
13718TIP3   OH262644   5.693   0.269   3.826 -0.2408 -0.1876  0.3850
13718TIP3    H162645   5.629   0.210   3.786 -0.7494  0.2552  0.5276
13718TIP3    H262646   5.773   0.216   3.834  0.0449 -0.1432 -1.6773
13719TIP3   OH262647   1.687   3.299  17.160  0.5004  0.2605 -0.1847
13719TIP3    H162648   1.738   3.313  17.079 -1.8290  1.6100 -1.5135
13719TIP3    H262649   1.621   3.235  17.135 -1.9427  2.6517 -0.2441
13720TIP3   OH262650   4.010   0.498   0.778  0.5173 -0.2537  0.4374
13720TIP3    H162651   4.062   0.528   0.703  0.7919 -3.8208 -1.0253
13720TIP3    H262652   3.924   0.539   0.766  0.2770 -1.3622 -2.4417
13721TIP3   OH262653   0.061   3.965   5.004  0.0790 -0.5668 -0.2285
13721TIP3    H162654   0.005   3.889   4.987 -0.3594 -0.5245  0.9141
13721TIP3    H262655   0.026   4.034   4.948 -0.9413 -0.5865  0.3652
13722TIP3   OH262656   0.367   6.230  14.740  0.2306  0.6119  0.0593
13722TIP3    H162657   0.280   6.270  14.735  0.2083  0.6480  0.6907
13722TIP3    H262658   0.363   6.174  14.818 -0.1326 -1.5782 -1.4432
13723TIP3   OH262659   0.806   0.320  15.552  0.0650  0.3162 -0.3716
13723TIP3    H162660   0.838   0.239  15.513  1.1781 -0.1127  1.2974
13723TIP3    H262661   0.711   0.312  15.550  0.1349 -0.4637 -1.3356
13724TIP3   OH262662   5.548   4.572  15.844  0.2520  0.4918  0.3047
13724TIP3    H162663   5.581   4.628  15.774  2.7355 -2.4289 -1.0894
13724TIP3    H262664   5.465   4.538  15.810  0.1853  1.0710 -0.1238
13725TIP3   OH262665   1.060   3.047  14.169  0.5167  0.3105  0.2639
13725TIP3    H162666   0.965   3.035  14.164  0.4035 -0.1678  2.7087
13725TIP3    H262667   1.095   2.960  14.188  1.3907  0.6051  0.0421
13726TIP3   OH262668   5.009   4.171  16.743  0.4256 -0.0611 -0.5918
13726TIP3    H162669   5.073   4.197  16.677  0.4650 -1.5361 -1.1813
13726TIP3    H262670   5.058   4.116  16.804  0.0366 -0.0343 -0.2528
13727TIP3   OH262671   5.690   0.535   5.693 -0.2011 -0.2465 -0.0357
13727TIP3    H162672   5.645   0.497   5.768 -0.4179 -0.2275 -0.1547
13727TIP3    H262673   5.633   0.516   5.618  0.5823 -1.3080 -0.3870
13728TIP3   OH262674   5.829   0.861  10.677 -0.8647 -1.0645 -0.2746
13728TIP3    H162675   5.822   0.855  10.582  1.8646  1.0647 -0.7422
13728TIP3    H262676   5.752   0.911  10.704  0.3060  1.9225 -1.9941
13729TIP3   OH262677   0.296   0.289   5.873  0.5421 -0.1548  0.0885
13729TIP3    H162678   0.387   0.318   5.883  0.3513  0.3175  0.4769
13729TIP3    H262679   0.272   0.253   5.958  0.9708 -2.0481 -0.5634
13730TIP3   OH262680   0.600   0.602   3.529 -0.4041  0.3724  0.6149
13730TIP3    H162681   0.683   0.648   3.537  0.0164 -0.5063  1.5039
13730TIP3    H262682   0.618   0.513   3.561 -1.1025 -0.5376 -1.4000
13731TIP3   OH262683   3.511   1.641   2.000  0.0115  0.6476 -0.2975
13731TIP3    H162684   3.518   1.698   2.076 -0.0416  0.8104 -0.4150
13731TIP3    H262685   3.601   1.615   1.981 -0.1665 -2.1476  1.9008
13732TIP3   OH262686   1.761   4.645  16.393 -0.4617 -0.1934 -0.1880
13732TIP3    H162687   1.791   4.734  16.413 -1.1234  0.5723 -2.2912
13732TIP3    H262688   1.807   4.622  16.312 -2.8914 -0.3273 -1.6218
13733TIP3   OH262689   2.824   2.150  10.854 -0.0269  0.0517  0.0257
13733TIP3    H162690   2.901   2.108  10.816  0.4511 -0.0324  1.0710
13733TIP3    H262691   2.766   2.164  10.779  0.5401 -0.8638 -0.6120
13734TIP3   OH262692   6.514   0.392   4.985 -0.4504  0.0422  0.1542
13734TIP3    H162693   6.495   0.308   4.943  0.9134  0.0274 -0.4833
13734TIP3    H262694   6.538   0.369   5.074  1.1010 -0.3927 -0.3492
13735TIP3   OH262695   1.489   3.622   3.199 -0.1201 -0.3976 -0.2823
13735TIP3    H162696   1.545   3.568   3.255  0.4825  0.9247  0.4285
13735TIP3    H262697   1.480   3.704   3.246 -2.9134 -0.6406 -0.2407
13736TIP3   OH262698   6.709   6.012  14.985  0.2275 -0.5250 -0.2459
13736TIP3    H162699   6.675   5.929  15.019 -2.0521 -0.6241 -2.5313
13736TIP3    H262700   6.652   6.079  15.022 -0.1415 -0.3187 -1.1803
13737TIP3   OH262701   4.004   0.391   0.407 -0.2154 -0.3736 -0.3158
13737TIP3    H162702   3.972   0.312   0.450  1.2997 -0.7566  0.1669
13737TIP3    H262703   3.945   0.460   0.437  0.1113 -0.8342  1.4999
13738TIP3   OH262704   2.178   3.806   4.321 -0.3230 -0.4997 -0.4597
13738TIP3    H162705   2.177   3.875   4.254 -0.0625 -1.0655 -1.0531
13738TIP3    H262706   2.092   3.765   4.313 -0.5210 -0.1769 -0.0282
13739TIP3   OH262707   2.139   0.189  17.311  0.1785  0.8835  0.7134
13739TIP3    H162708   2.157   0.096  17.296 -1.7922  0.3138  1.5208
13739TIP3    H262709   2.103   0.220  17.228  0.8002  0.9196  0.4547
13740TIP3   OH262710   6.214   5.124   3.485 -0.2717 -0.6931 -0.2720
13740TIP3    H162711   6.288   5.077   3.447  0.8614  0.9498 -0.1793
13740TIP3    H262712   6.180   5.177   3.413 -0.1740 -0.0261  0.1685
13741TIP3   OH262713   1.319   2.074   0.611 -0.2988 -0.1992 -0.3134
13741TIP3    H162714   1.365   1.992   0.592  2.9897  2.2006 -4.4040
13741TIP3    H262715   1.372   2.116   0.679  0.9399  0.5239 -1.6761
13742TIP3   OH262716   3.379   5.540  12.638 -0.4467 -0.2928 -0.2361
13742TIP3    H162717   3.435   5.544  12.716  1.0349 -3.6567 -0.9566
13742TIP3    H262718   3.437   5.509  12.568 -2.5015 -0.6817 -1.8581
13743TIP3   OH262719   0.988   0.603  16.951 -0.2243  0.4382 -0.7874
13743TIP3    H162720   1.056   0.668  16.938 -0.9926  1.5090  0.3340
13743TIP3    H262721   0.906   0.650  16.937 -0.8054 -0.1877  0.3486
13744TIP3   OH262722   1.395   4.403  15.643  0.0499  0.6958  0.3245
13744TIP3    H162723   1.350   4.320  15.627  0.0241  0.8452 -0.4098
13744TIP3    H262724   1.325   4.464  15.668  0.0054  0.6273  0.3681
13745TIP3   OH262725   5.675   4.540   1.065  0.3879 -0.7198  0.0081
13745TIP3    H162726   5.622   4.461   1.053  0.8421 -1.3654  1.9246
13745TIP3    H262727   5.614   4.612   1.057 -0.8782 -1.4490  2.3950
13746TIP3   OH262728   3.480   3.945  16.031  0.2355  0.4474  0.2446
13746TIP3    H162729   3.458   3.852  16.021 -0.6209  0.8427 -2.0484
13746TIP3    H262730   3.408   3.981  16.082 -0.7424  0.3187 -1.0116
13747TIP3   OH262731   1.608   0.420   3.390 -0.7984 -0.0278  0.4287
13747TIP3    H162732   1.655   0.348   3.346 -0.7282 -0.4237  1.1318
13747TIP3    H262733   1.674   0.489   3.398 -0.9712  0.2756 -0.5948
13748TIP3   OH262734   6.104   3.418   4.925 -0.3294  0.0743 -0.2293
13748TIP3    H162735   6.058   3.422   5.009 -1.0262 -1.2790 -0.5318
13748TIP3    H262736   6.130   3.509   4.908  0.4841  0.2837  1.7963
13749TIP3   OH262737   2.438   4.582  10.690 -0.2618 -1.2227 -0.3354
13749TIP3    H162738   2.439   4.490  10.663 -1.2286 -1.0528 -1.0186
13749TIP3    H262739   2.497   4.586  10.765 -0.8500 -2.5626  0.2335
13750TIP3   OH262740   2.528   3.512   2.298  0.1249  0.5967 -0.0226
13750TIP3    H162741   2.461   3.555   2.351 -1.8551 -0.1307 -1.7994
13750TIP3    H262742   2.513   3.418   2.311 -0.0149  0.4157 -1.3699
13751TIP3   OH262743   1.698   3.142  11.495  0.1924 -0.3031  0.1408
13751TIP3    H162744   1.721   3.050  11.496  1.7515  0.0563  0.6287
13751TIP3    H262745   1.768   3.185  11.545 -0.2515  1.1899 -0.4552
13752TIP3   OH262746   4.162   1.318  15.311 -0.5983 -0.2874  0.4532
13752TIP3    H162747   4.229   1.301  15.378 -0.2263 -2.0989 -0.3367
13752TIP3    H262748   4.107   1.386  15.350  0.4219 -0.2940  2.0139
13753TIP3   OH262749   0.575   6.212  17.176  0.3419 -0.0105 -0.4451
13753TIP3    H162750   0.492   6.233  17.219  0.0662  1.1010 -1.4566
13753TIP3    H262751   0.623   6.295  17.176  0.1343  0.1681 -2.6357
13754TIP3   OH262752   2.477   5.808  15.588  0.2585 -0.0041  0.0294
13754TIP3    H162753   2.535   5.738  15.617 -1.2384 -1.7822 -1.0474
13754TIP3    H262754   2.446   5.779  15.502 -1.4341  1.3524  0.1319
13755TIP3   OH262755   2.688   2.784  11.595 -0.4901 -0.4124 -0.2550
13755TIP3    H162756   2.721   2.781  11.505 -0.2589 -1.6303 -0.1369
13755TIP3    H262757   2.603   2.828  11.588 -0.0477  0.3765 -0.9233
13756TIP3   OH262758   3.694   5.745  11.847  0.5862  0.1247 -0.2166
13756TIP3    H162759   3.787   5.740  11.826  0.4519  0.7282 -0.9865
13756TIP3    H262760   3.672   5.837  11.838 -0.1086 -0.0263 -0.1262
13757TIP3   OH262761   4.513   2.242   4.401 -0.5324 -0.1386  0.1545
13757TIP3    H162762   4.479   2.301   4.333 -1.4278  0.3738  1.0280
13757TIP3    H262763   4.565   2.178   4.353  0.3807  1.2953 -0.8367
13758TIP3   OH262764   1.682   0.552  15.036 -0.7712  0.5256  0.3227
13758TIP3    H162765   1.727   0.629  15.070  1.0983  0.3036 -1.4278
13758TIP3    H262766   1.680   0.491  15.109  3.7379 -0.2211  0.1014
13759TIP3   OH262767   2.806   1.362   1.943 -0.4285  0.1352  0.1496
13759TIP3    H162768   2.855   1.355   2.025 -2.1013 -0.3163  1.1711
13759TIP3    H262769   2.725   1.407   1.968  0.2989  2.7744 -1.8785
13760TIP3   OH262770   6.511   5.904  14.812  0.4019  0.0162  0.2428
13760TIP3    H162771   6.593   5.903  14.862  0.9986  0.5867 -0.7048
13760TIP3    H262772   6.464   5.826  14.842  0.8759  0.1825  1.4623
13761TIP3   OH262773   3.865   2.902   4.489  0.4619 -0.7067 -0.0916
13761TIP3    H162774   3.828   2.814   4.498 -0.5338 -0.1722  1.4815
13761TIP3    H262775   3.819   2.940   4.415  1.7255 -1.8676 -1.5339
13762TIP3   OH262776   0.261   1.971  15.624 -0.3334 -0.0585  0.2958
13762TIP3    H162777   0.330   2.037  15.616  0.0429 -0.6132 -1.4631
13762TIP3    H262778   0.222   1.987  15.710 -0.0323  2.2337  0.0634
13763TIP3   OH262779   3.938   0.674  13.831  0.5304  0.0704 -0.3889
13763TIP3    H162780   4.010   0.617  13.803  1.2020 -0.0579  1.4389
13763TIP3    H262781   3.863   0.645  13.780  1.1019 -1.8046 -0.2473
13764TIP3   OH262782   0.427   1.449  15.461 -0.5206  0.1303 -0.4324
13764TIP3    H162783   0.366   1.518  15.488  0.9133  1.0616  0.5734
13764TIP3    H262784   0.478   1.488  15.390 -0.5301 -0.3564 -0.7124
13765TIP3   OH262785   6.629   1.403   0.290 -0.0681  0.0446 -0.8992
13765TIP3    H162786   6.561   1.471   0.293 -0.9449 -0.8300  0.1620
13765TIP3    H262787   6.642   1.387   0.196 -1.3631  0.2144 -1.1319
13766TIP3   OH262788   1.750   3.383   6.268  0.1285 -0.5339 -0.3967
13766TIP3    H162789   1.766   3.449   6.335  1.3786  0.1109 -1.2707
13766TIP3    H262790   1.773   3.300   6.309 -0.2261 -0.2882  0.3167
13767TIP3   OH262791   1.771   2.012  17.097 -0.6180  0.2912 -0.4595
13767TIP3    H162792   1.679   2.039  17.098 -0.6062  0.8273  3.4256
13767TIP3    H262793   1.819   2.094  17.084 -0.7177  0.8299  2.1115
13768TIP3   OH262794   2.921   4.664   2.795 -0.0169  0.4904 -0.1236
13768TIP3    H162795   2.881   4.746   2.766  0.1263  1.1924  1.5427
13768TIP3    H262796   2.847   4.606   2.814 -0.2193  1.0996  1.0357
13769TIP3   OH262797   2.886   4.672   1.956 -0.2225 -0.2986 -0.9543
13769TIP3    H162798   2.871   4.622   2.036  0.4634 -0.9340 -1.2219
13769TIP3    H262799   2.817   4.739   1.957 -0.2917 -0.3669  0.1066
13770TIP3   OH262800   0.099   0.610  16.799  0.3333 -0.1969 -0.1559
13770TIP3    H162801   0.078   0.518  16.785  1.2874 -0.4336 -0.1338
13770TIP3    H262802   0.112   0.645  16.710 -0.8444  0.1312 -0.2088
13771TIP3   OH262803   4.008   5.228   3.239  0.1872  0.7166  0.3605
13771TIP3    H162804   3.982   5.317   3.263 -0.1104  0.4200  1.1676
13771TIP3    H262805   4.102   5.225   3.258 -0.0079  0.5446  1.3335
13772TIP3   OH262806   4.884   2.767  13.863 -0.2594  0.0761  0.0490
13772TIP3    H162807   4.929   2.691  13.827  1.0237  0.0697  1.5429
13772TIP3    H262808   4.945   2.840  13.849 -0.9011  0.5826 -0.1767
13773TIP3   OH262809   1.385   5.824   2.933 -0.7629  0.4103  0.0585
13773TIP3    H162810   1.373   5.820   3.028  1.9156  1.8994  0.5748
13773TIP3    H262811   1.391   5.918   2.914 -1.7299  0.1623 -1.6884
13774TIP3   OH262812   5.154   5.459  13.824  0.1915 -0.4673  0.1751
13774TIP3    H162813   5.146   5.400  13.749  0.1996  0.0191 -0.2101
13774TIP3    H262814   5.245   5.489  13.822 -0.0972  0.3990 -0.2690
13775TIP3   OH262815   0.794   3.635  13.430 -0.3897  0.7103 -0.4404
13775TIP3    H162816   0.710   3.637  13.384  0.1695 -2.3999 -1.9015
13775TIP3    H262817   0.799   3.546  13.465  2.5609  0.5731 -0.9883
13776TIP3   OH262818   1.074   5.577   0.762 -0.4291 -0.1274  0.6217
13776TIP3    H162819   1.082   5.576   0.858 -1.1400 -0.0119  0.6868
13776TIP3    H262820   0.995   5.630   0.745  1.4199  2.6333 -0.1512
13777TIP3   OH262821   3.095   1.787  13.804 -0.0356  0.1860 -0.0595
13777TIP3    H162822   3.135   1.787  13.717  1.0799  0.4283  0.4408
13777TIP3    H262823   3.086   1.880  13.826  0.3289  0.1199  0.3712
13778TIP3   OH262824   0.896   0.356  16.881  0.1600  0.5374 -0.7391
13778TIP3    H162825   0.891   0.311  16.965  0.9008 -1.4884 -1.7001
13778TIP3    H262826   0.929   0.443  16.902  3.3250 -0.8684  0.8794
13779TIP3   OH262827   1.532   3.251  12.720  1.1660  0.2859  0.6758
13779TIP3    H162828   1.463   3.199  12.763  0.1438  0.1448 -1.0291
13779TIP3    H262829   1.613   3.208  12.745  0.5228 -0.4621  1.5466
13780TIP3   OH262830   1.911   0.221   0.735  0.2617 -0.1308 -0.3127
13780TIP3    H162831   1.947   0.285   0.796  0.2141  0.3368 -0.7659
13780TIP3    H262832   1.862   0.160   0.790 -1.3310  1.3226 -0.0261
13781TIP3   OH262833   5.502   6.232   4.143 -0.6370 -0.0148 -0.3395
13781TIP3    H162834   5.436   6.252   4.209 -0.8836  0.5006 -0.7372
13781TIP3    H262835   5.582   6.215   4.194 -1.0020 -0.3662  0.1250
13782TIP3   OH262836   0.593   1.765   5.299 -0.2542  0.9420 -0.4263
13782TIP3    H162837   0.617   1.772   5.206 -0.5540  1.9689 -0.4356
13782TIP3    H262838   0.671   1.729   5.341  0.5996  2.3033 -0.7855
13783TIP3   OH262839   2.680   1.399  13.147  0.1634  0.4378 -0.2955
13783TIP3    H162840   2.690   1.387  13.241  1.7410  1.2608 -0.3248
13783TIP3    H262841   2.727   1.325  13.108 -1.9381 -0.8732 -0.4764
13784TIP3   OH262842   2.532   3.405  16.036 -0.3861  0.9107 -0.2263
13784TIP3    H162843   2.498   3.317  16.026 -1.1069  1.1296  0.2607
13784TIP3    H262844   2.604   3.410  15.972 -1.2786  0.4579 -1.3041
13785TIP3   OH262845   5.371   3.191  15.833 -0.0069  0.0954  0.3240
13785TIP3    H162846   5.457   3.193  15.875 -0.3010  0.9576  0.9204
13785TIP3    H262847   5.341   3.101  15.844  1.5829 -0.7356 -1.5404
13786TIP3   OH262848   4.124   1.286  13.168 -0.5898 -0.0587  0.1615
13786TIP3    H162849   4.104   1.302  13.076 -0.9608 -0.4975  0.1611
13786TIP3    H262850   4.146   1.372  13.203  1.0912 -0.0987 -0.6930
13787TIP3   OH262851   6.272   6.226  13.149  0.3862  0.2688 -0.5720
13787TIP3    H162852   6.360   6.204  13.119 -0.3654 -2.8087 -0.9698
13787TIP3    H262853   6.216   6.206  13.074 -0.7321  1.3015 -0.0387
13788TIP3   OH262854   3.162   6.711  13.109  0.0995 -0.6655  0.4438
13788TIP3    H162855   3.168   6.753  13.195  0.6205 -0.1363  0.1588
13788TIP3    H262856   3.128   6.779  13.051  2.1536 -0.1850 -0.2989
13789TIP3   OH262857   1.939   3.713   5.014 -0.6542  0.2565 -0.2057
13789TIP3    H162858   1.942   3.737   5.106 -0.1931 -0.1192 -0.1161
13789TIP3    H262859   1.850   3.679   5.001 -0.0846 -1.7646  0.6641
13790TIP3   OH262860   6.565   2.094  16.653  0.7049  0.0892 -0.2812
13790TIP3    H162861   6.556   2.120  16.744 -1.4680  0.7834 -0.6410
13790TIP3    H262862   6.553   1.999  16.654  2.5274 -0.1721  0.3200
13791TIP3   OH262863   1.747   6.140  16.858  0.2206  0.3172 -0.5507
13791TIP3    H162864   1.803   6.069  16.891 -2.5217 -1.0829  1.5140
13791TIP3    H262865   1.767   6.215  16.914  0.0053 -0.2100  0.2549
13792TIP3   OH262866   1.217   0.608   5.871  0.3012 -0.3029  0.2158
13792TIP3    H162867   1.136   0.610   5.923  0.2773 -0.2230  0.1762
13792TIP3    H262868   1.187   0.615   5.780  0.4516  1.9552  0.2813
13793TIP3   OH262869   0.850   0.793  14.366  0.4032 -0.0322  0.5485
13793TIP3    H162870   0.777   0.788  14.306  0.8172  0.0517  0.0315
13793TIP3    H262871   0.840   0.718  14.424  1.4113 -1.6199 -1.2454
13794TIP3   OH262872   2.612   1.065   5.175  0.4749  0.2128 -0.1308
13794TIP3    H162873   2.652   1.104   5.097 -1.8036  0.1587 -1.4065
13794TIP3    H262874   2.660   0.984   5.189  2.5295  1.3879  0.0380
13795TIP3   OH262875   4.815   1.147   6.416  0.2924  0.0831 -0.1566
13795TIP3    H162876   4.745   1.213   6.418  1.4087  1.4144 -2.0002
13795TIP3    H262877   4.886   1.187   6.466  1.1113  0.4783 -1.5969
13796TIP3   OH262878   0.589   3.771  12.594 -0.1395  0.6809 -0.0696
13796TIP3    H162879   0.636   3.766  12.510 -0.2759  0.8350 -0.1563
13796TIP3    H262880   0.503   3.732  12.575  0.1926 -0.2304  0.2613
13797TIP3   OH262881   3.880   0.002   2.548 -0.3100 -0.4545 -0.0586
13797TIP3    H162882   3.948  -0.065   2.547  0.1735 -0.0158  1.4049
13797TIP3    H262883   3.818  -0.027   2.615 -1.0024 -0.2873 -0.6038
13798TIP3   OH262884   3.678   1.239   5.861  0.1311 -0.6063  0.1494
13798TIP3    H162885   3.657   1.182   5.935  1.0597 -0.4341  0.5613
13798TIP3    H262886   3.603   1.230   5.802 -0.4466 -1.0505  0.9228
13799TIP3   OH262887   5.105   3.970  12.796  0.3822  0.0798  0.0264
13799TIP3    H162888   5.165   3.987  12.723  1.9902  1.2869  1.5496
13799TIP3    H262889   5.081   4.056  12.828 -0.0842 -0.4340  1.0977
13800TIP3   OH262890   6.195   5.782   1.556 -0.1088 -0.0800  0.1487
13800TIP3    H162891   6.142   5.821   1.486 -0.5450 -0.2061  0.3996
13800TIP3    H262892   6.164   5.825   1.636  0.0133 -0.3148  0.3249
13801TIP3   OH262893   5.121   1.067   1.775 -0.4121  0.4226  0.1446
13801TIP3    H162894   5.198   1.112   1.741  0.9658 -1.6257  0.3466
13801TIP3    H262895   5.154   1.020   1.852 -1.6230 -1.2812 -0.3295
13802TIP3   OH262896   1.410   1.310  12.140 -0.1952  0.1883 -0.6281
13802TIP3    H162897   1.319   1.333  12.124  0.1043  1.3772 -0.7176
13802TIP3    H262898   1.447   1.299  12.052  0.3857  2.4149 -0.7237
13803TIP3   OH262899   6.764   5.283  17.179 -0.5316  0.4342 -0.3802
13803TIP3    H162900   6.751   5.329  17.096 -0.0171 -0.1493 -0.7984
13803TIP3    H262901   6.820   5.209  17.156 -1.0626 -0.2017  0.3406
13804TIP3   OH262902   3.501   2.337  13.552  0.3321  0.1862 -0.0546
13804TIP3    H162903   3.553   2.414  13.576 -0.4509  0.4068  1.0099
13804TIP3    H262904   3.411   2.365  13.564 -0.0815 -0.1623 -1.9879
13805TIP3   OH262905   6.394   6.644   2.099 -0.1323  0.3397 -0.0580
13805TIP3    H162906   6.395   6.732   2.061  0.2840  0.0130 -0.8261
13805TIP3    H262907   6.479   6.606   2.076 -0.3522 -0.3116  0.1631
13806TIP3   OH262908   1.794   0.797  15.177  0.0479  0.6258  0.0842
13806TIP3    H162909   1.889   0.808  15.183  0.0956 -0.5400  2.9731
13806TIP3    H262910   1.762   0.817  15.265 -2.0063 -1.9489  0.0363
13807TIP3   OH262911   3.778   5.313  13.242  0.2077 -0.4817  0.1556
13807TIP3    H162912   3.870   5.288  13.242  0.4396  0.3104  1.1865
13807TIP3    H262913   3.743   5.277  13.324  0.3239  1.6397  1.2108
13808TIP3   OH262914   2.118   5.272  13.604  0.0232 -0.3236  0.4495
13808TIP3    H162915   2.145   5.183  13.629 -0.6574 -1.0881 -1.3283
13808TIP3    H262916   2.027   5.262  13.576 -0.5909  1.2757  1.7145
13809TIP3   OH262917   4.442   5.753  11.737  0.0239  0.7832  0.6098
13809TIP3    H162918   4.475   5.669  11.703 -0.6325  0.9073 -0.3691
13809TIP3    H262919   4.520   5.797  11.770  0.6709  0.5732 -0.5884
13810TIP3   OH262920   3.443   0.178   2.644 -0.0017 -0.4758  0.0297
13810TIP3    H162921   3.493   0.190   2.724  0.2477  0.0866 -0.2011
13810TIP3    H262922   3.419   0.267   2.618 -1.0159 -0.7195  0.0681
13811TIP3   OH262923   4.439   1.099  14.525  0.3942  0.7290  0.4596
13811TIP3    H162924   4.513   1.139  14.571 -0.6744  0.6956  2.3324
13811TIP3    H262925   4.363   1.147  14.557 -0.3700  1.5328 -2.2818
13812TIP3   OH262926   0.076   3.160   4.462  0.3172 -0.5214  0.3229
13812TIP3    H162927   0.162   3.200   4.472  0.0638  0.3027 -0.6046
13812TIP3    H262928   0.055   3.171   4.369 -1.2357  0.2356  0.7377
13813TIP3   OH262929   5.659   3.624  14.469  0.3158  0.1160  0.3852
13813TIP3    H162930   5.584   3.579  14.430  0.4485 -0.6662  0.9923
13813TIP3    H262931   5.641   3.717  14.457 -1.3685 -0.0017  1.5889
13814TIP3   OH262932   3.141   4.385   2.662  1.0258  0.0516  0.8229
13814TIP3    H162933   3.219   4.431   2.692  0.4780  0.9876  0.8722
13814TIP3    H262934   3.100   4.445   2.600  0.6412 -0.6681  0.3685
13815TIP3   OH262935   6.235   1.719   3.073  0.4844  0.0365  0.2031
13815TIP3    H162936   6.233   1.635   3.026  0.6801  1.1668 -1.9637
13815TIP3    H262937   6.181   1.705   3.150  0.8449 -2.1929  0.1190
13816TIP3   OH262938   1.950   3.457  17.197  0.7937  0.0364  0.6099
13816TIP3    H162939   1.890   3.497  17.260 -0.8259 -1.7360  0.2682
13816TIP3    H262940   1.973   3.373  17.236 -0.5524 -1.2760 -1.2852
13817TIP3   OH262941   1.443   3.533   5.927 -0.1486  0.1352  0.3916
13817TIP3    H162942   1.365   3.477   5.924  0.8926 -1.3342 -0.3454
13817TIP3    H262943   1.432   3.593   5.852 -0.2229 -0.5590 -0.1599
13818TIP3   OH262944   2.424   2.289   0.313 -0.4369  0.0852 -0.2576
13818TIP3    H162945   2.449   2.255   0.398 -1.5521 -1.8981 -0.6785
13818TIP3    H262946   2.406   2.382   0.328  1.6444  0.3283  1.1483
13819TIP3   OH262947   1.164   4.284   5.449  0.4296  0.1366  0.4653
13819TIP3    H162948   1.132   4.374   5.456  1.1131  0.3284  1.2815
13819TIP3    H262949   1.172   4.254   5.539  2.7881  0.1898  0.3283
13820TIP3   OH262950   4.819   1.797  12.724  0.0149 -0.5113 -0.3210
13820TIP3    H162951   4.747   1.858  12.710 -0.2633 -0.7163  0.1914
13820TIP3    H262952   4.817   1.739  12.648 -1.2169 -1.3684  0.3417
13821TIP3   OH262953   3.744   5.647  12.910 -0.0488  0.5641  0.2301
13821TIP3    H162954   3.748   5.706  12.985  0.9026 -0.8967  1.3671
13821TIP3    H262955   3.828   5.601  12.910 -1.0655 -1.4027 -0.0875
13822TIP3   OH262956   2.475   1.870  16.273 -0.7072  0.4232 -0.4621
13822TIP3    H162957   2.411   1.940  16.262  1.0896  2.1833 -0.4792
13822TIP3    H262958   2.536   1.883  16.200  1.8748  1.4356  1.6850
13823TIP3   OH262959   2.299   4.143   0.379  0.2777 -0.1749 -0.3465
13823TIP3    H162960   2.282   4.202   0.306 -0.4506 -1.0452 -0.8875
13823TIP3    H262961   2.394   4.132   0.380  0.3868  0.6706 -0.4861
13824TIP3   OH262962   1.703   5.237   0.323 -0.1736  0.1843  0.1327
13824TIP3    H162963   1.622   5.242   0.373  0.8699  1.3264  1.7940
13824TIP3    H262964   1.768   5.284   0.376  1.2211  0.6472 -1.8500
13825TIP3   OH262965   5.062   2.180   0.447 -0.2744  0.3051  0.3967
13825TIP3    H162966   5.112   2.148   0.372 -0.4764  0.8543  0.0184
13825TIP3    H262967   5.024   2.101   0.486 -0.8281  0.0807 -0.5589
13826TIP3   OH262968   4.695   1.093   1.472 -0.1834 -0.0138 -0.2220
13826TIP3    H162969   4.625   1.156   1.489 -0.0024 -0.1454  1.1239
13826TIP3    H262970   4.768   1.123   1.527 -0.9612 -2.8554  2.6582
13827TIP3   OH262971   1.489   4.058   3.192  0.3118 -0.3160 -0.7572
13827TIP3    H162972   1.445   4.038   3.109  0.1521 -1.0104 -0.5190
13827TIP3    H262973   1.537   4.138   3.175  0.6284 -0.6812 -1.6580
13828TIP3   OH262974   6.380   0.527  13.953 -0.2912  0.2974  0.0370
13828TIP3    H162975   6.430   0.450  13.981  1.7027  1.8462  0.9268
13828TIP3    H262976   6.402   0.538  13.861 -1.2388 -0.6241 -0.3282
13829TIP3   OH262977   1.722   1.932   6.569 -0.0089 -0.3189  0.3002
13829TIP3    H162978   1.768   1.965   6.646 -1.2710 -2.0054  1.8610
13829TIP3    H262979   1.763   1.977   6.495 -0.4494  3.2870  2.0663
13830TIP3   OH262980   2.562   4.909  15.732 -0.0935  0.4328  0.3044
13830TIP3    H162981   2.539   4.927  15.823  0.4579  1.5515  0.2424
13830TIP3    H262982   2.490   4.945  15.681  0.2185  1.0037  0.2533
13831TIP3   OH262983   6.259   0.104  13.639 -0.1075 -0.2302 -0.0781
13831TIP3    H162984   6.297   0.192  13.633 -2.3157  0.8942  1.1469
13831TIP3    H262985   6.240   0.081  13.548 -0.8206  1.2129 -0.3268
13832TIP3   OH262986   3.046   0.371   0.575  0.1894 -0.6563 -0.3387
13832TIP3    H162987   2.980   0.418   0.523 -2.3254 -3.0416  0.4641
13832TIP3    H262988   3.101   0.328   0.510 -0.4502 -0.4361 -1.0456
13833TIP3   OH262989   2.601   3.290   0.796  1.1755 -0.0690 -0.4766
13833TIP3    H162990   2.661   3.334   0.735  0.0650  1.9195 -0.2357
13833TIP3    H262991   2.614   3.335   0.879 -1.3446  1.2177 -0.6706
13834TIP3   OH262992   2.331   1.743   1.231  0.4974 -0.3002  0.0314
13834TIP3    H162993   2.299   1.829   1.204 -1.0776 -0.0139  2.5127
13834TIP3    H262994   2.422   1.759   1.257  1.0296  0.0362 -1.8666
13835TIP3   OH262995   1.442   5.064  17.045  0.2934 -0.0916 -0.6205
13835TIP3    H162996   1.421   4.970  17.040  1.3434 -0.3456 -0.3309
13835TIP3    H262997   1.361   5.107  17.018 -0.2981 -1.0755 -0.4808
13836TIP3   OH262998   4.019   0.567  16.214 -0.1529  0.0379 -0.0856
13836TIP3    H162999   4.002   0.586  16.306 -0.6074 -1.0544  0.0747
13836TIP3    H263000   3.934   0.576  16.171  0.0820  0.6711 -0.4249
13837TIP3   OH263001   1.269   1.467   1.573  0.0383  0.3508  0.3675
13837TIP3    H163002   1.327   1.394   1.552 -1.6230 -1.2843  1.1388
13837TIP3    H263003   1.265   1.467   1.669 -2.6378 -0.8642  0.3452
13838TIP3   OH263004   6.001   0.838   5.155  0.2243 -0.4050 -0.5267
13838TIP3    H163005   5.960   0.755   5.129 -1.4092 -0.0068  0.5906
13838TIP3    H263006   5.955   0.863   5.236  1.1100  1.2769 -0.4957
13839TIP3   OH263007   0.279   2.778  14.534 -0.2196  0.0303 -0.6291
13839TIP3    H163008   0.299   2.762  14.627  1.9246 -0.6412 -1.1685
13839TIP3    H263009   0.344   2.842  14.506  0.0872 -0.8747 -2.0331
13840TIP3   OH263010   4.660   6.100   2.633 -0.0612  0.0790 -0.0750
13840TIP3    H163011   4.648   6.076   2.725  0.1824 -0.0231 -0.0717
13840TIP3    H263012   4.749   6.073   2.612 -0.9189 -2.1926 -1.0589
13841TIP3   OH263013   3.561   4.124  12.476 -0.1860  0.3211  0.7420
13841TIP3    H163014   3.594   4.089  12.559 -0.3085  0.5552  0.8911
13841TIP3    H263015   3.498   4.191  12.502 -0.3045  0.3202  0.4580
13842TIP3   OH263016   3.354   4.620  12.285 -0.5752 -0.5799  0.1993
13842TIP3    H163017   3.270   4.575  12.292 -0.0093 -1.6464  0.4448
13842TIP3    H263018   3.339   4.689  12.221 -1.6356 -0.7631  0.2361
13843TIP3   OH263019   4.604   1.960   1.484 -0.1774 -0.2231 -0.2424
13843TIP3    H163020   4.682   2.016   1.490 -0.2940 -0.1441  0.6723
13843TIP3    H263021   4.548   1.989   1.556 -0.5129 -1.1035 -0.1349
13844TIP3   OH263022   3.019   4.357  14.067 -0.2502  0.1200 -0.2439
13844TIP3    H163023   2.974   4.274  14.052  1.0549 -0.6404 -0.1233
13844TIP3    H263024   3.066   4.374  13.985  1.3107 -0.4503  0.5070
13845TIP3   OH263025   1.533   2.500   5.725 -0.3572 -0.9284 -0.0625
13845TIP3    H163026   1.489   2.418   5.747 -0.4147 -0.9123 -0.1183
13845TIP3    H263027   1.465   2.566   5.732 -0.2127 -0.8222  0.4145
13846TIP3   OH263028   5.206   5.440  17.390 -0.1454  0.0048 -0.1012
13846TIP3    H163029   5.207   5.352  17.353  0.7782 -0.2299  0.4485
13846TIP3    H263030   5.287   5.480  17.358  0.2553  0.0783  0.9698
13847TIP3   OH263031   2.855   4.103  16.368  0.3794 -0.0049 -0.5482
13847TIP3    H163032   2.846   4.020  16.321 -1.1854 -0.2378  0.0761
13847TIP3    H263033   2.769   4.145  16.358  0.9355  1.2345 -0.2982
13848TIP3   OH263034   0.682   0.673   4.685  0.5918 -0.3670  0.3050
13848TIP3    H163035   0.735   0.674   4.764 -1.0053  1.2837  1.4435
13848TIP3    H263036   0.637   0.758   4.685 -2.2291 -1.7384 -0.4207
13849TIP3   OH263037   6.017   2.350  13.898 -0.8116 -0.1925 -0.3556
13849TIP3    H163038   6.049   2.370  13.986 -1.1317 -0.6747 -0.1255
13849TIP3    H263039   5.992   2.257  13.902 -2.4583  0.2267 -0.4547
13850TIP3   OH263040   3.739   4.590  15.203  0.0084 -0.2812  0.1266
13850TIP3    H163041   3.770   4.655  15.266 -0.3255 -0.8739  0.9225
13850TIP3    H263042   3.814   4.532  15.190  0.4641  0.5240 -0.9580
13851TIP3   OH263043   4.310   4.584  16.678  0.1832 -0.4127  0.6652
13851TIP3    H163044   4.258   4.648  16.630 -1.0737 -1.8450  0.0265
13851TIP3    H263045   4.354   4.533  16.609  2.1162  0.4864  1.1857
13852TIP3   OH263046   5.211   5.610   3.111  0.4851  0.3430  0.2954
13852TIP3    H163047   5.305   5.595   3.124  0.5175  1.0513  0.9159
13852TIP3    H263048   5.205   5.642   3.020  0.8660  0.4662  0.3107
13853TIP3   OH263049   1.579   0.424  13.719  0.4262 -0.1065 -0.1838
13853TIP3    H163050   1.641   0.472  13.774  0.3945  0.7181 -0.8460
13853TIP3    H263051   1.538   0.361  13.779 -0.7657  1.8162  1.1568
13854TIP3   OH263052   4.991   1.369   2.707  0.3945 -0.4010  1.1855
13854TIP3    H163053   5.001   1.297   2.645 -0.0013 -0.3682  1.0778
13854TIP3    H263054   4.981   1.446   2.652 -0.6258 -0.4600  1.2674
13855TIP3   OH263055   1.916   6.316   1.902 -0.0728  0.0465 -0.5982
13855TIP3    H163056   1.975   6.260   1.953 -2.6958 -2.4040 -0.0191
13855TIP3    H263057   1.828   6.288   1.927 -1.5471  2.8516 -2.1365
13856TIP3   OH263058   3.592   5.246  11.600 -0.0592  0.5335  0.5816
13856TIP3    H163059   3.599   5.286  11.687 -0.2749 -1.5412  1.6025
13856TIP3    H263060   3.679   5.210  11.583 -0.7344 -1.5372  1.2443
13857TIP3   OH263061   5.482   3.507  13.031 -0.4290  0.4378 -0.0842
13857TIP3    H163062   5.496   3.583  13.087 -0.0781  1.2323 -1.2360
13857TIP3    H263063   5.519   3.434  13.081  1.9249  1.4625 -0.1858
13858TIP3   OH263064   4.393   5.235  15.975  0.8061 -0.1310 -0.3610
13858TIP3    H163065   4.307   5.275  15.982  0.8289  0.7973 -3.6306
13858TIP3    H263066   4.454   5.308  15.985  1.0101 -0.0752 -1.7433
13859TIP3   OH263067   1.139   6.149  11.732  0.3089  0.8586 -0.1204
13859TIP3    H163068   1.204   6.100  11.784  1.2309  1.7237 -0.4219
13859TIP3    H263069   1.121   6.092  11.657  0.8289  0.6586 -0.1015
13860TIP3   OH263070   4.236   6.345   1.504 -0.5752  0.5148 -0.1697
13860TIP3    H163071   4.318   6.307   1.474  0.2276  1.5410  0.6620
13860TIP3    H263072   4.207   6.286   1.574 -0.2945  0.4118 -0.1389
13861TIP3   OH263073   4.028   5.877  10.997 -0.2033  0.5179 -0.1501
13861TIP3    H163074   3.963   5.811  11.022 -0.0898  0.4393 -0.0609
13861TIP3    H263075   4.025   5.878  10.901 -0.2079  0.3845 -0.1519
13862TIP3   OH263076   6.548   1.137   0.300  0.5478 -0.0334  0.3844
13862TIP3    H163077   6.587   1.222   0.318  1.5160 -0.1671 -0.9169
13862TIP3    H263078   6.478   1.155   0.237  1.0183 -0.2312 -0.2045
13863TIP3   OH263079   3.675   0.970   1.516  0.5145  0.3122 -0.1999
13863TIP3    H163080   3.760   0.982   1.558 -0.0697  0.3207  0.9966
13863TIP3    H263081   3.656   0.876   1.526 -0.4057  0.6200  1.0914
13864TIP3   OH263082   1.669   5.396  17.272 -0.0513 -0.4577  0.3195
13864TIP3    H163083   1.640   5.354  17.191 -0.1316  1.3588 -0.6499
13864TIP3    H263084   1.588   5.418  17.318 -0.0607 -0.1921  0.1807
13865TIP3   OH263085   4.144   0.352  14.571 -0.3110 -0.3380 -0.3870
13865TIP3    H163086   4.221   0.299  14.554  0.8262  1.5313 -1.3659
13865TIP3    H263087   4.158   0.389  14.658 -0.9061 -1.2726  0.1205
13866TIP3   OH263088   4.297   6.250  16.063  0.1068 -0.0359  0.3942
13866TIP3    H163089   4.391   6.254  16.079  0.1675  0.5583 -0.0779
13866TIP3    H263090   4.260   6.308  16.130  0.2655  1.4919 -0.7922
13867TIP3   OH263091   0.220   6.083  11.496  0.4669 -0.0385 -0.0420
13867TIP3    H163092   0.204   6.024  11.422 -0.5673  1.8022 -1.3781
13867TIP3    H263093   0.149   6.066  11.557 -0.5700  0.6560 -1.0121
13868TIP3   OH263094   1.507   0.043  15.406  0.0101  0.2279  0.0222
13868TIP3    H163095   1.557   0.119  15.435 -1.6044  0.9066  1.2099
13868TIP3    H263096   1.468   0.008  15.487  0.5700 -1.7833 -0.5090
13869TIP3   OH263097   1.104   5.303   0.319  0.4742 -0.3764 -0.1669
13869TIP3    H163098   1.135   5.213   0.327  0.1391 -0.5339 -0.6152
13869TIP3    H263099   1.123   5.342   0.404 -0.3027 -1.1588  0.3872
13870TIP3   OH263100   0.383   2.171  13.422  0.2599 -0.6121  0.4436
13870TIP3    H163101   0.425   2.250  13.389  0.1004 -0.5447  0.4045
13870TIP3    H263102   0.437   2.146  13.497 -1.5568  1.4277  2.5930
13871TIP3   OH263103   1.898   5.277  15.291  0.2522 -0.3516 -0.1569
13871TIP3    H163104   1.946   5.265  15.209 -0.2544  0.4026 -0.5785
13871TIP3    H263105   1.855   5.192  15.306  1.1187 -0.8016 -0.1521
13872TIP3   OH263106   0.285   1.639   5.684  0.0436  0.5726  0.5559
13872TIP3    H163107   0.257   1.599   5.602  1.4352  2.6976 -1.0385
13872TIP3    H263108   0.339   1.572   5.726 -0.7622 -0.5778 -0.2025
13873TIP3   OH263109   6.606   1.871  13.929  0.2654 -0.2716  0.2686
13873TIP3    H163110   6.692   1.905  13.905  0.2219 -0.2678  0.1168
13873TIP3    H263111   6.551   1.949  13.937  0.3192 -0.2624  0.5371
13874TIP3   OH263112   3.095   0.109  13.288 -0.1786  0.1693  0.3759
13874TIP3    H163113   3.020   0.142  13.337 -0.4637  1.5093 -0.8892
13874TIP3    H263114   3.155   0.184  13.282 -0.6020  0.4039 -2.1332
13875TIP3   OH263115   0.845   3.492  13.136 -0.0304  0.0341 -0.0194
13875TIP3    H163116   0.753   3.468  13.123  0.7366 -2.9331 -0.6801
13875TIP3    H263117   0.870   3.450  13.218  0.9338  0.1096 -0.2597
13876TIP3   OH263118   5.781   4.043   0.901  0.1082  0.1393 -0.3990
13876TIP3    H163119   5.866   4.024   0.942 -1.0711 -0.0841  2.0975
13876TIP3    H263120   5.719   4.044   0.973 -1.7847  2.0089 -1.9426
13877TIP3   OH263121   4.309   6.022  16.811 -0.1854 -0.4215 -0.2760
13877TIP3    H163122   4.285   6.107  16.775  3.4554  0.5131 -0.8954
13877TIP3    H263123   4.350   5.976  16.739  1.6600 -0.9977  1.0611
13878TIP3   OH263124   3.675   0.297  16.207 -0.5180  0.6698 -0.5661
13878TIP3    H163125   3.752   0.326  16.159 -1.3551  2.2740 -1.0056
13878TIP3    H263126   3.604   0.302  16.143 -1.3734  1.3155  0.4091
13879TIP3   OH263127   6.400   6.137  12.764  0.0583 -0.1731 -0.7080
13879TIP3    H163128   6.363   6.221  12.790 -0.3485 -0.6278  0.1923
13879TIP3    H263129   6.346   6.109  12.690 -0.0830  0.1359 -0.7250
13880TIP3   OH263130   3.926   3.000  15.770 -0.0855  0.1102 -0.1884
13880TIP3    H163131   3.962   3.055  15.700 -0.5556  0.8077  0.1031
13880TIP3    H263132   3.899   2.920  15.727 -0.1544  0.4436 -0.7754
13881TIP3   OH263133   5.571   2.740  16.020  0.0173 -0.1223 -0.1890
13881TIP3    H163134   5.643   2.794  16.052  0.8698 -1.3643  0.0891
13881TIP3    H263135   5.558   2.769  15.930 -0.3494  1.3194  0.2981
13882TIP3   OH263136   0.786   5.889   4.896 -0.0694 -0.8841 -0.2973
13882TIP3    H163137   0.705   5.844   4.923 -0.6445  0.6644  0.6749
13882TIP3    H263138   0.831   5.825   4.842 -2.1787 -1.6377 -1.2881
13883TIP3   OH263139   3.780   6.589   1.557  0.1171 -0.0399 -0.4468
13883TIP3    H163140   3.849   6.650   1.531 -0.5191  0.6569 -0.5350
13883TIP3    H263141   3.819   6.536   1.626 -0.2027  2.4122  1.7727
13884TIP3   OH263142   3.676   1.168  11.466 -0.1534 -0.3320  0.9045
13884TIP3    H163143   3.640   1.255  11.483  1.4360  0.1438  2.2370
13884TIP3    H263144   3.707   1.171  11.376 -0.9772  0.1502  0.6331
13885TIP3   OH263145   5.346   4.177  11.265 -0.4943 -0.1070  0.0195
13885TIP3    H163146   5.283   4.106  11.276 -0.7065 -0.1608 -1.3164
13885TIP3    H263147   5.431   4.138  11.287 -0.6194 -0.7710 -0.6334
13886TIP3   OH263148   1.789   0.026  15.538 -0.1258  0.3119  0.4809
13886TIP3    H163149   1.708   0.002  15.582  0.3826  0.9333  1.8162
13886TIP3    H263150   1.854   0.032  15.608  1.0072  0.1513 -0.5097
13887TIP3   OH263151   5.789   3.780   5.325 -0.0891  0.5695  0.2946
13887TIP3    H163152   5.700   3.795   5.358 -0.6972 -0.5152 -0.7526
13887TIP3    H263153   5.803   3.686   5.335  1.1045  0.7870  0.7972
13888TIP3   OH263154   1.791   5.989   4.993 -0.0077 -0.5133 -0.2529
13888TIP3    H163155   1.798   5.952   4.906  1.5998 -0.7963 -0.0380
13888TIP3    H263156   1.724   5.936   5.037 -0.9592 -0.2533 -1.3346
13889TIP3   OH263157   1.733   2.802  16.706 -0.4835 -0.2361  0.1634
13889TIP3    H163158   1.640   2.788  16.688 -0.0824 -1.1850 -1.3580
13889TIP3    H263159   1.777   2.783  16.623  1.0181  0.9426  0.6256
13890TIP3   OH263160   0.448   6.525  15.895  0.3455  0.1689 -0.6627
13890TIP3    H163161   0.534   6.516  15.855  0.1369 -0.3960 -0.9921
13890TIP3    H263162   0.386   6.512  15.823 -0.0189  0.3716 -0.3913
13891TIP3   OH263163   6.697   5.877   3.530  0.4946 -0.7927  0.1931
13891TIP3    H163164   6.754   5.943   3.569  0.1389 -0.9692  1.0330
13891TIP3    H263165   6.644   5.926   3.466  1.5566 -0.6326 -0.5852
13892TIP3   OH263166   5.356   6.032   2.771 -0.5783  0.2007 -0.1858
13892TIP3    H163167   5.273   6.013   2.814 -0.6564  0.5627 -0.1729
13892TIP3    H263168   5.344   6.119   2.732 -0.5855 -0.2061 -1.1240
13893TIP3   OH263169   3.872   4.197  14.409  0.1408  0.0759 -0.1143
13893TIP3    H163170   3.950   4.222  14.358  0.6093 -0.1465  0.4743
13893TIP3    H263171   3.883   4.242  14.492  0.3314 -1.0284  0.4783
13894TIP3   OH263172   2.378   3.133   5.785 -0.0564 -0.0761  0.3718
13894TIP3    H163173   2.413   3.105   5.869 -2.6171 -0.0606  1.5227
13894TIP3    H263174   2.432   3.208   5.760  1.7577 -1.0435  1.1644
13895TIP3   OH263175   3.383   0.792   3.728  0.8749  0.7364 -0.1786
13895TIP3    H163176   3.429   0.854   3.785  4.2034 -0.9021 -0.8439
13895TIP3    H263177   3.395   0.707   3.770 -0.1969  0.0120 -1.2560
13896TIP3   OH263178   4.438   5.822   5.168  0.2849  0.3338  0.2050
13896TIP3    H163179   4.436   5.900   5.225 -1.9030 -0.3577  1.1654
13896TIP3    H263180   4.502   5.764   5.210 -1.9163 -0.5455  2.6579
13897TIP3   OH263181   1.179   3.551   1.298 -0.2970  0.3619  0.0997
13897TIP3    H163182   1.141   3.550   1.211 -0.4074  0.7321  0.1404
13897TIP3    H263183   1.226   3.635   1.303  1.7140 -0.6707 -0.4528
13898TIP3   OH263184   6.673   6.507  14.748 -0.0428 -0.1992  0.4534
13898TIP3    H163185   6.704   6.598  14.747 -0.3553 -0.0955  0.0059
13898TIP3    H263186   6.601   6.508  14.811  0.2536 -0.2452  0.8031
13899TIP3   OH263187   4.830   5.905   2.915 -0.4129 -0.7047 -0.2323
13899TIP3    H163188   4.737   5.885   2.907 -0.7088  1.0852 -2.0436
13899TIP3    H263189   4.863   5.903   2.825  0.7506  1.0383  0.1037
13900TIP3   OH263190   2.372   4.732   5.830  0.2940  0.0576 -0.4743
13900TIP3    H163191   2.426   4.690   5.897  2.0327 -0.1101 -1.8894
13900TIP3    H263192   2.357   4.663   5.765 -1.1751  0.2750 -0.4032
13901TIP3   OH263193   4.322   6.512   4.979  0.0650 -0.6461  0.2681
13901TIP3    H163194   4.345   6.583   4.919 -1.8688  0.7701  1.1263
13901TIP3    H263195   4.240   6.476   4.944  1.1195 -2.7015 -0.2904
13902TIP3   OH263196   3.209   1.601   0.406  0.2554 -0.4712  0.4541
13902TIP3    H163197   3.239   1.512   0.388 -0.1271 -0.6635  0.7662
13902TIP3    H263198   3.192   1.602   0.500  0.5416  0.0194  0.5047
13903TIP3   OH263199   5.538   6.559   4.753 -0.0303  0.2045  0.6489
13903TIP3    H163200   5.578   6.636   4.711 -0.0124  0.0666  0.4067
13903TIP3    H263201   5.444   6.574   4.744 -0.1001 -1.1738 -2.0704
13904TIP3   OH263202   1.676   4.784  11.310 -0.7734 -0.0658 -0.4486
13904TIP3    H163203   1.710   4.854  11.254  1.2917 -2.2544 -2.1462
13904TIP3    H263204   1.724   4.793  11.392 -1.6085  1.3203 -0.0686
13905TIP3   OH263205   5.603   1.562  15.329 -0.0179 -0.2355  0.2714
13905TIP3    H163206   5.673   1.546  15.265  0.4891  2.4612  0.0471
13905TIP3    H263207   5.635   1.523  15.410  0.7099 -1.0140 -0.3735
13906TIP3   OH263208   6.096   5.321   1.780  0.3711  0.3700  0.5544
13906TIP3    H163209   6.024   5.348   1.838 -0.3896 -0.3876 -0.0148
13906TIP3    H263210   6.100   5.390   1.714 -0.3176  0.0758  0.1877
13907TIP3   OH263211   4.743   2.435   1.785 -0.1172  0.3076  0.1270
13907TIP3    H163212   4.678   2.382   1.831  1.3651 -1.3144  0.4236
13907TIP3    H263213   4.817   2.441   1.844  0.3756  1.4082 -0.5559
13908TIP3   OH263214   2.991   2.333   1.098 -0.0612 -0.5548  0.1382
13908TIP3    H163215   2.914   2.380   1.129 -1.1971  0.2999 -3.5099
13908TIP3    H263216   2.956   2.258   1.050  1.4424 -0.9270 -0.4487
13909TIP3   OH263217   6.550   3.864  14.232  0.1458  0.3763 -0.2432
13909TIP3    H163218   6.623   3.821  14.188 -1.2976 -1.1591 -1.2396
13909TIP3    H263219   6.525   3.935  14.174  1.5150  1.6475  0.6466
13910TIP3   OH263220   0.268   0.325   1.339 -0.2968  0.0581  0.1839
13910TIP3    H163221   0.284   0.342   1.247 -0.9672 -1.0361 -0.1490
13910TIP3    H263222   0.222   0.403   1.370 -1.6385 -0.2918 -0.8401
13911TIP3   OH263223   4.526   4.504  16.050 -0.7354 -0.1797  0.6975
13911TIP3    H163224   4.580   4.544  16.118 -2.6815  1.6780  1.2991
13911TIP3    H263225   4.564   4.536  15.967 -0.2822  0.2324  1.0566
13912TIP3   OH263226   1.999   5.915  16.680  0.0578 -0.1611 -0.1792
13912TIP3    H163227   1.916   5.898  16.634  0.1688 -1.1762 -0.0227
13912TIP3    H263228   2.055   5.841  16.658  0.7969  0.3147  0.0433
13913TIP3   OH263229   6.305   0.565   1.795  0.2839 -0.1134 -0.1548
13913TIP3    H163230   6.305   0.652   1.834  2.6197 -0.3833  0.6392
13913TIP3    H263231   6.334   0.578   1.705  2.8592 -0.1954  0.5849
13914TIP3   OH263232   1.044   3.492  16.361 -0.2170  0.1579  0.4781
13914TIP3    H163233   1.110   3.514  16.295 -0.4335 -2.8747 -0.9375
13914TIP3    H263234   0.990   3.570  16.368  1.8512  1.7642 -0.3888
13915TIP3   OH263235   5.293   2.910  12.658  0.5471  0.1972 -0.8919
13915TIP3    H163236   5.244   2.828  12.646 -0.1094  0.3815  0.3242
13915TIP3    H263237   5.384   2.881  12.672  0.1594 -0.4186  0.5396
13916TIP3   OH263238   6.217   3.862   1.315  0.3660 -0.0167  0.0680
13916TIP3    H163239   6.204   3.773   1.346 -0.4298 -0.1215 -0.5140
13916TIP3    H263240   6.303   3.888   1.348 -0.2837 -0.2362  2.0524
13917TIP3   OH263241   1.901   0.550  13.626 -0.5301  0.7980  0.3254
13917TIP3    H163242   1.826   0.605  13.604 -1.4953 -0.8148 -0.6069
13917TIP3    H263243   1.877   0.509  13.710 -0.5369  0.5656  0.2112
13918TIP3   OH263244   4.761   6.367   5.308 -0.3950  0.3724 -0.3512
13918TIP3    H163245   4.717   6.302   5.364 -1.4213  1.4229  0.0975
13918TIP3    H263246   4.850   6.372   5.344 -0.3648 -0.5977 -0.2482
13919TIP3   OH263247   2.837   3.067  11.573  0.2654 -0.0824  0.2808
13919TIP3    H163248   2.792   3.041  11.493  0.6251  0.0878  0.0187
13919TIP3    H263249   2.803   3.154  11.593 -0.7076 -0.6108  0.9840
13920TIP3   OH263250   4.119   4.964   3.022  0.0139 -0.1595 -0.9947
13920TIP3    H163251   4.195   4.906   3.028  0.1274  0.0617 -0.0894
13920TIP3    H263252   4.054   4.924   3.081  0.5559  1.2860  0.6819
13921TIP3   OH263253   2.271   2.385  11.711  0.6540 -0.3642  0.4895
13921TIP3    H163254   2.313   2.299  11.715  0.4418 -0.5584 -0.9807
13921TIP3    H263255   2.333   2.439  11.663  0.1693 -0.0749  0.1840
13922TIP3   OH263256   5.833   3.414   0.783  0.0315 -0.3240 -0.8479
13922TIP3    H163257   5.889   3.365   0.843 -2.5329 -0.5441  1.5790
13922TIP3    H263258   5.842   3.505   0.811 -0.9474 -0.3927 -0.2459
13923TIP3   OH263259   1.396   2.866   3.834 -0.1915  0.7862 -0.1250
13923TIP3    H163260   1.437   2.936   3.886  1.2017  1.8885 -2.5162
13923TIP3    H263261   1.453   2.790   3.847  2.0155  1.9233 -2.3353
13924TIP3   OH263262   5.634   5.611  14.868  0.0880  0.3868  0.0845
13924TIP3    H163263   5.542   5.617  14.844 -0.1819  1.2668  1.2405
13924TIP3    H263264   5.681   5.637  14.788 -0.7428  2.3884  0.1883
13925TIP3   OH263265   2.467   1.496  14.760  0.5378  0.0088  0.0323
13925TIP3    H163266   2.520   1.420  14.736 -1.2767 -1.3860  0.1952
13925TIP3    H263267   2.523   1.571  14.742  2.9290 -1.3826  1.1363
13926TIP3   OH263268   4.184   2.313   1.503 -0.3584  0.1619  0.7800
13926TIP3    H163269   4.178   2.378   1.434  0.1191  0.2869  0.8506
13926TIP3    H263270   4.106   2.326   1.556 -0.1681  0.8116  0.9060
13927TIP3   OH263271   6.162   5.939   3.092 -0.0178  0.3178  0.1344
13927TIP3    H163272   6.066   5.937   3.088 -0.0410  0.0983  0.6810
13927TIP3    H263273   6.191   5.898   3.011 -0.3954 -0.2085  0.2626
13928TIP3   OH263274   3.408   3.793  15.514  0.1631 -0.4369  0.1440
13928TIP3    H163275   3.484   3.735  15.527 -0.7847 -1.4352  1.5398
13928TIP3    H263276   3.362   3.791  15.598 -0.5813  1.3951 -0.1836
13929TIP3   OH263277   6.697   5.447  15.905 -0.1459  0.0116 -0.2209
13929TIP3    H163278   6.661   5.396  15.978  0.4011 -0.1365 -0.0441
13929TIP3    H263279   6.789   5.419  15.900 -0.6515 -1.5072 -2.2653
13930TIP3   OH263280   3.757   0.139   3.285  0.1377 -0.1368 -0.9534
13930TIP3    H163281   3.773   0.192   3.362  0.2451 -1.7656  0.1950
13930TIP3    H263282   3.790   0.052   3.308  0.0851 -0.6877 -2.7988
13931TIP3   OH263283   6.781   0.420   3.415  0.1149  0.2366  0.3101
13931TIP3    H163284   6.782   0.366   3.494  0.3452 -1.0131 -0.4987
13931TIP3    H263285   6.688   0.428   3.393  0.0363 -3.9029 -2.0877
13932TIP3   OH263286   0.468   1.730  14.598  0.0796 -0.1866 -0.3942
13932TIP3    H163287   0.488   1.668  14.528 -1.2897 -0.5019 -0.5380
13932TIP3    H263288   0.545   1.787  14.603 -0.1269  0.3723 -2.7244
13933TIP3   OH263289   6.388   2.267  15.301 -0.5937 -0.1358 -0.1484
13933TIP3    H163290   6.430   2.182  15.313  1.5919  0.9938  0.7848
13933TIP3    H263291   6.365   2.270  15.208  0.8713 -1.0919 -0.5790
13934TIP3   OH263292   6.522   0.254  11.972  0.1687 -0.3005  0.3808
13934TIP3    H163293   6.492   0.168  11.943 -0.3774  0.2373 -0.7021
13934TIP3    H263294   6.452   0.314  11.947  0.7005  0.5138  0.8022
13935TIP3   OH263295   1.366   1.632   2.033  0.1174 -0.9104 -0.7562
13935TIP3    H163296   1.287   1.672   2.071  1.9427  0.7178  1.6716
13935TIP3    H263297   1.357   1.645   1.939 -0.9066  2.5965 -0.3160
13936TIP3   OH263298   2.097   5.211  16.628  0.4159  0.0273 -0.1665
13936TIP3    H163299   2.142   5.217  16.712  0.7715 -0.6968 -0.2931
13936TIP3    H263300   2.072   5.118  16.621 -2.5904  0.6625  0.6584
13937TIP3   OH263301   3.623   3.385   0.811  0.0479  0.2209  0.2245
13937TIP3    H163302   3.542   3.435   0.802 -0.7425 -1.0593  0.0717
13937TIP3    H263303   3.612   3.310   0.754  1.9043  0.6891 -0.8367
13938TIP3   OH263304   6.372   4.591  15.234 -0.2188 -0.2861 -0.2796
13938TIP3    H163305   6.371   4.613  15.327 -2.1269 -0.6644 -0.1787
13938TIP3    H263306   6.403   4.670  15.191  1.3850 -0.3375  0.7056
13939TIP3   OH263307   6.265   1.166  15.588  0.2270 -0.5443  0.1087
13939TIP3    H163308   6.191   1.106  15.594  0.9178 -1.3159  1.3983
13939TIP3    H263309   6.296   1.158  15.498 -0.1727 -1.5334  0.0491
13940TIP3   OH263310   1.907   3.543   4.353  0.0448  0.1741  0.7099
13940TIP3    H163311   1.888   3.514   4.264  0.4373  1.7627  0.0795
13940TIP3    H263312   1.857   3.624   4.363  3.0839  2.1933  0.4840
13941TIP3   OH263313   0.583   2.076   2.451 -0.2634  0.4571  0.1185
13941TIP3    H163314   0.586   2.106   2.360 -1.8873  2.9026  0.7866
13941TIP3    H263315   0.581   1.980   2.444  2.5677  0.4024 -2.2430
13942TIP3   OH263316   1.069   4.637   3.699  0.5554  0.7076  0.3247
13942TIP3    H163317   1.069   4.680   3.785 -0.0474  1.1787  0.0937
13942TIP3    H263318   0.982   4.654   3.663  0.9421  0.8881 -0.5635
13943TIP3   OH263319   5.053   3.467   2.405  1.6897  0.5483 -0.6695
13943TIP3    H163320   5.146   3.448   2.421  1.7810  1.7790  0.4145
13943TIP3    H263321   5.052   3.558   2.376  1.0203 -0.1729 -3.1169
13944TIP3   OH263322   4.220   5.484  11.897  0.1725  0.6113  0.1777
13944TIP3    H163323   4.300   5.444  11.932 -0.9209  0.4615  2.7031
13944TIP3    H263324   4.228   5.577  11.917  1.2958  1.3097 -2.9152
13945TIP3   OH263325   2.467   4.763   3.732  0.2256 -0.0908  0.1093
13945TIP3    H163326   2.500   4.839   3.780 -0.1971  2.5401 -3.3343
13945TIP3    H263327   2.545   4.712   3.710  1.0767  1.5269 -0.7892
13946TIP3   OH263328   2.933   3.867  17.304  0.4442 -0.3214  0.2599
13946TIP3    H163329   3.002   3.802  17.313  0.8463  0.2867  2.0093
13946TIP3    H263330   2.885   3.863  17.386 -1.6578 -0.7365 -0.9239
13947TIP3   OH263331   3.916   6.740   6.051  0.5414 -0.0839  0.3087
13947TIP3    H163332   3.887   6.804   5.986  1.2491 -0.8332 -0.7728
13947TIP3    H263333   3.935   6.792   6.129 -1.9087  0.6550  0.4975
13948TIP3   OH263334   1.588   2.623   1.674 -0.3629 -0.4753  0.0530
13948TIP3    H163335   1.588   2.531   1.650 -0.9836 -0.0896 -1.5703
13948TIP3    H263336   1.592   2.669   1.590  1.0065  0.9823  0.8511
13949TIP3   OH263337   4.650   1.711   1.911 -0.5289 -0.3688 -0.1785
13949TIP3    H163338   4.705   1.787   1.933 -0.6514  0.1665 -1.6356
13949TIP3    H263339   4.679   1.643   1.971 -0.1738  0.7173  0.9444
13950TIP3   OH263340   4.768   3.200  16.958  0.2396 -0.5831 -0.4377
13950TIP3    H163341   4.721   3.261  16.901  2.1026  1.6557  0.2162
13950TIP3    H263342   4.715   3.195  17.037 -1.1561 -1.8187 -1.4028
13951TIP3   OH263343   4.791   3.119   0.808  0.4854 -0.0157  0.1288
13951TIP3    H163344   4.819   3.052   0.745  1.0469 -0.9053  1.2978
13951TIP3    H263345   4.700   3.137   0.784  0.4802 -0.8423 -0.5148
13952TIP3   OH263346   1.074   2.298  16.637  0.4856  0.4525  0.1835
13952TIP3    H163347   1.119   2.216  16.617 -0.5969  0.0810 -0.8227
13952TIP3    H263348   1.087   2.310  16.731 -1.9881 -2.5647  1.0886
13953TIP3   OH263349   2.468   1.751   3.202  0.3686 -0.4233  0.5681
13953TIP3    H163350   2.539   1.801   3.244 -1.6582  0.9666  2.5817
13953TIP3    H263351   2.397   1.814   3.192 -0.1350 -1.3464 -2.9248
13954TIP3   OH263352   5.224   3.179  14.951 -0.0203 -0.2149  0.4632
13954TIP3    H163353   5.168   3.246  14.991 -0.6995 -1.3285  1.4452
13954TIP3    H263354   5.206   3.099  15.001 -0.0636 -1.4232 -1.3490
13955TIP3   OH263355   5.833   1.045  11.252  0.0343 -0.1857  0.2586
13955TIP3    H163356   5.806   0.956  11.276  0.9046 -0.4611  0.2578
13955TIP3    H263357   5.855   1.040  11.159 -1.4700  0.4273 -0.1538
13956TIP3   OH263358   5.034   3.103   1.801  0.0876 -0.5813 -0.2640
13956TIP3    H163359   4.951   3.100   1.754 -1.4638 -0.1941  2.2803
13956TIP3    H263360   5.042   3.194   1.830  1.5532 -0.5554 -0.6454
13957TIP3   OH263361   2.702   4.307  11.333  0.2107  0.6835  0.1415
13957TIP3    H163362   2.783   4.337  11.291  0.0665 -1.7843 -2.2118
13957TIP3    H263363   2.637   4.307  11.263 -1.5696  1.4536  1.7092
13958TIP3   OH263364   5.062   3.072   4.021 -0.5307 -0.0944 -0.9836
13958TIP3    H163365   5.119   3.017   3.968  0.3308 -1.0563  0.8422
13958TIP3    H263366   5.090   3.161   4.002  1.8690 -0.5470  0.0892
13959TIP3   OH263367   2.468   3.091  14.036  0.4047 -0.5201  0.8145
13959TIP3    H163368   2.412   3.120  13.964  1.2122  0.7180  0.6418
13959TIP3    H263369   2.509   3.172  14.068  3.6788 -1.5263 -0.4270
13960TIP3   OH263370   4.602   6.036  15.154  0.5554  0.4565 -0.4427
13960TIP3    H163371   4.539   5.976  15.195  1.2830 -0.2180 -0.2809
13960TIP3    H263372   4.563   6.056  15.069  0.5518 -0.7104 -0.7353
13961TIP3   OH263373   6.274   0.750   4.048  0.1202 -0.9447  0.1001
13961TIP3    H163374   6.194   0.799   4.064  0.8110  0.7108 -1.2298
13961TIP3    H263375   6.245   0.667   4.011 -1.0475 -1.3587  1.8286
13962TIP3   OH263376   0.938   1.474  15.374 -0.1995 -0.1207 -0.6175
13962TIP3    H163377   1.028   1.483  15.405  0.0129  0.7985 -1.4386
13962TIP3    H263378   0.939   1.398  15.316  0.3054  0.4961 -1.4436
13963TIP3   OH263379   6.028   0.287   4.956 -0.1995  0.4050 -0.5112
13963TIP3    H163380   6.060   0.258   5.041 -0.5338  2.8662  0.5474
13963TIP3    H263381   5.944   0.244   4.945 -2.1538  3.0417  2.4164
13964TIP3   OH263382   1.541   4.577  15.012 -0.3639  0.5416 -0.7541
13964TIP3    H163383   1.609   4.511  15.029 -0.2085  0.6274 -1.0345
13964TIP3    H263384   1.510   4.603  15.099 -0.0671  0.4710 -0.6276
13965TIP3   OH263385   3.193   4.214  14.438  0.4559  0.0743  0.2745
13965TIP3    H163386   3.272   4.265  14.422 -0.1676  1.4392  1.2997
13965TIP3    H263387   3.143   4.267  14.500 -0.4463 -1.6110  1.0383
13966TIP3   OH263388   1.668   1.691   2.805 -0.3150 -0.8295 -0.1695
13966TIP3    H163389   1.734   1.642   2.854 -0.6986 -0.5801  0.6105
13966TIP3    H263390   1.585   1.649   2.829 -0.9532  1.6796  2.4650
13967TIP3   OH263391   2.028   2.911   3.812  0.2056  0.6264 -0.8932
13967TIP3    H163392   1.990   2.999   3.812 -1.4543 -0.0185  0.7495
13967TIP3    H263393   2.026   2.885   3.904  0.0210 -1.4076 -1.4303
13968TIP3   OH263394   5.229   6.543  15.318 -0.0080 -0.0851  0.4878
13968TIP3    H163395   5.183   6.478  15.371  0.1842 -1.7276 -1.2903
13968TIP3    H263396   5.321   6.524  15.331  0.0898  0.5846  0.8386
13969TIP3   OH263397   4.848   0.653   1.263 -0.1923  0.4910  0.7069
13969TIP3    H163398   4.842   0.724   1.327 -0.5390  0.0050  1.2239
13969TIP3    H263399   4.927   0.673   1.214  0.3904  0.5886  1.6459
13970TIP3   OH263400   0.402   0.155   3.114 -0.2188 -0.2975  0.3170
13970TIP3    H163401   0.466   0.090   3.084  1.5019 -0.0209  3.0395
13970TIP3    H263402   0.350   0.108   3.180 -0.6579  0.3867  0.4672
13971TIP3   OH263403   6.189   3.291   5.984  0.1237 -0.4396  0.0891
13971TIP3    H163404   6.227   3.203   5.993  1.8438  0.2500 -0.2642
13971TIP3    H263405   6.231   3.328   5.907 -0.8607  0.5856  0.0225
13972TIP3   OH263406   3.204   0.408  17.154  0.2966 -0.7087 -0.0752
13972TIP3    H163407   3.297   0.419  17.177  0.1852  0.4588 -0.1004
13972TIP3    H263408   3.160   0.393  17.237  0.3620 -0.0314  0.0916
13973TIP3   OH263409   2.233   4.743  15.072 -0.2744 -0.3165  0.0734
13973TIP3    H163410   2.288   4.677  15.029 -0.5642 -0.4311 -0.1249
13973TIP3    H263411   2.284   4.824  15.067 -0.3753 -0.2858 -0.6495
13974TIP3   OH263412   4.916   5.325  14.687 -0.0136 -0.2571 -0.4807
13974TIP3    H163413   4.911   5.237  14.648  1.0200 -0.6396  0.2105
13974TIP3    H263414   4.998   5.324  14.737 -0.2791  0.9178 -0.0043
13975TIP3   OH263415   2.118   2.861   2.421  0.0076 -0.4572 -0.1389
13975TIP3    H163416   2.207   2.827   2.416  0.5919  1.0785 -0.8616
13975TIP3    H263417   2.067   2.805   2.363  0.0766 -2.4783  1.6482
13976TIP3   OH263418   6.182   0.840  14.815  0.1193 -0.4264  0.0558
13976TIP3    H163419   6.248   0.780  14.779  1.7057  1.5353 -0.5152
13976TIP3    H263420   6.225   0.879  14.892 -0.5025  0.5973 -0.0941
13977TIP3   OH263421   0.660   1.282  12.934 -0.2584  0.0286  0.4231
13977TIP3    H163422   0.661   1.222  13.009 -0.4405 -1.5264 -0.7674
13977TIP3    H263423   0.606   1.355  12.964  4.0561  2.3334  3.8220
13978TIP3   OH263424   5.785   2.927  13.882 -0.1765 -0.2136 -0.1038
13978TIP3    H163425   5.809   2.834  13.881  1.1482  0.0984  0.5462
13978TIP3    H263426   5.868   2.973  13.894 -0.8892  1.0376  0.1857
13979TIP3   OH263427   3.322   1.927  15.233  0.5950 -0.3558 -0.6271
13979TIP3    H163428   3.250   1.870  15.204 -0.6376 -1.0009  3.2144
13979TIP3    H263429   3.290   2.015  15.217 -0.5402 -0.6579 -0.1266
13980TIP3   OH263430   2.122   6.642   0.865 -0.2582 -0.3699  0.1165
13980TIP3    H163431   2.083   6.649   0.952  1.2098 -0.8064  0.8467
13980TIP3    H263432   2.167   6.557   0.866  0.1525 -0.1747 -0.9093
13981TIP3   OH263433   3.314   2.816  11.692  0.4080 -0.6148 -0.0115
13981TIP3    H163434   3.267   2.860  11.622  1.2025  0.6906  0.2447
13981TIP3    H263435   3.370   2.752  11.647  0.6239 -0.0645 -0.5318
13982TIP3   OH263436   6.470   2.166   4.022 -0.6768  0.3643 -0.6864
13982TIP3    H163437   6.453   2.253   3.985 -1.0910  0.3845 -0.4557
13982TIP3    H263438   6.488   2.182   4.114  0.8807  0.3673 -0.9701
13983TIP3   OH263439   6.062   0.863   5.656 -0.5601 -0.4289  0.5254
13983TIP3    H163440   6.047   0.944   5.608 -0.0314  0.0655  1.1949
13983TIP3    H263441   6.118   0.811   5.599  0.1980  0.2228  0.6678
13984TIP3   OH263442   0.103   1.668  10.970 -0.2073  0.4149  0.1669
13984TIP3    H163443   0.088   1.756  10.934 -0.7970  1.0431  1.8546
13984TIP3    H263444   0.062   1.609  10.907  0.2592  1.3285 -1.0373
13985TIP3   OH263445   6.517   4.489  17.051  0.4986 -0.2483  0.1099
13985TIP3    H163446   6.482   4.435  17.122  0.2804  0.8024  0.8240
13985TIP3    H263447   6.604   4.515  17.080  0.9072 -0.8286 -0.5662
13986TIP3   OH263448   3.968   3.835   2.539  0.6468 -0.5664  0.4593
13986TIP3    H163449   3.950   3.859   2.630 -0.5174 -0.4921  0.2210
13986TIP3    H263450   3.895   3.871   2.489  2.0935  0.8353 -0.7516
13987TIP3   OH263451   5.644   5.845   6.459  0.2890  0.0345 -0.0223
13987TIP3    H163452   5.716   5.869   6.401 -0.2903 -1.7911 -1.6043
13987TIP3    H263453   5.580   5.915   6.447  1.0512  0.7665  0.0598
13988TIP3   OH263454   3.858   3.321   2.605  0.1378 -0.1051 -0.0190
13988TIP3    H163455   3.798   3.385   2.642 -0.8853 -1.3265  0.5174
13988TIP3    H263456   3.835   3.317   2.512 -0.9597 -0.8796  0.2609
13989TIP3   OH263457   4.323   4.718   6.442  0.3878  0.4945 -0.0583
13989TIP3    H163458   4.364   4.632   6.438 -0.4753  0.0271  0.6496
13989TIP3    H263459   4.307   4.733   6.535 -0.3244  1.0013 -0.2466
13990TIP3   OH263460   3.508   4.613  14.387 -0.3366 -0.1394 -0.6321
13990TIP3    H163461   3.561   4.685  14.422  1.3604 -0.7168 -1.9157
13990TIP3    H263462   3.522   4.617  14.293 -0.9715 -1.5847 -0.8079
13991TIP3   OH263463   1.133   6.114  15.330  0.4552  0.1880 -0.4209
13991TIP3    H163464   1.184   6.117  15.411  1.6214 -0.0806 -1.1223
13991TIP3    H263465   1.111   6.022  15.319  1.3761  0.0262 -1.0382
13992TIP3   OH263466   2.431   3.605  15.846 -0.0855  0.5270  0.2257
13992TIP3    H163467   2.420   3.616  15.940  3.0438  0.0420  0.7425
13992TIP3    H263468   2.428   3.510  15.832 -1.8735  0.6375 -0.4295
13993TIP3   OH263469   1.358   4.284   3.447  0.5001 -0.4569 -0.1626
13993TIP3    H163470   1.428   4.345   3.472 -0.2880  0.2682  0.3180
13993TIP3    H263471   1.366   4.211   3.507 -0.0017  0.2620  0.8038
13994TIP3   OH263472   5.767   5.518  12.572 -0.3956 -0.2475 -0.8941
13994TIP3    H163473   5.832   5.589  12.568 -2.8611  2.3345  0.7878
13994TIP3    H263474   5.784   5.475  12.656  0.2211 -0.7544 -1.2724
13995TIP3   OH263475   2.701   3.516  15.439 -0.2501  0.4784  0.0517
13995TIP3    H163476   2.755   3.549  15.510  0.8019  0.2346 -0.6045
13995TIP3    H263477   2.648   3.591  15.411  1.7819  1.5463 -1.1292
13996TIP3   OH263478   6.615   4.533  12.746 -0.2274 -0.2424  0.0883
13996TIP3    H163479   6.577   4.532  12.658 -0.2951  0.7620  0.0898
13996TIP3    H263480   6.693   4.587  12.738  1.6549 -2.7969 -0.0571
13997TIP3   OH263481   2.248   2.141   2.173  0.3355  0.5986  0.4173
13997TIP3    H163482   2.213   2.107   2.255 -0.5590  1.4430  0.3982
13997TIP3    H263483   2.212   2.229   2.166  0.1642  0.4397 -1.0189
13998TIP3   OH263484   5.150   2.391  16.655 -0.7129  0.2517  0.5094
13998TIP3    H163485   5.103   2.318  16.693 -1.9362  2.8048  4.5061
13998TIP3    H263486   5.242   2.366  16.661 -1.1339 -1.3954  0.5879
13999TIP3   OH263487   1.362   0.888   0.689  0.0632  0.3591 -0.4294
13999TIP3    H163488   1.444   0.896   0.738  0.3602 -2.8464 -0.1948
13999TIP3    H263489   1.379   0.818   0.625 -2.5435 -0.6541 -0.1367
14000TIP3   OH263490   5.996   1.074   1.392  0.2473  0.0174  0.3913
14000TIP3    H163491   6.014   1.062   1.299 -0.1442 -0.5211  0.3856
14000TIP3    H263492   5.984   1.169   1.402 -1.8837 -0.1127 -0.5052
14001TIP3   OH263493   1.100   1.250  16.288  0.1016 -0.6097 -0.0106
14001TIP3    H163494   1.024   1.199  16.261 -0.6022  0.7157 -0.5889
14001TIP3    H263495   1.069   1.340  16.291  1.6961 -0.0195 -0.4186
14002TIP3   OH263496   1.866   5.542  11.247 -0.0853  0.2845 -0.0010
14002TIP3    H163497   1.892   5.473  11.307 -0.1753  1.0924  1.0063
14002TIP3    H263498   1.794   5.586  11.292 -1.2124 -0.0642 -1.4125
14003TIP3   OH263499   6.282   6.772  12.289  0.1798  0.2728  0.4399
14003TIP3    H163500   6.348   6.802  12.352  1.1934 -1.2609  0.1624
14003TIP3    H263501   6.235   6.702  12.335 -1.6422  1.6884  0.8164
14004TIP3   OH263502   0.123   0.756  11.796 -0.1198 -0.2312 -0.1622
14004TIP3    H163503   0.209   0.713  11.795  0.5375  1.0682 -1.1294
14004TIP3    H263504   0.131   0.828  11.734 -1.2302  1.2441  1.3248
14005TIP3   OH263505   2.026   3.721  13.057  0.4733 -0.0121 -0.1368
14005TIP3    H163506   1.975   3.775  13.118  0.3118  0.7464 -0.9221
14005TIP3    H263507   1.961   3.685  12.997  0.8302  0.8860 -1.0891
14006TIP3   OH263508   6.527   0.570   0.501 -0.5970 -0.2292  0.0671
14006TIP3    H163509   6.572   0.556   0.585 -0.4586 -0.1793  0.0030
14006TIP3    H263510   6.458   0.632   0.521  0.0180  0.5065 -0.0338
14007TIP3   OH263511   6.093   5.337  16.783 -0.0181 -0.5805  0.6566
14007TIP3    H163512   6.027   5.367  16.721  0.8594 -1.1759 -0.6188
14007TIP3    H263513   6.044   5.300  16.856 -1.2054 -3.4527 -1.4029
14008TIP3   OH263514   3.875   4.659   2.776  0.3054  0.0010 -0.0250
14008TIP3    H163515   3.911   4.746   2.758  2.0207 -0.8417 -0.8525
14008TIP3    H263516   3.781   4.669   2.759 -0.0661  2.4029  2.7199
14009TIP3   OH263517   0.741   5.744  12.233 -0.4470 -0.1130 -0.2479
14009TIP3    H163518   0.802   5.812  12.205 -0.4614 -0.7886 -2.0642
14009TIP3    H263519   0.693   5.721  12.153  0.3105 -2.9854  0.0104
14010TIP3   OH263520   1.947   2.614  16.256 -0.1444 -0.9222  0.1468
14010TIP3    H163521   1.901   2.549  16.203  0.6929 -0.9707 -0.5506
14010TIP3    H263522   1.933   2.585  16.346  0.0554 -1.9754 -0.1415
14011TIP3   OH263523   3.241   5.732   4.149  0.3490  0.1222  0.9219
14011TIP3    H163524   3.260   5.802   4.088  0.5717  0.3286  1.2284
14011TIP3    H263525   3.148   5.712   4.135  0.9985 -1.6893 -1.4021
14012TIP3   OH263526   6.503   1.783  15.153  0.0483  1.1041 -0.0814
14012TIP3    H163527   6.435   1.827  15.204 -0.0938  0.2395  0.5118
14012TIP3    H263528   6.516   1.838  15.076 -2.1559  0.7204 -0.8074
14013TIP3   OH263529   4.634   2.051  15.394 -0.0587  0.2013  0.3789
14013TIP3    H163530   4.641   2.061  15.300  0.1225 -1.8457  0.1237
14013TIP3    H263531   4.725   2.039  15.424 -0.0412  1.5135  0.9366
14014TIP3   OH263532   4.673   3.266  12.386  0.0355  0.6616 -0.6770
14014TIP3    H163533   4.610   3.204  12.347  2.1392 -0.9982 -1.6875
14014TIP3    H263534   4.688   3.331  12.317 -0.0826  0.6873 -0.6794
14015TIP3   OH263535   0.471   3.686   0.315  0.0326  0.0548  0.1064
14015TIP3    H163536   0.405   3.635   0.360  0.8726 -2.9196 -1.7658
14015TIP3    H263537   0.549   3.630   0.313  2.1420  2.7036  0.6937
14016TIP3   OH263538   2.149   4.654   2.885  0.5960 -0.0397 -0.5907
14016TIP3    H163539   2.114   4.650   2.974 -1.0973 -1.9544 -1.2760
14016TIP3    H263540   2.195   4.572   2.873 -0.0214 -0.2334 -1.7853
14017TIP3   OH263541   6.228   4.117  12.481  0.1957  0.4206 -0.5832
14017TIP3    H163542   6.228   4.186  12.414  0.6557  0.6498 -0.3562
14017TIP3    H263543   6.137   4.108  12.506  0.2712  1.8828  0.3281
14018TIP3   OH263544   6.766   4.919  12.517 -0.2244 -0.1460  0.1896
14018TIP3    H163545   6.739   5.010  12.532  2.1067  0.5589  0.5274
14018TIP3    H263546   6.853   4.926  12.477  0.9493 -2.2111  2.1580
14019TIP3   OH263547   1.001   1.088   5.617  0.1077 -0.8421 -0.3266
14019TIP3    H163548   1.003   1.080   5.712  1.7053 -1.2077 -0.3527
14019TIP3    H263549   0.911   1.111   5.596 -0.1673 -0.3213  1.3056
14020TIP3   OH263550   1.304   1.350   5.680  0.5347 -0.5509 -0.3486
14020TIP3    H163551   1.388   1.306   5.664  0.5734 -1.0088  1.0383
14020TIP3    H263552   1.327   1.443   5.680  1.2930 -0.6985  1.1736
14021TIP3   OH263553   5.018   1.715   2.322  0.2157  0.4849 -0.1112
14021TIP3    H163554   4.965   1.721   2.242 -2.5652 -0.5472  1.4997
14021TIP3    H263555   5.097   1.668   2.295  0.6263  2.4697 -2.7406
14022TIP3   OH263556   3.839   3.224   1.450  0.4571  0.9761 -0.3347
14022TIP3    H163557   3.897   3.159   1.410 -0.5482  0.7431 -1.4558
14022TIP3    H263558   3.898   3.285   1.494  1.4357 -0.7370  0.8698
14023TIP3   OH263559   0.805   1.745   2.978  0.1104  0.2859 -0.4669
14023TIP3    H163560   0.892   1.726   3.012 -0.1272  0.0807  0.0445
14023TIP3    H263561   0.745   1.706   3.042 -0.3591 -1.1661 -1.7208
14024TIP3   OH263562   1.015   3.018  16.646  0.0949  0.1872  0.7275
14024TIP3    H163563   1.045   3.008  16.556 -0.0795  1.4686  0.5073
14024TIP3    H263564   0.919   3.022  16.639  0.0690  0.0757  0.9997
14025TIP3   OH263565   3.084   3.580   2.383 -0.0412 -0.0512 -0.2883
14025TIP3    H163566   3.107   3.593   2.291 -0.2082  1.0872 -0.1779
14025TIP3    H263567   3.129   3.499   2.407  0.7316  0.1127 -1.1268
14026TIP3   OH263568   4.264   4.602   4.488 -0.1977  0.0971 -0.1404
14026TIP3    H163569   4.182   4.635   4.452  0.0695  1.5565  0.5204
14026TIP3    H263570   4.288   4.666   4.555  0.7947 -1.0153  0.6054
14027TIP3   OH263571   0.815   5.741   0.682 -0.0297 -0.2993  0.2061
14027TIP3    H163572   0.835   5.829   0.650  0.0621 -1.2547 -2.6279
14027TIP3    H263573   0.724   5.747   0.713 -1.1772  0.1327 -2.9518
14028TIP3   OH263574   0.272   5.803   2.732  0.2313  0.2037 -0.5684
14028TIP3    H163575   0.297   5.715   2.706  0.0976  0.4389 -1.5127
14028TIP3    H263576   0.351   5.855   2.721  0.5108  0.0774  0.6704
14029TIP3   OH263577   2.008   5.397  16.152 -0.1303  0.0253  0.2602
14029TIP3    H163578   1.916   5.397  16.125 -0.4985  0.0064  1.4497
14029TIP3    H263579   2.031   5.305  16.157  0.0336  0.0360 -0.2975
14030TIP3   OH263580   0.195   0.005  11.588  0.1698 -0.1293 -0.0925
14030TIP3    H163581   0.279   0.051  11.589  0.4515 -0.6088 -1.0475
14030TIP3    H263582   0.198  -0.052  11.665  0.5601  0.1215  0.0826
14031TIP3   OH263583   5.994   4.831   1.545  0.0459  0.1658  0.3489
14031TIP3    H163584   5.975   4.857   1.455 -0.0878 -0.9394  0.0332
14031TIP3    H263585   5.925   4.871   1.597 -2.2583 -2.3242 -0.5575
14032TIP3   OH263586   4.861   3.296   5.296  0.2757 -0.4757  0.4206
14032TIP3    H163587   4.910   3.332   5.370  0.4970 -0.8312  0.4453
14032TIP3    H263588   4.812   3.371   5.261 -0.3605 -0.4465  1.3387
14033TIP3   OH263589   1.431   6.126  12.438  0.1537  0.5823 -0.0786
14033TIP3    H163590   1.473   6.160  12.517 -1.0668  0.9426  0.4308
14033TIP3    H263591   1.408   6.205  12.388  0.8166  0.3606 -0.7595
14034TIP3   OH263592   6.525   0.418   2.974 -0.0974  0.3259 -0.3919
14034TIP3    H163593   6.536   0.502   3.019 -0.9682 -0.4213  1.2722
14034TIP3    H263594   6.435   0.419   2.943 -0.8633 -0.8596  1.6042
14035TIP3   OH263595   2.980   6.212  10.776 -0.3061  0.0624 -0.4758
14035TIP3    H163596   3.004   6.120  10.761  1.0035  0.5675 -1.6336
14035TIP3    H263597   2.965   6.217  10.871  2.0073 -0.8400  0.0186
14036TIP3   OH263598   1.152   4.263  14.726 -0.0561  0.4791  0.2879
14036TIP3    H163599   1.194   4.330  14.672 -0.2194 -0.1183 -0.6022
14036TIP3    H263600   1.059   4.283  14.720  0.0427  1.8308  2.2989
14037TIP3   OH263601   0.744   3.377   3.341 -0.1628  0.3310 -0.6146
14037TIP3    H163602   0.796   3.328   3.405 -0.2505  0.5088 -0.4045
14037TIP3    H263603   0.809   3.420   3.285 -0.0388  1.8988  0.6608
14038TIP3   OH263604   4.927   3.730   0.767  0.3759 -0.2869 -0.3589
14038TIP3    H163605   4.834   3.749   0.761  0.2509 -0.2694  1.2691
14038TIP3    H263606   4.931   3.640   0.798  0.8282  0.4774  2.0071
14039TIP3   OH263607   1.783   4.461  12.451  0.1085  0.2241  0.2742
14039TIP3    H163608   1.811   4.378  12.413  1.7715  1.1718 -0.6956
14039TIP3    H263609   1.689   4.452  12.463  0.0879 -1.3753 -0.8893
14040TIP3   OH263610   5.298   2.370   3.938 -0.1875  0.2511  0.0780
14040TIP3    H163611   5.381   2.331   3.965 -0.1539 -0.5883 -1.1612
14040TIP3    H263612   5.231   2.314   3.978 -0.1496  0.1634  0.0186
14041TIP3   OH263613   3.126   6.635  12.332 -0.7904 -0.2790 -0.4857
14041TIP3    H163614   3.038   6.670  12.335 -1.4024 -1.8211  1.0752
14041TIP3    H263615   3.130   6.572  12.404  2.3895  1.5226  1.1405
14042TIP3   OH263616   2.329   6.788   4.991  0.5481  0.3641 -0.0913
14042TIP3    H163617   2.389   6.721   4.958  1.6200  1.5321 -0.5872
14042TIP3    H263618   2.318   6.768   5.084 -1.8909 -2.5188 -0.8538
14043TIP3   OH263619   3.879   5.764  16.759 -0.4279  0.1693  0.2279
14043TIP3    H163620   3.863   5.845  16.808 -0.1136 -0.6545  1.7465
14043TIP3    H263621   3.801   5.710  16.775  0.5207 -0.8968  1.5418
14044TIP3   OH263622   5.335   6.303   0.173  0.2143  0.4732  0.0518
14044TIP3    H163623   5.256   6.293   0.226  1.1673 -0.8664  1.3090
14044TIP3    H263624   5.390   6.228   0.198  2.4230  2.0530  0.2206
14045TIP3   OH263625   0.394   5.175   1.797 -0.0182  0.1216 -0.0447
14045TIP3    H163626   0.324   5.239   1.784  0.1170  0.1264 -0.8089
14045TIP3    H263627   0.351   5.102   1.842 -0.1578  0.7648  0.8911
14046TIP3   OH263628   1.209   4.821   5.806  0.2564 -0.3864  0.0502
14046TIP3    H163629   1.193   4.854   5.718  1.1037  0.1006  0.0668
14046TIP3    H263630   1.273   4.751   5.794  0.5342 -0.1762  0.2971
14047TIP3   OH263631   4.089   1.940  14.682  0.1639 -0.4574 -0.3832
14047TIP3    H163632   4.080   1.861  14.627  0.2406 -2.0944  1.8300
14047TIP3    H263633   4.007   1.943  14.732  0.1155  0.9697 -0.5093
14048TIP3   OH263634   4.762   2.522   2.831 -0.3343  0.1195  0.4429
14048TIP3    H163635   4.692   2.458   2.838  0.0209 -0.1555  1.7323
14048TIP3    H263636   4.717   2.606   2.824 -0.8136 -0.2522 -1.7434
14049TIP3   OH263637   4.816   2.493  11.677 -0.8111 -0.4255 -0.0814
14049TIP3    H163638   4.897   2.539  11.700 -1.0101 -0.3927  0.6003
14049TIP3    H263639   4.827   2.467  11.586  0.9800 -2.5264  0.6481
14050TIP3   OH263640   5.786   1.656   4.716  0.1425 -0.9601 -0.1924
14050TIP3    H163641   5.785   1.561   4.714 -0.9683 -0.9673  0.3051
14050TIP3    H263642   5.795   1.681   4.624 -4.3148 -1.5732 -1.0163
14051TIP3   OH263643   2.903   1.519  11.419 -0.0184  0.0042 -0.0953
14051TIP3    H163644   2.921   1.505  11.326  1.4127  0.3386  0.1169
14051TIP3    H263645   2.819   1.564  11.420 -0.5533 -0.8971 -1.1684
14052TIP3   OH263646   6.439   5.794   0.558  0.3299  0.4390 -0.6676
14052TIP3    H163647   6.381   5.742   0.614 -0.0438 -0.6613 -2.0187
14052TIP3    H263648   6.510   5.734   0.535  0.1728  0.6742 -1.8285
14053TIP3   OH263649   0.013   2.828  14.536 -0.3159 -0.2573 -0.0001
14053TIP3    H163650   0.080   2.771  14.497 -0.7670  0.3746 -1.7937
14053TIP3    H263651   0.055   2.913  14.543 -0.6909 -0.0357 -0.4220
14054TIP3   OH263652   1.594   0.248   2.652 -0.1809 -0.0626  0.5741
14054TIP3    H163653   1.594   0.191   2.575  1.2406 -0.0009  0.5114
14054TIP3    H263654   1.501   0.255   2.676 -0.6243 -0.2844 -0.9687
14055TIP3   OH263655   1.550   6.121   4.660 -0.1422 -0.7354 -0.1815
14055TIP3    H163656   1.612   6.049   4.674  0.3496 -0.4851 -1.0511
14055TIP3    H263657   1.563   6.147   4.569  0.7340  1.4277  0.4936
14056TIP3   OH263658   1.048   4.050  10.797 -0.5825 -0.0561  0.2793
14056TIP3    H163659   1.021   3.978  10.740 -0.8527 -0.3887  0.8117
14056TIP3    H263660   1.006   4.127  10.762  0.1681 -0.0504 -0.6420
14057TIP3   OH263661   2.589   0.087   4.540  0.0083  0.0429  0.6703
14057TIP3    H163662   2.530   0.036   4.485 -0.5361  2.1880 -0.8673
14057TIP3    H263663   2.544   0.170   4.553  1.4838  0.7090  1.8141
14058TIP3   OH263664   5.081   6.724   4.157 -0.3826 -0.1248  0.2943
14058TIP3    H163665   5.175   6.731   4.143 -0.4101 -1.0206 -0.3994
14058TIP3    H263666   5.042   6.743   4.072 -0.7607 -1.1547  0.2298
14059TIP3   OH263667   2.326   6.091  12.467  0.1178  0.9169 -0.9217
14059TIP3    H163668   2.278   6.074  12.386 -1.0954 -0.8523  0.1074
14059TIP3    H263669   2.267   6.064  12.537  2.4095 -1.0185  0.4362
14060TIP3   OH263670   1.139   1.564  14.291  0.3106  0.2522 -0.0711
14060TIP3    H163671   1.147   1.520  14.207 -0.7417 -1.4999  0.6984
14060TIP3    H263672   1.153   1.496  14.357 -1.9705  0.8530  1.1634
14061TIP3   OH263673   1.571   6.694  16.792  0.1691  0.6453  0.1454
14061TIP3    H163674   1.580   6.769  16.733  3.8672  0.1391 -0.1648
14061TIP3    H263675   1.558   6.734  16.879  3.3876  1.8924  0.2081
14062TIP3   OH263676   0.178   4.006   5.914 -0.2291  0.0865  0.3726
14062TIP3    H163677   0.239   4.077   5.932  1.0490 -0.4662 -1.4817
14062TIP3    H263678   0.141   4.027   5.828  0.2018 -1.4697 -0.2324
14063TIP3   OH263679   3.244   2.941  13.515  0.1443 -0.4038  0.0102
14063TIP3    H163680   3.262   2.848  13.503  1.2028 -0.2441  0.2578
14063TIP3    H263681   3.212   2.948  13.606  0.8575 -0.4261  0.2691
14064TIP3   OH263682   2.838   2.718   3.335 -0.5998 -0.0595 -0.1147
14064TIP3    H163683   2.813   2.805   3.305 -0.8470  0.8153  2.4221
14064TIP3    H263684   2.767   2.691   3.394  0.2526 -1.2787  0.4076
14065TIP3   OH263685   1.367   3.375  14.155  0.1665  0.1197 -0.4621
14065TIP3    H163686   1.346   3.300  14.211 -0.0973  1.7612  1.7637
14065TIP3    H263687   1.457   3.359  14.126  1.0041  0.0161  1.9432
14066TIP3   OH263688   2.238   6.135   4.698 -0.3436  0.1618 -0.2465
14066TIP3    H163689   2.292   6.175   4.630 -0.1443  0.7893  0.2673
14066TIP3    H263690   2.149   6.135   4.662  0.1321 -1.9850 -1.6031
14067TIP3   OH263691   6.373   5.737   4.760 -0.3702  0.1256 -0.1475
14067TIP3    H163692   6.396   5.770   4.847 -0.4408  0.9205 -0.4217
14067TIP3    H263693   6.356   5.644   4.773  1.8695 -0.2844  0.2851
14068TIP3   OH263694   3.340   5.958   6.890 -0.9808  0.1021 -0.2874
14068TIP3    H163695   3.429   5.930   6.915 -0.7385  1.4268  0.4137
14068TIP3    H263696   3.332   5.932   6.798 -0.2280 -0.8985 -0.0844
14069TIP3   OH263697   4.349   3.196   3.017 -0.6546 -0.7297 -0.5082
14069TIP3    H163698   4.422   3.216   3.076 -0.9821 -1.3642  0.1268
14069TIP3    H263699   4.373   3.113   2.977 -0.3107 -0.1714 -1.4846
14070TIP3   OH263700   4.845   5.309   3.974 -0.2754  0.1400  0.6722
14070TIP3    H163701   4.861   5.338   3.884  1.5126  0.1560  0.9623
14070TIP3    H263702   4.848   5.213   3.969 -0.5208  0.1291  0.6787
14071TIP3   OH263703   1.025   5.156  13.109 -0.5289  0.3828  0.4461
14071TIP3    H163704   1.014   5.139  13.016  0.3274  1.3325  0.1571
14071TIP3    H263705   1.094   5.097  13.137  0.3998  1.2738  0.0893
14072TIP3   OH263706   2.438   2.311  12.255 -0.5479  0.0704 -0.4322
14072TIP3    H163707   2.508   2.325  12.192  0.2935 -1.2874  0.1328
14072TIP3    H263708   2.477   2.253  12.321 -1.4876  1.1615  1.1526
14073TIP3   OH263709   6.587   2.312  16.466  0.0455  0.3496  0.3571
14073TIP3    H163710   6.586   2.382  16.532 -1.1651 -0.3357  1.1021
14073TIP3    H263711   6.558   2.234  16.514 -0.5503 -0.2325 -0.9137
14074TIP3   OH263712   4.618   0.948  13.510  0.3110  0.3497 -0.2862
14074TIP3    H163713   4.611   0.985  13.598 -2.2595 -4.0524  1.7125
14074TIP3    H263714   4.699   0.896  13.512 -0.0246 -0.1796 -0.3147
14075TIP3   OH263715   4.778   4.339  15.638  0.5663  0.4776  0.3295
14075TIP3    H163716   4.691   4.377  15.646  0.1809 -0.0330 -1.1509
14075TIP3    H263717   4.836   4.413  15.619  0.4363  0.7882  1.1133
14076TIP3   OH263718   4.182   5.749   2.935 -0.3358  0.4641 -0.0708
14076TIP3    H163719   4.181   5.845   2.943  1.0925  0.5451 -0.6652
14076TIP3    H263720   4.097   5.728   2.896 -0.4804  1.5312 -0.3810
14077TIP3   OH263721   3.467   1.291   3.910  0.1862  0.2757  0.1173
14077TIP3    H163722   3.519   1.236   3.850 -0.2577 -0.7540  0.6444
14077TIP3    H263723   3.403   1.230   3.948  1.1748  0.5960  2.5070
14078TIP3   OH263724   1.139   2.071  11.427 -0.5377  0.1170 -0.5166
14078TIP3    H163725   1.169   2.051  11.339 -1.2841 -0.0809 -0.7352
14078TIP3    H263726   1.052   2.110  11.415 -0.1555  1.1982  0.0561
14079TIP3   OH263727   1.624   2.805  12.618  0.1134  0.6840 -0.3708
14079TIP3    H163728   1.563   2.879  12.622  0.0714  0.5722  1.4880
14079TIP3    H263729   1.568   2.728  12.618  0.2246  0.5677  1.8164
14080TIP3   OH263730   5.473   2.528  11.274  0.2174 -0.6309  0.0830
14080TIP3    H163731   5.509   2.535  11.185  0.9344  0.7769  0.4582
14080TIP3    H263732   5.394   2.474  11.263  0.6185 -0.9944 -1.3007
14081TIP3   OH263733   3.578   0.293   3.590 -0.3151 -0.5825  0.0226
14081TIP3    H163734   3.585   0.201   3.565  0.4721  0.0367 -2.3417
14081TIP3    H263735   3.508   0.327   3.535  0.0452  0.4434  0.1875
14082TIP3   OH263736   1.492   2.484  12.317 -0.4057 -0.2956  0.2537
14082TIP3    H163737   1.549   2.531  12.256 -0.6784  0.2673  0.4201
14082TIP3    H263738   1.472   2.549  12.385  0.7507 -1.2122  1.5262
14083TIP3   OH263739   3.109   2.684   3.303 -0.3093  0.0909  0.2970
14083TIP3    H163740   3.015   2.702   3.304 -0.4787 -0.7139  0.1019
14083TIP3    H263741   3.118   2.610   3.242  0.7838  1.9178 -1.9091
14084TIP3   OH263742   5.267   5.182  14.796  0.4888 -0.5297 -0.8010
14084TIP3    H163743   5.235   5.267  14.826  0.7612 -0.4628 -0.6951
14084TIP3    H263744   5.254   5.124  14.871 -0.8404 -0.8826 -1.2754
14085TIP3   OH263745   2.013   1.607  17.114 -0.4290  0.1845 -0.6185
14085TIP3    H163746   2.083   1.653  17.161 -0.0306 -0.3201 -0.7153
14085TIP3    H263747   2.014   1.519  17.151  0.9597 -0.7234 -2.6809
14086TIP3   OH263748   4.725   2.575   4.546 -0.0265 -0.0871  0.7224
14086TIP3    H163749   4.732   2.664   4.579 -0.4815 -0.1972  1.1291
14086TIP3    H263750   4.653   2.536   4.595  0.2469 -0.7189  0.6478
14087TIP3   OH263751   1.619   5.293  14.746 -0.3225 -0.2666 -0.4313
14087TIP3    H163752   1.532   5.319  14.779  0.1793  0.5810  0.2619
14087TIP3    H263753   1.625   5.200  14.768 -0.4567  0.0171  0.9083
14088TIP3   OH263754   6.784   2.333   0.270  0.6373 -0.2372  0.1896
14088TIP3    H163755   6.698   2.296   0.290  0.2408  0.2441 -0.5692
14088TIP3    H263756   6.844   2.259   0.275  0.6853 -0.1245  3.5549
14089TIP3   OH263757   4.983   0.615   5.810 -0.4830  0.0852 -0.2045
14089TIP3    H163758   4.960   0.651   5.895  0.8381 -1.7925  1.0202
14089TIP3    H263759   4.900   0.610   5.763 -1.5423 -0.4483  1.6261
14090TIP3   OH263760   6.297   3.095  12.201 -0.1824 -0.1723 -0.0994
14090TIP3    H163761   6.334   3.125  12.284 -0.5701 -1.4448  0.5671
14090TIP3    H263762   6.227   3.035  12.227 -1.2684  0.5134 -1.3476
14091TIP3   OH263763   1.831   2.919  15.334 -0.3944  0.3424  0.1054
14091TIP3    H163764   1.747   2.898  15.376 -0.3658  0.0782  0.0319
14091TIP3    H263765   1.808   2.931  15.242 -0.1120 -1.3384 -0.2199
14092TIP3   OH263766   0.669   1.034   3.462 -0.4560  0.2507  0.4091
14092TIP3    H163767   0.642   0.967   3.400  0.8213  0.5589 -0.5541
14092TIP3    H263768   0.756   1.060   3.431  0.0281  0.7450  2.0879
14093TIP3   OH263769   0.208   3.238  15.498  0.4163 -0.1788  0.6095
14093TIP3    H163770   0.223   3.332  15.485  0.4797 -0.0830  1.3680
14093TIP3    H263771   0.117   3.232  15.528  0.4556 -0.3518  0.6948
14094TIP3   OH263772   5.813   3.062  15.042  0.0195 -0.0539 -0.0248
14094TIP3    H163773   5.807   3.009  14.962  0.4055  0.1562 -0.1974
14094TIP3    H263774   5.808   3.152  15.011 -4.2036  0.0976  0.5207
14095TIP3   OH263775   6.760   3.889   2.367  0.1290 -0.0092  0.3754
14095TIP3    H163776   6.856   3.894   2.360  0.0608  0.4425 -0.4345
14095TIP3    H263777   6.730   3.973   2.332 -0.6114 -0.6540 -0.5776
14096TIP3   OH263778   6.388   6.028   1.982 -0.2257 -0.2943  0.2005
14096TIP3    H163779   6.425   6.005   1.897 -0.0130 -2.7815  0.8933
14096TIP3    H263780   6.310   6.079   1.961 -0.5173 -1.3839 -1.5392
14097TIP3   OH263781   5.526   4.440  17.251  0.2469  0.2405 -0.5572
14097TIP3    H163782   5.481   4.466  17.171  2.0612  1.0875 -1.3637
14097TIP3    H263783   5.496   4.503  17.316  1.0965  1.5519 -1.3777
14098TIP3   OH263784   4.210   1.009  13.170  0.5849 -0.3601 -0.1281
14098TIP3    H163785   4.276   0.993  13.237 -0.3464 -0.3069  0.8469
14098TIP3    H263786   4.171   1.094  13.195 -0.4713 -0.8268 -0.1104
14099TIP3   OH263787   5.692   5.484  12.307 -0.0034 -0.2178  0.2547
14099TIP3    H163788   5.733   5.481  12.393 -0.8411 -0.2081  0.6652
14099TIP3    H263789   5.743   5.422  12.254  2.8338  2.3756 -0.3367
14100TIP3   OH263790   0.144   0.380  15.732 -0.0368 -0.5053 -0.0294
14100TIP3    H163791   0.137   0.455  15.674  1.8186  0.6060  1.0775
14100TIP3    H263792   0.089   0.313  15.692 -2.6377  1.7339 -0.5235
14101TIP3   OH263793   3.388   5.384  14.718  0.4768 -0.7868  0.4983
14101TIP3    H163794   3.331   5.402  14.793  0.4836 -0.4663  0.4288
14101TIP3    H263795   3.476   5.381  14.755  0.4724 -0.7025  0.5158
14102TIP3   OH263796   5.789   4.225  13.924 -0.1503  0.0778  0.4607
14102TIP3    H163797   5.868   4.256  13.967  1.3300 -0.8021 -1.4826
14102TIP3    H263798   5.785   4.132  13.945 -1.0379  0.2264  1.0323
14103TIP3   OH263799   1.814   5.345   4.854 -0.5881  0.5144  0.8059
14103TIP3    H163800   1.750   5.277   4.833  0.4656 -0.3067  0.1911
14103TIP3    H263801   1.803   5.360   4.948 -3.1049  1.8949  0.3828
14104TIP3   OH263802   3.097   4.460   1.147  0.2208 -0.5823  0.4986
14104TIP3    H163803   3.162   4.427   1.085 -1.0899  0.0780 -1.3263
14104TIP3    H263804   3.133   4.542   1.179 -0.4523  0.7855 -1.9795
14105TIP3   OH263805   5.406   2.375  16.985 -0.3442  0.5111 -0.0177
14105TIP3    H163806   5.489   2.387  17.031 -1.1151 -1.6795  2.1990
14105TIP3    H263807   5.430   2.377  16.893  2.4989 -1.5014  0.5200
14106TIP3   OH263808   5.852   0.657  11.786 -0.0942 -0.0998 -0.2175
14106TIP3    H163809   5.903   0.738  11.780 -0.3793  0.0590 -0.5323
14106TIP3    H263810   5.789   0.663  11.714  0.1517 -0.7936 -0.5055
14107TIP3   OH263811   0.692   3.604  15.601 -0.2213  1.0012  0.3546
14107TIP3    H163812   0.661   3.694  15.595  0.4231  1.1444 -3.4850
14107TIP3    H263813   0.616   3.551  15.577 -0.0400  0.6646  0.5134
14108TIP3   OH263814   2.162   4.000   5.087  0.4343  0.1393 -0.1635
14108TIP3    H163815   2.139   3.981   4.996  1.8246  1.0323 -0.7419
14108TIP3    H263816   2.222   3.930   5.112  0.5005  0.2066 -0.1335
14109TIP3   OH263817   4.601   5.738  11.395 -0.4824 -0.1778  0.1609
14109TIP3    H163818   4.602   5.757  11.301  0.0082  1.8490  0.5122
14109TIP3    H263819   4.552   5.811  11.433 -0.4800 -0.8525  1.4946
14110TIP3   OH263820   4.403   0.766   3.998 -0.2622  0.0530 -0.5112
14110TIP3    H163821   4.471   0.707   3.965 -1.4774 -1.3680 -0.5835
14110TIP3    H263822   4.416   0.767   4.092  0.5718  0.7507 -0.6127
14111TIP3   OH263823   1.969   5.280   3.922  0.0107 -0.0095  0.7378
14111TIP3    H163824   2.052   5.262   3.965 -0.5173 -0.2752  1.6667
14111TIP3    H263825   1.926   5.345   3.978  0.0142  0.8969 -0.2682
14112TIP3   OH263826   0.691   1.193   4.315 -0.0493  0.3230  0.5392
14112TIP3    H163827   0.674   1.268   4.372 -1.0764 -0.3171  1.1000
14112TIP3    H263828   0.607   1.175   4.273  0.2259 -0.4139  0.2867
14113TIP3   OH263829   4.251   6.603   0.458  0.2840 -0.1516  0.0612
14113TIP3    H163830   4.191   6.674   0.434  0.1669  0.2845  1.5781
14113TIP3    H263831   4.338   6.638   0.438  0.1738  0.1014  0.0192
14114TIP3   OH263832   3.601   2.252  11.115  0.1054  0.6418  0.3032
14114TIP3    H163833   3.632   2.200  11.042 -0.1651 -0.6564  1.0803
14114TIP3    H263834   3.526   2.301  11.080  0.4499  0.6236 -0.4730
14115TIP3   OH263835   2.446   1.501  17.222 -0.7005 -0.0779 -0.2454
14115TIP3    H163836   2.446   1.504  17.318  0.5916  0.7989 -0.2420
14115TIP3    H263837   2.493   1.421  17.200  1.2099  0.9321 -0.0935
14116TIP3   OH263838   0.221   2.787  12.455 -0.5226  0.0340 -0.7977
14116TIP3    H163839   0.313   2.794  12.427  0.1773 -0.6677  1.1614
14116TIP3    H263840   0.190   2.705  12.415  0.6141 -1.2284  0.7682
14117TIP3   OH263841   6.770   4.824   3.225 -0.0684 -0.6001  0.0876
14117TIP3    H163842   6.765   4.817   3.130 -1.2540  2.0861 -0.1577
14117TIP3    H263843   6.736   4.741   3.258  0.3028 -1.5530 -1.8135
14118TIP3   OH263844   4.796   0.146  13.896 -0.3162  0.5180  0.1638
14118TIP3    H163845   4.868   0.207  13.882  0.4049  0.1240  1.9365
14118TIP3    H263846   4.768   0.162  13.985 -1.3026 -0.5121  0.0548
14119TIP3   OH263847   5.045   1.215  15.082  0.6825  0.2127  0.0165
14119TIP3    H163848   5.104   1.194  15.009  2.1659  2.1388  0.5524
14119TIP3    H263849   4.964   1.243  15.040  0.4991 -1.3526 -0.7746
14120TIP3   OH263850   4.083   3.924   4.490 -0.5415  0.1952  0.0976
14120TIP3    H163851   4.169   3.889   4.513 -0.8891 -0.8197 -0.1093
14120TIP3    H263852   4.074   4.003   4.543 -0.3586 -0.8251  1.6908
14121TIP3   OH263853   2.229   4.146   1.482 -0.3963 -0.0046  0.1232
14121TIP3    H163854   2.271   4.059   1.476 -1.5297 -0.5038 -1.0639
14121TIP3    H263855   2.302   4.206   1.497  0.4759 -1.0977  0.4505
14122TIP3   OH263856   0.550   3.270  11.891 -0.5047  0.5776 -0.0350
14122TIP3    H163857   0.532   3.176  11.897  2.0479  0.0870  2.6236
14122TIP3    H263858   0.643   3.274  11.866 -0.7417  2.4671 -0.7788
14123TIP3   OH263859   6.154   0.039  13.378 -0.1306 -0.0104 -0.0119
14123TIP3    H163860   6.186   0.105  13.317  0.3617  0.2636  0.5392
14123TIP3    H263861   6.156  -0.043  13.328 -0.4877  0.3384 -0.6090
14124TIP3   OH263862   3.871   3.237  12.902  0.1257  0.2113 -0.0207
14124TIP3    H163863   3.944   3.178  12.883  0.0240  0.0334  0.1365
14124TIP3    H263864   3.911   3.311  12.949  0.0744 -0.3228  0.8955
14125TIP3   OH263865   4.329   1.360  15.547 -0.8110  0.3229 -0.2345
14125TIP3    H163866   4.382   1.337  15.624  1.2133  0.8570 -1.3994
14125TIP3    H263867   4.316   1.455  15.554 -1.3191  0.2519 -0.1534
14126TIP3   OH263868   4.544   4.309   4.599 -0.0004 -0.1193 -0.3308
14126TIP3    H163869   4.466   4.287   4.548 -0.8076  0.0300  0.7975
14126TIP3    H263870   4.520   4.387   4.649  1.3123  0.6832 -0.9013
14127TIP3   OH263871   1.520   3.375   3.659  0.1565  0.4204 -0.2219
14127TIP3    H163872   1.546   3.466   3.652 -0.8741  0.7021 -0.5079
14127TIP3    H263873   1.435   3.370   3.615  0.3020 -0.7165 -0.4108
14128TIP3   OH263874   0.705   1.998   1.012 -0.3537  0.2226  0.2803
14128TIP3    H163875   0.742   1.938   1.077 -0.1953  1.1870  1.1099
14128TIP3    H263876   0.617   2.019   1.046 -0.2537  0.7641  0.2207
14129TIP3   OH263877   1.996   3.481  12.855  0.9992 -0.0273 -0.2770
14129TIP3    H163878   2.083   3.458  12.887  0.4258 -0.6507  0.9274
14129TIP3    H263879   1.936   3.439  12.918 -0.1630  0.3090 -1.1316
14130TIP3   OH263880   1.242   2.440   1.241  0.3531  0.2278 -0.2528
14130TIP3    H163881   1.338   2.442   1.233  0.2684 -0.2474 -1.6777
14130TIP3    H263882   1.213   2.387   1.167 -0.9798 -0.2653  0.5951
14131TIP3   OH263883   5.422   5.584   4.548 -0.4756 -0.4014  0.4376
14131TIP3    H163884   5.493   5.522   4.529 -0.4525 -0.4998  0.8318
14131TIP3    H263885   5.405   5.628   4.465 -0.8874 -1.3487  0.0007
14132TIP3   OH263886   2.764   1.747   2.947 -1.0587  0.1599 -0.1133
14132TIP3    H163887   2.731   1.827   2.988 -2.2038 -0.9482  1.2504
14132TIP3    H263888   2.733   1.753   2.857  0.1282  1.9050 -0.4588
14133TIP3   OH263889   4.258   5.860   2.217 -0.3370  0.0041 -0.0900
14133TIP3    H163890   4.321   5.931   2.226  0.1172 -0.0854 -2.1210
14133TIP3    H263891   4.191   5.895   2.158 -0.4637 -0.9919 -0.5609
14134TIP3   OH263892   4.377   0.874   0.308 -0.3656  0.8209  0.3472
14134TIP3    H163893   4.323   0.795   0.313 -0.7472  0.9901 -0.9442
14134TIP3    H263894   4.465   0.845   0.331 -0.6293  0.1677  0.5492
14135TIP3   OH263895   0.996   0.697   2.194 -0.7048  0.5693 -0.2838
14135TIP3    H163896   1.092   0.698   2.191 -0.7294  1.0292 -1.1231
14135TIP3    H263897   0.974   0.733   2.280 -0.1071 -1.3401  0.7400
14136TIP3   OH263898   3.656   4.370  16.978 -0.2986 -0.3162  0.1859
14136TIP3    H163899   3.574   4.338  17.016  0.0608 -0.8680  0.5186
14136TIP3    H263900   3.719   4.364  17.050 -0.1183  0.7583  0.1332
14137TIP3   OH263901   2.247   4.230   3.735  0.0740 -0.7593 -0.0690
14137TIP3    H163902   2.324   4.191   3.776  0.9113 -1.0567 -1.8422
14137TIP3    H263903   2.264   4.324   3.738 -0.5521 -0.6524  1.4867
14138TIP3   OH263904   2.416   2.755   5.360  0.1479 -1.0218  0.3338
14138TIP3    H163905   2.352   2.818   5.327  0.6312 -0.9965 -0.5886
14138TIP3    H263906   2.454   2.798   5.437  2.5634  1.1857 -1.9009
14139TIP3   OH263907   6.264   6.037   4.021 -0.3445  0.1125  0.1298
14139TIP3    H163908   6.263   5.975   3.949  1.4721  0.6290 -0.4109
14139TIP3    H263909   6.212   5.996   4.090  0.0187 -1.5656 -0.5573
14140TIP3   OH263910   5.556   1.737   1.367 -0.3266  0.1986  0.0834
14140TIP3    H163911   5.510   1.692   1.437  1.0339 -0.0223  0.8679
14140TIP3    H263912   5.610   1.668   1.326 -1.3167  0.2552 -1.3911
14141TIP3   OH263913   4.806   3.795  11.786 -0.6857 -0.2705 -0.0595
14141TIP3    H163914   4.808   3.713  11.836  0.1743  0.7782  1.7205
14141TIP3    H263915   4.895   3.830  11.793 -0.8430  0.4835 -1.4106
14142TIP3   OH263916   6.084   4.061  13.475  0.3764  0.0529  0.0296
14142TIP3    H163917   6.032   4.054  13.555  0.6281  0.0148  0.1929
14142TIP3    H263918   6.175   4.053  13.505  0.5136  0.8057 -0.1664
14143TIP3   OH263919   4.414   1.406  13.093  0.0278  0.0865  0.2654
14143TIP3    H163920   4.471   1.453  13.153 -0.5641  0.9951  0.1283
14143TIP3    H263921   4.376   1.336  13.146  0.8034 -0.1633  0.5033
14144TIP3   OH263922   6.049   2.013  13.049 -0.4065 -0.3729  0.2907
14144TIP3    H163923   5.960   1.990  13.077 -1.3327  1.9884 -0.3955
14144TIP3    H263924   6.035   2.083  12.985  1.9395 -0.5780 -0.5186
14145TIP3   OH263925   5.091   3.950  12.102  0.4162  0.0271 -0.0779
14145TIP3    H163926   5.045   3.964  12.185 -0.2356  2.3227 -0.7359
14145TIP3    H263927   5.066   3.862  12.076 -1.5130  0.2081  0.9028
14146TIP3   OH263928   2.484   3.928   3.219  0.3617 -0.4716  0.3468
14146TIP3    H163929   2.391   3.939   3.236  0.6964  2.6571  0.7694
14146TIP3    H263930   2.516   3.873   3.291 -0.6615  1.0890  2.0938
14147TIP3   OH263931   1.614   6.485   3.572  0.1136  0.2855 -0.3387
14147TIP3    H163932   1.546   6.469   3.638  0.1643  1.5733  0.0461
14147TIP3    H263933   1.568   6.477   3.488  0.0403 -1.3278 -0.1803
14148TIP3   OH263934   6.301   2.847   5.524 -0.1906 -0.5779  0.3705
14148TIP3    H163935   6.306   2.836   5.429 -2.6140 -0.9661  0.2374
14148TIP3    H263936   6.332   2.936   5.540 -0.2972 -0.3082 -0.8491
14149TIP3   OH263937   5.723   5.488  14.084  0.1728 -0.3343  0.2397
14149TIP3    H163938   5.781   5.488  14.160 -0.0917  0.2618  0.4536
14149TIP3    H263939   5.780   5.474  14.009  0.6566  0.6391  0.4113
14150TIP3   OH263940   2.210   2.843  13.662 -0.1545  0.4625 -0.3362
14150TIP3    H163941   2.218   2.841  13.567 -2.1307  0.7923 -0.5375
14150TIP3    H263942   2.189   2.753  13.687  2.1956 -0.0588  0.0373
14151TIP3   OH263943   5.281   2.184  13.362  0.1481 -0.6128  0.3084
14151TIP3    H163944   5.236   2.158  13.282 -0.2300  1.4422 -0.2018
14151TIP3    H263945   5.283   2.280  13.358  2.4362 -0.5544  1.4988
14152TIP3   OH263946   2.377   3.507   0.037  0.0554  0.2294 -0.3596
14152TIP3    H163947   2.424   3.538   0.115  1.0518 -1.4020 -0.2680
14152TIP3    H263948   2.284   3.513   0.061  0.3532 -0.7593  1.1949
14153TIP3   OH263949   4.521   0.288   5.691  0.1841 -0.2641 -0.5020
14153TIP3    H163950   4.510   0.313   5.783  1.8448  0.7398 -0.5334
14153TIP3    H263951   4.594   0.342   5.660 -0.3503 -0.5827 -2.4277
14154TIP3   OH263952   0.822   0.571  10.619  0.2858 -0.4604 -0.0066
14154TIP3    H163953   0.899   0.521  10.594  0.1637 -0.3179 -0.6871
14154TIP3    H263954   0.750   0.507  10.617 -0.0973 -0.0149 -2.1381
14155TIP3   OH263955   1.850   1.591  15.047 -0.2963  0.0826  0.4132
14155TIP3    H163956   1.767   1.554  15.077 -0.0194 -1.0006 -0.1024
14155TIP3    H263957   1.917   1.537  15.090  0.1138 -0.4405 -0.8570
14156TIP3   OH263958   3.336   5.507   3.537  0.1705  0.2859 -0.0060
14156TIP3    H163959   3.310   5.589   3.580  2.4524  0.0399  2.0667
14156TIP3    H263960   3.396   5.534   3.468 -1.9188  0.5341 -1.8269
14157TIP3   OH263961   5.265   6.325  16.096  0.0314 -0.5608  0.5100
14157TIP3    H163962   5.306   6.246  16.062  1.1249  0.6041 -0.9701
14157TIP3    H263963   5.337   6.385  16.112 -0.8918  0.6850  0.1416
14158TIP3   OH263964   6.167   1.341   5.246  0.5803  0.2622 -0.3004
14158TIP3    H163965   6.101   1.408   5.226 -0.0620  0.3822  1.9766
14158TIP3    H263966   6.135   1.263   5.202 -1.2693  0.2624  0.9213
14159TIP3   OH263967   0.638   5.303   1.799 -0.0356 -0.0883  0.2556
14159TIP3    H163968   0.663   5.224   1.751 -1.6459  0.1655 -1.1046
14159TIP3    H263969   0.546   5.288   1.822 -0.1644  1.0979  0.5571
14160TIP3   OH263970   6.734   4.170  17.223 -0.0800  0.3861 -0.2178
14160TIP3    H163971   6.659   4.164  17.164  0.4177 -0.1931 -0.7998
14160TIP3    H263972   6.809   4.188  17.166  0.4480 -0.4135  0.1932
14161TIP3   OH263973   4.780   5.859  13.306 -0.2780 -0.3093  0.1373
14161TIP3    H163974   4.686   5.869  13.324 -0.4054 -0.6558 -0.3137
14161TIP3    H263975   4.821   5.863  13.392 -0.7104 -0.1703  0.3407
14162TIP3   OH263976   0.389   0.714  16.862 -0.0374 -0.7215 -0.1280
14162TIP3    H163977   0.370   0.802  16.828 -1.3779 -1.2038 -0.7058
14162TIP3    H263978   0.397   0.660  16.783 -0.8743 -1.4143  0.2409
14163TIP3   OH263979   2.542   4.794  15.023  0.2913  0.5670 -0.0288
14163TIP3    H163980   2.513   4.772  14.934 -1.7630  1.3797  0.3765
14163TIP3    H263981   2.523   4.888  15.031  0.0356  0.4078  1.4152
14164TIP3   OH263982   3.385   0.288  16.560  0.4959 -0.6433  0.6726
14164TIP3    H163983   3.460   0.242  16.523  1.1448 -1.3417  2.7177
14164TIP3    H263984   3.338   0.221  16.610 -0.7697  0.0792  0.4983
14165TIP3   OH263985   6.258   4.660   4.263 -0.0164 -0.5360  0.3223
14165TIP3    H163986   6.183   4.603   4.247  0.2827 -1.4588  1.9177
14165TIP3    H263987   6.324   4.632   4.199 -0.1843 -1.4200  0.5124
14166TIP3   OH263988   2.828   4.943   5.456  0.4611 -0.6688  0.0997
14166TIP3    H163989   2.805   5.036   5.450 -0.1990 -0.4897  3.7125
14166TIP3    H263990   2.913   4.942   5.499 -0.4531 -1.7075  2.0158
14167TIP3   OH263991   2.549   2.105  13.168  0.5797 -0.4212 -0.4076
14167TIP3    H163992   2.558   2.024  13.217  0.8280  0.0212  0.2979
14167TIP3    H263993   2.638   2.126  13.140  0.8673  0.6321  1.1304
14168TIP3   OH263994   0.277   2.547  17.310 -0.1360 -0.9440  0.1303
14168TIP3    H163995   0.354   2.522  17.260  0.3853  2.2172 -0.8425
14168TIP3    H263996   0.311   2.580  17.393 -0.5301 -0.4925  0.1148
14169TIP3   OH263997   4.303   2.505   2.104 -0.1553  0.3386 -0.3411
14169TIP3    H163998   4.223   2.479   2.151  1.2168  0.0593  2.0201
14169TIP3    H263999   4.290   2.598   2.084 -0.9860  0.3519  0.1987
14170TIP3   OH264000   6.718   0.358  12.993  1.3142 -0.3216  0.1314
14170TIP3    H164001   6.722   0.453  13.004  1.5806 -0.1021 -1.5408
14170TIP3    H264002   6.656   0.329  13.059 -0.0809  1.2303 -0.4052
14171TIP3   OH264003   5.874   4.164  15.306  0.3735 -0.4830 -0.6023
14171TIP3    H164004   5.874   4.074  15.272  3.0607 -1.6836  2.1314
14171TIP3    H264005   5.833   4.156  15.392  1.5168  0.7062  0.0761
14172TIP3   OH264006   0.807   0.142   3.257 -0.0305  0.3598 -0.8111
14172TIP3    H164007   0.765   0.056   3.259 -1.4022  0.9794 -1.6488
14172TIP3    H264008   0.765   0.191   3.328 -2.6708  1.7824 -3.1546
14173TIP3   OH264009   4.771   4.042   1.057  0.2489 -0.0189  0.1204
14173TIP3    H164010   4.787   4.136   1.061  0.0943 -0.0153  0.9659
14173TIP3    H264011   4.830   4.006   1.124 -0.4304 -0.4151  0.5124
14174TIP3   OH264012   2.413   5.288  16.192 -0.1099 -0.1827  0.1714
14174TIP3    H164013   2.390   5.307  16.283 -0.0838 -0.7477  0.3000
14174TIP3    H264014   2.505   5.261  16.196  0.1560  0.6662 -0.1444
14175TIP3   OH264015   6.570   5.686   5.706 -0.0687 -0.0951 -0.8794
14175TIP3    H164016   6.646   5.684   5.764 -0.9764 -1.0505  0.3405
14175TIP3    H264017   6.606   5.710   5.620  1.6124 -0.5942 -0.3571
14176TIP3   OH264018   6.182   2.843   0.570  0.0693  0.0052 -0.1472
14176TIP3    H164019   6.275   2.855   0.551 -0.1195  1.4096 -0.2833
14176TIP3    H264020   6.178   2.759   0.615  1.3078 -0.4170 -0.7781
14177TIP3   OH264021   2.267   2.702   3.524  0.0871  0.1356  0.1255
14177TIP3    H164022   2.337   2.730   3.583 -0.9822  2.1757  0.4886
14177TIP3    H264023   2.255   2.775   3.464 -1.6987 -0.1964  0.0323
14178TIP3   OH264024   6.303   0.153   4.562  0.0181 -0.3721  0.0638
14178TIP3    H164025   6.392   0.133   4.591 -0.5709 -1.5542  1.1542
14178TIP3    H264026   6.253   0.164   4.643 -1.0446 -0.7145 -0.5279
14179TIP3   OH264027   6.055   4.347  13.797 -0.1347 -0.1851 -0.6957
14179TIP3    H164028   6.110   4.304  13.863  0.2774 -1.1404 -1.6326
14179TIP3    H264029   5.983   4.384  13.846  1.0991  0.6938  0.5208
14180TIP3   OH264030   6.751   6.609  17.087  0.1983  0.7260  0.8170
14180TIP3    H164031   6.669   6.631  17.043 -0.1748  2.2411  2.1686
14180TIP3    H264032   6.814   6.594  17.016 -1.0266  0.3146 -0.2301
14181TIP3   OH264033   2.341   0.307   6.759 -0.1576 -0.6307  0.2011
14181TIP3    H164034   2.258   0.279   6.798  0.2549 -3.5490 -0.7197
14181TIP3    H264035   2.401   0.314   6.833 -0.9487  0.5140  0.7596
14182TIP3   OH264036   6.520   5.882  12.574  0.9817  0.3421  0.4241
14182TIP3    H164037   6.462   5.813  12.608  0.0998  1.8251  2.0899
14182TIP3    H264038   6.581   5.900  12.647  0.8397  1.6920  0.2318
14183TIP3   OH264039   0.375   0.861   3.895  0.4590 -0.5445  0.2166
14183TIP3    H164040   0.438   0.892   3.829 -1.0643 -1.0043 -1.5379
14183TIP3    H264041   0.322   0.938   3.915  0.5958 -0.5302  0.5247
14184TIP3   OH264042   5.626   5.406   2.225  0.0247  0.3187  0.1200
14184TIP3    H164043   5.582   5.487   2.248 -2.3285 -0.9658  0.5102
14184TIP3    H264044   5.583   5.377   2.144  1.6666  0.0538 -0.6951
14185TIP3   OH264045   2.731   2.595   2.615 -0.8615  0.0249  0.6677
14185TIP3    H164046   2.747   2.505   2.587  0.6797  0.1660  0.9668
14185TIP3    H264047   2.732   2.591   2.711 -3.1836  0.0081  0.7465
14186TIP3   OH264048   2.992   2.983  16.022 -0.2125 -0.4606 -0.4927
14186TIP3    H164049   3.028   2.898  15.996  0.2163 -0.2232 -0.6754
14186TIP3    H264050   2.981   2.977  16.117  0.2388 -0.5585 -0.4472
14187TIP3   OH264051   6.019   3.152   5.087 -0.0159  0.1775 -0.2234
14187TIP3    H164052   5.927   3.145   5.112 -0.0519  1.6980  0.1577
14187TIP3    H264053   6.034   3.077   5.029 -1.5414  0.0199 -0.4430
14188TIP3   OH264054   5.471   3.707   1.306 -0.4571  0.1307  0.2318
14188TIP3    H164055   5.506   3.737   1.222 -0.1845 -1.2313 -0.1806
14188TIP3    H264056   5.536   3.644   1.337 -0.3533  0.9130  1.6849
14189TIP3   OH264057   6.058   2.669  13.115  0.2224 -0.2122 -0.6432
14189TIP3    H164058   6.022   2.747  13.158  0.5301 -1.4522  2.0564
14189TIP3    H264059   6.152   2.688  13.106  0.3556 -0.3761  0.3142
14190TIP3   OH264060   1.673   5.531   4.687  0.2115  0.6367  0.3238
14190TIP3    H164061   1.698   5.470   4.756  2.4721  2.2568  1.0452
14190TIP3    H264062   1.754   5.578   4.665 -0.3433  0.1171 -3.5677
14191TIP3   OH264063   1.827   1.460  13.237 -0.0855  0.1642 -0.3444
14191TIP3    H164064   1.861   1.406  13.166  0.7141  1.7729 -1.2357
14191TIP3    H264065   1.897   1.460  13.302  0.3202  0.8803 -0.7692
14192TIP3   OH264066   2.508   2.074   6.840  0.1229 -0.0814  0.3176
14192TIP3    H164067   2.569   2.123   6.894  2.6561 -2.2762 -0.3760
14192TIP3    H264068   2.422   2.113   6.859  1.5579  2.5058  2.0324
14193TIP3   OH264069   6.031   2.656   1.792 -0.7105  0.9703  0.2726
14193TIP3    H164070   5.987   2.712   1.728 -0.4180  1.2373  0.3039
14193TIP3    H264071   6.060   2.580   1.742  0.0243  1.4440 -0.0272
14194TIP3   OH264072   0.537   4.553   3.450  0.3845 -0.0855 -0.3664
14194TIP3    H164073   0.599   4.615   3.413  0.4258  0.2625  0.2816
14194TIP3    H264074   0.463   4.553   3.388  0.0496  1.1702  0.0106
14195TIP3   OH264075   0.735   4.402   4.389 -0.1010  0.3434 -0.4353
14195TIP3    H164076   0.740   4.358   4.304  0.2307 -0.5554  0.0331
14195TIP3    H264077   0.745   4.332   4.453  1.3776  1.2125  0.3384
14196TIP3   OH264078   0.870   0.770   1.218  0.1370  0.1369 -0.8258
14196TIP3    H164079   0.936   0.760   1.286  1.5417  0.2029 -2.1409
14196TIP3    H264080   0.919   0.775   1.136 -1.5274 -0.6566 -1.9470
14197TIP3   OH264081   5.641   1.167   6.678 -0.4657 -0.8670 -0.2054
14197TIP3    H164082   5.578   1.219   6.727  2.2958  0.7237  1.9984
14197TIP3    H264083   5.673   1.102   6.741  0.2192 -1.5239 -1.1867
14198TIP3   OH264084   1.574   6.253   2.620 -0.4231  0.9131  0.1389
14198TIP3    H164085   1.607   6.318   2.683 -0.5406  1.6439 -0.5324
14198TIP3    H264086   1.537   6.306   2.549  1.6735  0.1809 -1.6158
14199TIP3   OH264087   4.643   3.825  12.760  0.2052  0.4787 -0.1014
14199TIP3    H164088   4.732   3.802  12.731  0.1235 -2.0951  1.4042
14199TIP3    H264089   4.637   3.791  12.849 -2.4340  0.2089 -0.3003
14200TIP3   OH264090   1.229   6.242  14.527  0.0002 -0.0361 -0.4307
14200TIP3    H164091   1.177   6.244  14.446 -1.8031 -1.7705  0.5850
14200TIP3    H264092   1.303   6.185  14.506 -2.5685 -3.9919  0.1088
14201TIP3   OH264093   4.296   0.854   1.934  0.5173  0.1605 -0.2779
14201TIP3    H164094   4.335   0.936   1.965 -1.5342 -0.2041  4.0912
14201TIP3    H264095   4.357   0.786   1.964 -0.2423 -0.0835  0.7822
14202TIP3   OH264096   4.444   2.280   2.592  0.3656  0.6750 -0.4366
14202TIP3    H164097   4.362   2.326   2.612  0.2827  0.0958  0.6136
14202TIP3    H264098   4.435   2.194   2.634  1.4514  0.5545 -0.4127
14203TIP3   OH264099   4.415   5.293  17.161 -0.0964 -0.3034 -0.1208
14203TIP3    H164100   4.449   5.374  17.197 -0.4034 -0.9145  1.6635
14203TIP3    H264101   4.361   5.320  17.087  0.9079  0.9852 -0.4169
14204TIP3   OH264102   1.768   2.606  14.600 -0.5486 -0.8878 -0.2921
14204TIP3    H164103   1.828   2.534  14.580 -1.6981 -2.4822  1.5719
14204TIP3    H264104   1.729   2.628  14.516  0.1986 -2.1039 -1.0079
14205TIP3   OH264105   0.202   2.724   3.454  0.0744  0.1623 -0.2890
14205TIP3    H164106   0.220   2.639   3.415  0.7069  0.3325 -0.3740
14205TIP3    H264107   0.118   2.713   3.498  0.5701 -0.7735  0.4581
14206TIP3   OH264108   2.762   0.279   0.390  0.8851 -0.3627  0.1671
14206TIP3    H164109   2.775   0.365   0.350  1.8852 -0.8575 -0.6207
14206TIP3    H264110   2.667   0.270   0.397  0.5925 -0.4580 -2.6810
14207TIP3   OH264111   0.163   0.821  12.626 -0.8358 -0.1253  0.0200
14207TIP3    H164112   0.166   0.915  12.613 -0.1433 -0.1334  0.0659
14207TIP3    H264113   0.233   0.803  12.689 -0.6748 -0.7112 -0.3087
14208TIP3   OH264114   0.818   0.233  13.026 -0.0466 -0.1437 -0.9034
14208TIP3    H164115   0.789   0.323  13.014  1.5536  0.2002 -2.6165
14208TIP3    H264116   0.913   0.239  13.033  0.0132 -1.6175  0.0068
14209TIP3   OH264117   5.188   4.067   4.080 -0.5779  0.1523 -0.0098
14209TIP3    H164118   5.257   4.006   4.105 -0.5630  0.8638  1.7955
14209TIP3    H264119   5.232   4.133   4.026  0.1211  0.4343  0.8847
14210TIP3   OH264120   4.658   3.350   2.293 -0.2333 -0.2675 -0.1052
14210TIP3    H164121   4.722   3.387   2.232 -1.8711  0.5281 -1.4576
14210TIP3    H264122   4.574   3.358   2.246 -1.2384 -1.8635  1.3012
14211TIP3   OH264123   5.893   2.951   4.017  0.3873  0.2723 -0.2636
14211TIP3    H164124   5.841   2.933   4.096 -1.2540  0.2123 -1.3138
14211TIP3    H264125   5.856   2.893   3.950  1.7351  0.3402 -1.1080
14212TIP3   OH264126   0.783   4.674  15.087  0.2219  0.2830  0.2293
14212TIP3    H164127   0.693   4.705  15.095  0.3083  0.2365  1.5163
14212TIP3    H264128   0.836   4.742  15.130  0.6885 -0.2501  0.5120
14213TIP3   OH264129   6.104   0.170   1.511  0.0802  0.1436  0.0635
14213TIP3    H164130   6.029   0.151   1.566  1.5946  0.1873  2.2697
14213TIP3    H264131   6.128   0.261   1.532  0.3431  0.3876 -1.1568
14214TIP3   OH264132   6.056   5.175   5.780  0.0140  0.7511 -0.2175
14214TIP3    H164133   6.052   5.130   5.695  1.3739  1.1290 -0.5052
14214TIP3    H264134   6.113   5.250   5.765  2.4254 -0.5684  1.6073
14215TIP3   OH264135   6.409   0.072  13.916 -0.0463  0.2920  0.6332
14215TIP3    H164136   6.480   0.013  13.892  0.8492  1.2238  0.9734
14215TIP3    H264137   6.370   0.098  13.832  0.3119  0.1506  0.4198
14216TIP3   OH264138   5.164   4.436   5.522 -0.0890  0.2585  0.2760
14216TIP3    H164139   5.099   4.390   5.576 -0.7922  0.3695 -0.4713
14216TIP3    H264140   5.115   4.468   5.447  0.7675  0.6518 -0.1255
14217TIP3   OH264141   1.855   6.046  11.686 -0.3614  0.3376 -0.2149
14217TIP3    H164142   1.864   6.008  11.599 -1.8915  0.4551 -0.4458
14217TIP3    H264143   1.945   6.049  11.720 -0.0720 -2.6495 -0.5015
14218TIP3   OH264144   1.140   5.580  14.087  0.2224 -0.6975  0.1511
14218TIP3    H164145   1.121   5.563  13.995  0.3227 -0.6743  0.1266
14218TIP3    H264146   1.217   5.636  14.086 -0.2366 -0.0439  0.2242
14219TIP3   OH264147   0.838   0.463   2.201 -0.2732  0.7357 -0.0278
14219TIP3    H164148   0.857   0.553   2.175  3.4621 -0.1403 -0.8078
14219TIP3    H264149   0.890   0.449   2.280 -2.5961 -0.1460  1.4572
14220TIP3   OH264150   5.425   5.934   1.675  0.1479  0.1221 -0.1986
14220TIP3    H164151   5.348   5.990   1.668 -2.4252 -3.1445 -0.5297
14220TIP3    H264152   5.478   5.956   1.598 -1.0370  1.5954 -0.6444
14221TIP3   OH264153   5.877   5.334   2.714 -0.6882 -0.5133 -0.1438
14221TIP3    H164154   5.815   5.275   2.757 -1.7535  1.7793  1.6984
14221TIP3    H264155   5.843   5.422   2.732  2.6984  0.8389  0.3450
14222TIP3   OH264156   6.318   5.692  12.788 -0.3774  0.3018 -0.4134
14222TIP3    H164157   6.380   5.664  12.856  0.5388  2.3763 -0.3105
14222TIP3    H264158   6.334   5.632  12.715  1.9973  0.9091 -0.4782
14223TIP3   OH264159   5.290   2.990   4.636 -0.8353 -0.1261  0.2885
14223TIP3    H164160   5.261   3.071   4.593 -0.2365 -1.2679 -2.4963
14223TIP3    H264161   5.293   2.925   4.566  1.9090 -1.7444  1.7040
14224TIP3   OH264162   1.976   6.742  16.998  0.4613 -0.2241 -0.1457
14224TIP3    H164163   2.033   6.807  16.957  0.6763 -0.0321  0.4404
14224TIP3    H264164   1.923   6.707  16.926 -0.8920  1.8423 -0.2372
14225TIP3   OH264165   3.392   3.514   0.773  0.1232  0.4237 -0.2757
14225TIP3    H164166   3.417   3.597   0.731 -1.5092  1.1232  0.0495
14225TIP3    H264167   3.325   3.539   0.836 -0.2903 -1.1416 -0.0647
14226TIP3   OH264168   3.201   4.729   5.874  0.5355  0.0513 -1.3681
14226TIP3    H164169   3.266   4.799   5.876 -0.2967  0.8447  0.8605
14226TIP3    H264170   3.128   4.767   5.824  1.3957 -0.5535 -3.1765
14227TIP3   OH264171   2.309   5.032  10.422  0.0516 -0.0488  0.5439
14227TIP3    H164172   2.306   4.937  10.437  0.3285 -0.0412  0.6523
14227TIP3    H264173   2.217   5.057  10.410 -0.0136 -0.3455  0.4159
14228TIP3   OH264174   3.355   1.430   1.803  0.5321  0.1388 -0.1976
14228TIP3    H164175   3.395   1.509   1.838  1.0857  0.1002 -0.7292
14228TIP3    H264176   3.269   1.458   1.772  0.5806  0.4519 -0.0496
14229TIP3   OH264177   3.296   1.463   5.607 -0.1001  0.1981 -0.6042
14229TIP3    H164178   3.367   1.399   5.595  0.4150 -0.0125  2.7347
14229TIP3    H264179   3.217   1.410   5.615 -0.0554  0.1471 -0.4863
14230TIP3   OH264180   1.856   2.875   6.039  0.2582 -0.2361  0.0654
14230TIP3    H164181   1.771   2.836   6.060  0.6363 -0.2786  1.6200
14230TIP3    H264182   1.919   2.824   6.090  0.8598  1.9236  1.6090
14231TIP3   OH264183   3.753   6.551   6.577 -0.6723  0.1306 -0.0971
14231TIP3    H164184   3.809   6.626   6.596 -1.8203  0.7488  0.9698
14231TIP3    H264185   3.667   6.575   6.612 -0.9218 -1.9361  0.8719
14232TIP3   OH264186   4.732   0.600  16.172 -0.9133 -0.1080 -0.2606
14232TIP3    H164187   4.800   0.561  16.116 -1.1776  0.1680 -0.7806
14232TIP3    H264188   4.661   0.536  16.170 -1.1287  0.1421 -0.6654
14233TIP3   OH264189   3.717   5.629   3.611  0.2105  0.0183  0.9342
14233TIP3    H164190   3.691   5.721   3.605  2.7171  0.7093 -1.0496
14233TIP3    H264191   3.671   5.586   3.539  0.8481  0.2616  0.3656
14234TIP3   OH264192   2.702   1.382   2.469  0.5002 -0.1684 -0.8501
14234TIP3    H164193   2.784   1.335   2.477 -0.7069 -2.5249 -1.4794
14234TIP3    H264194   2.646   1.325   2.417 -1.4225  1.5285 -0.7960
14235TIP3   OH264195   3.980   1.152  13.741 -0.0289  0.0561 -0.1937
14235TIP3    H164196   3.959   1.064  13.711 -1.3712  0.5778 -0.8932
14235TIP3    H264197   4.029   1.191  13.669  1.1559 -0.3138  0.3872
14236TIP3   OH264198   2.761   3.485   1.005 -0.4324  0.1192 -0.6709
14236TIP3    H164199   2.787   3.475   1.097  2.0877 -0.5134 -1.3731
14236TIP3    H264200   2.689   3.548   1.007  2.2099  3.4275  1.4638
14237TIP3   OH264201   0.299   2.867  12.939 -0.5635 -0.3825  0.4534
14237TIP3    H164202   0.294   2.959  12.912 -2.5367  0.3565  2.9343
14237TIP3    H264203   0.245   2.820  12.876 -2.0243  0.6798  0.8668
14238TIP3   OH264204   4.501   4.778   6.219 -0.2790  0.1992  0.0253
14238TIP3    H164205   4.462   4.728   6.291  1.3115 -0.7234  0.3119
14238TIP3    H264206   4.595   4.760   6.226  0.3488  3.0636 -0.0362
14239TIP3   OH264207   6.331   6.369  10.730 -0.4629 -0.0565 -0.0693
14239TIP3    H164208   6.360   6.279  10.739 -0.4839 -0.4085 -2.7449
14239TIP3    H264209   6.278   6.369  10.651 -0.2596  2.3711 -0.2735
14240TIP3   OH264210   5.228   4.018  11.521 -0.1544  0.0298  0.3957
14240TIP3    H164211   5.296   3.997  11.585  0.3476  0.7541  0.1071
14240TIP3    H264212   5.245   3.960  11.447 -0.5524 -0.5952  0.7790
14241TIP3   OH264213   3.184   6.558  14.564  0.0736 -0.1124 -0.0138
14241TIP3    H164214   3.144   6.645  14.562  2.3213  0.9811 -1.1703
14241TIP3    H264215   3.278   6.574  14.574  0.4951 -2.4728  0.6888
14242TIP3   OH264216   5.718   2.843   2.445  0.4323 -0.1789 -0.4350
14242TIP3    H164217   5.736   2.937   2.442  1.4274 -0.3510 -0.2015
14242TIP3    H264218   5.777   2.805   2.380  0.0145 -0.6388 -0.5486
14243TIP3   OH264219   2.287   3.191  11.055 -0.4852  0.0074  0.2529
14243TIP3    H164220   2.199   3.230  11.059 -0.6264  0.4243 -3.3647
14243TIP3    H264221   2.346   3.266  11.057 -0.4062 -0.0320 -0.4314
14244TIP3   OH264222   1.886   1.580  14.767  0.4260  0.0507 -0.0920
14244TIP3    H164223   1.903   1.566  14.860  2.7047  0.7479 -0.3572
14244TIP3    H264224   1.869   1.674  14.760 -1.0443 -0.2023 -0.2366
14245TIP3   OH264225   1.944   0.114   4.005 -0.5942 -0.4636 -0.5005
14245TIP3    H164226   1.857   0.084   4.032 -0.3737 -1.7278 -1.1163
14245TIP3    H264227   1.928   0.193   3.954 -1.5142 -1.3832 -1.6957
14246TIP3   OH264228   0.546   5.698  10.892  0.5273 -0.1439 -0.7910
14246TIP3    H164229   0.455   5.666  10.886 -0.0756  0.7424  1.9649
14246TIP3    H264230   0.598   5.618  10.900  0.2872 -0.7609 -4.2077
14247TIP3   OH264231   2.659   0.396  12.639 -0.3175 -0.3741 -0.1517
14247TIP3    H164232   2.572   0.403  12.678 -0.6556 -2.6580 -0.3660
14247TIP3    H264233   2.643   0.400  12.544 -0.0275  0.4122 -0.1773
14248TIP3   OH264234   4.118   5.400   2.909 -0.2851 -0.4193 -0.2093
14248TIP3    H164235   4.163   5.453   2.976 -1.1696 -0.2062  0.2397
14248TIP3    H264236   4.153   5.432   2.826 -0.3990  0.5058  0.0837
14249TIP3   OH264237   5.786   0.063  16.535  0.5173  0.4265  0.0231
14249TIP3    H164238   5.828   0.024  16.459 -0.2140  0.1362 -0.2488
14249TIP3    H264239   5.733   0.134  16.499 -0.2701 -0.0638  0.1751
14250TIP3   OH264240   1.370   1.071   5.940  0.1228 -0.2322  0.3817
14250TIP3    H164241   1.373   1.036   5.851  0.1839  0.7486 -0.0206
14250TIP3    H264242   1.420   1.008   5.993 -2.5926 -2.5651  0.3764
14251TIP3   OH264243   4.637   6.388   3.200  0.2033  0.5448 -0.2192
14251TIP3    H164244   4.728   6.413   3.184  0.4119  0.6373  1.0360
14251TIP3    H264245   4.641   6.295   3.223  0.2000  0.9690  1.5710
14252TIP3   OH264246   6.468   1.981   2.126  0.0316 -0.2566  0.3912
14252TIP3    H164247   6.446   1.943   2.211 -0.5652 -2.0660 -0.5208
14252TIP3    H264248   6.417   1.930   2.063  0.8729  0.6785 -1.1153
14253TIP3   OH264249   1.843   6.049   1.548  0.6793  0.4160 -0.0651
14253TIP3    H164250   1.864   6.136   1.513  0.9988 -0.1907 -1.4235
14253TIP3    H264251   1.904   5.990   1.504 -2.3341 -1.1196 -2.5575
14254TIP3   OH264252   6.602   6.256   2.534 -0.2447 -0.1288  0.0850
14254TIP3    H164253   6.526   6.292   2.488  0.4833  0.9767 -0.3197
14254TIP3    H264254   6.658   6.222   2.464  1.5420  2.8592 -0.1111
14255TIP3   OH264255   2.021   2.842   2.687 -0.4580 -0.0612  0.1760
14255TIP3    H164256   1.926   2.850   2.684 -0.4998 -0.7351 -0.6573
14255TIP3    H264257   2.049   2.859   2.597  0.0113 -2.1469 -0.1049
14256TIP3   OH264258   0.896   3.222  11.426 -0.8701 -0.1507  0.1621
14256TIP3    H164259   0.874   3.188  11.339 -1.1629  1.1638 -0.2933
14256TIP3    H264260   0.947   3.301  11.409 -1.1420  0.2620  1.1895
14257TIP3   OH264261   0.553   2.325   5.464  0.6189  0.4358 -0.1242
14257TIP3    H164262   0.490   2.290   5.526 -0.5260 -1.1177 -2.0478
14257TIP3    H264263   0.513   2.406   5.431 -1.2542 -1.2693 -2.4183
14258TIP3   OH264264   3.402   1.241   6.152 -0.2012  0.1451  0.3352
14258TIP3    H164265   3.312   1.211   6.168  0.0980 -0.3047  1.2487
14258TIP3    H264266   3.400   1.277   6.064 -1.6091  1.3648  0.8226
14259TIP3   OH264267   5.161   2.813   5.167 -0.1915  0.2589  0.4351
14259TIP3    H164268   5.096   2.845   5.104  0.5589  1.6376  0.3441
14259TIP3    H264269   5.133   2.850   5.251 -0.4623 -0.5352  0.7099
14260TIP3   OH264270   3.069   5.377  15.576  0.4277  0.3680 -0.7377
14260TIP3    H164271   2.985   5.379  15.622  1.2766  0.6866  0.8845
14260TIP3    H264272   3.088   5.469  15.557  0.9490  0.4289 -0.0002
14261TIP3   OH264273   3.280   6.746  16.560 -0.3032 -0.2585 -0.1709
14261TIP3    H164274   3.302   6.766  16.470 -1.2978 -0.5428 -0.4927
14261TIP3    H264275   3.358   6.702  16.595  0.3931  0.5978 -0.6306
14262TIP3   OH264276   4.580   1.652   1.267 -0.4508  0.8645 -0.1258
14262TIP3    H164277   4.591   1.693   1.352  0.1778 -1.0558  0.7767
14262TIP3    H264278   4.561   1.561   1.286  1.3245 -0.0109 -2.0147
14263TIP3   OH264279   1.221   2.809   4.035  0.0331 -0.0043 -0.4331
14263TIP3    H164280   1.282   2.837   3.967  0.0175  0.9070 -0.0765
14263TIP3    H264281   1.263   2.833   4.117 -1.3848  1.9096 -0.2017
14264TIP3   OH264282   4.567   3.123   1.797  0.8792 -0.1853  0.0642
14264TIP3    H164283   4.650   3.162   1.826  1.3222 -0.8780 -0.2386
14264TIP3    H264284   4.501   3.189   1.819  1.5643  0.5937 -0.1350
14265TIP3   OH264285   1.775   6.690   1.843  0.4203  0.1339 -0.0863
14265TIP3    H164286   1.777   6.759   1.777 -0.5923 -1.1697 -1.5534
14265TIP3    H264287   1.867   6.668   1.858  0.6674  0.5932 -0.9148
14266TIP3   OH264288   4.237   2.517   0.381 -0.2212  0.1285 -0.4970
14266TIP3    H164289   4.261   2.596   0.333 -1.7227  0.8999 -0.0269
14266TIP3    H264290   4.197   2.549   0.462 -1.4923 -1.0993 -0.6003
14267TIP3   OH264291   4.925   1.259   5.521 -0.3949 -0.3712 -0.2277
14267TIP3    H164292   4.842   1.235   5.561 -1.1691 -0.4259 -1.7919
14267TIP3    H264293   4.940   1.350   5.548 -0.1605 -0.8494  1.3174
14268TIP3   OH264294   2.039   5.287   2.683  0.6221  0.6650  0.6392
14268TIP3    H164295   2.025   5.242   2.599  1.8821  2.1653 -0.4583
14268TIP3    H264296   2.132   5.312   2.681  0.1226  2.7935  1.4039
14269TIP3   OH264297   1.020   1.107  14.219 -0.3590 -0.2507  0.2612
14269TIP3    H164298   1.081   1.180  14.206  0.8953 -1.3224 -0.0949
14269TIP3    H264299   0.933   1.146  14.206  0.1790  1.4541  1.3499
14270TIP3   OH264300   3.374   4.908  16.551 -0.5301 -0.0433 -0.4285
14270TIP3    H164301   3.312   4.910  16.478  0.4985  0.9260 -1.3164
14270TIP3    H264302   3.460   4.901  16.509  0.2905  3.0076  0.4859
14271TIP3   OH264303   5.130   6.773  16.612  0.4281 -0.0952 -0.2890
14271TIP3    H164304   5.038   6.791  16.596  0.0452  0.8784  2.4510
14271TIP3    H264305   5.176   6.828  16.549 -0.8404 -0.3226 -1.4560
14272TIP3   OH264306   4.256   2.487  15.689  0.5062 -0.2050  0.7116
14272TIP3    H164307   4.248   2.392  15.688 -0.7393 -0.1183 -0.9453
14272TIP3    H264308   4.332   2.504  15.745  0.1816 -2.1054  1.8278
14273TIP3   OH264309   4.301   2.321   6.529  0.7296  0.1216  0.8360
14273TIP3    H164310   4.317   2.239   6.483  0.1112 -0.4463  1.6271
14273TIP3    H264311   4.234   2.365   6.477 -0.7787 -1.0173  1.7753
14274TIP3   OH264312   3.529   0.973   3.894  0.4568  0.7699 -0.1588
14274TIP3    H164313   3.529   0.985   3.989  0.0373 -0.0161 -0.0540
14274TIP3    H264314   3.591   1.039   3.862 -0.2493  1.8019  0.5513
14275TIP3   OH264315   5.129   4.416  17.171 -0.0975 -0.1771 -0.4929
14275TIP3    H164316   5.041   4.403  17.205  0.1723  0.9189  0.6966
14275TIP3    H264317   5.142   4.511  17.173  1.5057 -0.3783  0.4455
14276TIP3   OH264318   0.752   0.575  16.168  0.1609  0.5250 -0.2008
14276TIP3    H164319   0.695   0.544  16.097  1.4620 -0.9679 -0.6353
14276TIP3    H264320   0.764   0.668  16.149 -1.2498  0.6313 -0.7039
14277TIP3   OH264321   1.634   4.038   2.876 -0.0599 -0.1911  0.0126
14277TIP3    H164322   1.702   3.981   2.840  0.2768  1.5526 -2.4053
14277TIP3    H264323   1.581   3.981   2.932  1.0659 -2.5146 -1.1604
14278TIP3   OH264324   6.450   5.365   1.564 -0.3816  0.4953  0.5558
14278TIP3    H164325   6.397   5.442   1.542 -0.2098  0.1535 -1.1867
14278TIP3    H264326   6.485   5.335   1.480 -1.7634 -2.4574  0.9106
14279TIP3   OH264327   2.347   5.851  17.287  0.1962  0.0005 -0.0878
14279TIP3    H164328   2.258   5.863  17.254 -0.3311 -0.9245  0.9416
14279TIP3    H264329   2.351   5.758  17.311  0.2319  0.7621  3.2569
14280TIP3   OH264330   0.634   1.084   6.244  0.1589  0.2141  0.2689
14280TIP3    H164331   0.655   1.176   6.230  0.8949 -0.4193 -4.1586
14280TIP3    H264332   0.717   1.038   6.238 -0.5312 -0.9562 -1.1697
14281TIP3   OH264333   2.253   6.502  15.996 -0.3084 -0.1162 -0.1148
14281TIP3    H164334   2.212   6.564  15.936  1.6180  2.7467  1.2753
14281TIP3    H264335   2.185   6.481  16.060 -1.3779 -0.5040 -1.3581
14282TIP3   OH264336   3.408   3.544  16.926 -0.3401 -0.0011 -0.2003
14282TIP3    H164337   3.421   3.464  16.977 -2.1202  0.1086  0.5199
14282TIP3    H264338   3.479   3.544  16.862 -0.9226 -2.7914 -1.0125
14283TIP3   OH264339   5.905   3.148   0.373 -0.6378  0.2950  0.1421
14283TIP3    H164340   5.922   3.203   0.450 -1.8826 -0.2054  0.8110
14283TIP3    H264341   5.984   3.095   0.363 -1.3316 -1.4099  2.6431
14284TIP3   OH264342   6.390   0.375   6.385  0.0430 -0.5578  0.7698
14284TIP3    H164343   6.334   0.447   6.357 -2.2365 -2.2024  0.8315
14284TIP3    H264344   6.347   0.339   6.463  0.7071 -2.4321  0.3314
14285TIP3   OH264345   4.706   6.054   0.088  0.3866  0.4290  0.0384
14285TIP3    H164346   4.752   6.096   0.015 -1.8822 -1.1943 -2.5749
14285TIP3    H264347   4.742   5.965   0.090 -0.2864  0.1507  0.1503
14286TIP3   OH264348   2.183   6.654   6.634 -0.4867  0.3330 -0.1748
14286TIP3    H164349   2.125   6.643   6.559  0.2852  0.8384 -0.8665
14286TIP3    H264350   2.269   6.673   6.595  0.0620 -0.0124  0.8239
14287TIP3   OH264351   3.082   2.430  11.574  0.0935  0.1536  0.3729
14287TIP3    H164352   3.033   2.478  11.507  0.8870  2.5866  1.4132
14287TIP3    H264353   3.017   2.371  11.614 -0.5586 -0.8135 -1.9613
14288TIP3   OH264354   0.790   5.998   5.587  0.4022 -0.3012  0.0184
14288TIP3    H164355   0.703   6.027   5.561  1.3370  2.2246 -0.6738
14288TIP3    H264356   0.785   5.903   5.588 -2.5618 -0.2304  0.8366
14289TIP3   OH264357   2.881   1.226  15.880 -0.3679  0.3199 -0.3199
14289TIP3    H164358   2.880   1.147  15.935 -1.1386 -0.0966 -0.9177
14289TIP3    H264359   2.791   1.234  15.847  0.0160  0.7199 -1.3029
14290TIP3   OH264360   4.425   6.587  13.134  0.1091 -0.1504 -0.1146
14290TIP3    H164361   4.515   6.615  13.120  0.4928 -0.6650  1.2199
14290TIP3    H264362   4.413   6.514  13.073  0.5707 -0.0459 -0.3327
14291TIP3   OH264363   6.311   0.563  16.213  0.3315 -0.0710  0.7851
14291TIP3    H164364   6.400   0.537  16.191  0.1029 -0.1498 -0.0698
14291TIP3    H264365   6.260   0.482  16.208  0.2689 -0.0894  1.6058
14292TIP3   OH264366   6.739   6.178   1.952 -0.0342  0.2906  0.1952
14292TIP3    H164367   6.722   6.093   1.993 -0.7229  0.4025  0.1494
14292TIP3    H264368   6.672   6.235   1.987  0.7149  0.9485  0.5910
14293TIP3   OH264369   3.998   3.426   6.229  0.2231  0.2254  0.3638
14293TIP3    H164370   3.939   3.492   6.265 -0.9132  0.4141 -1.7099
14293TIP3    H264371   4.085   3.464   6.240 -0.1905  0.9340  1.4486
14294TIP3   OH264372   5.120   0.465  12.828 -0.3072  0.5300 -0.1306
14294TIP3    H164373   5.154   0.377  12.811  1.8524  1.2737 -0.0425
14294TIP3    H264374   5.049   0.452  12.891  0.2786 -1.1089  0.2419
14295TIP3   OH264375   6.253   4.626   0.410 -0.1738  0.2436 -0.6138
14295TIP3    H164376   6.252   4.603   0.503 -1.6668  0.9357 -0.4364
14295TIP3    H264377   6.341   4.662   0.395  1.2280 -2.7332 -0.2460
14296TIP3   OH264378   1.152   0.856   1.706 -0.1369  0.1531  0.0781
14296TIP3    H164379   1.070   0.849   1.755  0.8848 -1.1881  1.7195
14296TIP3    H264380   1.182   0.766   1.696  0.0211  0.4368 -2.5657
14297TIP3   OH264381   6.048   4.469   0.016 -0.2378  0.6033 -0.4772
14297TIP3    H164382   6.043   4.473   0.111 -0.4404  0.1062 -0.4648
14297TIP3    H264383   5.993   4.542  -0.014  0.0380  0.9207 -0.2142
14298TIP3   OH264384   0.409   4.944   2.343  0.2751 -0.5054  0.1555
14298TIP3    H164385   0.426   4.886   2.418  0.3554 -0.2297  0.3514
14298TIP3    H264386   0.479   5.009   2.348  0.3745 -0.5806 -0.2551
14299TIP3   OH264387   2.647   2.605   3.508  0.6399  0.0190  0.0392
14299TIP3    H164388   2.613   2.516   3.514  2.2942 -0.6765 -0.4073
14299TIP3    H264389   2.712   2.611   3.579  0.3669  0.9518  0.2241
14300TIP3   OH264390   6.551   2.216  12.418  0.2440 -0.2595 -0.5587
14300TIP3    H164391   6.617   2.176  12.362  0.0749 -0.1428 -0.8431
14300TIP3    H264392   6.545   2.158  12.494 -0.6561 -1.2851 -1.3891
14301TIP3   OH264393   0.867   5.715  11.303  0.1964 -0.0942  0.0769
14301TIP3    H164394   0.843   5.756  11.385  0.0657 -2.0835  1.0947
14301TIP3    H264395   0.946   5.761  11.274  0.9479 -0.1620  1.9434
14302TIP3   OH264396   1.023   0.488  17.369 -0.2844 -0.3645 -0.1915
14302TIP3    H164397   1.109   0.494  17.410 -0.6756  0.3012  0.5436
14302TIP3    H264398   0.987   0.405  17.400  0.0049 -0.5461 -0.3366
14303TIP3   OH264399   3.523   3.769   1.005 -0.0474 -0.2692 -0.5572
14303TIP3    H164400   3.428   3.762   1.011 -0.2204  1.0165 -1.4202
14303TIP3    H264401   3.538   3.828   0.931  1.3272  1.7574  1.2408
14304TIP3   OH264402   3.640   4.983  16.036 -0.3872 -0.1331  0.1022
14304TIP3    H164403   3.681   5.068  16.052 -1.1371  0.4322 -0.8842
14304TIP3    H264404   3.712   4.920  16.040  0.2680  0.6124  0.2726
14305TIP3   OH264405   1.768   2.630  11.600 -0.1378  0.0549 -0.2066
14305TIP3    H164406   1.780   2.667  11.512 -0.1413 -0.9407 -0.6458
14305TIP3    H264407   1.696   2.568  11.590  0.4693 -0.7567  0.2693
14306TIP3   OH264408   2.326   1.758  12.711  0.0743  0.3224  0.2496
14306TIP3    H164409   2.407   1.754  12.660  0.0371  0.0084  0.2135
14306TIP3    H264410   2.271   1.690  12.672 -0.0990  0.3436  0.4616
14307TIP3   OH264411   0.009   0.724   2.666 -0.4803  0.6245  0.3416
14307TIP3    H164412   0.094   0.709   2.625 -1.3787  1.6467 -2.1302
14307TIP3    H264413  -0.038   0.641   2.653 -0.1596  0.3299  0.9964
14308TIP3   OH264414   5.957   5.329   4.356  0.2289 -0.0952  0.4987
14308TIP3    H164415   5.921   5.250   4.315  1.5106 -0.7134  0.5125
14308TIP3    H264416   6.012   5.296   4.427 -0.5259  0.8975  1.5773
14309TIP3   OH264417   5.226   2.978   3.601 -0.2794  0.4416 -0.0072
14309TIP3    H164418   5.238   2.894   3.556 -0.1391  0.0092  0.8263
14309TIP3    H264419   5.218   2.955   3.693  5.2603  1.6284  1.1036
14310TIP3   OH264420   6.598   6.577   2.776  0.3579 -0.4183  0.2552
14310TIP3    H164421   6.673   6.573   2.717  0.6075  0.5021  0.4816
14310TIP3    H264422   6.624   6.523   2.851  0.5523 -0.5832  0.0711
14311TIP3   OH264423   2.023   6.405  10.679 -0.3750 -0.5729  0.4756
14311TIP3    H164424   2.004   6.336  10.743  1.6729  0.7626  2.7164
14311TIP3    H264425   2.003   6.486  10.725  2.2254  0.4826 -0.0867
14312TIP3   OH264426   3.053   6.658   5.259 -0.8324 -0.4246  0.2555
14312TIP3    H164427   2.957   6.664   5.265 -0.8496 -1.0766  0.8267
14312TIP3    H264428   3.079   6.620   5.343 -0.0313  0.1333  0.2618
14313TIP3   OH264429   3.917   4.747   1.177 -0.0970  0.3755 -0.7331
14313TIP3    H164430   3.986   4.810   1.202 -1.5926  1.9219 -0.2959
14313TIP3    H264431   3.904   4.762   1.083  0.8384 -0.6599 -1.0535
14314TIP3   OH264432   4.595   5.504   4.967  0.6342 -0.2099  0.0106
14314TIP3    H164433   4.677   5.551   4.983  0.8215 -0.4851 -0.1202
14314TIP3    H264434   4.566   5.537   4.882  0.4154  0.1578  0.2268
14315TIP3   OH264435   5.091   0.315  14.431  0.3097  0.0355  0.4925
14315TIP3    H164436   5.048   0.242  14.475  1.9605 -1.2529  0.0571
14315TIP3    H264437   5.049   0.393  14.468 -1.9499 -1.0923  0.5120
14316TIP3   OH264438   5.674   4.720  15.625 -0.0379 -0.0374 -0.5269
14316TIP3    H164439   5.675   4.656  15.553  0.8830  0.0950 -0.6386
14316TIP3    H264440   5.652   4.803  15.583  1.6347  0.2706 -0.8803
14317TIP3   OH264441   1.403   5.745  14.154 -0.0959 -0.4529 -0.4376
14317TIP3    H164442   1.349   5.819  14.126  3.5578  2.2501 -1.1856
14317TIP3    H264443   1.465   5.732  14.082  3.0041 -0.3020  1.9747
14318TIP3   OH264444   5.038   2.696   0.820 -0.3314 -0.0776  0.0904
14318TIP3    H164445   5.088   2.653   0.750 -0.0254 -0.4510  0.5355
14318TIP3    H264446   5.060   2.647   0.899 -1.2537 -0.1329  0.3286
14319TIP3   OH264447   3.166   3.681   0.875  0.4039 -0.4691  0.3205
14319TIP3    H164448   3.073   3.676   0.851 -0.1999  1.3645  2.0139
14319TIP3    H264449   3.167   3.673   0.970  1.8061  0.9833  0.4691
14320TIP3   OH264450   6.716   2.825  11.436  0.2452 -0.1165  0.2960
14320TIP3    H164451   6.676   2.738  11.439 -1.4164  0.6286  1.8380
14320TIP3    H264452   6.675   2.872  11.509  1.9287  1.6146  0.1863
14321TIP3   OH264453   3.686   2.498  13.695 -0.3902 -0.3505  0.7062
14321TIP3    H164454   3.693   2.495  13.790 -0.2719  0.3015  0.7238
14321TIP3    H264455   3.740   2.573  13.669 -0.5194 -0.4469  0.1358
14322TIP3   OH264456   1.225   2.635  11.036 -0.0702  0.0919 -0.4223
14322TIP3    H164457   1.272   2.677  10.963 -0.1015  2.2964  0.7484
14322TIP3    H264458   1.292   2.582  11.079  0.0069 -1.0448 -1.8694
14323TIP3   OH264459   1.516   3.575   0.754  0.2639 -0.2252 -0.1521
14323TIP3    H164460   1.538   3.609   0.667  0.2165  0.2570  0.0218
14323TIP3    H264461   1.599   3.543   0.789  0.7268  1.5399  0.4819
14324TIP3   OH264462   4.506   6.071  14.023  0.3295  0.0771  0.2853
14324TIP3    H164463   4.455   6.056  14.102  1.5637 -2.3110  0.7094
14324TIP3    H264464   4.589   6.108  14.054 -0.0562  1.3534 -0.1447
14325TIP3   OH264465   1.045   6.614   0.111 -1.1453 -0.2500 -0.3792
14325TIP3    H164466   1.126   6.593   0.064 -1.5045  0.8439 -1.5484
14325TIP3    H264467   0.989   6.653   0.044 -1.5027  1.8578  1.0767
14326TIP3   OH264468   5.337   4.907  14.895 -0.4255  0.1144 -0.1710
14326TIP3    H164469   5.416   4.952  14.926 -0.1946  0.8766 -1.7312
14326TIP3    H264470   5.369   4.848  14.827 -1.3847  2.3129 -2.7101
14327TIP3   OH264471   6.369   2.546   4.803 -0.3732 -0.9042  0.6301
14327TIP3    H164472   6.412   2.468   4.837  0.8225 -1.2095 -1.4007
14327TIP3    H264473   6.384   2.542   4.708  0.0204  1.9522  0.4870
14328TIP3   OH264474   5.453   1.893   2.306 -0.4842  0.7520 -0.3436
14328TIP3    H164475   5.380   1.905   2.366 -0.2458  0.3431  0.0407
14328TIP3    H264476   5.438   1.956   2.235  0.0591  2.3734  0.9269
14329TIP3   OH264477   0.308   2.029   1.911 -0.7157 -0.1423  0.1879
14329TIP3    H164478   0.221   2.031   1.872 -1.0304  0.2654  0.9068
14329TIP3    H264479   0.362   1.982   1.847 -1.0987  0.9589 -0.9878
14330TIP3   OH264480   1.210   3.422   0.259  0.3255  0.0310 -0.1928
14330TIP3    H164481   1.245   3.483   0.323 -0.3400  1.8055 -1.4298
14330TIP3    H264482   1.268   3.431   0.183  0.6927 -1.5070 -0.1227
14331TIP3   OH264483   1.485   2.294   5.056 -0.2326  0.4214 -0.1832
14331TIP3    H164484   1.418   2.324   4.995 -0.8563  1.7285  1.1016
14331TIP3    H264485   1.562   2.348   5.036  0.0105 -0.1042 -0.7087
14332TIP3   OH264486   6.315   6.790  17.378  0.4938 -0.1331 -0.3405
14332TIP3    H164487   6.385   6.856  17.382 -0.2386  0.7175 -1.2608
14332TIP3    H264488   6.300   6.776  17.285  0.5361 -1.5246 -0.1589
14333TIP3   OH264489   2.802   2.532   2.895  0.4948 -0.2978  0.0704
14333TIP3    H164490   2.747   2.589   2.950 -0.1037 -0.2423 -0.5646
14333TIP3    H264491   2.889   2.537   2.935  0.4870  1.1545 -0.0248
14334TIP3   OH264492   3.924   0.807  12.244  0.3234  0.5231  0.5803
14334TIP3    H164493   3.832   0.784  12.236  0.2040  1.1773  0.0237
14334TIP3    H264494   3.925   0.900  12.266  0.8291  0.2359  1.9084
14335TIP3   OH264495   2.859   0.972  12.650 -0.0388  0.2570  0.3296
14335TIP3    H164496   2.910   1.008  12.722  0.3640  0.5845 -0.1125
14335TIP3    H264497   2.854   0.878  12.668  0.5181  0.2587  0.5022
14336TIP3   OH264498   4.777   0.688  12.156  0.1267  0.3049 -0.2006
14336TIP3    H164499   4.798   0.700  12.064  0.7293  0.3510 -0.0594
14336TIP3    H264500   4.859   0.704  12.202 -0.3629  1.1132  0.4112
14337TIP3   OH264501   5.939   3.941   1.914  0.2667 -0.7801  0.1706
14337TIP3    H164502   5.873   3.896   1.861 -0.3055 -0.9368  0.9993
14337TIP3    H264503   5.983   4.000   1.853 -3.7428  2.9166  0.3107
14338TIP3   OH264504   2.961   4.183  12.680  0.3918  0.3176 -0.1861
14338TIP3    H164505   2.881   4.189  12.628  0.3072  0.6145 -0.0251
14338TIP3    H264506   2.975   4.089  12.692  1.2563  0.1669 -2.0420
14339TIP3   OH264507   4.902   5.211   2.510 -0.1898 -0.2674  0.1645
14339TIP3    H164508   4.890   5.126   2.467 -1.4482  0.2150 -0.4852
14339TIP3    H264509   4.936   5.188   2.597  1.1656 -1.3258 -0.6020
14340TIP3   OH264510   5.082   1.866   5.236 -0.2238 -0.5627 -0.1972
14340TIP3    H164511   4.990   1.846   5.249 -0.0985 -2.6055 -1.9318
14340TIP3    H264512   5.129   1.799   5.286  0.2884 -0.9279 -1.1487
14341TIP3   OH264513   4.193   0.234   0.591 -0.2661  0.0061  0.0366
14341TIP3    H164514   4.194   0.301   0.523  0.7091  0.8311  0.8112
14341TIP3    H264515   4.284   0.204   0.597 -0.8035 -1.9566 -0.7968
14342TIP3   OH264516   6.059   5.995   4.416 -0.1727  0.8384  0.3617
14342TIP3    H164517   6.024   6.066   4.470  2.8782  1.2481  2.0522
14342TIP3    H264518   6.056   5.918   4.472  0.7678  0.7142  0.2649
14343TIP3   OH264519   1.277   2.460  15.773  0.8929 -0.4831 -0.1628
14343TIP3    H164520   1.329   2.433  15.849  0.3928 -0.7330  0.0976
14343TIP3    H264521   1.324   2.424  15.698  1.8802  0.5284 -0.0495
14344TIP3   OH264522   4.428   0.806   5.769  0.1001  0.3090 -0.5573
14344TIP3    H164523   4.337   0.794   5.797 -0.2813  1.6072 -1.1336
14344TIP3    H264524   4.452   0.893   5.803  1.9626 -0.9552  1.6913
14345TIP3   OH264525   2.286   5.035  16.320  0.0767  0.5752 -0.1145
14345TIP3    H164526   2.303   5.116  16.368 -0.3015 -1.2142  3.3720
14345TIP3    H264527   2.370   4.989  16.321  0.1124  0.5661 -1.4437
14346TIP3   OH264528   4.452   1.906   0.534  1.0454 -0.0864 -0.3970
14346TIP3    H164529   4.524   1.927   0.594  2.1440 -1.5689 -1.1113
14346TIP3    H264530   4.430   1.989   0.492  1.0319  0.7609  1.1904
14347TIP3   OH264531   2.187   5.162  16.050 -0.5527  0.2255 -0.0426
14347TIP3    H164532   2.147   5.076  16.060 -0.5620  0.1828 -0.4375
14347TIP3    H264533   2.256   5.165  16.117 -1.1797  0.2819  0.6175
14348TIP3   OH264534   2.563   3.651   0.176 -0.7920 -0.0988  0.0269
14348TIP3    H164535   2.653   3.681   0.164  0.0501 -2.1920  0.5376
14348TIP3    H264536   2.509   3.717   0.133  0.8538  2.1089  1.1620
14349TIP3   OH264537   1.459   2.883   0.439  0.0715  0.0046  0.1861
14349TIP3    H164538   1.545   2.901   0.401 -0.6652  0.4829 -1.3187
14349TIP3    H264539   1.443   2.958   0.497  0.9002 -0.3796  0.9364
14350TIP3   OH264540   0.646   5.864  13.464 -0.1357  0.5350 -0.3173
14350TIP3    H164541   0.653   5.942  13.519 -0.1752  0.2114  0.1497
14350TIP3    H264542   0.693   5.796  13.512  0.4347  0.4264 -1.0174
14351TIP3   OH264543   4.709   0.797  11.545  0.2086 -0.2066  0.0923
14351TIP3    H164544   4.715   0.706  11.517 -1.9933 -0.6358  0.7997
14351TIP3    H264545   4.690   0.847  11.466  0.1778 -0.5414 -0.1090
14352TIP3   OH264546   4.789   1.432  11.621 -0.2188 -0.0418  0.3266
14352TIP3    H164547   4.786   1.491  11.546 -0.0220  0.1470  0.4645
14352TIP3    H264548   4.754   1.484  11.694  0.9398  0.2661  0.6820
14353TIP3   OH264549   1.334   4.124   0.919  0.5181  0.0908  0.0419
14353TIP3    H164550   1.406   4.185   0.935  0.7741 -0.2909  0.3789
14353TIP3    H264551   1.297   4.152   0.835  0.2242  1.0880  0.4922
14354TIP3   OH264552   1.252   2.767  11.868 -0.3538  0.3032 -0.6157
14354TIP3    H164553   1.318   2.837  11.875 -0.6765  0.4874  0.7667
14354TIP3    H264554   1.262   2.717  11.949 -1.9930  0.4131 -0.3233
14355TIP3   OH264555   1.965   5.479   2.901 -0.4183 -0.2486  0.0805
14355TIP3    H164556   1.954   5.386   2.882  0.7906 -0.2743 -0.6148
14355TIP3    H264557   1.887   5.520   2.864 -1.8545 -1.1449  1.9773
14356TIP3   OH264558   6.081   1.444  15.527 -0.3097  0.5147  1.0310
14356TIP3    H164559   6.175   1.431  15.519 -0.5687 -0.7561 -0.4479
14356TIP3    H264560   6.054   1.476  15.441 -1.5409 -1.4246  0.6271
14357TIP3   OH264561   6.633   3.082   1.988  0.2394  0.1855 -0.0155
14357TIP3    H164562   6.596   3.146   2.050  0.3490 -1.0805  1.4252
14357TIP3    H264563   6.557   3.034   1.956  0.2841  0.1294 -0.0363
14358TIP3   OH264564   2.809   3.947   0.304  0.1327  0.1342  0.0813
14358TIP3    H164565   2.816   3.866   0.254  2.1152  0.3668 -0.0654
14358TIP3    H264566   2.897   3.964   0.335 -0.5271  1.4913  1.3309
14359TIP3   OH264567   3.515   3.942   3.064 -0.0184 -0.1338  0.4050
14359TIP3    H164568   3.447   3.971   3.003 -0.3201 -1.1493  0.2385
14359TIP3    H264569   3.509   4.003   3.138  0.4539  1.1999 -0.6247
14360TIP3   OH264570   4.255   2.528   6.301 -0.7973  0.0025 -0.6910
14360TIP3    H164571   4.259   2.605   6.358  0.1170 -0.7085  0.2326
14360TIP3    H264572   4.171   2.487   6.322 -0.0845 -0.7411  0.8285
14361TIP3   OH264573   0.341   2.203   3.245  0.4425  0.0455 -0.4803
14361TIP3    H164574   0.295   2.202   3.161 -0.5154  1.8854 -0.0507
14361TIP3    H264575   0.430   2.173   3.225  1.0443  2.8569 -2.7216
14362TIP3   OH264576   6.552   1.166   3.739 -0.3663  0.2905  0.6119
14362TIP3    H164577   6.595   1.178   3.823  0.3881 -1.0553  0.4444
14362TIP3    H264578   6.603   1.220   3.678  0.9945 -1.0994  0.4629
14363TIP3   OH264579   1.222   5.889  11.964  0.7202 -0.4891 -0.5425
14363TIP3    H164580   1.311   5.854  11.959  1.1988  0.5458  0.3021
14363TIP3    H264581   1.207   5.902  12.057  0.5481  1.4159 -0.7867
14364TIP3   OH264582   0.078   3.874   1.199  0.5067 -0.1121  0.0614
14364TIP3    H164583   0.093   3.957   1.153  2.1045 -1.2334 -1.6037
14364TIP3    H264584   0.165   3.835   1.206 -0.4925 -3.7459 -3.4833
14365TIP3   OH264585   4.486   3.531  12.346  0.0610 -0.6073  0.2420
14365TIP3    H164586   4.463   3.523  12.438 -1.0435  2.1471  0.3154
14365TIP3    H264587   4.415   3.487  12.299  0.5345 -1.8555  0.6594
14366TIP3   OH264588   1.481   1.315  16.886  0.0900  0.5933 -0.3236
14366TIP3    H164589   1.472   1.407  16.911 -0.0512  0.3709  0.4937
14366TIP3    H264590   1.517   1.317  16.798  0.8697  1.4339 -0.0046
14367TIP3   OH264591   3.393   3.091   1.215 -0.4966  0.0565 -0.3699
14367TIP3    H164592   3.333   3.082   1.289 -0.1281 -3.2409 -0.3169
14367TIP3    H264593   3.442   3.171   1.232 -0.4148 -0.5962  2.9910
14368TIP3   OH264594   3.774   4.932   0.558 -0.0573  0.0367  0.3882
14368TIP3    H164595   3.735   4.846   0.542  0.9488 -0.3509 -0.0854
14368TIP3    H264596   3.834   4.945   0.484  0.0922  0.9724  0.6648
14369TIP3   OH264597   5.332   2.464   0.325  0.1630  0.6274 -0.4150
14369TIP3    H164598   5.395   2.498   0.262 -0.0748  0.9404 -0.4895
14369TIP3    H264599   5.271   2.536   0.339  0.7838  0.9139  0.9452
14370TIP3   OH264600   0.694   3.587   4.412  0.6013 -0.0027  0.3956
14370TIP3    H164601   0.673   3.664   4.465  0.7898  1.5532 -1.6960
14370TIP3    H264602   0.768   3.546   4.458  0.8442  1.3680  1.2713
14371TIP3   OH264603   2.306   4.590   4.481 -0.3513  0.1183  0.4142
14371TIP3    H164604   2.287   4.639   4.562  0.1832  1.7410 -0.3961
14371TIP3    H264605   2.316   4.499   4.510 -0.4008  0.6225  2.1452
14372TIP3   OH264606   0.735   3.263  14.459 -0.7580  0.8098 -0.4155
14372TIP3    H164607   0.736   3.337  14.520 -1.6201  1.9129 -1.6792
14372TIP3    H264608   0.677   3.199  14.500 -0.1349  0.8866  0.6203
14373TIP3   OH264609   3.118   6.004  15.761 -0.6518 -0.3472  0.0308
14373TIP3    H164610   3.183   5.942  15.794  2.4605  1.5075 -2.1166
14373TIP3    H264611   3.140   6.016  15.669 -1.8089  3.0329  0.0490
14374TIP3   OH264612   5.974   1.334  13.345  0.1047 -0.0404  0.3335
14374TIP3    H164613   5.922   1.414  13.335 -0.5421 -0.6912 -3.1010
14374TIP3    H264614   5.963   1.308  13.436 -1.8429  2.3350  0.8673
14375TIP3   OH264615   4.643   5.388   1.174  0.5417  0.2156  0.0343
14375TIP3    H164616   4.567   5.422   1.222  0.3982  0.2403 -0.2065
14375TIP3    H264617   4.685   5.328   1.235  0.0937 -0.1130  0.0317
14376TIP3   OH264618   1.483   6.678   5.186  0.1101  0.4400  0.6756
14376TIP3    H164619   1.461   6.703   5.095 -0.6670  0.0537  0.7470
14376TIP3    H264620   1.552   6.613   5.177  0.2945  0.6708  0.3785
14377TIP3   OH264621   0.733   5.720  16.547  0.4381  0.1214 -0.2482
14377TIP3    H164622   0.779   5.747  16.468  1.0687  1.2456  0.4772
14377TIP3    H264623   0.700   5.633  16.527  2.3100 -0.4508 -1.0223
14378TIP3   OH264624   4.070   2.604   6.013 -0.5342 -0.0697  0.9489
14378TIP3    H164625   4.085   2.526   5.960  0.9375 -0.6227  2.1118
14378TIP3    H264626   3.977   2.623   6.003 -0.4134 -0.4357 -1.4005
14379TIP3   OH264627   3.127   6.773   3.734 -0.6996 -0.2196 -0.6460
14379TIP3    H164628   3.174   6.691   3.719 -0.0885 -0.0615  0.2992
14379TIP3    H264629   3.195   6.841   3.729 -1.2798  0.3029 -1.9398
14380TIP3   OH264630   1.930   1.185   5.443 -0.5532  0.1265  0.6029
14380TIP3    H164631   1.928   1.219   5.532 -1.3593  0.0713  0.6193
14380TIP3    H264632   2.020   1.197   5.414 -0.6018  1.4099  0.9336
14381TIP3   OH264633   3.189   2.312  11.805  0.1482  0.1198 -0.0610
14381TIP3    H164634   3.177   2.382  11.742  0.0507  0.5828  0.4687
14381TIP3    H264635   3.271   2.269  11.778  0.8650  1.2008  0.3319
14382TIP3   OH264636   1.672   1.488  10.454 -0.0213  0.2369  0.1792
14382TIP3    H164637   1.715   1.403  10.451  0.0267  0.2852 -1.5233
14382TIP3    H264638   1.582   1.469  10.478  0.6151  0.0160  2.5942
14383TIP3   OH264639   5.786   0.123   4.985  0.5067  0.0190  0.1661
14383TIP3    H164640   5.718   0.137   5.050 -1.6140 -0.1546 -1.8556
14383TIP3    H264641   5.817   0.034   5.001 -1.2425 -0.6691 -0.1108
14384TIP3   OH264642   6.195   0.102   1.097  0.3494 -0.0379 -0.0072
14384TIP3    H164643   6.103   0.075   1.089  0.0358  1.2304 -0.9264
14384TIP3    H264644   6.245   0.027   1.066 -0.4481 -0.1319 -1.1357
14385TIP3   OH264645   5.518   3.244  15.030 -0.2028  0.5183  0.2883
14385TIP3    H164646   5.450   3.209  14.973  1.4554  0.0179 -1.5014
14385TIP3    H264647   5.506   3.199  15.113 -0.6253 -1.2701 -0.6988
14386TIP3   OH264648   5.409   1.892   0.642  0.3380  0.3897 -0.3240
14386TIP3    H164649   5.351   1.852   0.577 -0.2146  0.4430  0.1354
14386TIP3    H264650   5.497   1.862   0.617  0.1212  0.3141 -1.0237
14387TIP3   OH264651   1.029   2.162   2.651 -0.7534  0.3732 -0.4919
14387TIP3    H164652   0.938   2.135   2.640 -0.2801 -0.9648 -1.4533
14387TIP3    H264653   1.076   2.081   2.671  0.3303  0.9060 -0.7722
14388TIP3   OH264654   4.456   5.575   1.437  0.1326  0.1692 -0.4607
14388TIP3    H164655   4.513   5.638   1.393 -0.6808  1.0853 -0.2362
14388TIP3    H264656   4.396   5.545   1.370 -0.3756  0.7000 -0.2482
14389TIP3   OH264657   3.921   5.467   2.419 -0.4955  0.4287 -0.0906
14389TIP3    H164658   3.884   5.407   2.354 -0.8629  1.0158 -0.4294
14389TIP3    H264659   3.972   5.410   2.477  0.0392 -0.0753 -1.0241
14390TIP3   OH264660   2.947   2.990  16.893  0.7493 -0.3119  0.3999
14390TIP3    H164661   3.024   3.004  16.947  1.5316  0.4025 -0.8569
14390TIP3    H264662   2.981   2.954  16.811 -0.3035 -0.4352  0.0002
14391TIP3   OH264663   5.526   5.276   6.328 -0.2914 -0.1379  0.1832
14391TIP3    H164664   5.607   5.324   6.339 -0.1795 -0.3788  0.4264
14391TIP3    H264665   5.531   5.205   6.393 -1.1637  0.4680  0.9409
14392TIP3   OH264666   3.341   5.426   3.019  0.3108 -0.8075  0.2402
14392TIP3    H164667   3.257   5.386   2.997  0.9469 -2.1875  0.2501
14392TIP3    H264668   3.406   5.359   3.000  1.4718  0.3760 -0.1606
14393TIP3   OH264669   0.396   4.841  13.823  0.5893  0.7145  0.1451
14393TIP3    H164670   0.356   4.841  13.736  1.0115 -2.2422 -0.1754
14393TIP3    H264671   0.321   4.844  13.884  0.1754  0.7124 -0.3543
14394TIP3   OH264672   2.563   0.774  13.592  0.5693  0.3720  0.8094
14394TIP3    H164673   2.492   0.721  13.629  0.3001  2.0615  2.8439
14394TIP3    H264674   2.628   0.709  13.564 -1.9352 -1.2974 -1.7377
14395TIP3   OH264675   5.443   3.177  16.174 -0.1463  0.2999 -0.4089
14395TIP3    H164676   5.474   3.246  16.115 -0.6423  0.4571 -0.4929
14395TIP3    H264677   5.380   3.127  16.121 -0.4165  0.2955 -0.0890
14396TIP3   OH264678   5.858   5.453   5.682 -0.3916 -0.3965 -0.1933
14396TIP3    H164679   5.816   5.413   5.758 -1.0718  1.1722  0.3156
14396TIP3    H264680   5.945   5.413   5.677 -0.7702 -1.3568  0.7009
14397TIP3   OH264681   2.322   5.906   3.214 -0.1620 -0.2017  0.0594
14397TIP3    H164682   2.323   5.896   3.309 -0.3242  0.4869  0.1389
14397TIP3    H264683   2.236   5.874   3.187 -0.6024  0.7419  0.2888
14398TIP3   OH264684   4.310   1.746   3.368  0.1237  0.1480 -0.5082
14398TIP3    H164685   4.291   1.823   3.422 -0.4767 -1.2577  1.4050
14398TIP3    H264686   4.229   1.730   3.320 -0.9451 -1.0850  1.5300
14399TIP3   OH264687   2.352   0.572  13.549 -0.0492 -0.4055  0.5253
14399TIP3    H164688   2.378   0.485  13.521 -0.4249 -0.4449  0.2896
14399TIP3    H264689   2.297   0.605  13.477  1.2493  0.5853 -0.0402
14400TIP3   OH264690   5.659   4.652  14.750 -0.0348  0.0260  0.0894
14400TIP3    H164691   5.726   4.627  14.814  0.1738  0.3674  0.0092
14400TIP3    H264692   5.708   4.680  14.673 -0.2984 -1.8012 -0.7953
14401TIP3   OH264693   1.625   1.189  11.778  0.0038 -0.2651  0.2185
14401TIP3    H164694   1.713   1.224  11.778 -0.4550  0.9367 -0.1884
14401TIP3    H264695   1.629   1.112  11.836  1.4168 -0.5425 -0.2121
14402TIP3   OH264696   1.398   3.156   6.377  0.3191  0.2626 -0.2462
14402TIP3    H164697   1.303   3.153   6.378  0.3411 -1.1186  0.4467
14402TIP3    H264698   1.420   3.231   6.432 -0.3955 -1.5041  2.7232
14403TIP3   OH264699   5.670   5.002  14.379  0.9653 -0.3506 -0.1385
14403TIP3    H164700   5.683   5.059  14.303 -4.4488 -0.4606 -1.5488
14403TIP3    H264701   5.691   5.058  14.454 -0.0370  2.1603 -1.5939
14404TIP3   OH264702   0.366   2.380   6.552  0.1767 -0.0674 -0.0059
14404TIP3    H164703   0.315   2.339   6.622 -0.8254  1.1868  0.0314
14404TIP3    H264704   0.420   2.446   6.596  1.2095 -0.7799 -0.1600
14405TIP3   OH264705   1.746   3.662   3.921 -0.2560  0.1717  0.0231
14405TIP3    H164706   1.681   3.634   3.856  3.2428 -0.6348 -3.4922
14405TIP3    H264707   1.746   3.757   3.916  0.3131  0.1077 -1.6235
14406TIP3   OH264708   0.870   1.802   2.443  0.3221  0.3596  0.2927
14406TIP3    H164709   0.881   1.831   2.533 -0.2367  0.1517  0.4348
14406TIP3    H264710   0.933   1.730   2.434  3.2331  2.8215 -0.6935
14407TIP3   OH264711   3.279   3.964   1.339 -0.3882  0.6329 -0.3758
14407TIP3    H164712   3.344   3.918   1.392 -0.2264 -0.1833 -1.2622
14407TIP3    H264713   3.206   3.980   1.400 -0.0556  0.0478  0.1875
14408TIP3   OH264714   4.503   6.508   1.599 -0.7234 -0.0390  0.4150
14408TIP3    H164715   4.503   6.448   1.674 -1.0324 -0.1890  0.2943
14408TIP3    H264716   4.575   6.569   1.618 -0.4495 -0.4049  0.5682
14409TIP3   OH264717   1.457   4.369  11.143  0.0269 -0.5615 -0.0995
14409TIP3    H164718   1.427   4.362  11.052  0.3808  1.7893 -0.4618
14409TIP3    H264719   1.385   4.331  11.194 -1.2419  0.1781 -1.2465
14410TIP3   OH264720   5.270   6.187  10.858 -0.4585  0.5010 -0.3438
14410TIP3    H164721   5.182   6.200  10.892 -0.5090 -0.5440 -0.0443
14410TIP3    H264722   5.325   6.244  10.911 -0.6731 -0.3791  0.8591
14411TIP3   OH264723   1.848   0.465   2.205  0.9197 -0.0783  1.1775
14411TIP3    H164724   1.924   0.415   2.175  1.7675  1.6253  0.3341
14411TIP3    H264725   1.777   0.440   2.146  1.4765  0.1057  0.4212
14412TIP3   OH264726   5.656   2.699   0.928  0.0563 -0.5211 -0.5593
14412TIP3    H164727   5.729   2.742   0.883 -0.5127  1.2035  0.0589
14412TIP3    H264728   5.662   2.607   0.901  1.2557 -0.0523 -2.0769
14413TIP3   OH264729   6.269   6.797   5.015 -0.5542 -0.0754 -0.3970
14413TIP3    H164730   6.246   6.708   5.040  0.9354 -0.0120  1.4725
14413TIP3    H264731   6.262   6.847   5.097  0.5976  1.0573 -0.9614
14414TIP3   OH264732   0.949   0.369  13.305  0.2255 -0.0854  0.0721
14414TIP3    H164733   1.014   0.360  13.236  0.4462 -1.1285  0.3965
14414TIP3    H264734   0.874   0.318  13.273 -0.0787  0.3367  0.1140
14415TIP3   OH264735   3.958   5.456  11.855  0.3566  0.4972  0.0251
14415TIP3    H164736   4.050   5.446  11.877  0.4866 -1.2941 -1.1707
14415TIP3    H264737   3.949   5.549  11.833  1.0749  1.4903  3.3347
14416TIP3   OH264738   2.567   4.540   5.483  0.3637 -0.3873 -0.2661
14416TIP3    H164739   2.555   4.536   5.389 -2.3814  1.1413 -0.0737
14416TIP3    H264740   2.602   4.628   5.499 -4.1934  1.6201  0.3440
14417TIP3   OH264741   1.740   1.514  14.509  0.5258 -0.4110  0.2706
14417TIP3    H164742   1.789   1.519  14.591  2.8841 -0.9342 -0.9848
14417TIP3    H264743   1.671   1.579  14.517  1.4677  0.4160  2.1933
14418TIP3   OH264744   2.958   2.860   2.258 -0.0383  0.4505  0.1948
14418TIP3    H164745   2.974   2.867   2.164  0.2252 -1.1117  0.1040
14418TIP3    H264746   2.993   2.774   2.282 -3.2002 -0.7067  1.0690
14419TIP3   OH264747   4.593   0.331   2.313 -0.2378 -0.2184  0.1181
14419TIP3    H164748   4.586   0.421   2.345 -0.7693 -0.4887  0.8013
14419TIP3    H264749   4.650   0.288   2.377  0.7254 -0.1626 -0.6827
14420TIP3   OH264750   3.345   0.003   6.085  0.0869  0.2759  0.2048
14420TIP3    H164751   3.259   0.012   6.127 -0.0267 -2.0469  0.6391
14420TIP3    H264752   3.336   0.050   6.002 -2.1723 -1.1179 -0.4611
14421TIP3   OH264753   3.767   3.660  14.994 -0.1483  0.3926  0.2081
14421TIP3    H164754   3.820   3.689  15.068  2.7130  0.8653 -1.8442
14421TIP3    H264755   3.773   3.732  14.930  1.7867 -1.9071 -2.4589
14422TIP3   OH264756   6.243   3.671  15.554  0.0974 -0.3256 -0.1849
14422TIP3    H164757   6.256   3.652  15.461  0.7381  0.5135 -0.2748
14422TIP3    H264758   6.298   3.607  15.599 -0.5648 -1.0345 -0.3546
14423TIP3   OH264759   3.552   2.126  17.376 -0.1897  0.3692  0.2319
14423TIP3    H164760   3.547   2.055  17.441 -0.0695  0.7391  0.6524
14423TIP3    H264761   3.576   2.083  17.295 -1.7644 -0.3257  0.0840
14424TIP3   OH264762   6.335   4.665  15.499  0.2545  0.0159 -0.4062
14424TIP3    H164763   6.257   4.721  15.501  0.7700  0.7612 -0.5467
14424TIP3    H264764   6.322   4.603  15.571 -0.6212 -0.0971 -0.6419
14425TIP3   OH264765   4.365   1.771  15.731  0.6384  0.0850  0.4078
14425TIP3    H164766   4.349   1.865  15.741 -0.0271  0.1058 -0.6298
14425TIP3    H264767   4.424   1.749  15.802  0.9413  1.3258  0.5731
14426TIP3   OH264768   4.072   5.650  13.788  0.0222 -0.0382 -0.3939
14426TIP3    H164769   4.032   5.623  13.871  1.2531 -0.6287  0.0288
14426TIP3    H264770   4.094   5.743  13.801 -0.1929 -0.0097 -0.2265
14427TIP3   OH264771   6.379   1.696  12.876 -0.1270 -0.0378  0.0841
14427TIP3    H164772   6.355   1.787  12.894 -0.4238 -0.1640  0.3313
14427TIP3    H264773   6.429   1.668  12.952  1.2324  0.3634 -0.6211
14428TIP3   OH264774   3.062   5.903   3.622  0.5625  0.7201 -0.0912
14428TIP3    H164775   3.012   5.841   3.674 -0.1629  1.4999  0.1651
14428TIP3    H264776   3.150   5.864   3.615  0.8214  0.7874  2.0640
14429TIP3   OH264777   4.140   5.312   4.302  0.2168 -0.2171 -0.3353
14429TIP3    H164778   4.128   5.295   4.208  2.9866 -0.4466 -0.7308
14429TIP3    H264779   4.155   5.226   4.340  0.6159  0.0257  0.0595
14430TIP3   OH264780   1.809   4.410  13.771  0.2638 -0.0094  0.1906
14430TIP3    H164781   1.875   4.460  13.819  0.7909 -1.0950  0.6372
14430TIP3    H264782   1.736   4.401  13.832 -0.1745  0.8973 -0.1827
14431TIP3   OH264783   3.579   5.298  15.080 -0.5665 -0.3094 -0.4071
14431TIP3    H164784   3.546   5.380  15.117  0.2144 -0.8245  1.5756
14431TIP3    H264785   3.656   5.323  15.029 -0.5188  0.2300 -0.0709
14432TIP3   OH264786   2.246   3.878  14.440  1.2307 -0.1928 -0.4896
14432TIP3    H164787   2.252   3.808  14.374 -0.7378 -1.5879  0.6868
14432TIP3    H264788   2.169   3.928  14.414 -0.0654 -1.2578  1.1215
14433TIP3   OH264789   0.991   2.712  13.159  0.3363 -0.0692 -0.2160
14433TIP3    H164790   0.919   2.677  13.107  0.9524  1.7157 -2.4048
14433TIP3    H264791   0.952   2.782  13.211 -0.0641 -1.1376  0.9668
14434TIP3   OH264792   4.414   2.110   5.939  0.2711  0.9129  0.2228
14434TIP3    H164793   4.363   2.190   5.923 -2.5662 -0.9125 -0.6637
14434TIP3    H264794   4.368   2.066   6.011  0.1233 -1.1204 -1.0362
14435TIP3   OH264795   4.059   3.756  13.512  0.3333 -0.2820  0.7797
14435TIP3    H164796   4.027   3.845  13.497  0.9553 -0.2206 -0.3204
14435TIP3    H264797   4.010   3.702  13.449  0.4445 -0.6104  0.9727
14436TIP3   OH264798   0.402   5.058  16.825 -0.1510 -0.3639 -0.2652
14436TIP3    H164799   0.374   5.030  16.912 -0.0685 -0.6191 -0.3216
14436TIP3    H264800   0.423   5.151  16.836  0.7467 -0.6026  0.2087
14437TIP3   OH264801   3.447   1.407   4.599  0.4152  0.0936 -0.5898
14437TIP3    H164802   3.360   1.407   4.559  0.1152  0.4732  0.0475
14437TIP3    H264803   3.484   1.322   4.576 -0.0762 -0.0239 -0.9618
14438TIP3   OH264804   4.634   2.834  12.351 -0.5418 -0.3270  0.3385
14438TIP3    H164805   4.610   2.869  12.437 -0.1064 -1.3664  0.8976
14438TIP3    H264806   4.613   2.904  12.289  2.2428  1.7796  1.5905
14439TIP3   OH264807   0.829   4.213   4.556 -0.2088 -0.0224  0.5368
14439TIP3    H164808   0.826   4.146   4.624 -0.2315 -0.8795 -0.2911
14439TIP3    H264809   0.915   4.202   4.515 -1.0442 -1.0208 -1.0397
14440TIP3   OH264810   2.981   4.467   1.469  0.8273 -0.4795  0.1194
14440TIP3    H164811   2.954   4.375   1.473  1.6804 -0.9372 -2.5580
14440TIP3    H264812   2.970   4.491   1.378  2.0264  1.6443  0.4702
14441TIP3   OH264813   4.528   1.918   3.860 -0.2187  0.2074 -0.3324
14441TIP3    H164814   4.551   2.008   3.837 -1.7937  0.5508 -0.6635
14441TIP3    H264815   4.602   1.887   3.912  0.2194  1.7835  0.0367
14442TIP3   OH264816   2.663   1.754   2.696 -0.0474  0.1324  0.8165
14442TIP3    H164817   2.662   1.830   2.638  0.3094 -0.4291  0.0536
14442TIP3    H264818   2.571   1.733   2.710 -0.1775 -1.3479 -1.7651
14443TIP3   OH264819   1.283   1.760  13.111 -0.0017 -0.5296 -0.6245
14443TIP3    H164820   1.203   1.708  13.110 -0.0474 -0.4538 -1.3586
14443TIP3    H264821   1.343   1.710  13.166  0.6569 -2.4669 -2.9469
14444TIP3   OH264822   1.478   0.302   5.092  0.4512  0.0260 -0.1135
14444TIP3    H164823   1.557   0.273   5.137 -0.9897 -1.0716  1.8948
14444TIP3    H264824   1.406   0.273   5.149 -1.4291  0.4460 -2.1397
14445TIP3   OH264825   2.562   5.425   1.260  0.2799 -0.0997 -0.0060
14445TIP3    H164826   2.586   5.357   1.323  0.0407  1.6615  2.0885
14445TIP3    H264827   2.644   5.471   1.242  0.2128 -0.1488 -0.4475
14446TIP3   OH264828   4.508   4.804  11.856  0.1202  0.1534  0.1282
14446TIP3    H164829   4.597   4.810  11.891 -0.6154  1.1135  2.0251
14446TIP3    H264830   4.474   4.894  11.863  0.1248  0.6323 -3.9640
14447TIP3   OH264831   3.502   1.947  11.281 -0.3078  0.0133 -0.5129
14447TIP3    H164832   3.489   1.852  11.290  1.0516 -0.2000 -0.5271
14447TIP3    H264833   3.586   1.955  11.237 -0.2215  1.2359 -0.1575
14448TIP3   OH264834   5.488   2.412  13.576  0.0545  0.0368 -0.1685
14448TIP3    H164835   5.581   2.407  13.555 -0.1846  0.5205 -1.4873
14448TIP3    H264836   5.473   2.341  13.638  1.0507 -0.8366 -0.9003
14449TIP3   OH264837   3.903   3.801  15.504  0.4785  0.0465  0.1526
14449TIP3    H164838   3.959   3.769  15.433 -0.2261 -1.2236  0.1404
14449TIP3    H264839   3.930   3.750  15.581 -0.4916 -0.4367  0.1896
14450TIP3   OH264840   1.860   3.502  11.398 -0.8780 -0.4740  0.1990
14450TIP3    H164841   1.805   3.545  11.332  0.0262 -1.3481 -1.1837
14450TIP3    H264842   1.866   3.411  11.368  3.9259  0.1991 -1.6366
14451TIP3   OH264843   6.753   5.268  10.424  0.0842 -0.1886  0.1633
14451TIP3    H164844   6.806   5.306  10.354  0.1224  0.0396  0.3163
14451TIP3    H264845   6.697   5.339  10.454 -3.6640 -1.4582 -3.0467
14452TIP3   OH264846   1.128   6.085   3.890  0.4292 -0.1929 -0.5628
14452TIP3    H164847   1.074   6.094   3.812  0.5628  0.8791 -0.5524
14452TIP3    H264848   1.147   5.992   3.897 -0.1046 -0.3690 -1.4565
14453TIP3   OH264849   3.895   3.930   3.624  0.8075 -0.5469  0.3169
14453TIP3    H164850   3.909   3.848   3.672  2.0339 -1.1120 -0.9315
14453TIP3    H264851   3.824   3.911   3.563  0.1371 -0.2338  0.9913
14454TIP3   OH264852   3.584   1.898  17.188  0.0573  0.1666 -0.3536
14454TIP3    H164853   3.500   1.866  17.154 -0.3272  1.7937 -1.0143
14454TIP3    H264854   3.648   1.873  17.121 -0.4277  1.7739 -1.4762
14455TIP3   OH264855   1.402   1.593  13.310 -0.1977  0.0519  0.0359
14455TIP3    H164856   1.438   1.544  13.384 -1.6016 -1.6640 -0.3396
14455TIP3    H264857   1.386   1.681  13.344  1.0154 -0.1337  1.1663
14456TIP3   OH264858   4.097   3.668  16.697 -0.1565  0.9178 -1.0049
14456TIP3    H164859   4.120   3.580  16.727  2.2449  1.4653 -1.0494
14456TIP3    H264860   4.086   3.718  16.778  2.3162  1.4293 -0.9033
14457TIP3   OH264861   2.952   1.229   3.572 -0.2153 -0.4305 -0.4101
14457TIP3    H164862   2.975   1.173   3.497  1.2048 -0.1252 -0.2375
14457TIP3    H264863   3.036   1.250   3.612 -0.7425  1.5936 -0.2786
14458TIP3   OH264864   4.016   2.384   1.951  0.2874  0.8956  0.1997
14458TIP3    H164865   4.001   2.291   1.934 -0.0764  0.9294  0.3416
14458TIP3    H264866   4.047   2.388   2.042 -0.5573  0.9963  0.4919
14459TIP3   OH264867   0.315   1.775  12.057 -0.1069 -0.1564  0.0441
14459TIP3    H164868   0.311   1.773  12.152  0.8639  0.2284  0.0971
14459TIP3    H264869   0.408   1.774  12.036 -0.3032 -0.0386 -0.8991
14460TIP3   OH264870   1.387   0.291   1.571 -0.6725  0.2233 -0.3677
14460TIP3    H164871   1.388   0.212   1.626  0.0032  0.0995 -0.5495
14460TIP3    H264872   1.473   0.291   1.528 -1.0959  0.4404 -1.2448
14461TIP3   OH264873   4.860   2.765  13.267  0.0452  0.7229  0.6691
14461TIP3    H164874   4.922   2.808  13.327  0.3309 -0.3151  1.1500
14461TIP3    H264875   4.826   2.836  13.213 -0.8310  1.8358  2.5899
14462TIP3   OH264876   5.734   2.009   4.000  0.3161  0.0518 -0.3661
14462TIP3    H164877   5.690   1.934   3.961 -1.5712  0.1525  1.3893
14462TIP3    H264878   5.798   1.971   4.060 -0.5705 -0.1850  0.4493
14463TIP3   OH264879   3.242   1.498   4.304 -0.4764 -0.4539 -0.2158
14463TIP3    H164880   3.234   1.570   4.241 -0.2818  0.0391  0.3186
14463TIP3    H264881   3.336   1.482   4.311 -0.3174  1.0084  1.6235
14464TIP3   OH264882   1.953   0.812   4.146 -0.2068 -0.1793 -0.0687
14464TIP3    H164883   1.893   0.738   4.138 -1.2059  0.6716 -0.8371
14464TIP3    H264884   1.922   0.861   4.222 -0.6138  0.3646 -0.5781
14465TIP3   OH264885   3.560   0.745  12.741  0.5508  0.3336  0.3150
14465TIP3    H164886   3.609   0.827  12.733 -0.0201  0.5985 -0.7313
14465TIP3    H264887   3.624   0.681  12.774  1.2429  0.9809  0.2518
14466TIP3   OH264888   1.068   4.384  11.473  0.4949 -0.1815 -0.0715
14466TIP3    H164889   1.037   4.327  11.543  0.1544  0.3096  0.1855
14466TIP3    H264890   1.001   4.379  11.406  0.8746 -0.7386 -0.4185
14467TIP3   OH264891   5.577   4.199   3.926  0.3617 -0.1888 -0.5467
14467TIP3    H164892   5.564   4.189   3.832 -0.2593 -1.9226 -0.3118
14467TIP3    H264893   5.501   4.250   3.955 -2.7624 -4.4943 -0.2143
14468TIP3   OH264894   3.407   5.169  16.124  0.2679  0.3288  0.3018
14468TIP3    H164895   3.443   5.089  16.086  1.1669  0.9259 -0.1178
14468TIP3    H264896   3.481   5.229  16.129 -0.5485  1.4031 -0.0892
14469TIP3   OH264897   5.323   2.983  13.963 -0.1504  0.1319  0.2648
14469TIP3    H164898   5.402   3.015  14.006 -0.2336 -0.1238  0.6169
14469TIP3    H264899   5.279   2.931  14.030 -0.1715 -0.4639 -0.2011
14470TIP3   OH264900   4.531   1.964  12.243 -0.0520 -0.3293  0.0252
14470TIP3    H164901   4.439   1.989  12.250 -0.1767 -1.1373  1.8813
14470TIP3    H264902   4.539   1.887  12.299  2.0970  0.7302  1.3025
14471TIP3   OH264903   1.104   5.446   4.460 -0.4071  0.1929 -0.1361
14471TIP3    H164904   1.068   5.519   4.410 -0.7116 -0.3046 -0.6601
14471TIP3    H264905   1.153   5.487   4.531  3.5847  1.1682 -3.0738
14472TIP3   OH264906   2.513   1.957  15.806 -0.0027 -0.0549 -0.4380
14472TIP3    H164907   2.436   2.014  15.808 -0.2752 -0.4162 -0.5642
14472TIP3    H264908   2.482   1.877  15.765  0.5858  0.0121 -1.0318
14473TIP3   OH264909   2.404   1.560   3.886  0.1239  0.2000 -0.0731
14473TIP3    H164910   2.375   1.632   3.942  2.7919 -0.9850  3.1349
14473TIP3    H264911   2.472   1.599   3.831  1.4116  0.2619  1.4972
14474TIP3   OH264912   3.399   6.125  12.539  0.1598  0.1048 -0.6473
14474TIP3    H164913   3.377   6.203  12.590  1.3039  0.8970 -1.3362
14474TIP3    H264914   3.369   6.145  12.450 -1.6049 -1.1749 -0.4033
14475TIP3   OH264915   0.259   0.099   3.346  0.3055  0.2490 -0.5444
14475TIP3    H164916   0.285   0.064   3.431  1.2813 -0.3713 -1.0855
14475TIP3    H264917   0.203   0.032   3.308  0.2449  0.3236 -0.5883
14476TIP3   OH264918   6.666   0.886  15.620 -0.3433 -0.2022 -0.6562
14476TIP3    H164919   6.718   0.965  15.633 -0.2305 -0.4956  0.8533
14476TIP3    H264920   6.621   0.901  15.537  1.0026  0.6889 -1.2708
14477TIP3   OH264921   5.944   1.483   2.135 -0.1369  0.2328  0.1077
14477TIP3    H164922   5.957   1.412   2.197  0.6202 -0.5762 -0.9450
14477TIP3    H264923   5.850   1.503   2.141 -0.3602 -0.8459  0.4189
14478TIP3   OH264924   0.259   2.693  16.662 -0.7639 -0.4336 -0.9907
14478TIP3    H164925   0.253   2.672  16.569 -0.9971 -0.5716 -0.9451
14478TIP3    H264926   0.172   2.727  16.684 -0.2846  0.9538 -1.1511
14479TIP3   OH264927   5.944   5.006   4.982 -0.1979  0.7042 -0.3298
14479TIP3    H164928   5.864   5.010   4.929  0.4277 -0.9971 -1.4959
14479TIP3    H264929   5.933   4.926   5.034 -0.2365  1.6800  1.2193
14480TIP3   OH264930   0.998   4.666   0.836 -0.2066  0.2254 -0.4298
14480TIP3    H164931   0.908   4.634   0.834  0.3665 -1.6392  0.6926
14480TIP3    H264932   1.052   4.587   0.847  1.6392  1.2107 -1.7680
14481TIP3   OH264933   5.822   2.590  14.734 -0.0289 -0.0091 -0.3940
14481TIP3    H164934   5.746   2.556  14.686 -1.1740  0.1524  1.2126
14481TIP3    H264935   5.784   2.652  14.797  1.4864  0.3706  0.1798
14482TIP3   OH264936   4.779   2.197  16.082 -0.4358  0.0031  0.2950
14482TIP3    H164937   4.820   2.132  16.139 -0.2790 -1.4372 -1.3707
14482TIP3    H264938   4.839   2.271  16.084 -0.2377 -0.1745  1.6718
14483TIP3   OH264939   0.451   5.664   1.534 -0.0581  0.0931  0.4251
14483TIP3    H164940   0.473   5.571   1.528 -0.0083 -0.0021  1.6561
14483TIP3    H264941   0.399   5.682   1.456  1.5212 -0.4945 -0.7945
14484TIP3   OH264942   1.920   3.926   3.147 -0.2009 -0.3740 -0.1528
14484TIP3    H164943   1.871   3.896   3.223  0.1142 -0.2189  0.1155
14484TIP3    H264944   1.894   4.017   3.135 -1.0161 -0.6845 -0.8534
14485TIP3   OH264945   0.058   5.809  15.242 -0.1650  0.1729 -0.3675
14485TIP3    H164946   0.004   5.745  15.289 -0.4744  0.9442  0.3646
14485TIP3    H264947   0.148   5.778  15.253 -0.4990 -2.8332 -4.1702
14486TIP3   OH264948   5.111   0.860   1.467  0.6415 -0.2302  0.5156
14486TIP3    H164949   5.137   0.939   1.513  0.7553 -0.9053  1.6449
14486TIP3    H264950   5.016   0.865   1.460  0.7657  0.7575 -0.8623
14487TIP3   OH264951   4.530   5.521  15.962  0.6010  0.1588 -0.7299
14487TIP3    H164952   4.564   5.598  16.007 -0.0396  0.6551 -1.0810
14487TIP3    H264953   4.575   5.520  15.878  0.2405  0.4447 -0.9304
14488TIP3   OH264954   0.708   3.907   3.513 -0.0283 -0.2427  0.1076
14488TIP3    H164955   0.681   3.999   3.504 -1.6550 -0.8332 -1.9057
14488TIP3    H264956   0.757   3.890   3.433  0.2378 -1.1408  0.4587
14489TIP3   OH264957   6.035   2.958  14.002 -0.1924 -0.2650 -0.0355
14489TIP3    H164958   6.084   3.006  14.069  0.3893  0.3520 -0.8686
14489TIP3    H264959   6.102   2.929  13.940 -0.7896 -0.1110 -0.7723
14490TIP3   OH264960   1.335   3.550   3.884  0.1663 -0.3532  0.4439
14490TIP3    H164961   1.393   3.593   3.820 -0.7902  0.4895  0.1094
14490TIP3    H264962   1.299   3.623   3.935 -0.3197 -0.8923  0.8768
14491TIP3   OH264963   5.537   3.279  16.959 -0.6526  0.0708 -0.1419
14491TIP3    H164964   5.487   3.220  16.902 -0.1093 -0.7433  0.2177
14491TIP3    H264965   5.613   3.303  16.906 -0.1204 -0.7281  0.2461
14492TIP3   OH264966   6.579   6.563   3.361 -0.3014  0.2870  0.0136
14492TIP3    H164967   6.495   6.520   3.345  0.4776 -0.9294 -0.9463
14492TIP3    H264968   6.570   6.650   3.323 -1.1689  0.2143  0.0460
14493TIP3   OH264969   4.715   6.298  13.836 -0.0354 -0.5671 -0.5689
14493TIP3    H164970   4.655   6.251  13.777 -1.4328 -0.1473  0.4876
14493TIP3    H264971   4.690   6.269  13.924 -1.5325  2.6996  0.2144
14494TIP3   OH264972   1.705   4.505  12.007 -0.5692  0.6100 -0.4298
14494TIP3    H164973   1.781   4.556  12.034 -0.8771  1.4152 -1.0609
14494TIP3    H264974   1.741   4.430  11.959 -0.1839  1.1319 -0.9574
14495TIP3   OH264975   3.568   5.731   4.158 -0.5093  1.2306 -0.1002
14495TIP3    H164976   3.604   5.643   4.172  0.4606  1.7536  0.8751
14495TIP3    H264977   3.524   5.726   4.073 -1.9094 -0.6510  0.6438
14496TIP3   OH264978   3.682   3.197  15.597  0.2750 -0.0010 -0.3157
14496TIP3    H164979   3.737   3.139  15.545 -1.1696  0.0018 -1.9027
14496TIP3    H264980   3.648   3.262  15.535 -0.4925  0.7808  0.8613
14497TIP3   OH264981   6.282   6.637   1.527 -0.8012  0.2242 -0.0182
14497TIP3    H164982   6.276   6.565   1.464  2.8063 -1.2122  0.9791
14497TIP3    H264983   6.333   6.704   1.482 -1.6092  0.8936  0.0578
14498TIP3   OH264984   6.465   6.702  11.417  0.5984 -0.2337  0.1841
14498TIP3    H164985   6.542   6.727  11.468  1.8235 -0.6132 -1.3926
14498TIP3    H264986   6.440   6.617  11.452 -0.4515  0.8043  2.1210
14499TIP3   OH264987   1.469   6.396   4.533  0.3735  0.2833  0.2030
14499TIP3    H164988   1.559   6.413   4.562  0.4818  1.6038 -0.8039
14499TIP3    H264989   1.461   6.443   4.450 -0.7185 -1.2602 -0.6199
14500TIP3   OH264990   1.376   1.938   3.587  0.4922 -0.0743  0.0152
14500TIP3    H164991   1.342   1.855   3.620 -1.9015  0.9825  0.4168
14500TIP3    H264992   1.449   1.913   3.530  0.6353 -2.3468  1.0854
14501TIP3   OH264993   3.749   4.169  16.796  0.9382  0.4832  0.0593
14501TIP3    H164994   3.780   4.229  16.728 -0.9537  1.2309 -0.2114
14501TIP3    H264995   3.689   4.222  16.848 -0.0307 -0.9245  0.4261
14502TIP3   OH264996   0.973   1.844  11.563 -0.1838  0.0863 -0.1156
14502TIP3    H164997   1.041   1.856  11.630 -1.9115  0.8192  1.5814
14502TIP3    H264998   0.914   1.918  11.576 -2.8184 -1.9650  0.3593
14503TIP3   OH264999   2.295   4.246  12.073  0.2716 -0.3108 -0.8011
14503TIP3    H165000   2.303   4.309  12.144 -0.9818  0.2701 -1.1490
14503TIP3    H265001   2.348   4.283  12.002  0.4605 -0.2247 -0.6150
14504TIP3   OH265002   0.318   3.994  14.573  0.1582  0.7542 -0.1235
14504TIP3    H165003   0.406   3.966  14.548  0.6009  1.8986  0.1113
14504TIP3    H265004   0.295   4.062  14.511 -0.4321  0.7021  0.0299
14505TIP3   OH265005   5.791   6.131   1.849  0.1879 -0.3673 -0.5500
14505TIP3    H165006   5.863   6.190   1.832  0.3557 -0.1295  0.8460
14505TIP3    H265007   5.831   6.056   1.893 -0.1898 -0.9745 -1.2222
14506TIP3   OH265008   3.921   5.495   0.894 -0.3422  0.0808  0.4376
14506TIP3    H165009   3.830   5.522   0.910 -0.3052  1.1848 -0.9427
14506TIP3    H265010   3.946   5.544   0.816  0.5102 -2.3844 -0.9404
14507TIP3   OH265011   0.554   3.437  10.899 -0.1870  0.4298 -0.2514
14507TIP3    H165012   0.468   3.473  10.921 -1.3649 -1.6542 -1.0770
14507TIP3    H265013   0.553   3.430  10.803  1.0983  0.7890 -0.3104
14508TIP3   OH265014   1.616   4.197   2.507  0.1620  0.0739 -0.5799
14508TIP3    H165015   1.596   4.239   2.591 -1.2095 -1.4904 -0.0724
14508TIP3    H265016   1.663   4.117   2.531  0.6222  0.0910 -1.3833
14509TIP3   OH265017   2.672   5.575  10.776 -0.6229 -0.3661 -0.1900
14509TIP3    H165018   2.675   5.490  10.731 -1.1951 -0.9924  0.9287
14509TIP3    H265019   2.634   5.635  10.711  1.1586 -0.5808 -1.5342
14510TIP3   OH265020   6.106   4.145   6.590 -0.3376  0.4500 -0.2411
14510TIP3    H165021   6.153   4.062   6.580 -3.3645 -1.7171  1.7926
14510TIP3    H265022   6.174   4.211   6.585  2.1465 -2.0112 -2.9002
14511TIP3   OH265023   1.287   1.989  12.281  0.4165 -0.1596  0.4934
14511TIP3    H165024   1.291   2.085  12.278  1.0193 -0.1320  1.7342
14511TIP3    H265025   1.335   1.961  12.202 -0.2473  0.5505 -0.1738
14512TIP3   OH265026   3.283   3.597   5.616 -0.4758  0.3539 -0.2547
14512TIP3    H165027   3.260   3.665   5.680 -2.6648  0.0811 -0.6948
14512TIP3    H265028   3.362   3.631   5.573 -0.2698  1.5929  1.0120
14513TIP3   OH265029   2.111   1.130   2.195 -0.0588 -0.1752  0.3080
14513TIP3    H165030   2.135   1.222   2.192 -0.9091  0.0748  0.9503
14513TIP3    H265031   2.119   1.105   2.287  0.4365 -0.8207  0.0992
14514TIP3   OH265032   3.255   3.898  12.239  0.2038 -0.3177 -0.4927
14514TIP3    H165033   3.173   3.852  12.256  0.1505 -0.6255 -1.5213
14514TIP3    H265034   3.322   3.830  12.246  0.3133 -0.1871 -0.2545
14515TIP3   OH265035   5.216   5.510  10.835 -0.3847  0.1066 -0.0731
14515TIP3    H165036   5.221   5.578  10.768 -2.3621 -1.2772 -1.7482
14515TIP3    H265037   5.135   5.529  10.883 -1.2067 -1.2528 -0.8545
14516TIP3   OH265038   1.941   3.040  12.090  0.2001 -0.4098  0.3534
14516TIP3    H165039   1.937   3.135  12.099  0.0993 -0.3809  0.0223
14516TIP3    H265040   2.030   3.017  12.117 -0.0126 -0.3082  1.1725
14517TIP3   OH265041   3.985   0.714  10.667  0.1087  0.0825  0.7044
14517TIP3    H165042   3.910   0.657  10.683 -0.0562  0.2192  0.4253
14517TIP3    H265043   3.998   0.711  10.572  0.9877 -0.6103  0.8384
14518TIP3   OH265044   1.003   4.987  15.706  0.1609 -0.2817  0.9883
14518TIP3    H165045   0.992   4.977  15.611 -0.8049 -2.1723  1.2511
14518TIP3    H265046   0.977   5.078  15.723  0.9901  0.3069 -0.6117
14519TIP3   OH265047   3.139   1.826  15.954  0.5326  0.7464  0.5053
14519TIP3    H165048   3.163   1.887  16.023  0.2458  0.4706  0.8545
14519TIP3    H265049   3.194   1.749  15.970  0.3470  0.6165  0.5322
14520TIP3   OH265050   6.752   0.936   3.744  0.1869 -0.0616 -0.5848
14520TIP3    H165051   6.802   0.868   3.698  2.2205  1.5085 -0.8615
14520TIP3    H265052   6.792   0.940   3.831 -0.5597  0.1287 -0.2472
14521TIP3   OH265053   4.368   3.982   3.087  0.5111 -0.2118  0.4266
14521TIP3    H165054   4.346   4.026   3.004  0.1711  1.6285  1.4387
14521TIP3    H265055   4.285   3.945   3.116 -0.2543  2.2127  1.6363
14522TIP3   OH265056   4.025   0.016   0.488  0.7642  0.0433  0.0605
14522TIP3    H165057   4.010  -0.042   0.562  0.6370 -0.0330 -0.0236
14522TIP3    H265058   4.089   0.080   0.519  2.7892 -1.5860 -0.5908
14523TIP3   OH265059   3.977   4.630   2.370  0.1658  0.5985 -0.0881
14523TIP3    H165060   3.994   4.670   2.455 -0.5304 -0.3028  0.4794
14523TIP3    H265061   3.991   4.702   2.307 -0.6389  1.6312  0.8701
14524TIP3   OH265062   2.313   0.487  16.957  0.2799 -0.0537 -0.0831
14524TIP3    H165063   2.365   0.413  16.925 -1.5534 -1.5111  0.1057
14524TIP3    H265064   2.269   0.452  17.035 -0.4156  1.3468  0.1782
14525TIP3   OH265065   4.207   3.880   2.299  0.3840 -0.6648  0.3565
14525TIP3    H165066   4.245   3.866   2.386 -0.6003  0.0604  0.9241
14525TIP3    H265067   4.131   3.936   2.315  0.3069 -0.3524 -1.0030
14526TIP3   OH265068   2.624   4.000  14.532  0.0080  0.1209  0.1591
14526TIP3    H165069   2.627   3.911  14.567 -1.1769  0.2635  0.7032
14526TIP3    H265070   2.602   4.055  14.607 -5.3613  0.1486 -0.9875
14527TIP3   OH265071   1.024   4.469  13.545 -0.2233  0.4619  0.0640
14527TIP3    H165072   1.034   4.506  13.633  1.2742 -0.3855  0.2782
14527TIP3    H265073   0.964   4.528  13.501  0.6477  2.1038  0.9918
14528TIP3   OH265074   6.081   2.698   2.948  0.1951  0.0463  0.1107
14528TIP3    H165075   6.014   2.765   2.935  1.0266  0.9485  0.3228
14528TIP3    H265076   6.158   2.733   2.904  0.7838 -0.5462  0.6488
14529TIP3   OH265077   1.455   6.047  15.818 -0.7298  0.5831 -0.0820
14529TIP3    H165078   1.548   6.069  15.825 -0.0549 -1.5223 -1.7200
14529TIP3    H265079   1.425   6.041  15.909  0.7010  1.3389  0.4695
14530TIP3   OH265080   6.189   2.090  15.450 -0.1548 -0.9368  0.3746
14530TIP3    H165081   6.104   2.063  15.414  0.1109  1.0402 -2.0031
14530TIP3    H265082   6.248   2.018  15.428 -0.5496 -0.8869 -0.9434
14531TIP3   OH265083   6.400   5.535   5.191  0.4546 -0.3809  0.2085
14531TIP3    H165084   6.483   5.494   5.169 -0.9151 -3.0165 -0.5093
14531TIP3    H265085   6.396   5.535   5.286  0.6407 -1.6854  0.2250
14532TIP3   OH265086   1.263   2.391  14.624 -0.5111 -0.1986  0.1347
14532TIP3    H165087   1.308   2.369  14.542 -0.1140 -1.4078  0.6557
14532TIP3    H265088   1.299   2.476  14.648  2.1676 -1.4540  0.9342
14533TIP3   OH265089   0.105   6.349   1.361 -0.2014 -0.4856  0.0848
14533TIP3    H165090   0.110   6.443   1.382  0.5386 -0.5237  0.1115
14533TIP3    H265091   0.187   6.331   1.315 -0.9789 -0.8064 -1.2247
14534TIP3   OH265092   5.654   3.528  14.722 -0.0879 -0.0890 -0.0246
14534TIP3    H165093   5.668   3.560  14.633 -1.0160 -2.2148 -0.9890
14534TIP3    H265094   5.623   3.438  14.711 -1.5806  0.0439  2.4076
14535TIP3   OH265095   5.226   2.702   3.527 -0.4778  0.2546 -0.9458
14535TIP3    H165096   5.144   2.660   3.499 -1.8674  2.0077  0.2762
14535TIP3    H265097   5.242   2.665   3.614 -1.3818  1.7423 -0.1182
14536TIP3   OH265098   0.268   5.200   0.374  0.4565 -0.0108  0.3471
14536TIP3    H165099   0.217   5.275   0.405 -0.9600 -0.5530 -0.5989
14536TIP3    H265100   0.338   5.239   0.322  0.7267  0.7194  1.2321
14537TIP3   OH265101   0.935   5.140  13.791 -0.4079 -0.4090 -0.3879
14537TIP3    H165102   0.965   5.160  13.702  2.7031  2.5423  1.0909
14537TIP3    H265103   0.953   5.047  13.802  1.2749 -0.3736 -2.1899
14538TIP3   OH265104   0.259   3.145  12.844  0.3259 -0.4109 -0.4242
14538TIP3    H165105   0.189   3.153  12.779  1.4242 -1.4248 -1.7953
14538TIP3    H265106   0.335   3.185  12.801  1.2505 -1.7223 -0.0557
14539TIP3   OH265107   6.515   6.787   1.721 -0.0642 -0.1318 -0.2939
14539TIP3    H165108   6.452   6.790   1.649 -0.0922  1.5759 -0.2245
14539TIP3    H265109   6.554   6.874   1.723 -0.0208 -0.1471  1.7135
14540TIP3   OH265110   6.334   0.917   5.883  0.0516 -0.1500 -0.3133
14540TIP3    H165111   6.287   0.922   5.966 -0.1022 -3.0356 -0.1363
14540TIP3    H265112   6.285   0.976   5.825 -0.2634  1.3783  1.3907
14541TIP3   OH265113   1.368   3.904  17.003  0.0036  0.3234 -0.7961
14541TIP3    H165114   1.293   3.900  16.943  0.6619 -0.3049 -1.6122
14541TIP3    H265115   1.429   3.964  16.961  1.2843 -1.5547 -1.7879
14542TIP3   OH265116   5.098   1.584  15.504  0.1505  0.5217  0.2933
14542TIP3    H165117   5.092   1.488  15.510 -0.1175  0.4866 -0.4164
14542TIP3    H265118   5.186   1.600  15.471  0.0612  0.5003  0.0431
14543TIP3   OH265119   3.356   5.731   5.690  0.1834  0.2982  0.2832
14543TIP3    H165120   3.349   5.646   5.734  0.9127  1.8139  3.6714
14543TIP3    H265121   3.266   5.754   5.668  0.0302 -1.5874 -1.4573
14544TIP3   OH265122   5.950   1.855  15.616  0.3327  0.2454  0.5708
14544TIP3    H165123   5.870   1.840  15.666 -0.9120  1.2641 -1.0360
14544TIP3    H265124   5.923   1.855  15.525  2.4204 -0.8097 -0.1137
14545TIP3   OH265125   2.941   4.466  16.565  0.2888 -0.1257  0.2344
14545TIP3    H165126   2.975   4.377  16.562  1.1642  0.1939  0.3283
14545TIP3    H265127   3.014   4.521  16.536 -0.4671  0.5076 -0.5465
14546TIP3   OH265128   0.200   4.453  11.956 -0.4895 -0.3190  0.3017
14546TIP3    H165129   0.177   4.378  12.011  0.2522  0.6842  2.0471
14546TIP3    H265130   0.168   4.529  12.004  1.2947  0.6790 -0.0014
14547TIP3   OH265131   1.955   6.275   1.255  0.2977 -0.0645 -0.2579
14547TIP3    H165132   2.028   6.334   1.236  1.2005 -0.3378  2.0175
14547TIP3    H265133   1.997   6.193   1.283 -0.8785 -0.4475  0.4675
14548TIP3   OH265134   0.383   4.710   1.561 -0.0249  0.3981 -0.1833
14548TIP3    H165135   0.454   4.701   1.625 -0.0635  2.9127  0.2968
14548TIP3    H265136   0.308   4.739   1.613 -0.6705  0.3515 -1.0793
14549TIP3   OH265137   3.728   5.578  13.338  0.2061 -0.8069 -0.1698
14549TIP3    H165138   3.709   5.569  13.431 -2.7385  0.3144 -0.5774
14549TIP3    H265139   3.724   5.488  13.304 -2.5447 -0.8956  0.2002
14550TIP3   OH265140   1.694   4.673  12.779 -0.1707  0.5178 -0.3568
14550TIP3    H165141   1.715   4.694  12.871  1.4827  2.1526 -1.0288
14550TIP3    H265142   1.777   4.685  12.733 -1.0432  0.0231 -2.1312
14551TIP3   OH265143   0.882   1.999   1.282  0.1698 -0.3827  1.1071
14551TIP3    H165144   0.848   1.923   1.235  0.7951 -1.5069  2.3810
14551TIP3    H265145   0.832   2.000   1.364  0.9649 -0.1501  1.6054
14552TIP3   OH265146   2.734   1.901   4.993  0.3959  0.3552 -0.1979
14552TIP3    H165147   2.742   1.871   5.084  2.2218  1.1221 -0.0517
14552TIP3    H265148   2.740   1.821   4.941  0.1792 -0.0098  0.3221
14553TIP3   OH265149   6.347   4.929  12.596 -0.4143  0.2047 -0.2669
14553TIP3    H165150   6.257   4.898  12.600 -0.6543  0.4007 -2.7942
14553TIP3    H265151   6.359   4.958  12.506  2.5051 -0.8434 -0.3337
14554TIP3   OH265152   0.002   2.015  14.940  0.0846  0.1501  0.2630
14554TIP3    H165153   0.082   1.977  14.977 -0.7455 -0.5246  1.4193
14554TIP3    H265154   0.013   2.109  14.950  0.3078  0.0144  1.3280
14555TIP3   OH265155   0.277   6.082   4.665 -0.0378 -0.2965  0.1075
14555TIP3    H165156   0.233   6.104   4.583 -0.7404  1.3509  0.8689
14555TIP3    H265157   0.370   6.098   4.647  0.0169 -1.4712 -0.7975
14556TIP3   OH265158   6.172   4.447  15.563  0.6134 -0.5197  0.4409
14556TIP3    H165159   6.095   4.494  15.595  0.1628 -0.7760 -0.2541
14556TIP3    H265160   6.160   4.443  15.468  0.9658 -1.4633  0.4257
14557TIP3   OH265161   6.509   0.931   5.016 -0.0131  0.0749  0.0568
14557TIP3    H165162   6.482   0.844   5.048  0.4812 -1.4051 -3.1158
14557TIP3    H265163   6.457   0.944   4.936  4.5940 -0.6528 -3.5380
14558TIP3   OH265164   2.051   2.306   0.082 -0.7359 -0.5963  0.2620
14558TIP3    H165165   2.051   2.379   0.020 -1.8830 -1.2156 -0.5014
14558TIP3    H265166   1.961   2.302   0.114 -0.4296 -1.0187  1.0961
14559TIP3   OH265167   2.217   5.648   3.406  0.2098 -0.1010 -0.5893
14559TIP3    H165168   2.173   5.715   3.459 -1.4243  0.4096 -2.4533
14559TIP3    H265169   2.293   5.622   3.458 -0.2219  1.7543  1.0975
14560TIP3   OH265170   2.072   5.162   3.405 -0.1517 -0.1960 -0.0836
14560TIP3    H165171   2.156   5.116   3.407 -0.9157 -1.6619 -0.6754
14560TIP3    H265172   2.049   5.165   3.313 -0.9227 -0.1081  0.1091
14561TIP3   OH265173   5.702   3.262   1.681  0.0723 -0.3676  0.6360
14561TIP3    H165174   5.732   3.184   1.634 -2.0756 -1.3840  0.8501
14561TIP3    H265175   5.775   3.284   1.739  1.2494 -1.3747 -0.3884
14562TIP3   OH265176   4.795   5.609   3.957  0.3155  0.0233  0.3708
14562TIP3    H165177   4.729   5.593   4.024  0.8286 -0.5611  0.7578
14562TIP3    H265178   4.746   5.611   3.874 -0.2259 -0.0365  0.6867
14563TIP3   OH265179   6.709   4.112  12.249 -0.1946 -0.1202  0.1647
14563TIP3    H165180   6.698   4.124  12.343  1.2325 -0.5223  0.4028
14563TIP3    H265181   6.763   4.034  12.241 -1.4440 -0.9034 -1.0537
14564TIP3   OH265182   0.034   4.375  13.244 -0.3452 -0.2610 -0.0693
14564TIP3    H165183   0.007   4.406  13.331 -1.5144  1.0849 -0.8774
14564TIP3    H265184   0.082   4.448  13.206 -0.9735 -0.3488 -1.0574
14565TIP3   OH265185   1.148   3.404  10.577  0.3565  0.3184 -0.0374
14565TIP3    H165186   1.068   3.372  10.619 -0.8135  4.2698  1.2208
14565TIP3    H265187   1.119   3.442  10.495  1.1952  0.4856 -0.2679
14566TIP3   OH265188   4.135   5.712  14.721  0.8829 -0.0186  0.3575
14566TIP3    H165189   4.206   5.776  14.716  1.3739 -0.6175 -0.4737
14566TIP3    H265190   4.073   5.740  14.654  0.6253  0.1480  0.6631
14567TIP3   OH265191   0.854   4.151   2.875 -0.1991 -0.5561 -0.1309
14567TIP3    H165192   0.907   4.077   2.844 -0.0980  0.4527 -2.5984
14567TIP3    H265193   0.912   4.198   2.935  0.8340 -0.8316 -0.8735
14568TIP3   OH265194   3.055   5.055  14.526  0.0903 -0.3950 -0.1591
14568TIP3    H165195   3.006   5.104  14.592 -0.3078  0.8166 -1.3098
14568TIP3    H265196   3.068   5.117  14.455  2.6106 -0.9359 -0.2399
14569TIP3   OH265197   2.754   3.653   6.248  0.1520 -0.2279 -0.0390
14569TIP3    H165198   2.693   3.647   6.322  0.0934 -0.3220 -0.0954
14569TIP3    H265199   2.715   3.719   6.191 -0.5424 -1.1684 -0.6803
14570TIP3   OH265200   6.624   0.482   1.820 -0.0211  0.5919  0.6152
14570TIP3    H165201   6.609   0.439   1.736  1.1484 -0.9352  1.1303
14570TIP3    H265202   6.547   0.462   1.872  0.7288 -1.4559  1.0304
14571TIP3   OH265203   0.387   6.018  16.002  0.1704 -0.3914 -0.2185
14571TIP3    H165204   0.378   6.111  16.021 -0.4273 -0.7113  1.1766
14571TIP3    H265205   0.327   5.975  16.062  1.5779 -1.7740  0.2663
14572TIP3   OH265206   4.111   2.251   3.755  0.5666  0.4673 -0.4880
14572TIP3    H165207   4.180   2.309   3.790  0.4062  1.3487 -1.5922
14572TIP3    H265208   4.114   2.264   3.661 -0.8963  0.2522 -0.5847
14573TIP3   OH265209   4.177   5.346   3.734  0.6813 -0.6415  0.4519
14573TIP3    H165210   4.108   5.364   3.671  0.6322 -0.3352  0.5932
14573TIP3    H265211   4.173   5.251   3.747  1.6110 -0.9394 -1.0685
14574TIP3   OH265212   4.816   0.108   5.374 -0.1792 -0.1718  0.1514
14574TIP3    H165213   4.772   0.025   5.392 -0.3294 -0.1069  0.0817
14574TIP3    H265214   4.827   0.148   5.460 -3.2361  1.3405 -0.0408
14575TIP3   OH265215   4.400   2.732   0.301 -0.6733 -0.3805 -0.0051
14575TIP3    H165216   4.462   2.675   0.347 -2.2528 -1.4690  0.8873
14575TIP3    H265217   4.417   2.819   0.336 -0.3204 -0.8295  0.9828
14576TIP3   OH265218   6.173   4.365   3.158 -0.2615  0.2737 -0.4566
14576TIP3    H165219   6.201   4.389   3.070  0.5434 -0.7434 -0.5079
14576TIP3    H265220   6.255   4.347   3.205 -0.7362 -0.6713  0.0462
14577TIP3   OH265221   4.379   0.993  14.304 -0.3953  0.1941 -0.1923
14577TIP3    H165222   4.403   1.006  14.396 -1.1925 -2.1249  0.4099
14577TIP3    H265223   4.368   1.081  14.269 -0.0139  1.1294  1.9135
14578TIP3   OH265224   0.027   2.798   2.308  0.1288  0.2470  0.0330
14578TIP3    H165225  -0.036   2.797   2.236 -0.4125 -1.1410  0.4883
14578TIP3    H265226   0.024   2.709   2.344 -0.0732  1.0409  2.1524
14579TIP3   OH265227   3.471   2.299   0.706  0.1143  0.2308 -0.0425
14579TIP3    H165228   3.556   2.342   0.717 -0.3371  0.7185  2.0010
14579TIP3    H265229   3.425   2.352   0.641  0.5977  1.2272  0.4046
14580TIP3   OH265230   5.930   3.900  12.662 -0.0689 -0.8091 -0.4757
14580TIP3    H165231   5.985   3.979  12.664 -0.3783 -0.5992  0.1288
14580TIP3    H265232   5.841   3.933  12.671 -0.1031 -1.2972  1.5125
14581TIP3   OH265233   3.735   2.525  12.046  0.1994 -0.1967  0.7413
14581TIP3    H165234   3.726   2.539  11.952 -1.8523 -1.8711  0.6253
14581TIP3    H265235   3.767   2.435  12.054  0.3338 -0.0785  1.6478
14582TIP3   OH265236   6.288   5.217  11.226 -0.4608 -0.3033 -0.1764
14582TIP3    H165237   6.278   5.228  11.132 -2.1241 -1.9310 -0.2487
14582TIP3    H265238   6.347   5.142  11.235  0.3454  0.3569  0.0987
14583TIP3   OH265239   0.835   2.415   2.009  0.0394  0.1190 -0.3792
14583TIP3    H165240   0.888   2.494   2.019  0.9098 -0.4827 -0.0291
14583TIP3    H265241   0.792   2.425   1.925  0.2220  0.9187 -0.3874
14584TIP3   OH265242   2.114   0.788  13.973  0.1958 -0.3983  0.5545
14584TIP3    H165243   2.115   0.736  13.893  0.1525 -0.8966  0.8756
14584TIP3    H265244   2.094   0.877  13.944  0.9710 -0.4200 -0.0737
14585TIP3   OH265245   5.646   1.298  12.074  1.2089 -0.4079  0.7098
14585TIP3    H165246   5.642   1.383  12.118  0.6584 -1.6731  3.2652
14585TIP3    H265247   5.600   1.312  11.991  0.2701  1.5515  1.5055
14586TIP3   OH265248   5.236   2.120   1.524 -0.4060 -0.2721  0.1175
14586TIP3    H165249   5.278   2.049   1.475  0.7296  1.0837 -0.9791
14586TIP3    H265250   5.150   2.129   1.483  0.3669  0.5580 -1.4431
14587TIP3   OH265251   3.538   5.924  15.246 -0.0038  0.0422  0.2187
14587TIP3    H165252   3.479   5.962  15.181  0.6101 -0.8879 -0.9377
14587TIP3    H265253   3.623   5.964  15.227 -0.1926  1.2708  1.7771
14588TIP3   OH265254   4.932   3.808   3.868  0.9593 -0.2768 -0.2858
14588TIP3    H165255   4.986   3.767   3.936  0.9549  2.1544  1.3096
14588TIP3    H265256   4.842   3.782   3.890  1.0347 -0.1881  0.1396
14589TIP3   OH265257   2.870   6.260   1.491  0.1198 -0.6478 -0.6407
14589TIP3    H165258   2.924   6.323   1.443 -1.5427  2.2935  1.0519
14589TIP3    H265259   2.931   6.217   1.551  1.0239  0.8093 -0.4643
14590TIP3   OH265260   3.767   3.814  11.750 -0.1500 -0.2102  0.3454
14590TIP3    H165261   3.719   3.832  11.831  0.2444 -1.9974  1.0263
14590TIP3    H265262   3.844   3.870  11.755 -0.4684  0.1867  0.8926
14591TIP3   OH265263   4.982   3.711   4.457  0.0570 -0.0438 -0.3285
14591TIP3    H165264   4.893   3.675   4.455  0.1778 -0.4161  0.5438
14591TIP3    H265265   4.974   3.792   4.507  0.6403 -1.4725  2.3210
14592TIP3   OH265266   3.286   4.802  12.086  0.3440  0.1869  0.3659
14592TIP3    H165267   3.313   4.888  12.118  1.2671 -0.2119  0.6647
14592TIP3    H265268   3.315   4.800  11.994 -0.6518  0.6030  0.0213
14593TIP3   OH265269   0.188   6.104   2.384  0.0131  0.0712  0.0539
14593TIP3    H165270   0.231   6.025   2.417 -2.9456 -1.3922  0.6793
14593TIP3    H265271   0.213   6.172   2.447 -0.1794 -1.1748  1.5451
14594TIP3   OH265272   3.729   1.821  11.980 -0.5737 -0.9476  0.3046
14594TIP3    H165273   3.688   1.748  11.933  0.4003 -0.4494 -1.4249
14594TIP3    H265274   3.796   1.779  12.035 -0.6507 -1.4315  0.0396
14595TIP3   OH265275   6.050   6.084  10.950  0.3705  0.5591  0.6368
14595TIP3    H165276   6.049   6.178  10.933  0.8891  0.5830  0.7238
14595TIP3    H265277   6.016   6.045  10.869 -1.3740  0.8852  1.1618
14596TIP3   OH265278   5.496   4.007  13.546  0.4151  0.3805  0.2789
14596TIP3    H165279   5.512   3.924  13.592  1.1986  0.1744 -0.3349
14596TIP3    H265280   5.401   4.014  13.540  0.2162 -2.5485 -3.2509
14597TIP3   OH265281   1.156   3.689  16.206 -0.1100 -0.1378  0.3443
14597TIP3    H165282   1.151   3.774  16.161  0.4167  0.2534  0.9922
14597TIP3    H265283   1.216   3.705  16.279 -0.2722 -0.9877  0.6709
14598TIP3   OH265284   4.009   2.629   4.677  0.0229 -0.4278 -0.3144
14598TIP3    H165285   3.970   2.610   4.762 -1.8604  2.0240 -0.5126
14598TIP3    H265286   3.934   2.633   4.617  0.8842  1.3664 -1.3456
14599TIP3   OH265287   3.293   5.431   2.093 -0.2909 -0.5831 -0.2684
14599TIP3    H165288   3.211   5.438   2.142  0.1026  1.3830  0.2146
14599TIP3    H265289   3.278   5.485   2.015  0.9793  1.0748  0.5498
14600TIP3   OH265290   6.478   5.877  13.223  0.0883 -0.4577  0.6769
14600TIP3    H165291   6.463   5.881  13.129 -1.8650 -2.8583  0.7835
14600TIP3    H265292   6.440   5.958  13.257  0.1786  0.1041 -0.5128
14601TIP3   OH265293   6.071   2.139  16.923  0.2722  0.1835  0.6858
14601TIP3    H165294   6.062   2.162  16.831  1.4128  2.5793  1.1081
14601TIP3    H265295   6.164   2.122  16.934  0.1614  0.0330  1.4291
14602TIP3   OH265296   3.178   5.731  14.283 -0.7430 -0.5951  0.3949
14602TIP3    H165297   3.250   5.717  14.222 -1.4474  0.5272 -0.7560
14602TIP3    H265298   3.180   5.825  14.301 -2.4469 -0.3654 -0.3978
14603TIP3   OH265299   1.015   1.843  12.921  0.6511  0.3181 -0.0430
14603TIP3    H165300   0.985   1.769  12.868  0.5588 -0.9136  1.6302
14603TIP3    H265301   1.089   1.878  12.873  1.2977 -1.4771 -0.4446
14604TIP3   OH265302   1.987   6.712  15.125 -0.5850  0.6510  0.5660
14604TIP3    H165303   1.930   6.783  15.096  0.3479  1.2562  0.1740
14604TIP3    H265304   2.064   6.718  15.069  0.3744  0.5645  1.8344
14605TIP3   OH265305   4.897   5.463  13.938 -0.0202  0.2195  0.0902
14605TIP3    H165306   4.926   5.477  14.029 -0.0156 -1.1653  0.3129
14605TIP3    H265307   4.975   5.481  13.885  0.3016 -0.1025  0.4447
14606TIP3   OH265308   4.394   0.141   5.161  0.1583  0.2457  0.5369
14606TIP3    H165309   4.454   0.195   5.212  1.6793 -2.1783  1.4952
14606TIP3    H265310   4.315   0.136   5.214 -0.1707  1.8223  0.2283
14607TIP3   OH265311   3.128   6.058  12.042 -0.8199  0.7972  0.0866
14607TIP3    H165312   3.202   6.107  12.006 -0.3134 -0.8261 -1.2343
14607TIP3    H265313   3.058   6.123  12.052  1.1437  2.7061  2.7875
14608TIP3   OH265314   1.365   4.154   2.393 -0.1063 -0.2759  0.7426
14608TIP3    H165315   1.303   4.226   2.408  0.2216  0.3314 -0.7002
14608TIP3    H265316   1.445   4.181   2.438 -0.9755 -1.2881  3.0466
14609TIP3   OH265317   1.386   4.764   0.517 -0.2709  0.0336 -0.4467
14609TIP3    H165318   1.378   4.706   0.441 -0.3628 -0.3066 -0.1812
14609TIP3    H265319   1.300   4.805   0.525 -0.2486  0.1005 -0.5508
14610TIP3   OH265320   6.291   2.914   0.104 -0.1096 -0.1639 -0.2625
14610TIP3    H165321   6.298   2.992   0.050 -0.0835 -0.5146 -0.7658
14610TIP3    H265322   6.228   2.937   0.172  1.3171  0.9612  0.7482
14611TIP3   OH265323   5.470   0.789   0.784  1.0364 -0.0231  0.8261
14611TIP3    H165324   5.554   0.777   0.828  1.1195  0.9468  0.9519
14611TIP3    H265325   5.444   0.878   0.806  0.0136 -0.2827  0.7096
14612TIP3   OH265326   5.713   5.540   5.416  0.2330 -0.1855  0.0311
14612TIP3    H165327   5.727   5.629   5.449 -0.8386 -0.1424  0.4040
14612TIP3    H265328   5.634   5.510   5.461 -0.1261 -0.8690 -1.0232
14613TIP3   OH265329   5.811   5.226   5.143 -0.1246  0.4017  0.0773
14613TIP3    H165330   5.838   5.139   5.114 -3.7972 -0.8299 -0.2734
14613TIP3    H265331   5.847   5.235   5.231  2.9096 -0.0460 -1.0095
14614TIP3   OH265332   5.299   0.556  15.337 -0.5507 -0.1776 -0.2946
14614TIP3    H165333   5.380   0.551  15.388  0.1113 -3.4555 -1.4564
14614TIP3    H265334   5.235   0.592  15.399  1.2502  0.4071  1.3529
14615TIP3   OH265335   3.205   5.196   1.641  0.5642  0.3088 -0.6830
14615TIP3    H165336   3.238   5.133   1.577  1.8822 -1.5782  1.6913
14615TIP3    H265337   3.111   5.180   1.644  0.7091 -0.6759 -1.0010
14616TIP3   OH265338   3.651   1.793  15.870 -0.0549 -0.5367  0.2285
14616TIP3    H165339   3.647   1.784  15.775 -3.8888  0.4036  0.1065
14616TIP3    H265340   3.651   1.703  15.903  2.3962 -0.8977 -0.5515
14617TIP3   OH265341   6.482   6.117  15.106  0.5841 -0.3055  0.0207
14617TIP3    H165342   6.488   6.171  15.186  2.0432  0.0621 -0.3176
14617TIP3    H265343   6.397   6.141  15.069 -0.2211 -0.6292  1.5529
14618TIP3   OH265344   0.068   0.767   5.584 -0.3538  0.3054  0.0894
14618TIP3    H165345   0.054   0.856   5.552  2.7174  0.3637 -1.5414
14618TIP3    H265346   0.090   0.778   5.677  1.8099  1.5864 -0.4830
14619TIP3   OH265347   2.867   2.389  12.537  0.6217  0.7014 -0.1094
14619TIP3    H165348   2.930   2.428  12.597  0.9272  1.9353 -1.1729
14619TIP3    H265349   2.876   2.440  12.456 -0.1887 -0.5146 -1.0136
14620TIP3   OH265350   0.878   1.155   4.083  0.3191 -0.3791  0.6587
14620TIP3    H165351   0.795   1.181   4.043 -0.4637 -2.1273  1.0256
14620TIP3    H265352   0.854   1.127   4.171  1.1149 -1.8433  0.4443
14621TIP3   OH265353   3.428   0.533   3.887  0.1692  0.2371  0.0118
14621TIP3    H165354   3.411   0.521   3.980 -0.3225  0.7577 -0.0067
14621TIP3    H265355   3.523   0.536   3.880  0.2921 -1.5453  0.2704
14622TIP3   OH265356   1.762   1.408  17.084  0.0203 -0.3346 -0.0683
14622TIP3    H165357   1.796   1.428  16.997 -0.2294 -0.3395 -0.1691
14622TIP3    H265358   1.748   1.313  17.083 -1.1168 -0.1834 -0.4441
14623TIP3   OH265359   0.910   5.975   2.575  0.2043 -0.0574  0.2772
14623TIP3    H165360   0.984   5.961   2.517 -0.1528 -2.6357  0.3258
14623TIP3    H265361   0.850   6.029   2.525  0.4750 -1.1254 -1.2720
14624TIP3   OH265362   4.940   6.005   5.567  0.4215 -0.6816  0.0952
14624TIP3    H165363   4.867   5.945   5.582 -0.4833  0.1743 -0.7116
14624TIP3    H265364   4.986   6.009   5.651 -1.7293  0.4160  1.2998
14625TIP3   OH265365   2.207   6.470   4.641  0.3462 -0.0725  0.2759
14625TIP3    H165366   2.280   6.530   4.625 -1.0426  1.2978 -1.4665
14625TIP3    H265367   2.163   6.506   4.718 -1.1486  1.9805 -1.4219
14626TIP3   OH265368   0.280   6.347  12.754  0.2043  0.0689  0.1970
14626TIP3    H165369   0.272   6.258  12.787 -1.1657 -0.0190 -0.2949
14626TIP3    H265370   0.363   6.379  12.789  1.1533 -1.6939 -0.3385
14627TIP3   OH265371   5.033   3.176  17.035 -0.2202  0.2182  0.3356
14627TIP3    H165372   4.945   3.184  16.999 -0.1911 -1.2706 -0.1252
14627TIP3    H265373   5.041   3.084  17.061  0.9912  0.4612  0.9010
14628TIP3   OH265374   0.244   2.425   1.225  0.1290  0.4261 -0.0268
14628TIP3    H165375   0.180   2.371   1.178  1.4315 -0.9927 -0.2554
14628TIP3    H265376   0.301   2.460   1.156  0.9673 -0.1952  0.3370
14629TIP3   OH265377   3.443   2.633   3.389 -0.0308  0.1054 -0.4492
14629TIP3    H165378   3.375   2.638   3.456 -1.1305  2.2332 -1.6030
14629TIP3    H265379   3.493   2.714   3.400 -1.4037  1.4964 -3.2383
14630TIP3   OH265380   1.617   2.292   2.157  0.1967  0.8766 -0.1799
14630TIP3    H165381   1.570   2.369   2.124  3.2890  3.1904  0.3128
14630TIP3    H265382   1.612   2.300   2.252  0.9106  0.7598 -0.1237
14631TIP3   OH265383   6.207   5.338  15.343  0.0147 -0.7769 -0.0243
14631TIP3    H165384   6.133   5.381  15.300  0.8716 -0.5998 -1.3541
14631TIP3    H265385   6.230   5.397  15.415 -0.0455  0.0272 -0.6559
14632TIP3   OH265386   0.522   2.649   0.403  0.0650  0.0319 -0.2390
14632TIP3    H165387   0.549   2.723   0.350  0.6655 -0.0426 -0.0466
14632TIP3    H265388   0.564   2.664   0.488  0.2426 -0.5571 -0.2185
14633TIP3   OH265389   2.554   6.658  15.126  0.1848  0.0172  0.0552
14633TIP3    H165390   2.636   6.667  15.175  0.4756 -1.9701  0.0220
14633TIP3    H265391   2.570   6.584  15.067 -0.6284  1.4501 -2.0803
14634TIP3   OH265392   6.310   5.264   5.125 -0.1117  0.6287 -0.1538
14634TIP3    H165393   6.264   5.348   5.129 -1.0119  0.1095  1.1390
14634TIP3    H265394   6.401   5.287   5.106 -0.0358  2.0448  1.6166
14635TIP3   OH265395   4.266   0.703  10.687  0.1068  0.6699 -0.3407
14635TIP3    H165396   4.175   0.733  10.682  0.1798  0.6976 -2.5663
14635TIP3    H265397   4.275   0.669  10.776 -2.1956  0.3232 -0.1632
14636TIP3   OH265398   0.411   3.962  11.701 -0.1773 -0.2293  0.2468
14636TIP3    H165399   0.403   4.009  11.784 -2.3565 -0.7409  0.3860
14636TIP3    H265400   0.399   3.870  11.724 -0.9459 -0.3635 -0.6283
14637TIP3   OH265401   6.148   2.574   1.388 -0.3718 -0.1373  0.2270
14637TIP3    H165402   6.078   2.537   1.335  0.7646 -0.6473 -0.9629
14637TIP3    H265403   6.162   2.511   1.458 -0.3118 -0.6138 -0.2092
14638TIP3   OH265404   3.622   2.830   1.309  0.2725  0.7407  0.1048
14638TIP3    H165405   3.685   2.893   1.272  0.0047  1.7658  1.3260
14638TIP3    H265406   3.546   2.883   1.332 -0.1825 -0.1270  0.6399
14639TIP3   OH265407   2.578   2.032   5.280  0.6397 -0.4426 -0.1786
14639TIP3    H165408   2.575   1.936   5.279  0.9856 -0.4540 -0.6866
14639TIP3    H265409   2.671   2.053   5.281  0.5614 -0.1129  0.1105
14640TIP3   OH265410   6.259   3.681  12.803 -0.5459 -0.2394  0.0068
14640TIP3    H165411   6.348   3.651  12.789 -0.0307  1.2540 -0.1080
14640TIP3    H265412   6.205   3.602  12.796  0.9011 -1.4842  1.8620
14641TIP3   OH265413   1.712   4.872   3.767 -0.0102 -0.4507 -0.2668
14641TIP3    H165414   1.798   4.878   3.726 -0.0230 -0.4539 -0.2943
14641TIP3    H265415   1.660   4.818   3.707  0.0502 -0.6781 -0.1126
14642TIP3   OH265416   5.821   6.688   1.413  0.2615  0.3226  0.4131
14642TIP3    H165417   5.762   6.732   1.351  1.7510 -0.1055 -1.3964
14642TIP3    H265418   5.908   6.698   1.375  1.1247 -0.8521  1.9566
14643TIP3   OH265419   2.824   2.635   5.660 -0.1892 -0.2259  0.6334
14643TIP3    H165420   2.869   2.718   5.673  0.3969 -0.2782 -0.8936
14643TIP3    H265421   2.760   2.631   5.731 -1.3905  2.3216 -0.1898
14644TIP3   OH265422   4.164   1.390   5.750 -0.4994 -0.0664  0.2793
14644TIP3    H165423   4.193   1.346   5.670 -0.7548 -1.4818  0.9532
14644TIP3    H265424   4.199   1.479   5.741 -1.2635  0.0779 -1.8005
14645TIP3   OH265425   0.250   2.057  14.665  0.4596 -0.3501  0.3816
14645TIP3    H165426   0.223   2.059  14.573 -0.9435 -1.4982  0.7480
14645TIP3    H265427   0.235   1.967  14.693  2.6093 -0.5062  1.2732
14646TIP3   OH265428   1.817   6.470   6.445  0.3656  0.4467  0.5272
14646TIP3    H165429   1.762   6.417   6.502  0.4336 -0.7162 -0.4494
14646TIP3    H265430   1.774   6.556   6.443  0.7319  0.7425  2.8235
14647TIP3   OH265431   4.276   3.232  13.850 -0.5015 -0.1099  0.5870
14647TIP3    H165432   4.212   3.277  13.795 -1.7530  0.2592  2.2507
14647TIP3    H265433   4.341   3.300  13.871  0.0834 -0.3052 -0.5610
14648TIP3   OH265434   0.357   2.579  16.904  0.6559  0.0584 -0.1814
14648TIP3    H165435   0.336   2.618  16.819  0.2019 -0.9523 -0.5541
14648TIP3    H265436   0.290   2.512  16.917  1.5527 -0.7767  0.3070
14649TIP3   OH265437   5.632   5.563   5.161  0.4859  0.0668 -0.1085
14649TIP3    H165438   5.597   5.475   5.146  0.3034  0.0488  0.3980
14649TIP3    H265439   5.656   5.563   5.253  1.0360  0.3580 -0.2519
14650TIP3   OH265440   3.476   2.421  14.437 -0.3760  0.1256 -0.8336
14650TIP3    H165441   3.411   2.445  14.503  0.3022  1.6514 -0.6599
14650TIP3    H265442   3.458   2.481  14.364  0.8609  0.6097 -0.7563
14651TIP3   OH265443   1.284   4.893  14.998 -0.4832  0.2987 -0.2051
14651TIP3    H165444   1.273   4.799  15.010  1.0159 -0.2238 -2.3898
14651TIP3    H265445   1.358   4.917  15.054 -0.2375 -0.0047 -0.4028
14652TIP3   OH265446   0.479   6.529   5.700  0.5136  0.0737  0.2440
14652TIP3    H165447   0.385   6.528   5.718  0.4124 -3.2234  0.2940
14652TIP3    H265448   0.499   6.439   5.674  4.0940 -0.0968  2.7690
14653TIP3   OH265449   0.352   3.817  16.818 -0.1511 -0.1324 -0.5567
14653TIP3    H165450   0.376   3.729  16.790 -0.6286 -1.0769  1.7178
14653TIP3    H265451   0.348   3.811  16.914  0.5095  2.5644 -0.2786
14654TIP3   OH265452   5.829   4.225   2.128  0.3006 -0.8107 -0.3581
14654TIP3    H165453   5.859   4.140   2.161 -1.6754 -0.9723  1.1805
14654TIP3    H265454   5.766   4.255   2.193 -0.9530  0.6471 -2.1585
14655TIP3   OH265455   2.962   2.624  14.583 -0.3456 -0.5315  0.1852
14655TIP3    H165456   2.993   2.616  14.674  1.5653  1.0961 -0.2328
14655TIP3    H265457   2.892   2.689  14.588  0.4669  0.3497  0.3850
14656TIP3   OH265458   1.258   2.941  12.182  0.8791 -0.2602  0.0407
14656TIP3    H165459   1.163   2.938  12.196  0.9128  0.6056  0.5115
14656TIP3    H265460   1.274   3.027  12.144  1.6039  0.0363  0.9843
14657TIP3   OH265461   1.843   1.864  13.431  0.6977  0.5810 -0.2882
14657TIP3    H165462   1.873   1.788  13.481  0.6178 -0.0056 -1.1145
14657TIP3    H265463   1.836   1.934  13.496  0.9830 -0.0570  0.4459
14658TIP3   OH265464   3.380   0.939  11.852 -0.1857  0.0816  0.0070
14658TIP3    H165465   3.392   0.955  11.758 -1.5396  2.2347  0.1418
14658TIP3    H265466   3.465   0.961  11.890 -0.0288  0.5571 -0.5865
14659TIP3   OH265467   5.477   3.212  12.200  0.2559 -0.0958  0.1873
14659TIP3    H165468   5.421   3.184  12.127  0.6679  0.7379 -0.4704
14659TIP3    H265469   5.436   3.176  12.278 -0.9309  0.0888 -0.3348
14660TIP3   OH265470   2.917   6.014  11.651 -0.2391 -0.0854 -0.0050
14660TIP3    H165471   2.845   6.057  11.604 -0.0968 -1.3371 -1.4458
14660TIP3    H265472   2.974   5.980  11.582  1.0445 -0.2918  1.1029
14661TIP3   OH265473   0.034   3.637  16.388  0.5471 -0.4138  0.1520
14661TIP3    H165474  -0.047   3.674  16.421  0.8858  1.4521 -0.9974
14661TIP3    H265475   0.100   3.662  16.453  0.6743  0.4896 -0.3246
14662TIP3   OH265476   1.557   5.735   3.520 -0.1678  0.2826 -0.3282
14662TIP3    H165477   1.652   5.741   3.530 -0.0131 -0.5254 -1.1568
14662TIP3    H265478   1.536   5.801   3.453 -0.0671 -0.1070 -0.7522
14663TIP3   OH265479   0.500   6.232   2.252  0.3608 -0.5471  0.3253
14663TIP3    H165480   0.576   6.286   2.275 -0.2360 -0.2105  1.6299
14663TIP3    H265481   0.429   6.267   2.306 -1.1644  0.2110 -2.0351
14664TIP3   OH265482   3.104   1.900   2.796 -0.1739 -0.0894  0.6856
14664TIP3    H165483   3.046   1.951   2.853 -1.3951 -0.2136 -0.3799
14664TIP3    H265484   3.104   1.947   2.713  1.3437 -0.0666  0.6708
14665TIP3   OH265485   5.648   5.412   4.482 -0.0013  0.9081 -0.0203
14665TIP3    H165486   5.710   5.427   4.411 -0.3594  0.8441 -0.3471
14665TIP3    H265487   5.696   5.358   4.545  0.5608  1.5807  0.1339
14666TIP3   OH265488   1.982   5.815   0.367  0.3153  0.1145 -0.0571
14666TIP3    H165489   1.944   5.847   0.285  1.0750  0.6214 -0.2250
14666TIP3    H265490   1.989   5.893   0.422 -0.3152 -0.2475  0.5494
14667TIP3   OH265491   3.213   6.072  14.781 -0.8855 -0.3506 -0.2243
14667TIP3    H165492   3.200   6.108  14.868  0.6854 -2.5706  1.0201
14667TIP3    H265493   3.248   5.985  14.796 -1.7683 -1.3093 -3.0903
14668TIP3   OH265494   0.694   0.942  16.851  0.0019  0.5341  0.0295
14668TIP3    H165495   0.693   0.871  16.915 -0.4691  1.0889  0.6502
14668TIP3    H265496   0.774   0.927  16.801  0.8783  0.6257  1.3603
14669TIP3   OH265497   1.819   0.936  12.689 -0.5109  0.2708 -0.5453
14669TIP3    H165498   1.768   0.884  12.627 -1.7062  1.8601 -0.9597
14669TIP3    H265499   1.910   0.918  12.667 -0.9010 -0.9838 -1.2074
14670TIP3   OH265500   5.435   6.591   0.167  0.0404 -0.0411 -0.2668
14670TIP3    H165501   5.524   6.572   0.135  0.1837 -1.1642  0.7034
14670TIP3    H265502   5.402   6.506   0.197 -2.3315 -0.1407 -2.8219
14671TIP3   OH265503   3.099   2.691  11.080 -0.9296  0.2150 -0.3610
14671TIP3    H165504   3.107   2.634  11.004  2.7973  1.2111 -0.9240
14671TIP3    H265505   3.080   2.778  11.043 -0.4685  0.4535 -0.0489
14672TIP3   OH265506   4.277   5.811  10.763  0.5281 -0.5142  0.0217
14672TIP3    H165507   4.279   5.728  10.714 -0.8779 -0.0732 -0.8455
14672TIP3    H265508   4.196   5.853  10.735  0.3115  0.3559  1.7942
14673TIP3   OH265509   3.724   2.601  11.778 -0.3444 -0.2862  0.1042
14673TIP3    H165510   3.635   2.596  11.742 -0.4824 -0.0731  0.4195
14673TIP3    H265511   3.780   2.606  11.700 -0.5459 -1.2432 -0.1225
14674TIP3   OH265512   2.937   2.155  13.997  0.0435  0.0446 -0.1030
14674TIP3    H165513   2.845   2.133  14.009 -0.4623  1.6678 -0.6786
14674TIP3    H265514   2.980   2.129  14.078 -1.0583 -0.0502  0.4582
14675TIP3   OH265515   5.510   5.395   2.594  0.2139  0.2633 -0.0415
14675TIP3    H165516   5.541   5.305   2.584 -1.5023 -0.1999 -1.8363
14675TIP3    H265517   5.589   5.446   2.612  1.3731 -1.4335 -0.1144
14676TIP3   OH265518   0.661   2.808   0.829  0.1292  0.3906 -0.5026
14676TIP3    H165519   0.609   2.887   0.845  1.4135  0.9620  1.1599
14676TIP3    H265520   0.651   2.756   0.908  0.7039 -0.2944 -0.8648
14677TIP3   OH265521   1.996   4.366  14.276 -0.6296 -0.2720  0.0093
14677TIP3    H165522   1.908   4.403  14.283 -0.2953  0.2459  2.3023
14677TIP3    H265523   1.986   4.290  14.219 -2.0286  1.2202 -1.8799
14678TIP3   OH265524   5.564   6.074   1.463 -0.2456 -0.5230  0.1349
14678TIP3    H165525   5.544   6.134   1.391 -1.2782 -1.0964 -0.0763
14678TIP3    H265526   5.625   6.123   1.518 -0.4304  0.4116 -0.4562
14679TIP3   OH265527   2.194   1.890   0.237 -0.0459 -0.1733  0.6746
14679TIP3    H165528   2.184   1.985   0.228 -1.1194 -0.3179  0.2575
14679TIP3    H265529   2.238   1.863   0.156 -1.1173 -0.2205  0.0931
14680TIP3   OH265530   5.444   4.808   1.929 -0.3424 -0.9485 -0.2634
14680TIP3    H165531   5.429   4.725   1.884 -1.7364 -0.4953 -0.6883
14680TIP3    H265532   5.383   4.807   2.003 -0.2735 -0.3632 -0.1933
14681TIP3   OH265533   2.092   4.298   6.511 -0.1783 -0.5890  0.4615
14681TIP3    H165534   2.149   4.375   6.500 -0.8326 -0.1642 -0.0133
14681TIP3    H265535   2.008   4.325   6.474  0.1469 -2.2245 -1.6109
14682TIP3   OH265536   3.821   3.608  11.566  0.8753 -0.2500 -0.4374
14682TIP3    H165537   3.916   3.610  11.577  0.7870 -0.7032  0.5734
14682TIP3    H265538   3.788   3.665  11.635  0.2877 -3.0001  1.7399
14683TIP3   OH265539   6.701   4.126   2.201  0.1457  0.4016 -0.2191
14683TIP3    H165540   6.773   4.105   2.141  0.4175  0.0937  0.2089
14683TIP3    H265541   6.688   4.220   2.190 -0.0253  0.2904 -0.9953
14684TIP3   OH265542   6.773   5.626   4.034 -0.0408  0.3706  0.0730
14684TIP3    H165543   6.868   5.620   4.017 -0.4297  0.6332 -2.7385
14684TIP3    H265544   6.744   5.700   3.981 -2.1564 -1.0945 -0.9461
14685TIP3   OH265545   3.869   0.266   4.753 -0.9394  0.1252  0.2795
14685TIP3    H165546   3.833   0.348   4.786  0.9621  0.2497  2.2540
14685TIP3    H265547   3.910   0.290   4.670  1.0182  1.6104  1.6002
14686TIP3   OH265548   5.269   0.738  16.989 -0.7836 -0.1530  0.0134
14686TIP3    H165549   5.252   0.831  16.973  0.5015 -0.0910 -1.1555
14686TIP3    H265550   5.199   0.692  16.941 -2.0119  0.1863  1.4029
14687TIP3   OH265551   2.995   3.663   5.615  0.5083 -0.1800 -0.3904
14687TIP3    H165552   2.946   3.580   5.611 -0.8347  0.6258 -1.4564
14687TIP3    H265553   3.086   3.638   5.598 -0.1154 -1.2657 -2.4005
14688TIP3   OH265554   2.257   2.864   4.906  0.1200 -0.1587  0.5987
14688TIP3    H165555   2.181   2.897   4.954 -1.7905 -1.9620 -0.9997
14688TIP3    H265556   2.322   2.847   4.973 -1.3558  0.2450  2.2013
14689TIP3   OH265557   2.508   1.769   5.219 -0.2750  0.0491  0.3551
14689TIP3    H165558   2.485   1.676   5.211 -1.2916  0.4028 -1.3980
14689TIP3    H265559   2.509   1.801   5.129 -2.3246  2.2591  1.0233
14690TIP3   OH265560   5.021   0.451   1.157  0.5320 -0.3639 -0.1009
14690TIP3    H165561   4.955   0.431   1.222  1.5847  0.0326  1.1371
14690TIP3    H265562   5.092   0.491   1.207  1.4120 -0.1350 -1.4845
14691TIP3   OH265563   6.523   0.061   3.864 -0.0574 -0.5976  0.3724
14691TIP3    H165564   6.570   0.010   3.930  1.7585  1.3085  0.6417
14691TIP3    H265565   6.573   0.050   3.784 -0.2777 -0.1415  0.1661
14692TIP3   OH265566   2.420   3.799  13.587  0.0723  0.8149  0.6385
14692TIP3    H165567   2.403   3.719  13.539  1.4120  0.9006 -0.0187
14692TIP3    H265568   2.371   3.866  13.539 -0.5032  0.5081  0.7924
14693TIP3   OH265569   5.899   1.707   5.452 -0.4470 -0.4374 -0.4420
14693TIP3    H165570   5.897   1.746   5.539  1.0317 -1.4336  0.0933
14693TIP3    H265571   5.860   1.620   5.464 -0.3271 -0.5394 -0.7893
14694TIP3   OH265572   0.716   4.805  16.945 -0.3813 -0.4451 -0.2455
14694TIP3    H165573   0.740   4.813  16.853  0.6899 -2.0873 -0.1451
14694TIP3    H265574   0.796   4.827  16.993  0.0808 -2.8176  0.1739
14695TIP3   OH265575   1.600   2.420  16.969  0.4704 -0.5041  0.3947
14695TIP3    H165576   1.686   2.415  16.927 -0.3598 -3.6319 -1.2644
14695TIP3    H265577   1.580   2.513  16.971  3.6419  0.2865  0.3784
14696TIP3   OH265578   3.229   6.586   0.067 -0.4610  0.1137  0.0338
14696TIP3    H165579   3.194   6.529  -0.001 -1.4383  0.6771  0.0455
14696TIP3    H265580   3.287   6.530   0.118  0.2754 -0.3281 -1.2388
14697TIP3   OH265581   5.904   5.419  15.324  0.3570 -0.5234 -0.1703
14697TIP3    H165582   5.827   5.372  15.289  0.3324 -0.2335 -0.5066
14697TIP3    H265583   5.868   5.498  15.363  0.5279 -0.1546 -0.7456
14698TIP3   OH265584   0.261   2.620   6.109 -0.6649 -0.4587 -0.4381
14698TIP3    H165585   0.246   2.531   6.078  1.7535 -1.1844  0.2894
14698TIP3    H265586   0.272   2.612   6.203  0.8334  0.3821 -0.5087
14699TIP3   OH265587   2.879   1.379  14.297 -0.1396  0.4709 -0.4582
14699TIP3    H165588   2.958   1.333  14.270  0.0926  1.4881 -1.5885
14699TIP3    H265589   2.809   1.341  14.244 -0.1284  0.6670 -0.6167
14700TIP3   OH265590   0.954   3.396   2.868 -0.1447 -0.2738 -0.6714
14700TIP3    H165591   0.877   3.375   2.921 -0.0312  1.7442  0.3672
14700TIP3    H265592   0.974   3.314   2.822 -3.0172 -0.8142 -1.1521
14701TIP3   OH265593   2.580   5.043   0.559  0.2661 -0.5735 -0.6808
14701TIP3    H165594   2.659   5.097   0.560  0.3107 -0.6416 -0.4314
14701TIP3    H265595   2.578   5.005   0.471  0.1145  0.0063 -0.9383
14702TIP3   OH265596   6.666   5.164  12.483 -0.0863 -0.7162 -0.6199
14702TIP3    H165597   6.576   5.180  12.508 -0.6133 -0.1927 -2.6831
14702TIP3    H265598   6.688   5.235  12.424  1.2302 -1.5570 -1.1970
14703TIP3   OH265599   6.760   5.149  14.695 -0.1424  0.0042  0.3628
14703TIP3    H165600   6.833   5.098  14.728  0.1868  0.3870  0.2333
14703TIP3    H265601   6.799   5.232  14.667 -0.3363 -0.4459 -1.3735
14704TIP3   OH265602   2.596   5.147  16.978 -0.5315  0.1309 -0.2408
14704TIP3    H165603   2.540   5.112  16.909  1.5095  0.8060 -2.3682
14704TIP3    H265604   2.554   5.229  17.004 -2.2281 -0.9454  0.6105
14705TIP3   OH265605   1.250   3.048  17.052  0.2781  0.0494  0.4427
14705TIP3    H165606   1.275   3.096  17.131 -0.3217  1.1615 -0.0132
14705TIP3    H265607   1.156   3.067  17.041  0.1217 -0.8937  0.0051
14706TIP3   OH265608   4.081   5.510  14.505  0.2738 -0.0199 -0.2475
14706TIP3    H165609   4.159   5.455  14.512  0.6782  0.7140  1.4785
14706TIP3    H265610   4.011   5.458  14.544  0.5168  0.3907  0.7725
14707TIP3   OH265611   4.216   1.783  14.331  0.0748  0.1924  0.3387
14707TIP3    H165612   4.213   1.874  14.361  1.4075  0.8315 -1.3075
14707TIP3    H265613   4.185   1.732  14.406  1.8427  1.7901  2.2816
14708TIP3   OH265614   4.640   1.112   1.171 -0.4169 -0.9508  0.1830
14708TIP3    H165615   4.617   1.034   1.221  1.0239 -1.1118  0.6486
14708TIP3    H265616   4.720   1.088   1.124 -0.3229  0.0259 -0.1916
14709TIP3   OH265617   6.241   0.676  14.568  0.1532 -0.0921 -0.2589
14709TIP3    H165618   6.251   0.633  14.483  0.0705 -0.1895 -0.2203
14709TIP3    H265619   6.269   0.766  14.553  0.9839 -0.3276 -0.1787
14710TIP3   OH265620   4.219   2.817  12.188  0.2005  0.0578 -0.0744
14710TIP3    H165621   4.222   2.892  12.247 -0.7261 -2.0986  2.9973
14710TIP3    H265622   4.137   2.826  12.140 -0.0790  0.8033  0.5422
14711TIP3   OH265623   6.599   5.483   6.521  0.1705 -0.1759 -0.3609
14711TIP3    H165624   6.651   5.443   6.451 -0.3864 -0.7730 -0.4439
14711TIP3    H265625   6.550   5.553   6.478 -0.0567 -0.4446 -0.5465
14712TIP3   OH265626   5.873   6.106   6.432  0.0420  0.0928 -0.2907
14712TIP3    H165627   5.866   6.022   6.387 -1.3865  0.9116 -1.6893
14712TIP3    H265628   5.905   6.083   6.520 -0.3628 -1.9007 -0.6079
14713TIP3   OH265629   6.431   3.968   2.476  0.1423 -0.3068 -0.0970
14713TIP3    H165630   6.449   4.029   2.404 -1.8664  0.4380 -0.0320
14713TIP3    H265631   6.386   3.895   2.434  0.4953 -0.6746  0.1629
14714TIP3   OH265632   0.358   6.331  16.602  0.4900  0.5626 -0.3958
14714TIP3    H165633   0.363   6.412  16.551  2.0327 -0.5631 -2.1660
14714TIP3    H265634   0.438   6.330  16.654 -0.5702  1.1782  1.3457
14715TIP3   OH265635   3.700   2.224  16.896 -0.0358  0.0344 -0.3813
14715TIP3    H165636   3.734   2.161  16.832 -1.3313 -1.5050  0.3602
14715TIP3    H265637   3.760   2.218  16.970  0.1228  0.0451 -0.5086
14716TIP3   OH265638   5.622   6.119  11.233  0.1578 -0.0410 -0.0870
14716TIP3    H165639   5.563   6.173  11.181 -0.7193 -0.6515  0.2628
14716TIP3    H265640   5.663   6.180  11.295 -0.7579  0.2341  0.2549
14717TIP3   OH265641   0.344   6.006   1.708 -0.4034  0.0024 -0.1066
14717TIP3    H165642   0.321   5.921   1.745 -1.0989  0.7438  1.2080
14717TIP3    H265643   0.268   6.061   1.724 -0.7431  0.3995 -2.6489
14718TIP3   OH265644   2.745   0.098  13.159 -0.2190  0.2326  0.0951
14718TIP3    H165645   2.837   0.123  13.172 -0.2559 -0.3466  1.5704
14718TIP3    H265646   2.713   0.162  13.095  1.1651  0.5276 -0.3576
14719TIP3   OH265647   5.090   4.511  11.253  0.4745  0.4442  0.9069
14719TIP3    H165648   5.009   4.559  11.234  0.7329  1.2690  1.7961
14719TIP3    H265649   5.075   4.423  11.219 -0.5129  0.7987  0.4013
14720TIP3   OH265650   2.637   2.265   0.699  0.0516  0.2645  0.4793
14720TIP3    H165651   2.692   2.263   0.620  0.8899 -0.0263  1.0468
14720TIP3    H265652   2.559   2.215   0.676  0.4547 -0.1298 -0.0530
14721TIP3   OH265653   0.334   5.702  14.872 -0.0269 -0.4315  0.2288
14721TIP3    H165654   0.348   5.736  14.961 -0.2108  0.3664 -0.0406
14721TIP3    H265655   0.239   5.693  14.864 -0.3923  3.1435 -1.1548
14722TIP3   OH265656   3.547   4.926   4.727  0.1729  0.4453  0.1418
14722TIP3    H165657   3.502   4.991   4.674 -1.6142  0.2168  1.2881
14722TIP3    H265658   3.538   4.844   4.677  1.2739  0.7986 -0.6698
14723TIP3   OH265659   3.363   1.940  11.546  0.0636 -0.1594  0.0462
14723TIP3    H165660   3.419   1.918  11.471  0.9767  0.9349  0.3677
14723TIP3    H265661   3.389   1.879  11.615  1.5665  0.9143  0.4851
14724TIP3   OH265662   4.835   0.981  14.547  0.4827  0.5220  0.2542
14724TIP3    H165663   4.770   0.942  14.489 -0.1295 -0.6780  1.6677
14724TIP3    H265664   4.795   1.062  14.579  1.0910  1.5397 -1.4354
14725TIP3   OH265665   1.640   6.506  16.155  0.0823 -0.6824  0.3447
14725TIP3    H165666   1.552   6.495  16.119 -0.9809  1.0825  2.2159
14725TIP3    H265667   1.650   6.434  16.217  1.7650 -3.4920 -2.8424
14726TIP3   OH265668   5.713   3.865   1.268 -0.6278  0.6017 -0.3822
14726TIP3    H165669   5.689   3.795   1.207  1.2668  0.1386 -0.6482
14726TIP3    H265670   5.793   3.902   1.231  0.4277  0.4838  1.6574
14727TIP3   OH265671   5.129   1.087  13.732 -0.5067 -0.2154  0.0873
14727TIP3    H165672   5.059   1.027  13.705  0.8572 -1.8386 -0.0189
14727TIP3    H265673   5.127   1.086  13.828 -1.0891  0.3223  0.0834
14728TIP3   OH265674   6.518   5.193  15.775  0.3072  0.5895  0.4886
14728TIP3    H165675   6.576   5.129  15.816 -1.3602 -1.3047  0.0570
14728TIP3    H265676   6.437   5.187  15.825 -0.5705  0.8584 -0.8650
14729TIP3   OH265677   1.812   4.371  15.877 -0.4260  0.7925  0.1111
14729TIP3    H165678   1.795   4.393  15.968 -0.5411  0.3114  0.2084
14729TIP3    H265679   1.788   4.449  15.828  0.5935  1.4242  0.5785
14730TIP3   OH265680   2.712   2.166   1.210 -0.1539  0.7419 -0.3409
14730TIP3    H165681   2.694   2.080   1.248 -0.4141  1.5403  1.4320
14730TIP3    H265682   2.671   2.163   1.123  2.5868 -1.9963 -1.7239
14731TIP3   OH265683   3.693   5.826  12.721 -0.3903  0.1733 -0.2591
14731TIP3    H165684   3.709   5.764  12.792 -0.4503 -0.3759 -0.7180
14731TIP3    H265685   3.780   5.842  12.683 -0.4635 -0.1706 -0.5796
14732TIP3   OH265686   5.925   0.801  12.094  0.2699  0.2981 -0.3809
14732TIP3    H165687   5.901   0.712  12.118  2.0607  0.4564  2.4216
14732TIP3    H265688   5.892   0.855  12.167 -0.2721  1.8740 -1.7276
14733TIP3   OH265689   3.552   4.638   1.635  0.3126  0.6705 -0.1468
14733TIP3    H165690   3.574   4.716   1.687 -0.1640 -0.8046  2.4410
14733TIP3    H265691   3.632   4.586   1.634 -0.4486 -0.6092  1.6226
14734TIP3   OH265692   3.628   1.169   3.332  0.1653  0.3621 -0.3625
14734TIP3    H165693   3.621   1.218   3.250  0.5841 -0.7580 -1.0756
14734TIP3    H265694   3.650   1.080   3.306 -0.5613 -0.2243  0.9206
14735TIP3   OH265695   2.885   0.726  15.010 -0.4028 -0.2594  0.4076
14735TIP3    H165696   2.852   0.716  14.920  1.3296 -0.2160 -0.2665
14735TIP3    H265697   2.841   0.804  15.043 -2.1157 -1.0504  0.1219
14736TIP3   OH265698   2.162   2.758   0.515 -0.0757  0.5544  0.1451
14736TIP3    H165699   2.166   2.759   0.420 -1.5173 -0.7295  0.0335
14736TIP3    H265700   2.147   2.850   0.540  1.2535  1.0485 -0.7700
14737TIP3   OH265701   1.030   5.650  13.374 -0.0723  0.0630 -0.9894
14737TIP3    H165702   1.125   5.639  13.366 -0.2783 -1.2430 -1.8916
14737TIP3    H265703   0.993   5.574  13.329 -1.5551  0.6002 -0.7274
14738TIP3   OH265704   3.001   0.430  13.831  0.0665  0.1340 -0.1583
14738TIP3    H165705   3.059   0.381  13.774  0.6035  0.0853  0.4167
14738TIP3    H265706   3.023   0.522  13.816  0.4313  0.1081  0.1942
14739TIP3   OH265707   3.164   4.072  10.550  0.2587 -0.1207 -0.5753
14739TIP3    H165708   3.078   4.037  10.571 -0.3439  0.6573 -1.6783
14739TIP3    H265709   3.213   4.066  10.632 -0.9339 -0.2861  0.1374
14740TIP3   OH265710   0.046   3.101   3.577  0.3200 -0.2749 -0.1977
14740TIP3    H165711   0.096   3.180   3.596  0.5792 -0.6350  0.6671
14740TIP3    H265712   0.051   3.091   3.482 -0.9424  1.5584 -0.5141
14741TIP3   OH265713   0.513   6.276   1.778 -0.1915 -0.0598  0.5710
14741TIP3    H165714   0.525   6.241   1.690 -0.4988  0.5043  0.2964
14741TIP3    H265715   0.418   6.280   1.790 -0.2180  1.7723  0.1222
14742TIP3   OH265716   1.193   3.891   2.138 -0.2302  0.3447  0.7554
14742TIP3    H165717   1.267   3.901   2.077 -2.1743  2.9254 -1.3815
14742TIP3    H265718   1.132   3.833   2.091 -0.6005  0.1462  1.4745
14743TIP3   OH265719   1.584   4.180  15.266 -0.0255  0.1164  0.8716
14743TIP3    H165720   1.541   4.155  15.185  0.0220  0.7195  0.6572
14743TIP3    H265721   1.677   4.186  15.243 -0.1615  1.6569  0.6102
14744TIP3   OH265722   3.197   1.999  14.528  0.2882  0.0886  0.5887
14744TIP3    H165723   3.286   2.016  14.560  0.1080  1.4801  0.4127
14744TIP3    H265724   3.192   1.903  14.523  2.2629 -0.0205 -0.7709
14745TIP3   OH265725   4.328   3.924  16.461 -0.1953  0.0242 -0.0559
14745TIP3    H165726   4.333   3.988  16.390 -1.4221 -1.8046 -1.9184
14745TIP3    H265727   4.239   3.889  16.454  0.1149 -1.1522  1.5481
14746TIP3   OH265728   6.201   3.200   1.670  0.0430 -0.0896  0.4766
14746TIP3    H165729   6.216   3.208   1.576  0.1371 -0.0478  0.4947
14746TIP3    H265730   6.227   3.110   1.691 -0.1061 -0.1421  0.4396
14747TIP3   OH265731   5.176   2.244  14.846 -0.4460  0.6414 -0.6360
14747TIP3    H165732   5.179   2.279  14.757 -0.7068  1.1484 -0.4517
14747TIP3    H265733   5.162   2.150  14.834 -1.1149  0.7933 -1.1228
14748TIP3   OH265734   3.515   6.518   3.864  0.2852 -0.3676  0.4388
14748TIP3    H165735   3.559   6.444   3.905 -1.1778 -1.1397  0.6952
14748TIP3    H265736   3.564   6.595   3.892  0.1336 -0.9871  2.5390
14749TIP3   OH265737   2.623   3.497   4.294  1.0776 -0.1144 -0.1173
14749TIP3    H165738   2.552   3.534   4.242 -1.1025 -1.2831  1.8490
14749TIP3    H265739   2.643   3.565   4.358  0.4097 -0.4770  0.4883
14750TIP3   OH265740   6.596   0.398  12.719 -0.2747  0.4601  0.4996
14750TIP3    H165741   6.624   0.338  12.650 -0.6909  0.1745  0.5782
14750TIP3    H265742   6.673   0.406  12.776 -0.1773  0.0991  0.4196
14751TIP3   OH265743   5.966   5.542  14.543 -0.1242  0.4951 -0.7653
14751TIP3    H165744   5.951   5.598  14.620 -1.8413  0.7001 -1.2051
14751TIP3    H265745   5.966   5.603  14.469 -0.3434  0.1074 -1.0916
14752TIP3   OH265746   1.437   2.171  11.299  0.1595  0.2550 -0.0516
14752TIP3    H165747   1.414   2.100  11.239  0.2273  1.1305 -1.1393
14752TIP3    H265748   1.357   2.223  11.307  0.6298  1.1286 -0.7950
14753TIP3   OH265749   5.483   1.171   3.403 -0.6024 -0.1213 -0.3167
14753TIP3    H165750   5.402   1.121   3.407 -0.6904 -0.2738 -2.7314
14753TIP3    H265751   5.552   1.106   3.389 -0.2974  0.1572 -0.1374
14754TIP3   OH265752   1.748   5.752  13.221  0.3541  0.3103 -0.3356
14754TIP3    H165753   1.674   5.812  13.227 -0.1107 -0.2141 -0.7014
14754TIP3    H265754   1.783   5.747  13.310 -1.1607 -0.8060  0.2464
14755TIP3   OH265755   0.017   3.696  13.730 -0.0500  0.0091  1.0744
14755TIP3    H165756  -0.072   3.723  13.707 -0.9986 -2.3871  1.6777
14755TIP3    H265757   0.072   3.770  13.703 -2.2112  1.6109  0.8145
14756TIP3   OH265758   4.470   4.368   3.731  0.2226  0.4634 -0.2879
14756TIP3    H165759   4.549   4.324   3.700  1.6489  0.9250  2.4381
14756TIP3    H265760   4.469   4.451   3.683  1.0896  0.2336 -0.7275
14757TIP3   OH265761   1.884   5.939   5.488  0.4158  0.2448 -0.4903
14757TIP3    H165762   1.857   5.971   5.574 -0.4249 -0.8413 -0.3163
14757TIP3    H265763   1.933   6.011   5.449  0.3325  0.9539  0.6770
14758TIP3   OH265764   6.551   6.077   4.495  0.4587 -0.1852  0.0294
14758TIP3    H165765   6.561   6.158   4.544 -0.9829  1.1245 -1.7213
14758TIP3    H265766   6.479   6.093   4.435  0.4342 -2.6166 -0.7190
14759TIP3   OH265767   2.559   0.357   0.162  0.1102 -0.6589  0.1422
14759TIP3    H165768   2.500   0.358   0.087 -1.1973  0.3393  1.1366
14759TIP3    H265769   2.594   0.267   0.164 -2.4204 -1.7253  0.2778
14760TIP3   OH265770   3.361   1.351  16.958  0.4305 -0.3621  0.2837
14760TIP3    H165771   3.401   1.419  16.905 -2.9916  2.5782  1.0902
14760TIP3    H265772   3.433   1.292  16.981  3.2747  1.9905 -1.8947
14761TIP3   OH265773   4.781   3.044   2.939  0.0754  0.0879 -0.0686
14761TIP3    H165774   4.731   3.110   2.988  1.3073  1.4669 -0.6213
14761TIP3    H265775   4.849   3.016   3.000  1.1941  1.3122 -0.7160
14762TIP3   OH265776   4.543   2.188  15.974  0.4148 -0.3271 -0.6977
14762TIP3    H165777   4.553   2.101  15.936  1.5229 -0.8271  0.6690
14762TIP3    H265778   4.624   2.204  16.021 -0.2319  0.9730  0.0413
14763TIP3   OH265779   4.488   6.457   5.487  0.0563  0.0996 -0.3813
14763TIP3    H165780   4.522   6.425   5.404  0.0241 -0.7146 -0.0936
14763TIP3    H265781   4.444   6.539   5.466 -1.0184 -0.7011 -1.3807
14764TIP3   OH265782   5.556   1.260   1.806  0.2173  0.0691  0.2852
14764TIP3    H165783   5.615   1.186   1.794  0.9161  0.6618  0.0340
14764TIP3    H265784   5.485   1.244   1.743  0.4862 -0.2552  0.0580
14765TIP3   OH265785   3.131   1.995  17.033  0.2562  0.6363 -0.0028
14765TIP3    H165786   3.103   2.003  16.941 -2.9718 -1.2264  0.6449
14765TIP3    H265787   3.104   2.077  17.073  0.3326  0.8683 -0.4164
14766TIP3   OH265788   0.530   1.433   4.790  0.0458  0.2983 -0.6665
14766TIP3    H165789   0.439   1.454   4.771  0.0082  0.6508 -0.1422
14766TIP3    H265790   0.540   1.452   4.884  0.8726  1.0782 -0.8897
14767TIP3   OH265791   3.865   6.683  17.233 -0.2992  0.7341  0.4889
14767TIP3    H165792   3.772   6.705  17.235 -0.1732  1.2260  0.9956
14767TIP3    H265793   3.881   6.637  17.316  0.2654  2.1330  1.1793
14768TIP3   OH265794   0.849   0.150   2.071 -0.0183 -0.0120 -0.1976
14768TIP3    H165795   0.834   0.217   2.137 -0.6825 -0.1575 -0.1923
14768TIP3    H265796   0.842   0.067   2.118 -1.7413 -0.1615 -0.6582
14769TIP3   OH265797   3.467   5.151  13.337 -0.0019 -0.2914 -1.0078
14769TIP3    H165798   3.444   5.059  13.325  1.1162 -1.4508  3.7250
14769TIP3    H265799   3.390   5.189  13.380 -0.3283  1.0229 -2.6319
14770TIP3   OH265800   4.612   4.578   4.446 -0.3829  0.1797 -0.0603
14770TIP3    H165801   4.696   4.548   4.411 -1.3780 -2.6995 -0.2263
14770TIP3    H265802   4.556   4.501   4.444 -2.3979  1.4527  2.1508
14771TIP3   OH265803   3.088   4.451  14.545  0.2496 -0.0536 -0.3710
14771TIP3    H165804   3.013   4.437  14.486  0.4291  1.2422 -0.9446
14771TIP3    H265805   3.071   4.393  14.619 -1.7433  0.7611 -0.1106
14772TIP3   OH265806   3.730   5.628  14.736  0.1188  0.4830  0.2147
14772TIP3    H165807   3.733   5.671  14.821  2.2917  0.3609  0.2592
14772TIP3    H265808   3.774   5.689  14.677 -0.8401  0.3038 -0.7094
14773TIP3   OH265809   0.233   4.673  14.221  0.0491 -0.1196  0.1858
14773TIP3    H165810   0.301   4.739  14.239  0.5035  0.6205 -3.4592
14773TIP3    H265811   0.153   4.712  14.256  1.1757 -0.4250  3.4134
14774TIP3   OH265812   5.075   1.661  13.259  0.5617  0.2307 -0.3969
14774TIP3    H165813   5.069   1.739  13.315  2.0689  0.8286 -1.0284
14774TIP3    H265814   5.159   1.669  13.215  0.8692 -1.8885 -0.2977
14775TIP3   OH265815   1.522   2.756  11.999  0.2451  0.0816  0.1503
14775TIP3    H165816   1.443   2.741  12.051  1.2163  2.3297  2.4680
14775TIP3    H265817   1.571   2.674  12.007 -1.4698 -1.1202 -0.8106
14776TIP3   OH265818   6.751   5.856   5.544  0.4693  0.1979  0.2020
14776TIP3    H165819   6.827   5.908   5.518  0.4514  0.4457  0.6257
14776TIP3    H265820   6.719   5.899   5.624  0.3345 -0.3536  0.4477
14777TIP3   OH265821   1.794   2.251  12.382 -0.0682 -0.0354 -0.6333
14777TIP3    H165822   1.870   2.194  12.369 -1.0782 -1.2469 -1.5061
14777TIP3    H265823   1.821   2.336  12.347  0.9747 -0.3720 -0.6735
14778TIP3   OH265824   3.149   5.850   2.922  0.3548 -0.1811 -0.1221
14778TIP3    H165825   3.055   5.835   2.929  0.5892 -1.4835  0.5930
14778TIP3    H265826   3.157   5.934   2.877 -1.1540  0.6037  0.9746
14779TIP3   OH265827   2.144   4.330  15.459  0.5296  0.0632  0.1905
14779TIP3    H165828   2.121   4.348  15.551  2.4603  1.0383  0.5417
14779TIP3    H265829   2.204   4.402  15.435  0.0323 -0.1470 -1.8559
14780TIP3   OH265830   6.126   0.370   0.343 -0.4600  0.1744 -0.2345
14780TIP3    H165831   6.160   0.281   0.352 -3.8237 -1.2532 -0.1294
14780TIP3    H265832   6.144   0.411   0.427 -0.2475 -0.9858  0.3114
14781TIP3   OH265833   5.961   2.005   4.605  0.0496 -0.7062 -0.4959
14781TIP3    H165834   5.919   2.062   4.541 -0.6179  2.0563  2.1478
14781TIP3    H265835   6.045   2.047   4.624 -1.0125  0.3430  2.4837
14782TIP3   OH265836   3.627   3.569  13.782  0.0898  0.6819 -0.0787
14782TIP3    H165837   3.666   3.656  13.771 -1.0020  0.9519 -2.6044
14782TIP3    H265838   3.533   3.585  13.784 -0.1369 -0.4396 -0.7928
14783TIP3   OH265839   0.778   4.331  16.574 -0.2646  0.1327 -0.0057
14783TIP3    H165840   0.767   4.282  16.493  1.4396  1.6650 -1.2605
14783TIP3    H265841   0.851   4.391  16.556  2.9468 -2.0974  3.9163
14784TIP3   OH265842   6.533   0.023   3.252 -0.0577  0.0114  0.5742
14784TIP3    H165843   6.459   0.037   3.193 -0.1223  1.1570  0.9210
14784TIP3    H265844   6.608   0.057   3.204  0.2023 -0.7809  0.3924
14785TIP3   OH265845   1.772   6.024   2.614  0.4579 -0.0099 -0.2126
14785TIP3    H165846   1.678   6.035   2.606  0.4090 -0.2933 -0.0410
14785TIP3    H265847   1.809   6.106   2.581  0.1531  0.1007 -0.2793
14786TIP3   OH265848   2.144   6.754  12.332 -0.0707  0.1560 -0.4158
14786TIP3    H165849   2.114   6.744  12.422 -0.7088 -0.3121 -0.6800
14786TIP3    H265850   2.203   6.830  12.336  0.2571 -0.1218  0.4736
14787TIP3   OH265851   4.500   2.347  13.182  0.4210 -0.6557  0.2449
14787TIP3    H165852   4.526   2.257  13.164  0.6077 -0.7266  0.8452
14787TIP3    H265853   4.527   2.396  13.104 -0.2361 -1.2151 -0.3435
14788TIP3   OH265854   1.446   5.191  14.996 -0.2943  0.5554  0.5039
14788TIP3    H165855   1.536   5.171  14.970  0.6307  3.9253  0.5650
14788TIP3    H265856   1.437   5.154  15.084  0.4713 -1.0879 -0.0701
14789TIP3   OH265857   1.436   1.311  16.490 -0.2156  0.4958 -0.3812
14789TIP3    H165858   1.439   1.226  16.446  0.1371  0.3442 -0.0733
14789TIP3    H265859   1.518   1.315  16.539 -1.0851  0.1554  1.1742
14790TIP3   OH265860   6.030   3.071  15.524 -0.1930  0.0316 -0.1762
14790TIP3    H165861   5.949   3.087  15.476  0.0239  0.8096 -0.3003
14790TIP3    H265862   6.081   3.151  15.512 -0.3483  0.4711  1.7812
14791TIP3   OH265863   6.790   2.289   5.364 -0.1004 -0.4224  0.2046
14791TIP3    H165864   6.822   2.366   5.315  0.1074 -1.9944 -2.3157
14791TIP3    H265865   6.709   2.320   5.406  0.0190  1.2117 -0.6528
14792TIP3   OH265866   0.095   0.278   5.415  0.1062  0.2896 -0.1767
14792TIP3    H165867   0.096   0.371   5.437  3.0479  0.0416  1.2764
14792TIP3    H265868   0.145   0.237   5.486  0.3352 -2.1786 -1.6607
14793TIP3   OH265869   1.020   0.680  14.927 -0.1694 -0.3277 -0.2330
14793TIP3    H165870   0.942   0.673  14.872 -0.0948 -1.0136 -0.2612
14793TIP3    H265871   1.019   0.600  14.980 -0.9589  0.9151  1.7142
14794TIP3   OH265872   6.248   4.608  15.841 -0.2813  0.2462 -0.2516
14794TIP3    H165873   6.318   4.625  15.905  0.0678  2.1848 -1.0893
14794TIP3    H265874   6.189   4.548  15.886 -0.0121  1.4861  1.9075
14795TIP3   OH265875   0.923   0.911  13.435 -0.0880  0.2463  0.1781
14795TIP3    H165876   0.963   0.827  13.412  0.1669  0.5154 -0.3937
14795TIP3    H265877   0.990   0.955  13.488 -0.2841  0.0226  0.6082
14796TIP3   OH265878   0.914   1.085   3.325  0.4656 -0.8214 -0.0179
14796TIP3    H165879   0.891   1.064   3.235  1.3342  0.8103 -0.6505
14796TIP3    H265880   1.009   1.072   3.330  0.4821 -0.5386  0.5541
14797TIP3   OH265881   1.601   5.672  11.802 -0.0827  0.1697  0.3070
14797TIP3    H165882   1.579   5.743  11.861 -0.1452  0.5378 -0.1508
14797TIP3    H265883   1.659   5.615  11.852  0.5449  0.9191  0.4496
14798TIP3   OH265884   5.668   5.071   0.519  0.0531 -0.1000 -0.3047
14798TIP3    H165885   5.648   5.156   0.560  0.3752 -0.1692  0.0020
14798TIP3    H265886   5.721   5.094   0.443  0.3969 -0.0445 -0.0510
14799TIP3   OH265887   5.628   0.894   3.445  0.6382 -1.0395 -0.0295
14799TIP3    H165888   5.686   0.818   3.442  2.1381  0.0413  0.0045
14799TIP3    H265889   5.565   0.874   3.514  1.9043 -1.6622  0.9941
14800TIP3   OH265890   6.133   2.948   1.885  0.3442  0.4245  0.0454
14800TIP3    H165891   6.083   2.910   1.957  2.3616  1.2039  1.9753
14800TIP3    H265892   6.093   2.912   1.806 -0.4170 -2.4526  1.6050
14801TIP3   OH265893   2.432   6.781   4.344 -0.0256  0.0257  0.7286
14801TIP3    H165894   2.336   6.789   4.339 -0.1588 -1.8735 -1.6430
14801TIP3    H265895   2.463   6.820   4.262  1.1187 -0.6725  0.8136
14802TIP3   OH265896   5.006   3.390   1.907  0.3204 -0.5735  0.3026
14802TIP3    H165897   4.988   3.388   2.001 -0.9139  0.5568  0.1249
14802TIP3    H265898   5.096   3.420   1.900  0.9215 -2.1266  1.1485
14803TIP3   OH265899   0.161   2.950   5.037  0.1572  0.2021  0.3651
14803TIP3    H165900   0.203   2.978   4.955 -1.3610 -1.0111 -0.9089
14803TIP3    H265901   0.097   3.018   5.055 -1.0244 -0.5566 -0.7317
14804TIP3   OH265902   5.476   2.520  11.739 -0.5651  0.3865 -0.4667
14804TIP3    H165903   5.498   2.553  11.652  1.3629  1.2174  0.2762
14804TIP3    H265904   5.449   2.430  11.724  0.1983  0.3603 -1.8983
14805TIP3   OH265905   0.326   2.478   3.357 -0.2831  0.3885  0.6635
14805TIP3    H165906   0.350   2.391   3.327 -1.2417 -0.0143  1.0171
14805TIP3    H265907   0.331   2.533   3.279  1.7442  0.3541  0.7193
14806TIP3   OH265908   2.813   6.542  12.793 -0.2104 -0.2595  0.4524
14806TIP3    H165909   2.882   6.479  12.774 -0.2167 -0.5079  1.2337
14806TIP3    H265910   2.779   6.567  12.706  0.7514 -0.2393  0.0711
14807TIP3   OH265911   6.449   2.630   2.834  0.2287  0.3209 -0.4969
14807TIP3    H165912   6.381   2.677   2.785  0.5102 -0.1721 -1.3727
14807TIP3    H265913   6.443   2.540   2.804  1.3413  0.2896 -0.6831
14808TIP3   OH265914   4.035   0.915   1.921 -0.7477 -0.0273  0.5641
14808TIP3    H165915   3.994   0.935   2.006  0.4350 -1.2711  1.4817
14808TIP3    H265916   4.127   0.901   1.942  0.3052  2.9412 -1.4646
14809TIP3   OH265917   4.141   3.829   0.355  0.2028  0.1716  0.4166
14809TIP3    H165918   4.133   3.923   0.369 -2.6653  0.1460 -0.5378
14809TIP3    H265919   4.081   3.789   0.418 -1.1000 -0.7931 -1.3609
14810TIP3   OH265920   5.379   1.648  15.667 -0.3137 -0.0677  0.3848
14810TIP3    H165921   5.374   1.553  15.653 -0.8052 -0.1989  1.3635
14810TIP3    H265922   5.400   1.683  15.580  1.2221 -1.1654  0.2654
14811TIP3   OH265923   1.995   5.214   6.190 -0.3301 -0.0658  0.3287
14811TIP3    H165924   1.924   5.271   6.220 -0.4048 -0.9268  1.8798
14811TIP3    H265925   2.062   5.223   6.257  0.0944 -0.9846  0.0371
14812TIP3   OH265926   5.454   1.626   3.485  0.2495 -0.2013 -0.6195
14812TIP3    H165927   5.386   1.559   3.493 -0.0558  0.2770  1.1564
14812TIP3    H265928   5.523   1.584   3.434  0.0133 -1.8257  0.3233
14813TIP3   OH265929   4.730   6.745   4.805 -0.2765  0.1877 -0.2279
14813TIP3    H165930   4.745   6.751   4.710 -2.4992  1.1860 -0.5745
14813TIP3    H265931   4.732   6.651   4.823 -1.0897 -0.1066 -1.5167
14814TIP3   OH265932   6.438   4.893   0.479 -0.6237  0.2308  0.3921
14814TIP3    H165933   6.346   4.920   0.483 -0.5549  0.4944  0.2562
14814TIP3    H265934   6.456   4.857   0.565 -0.6006  1.0198  0.7209
14815TIP3   OH265935   4.737   1.214   6.017 -0.5349 -0.4640 -0.2009
14815TIP3    H165936   4.831   1.196   6.026 -0.3388  0.6629  0.1682
14815TIP3    H265937   4.696   1.154   6.079 -0.1986 -2.0016 -1.3948
14816TIP3   OH265938   3.897   3.246  13.879  0.5766 -0.3411  0.2856
14816TIP3    H165939   3.976   3.268  13.829  0.5407  0.1564  0.4374
14816TIP3    H265940   3.922   3.170  13.931  0.8464 -0.4061  0.0608
14817TIP3   OH265941   4.734   0.383   3.291  0.4221 -0.2334  0.1671
14817TIP3    H165942   4.702   0.296   3.269  0.0726  0.3549 -1.8006
14817TIP3    H265943   4.820   0.389   3.249 -0.3602  1.0073 -1.3669
14818TIP3   OH265944   2.224   4.922  13.535 -0.6283 -0.1292  0.0816
14818TIP3    H165945   2.145   4.905  13.483 -0.4559 -2.2213  0.4194
14818TIP3    H265946   2.257   5.004  13.500 -1.3902 -0.6476 -2.0681
14819TIP3   OH265947   2.823   3.452   5.901 -0.1499 -0.5560 -0.4375
14819TIP3    H165948   2.834   3.403   5.982  0.2042  0.6202  0.2441
14819TIP3    H265949   2.882   3.527   5.909  0.3271 -0.7114 -2.0386
14820TIP3   OH265950   4.142   4.894   1.268 -0.4059 -0.2056 -0.5851
14820TIP3    H165951   4.221   4.861   1.311 -0.7656 -0.3609 -0.0178
14820TIP3    H265952   4.147   4.989   1.278 -1.7955 -0.3254  2.2978
14821TIP3   OH265953   3.628   5.231   0.991  0.1058  0.4298  0.4207
14821TIP3    H165954   3.717   5.205   0.967 -0.3687  0.7077 -1.9144
14821TIP3    H265955   3.580   5.232   0.908 -2.3811 -0.7544  1.7317
14822TIP3   OH265956   3.477   2.664   4.884  0.0746  0.4632  0.1902
14822TIP3    H165957   3.428   2.724   4.828 -0.3313  0.3191  0.3874
14822TIP3    H265958   3.519   2.604   4.822 -2.6752 -1.5195  0.0256
14823TIP3   OH265959   4.403   6.128   0.456  0.0857  0.0801  0.1727
14823TIP3    H165960   4.360   6.180   0.524  0.4900  1.1985 -0.3998
14823TIP3    H265961   4.370   6.039   0.470 -0.7174  0.4970  1.1056
14824TIP3   OH265962   0.950   4.258  13.030  0.3627  0.7084  0.1344
14824TIP3    H165963   0.933   4.272  13.122  0.7845 -0.7397  0.4689
14824TIP3    H265964   0.869   4.283  12.985 -1.2998 -2.1719  1.2697
14825TIP3   OH265965   6.141   0.462  12.248 -0.3894 -0.4423 -0.1344
14825TIP3    H165966   6.106   0.441  12.162  1.1167  2.3121 -1.5573
14825TIP3    H265967   6.234   0.480  12.233 -0.1617  0.4578  1.9897
14826TIP3   OH265968   4.302   3.549  12.565 -0.1281  0.2703  0.1174
14826TIP3    H165969   4.271   3.560  12.655 -1.5406  0.1946 -0.3409
14826TIP3    H265970   4.265   3.465  12.537  1.6225 -0.5069 -0.0259
14827TIP3   OH265971   0.468   0.663   5.160 -0.0446 -0.2641 -0.9565
14827TIP3    H165972   0.386   0.692   5.120  0.1468 -0.5658 -1.5794
14827TIP3    H265973   0.508   0.605   5.095  0.4765 -0.4340 -0.4991
14828TIP3   OH265974   4.399   5.574   0.936  0.6110  0.2763  0.7224
14828TIP3    H165975   4.327   5.557   0.876  1.6318 -0.2567 -0.3917
14828TIP3    H265976   4.466   5.510   0.912  0.5368 -0.9082  3.3642
14829TIP3   OH265977   4.391   4.978  14.517  0.0339  0.3377  0.5494
14829TIP3    H165978   4.476   5.020  14.506  0.0345  0.8588  2.2224
14829TIP3    H265979   4.385   4.915  14.446  0.3963  2.5492 -1.5627
14830TIP3   OH265980   2.013   0.852   4.740  0.2082 -0.2864  0.3751
14830TIP3    H165981   2.098   0.851   4.785 -1.1699  1.0521  3.3179
14830TIP3    H265982   1.990   0.945   4.736 -0.7455 -0.5600 -1.2021
14831TIP3   OH265983   1.093   0.423  13.060  0.2404  0.2220  0.1972
14831TIP3    H165984   1.023   0.433  12.997  0.4352 -0.6064 -0.1640
14831TIP3    H265985   1.144   0.349  13.029  2.0127  1.5399 -0.2326
14832TIP3   OH265986   2.177   6.234  13.222 -0.4678  0.7482  0.5025
14832TIP3    H165987   2.205   6.323  13.202 -0.4213  0.6603  0.1741
14832TIP3    H265988   2.246   6.179  13.187 -0.4973  0.5806  0.7054
14833TIP3   OH265989   1.376   4.480   3.037 -0.6546 -0.0530  0.3424
14833TIP3    H165990   1.286   4.499   3.014 -0.9573 -0.8253  0.8390
14833TIP3    H265991   1.428   4.522   2.969 -1.4280 -0.5185 -0.5584
14834TIP3   OH265992   2.889   3.153  17.333  0.1538 -0.4492  0.4719
14834TIP3    H165993   2.924   3.182  17.248 -0.9642 -1.3560 -0.3379
14834TIP3    H265994   2.856   3.233  17.374  1.0023  0.0525  0.2151
14835TIP3   OH265995   4.059   1.276  14.354  0.2412 -0.2693  0.3354
14835TIP3    H165996   4.153   1.288  14.343  0.4010 -0.0192  1.7433
14835TIP3    H265997   4.039   1.194  14.309  1.4413 -1.1989  1.4397
14836TIP3   OH265998   6.165   6.331   4.256  0.2494  0.3656  0.4134
14836TIP3    H165999   6.179   6.390   4.331 -0.5341  2.1844 -0.8088
14836TIP3    H266000   6.190   6.383   4.180 -0.4850 -0.8959 -0.7196
14837TIP3   OH266001   2.222   3.019  12.108  0.2386  0.0867 -0.1472
14837TIP3    H166002   2.273   3.100  12.099 -0.1892  0.3898  0.1071
14837TIP3    H266003   2.273   2.953  12.061 -0.2007  0.8362 -1.7326
14838TIP3   OH266004   2.956   5.237   5.568 -0.3974  0.3887 -0.7886
14838TIP3    H166005   2.862   5.257   5.565 -0.0962  1.9872 -0.3826
14838TIP3    H266006   2.985   5.246   5.478 -1.0082 -2.3379 -1.3501
14839TIP3   OH266007   4.073   3.839   1.917 -0.1094  0.1529 -0.2156
14839TIP3    H166008   4.044   3.917   1.964  1.3753  1.8931 -2.0391
14839TIP3    H266009   4.007   3.825   1.849 -0.0407  0.1956 -0.2906
14840TIP3   OH266010   0.821   6.472   2.556  0.7081  0.6022 -0.0992
14840TIP3    H166011   0.795   6.535   2.623  0.5335  1.7209 -1.1836
14840TIP3    H266012   0.751   6.475   2.492  1.3014  0.2250 -0.7787
14841TIP3   OH266013   1.781   2.023   2.290  0.3804 -0.5189  0.5620
14841TIP3    H166014   1.744   2.008   2.203 -0.2144  2.0475  0.2850
14841TIP3    H266015   1.734   1.963   2.348 -2.6419  0.9851 -0.1648
14842TIP3   OH266016   1.428   3.452  12.560  0.3437 -0.2629 -0.0667
14842TIP3    H166017   1.336   3.428  12.552  0.0213  0.8904  0.0519
14842TIP3    H266018   1.468   3.378  12.607 -0.3390 -1.1399 -0.8155
14843TIP3   OH266019   4.835   4.179  12.044  0.3378 -0.2247 -0.5534
14843TIP3    H166020   4.768   4.115  12.067 -0.9468  1.6361  1.2021
14843TIP3    H266021   4.786   4.251  12.003  0.9757  1.7198  1.8640
14844TIP3   OH266022   0.309   1.250   2.829 -0.2326 -0.2234  0.3231
14844TIP3    H166023   0.293   1.165   2.788 -1.9891 -0.3938  1.2488
14844TIP3    H266024   0.381   1.234   2.890  1.3560 -0.3262 -1.4871
14845TIP3   OH266025   4.961   0.320   4.640 -0.0373 -0.2450 -0.0828
14845TIP3    H166026   5.051   0.352   4.638  0.0399 -0.3226  1.3039
14845TIP3    H266027   4.967   0.233   4.679 -0.8192  0.2208  1.1370
14846TIP3   OH266028   3.325   6.342  12.121  0.1422 -0.5871 -0.2311
14846TIP3    H166029   3.248   6.398  12.137 -1.3891 -1.9294 -2.4205
14846TIP3    H266030   3.358   6.369  12.036  0.4192 -1.8665 -0.5509
14847TIP3   OH266031   0.469   5.266   3.048 -0.4272  0.0750 -0.3436
14847TIP3    H166032   0.435   5.300   3.131  1.4107  2.1605 -0.3726
14847TIP3    H266033   0.401   5.287   2.984 -0.4765  1.3837  0.1073
14848TIP3   OH266034   6.447   2.841   0.470 -0.1839  0.1282  0.2973
14848TIP3    H166035   6.502   2.857   0.395  0.4462 -0.0856  0.7062
14848TIP3    H266036   6.501   2.789   0.529 -0.5135  0.6526  1.0847
14849TIP3   OH266037   4.690   2.492   4.231 -0.3373  0.1148  0.3951
14849TIP3    H166038   4.775   2.535   4.222  0.3749 -1.1377  0.8957
14849TIP3    H266039   4.667   2.503   4.323 -0.2572 -0.3562  0.4752
14850TIP3   OH266040   2.898   6.162  12.091 -0.1447  0.2353  0.5307
14850TIP3    H166041   2.870   6.167  12.182 -0.3095 -1.1552  0.5720
14850TIP3    H266042   2.820   6.188  12.041  0.1443  1.6605  0.7784
14851TIP3   OH266043   2.867   2.801   4.920 -0.1003  0.4488 -0.3822
14851TIP3    H166044   2.893   2.892   4.907  0.2962  0.1571 -1.8209
14851TIP3    H266045   2.790   2.789   4.864 -0.2408 -0.0671 -0.0937
14852TIP3   OH266046   4.917   5.416  14.232 -0.1735 -0.0558  0.0692
14852TIP3    H166047   4.950   5.336  14.192 -0.5685  0.0010 -0.3730
14852TIP3    H266048   4.841   5.387  14.283 -1.3775  0.2775 -1.4754
14853TIP3   OH266049   2.160   4.861   1.805  0.1629 -0.0229  0.7524
14853TIP3    H166050   2.078   4.814   1.786  0.5037 -0.5753  0.6294
14853TIP3    H266051   2.219   4.794   1.839  0.7237  0.2747  0.3823
14854TIP3   OH266052   6.498   0.491   4.047 -0.2916  0.0980 -0.2326
14854TIP3    H166053   6.455   0.421   4.096  0.6508  1.3673  2.5678
14854TIP3    H266054   6.427   0.553   4.026 -0.8252 -0.8088 -1.2422
14855TIP3   OH266055   0.009   6.134   0.797  0.1802  0.3197  0.6016
14855TIP3    H166056  -0.016   6.091   0.716 -0.8883  0.2476  0.9489
14855TIP3    H266057   0.065   6.071   0.842  0.4073  0.1838  0.1315
14856TIP3   OH266058   5.110   3.936  10.321 -0.0057 -0.3138  0.0033
14856TIP3    H166059   5.177   3.869  10.335 -1.2005 -1.3683  0.9047
14856TIP3    H266060   5.068   3.911  10.239  0.1985 -0.0826 -0.1748
14857TIP3   OH266061   3.093   1.224  10.748 -0.0895 -0.1253  0.0667
14857TIP3    H166062   3.098   1.308  10.793  0.3476  0.1180 -0.4361
14857TIP3    H266063   3.147   1.165  10.801  0.9071  0.3034 -0.4438
14858TIP3   OH266064   0.175   2.269   2.572 -0.1044  0.0393  0.3421
14858TIP3    H166065   0.135   2.262   2.485  1.1766 -0.4760 -0.2264
14858TIP3    H266066   0.225   2.188   2.581 -0.0577  0.1902  1.4833
14859TIP3   OH266067   5.052   3.747  12.467  0.6067  0.7202 -0.4272
14859TIP3    H166068   5.018   3.828  12.430 -1.8880 -0.3747 -0.8044
14859TIP3    H266069   5.038   3.757  12.562  1.6901  1.2868 -0.3165
14860TIP3   OH266070   5.467   0.183  15.162  0.0918  0.2228 -0.6556
14860TIP3    H166071   5.521   0.262  15.167 -0.9236  0.8708  0.6699
14860TIP3    H266072   5.377   0.216  15.164 -0.3505 -0.9706 -0.0131
14861TIP3   OH266073   3.200   5.777  12.495 -0.0416 -0.5605 -0.4010
14861TIP3    H166074   3.161   5.746  12.413 -1.3871 -1.0445  0.3914
14861TIP3    H266075   3.125   5.794  12.552  0.9077 -2.1889  1.4382
14862TIP3   OH266076   3.884   0.927   3.970  0.0552  0.3462  0.3226
14862TIP3    H166077   3.900   0.833   3.959 -0.0899  0.0895  2.0825
14862TIP3    H266078   3.967   0.968   3.944 -0.0236 -0.2123 -0.8828
14863TIP3   OH266079   5.144   1.819  13.920  0.0023  0.7019 -0.3649
14863TIP3    H166080   5.119   1.847  14.009 -0.3025  0.4587 -0.3703
14863TIP3    H266081   5.061   1.790  13.881  0.3017 -0.1427 -0.3823
14864TIP3   OH266082   5.550   5.464   6.118  0.0979  0.3325  0.3790
14864TIP3    H166083   5.523   5.535   6.177  0.8329  1.2392 -0.3500
14864TIP3    H266084   5.526   5.384   6.165 -0.5965  1.0522  1.2958
14865TIP3   OH266085   0.588   4.625  10.359  0.4476 -0.0417 -0.6657
14865TIP3    H166086   0.555   4.589  10.441  0.2910 -1.3488 -1.2746
14865TIP3    H266087   0.623   4.710  10.383  0.3485 -0.3696  0.7448
14866TIP3   OH266088   4.246   0.281  11.966  0.1641  0.5614  0.0807
14866TIP3    H166089   4.158   0.243  11.974  0.3819  0.1147  0.3722
14866TIP3    H266090   4.250   0.314  11.876 -0.1430  0.1757 -0.0793
14867TIP3   OH266091   6.088   3.444   6.369  0.2521 -0.2406 -0.9935
14867TIP3    H166092   6.115   3.489   6.289  2.1506 -0.0254 -0.2678
14867TIP3    H266093   6.160   3.384   6.389  0.1700  0.2371  0.9663
14868TIP3   OH266094   3.452   6.594  14.551  0.0539 -0.5062  0.6319
14868TIP3    H166095   3.547   6.590  14.556 -0.0312 -1.2840  2.0699
14868TIP3    H266096   3.434   6.651  14.476  1.6416  1.4763  1.6764
14869TIP3   OH266097   0.018   1.157  13.979  0.4392  0.0397  0.0408
14869TIP3    H166098   0.000   1.081  13.924 -0.7758 -2.1334  3.1267
14869TIP3    H266099   0.088   1.129  14.038  3.5191  3.1252 -1.7138
14870TIP3   OH266100   2.817   5.192  13.442  0.1403  0.1993  0.4242
14870TIP3    H166101   2.829   5.099  13.463  0.0275  0.3920  1.3915
14870TIP3    H266102   2.904   5.223  13.419  0.8216  0.5425  3.0629
14871TIP3   OH266103   2.748   3.302   2.273  0.2012 -0.1553  0.9850
14871TIP3    H166104   2.653   3.294   2.283  0.3237 -2.1554  0.9683
14871TIP3    H266105   2.775   3.357   2.347 -1.0928  1.6472  0.1832
14872TIP3   OH266106   0.982   3.320   2.480 -0.3940  0.4900 -0.2239
14872TIP3    H166107   0.985   3.239   2.530 -1.5469  0.1014 -0.7321
14872TIP3    H266108   1.061   3.318   2.426  1.1834  1.2127  1.9450
14873TIP3   OH266109   5.444   1.600  10.582  0.3852  0.3968 -0.2659
14873TIP3    H166110   5.534   1.577  10.561 -0.2544 -0.9026 -1.8821
14873TIP3    H266111   5.403   1.516  10.607  0.2231  1.3542  3.1302
14874TIP3   OH266112   4.856   3.251  15.376  0.0400 -0.3498  0.2194
14874TIP3    H166113   4.949   3.256  15.399 -0.8058  1.7406  4.1739
14874TIP3    H266114   4.834   3.159  15.387  1.3685 -0.6532  0.5742
14875TIP3   OH266115   1.329   6.515   2.264 -0.8237  0.1025 -0.1892
14875TIP3    H166116   1.286   6.528   2.179 -3.0749 -1.6345  0.6027
14875TIP3    H266117   1.394   6.447   2.247 -1.3319 -0.3094 -0.5236
14876TIP3   OH266118   5.875   0.424  13.546  0.3880 -0.1226  0.4044
14876TIP3    H166119   5.873   0.352  13.482 -3.0858 -0.1367  0.3441
14876TIP3    H266120   5.787   0.459  13.545  1.4073  2.8108  2.0379
14877TIP3   OH266121   6.153   5.974   3.398  0.1545  0.1411  0.1089
14877TIP3    H166122   6.069   5.998   3.359 -1.2124 -1.4962  1.8584
14877TIP3    H266123   6.216   5.981   3.326 -1.4240  1.6127 -1.1943
14878TIP3   OH266124   3.815   3.215   0.464  0.1147 -0.3829 -0.2543
14878TIP3    H166125   3.851   3.292   0.420 -1.9576  0.3403 -0.7724
14878TIP3    H266126   3.812   3.148   0.396  2.1585 -1.0792  0.2580
14879TIP3   OH266127   2.187   6.503   3.108 -0.6197 -0.3459  0.3217
14879TIP3    H166128   2.226   6.532   3.026  0.2976  0.6064  1.0742
14879TIP3    H266129   2.135   6.578   3.137  0.5781  0.0404  1.5396
14880TIP3   OH266130   3.042   5.919  13.422  0.3231 -0.2376 -0.4064
14880TIP3    H166131   2.976   5.850  13.429 -0.8987  0.7795 -1.4475
14880TIP3    H266132   3.102   5.887  13.354 -1.0921  0.3330 -1.9960
14881TIP3   OH266133   5.775   3.788   4.026  0.6746 -0.5976 -0.1353
14881TIP3    H166134   5.721   3.816   3.952 -1.3229 -1.3090  0.9619
14881TIP3    H266135   5.772   3.692   4.022  0.8991 -0.6426  0.6234
14882TIP3   OH266136   0.832   5.622   5.276  0.1086  0.0538 -0.0796
14882TIP3    H166137   0.770   5.590   5.342  0.5698  1.1049  0.9066
14882TIP3    H266138   0.809   5.574   5.196  0.0730 -1.8849  1.0263
14883TIP3   OH266139   4.396   5.656  11.135 -0.5260  0.1041  1.4179
14883TIP3    H166140   4.340   5.702  11.198 -0.2626  1.4217  0.7297
14883TIP3    H266141   4.459   5.722  11.107 -0.9429 -0.2948 -0.5937
14884TIP3   OH266142   1.117   6.014   0.229  0.2004  0.5548  0.1945
14884TIP3    H166143   1.112   6.104   0.259 -0.4774  1.0013 -1.1561
14884TIP3    H266144   1.105   5.961   0.308  0.4215  1.6367  0.9681
14885TIP3   OH266145   2.376   1.591  14.369  0.4973 -0.3523 -0.5555
14885TIP3    H166146   2.458   1.554  14.400 -0.2568 -1.7939 -0.1893
14885TIP3    H266147   2.317   1.586  14.444 -0.2050 -0.2450 -1.0890
14886TIP3   OH266148   4.506   4.747  11.579  0.5541  0.2425  0.1855
14886TIP3    H166149   4.459   4.826  11.550 -0.8657 -0.8139 -0.5066
14886TIP3    H266150   4.513   4.758  11.674  0.7502  1.3765  0.0647
14887TIP3   OH266151   3.289   0.415   3.469 -0.3501 -0.3036  0.5646
14887TIP3    H166152   3.316   0.460   3.389  1.1694  0.1915  1.3269
14887TIP3    H266153   3.280   0.485   3.534  0.5999 -0.9266  1.3851
14888TIP3   OH266154   0.831   3.326  14.003  0.3311 -0.2320  0.0690
14888TIP3    H166155   0.768   3.316  14.074  0.9256  0.2641  0.6841
14888TIP3    H266156   0.915   3.339  14.048  1.3105 -3.1094 -0.6827
14889TIP3   OH266157   6.170   3.814   4.164 -0.0033  0.2409 -0.0043
14889TIP3    H166158   6.209   3.890   4.209 -2.5391  0.0604  2.8578
14889TIP3    H266159   6.089   3.848   4.127 -0.2610 -0.6713 -0.2950
14890TIP3   OH266160   1.270   1.689  15.076  0.6824  0.1026  0.3624
14890TIP3    H166161   1.341   1.647  15.028  0.4621  0.8919 -0.6823
14890TIP3    H266162   1.302   1.777  15.096 -0.2519  0.7120 -0.7404
14891TIP3   OH266163   1.537   1.802   5.543  0.7879  0.0734  0.3618
14891TIP3    H166164   1.592   1.811   5.465  0.5007 -0.1166  0.1362
14891TIP3    H266165   1.454   1.843   5.518  0.2943 -1.0123  0.1630
14892TIP3   OH266166   1.259   0.577   1.682  0.0439 -0.3550 -0.0798
14892TIP3    H166167   1.238   0.524   1.605 -0.8114 -0.0244 -0.0942
14892TIP3    H266168   1.265   0.514   1.754 -1.3376 -0.4670 -0.0239
14893TIP3   OH266169   0.290   0.660   1.953  0.2369 -0.4888 -0.5657
14893TIP3    H166170   0.196   0.677   1.949  0.0478 -1.4999 -3.7628
14893TIP3    H266171   0.297   0.578   2.001 -0.3755  0.2073  0.7460
14894TIP3   OH266172   5.476   5.717  12.855  0.0303 -0.1446  0.1755
14894TIP3    H166173   5.543   5.761  12.907 -1.6713  0.8015  1.6701
14894TIP3    H266174   5.494   5.744  12.765  1.5859  0.1466  0.5490
14895TIP3   OH266175   4.448   1.538  16.827 -0.2263  0.0678 -0.3020
14895TIP3    H166176   4.499   1.606  16.783  1.0811 -1.6494 -1.6060
14895TIP3    H266177   4.437   1.469  16.760 -1.7876 -0.8584  0.8403
14896TIP3   OH266178   1.813   6.669   0.709  0.5194  0.2121 -0.2375
14896TIP3    H166179   1.878   6.622   0.657  1.4926  1.9445 -0.6608
14896TIP3    H266180   1.862   6.702   0.785 -0.2824 -0.0039  0.3900
14897TIP3   OH266181   2.459   0.937  16.503 -0.6584  0.2450  0.3663
14897TIP3    H166182   2.401   1.007  16.475 -1.2149 -0.9988 -1.8536
14897TIP3    H266183   2.538   0.949  16.450 -1.2182 -1.4059 -0.9327
14898TIP3   OH266184   5.902   2.170  15.473 -0.5064 -0.3095 -0.0638
14898TIP3    H166185   5.842   2.133  15.539 -0.7152 -1.4203 -0.8516
14898TIP3    H266186   5.856   2.159  15.390 -0.0939  0.7722 -0.4549
14899TIP3   OH266187   1.688   5.740  16.099  0.0752 -0.3646  0.6951
14899TIP3    H166188   1.754   5.690  16.146  1.3977  0.7882  0.1178
14899TIP3    H266189   1.668   5.814  16.156 -0.3471 -0.4245  0.6333
14900TIP3   OH266190   0.320   3.183  12.222 -0.1820 -0.4026 -0.3089
14900TIP3    H166191   0.349   3.261  12.175  0.2147 -1.0025 -1.0958
14900TIP3    H266192   0.281   3.216  12.303  2.2882  0.5030  0.6108
14901TIP3   OH266193   2.624   2.264  16.689 -0.5998 -0.4961  0.1407
14901TIP3    H166194   2.560   2.275  16.618 -0.1778  0.0234 -0.1579
14901TIP3    H266195   2.707   2.293  16.652 -0.4512  0.1766  0.9793
14902TIP3   OH266196   4.874   1.024   1.067 -0.4339  0.2385 -0.3727
14902TIP3    H166197   4.939   0.970   1.023 -0.2285  1.3757 -1.5242
14902TIP3    H266198   4.904   1.028   1.158  0.3065 -0.4332 -0.5794
14903TIP3   OH266199   5.157   1.374   2.976 -0.0543  0.4756  0.1013
14903TIP3    H166200   5.133   1.398   2.886  0.6070  1.9156  0.2820
14903TIP3    H266201   5.248   1.344   2.970  0.1349  0.9878  0.3433
14904TIP3   OH266202   5.230   2.652  13.944  0.1590 -0.0866  0.4323
14904TIP3    H166203   5.216   2.720  14.010 -0.7868 -0.5367  0.7140
14904TIP3    H266204   5.290   2.589  13.987 -1.2338 -0.8917  1.2711
14905TIP3   OH266205   2.762   2.973   1.497 -0.1132  0.4169  0.1810
14905TIP3    H166206   2.738   3.023   1.419 -0.4718  0.8341  0.5523
14905TIP3    H266207   2.796   2.891   1.463 -1.7655 -0.0701 -0.3835
14906TIP3   OH266208   1.075   1.717   3.080 -0.0591  0.1920  0.0162
14906TIP3    H166209   1.034   1.665   3.149 -1.6066  1.0563 -0.1874
14906TIP3    H266210   1.108   1.795   3.125  2.0768 -0.8108  0.2905
14907TIP3   OH266211   2.976   0.030   3.069 -0.0399  0.5642  0.3265
14907TIP3    H166212   2.990  -0.043   3.128 -0.1110  0.5632  0.3416
14907TIP3    H266213   2.884   0.025   3.046  0.0442  0.4159  0.0187
14908TIP3   OH266214   5.578   6.487   5.021  0.4326 -0.1674  0.2868
14908TIP3    H166215   5.581   6.526   4.933  1.8592 -0.7687  0.0544
14908TIP3    H266216   5.562   6.394   5.006  0.4966 -0.2430  0.6743
14909TIP3   OH266217   1.476   3.229   0.343  0.2861  0.2212 -0.2210
14909TIP3    H166218   1.499   3.147   0.298  3.2349  0.5757  0.4151
14909TIP3    H266219   1.391   3.211   0.384  0.1959 -2.0333 -1.2473
14910TIP3   OH266220   4.585   2.905   2.163 -0.2001 -0.1419  0.6300
14910TIP3    H166221   4.549   2.838   2.221 -0.3092  0.7649  1.6375
14910TIP3    H266222   4.509   2.938   2.115 -0.1181 -0.8580 -0.0022
14911TIP3   OH266223   5.462   5.186   3.982  0.2698 -0.3603  0.0967
14911TIP3    H166224   5.438   5.208   4.072  1.8340  0.2050  0.4112
14911TIP3    H266225   5.423   5.100   3.968 -2.3513  0.6985  0.3213
14912TIP3   OH266226   3.162   5.071   4.878  0.3900  0.5350  0.0676
14912TIP3    H166227   3.222   5.006   4.841  1.7164  1.5067  0.4554
14912TIP3    H266228   3.098   5.086   4.808  0.4372 -0.6790 -0.2702
14913TIP3   OH266229   2.743   1.625  13.745 -0.2209 -0.3601  0.2980
14913TIP3    H166230   2.817   1.574  13.776 -1.2594 -1.9884  0.2242
14913TIP3    H266231   2.667   1.585  13.787 -1.1076  1.0061  0.0645
14914TIP3   OH266232   3.737   1.004  14.802  0.4004  0.2011 -0.1585
14914TIP3    H166233   3.700   0.917  14.812  0.5043  0.1747  0.0126
14914TIP3    H266234   3.684   1.046  14.735  2.0650 -0.9631 -2.3259
14915TIP3   OH266235   3.597   3.910  16.768  0.5182 -0.8967  0.1900
14915TIP3    H166236   3.627   4.000  16.779 -0.8863 -0.4926  0.9083
14915TIP3    H266237   3.589   3.876  16.857 -0.1691 -1.3140 -0.0240
14916TIP3   OH266238   0.886   3.823   3.280 -0.0997  0.0311 -0.1590
14916TIP3    H166239   0.822   3.861   3.220 -0.5655 -1.0841 -0.3884
14916TIP3    H266240   0.962   3.881   3.273 -0.6423  0.6931 -0.7779
14917TIP3   OH266241   6.663   4.826  14.629  0.4021 -0.6646  0.5582
14917TIP3    H166242   6.751   4.792  14.643  0.5553 -0.3428  0.3827
14917TIP3    H266243   6.676   4.914  14.594  0.0084 -0.5151  0.7823
14918TIP3   OH266244   0.679   1.885   3.363 -0.4450  0.5967  0.0072
14918TIP3    H166245   0.706   1.794   3.350 -1.3058  0.1266  1.2160
14918TIP3    H266246   0.637   1.885   3.450 -0.3686  2.1708  0.0787
14919TIP3   OH266247   6.493   5.432  11.882 -0.3497  0.6910 -0.2332
14919TIP3    H166248   6.500   5.433  11.787 -0.2309  1.5019 -0.2227
14919TIP3    H266249   6.466   5.521  11.905 -3.0190 -0.1510  0.2903
14920TIP3   OH266250   4.480   0.070  14.081  0.4239  0.0788 -0.1882
14920TIP3    H166251   4.445   0.020  14.155 -2.1881 -0.6224 -1.7644
14920TIP3    H266252   4.560   0.110  14.115 -0.9458  0.3050  3.1942
14921TIP3   OH266253   3.934   3.351  11.927 -0.5432  0.5413  0.0962
14921TIP3    H166254   3.928   3.344  11.832 -1.5096 -0.0018  0.1866
14921TIP3    H266255   4.012   3.405  11.942 -0.3975  0.6586 -0.9961
14922TIP3   OH266256   4.837   1.703   2.838  0.6683 -0.4391 -0.2785
14922TIP3    H166257   4.904   1.635   2.844  0.4914 -0.5859  0.0874
14922TIP3    H266258   4.758   1.656   2.811  0.6149 -0.3327 -0.3079
14923TIP3   OH266259   4.984   3.189  13.592 -0.1697 -0.0065 -0.0977
14923TIP3    H166260   5.033   3.270  13.578 -0.6695  0.0681 -1.6200
14923TIP3    H266261   5.049   3.119  13.581 -0.1937  0.1237 -1.2627
14924TIP3   OH266262   4.406   1.747   1.742  0.4654 -0.3968 -0.1914
14924TIP3    H166263   4.358   1.828   1.727  2.8749  0.9366 -1.3119
14924TIP3    H266264   4.470   1.770   1.809  0.5550 -1.6857  0.1906
14925TIP3   OH266265   2.858   4.171   6.177 -0.0871 -0.6804 -0.1224
14925TIP3    H166266   2.915   4.217   6.239  1.4812  0.2459 -2.1219
14925TIP3    H266267   2.832   4.239   6.115 -0.8908 -1.7497 -0.9883
14926TIP3   OH266268   2.067   6.677  14.543  0.2675 -0.1453 -0.0176
14926TIP3    H166269   1.972   6.674  14.542  0.1794  1.4752  0.0834
14926TIP3    H266270   2.092   6.646  14.630 -0.3303  1.5854  0.8263
14927TIP3   OH266271   4.756   5.166  11.174 -0.4081  0.0744 -0.3628
14927TIP3    H166272   4.828   5.201  11.122 -1.1167 -0.4081 -1.7174
14927TIP3    H266273   4.732   5.084  11.130 -2.2539  0.5805 -0.4077
14928TIP3   OH266274   6.687   0.594   4.803 -0.0437  0.2533 -0.0586
14928TIP3    H166275   6.768   0.555   4.770  0.3087 -0.4744  1.5691
14928TIP3    H266276   6.619   0.533   4.776  0.2644 -0.4521  0.7184
14929TIP3   OH266277   2.078   5.789  17.097 -0.8015  0.5087 -0.7298
14929TIP3    H166278   1.997   5.757  17.138 -0.5790  0.5356 -0.2631
14929TIP3    H266279   2.133   5.711  17.090 -0.2436  0.7808  0.4422
14930TIP3   OH266280   1.685   0.399   2.003 -0.1965 -0.7146  0.2057
14930TIP3    H166281   1.621   0.330   2.023 -0.6643 -0.5950 -0.8182
14930TIP3    H266282   1.635   0.480   2.004  0.6977 -0.0731  3.2945
14931TIP3   OH266283   2.533   6.244  13.123 -0.7860  0.6770  0.0149
14931TIP3    H166284   2.552   6.159  13.084 -1.4819  0.9017 -0.8518
14931TIP3    H266285   2.595   6.304  13.082 -0.9385  0.7566 -0.1023
14932TIP3   OH266286   0.987   0.981  14.542  0.0564 -0.0808 -0.1576
14932TIP3    H166287   1.075   0.956  14.512 -0.1286 -1.6912  0.5522
14932TIP3    H266288   0.928   0.926  14.491 -0.7935  2.7521 -2.4962
14933TIP3   OH266289   4.594   2.190   5.642 -0.2458  0.0060 -0.9344
14933TIP3    H166290   4.645   2.139   5.578 -0.4168 -0.7157 -0.5074
14933TIP3    H266291   4.643   2.181   5.723 -0.6135 -0.0042 -0.7117
14934TIP3   OH266292   5.388   5.672  14.763 -0.0818 -0.1356 -0.4350
14934TIP3    H166293   5.393   5.633  14.676 -0.2654 -1.6685  0.1940
14934TIP3    H266294   5.342   5.755  14.751 -1.3858 -0.9932 -1.6016
14935TIP3   OH266295   1.315   3.550   2.066  0.5569 -0.3984  0.3216
14935TIP3    H166296   1.388   3.489   2.070  0.2674 -0.7268  0.6166
14935TIP3    H266297   1.241   3.503   2.106  0.2496  0.0208  0.2590
14936TIP3   OH266298   0.564   3.732  16.087  0.4511 -0.5804  0.6684
14936TIP3    H166299   0.568   3.692  16.000  0.0586  0.2370  0.2542
14936TIP3    H266300   0.470   3.744  16.103  0.5594  1.6100  0.0634
14937TIP3   OH266301   5.537   3.363   3.065 -0.4288 -0.2824 -0.0636
14937TIP3    H166302   5.449   3.326   3.061 -0.5035 -0.2870  1.2001
14937TIP3    H266303   5.576   3.325   3.144  0.1080  0.9834  0.3090
14938TIP3   OH266304   5.563   6.652   3.846 -0.3387 -0.6605 -0.1033
14938TIP3    H166305   5.565   6.663   3.941 -0.4413 -1.4271  0.0009
14938TIP3    H266306   5.480   6.607   3.830  1.0832 -3.5071 -0.1740
14939TIP3   OH266307   0.358   3.087   1.468  0.6115  0.3246  0.3326
14939TIP3    H166308   0.280   3.034   1.448  0.1177  0.7960  0.9993
14939TIP3    H266309   0.416   3.027   1.515  1.4196 -0.5499 -1.6283
14940TIP3   OH266310   1.997   4.141   0.898 -0.5415 -0.2232  0.2667
14940TIP3    H166311   2.045   4.139   0.815 -0.3130 -0.9410  0.4149
14940TIP3    H266312   1.988   4.235   0.918  1.5629 -0.0725  0.6868
14941TIP3   OH266313   5.312   1.900  11.680 -0.1726  0.0825 -0.1050
14941TIP3    H166314   5.297   1.945  11.597  2.1007  0.4627 -0.3838
14941TIP3    H266315   5.319   1.808  11.656  1.3515  0.2719 -0.5388
14942TIP3   OH266316   3.864   3.576   4.203 -0.2191  0.0138 -0.4901
14942TIP3    H166317   3.783   3.617   4.233 -0.4158 -1.6700  1.5138
14942TIP3    H266318   3.933   3.623   4.249 -0.0398  1.1735 -1.8789
14943TIP3   OH266319   5.086   3.196  13.101  0.5572  0.7206 -0.1038
14943TIP3    H166320   5.030   3.220  13.174  0.5163  0.7614 -0.1477
14943TIP3    H266321   5.174   3.188  13.139  0.3221 -0.5468  0.2096
14944TIP3   OH266322   4.927   2.385   1.556 -0.2553 -0.2447  0.1248
14944TIP3    H166323   5.004   2.417   1.604  0.1655  1.0133 -1.3058
14944TIP3    H266324   4.952   2.390   1.464 -1.8961 -0.2331 -0.3525
14945TIP3   OH266325   3.736   6.794  12.807  0.6894 -0.5837  0.5367
14945TIP3    H166326   3.706   6.737  12.737 -1.7007  2.1969 -0.9101
14945TIP3    H266327   3.827   6.815  12.784  0.3312 -0.6928 -1.0563
14946TIP3   OH266328   1.340   2.589  11.395  0.6393  0.4398 -0.6489
14946TIP3    H166329   1.294   2.628  11.470  1.1227  0.6508 -0.4624
14946TIP3    H266330   1.376   2.664  11.347  1.1092  0.2540 -0.5870
14947TIP3   OH266331   6.491   5.015  11.209  0.2605  0.3114 -0.7378
14947TIP3    H166332   6.496   5.031  11.303  2.4911  1.2049 -0.9501
14947TIP3    H266333   6.523   4.925  11.198 -1.4131 -0.3432 -0.5587
14948TIP3   OH266334   5.712   3.308  14.495 -1.0740 -0.2030 -0.0797
14948TIP3    H166335   5.761   3.390  14.488 -2.1889  0.3547 -2.1695
14948TIP3    H266336   5.750   3.252  14.428 -0.8330 -1.1543  0.8287
14949TIP3   OH266337   2.949   1.736   3.474  0.3812  0.0862  0.7247
14949TIP3    H166338   2.985   1.649   3.459  0.5329  0.1828  0.5304
14949TIP3    H266339   3.026   1.793   3.481  0.3136  0.1043  1.5025
14950TIP3   OH266340   0.914   4.158   2.070  0.2565  0.1452 -0.0230
14950TIP3    H166341   0.914   4.083   2.010  0.7065  1.2064 -1.3931
14950TIP3    H266342   0.957   4.125   2.149 -0.0493 -1.1893 -0.3830
14951TIP3   OH266343   1.707   4.967   0.213 -0.3525 -0.4567 -0.3707
14951TIP3    H166344   1.737   5.058   0.217  1.4883 -1.0501  0.4026
14951TIP3    H266345   1.709   4.937   0.304 -1.4885 -1.1307 -0.5410
14952TIP3   OH266346   2.641   3.403  13.654 -0.1565 -0.7242  0.1237
14952TIP3    H166347   2.624   3.420  13.561  0.4153 -1.6955 -0.1692
14952TIP3    H266348   2.642   3.308  13.662  0.5874 -0.6634  0.9708
14953TIP3   OH266349   0.367   4.258   3.682 -0.2462 -0.1762  0.6492
14953TIP3    H166350   0.381   4.163   3.691  1.8163 -0.1462 -1.2433
14953TIP3    H266351   0.322   4.268   3.598  1.0217  0.5431  0.0109
14954TIP3   OH266352   1.797   3.087   5.062 -0.8450  0.1149 -0.3236
14954TIP3    H166353   1.857   3.082   5.137 -0.2118  0.4959 -0.7914
14954TIP3    H266354   1.715   3.121   5.098  0.1187  2.4828 -0.1580
14955TIP3   OH266355   0.612   5.899  10.703 -0.7736  0.1957  0.0087
14955TIP3    H166356   0.526   5.920  10.666 -0.1994  0.0641 -1.4709
14955TIP3    H266357   0.594   5.827  10.764 -1.6847  0.0001 -0.4691
14956TIP3   OH266358   3.970   3.303  12.615  0.2908  0.2992 -0.1981
14956TIP3    H166359   3.930   3.387  12.639  2.4937  1.2545  0.4165
14956TIP3    H266360   4.027   3.282  12.689 -0.6508 -2.0770 -0.0913
14957TIP3   OH266361   0.355   3.562   1.084 -0.8735  0.0392 -0.2031
14957TIP3    H166362   0.350   3.473   1.120 -1.4657 -1.1209 -2.9331
14957TIP3    H266363   0.441   3.567   1.043 -0.5304  1.0535  0.5859
14958TIP3   OH266364   1.607   1.106  15.203  0.0947 -0.2361  0.0630
14958TIP3    H166365   1.680   1.093  15.143  0.9597  0.7743  0.8499
14958TIP3    H266366   1.648   1.125  15.287 -1.0623  0.4011  0.5131
14959TIP3   OH266367   4.344   4.846  12.639 -0.4847  0.4274  0.1931
14959TIP3    H166368   4.288   4.775  12.670  0.4365 -1.8183 -2.7869
14959TIP3    H266369   4.311   4.867  12.552  0.5789  2.2200  0.1620
14960TIP3   OH266370   0.441   1.186  15.505 -0.0071 -0.1251  0.4588
14960TIP3    H166371   0.441   1.274  15.469  0.6827  0.0203  0.8059
14960TIP3    H266372   0.356   1.150  15.480 -0.2427  0.5922  0.2097
14961TIP3   OH266373   5.760   2.199  17.397 -0.2592  0.9685 -0.3200
14961TIP3    H166374   5.825   2.166  17.335  2.7797  1.0399  2.5652
14961TIP3    H266375   5.761   2.293  17.384 -1.6448  0.8254 -1.8558
14962TIP3   OH266376   5.964   0.501   4.676 -0.0983 -0.5034 -0.0976
14962TIP3    H166377   5.893   0.438   4.688  0.1909 -0.3523  3.2252
14962TIP3    H266378   5.920   0.581   4.647 -0.7489 -1.4588 -1.9032
14963TIP3   OH266379   0.020   3.838  16.783  0.4617  0.1370  0.2110
14963TIP3    H166380  -0.051   3.898  16.759  0.5259  0.7806  1.5413
14963TIP3    H266381   0.064   3.818  16.700 -3.1591 -2.8749 -1.2608
14964TIP3   OH266382   3.548   3.696  12.282 -0.0499 -0.5592 -0.1382
14964TIP3    H166383   3.471   3.659  12.238 -0.1060  1.5998 -2.0374
14964TIP3    H266384   3.617   3.690  12.215  1.2455 -1.6510  1.2324
14965TIP3   OH266385   1.466   1.091   4.523 -0.0913 -0.1145 -0.2737
14965TIP3    H166386   1.454   0.999   4.545  0.6458 -0.4708 -1.2514
14965TIP3    H266387   1.378   1.124   4.508 -0.3196 -0.8740 -0.6655
14966TIP3   OH266388   0.343   2.294   1.782  0.1546 -0.2568  0.6832
14966TIP3    H166389   0.372   2.328   1.697 -2.0838  1.8566  0.6371
14966TIP3    H266390   0.322   2.202   1.765 -0.5390  0.1890 -1.1664
14967TIP3   OH266391   3.618   1.863  15.286 -0.0447 -0.2213  0.1085
14967TIP3    H166392   3.609   1.954  15.313 -1.0699 -0.7632  1.7224
14967TIP3    H266393   3.529   1.835  15.267  0.1359 -1.1560  0.5976
14968TIP3   OH266394   4.932   3.342   2.159 -0.1203  0.3089 -0.6210
14968TIP3    H166395   4.996   3.276   2.187 -1.4545 -0.6364  0.3011
14968TIP3    H266396   4.945   3.415   2.220  1.5189  1.0499 -1.7878
14969TIP3   OH266397   5.259   6.457  14.752  0.2120  0.2389 -0.6767
14969TIP3    H166398   5.262   6.453  14.848  1.4877 -0.9647 -0.7212
14969TIP3    H266399   5.243   6.549  14.732  0.6800  0.6437  0.6896
14970TIP3   OH266400   2.948   0.847  16.910  0.8086  0.0848  0.1399
14970TIP3    H166401   3.039   0.850  16.881  0.9404  1.1872  0.6304
14970TIP3    H266402   2.914   0.935  16.891 -0.0275 -0.1809  0.3597
14971TIP3   OH266403   6.069   4.681   5.962  0.5446  1.0846  0.9569
14971TIP3    H166404   6.030   4.767   5.949 -0.4808  0.4840 -0.1652
14971TIP3    H266405   6.080   4.673   6.056  0.4060  2.3322  1.0939
14972TIP3   OH266406   3.587   4.878  16.764 -0.0733 -0.1463 -0.4325
14972TIP3    H166407   3.630   4.800  16.798 -0.2526 -0.6620 -1.3805
14972TIP3    H266408   3.495   4.868  16.790 -0.2754 -0.7006 -1.3285
14973TIP3   OH266409   2.489   2.745   3.323  1.2544 -0.4973 -0.1742
14973TIP3    H166410   2.508   2.836   3.348  0.9530 -0.5717  0.3380
14973TIP3    H266411   2.543   2.693   3.382 -1.6718 -0.7836  2.5263
14974TIP3   OH266412   3.719   4.836   5.256  0.3008 -0.1281 -0.3273
14974TIP3    H166413   3.756   4.835   5.344  1.5614  0.6178 -0.8209
14974TIP3    H266414   3.677   4.751   5.247 -0.5539  0.0785  1.2612
14975TIP3   OH266415   0.033   0.452  15.186 -0.0030 -0.2866  0.2228
14975TIP3    H166416   0.106   0.514  15.182  0.3774 -0.7513 -0.0879
14975TIP3    H266417  -0.021   0.475  15.111  0.5584 -0.8465 -0.3589
14976TIP3   OH266418   4.319   6.460  15.584 -0.1878  0.5981 -0.0180
14976TIP3    H166419   4.235   6.474  15.539 -1.0435 -0.2544  1.2536
14976TIP3    H266420   4.298   6.465  15.677  1.2543  0.7402  0.3286
14977TIP3   OH266421   0.665   6.339  15.968 -0.5728 -0.3357  0.5904
14977TIP3    H166422   0.681   6.401  15.897  0.2634 -1.7719 -0.5403
14977TIP3    H266423   0.740   6.349  16.026 -0.6349 -0.0098  0.6131
14978TIP3   OH266424   5.949   4.144  14.767 -0.0605  0.9613 -0.3343
14978TIP3    H166425   5.861   4.151  14.804  0.8405  1.1833  1.9464
14978TIP3    H266426   5.968   4.231  14.731  0.1014  1.6564  1.3586
14979TIP3   OH266427   5.872   5.660  13.877  0.0777 -0.0949  0.0139
14979TIP3    H166428   5.899   5.730  13.817  0.2356 -0.1595  0.0081
14979TIP3    H266429   5.810   5.702  13.936  0.7296  0.2419  0.4750
14980TIP3   OH266430   2.224   5.638  11.299 -0.0746  0.2254 -0.3467
14980TIP3    H166431   2.314   5.646  11.270  0.1522 -0.1559  0.2289
14980TIP3    H266432   2.202   5.725  11.333  0.8993 -0.2656  1.7464
14981TIP3   OH266433   3.086   4.720  15.033  0.2428  0.0016  0.1418
14981TIP3    H166434   3.133   4.743  14.953 -0.7991  1.2388 -0.1335
14981TIP3    H266435   3.123   4.635  15.058 -0.0091 -0.8401 -2.1260
14982TIP3   OH266436   2.891   1.608  14.112  0.2152 -0.0419  0.1084
14982TIP3    H166437   2.824   1.673  14.136 -0.7473 -0.0123 -2.3781
14982TIP3    H266438   2.875   1.535  14.172 -0.2643  1.0068  1.3313
14983TIP3   OH266439   5.909   2.129  15.036  0.3523 -0.3635  0.4669
14983TIP3    H166440   5.954   2.211  15.056 -0.4708 -0.1925  1.7686
14983TIP3    H266441   5.957   2.063  15.086  1.2832 -0.7889 -0.9179
14984TIP3   OH266442   5.041   1.918  15.193  0.4188 -0.4289 -0.0272
14984TIP3    H166443   4.965   1.882  15.147 -0.3160 -0.2743  1.0393
14984TIP3    H266444   5.048   2.008  15.161 -0.2796 -0.2221  0.3959
14985TIP3   OH266445   2.421   2.579  14.554  0.1525 -0.2110 -0.0966
14985TIP3    H166446   2.463   2.580  14.640 -1.5161 -0.6210  0.7753
14985TIP3    H266447   2.405   2.487  14.535  0.8342 -0.1482 -1.0288
14986TIP3   OH266448   3.814   5.189   2.619  0.0855 -0.2038  0.0509
14986TIP3    H166449   3.737   5.167   2.567  0.0888 -0.4019  0.1293
14986TIP3    H266450   3.859   5.105   2.632  0.4763 -0.0473 -0.2551
14987TIP3   OH266451   4.611   6.612  15.510 -0.0276 -0.3462 -0.9653
14987TIP3    H166452   4.558   6.682  15.474 -0.2544 -0.6522 -1.2364
14987TIP3    H266453   4.688   6.656  15.546 -1.0820  0.2451  0.6639
14988TIP3   OH266454   2.808   0.625   4.053  0.4113 -0.0935 -0.6941
14988TIP3    H166455   2.797   0.604   4.146 -0.0740  1.8327 -0.2817
14988TIP3    H266456   2.766   0.552   4.008 -1.4410  0.0524  0.6587
14989TIP3   OH266457   6.602   6.568   4.595  0.2260 -0.0090 -0.0700
14989TIP3    H166458   6.684   6.522   4.577  0.3710 -0.0905  0.7667
14989TIP3    H266459   6.541   6.500   4.624  0.2301  0.2246  0.4887
14990TIP3   OH266460   1.829   1.224  14.582 -0.1580 -0.5946  0.3809
14990TIP3    H166461   1.840   1.241  14.489 -2.7775 -2.5660 -0.4205
14990TIP3    H266462   1.913   1.186  14.609  0.6997  0.1457 -1.1283
14991TIP3   OH266463   3.880   6.338   6.279  0.0349  0.0269 -0.0763
14991TIP3    H166464   3.906   6.340   6.187  1.8081 -0.7359  0.3673
14991TIP3    H266465   3.855   6.247   6.295  0.5884 -0.0432  0.4050
14992TIP3   OH266466   3.554   5.344   2.849 -0.1436  0.5571  0.3108
14992TIP3    H166467   3.545   5.399   2.771 -1.7507 -0.5698 -0.3400
14992TIP3    H266468   3.645   5.357   2.876  0.1917  1.6912 -1.2006
14993TIP3   OH266469   0.032   6.238  14.433  0.2325 -0.0970  0.1614
14993TIP3    H166470   0.103   6.266  14.376 -0.1690 -1.4956 -1.1023
14993TIP3    H266471  -0.018   6.175  14.380 -2.0415  0.9375  0.9148
14994TIP3   OH266472   5.085   2.453  16.371 -0.1499 -0.2316 -0.3384
14994TIP3    H166473   5.123   2.444  16.459  0.4098 -1.3123 -0.6734
14994TIP3    H266474   5.160   2.447  16.312 -0.8626 -4.1493 -1.1129
14995TIP3   OH266475   3.597   1.556  14.248 -0.7249 -0.4260 -0.4053
14995TIP3    H166476   3.668   1.613  14.219 -0.4817 -0.0512  0.8451
14995TIP3    H266477   3.518   1.598  14.214 -0.5136  0.4209  0.1024
14996TIP3   OH266478   3.527   3.635  16.543  0.1337  0.6578  0.1915
14996TIP3    H166479   3.590   3.652  16.613  1.9634  0.7127 -1.3766
14996TIP3    H266480   3.570   3.570  16.488 -1.0125  0.9994 -1.1671
14997TIP3   OH266481   1.274   4.792  15.858 -0.1901 -0.3302 -0.5052
14997TIP3    H166482   1.221   4.808  15.936 -1.7133  0.0489 -1.5718
14997TIP3    H266483   1.248   4.705  15.829 -1.3068  0.4274 -1.8363
14998TIP3   OH266484   6.760   5.620   5.902  0.3392  0.0484 -0.5158
14998TIP3    H166485   6.778   5.527   5.913 -0.5047 -0.1769 -0.9255
14998TIP3    H266486   6.845   5.659   5.885  0.6962 -0.6547 -0.3782
14999TIP3   OH266487   0.431   0.236  12.901  0.5937  0.0235 -0.1190
14999TIP3    H166488   0.494   0.210  12.835  1.1474  0.3812  0.2573
14999TIP3    H266489   0.350   0.190  12.878  1.0037 -0.4637 -0.5796
15000TIP3   OH266490   1.379   6.625  11.781 -0.4617 -0.0760 -0.2297
15000TIP3    H166491   1.463   6.617  11.737 -0.0996  0.8290  0.2694
15000TIP3    H266492   1.346   6.535  11.786 -0.8366 -0.1648 -2.9043
15001TIP3   OH266493   1.567   5.834  11.306 -0.5631  0.1153  0.8688
15001TIP3    H166494   1.504   5.880  11.250  0.3224  0.5500  0.1974
15001TIP3    H266495   1.618   5.781  11.244  1.5798  1.9136  0.9929
15002TIP3   OH266496   1.180   4.302  16.146 -0.2891  0.0596 -0.2151
15002TIP3    H166497   1.197   4.396  16.154  1.4099 -0.2725  0.5231
15002TIP3    H266498   1.249   4.270  16.088 -1.3083 -0.6247 -1.0707
15003TIP3   OH266499   3.168   1.166  12.465 -0.4979  0.1329 -0.1740
15003TIP3    H166500   3.158   1.115  12.384  0.0708  0.9865 -0.7970
15003TIP3    H266501   3.259   1.153  12.491 -0.7415 -0.3381  0.4872
15004TIP3   OH266502   2.377   5.039  16.817  0.1625 -0.0926  0.2019
15004TIP3    H166503   2.373   4.981  16.893  1.1301 -0.4799 -0.0181
15004TIP3    H266504   2.309   5.007  16.758  1.2529 -1.5936 -0.2987
15005TIP3   OH266505   5.915   3.083  11.153  0.4496  0.1549 -0.7444
15005TIP3    H166506   5.873   3.125  11.228  0.3026 -0.8032 -0.2707
15005TIP3    H266507   6.005   3.066  11.183  0.2697 -0.6136 -0.6238
15006TIP3   OH266508   0.957   6.182   4.650  0.6098  0.1361  0.7587
15006TIP3    H166509   0.895   6.241   4.693  0.8396  1.3731 -0.5167
15006TIP3    H266510   1.041   6.227   4.655  0.9771 -0.5183  0.5796
15007TIP3   OH266511   2.148   1.058  13.520  0.2368  0.0494  0.0794
15007TIP3    H166512   2.093   1.092  13.450 -0.9023  0.2966  1.0477
15007TIP3    H266513   2.235   1.090  13.501  0.0801 -0.3987 -1.5425
15008TIP3   OH266514   4.584   5.203   5.976  0.2554  0.1783 -0.1750
15008TIP3    H166515   4.566   5.135   5.911 -0.0215 -2.0359  2.0344
15008TIP3    H266516   4.499   5.242   5.994  0.4503  1.3450 -1.6268
15009TIP3   OH266517   0.604   4.054  12.988  0.3985 -0.4915  0.0896
15009TIP3    H166518   0.666   3.984  12.967  1.0053 -0.0294  0.3281
15009TIP3    H266519   0.595   4.104  12.907  1.0864  0.0164  0.3233
15010TIP3   OH266520   0.511   1.788  16.474 -0.3721 -0.1255  0.3017
15010TIP3    H166521   0.516   1.796  16.379 -0.6862  1.4812  0.3988
15010TIP3    H266522   0.593   1.824  16.506 -0.5008 -0.1455  0.6610
15011TIP3   OH266523   1.716   6.624   0.378  0.9681 -0.1369  0.2289
15011TIP3    H166524   1.733   6.635   0.285  0.0296  1.4551  0.2095
15011TIP3    H266525   1.625   6.594   0.383  0.2984  1.7886  0.6497
15012TIP3   OH266526   6.470   4.863   1.843 -0.1150  0.1133 -0.1645
15012TIP3    H166527   6.383   4.893   1.815  0.2091  2.6689  1.2938
15012TIP3    H266528   6.490   4.790   1.784 -1.5121  2.0505 -3.2860
15013TIP3   OH266529   6.475   1.566  16.245 -0.0578 -0.4454  0.1701
15013TIP3    H166530   6.557   1.568  16.195  0.9901  0.1020  1.8241
15013TIP3    H266531   6.408   1.547  16.180  1.3927 -1.0786 -1.2141
15014TIP3   OH266532   2.922   0.703  15.336  0.4184 -0.0577  0.2378
15014TIP3    H166533   2.980   0.680  15.409 -0.2417 -0.0731  0.7585
15014TIP3    H266534   2.972   0.678  15.258  0.7090 -1.0038  0.7085
15015TIP3   OH266535   4.185   2.729  16.861  0.2489 -0.4541  0.0973
15015TIP3    H166536   4.271   2.701  16.895  0.3374 -0.2324  0.0539
15015TIP3    H266537   4.143   2.647  16.835  0.8575 -0.4829 -0.8497
15016TIP3   OH266538   4.243   4.847  15.412  0.1509  0.5591 -0.0195
15016TIP3    H166539   4.261   4.864  15.505 -0.4010  1.0056  0.0038
15016TIP3    H266540   4.317   4.886  15.366  0.2385  0.6619  0.2051
15017TIP3   OH266541   0.022   5.621   4.682 -0.7005  0.2028 -0.5253
15017TIP3    H166542  -0.010   5.621   4.592 -0.0111 -0.9648 -0.7904
15017TIP3    H266543   0.095   5.683   4.682  0.9198 -1.6006 -1.4187
15018TIP3   OH266544   3.528   1.698   2.320  0.1466 -0.7325 -0.1573
15018TIP3    H166545   3.467   1.758   2.364  0.2250 -0.6600 -0.1483
15018TIP3    H266546   3.584   1.754   2.267  0.0408 -0.8213 -0.3679
15019TIP3   OH266547   0.296   2.725  14.106 -0.0127 -0.8863 -0.6696
15019TIP3    H166548   0.345   2.732  14.188 -0.8450 -0.9805 -0.1552
15019TIP3    H266549   0.362   2.738  14.038  0.3058  1.9078  0.0099
15020TIP3   OH266550   1.088   6.089   3.467  0.0869  0.6522 -0.3258
15020TIP3    H166551   1.025   6.071   3.397 -0.6335  1.5489  0.0733
15020TIP3    H266552   1.076   6.182   3.486 -2.2020 -0.1910  3.3324
15021TIP3   OH266553   2.839   4.765   0.234 -0.2988 -0.0265 -0.1947
15021TIP3    H166554   2.919   4.817   0.228  0.8105 -1.8133 -1.9822
15021TIP3    H266555   2.828   4.749   0.328  2.0993 -0.6609  0.0495
15022TIP3   OH266556   5.732   3.867   3.171  0.4896 -0.0854 -0.2734
15022TIP3    H166557   5.823   3.839   3.179  0.2277 -1.0019 -0.3830
15022TIP3    H266558   5.711   3.855   3.078  0.8844  2.1727 -0.7184
15023TIP3   OH266559   1.080   3.736   4.789  0.4789 -0.1770  0.2587
15023TIP3    H166560   1.041   3.816   4.754  1.9872  0.6443  0.4228
15023TIP3    H266561   1.174   3.745   4.774  0.7374 -1.6728  0.7759
15024TIP3   OH266562   5.789   4.766   0.361  0.3863  0.0687  0.4979
15024TIP3    H166563   5.750   4.761   0.449  1.3390  0.9898  0.9920
15024TIP3    H266564   5.714   4.765   0.302 -0.2430 -3.9214  1.0601
15025TIP3   OH266565   1.260   2.614   4.819 -0.2520  0.2727  0.7314
15025TIP3    H166566   1.227   2.700   4.846 -0.1572  0.1671  1.1884
15025TIP3    H266567   1.330   2.635   4.756 -0.2442  0.5300  0.8228
15026TIP3   OH266568   1.391   3.315  16.348  0.4807  0.8706 -0.2722
15026TIP3    H166569   1.484   3.331  16.333  0.6358  0.2380 -0.0527
15026TIP3    H266570   1.359   3.281  16.264  0.1917  2.1170 -0.6828
15027TIP3   OH266571   4.441   1.979   2.968  0.2795 -0.1146  0.1182
15027TIP3    H166572   4.364   1.949   3.015 -1.1509  3.1418  0.1356
15027TIP3    H266573   4.423   1.957   2.876 -0.7364  0.6930  0.1122
15028TIP3   OH266574   0.891   6.725   4.511 -0.1700 -0.0125  0.0336
15028TIP3    H166575   0.887   6.796   4.576 -0.1588 -1.1634  1.3491
15028TIP3    H266576   0.893   6.770   4.427 -1.0386  1.5310  0.7839
15029TIP3   OH266577   6.052   6.719   0.862 -0.1191  0.1581  0.5347
15029TIP3    H166578   6.125   6.658   0.865 -0.1705  0.1225  1.5873
15029TIP3    H266579   5.995   6.686   0.792  0.3275 -0.4447  0.4536
15030TIP3   OH266580   1.539   0.400   4.288  0.0825 -0.5968  0.0665
15030TIP3    H166581   1.583   0.427   4.208  1.4617 -4.1286 -0.5416
15030TIP3    H266582   1.572   0.459   4.355  1.3550  0.4312 -1.4162
15031TIP3   OH266583   4.625   5.272  11.561  0.5030  0.1369 -0.1817
15031TIP3    H166584   4.648   5.183  11.534  0.8547 -0.3834  1.6408
15031TIP3    H266585   4.645   5.327  11.486 -0.8915 -1.4571 -1.7963
15032TIP3   OH266586   2.639   5.797   4.322  0.4573 -0.3103  0.0452
15032TIP3    H166587   2.718   5.821   4.274  0.7117 -1.8793 -0.3625
15032TIP3    H266588   2.567   5.824   4.265  0.6906  0.6429  0.1851
15033TIP3   OH266589   3.451   3.623   4.930 -0.3142  0.4733  0.2428
15033TIP3    H166590   3.444   3.718   4.919  0.0104  0.2864 -2.1184
15033TIP3    H266591   3.532   3.600   4.884 -2.0243 -1.2826 -2.1657
15034TIP3   OH266592   3.099   0.172   2.592 -0.2791 -0.0493 -0.0238
15034TIP3    H166593   3.117   0.255   2.637 -2.4867  1.3123 -1.3962
15034TIP3    H266594   3.012   0.185   2.553  0.3928 -2.0376 -2.4867
15035TIP3   OH266595   0.227   5.551   0.032 -0.1050  1.1229  0.0232
15035TIP3    H166596   0.165   5.486   0.065  0.8159  0.5677  0.7376
15035TIP3    H266597   0.200   5.568  -0.058  0.4792 -1.3568 -0.6778
15036TIP3   OH266598   4.639   2.138  11.967 -0.2791 -0.1290  0.1904
15036TIP3    H166599   4.566   2.077  11.972 -1.1650  0.8939 -0.0016
15036TIP3    H266600   4.614   2.200  11.899  0.8721  0.1084 -0.0341
15037TIP3   OH266601   2.699   1.993  12.645  0.0406 -0.5136 -0.0839
15037TIP3    H166602   2.790   2.020  12.659  0.1757  0.6516 -2.5187
15037TIP3    H266603   2.673   1.951  12.726  1.9547  1.3731  1.6439
15038TIP3   OH266604   2.786   3.206   1.058 -0.1595  0.5547  1.1953
15038TIP3    H166605   2.758   3.278   1.002 -2.1132  0.1834  1.6198
15038TIP3    H266606   2.880   3.197   1.041 -0.7283  0.0290 -2.5464
15039TIP3   OH266607   5.193   3.990   0.406 -0.4009  0.5007 -0.2125
15039TIP3    H166608   5.176   4.060   0.470 -0.6809 -1.1880  1.6452
15039TIP3    H266609   5.170   3.910   0.452  1.9444 -1.0153 -1.5314
15040TIP3   OH266610   3.965   1.485   6.641 -0.1339 -0.0919  0.4636
15040TIP3    H166611   3.893   1.545   6.664  0.7342  0.4385  1.9282
15040TIP3    H266612   3.982   1.436   6.722  0.6372 -0.7650 -0.0940
15041TIP3   OH266613   3.724   5.321   3.374 -0.1769 -0.0611 -0.2386
15041TIP3    H166614   3.753   5.323   3.283  2.3319  0.9269  0.4690
15041TIP3    H266615   3.760   5.239   3.408 -2.4350 -1.2114 -0.4428
15042TIP3   OH266616   1.111   1.984  17.035  0.1418 -0.7227  0.2322
15042TIP3    H166617   1.033   1.947  17.075 -0.7385 -1.0096 -1.6527
15042TIP3    H266618   1.161   2.019  17.108 -1.8788 -0.2761  1.4678
15043TIP3   OH266619   0.537   3.595  17.366 -0.3184 -0.4687 -0.1106
15043TIP3    H166620   0.558   3.572  17.456  2.0244  0.5270 -0.3473
15043TIP3    H266621   0.590   3.536  17.312 -1.7132 -1.0791 -0.8812
15044TIP3   OH266622   4.868   1.148  12.987  0.4840 -0.4743 -0.1465
15044TIP3    H166623   4.855   1.067  13.036 -0.3235  0.1707  0.7437
15044TIP3    H266624   4.940   1.129  12.927 -0.8422 -2.4109 -1.2237
15045TIP3   OH266625   3.115   4.405  13.104  0.5395  0.4604 -0.1854
15045TIP3    H166626   3.172   4.329  13.114  1.0483  0.7025 -1.1194
15045TIP3    H266627   3.039   4.373  13.055  1.0056  0.6527 -1.0597
15046TIP3   OH266628   0.854   4.529  14.582 -0.3263  0.0845  0.5036
15046TIP3    H166629   0.842   4.561  14.672 -1.7319 -0.2276  0.4418
15046TIP3    H266630   0.771   4.549  14.538  0.9935  2.0082 -1.2997
15047TIP3   OH266631   4.000   2.331  17.111  0.4889  0.3286 -0.2390
15047TIP3    H166632   3.946   2.410  17.109  0.2144  0.3643  2.9577
15047TIP3    H266633   4.026   2.323  17.203  0.9635 -3.0069 -0.5614
15048TIP3   OH266634   4.413   5.626   4.448 -0.2333  0.2678 -0.5278
15048TIP3    H166635   4.444   5.702   4.400 -1.7869  1.5246  0.3264
15048TIP3    H266636   4.388   5.563   4.381  4.3304 -1.0806 -1.2843
15049TIP3   OH266637   5.136   1.169   4.125 -0.6752  0.6757 -0.1212
15049TIP3    H166638   5.230   1.179   4.139 -0.7574 -1.1793  2.5530
15049TIP3    H266639   5.096   1.220   4.196 -1.8233  2.4418 -1.9150
15050TIP3   OH266640   4.545   5.779   6.130  0.1782 -0.1555  0.1450
15050TIP3    H166641   4.559   5.717   6.058  1.7095  1.8057 -1.3486
15050TIP3    H266642   4.597   5.745   6.202  0.8266 -0.7268 -0.5821
15051TIP3   OH266643   1.994   2.656   4.991 -0.2770 -0.0989 -0.0244
15051TIP3    H166644   2.011   2.750   4.993  0.7260 -0.2590 -0.3578
15051TIP3    H266645   2.052   2.623   4.923  0.2983 -1.1399  0.9401
15052TIP3   OH266646   6.453   5.746  10.938 -0.5129 -0.3453 -0.4875
15052TIP3    H166647   6.371   5.795  10.934 -0.3015 -0.0108 -0.7251
15052TIP3    H266648   6.514   5.795  10.883  0.2665  0.1898  0.8085
15053TIP3   OH266649   0.780   3.238   6.360  0.3548  0.0619  0.0399
15053TIP3    H166650   0.687   3.259   6.359  0.3426  0.0489 -1.5239
15053TIP3    H266651   0.787   3.158   6.307  1.2484  0.0232  0.1993
15054TIP3   OH266652   5.163   3.130  12.720  0.0876  0.0832  0.4146
15054TIP3    H166653   5.126   3.162  12.638 -1.1734 -1.4514  0.3278
15054TIP3    H266654   5.208   3.049  12.696  1.0561  0.4297  1.0083
15055TIP3   OH266655   5.747   5.154  12.910 -0.1050  0.2573  0.2344
15055TIP3    H166656   5.832   5.116  12.884  1.5234  1.4136  3.4260
15055TIP3    H266657   5.690   5.078  12.919  1.5371 -0.9386  1.1610
15056TIP3   OH266658   6.355   2.347  16.260  0.2332 -0.4504  0.4846
15056TIP3    H166659   6.392   2.325  16.174  0.3883 -1.4296  0.7861
15056TIP3    H266660   6.430   2.355  16.318  0.2516  1.8476  0.2165
15057TIP3   OH266661   0.980   0.083   1.490 -0.6068 -0.0525 -0.0940
15057TIP3    H166662   1.023   0.096   1.406 -0.6782 -1.0125 -0.2955
15057TIP3    H266663   0.933  -0.001   1.480 -0.5283 -0.2326  0.9313
15058TIP3   OH266664   5.918   3.505  16.206  0.4811  0.4239  0.3622
15058TIP3    H166665   5.887   3.491  16.296 -0.4857 -2.1701 -0.2858
15058TIP3    H266666   6.013   3.495  16.212  0.4201  0.2137  1.0853
15059TIP3   OH266667   4.684   0.584  16.459 -0.3222 -0.6503  0.3833
15059TIP3    H166668   4.651   0.550  16.375 -0.1442 -1.6494  0.7091
15059TIP3    H266669   4.668   0.678  16.454 -2.4088 -0.9689  0.1554
15060TIP3   OH266670   5.147   0.254   3.531  0.5259 -0.5539 -0.3408
15060TIP3    H166671   5.209   0.187   3.560  1.3531  0.0081 -0.7808
15060TIP3    H266672   5.063   0.227   3.569  1.0670 -1.2367  0.4072
15061TIP3   OH266673   1.846   4.428   5.666  0.2476  0.1126 -0.1081
15061TIP3    H166674   1.917   4.457   5.723 -0.6997 -0.5501  1.4792
15061TIP3    H266675   1.766   4.450   5.714 -0.6503  0.7376 -1.7912
15062TIP3   OH266676   2.650   5.623  13.302 -0.1378 -0.0232 -0.3839
15062TIP3    H166677   2.687   5.538  13.279 -2.5068 -1.1787 -0.2115
15062TIP3    H266678   2.598   5.648  13.225 -0.9437  0.3676  0.2703
15063TIP3   OH266679   0.265   5.126  17.258 -0.5608 -0.3069  0.0868
15063TIP3    H166680   0.350   5.127  17.301 -0.3936 -4.2082  0.1829
15063TIP3    H266681   0.282   5.093  17.170 -1.7917  0.5870 -0.5201
15064TIP3   OH266682   2.368   4.975   0.736 -0.1367 -0.0935 -0.3467
15064TIP3    H166683   2.425   4.978   0.659 -0.8431 -0.7781 -0.9131
15064TIP3    H266684   2.323   4.890   0.730  0.3321 -0.4986  1.2157
15065TIP3   OH266685   0.533   1.132  15.812 -0.2167  0.2784  0.2187
15065TIP3    H166686   0.600   1.164  15.750 -0.4926  1.5371  0.5395
15065TIP3    H266687   0.450   1.146  15.766 -0.3147 -0.6479  0.0965
15066TIP3   OH266688   4.990   2.536  14.094 -0.1177 -0.2196 -0.2033
15066TIP3    H166689   5.042   2.491  14.028 -1.1857 -1.4356 -0.2485
15066TIP3    H266690   4.952   2.612  14.048  1.7359  0.8226 -0.1082
15067TIP3   OH266691   6.205   2.664   3.534 -0.2148  0.3728  0.3225
15067TIP3    H166692   6.182   2.662   3.627 -2.1484 -0.0585 -0.1141
15067TIP3    H266693   6.124   2.639   3.489 -0.3549  3.7731 -1.6723
15068TIP3   OH266694   2.943   2.624  16.487 -0.0204 -0.2365  0.0673
15068TIP3    H166695   2.892   2.680  16.545 -0.8545  0.7552 -1.5473
15068TIP3    H266696   2.929   2.536  16.521 -2.8579 -0.0149 -0.2760
15069TIP3   OH266697   1.845   0.915  14.687 -0.4715 -0.5905  0.4763
15069TIP3    H166698   1.822   0.831  14.726  0.0822 -0.3777  1.2848
15069TIP3    H266699   1.869   0.970  14.761  1.1169 -0.3265 -0.1833
15070TIP3   OH266700   1.725   6.257  11.550 -0.1803  0.3381  0.2873
15070TIP3    H166701   1.779   6.209  11.612 -1.0675 -0.7738  0.2527
15070TIP3    H266702   1.721   6.199  11.473 -1.6183  0.2580  0.3991
15071TIP3   OH266703   5.745   6.449  17.176  0.1871  0.1346 -0.0625
15071TIP3    H166704   5.653   6.474  17.168 -0.5120 -1.5997  1.6159
15071TIP3    H266705   5.788   6.527  17.212 -0.4102  1.2581 -1.6918
15072TIP3   OH266706   3.428   2.214  12.747  0.3751  0.0236 -0.0320
15072TIP3    H166707   3.446   2.307  12.756 -0.8240  0.3525 -0.8574
15072TIP3    H266708   3.347   2.200  12.796 -1.6278  0.2293 -3.0114
15073TIP3   OH266709   4.901   1.615  15.327  0.7557 -0.7205 -0.5758
15073TIP3    H166710   4.945   1.585  15.248  1.3093 -0.1227 -0.4987
15073TIP3    H266711   4.971   1.623  15.392  0.8684  1.8882 -0.9242
15074TIP3   OH266712   0.787   1.164  16.472  0.0680 -0.3716  0.2714
15074TIP3    H166713   0.817   1.129  16.388 -0.0586  0.4285 -0.1081
15074TIP3    H266714   0.867   1.195  16.514  0.2968 -1.7952  0.9521
15075TIP3   OH266715   0.246   5.421  12.412 -0.6671  0.0246  0.3747
15075TIP3    H166716   0.205   5.453  12.492 -0.0695  2.8924 -0.3367
15075TIP3    H266717   0.185   5.446  12.342  0.3486  0.5957 -0.3340
15076TIP3   OH266718   2.287   4.105   5.427 -0.5123  0.5878 -0.3183
15076TIP3    H166719   2.292   4.011   5.441  2.1631  0.7871  0.5231
15076TIP3    H266720   2.281   4.142   5.515  0.0324  1.2389 -0.5447
15077TIP3   OH266721   2.168   2.307   4.044 -0.0207 -0.2479 -0.4476
15077TIP3    H166722   2.210   2.231   4.003  1.7390  1.0787 -1.2422
15077TIP3    H266723   2.234   2.340   4.105  0.3565  2.1359 -2.0094
15078TIP3   OH266724   2.712   0.508  13.646  0.0999 -0.3989  0.3331
15078TIP3    H166725   2.804   0.488  13.663 -0.5175 -2.8246  1.1925
15078TIP3    H266726   2.664   0.449  13.704 -2.0233  0.6021 -0.3250
15079TIP3   OH266727   5.166   4.043   6.293 -0.0719  0.0169  0.7857
15079TIP3    H166728   5.248   4.078   6.258 -0.0092 -0.3707  0.5350
15079TIP3    H266729   5.192   3.996   6.373 -0.1520  0.5072  1.1058
15080TIP3   OH266730   4.678   2.611   0.889 -0.4016 -0.2581  0.2043
15080TIP3    H166731   4.704   2.521   0.872 -0.9612 -0.4269  0.2275
15080TIP3    H266732   4.722   2.634   0.971  0.5446 -0.1700 -0.3218
15081TIP3   OH266733   1.078   3.432   5.903 -0.7706 -0.6960 -0.6656
15081TIP3    H166734   1.086   3.522   5.872 -0.9716 -0.6755 -0.6572
15081TIP3    H266735   1.059   3.441   5.997  3.0449 -0.7653  0.2710
15082TIP3   OH266736   3.789   2.385   6.177  0.3639 -0.1090 -0.3064
15082TIP3    H166737   3.827   2.406   6.262  1.1004  2.1034 -1.1293
15082TIP3    H266738   3.694   2.391   6.191  0.4927  1.8539  0.0463
15083TIP3   OH266739   3.356   3.533   5.296  0.0405 -0.0775  0.0112
15083TIP3    H166740   3.401   3.563   5.375 -0.7943 -1.3678  1.0194
15083TIP3    H266741   3.299   3.606   5.272 -0.5867 -0.1153  1.3219
15084TIP3   OH266742   3.996   0.250   1.954 -0.4775  0.0168 -0.3792
15084TIP3    H166743   3.991   0.343   1.932 -1.2509 -0.4686 -2.5798
15084TIP3    H266744   3.926   0.237   2.018 -3.3775  0.2593 -3.2353
15085TIP3   OH266745   4.071   2.288  12.109  0.1959  0.1350  0.4138
15085TIP3    H166746   4.088   2.367  12.161 -1.2447  0.0556  1.0543
15085TIP3    H266747   3.987   2.256  12.141 -1.5179  0.8764 -2.9383
15086TIP3   OH266748   0.151   5.597  17.179 -0.4654 -0.2727  0.2873
15086TIP3    H166749   0.163   5.692  17.174 -0.6799 -0.2770 -0.4190
15086TIP3    H266750   0.080   5.579  17.118 -0.1837 -0.9318  0.1505
15087TIP3   OH266751   0.873   1.051   5.960 -0.1462  1.0942  0.0843
15087TIP3    H166752   0.900   1.052   6.052 -0.9534  0.1624  0.3388
15087TIP3    H266753   0.778   1.040   5.963 -0.0229 -0.4313 -0.8770
15088TIP3   OH266754   0.512   3.461   3.208  0.0924  0.2327 -0.0613
15088TIP3    H166755   0.475   3.372   3.208  0.3089  0.1377  0.5734
15088TIP3    H266756   0.595   3.452   3.255 -0.0291  0.8288  0.2677
15089TIP3   OH266757   2.680   2.277   4.214  0.5555  0.4922  0.7798
15089TIP3    H166758   2.677   2.329   4.294 -2.3810  0.5855  0.7145
15089TIP3    H266759   2.721   2.194   4.241  2.1618  1.5174  1.6602
15090TIP3   OH266760   0.876   6.002  13.889 -0.0075 -0.1200 -0.1000
15090TIP3    H166761   0.827   6.084  13.901 -3.1756 -1.5469 -1.9377
15090TIP3    H266762   0.922   5.990  13.971 -1.1858  2.4075  1.0609
15091TIP3   OH266763   2.861   6.699  13.357 -0.5242  0.2269 -0.0798
15091TIP3    H166764   2.925   6.743  13.300  1.0407 -0.7986  0.8001
15091TIP3    H266765   2.858   6.609  13.324  0.1242 -0.2807  1.1717
15092TIP3   OH266766   1.995   6.181  13.427  0.7083 -0.1558 -0.3445
15092TIP3    H166767   2.021   6.107  13.482 -2.1707 -1.6260 -0.7950
15092TIP3    H266768   2.065   6.188  13.362  1.5305 -1.8249  0.2925
15093TIP3   OH266769   2.235   0.476   1.790  0.3033  0.3784  0.1487
15093TIP3    H166770   2.235   0.569   1.769  1.5565  0.4967  0.6244
15093TIP3    H266771   2.142   0.453   1.796 -0.0235  1.5117 -0.3044
15094TIP3   OH266772   2.029   1.810   1.442  0.6021 -0.7022 -0.2108
15094TIP3    H166773   2.051   1.802   1.349  0.1097  0.9531 -0.5061
15094TIP3    H266774   2.073   1.891   1.469  1.7434 -1.7907  1.3239
15095TIP3   OH266775   1.956   2.901   2.013  0.5325  0.6169 -0.4633
15095TIP3    H166776   1.960   2.855   2.097  1.5447  3.9339  1.5004
15095TIP3    H266777   1.870   2.879   1.977  0.2804 -1.3273  1.1731
15096TIP3   OH266778   5.037   6.089  13.355  0.0537 -0.0760 -0.6799
15096TIP3    H166779   4.970   6.135  13.404  0.8022  0.3398 -0.0267
15096TIP3    H266780   4.994   6.009  13.324 -0.6349  0.0217  0.0085
15097TIP3   OH266781   1.523   1.566  13.062  0.6211 -0.4908  0.7819
15097TIP3    H166782   1.513   1.572  13.157  0.4821 -2.1757  0.8944
15097TIP3    H266783   1.594   1.627  13.041  1.6686 -1.2018  2.1586
15098TIP3   OH266784   4.034   1.996   3.920  0.0611  0.3528 -0.5600
15098TIP3    H166785   4.099   1.977   3.988 -1.5289  2.5740  1.7705
15098TIP3    H266786   4.068   2.073   3.874 -0.3146  0.7707 -0.1508
15099TIP3   OH266787   0.255   0.357  12.510  0.6453 -0.0086  0.5461
15099TIP3    H166788   0.209   0.335  12.591 -0.5639  1.9360  0.4522
15099TIP3    H266789   0.211   0.436  12.478  0.6709 -1.0561 -2.3595
15100TIP3   OH266790   6.774   4.573  17.114 -0.1882 -0.1272  0.2269
15100TIP3    H166791   6.844   4.520  17.077 -1.3764 -0.1171 -2.2451
15100TIP3    H266792   6.808   4.604  17.197  1.4337 -2.8722  0.7131
15101TIP3   OH266793   2.195   1.019   3.352  0.0157  0.4746  0.0247
15101TIP3    H166794   2.226   1.009   3.262  1.1571 -1.3600  0.5889
15101TIP3    H266795   2.236   1.100   3.382  1.0194  0.2062 -0.5663
15102TIP3   OH266796   3.092   2.760   0.028 -0.4444 -0.5367  0.2174
15102TIP3    H166797   3.154   2.691   0.051  0.1320  0.0841  0.5635
15102TIP3    H266798   3.036   2.721  -0.039 -1.0770 -1.8379  1.4475
15103TIP3   OH266799   1.565   6.570  13.281  0.0493  0.0636  0.0852
15103TIP3    H166800   1.520   6.610  13.356  1.8874 -1.5794  2.1592
15103TIP3    H266801   1.653   6.550  13.312  0.8246 -0.9520 -2.4591
15104TIP3   OH266802   4.584   6.355   1.121 -0.6405  0.2184  0.4434
15104TIP3    H166803   4.631   6.437   1.105 -0.9275  0.1607 -0.7984
15104TIP3    H266804   4.627   6.291   1.063  0.8603 -1.0431  2.7651
15105TIP3   OH266805   0.536   3.207  14.116  0.6580 -0.4497  0.0968
15105TIP3    H166806   0.451   3.179  14.149  0.7325 -1.6267 -0.6385
15105TIP3    H266807   0.516   3.263  14.042  0.4953  1.9805  1.8716
15106TIP3   OH266808   1.048   1.491  17.259  0.3028  0.0402  0.0983
15106TIP3    H166809   1.114   1.464  17.195  0.9139  1.1111  0.2443
15106TIP3    H266810   1.097   1.497  17.341  0.0867  1.0500  0.1658
15107TIP3   OH266811   6.148   4.790  12.873  0.0144 -0.4315 -0.1720
15107TIP3    H166812   6.199   4.722  12.828  2.0920  0.9496  0.0054
15107TIP3    H266813   6.150   4.764  12.965  0.2081 -0.4905 -0.1931
15108TIP3   OH266814   4.391   1.738   2.021 -0.4729 -0.2459  0.1210
15108TIP3    H166815   4.382   1.804   2.090  0.0603  0.1175 -0.1584
15108TIP3    H266816   4.480   1.748   1.989 -0.0529 -1.7434  0.7368
15109TIP3   OH266817   1.000   4.209   0.224  0.2748 -0.4530 -0.5800
15109TIP3    H166818   1.039   4.127   0.256 -2.5349 -1.1836  1.3346
15109TIP3    H266819   0.979   4.191   0.132 -0.5221 -2.0438 -0.1239
15110TIP3   OH266820   3.662   2.470   4.582  0.5032 -0.4573 -0.5136
15110TIP3    H166821   3.582   2.434   4.545 -0.0227 -1.9426  1.8001
15110TIP3    H266822   3.680   2.414   4.658  1.4542  2.3108  1.4733
15111TIP3   OH266823   5.383   4.577  16.390 -0.2240 -0.4146  0.3096
15111TIP3    H166824   5.366   4.638  16.319 -1.9407 -0.4448  0.6493
15111TIP3    H266825   5.475   4.593  16.414  0.3042 -0.2339 -1.7057
15112TIP3   OH266826   5.719   0.632  15.226  0.0334  0.2331 -0.3616
15112TIP3    H166827   5.714   0.713  15.176  1.2702  0.3935 -0.2737
15112TIP3    H266828   5.706   0.659  15.317 -2.1308 -0.0473 -0.5336
15113TIP3   OH266829   2.483   4.117   1.215  0.5340 -0.2653 -0.8300
15113TIP3    H166830   2.533   4.126   1.134  2.3184  0.3498  0.2803
15113TIP3    H266831   2.486   4.023   1.235  0.1092 -0.4132 -1.4605
15114TIP3   OH266832   6.563   2.941  11.640 -0.4282  0.3956  0.3942
15114TIP3    H166833   6.574   3.036  11.649 -2.3979  0.5817  1.2213
15114TIP3    H266834   6.627   2.903  11.700 -0.1657  1.2122  0.6362
15115TIP3   OH266835   1.487   6.060   0.697  0.7704  0.5600 -0.4262
15115TIP3    H166836   1.492   5.972   0.734  1.7586  0.9616  0.4343
15115TIP3    H266837   1.570   6.073   0.652 -0.3802  0.0986 -2.8794
15116TIP3   OH266838   6.415   1.205   0.065  0.1656 -0.1608  0.4928
15116TIP3    H166839   6.480   1.273   0.049 -0.2379  0.6159  1.9458
15116TIP3    H266840   6.389   1.174  -0.022  1.5161  0.4211 -0.1334
15117TIP3   OH266841   4.510   5.412   3.056 -0.3357 -0.0008 -0.1364
15117TIP3    H166842   4.494   5.472   2.983  2.0202  0.7120 -0.1688
15117TIP3    H266843   4.574   5.350   3.023  3.1753  2.0981  1.9654
15118TIP3   OH266844   3.458   6.230  16.812 -0.1691 -0.2345 -0.2037
15118TIP3    H166845   3.511   6.158  16.777 -1.2849 -0.5948 -1.2180
15118TIP3    H266846   3.414   6.193  16.889  0.5791 -0.1078  0.2931
15119TIP3   OH266847   5.173   4.536   0.878  0.0381 -0.4046 -0.3095
15119TIP3    H166848   5.152   4.537   0.785  0.0695  0.1640 -0.3144
15119TIP3    H266849   5.262   4.503   0.882  0.1739 -0.0749 -0.5171
15120TIP3   OH266850   5.121   0.932   6.334  0.2941  0.4988 -0.5356
15120TIP3    H166851   5.148   0.844   6.358  0.0249  0.5398 -0.0882
15120TIP3    H266852   5.026   0.933   6.343  0.3107  0.8876 -0.3513
15121TIP3   OH266853   3.726   0.311   0.116  0.1888  0.0239  0.4680
15121TIP3    H166854   3.759   0.264   0.039 -0.6170 -1.6528  1.1077
15121TIP3    H266855   3.805   0.340   0.162  0.6821  0.8665 -0.8329
15122TIP3   OH266856   2.381   3.125   1.761  0.6055 -0.2244  0.9185
15122TIP3    H166857   2.451   3.059   1.762  0.5714 -0.2892 -0.0184
15122TIP3    H266858   2.312   3.087   1.816  0.7186 -0.8321  0.6509
15123TIP3   OH266859   4.219   0.002   0.982  0.0613  0.4514  0.5763
15123TIP3    H166860   4.152  -0.041   1.036 -1.6494 -0.3430 -1.9645
15123TIP3    H266861   4.302  -0.023   1.022 -1.0367 -1.8834  1.6142
15124TIP3   OH266862   3.273   2.147   1.884  0.3117 -0.0812  0.5047
15124TIP3    H166863   3.267   2.179   1.974  2.1317  0.1512  0.5760
15124TIP3    H266864   3.271   2.052   1.893  2.9389 -0.1524  1.0789
15125TIP3   OH266865   0.538   0.408  17.017 -0.9957 -0.0991 -0.2436
15125TIP3    H166866   0.451   0.422  16.980 -1.0529 -0.6395 -0.3164
15125TIP3    H266867   0.544   0.472  17.088 -0.7810  1.1538 -1.3406
15126TIP3   OH266868   2.418   2.964  11.144  0.0124  0.1928 -0.2237
15126TIP3    H166869   2.378   3.031  11.088 -1.9214 -1.3533 -0.8010
15126TIP3    H266870   2.512   2.981  11.137 -0.2822  1.3304 -2.2898
15127TIP3   OH266871   0.027   2.262  11.518 -0.1220  0.5090 -0.6454
15127TIP3    H166872   0.037   2.170  11.544 -0.4456  0.1799 -1.6627
15127TIP3    H266873   0.117   2.296  11.517 -0.1391  0.8099  1.7797
15128TIP3   OH266874   1.590   0.607  14.141 -0.0508  0.4372  0.4360
15128TIP3    H166875   1.671   0.635  14.098 -1.6570  1.8054 -1.9650
15128TIP3    H266876   1.608   0.517  14.169  1.6972 -0.0334 -1.8436
15129TIP3   OH266877   2.265   0.138   1.446 -0.3169 -0.5697 -0.2942
15129TIP3    H166878   2.295   0.082   1.517 -0.1688 -0.4459 -0.2599
15129TIP3    H266879   2.344   0.177   1.410 -0.4141 -0.4253 -0.3542
15130TIP3   OH266880   2.886   1.904  12.861 -0.0474  0.1586 -0.1041
15130TIP3    H166881   2.970   1.911  12.815 -0.1606  0.7761 -0.2251
15130TIP3    H266882   2.908   1.872  12.948  0.6115  2.6886  0.7277
15131TIP3   OH266883   1.215   6.428  15.425  0.1381  0.0881 -0.3631
15131TIP3    H166884   1.184   6.351  15.472 -0.4890  0.9299  0.6480
15131TIP3    H266885   1.291   6.397  15.375  0.3902 -0.9947  0.6501
15132TIP3   OH266886   1.386   3.036  13.229 -0.1356  0.0003 -0.5090
15132TIP3    H166887   1.319   2.996  13.285  0.0262 -1.7291 -1.4926
15132TIP3    H266888   1.469   3.017  13.273 -0.1481  0.7552 -0.1255
15133TIP3   OH266889   5.179   1.803   1.432 -0.7523 -0.0592  0.3664
15133TIP3    H166890   5.091   1.838   1.417 -0.3088  0.8694 -0.1952
15133TIP3    H266891   5.230   1.835   1.358  0.3104  0.3376  1.2443
15134TIP3   OH266892   3.526   0.880  13.783 -0.0779  0.0125 -0.0770
15134TIP3    H166893   3.584   0.873  13.708 -0.1205 -0.9748 -0.0288
15134TIP3    H266894   3.523   0.792  13.820 -0.0935  0.4745  1.0579
15135TIP3   OH266895   2.546   5.214  10.847 -0.1408  0.6471  0.3862
15135TIP3    H166896   2.609   5.257  10.789  0.9321 -0.0015  1.0285
15135TIP3    H266897   2.463   5.221  10.801  0.6274  0.3458 -1.1501
15136TIP3   OH266898   3.135   4.936  15.217  0.4208  0.2007 -0.1788
15136TIP3    H166899   3.198   4.898  15.278 -0.5145  0.5475  1.0450
15136TIP3    H266900   3.115   4.866  15.156  0.7833 -0.4002  0.3812
15137TIP3   OH266901   2.752   1.108   2.268  0.3549 -0.2688  0.3833
15137TIP3    H166902   2.758   1.090   2.362 -1.5324 -0.5975  0.4865
15137TIP3    H266903   2.658   1.112   2.251  0.6515 -1.0113 -1.6528
15138TIP3   OH266904   6.004   2.559   3.379 -0.1041 -0.4200  1.1036
15138TIP3    H166905   5.959   2.481   3.412  1.9197 -1.3610  1.7952
15138TIP3    H266906   6.018   2.541   3.286 -0.5174 -0.4203  1.0383
15139TIP3   OH266907   5.660   0.059   1.259  0.4187 -0.3467 -0.1338
15139TIP3    H166908   5.573   0.074   1.224  0.1088 -0.5817  0.5201
15139TIP3    H266909   5.717   0.117   1.208 -0.0280 -0.6111 -0.9484
15140TIP3   OH266910   0.243   2.102   2.987 -0.2924 -0.2810 -0.5887
15140TIP3    H166911   0.211   2.176   2.936  0.9354  0.3441 -0.4754
15140TIP3    H266912   0.335   2.093   2.962 -0.3690 -1.6426 -0.4535
15141TIP3   OH266913   6.615   1.373  11.826  0.3976 -0.6773  0.1329
15141TIP3    H166914   6.536   1.423  11.806 -1.4204 -2.0985  2.9912
15141TIP3    H266915   6.612   1.299  11.766  1.1736  0.7068 -1.6936
15142TIP3   OH266916   6.416   1.131   1.643 -0.0299  0.0078 -0.0134
15142TIP3    H166917   6.391   1.214   1.602 -0.7836 -0.9936 -1.6989
15142TIP3    H266918   6.511   1.132   1.642 -0.0197  0.1538 -1.5974
15143TIP3   OH266919   3.937   0.132  12.245  0.4096 -0.7815  0.0343
15143TIP3    H166920   4.021   0.161  12.280  0.1781 -1.2921  1.0535
15143TIP3    H266921   3.880   0.209  12.250 -0.1941 -1.2900  2.6971
15144TIP3   OH266922   2.015   6.632  12.139  0.8562 -0.5727  0.3423
15144TIP3    H166923   2.057   6.702  12.190 -0.2799  0.5510 -0.2123
15144TIP3    H266924   1.961   6.586  12.203 -1.4040  1.4944  0.0506
15145TIP3   OH266925   2.310   5.511   6.455  0.0243 -0.2425 -0.3056
15145TIP3    H166926   2.253   5.501   6.531  1.0938  0.4136  0.6061
15145TIP3    H266927   2.301   5.428   6.407 -1.5733 -0.2028 -0.1279
15146TIP3   OH266928   2.422   5.466   2.415  0.0684 -0.2754  0.4211
15146TIP3    H166929   2.501   5.426   2.377  0.6688  0.0473  1.2748
15146TIP3    H266930   2.364   5.480   2.341  1.6474  1.4055 -0.6024
15147TIP3   OH266931   5.166   1.070  14.880  0.5353 -0.4758 -0.2335
15147TIP3    H166932   5.084   1.038  14.843  0.1084  1.0942 -0.7019
15147TIP3    H266933   5.226   0.996  14.872 -0.7864 -1.6165  0.0228
15148TIP3   OH266934   4.000   3.409   1.554  0.4120 -0.1936 -0.3488
15148TIP3    H166935   4.095   3.425   1.559  0.2248  0.6210  1.1220
15148TIP3    H266936   3.973   3.397   1.645 -1.2071  1.5113 -0.5583
15149TIP3   OH266937   4.898   4.255   0.905 -0.3025 -0.0619 -0.7986
15149TIP3    H166938   4.915   4.321   0.838  0.6023 -0.7132 -1.2364
15149TIP3    H266939   4.835   4.195   0.865 -1.3322  0.6708 -0.3016
15150TIP3   OH266940   3.261   1.008   5.209  0.1984 -0.1960 -0.4677
15150TIP3    H166941   3.197   1.002   5.139  0.4550 -1.8436 -0.5871
15150TIP3    H266942   3.345   1.019   5.164  0.2868 -0.5992 -0.4053
15151TIP3   OH266943   0.014   0.166  13.647  0.6332 -0.4895 -0.3194
15151TIP3    H166944   0.058   0.204  13.571  0.8258 -1.4057 -0.6709
15151TIP3    H266945   0.000   0.074  13.624  0.7980 -0.8071  0.8017
15152TIP3   OH266946   6.162   3.982  17.404 -0.4331  0.0161  0.2922
15152TIP3    H166947   6.257   3.987  17.419 -0.1556 -0.6781 -1.0077
15152TIP3    H266948   6.125   3.964  17.490  0.7271 -0.7288  0.6711
15153TIP3   OH266949   6.662   2.325  17.079  0.6624  0.6888  0.6246
15153TIP3    H166950   6.569   2.344  17.090  0.1162 -1.4677  0.1948
15153TIP3    H266951   6.707   2.403  17.112 -1.3059  2.6322 -1.0242
15154TIP3   OH266952   1.483   4.950  15.176 -0.1760 -0.2074  0.4990
15154TIP3    H166953   1.483   5.000  15.257 -0.0765 -1.6700  1.4274
15154TIP3    H266954   1.570   4.912  15.170 -0.3698 -0.6017  0.0297
15155TIP3   OH266955   5.339   0.972   2.241 -0.0888  0.2691 -0.2865
15155TIP3    H166956   5.388   1.038   2.192  1.3896  1.3457  2.3917
15155TIP3    H266957   5.393   0.893   2.235  1.1881  0.9573  1.1326
15156TIP3   OH266958   0.976   0.894   0.482  0.3093 -0.5118 -0.1264
15156TIP3    H166959   0.885   0.917   0.461  0.5453  0.5577 -0.0042
15156TIP3    H266960   0.972   0.801   0.503 -0.7686 -0.4782 -0.1174
15157TIP3   OH266961   4.549   5.804  15.287  0.0507  0.3330 -0.1243
15157TIP3    H166962   4.538   5.728  15.231  0.4787  0.7511 -0.8023
15157TIP3    H266963   4.639   5.797  15.319  0.9348  1.6938 -2.0268
15158TIP3   OH266964   0.165   5.234  14.981  0.0974 -0.3417 -0.3091
15158TIP3    H166965   0.092   5.290  15.007 -0.0884 -0.9836  0.6203
15158TIP3    H266966   0.200   5.275  14.902  0.8986  1.9278  1.1081
15159TIP3   OH266967   5.188   5.769  17.223  0.2613 -0.0967 -0.5029
15159TIP3    H166968   5.155   5.702  17.163 -0.4596 -0.3260  0.1254
15159TIP3    H266969   5.108   5.808  17.260  0.5936  2.2309 -2.0472
15160TIP3   OH266970   3.910   4.929  16.800  0.1435 -0.6998  0.2373
15160TIP3    H166971   3.953   4.951  16.718  1.4120  2.7260  1.6324
15160TIP3    H266972   3.817   4.928  16.779  0.5151 -3.7023 -1.8916
15161TIP3   OH266973   0.735   6.409   2.266  0.1138 -0.7448 -0.0013
15161TIP3    H166974   0.666   6.433   2.327 -1.1700 -0.4186 -1.4958
15161TIP3    H266975   0.755   6.491   2.220  1.6270 -0.8068  0.5037
15162TIP3   OH266976   1.753   0.330   1.344  0.5743  0.8279 -0.5440
15162TIP3    H166977   1.703   0.411   1.356  0.6001  1.6201 -4.5708
15162TIP3    H266978   1.827   0.355   1.288  1.4393 -1.7372 -0.6860
15163TIP3   OH266979   0.295   5.388   5.316 -0.1499 -0.4840  0.0208
15163TIP3    H166980   0.232   5.316   5.316 -0.8648  0.1290 -0.1096
15163TIP3    H266981   0.245   5.464   5.284  0.7457 -0.0664 -0.4184
15164TIP3   OH266982   5.319   0.463  12.040  0.1150  0.1403  0.0889
15164TIP3    H166983   5.385   0.459  11.970  0.7741  1.3161  0.6173
15164TIP3    H266984   5.235   0.450  11.994  0.6960 -2.0178 -0.5137
15165TIP3   OH266985   1.742   4.979   4.710  0.1601 -0.2701  0.2436
15165TIP3    H166986   1.811   5.033   4.672  0.8315 -0.8557  0.6099
15165TIP3    H266987   1.688   5.041   4.760 -0.1726  0.3527 -0.8551
15166TIP3   OH266988   5.781   3.258   3.521  0.2147  0.6268  0.1864
15166TIP3    H166989   5.838   3.325   3.557 -1.1928  1.4234  1.0193
15166TIP3    H266990   5.830   3.176   3.532  0.6837  1.1104  2.0171
15167TIP3   OH266991   3.397   1.522  11.052  0.4449  0.3406 -0.0743
15167TIP3    H166992   3.356   1.579  10.987 -1.1633  1.4342  1.7599
15167TIP3    H266993   3.491   1.531  11.037  0.1291  0.4707 -2.2495
15168TIP3   OH266994   6.295   3.946  14.951  0.0420  0.8626 -0.3599
15168TIP3    H166995   6.323   3.903  15.032 -0.4612 -0.4561 -0.8601
15168TIP3    H266996   6.219   3.999  14.977 -0.3222  0.1832 -0.0210
15169TIP3   OH266997   1.850   2.806  16.446  0.4999 -0.2812 -0.2966
15169TIP3    H166998   1.883   2.778  16.360 -3.2792 -1.4663 -1.5761
15169TIP3    H266999   1.846   2.901  16.440  0.5599 -0.3347 -1.3395
15170TIP3   OH267000   0.690   6.624   0.077  0.1416  0.3268 -0.4717
15170TIP3    H167001   0.664   6.609   0.168 -2.2303  1.8011 -0.8323
15170TIP3    H267002   0.696   6.719   0.069  0.0462  0.2360 -1.9132
15171TIP3   OH267003   2.715   3.811   5.290 -0.2714  0.6059 -0.1579
15171TIP3    H167004   2.802   3.820   5.331  1.1472 -1.2891 -2.4723
15171TIP3    H267005   2.663   3.764   5.355  1.0150  0.1149  0.5574
15172TIP3   OH267006   6.760   0.940  13.808  0.3704  0.4948 -0.4000
15172TIP3    H167007   6.789   0.945  13.717  1.6614  0.1340 -0.0325
15172TIP3    H267008   6.709   0.859  13.813  1.4186 -0.1895 -0.5210
15173TIP3   OH267009   0.090   6.697  10.971 -0.0904  0.3544  0.1143
15173TIP3    H167010   0.126   6.780  11.001  0.0428  0.7437 -1.0729
15173TIP3    H267011   0.084   6.706  10.876 -1.5841 -0.3863  0.1051
15174TIP3   OH267012   5.342   1.259   6.217 -0.5884 -0.1530 -0.0461
15174TIP3    H167013   5.247   1.252   6.215 -0.7086 -0.0142  2.3847
15174TIP3    H267014   5.360   1.335   6.273  0.9292 -1.3058  1.1284
15175TIP3   OH267015   1.087   3.419  13.364 -0.0883 -0.1108  0.4411
15175TIP3    H167016   1.119   3.493  13.416 -0.3914 -0.0542  0.5496
15175TIP3    H267017   1.163   3.361  13.356 -0.5113 -1.0711  2.6002
15176TIP3   OH267018   6.509   3.754  14.523  0.2461  0.5850 -0.1362
15176TIP3    H167019   6.483   3.784  14.436  0.6669  0.1868 -0.4046
15176TIP3    H267020   6.605   3.753  14.521  0.2943  1.7022  0.7288
15177TIP3   OH267021   5.386   3.771   6.597  0.0020 -0.0906 -0.3016
15177TIP3    H167022   5.327   3.712   6.550 -0.3470 -1.5092  1.7947
15177TIP3    H267023   5.331   3.844   6.624 -0.6121 -0.9199  0.7676
15178TIP3   OH267024   0.092   0.612  14.319  0.3102  0.0863  0.3684
15178TIP3    H167025   0.065   0.543  14.380  0.5157 -0.6314 -0.3290
15178TIP3    H267026   0.150   0.567  14.257 -1.3063  0.3464 -1.4398
15179TIP3   OH267027   1.112   2.025  15.667  0.0108  0.2938 -0.2679
15179TIP3    H167028   1.117   2.093  15.734  1.4153  0.3523 -0.4004
15179TIP3    H267029   1.128   1.943  15.715  1.2520  0.3578 -0.5464
15180TIP3   OH267030   5.106   1.836  12.663  0.0860 -0.3747 -0.7941
15180TIP3    H167031   5.054   1.917  12.665  0.4675 -0.1345  1.0120
15180TIP3    H267032   5.158   1.839  12.743  1.3184 -1.6471 -1.5106
15181TIP3   OH267033   3.019   4.280   6.366 -0.0438 -0.2681  0.2159
15181TIP3    H167034   3.086   4.348   6.360  0.4871 -0.6907  1.1846
15181TIP3    H267035   3.045   4.227   6.441 -0.5430 -1.4500 -0.4194
15182TIP3   OH267036   2.829   6.720  13.953 -0.4478  0.1861  0.2448
15182TIP3    H167037   2.812   6.684  14.040 -0.2925 -1.2346 -0.2927
15182TIP3    H267038   2.882   6.799  13.970  0.7801 -0.8339  1.3737
15183TIP3   OH267039   4.385   6.395  16.416  0.1258 -0.1962 -0.2374
15183TIP3    H167040   4.455   6.335  16.393  1.6938  0.7907  1.6625
15183TIP3    H267041   4.306   6.341  16.418  1.4031 -2.1361  1.0477
15184TIP3   OH267042   0.757   2.989   1.132  0.1047 -0.2669  0.2320
15184TIP3    H167043   0.705   2.910   1.117 -0.7597  0.4008 -0.4419
15184TIP3    H267044   0.700   3.046   1.184 -0.4103  0.9994 -1.6149
15185TIP3   OH267045   2.618   2.391  14.239  0.2273 -0.6149 -0.4441
15185TIP3    H167046   2.706   2.366  14.264  0.0813  0.0258  0.7936
15185TIP3    H267047   2.561   2.345  14.301 -0.3067 -0.8704 -1.1036
15186TIP3   OH267048   2.481   4.196   0.098  0.3477  0.4783 -0.2302
15186TIP3    H167049   2.421   4.224   0.029 -0.5842 -1.1707 -0.1470
15186TIP3    H267050   2.557   4.254   0.090  0.1789  0.4625 -2.5077
15187TIP3   OH267051   5.223   4.054  13.502 -0.5376 -0.4988 -0.1680
15187TIP3    H167052   5.154   4.097  13.451  0.1305 -0.1884 -0.8377
15187TIP3    H267053   5.190   4.053  13.592 -1.1731  0.1504 -0.3834
15188TIP3   OH267054   4.676   5.061  12.058 -0.9902 -0.3118  0.2392
15188TIP3    H167055   4.685   5.145  12.013 -1.0826  0.2936  1.3166
15188TIP3    H267056   4.588   5.032  12.036 -1.3639  0.4094  0.7266
15189TIP3   OH267057   1.860   6.338  11.268  0.1520  0.1719 -0.1675
15189TIP3    H167058   1.847   6.292  11.185  1.1007  0.7378 -0.6487
15189TIP3    H267059   1.771   6.359  11.298 -0.2067 -0.1550 -0.9704
15190TIP3   OH267060   6.468   5.239  17.318  0.4281  0.0143  0.1453
15190TIP3    H167061   6.530   5.312  17.315 -1.5265  1.7164 -1.4104
15190TIP3    H267062   6.412   5.258  17.393  0.0791 -0.0212 -0.1030
15191TIP3   OH267063   5.741   5.149   3.243 -0.6850 -0.0576  0.7016
15191TIP3    H167064   5.742   5.057   3.218 -2.1235  0.0873  0.0278
15191TIP3    H267065   5.832   5.178   3.234 -0.4110 -1.1318 -0.0909
15192TIP3   OH267066   0.088   5.971  10.942 -0.1352 -1.0469  0.6775
15192TIP3    H167067   0.028   5.972  10.867 -0.3689  1.8411  0.7675
15192TIP3    H267068   0.076   5.885  10.981 -4.1293 -0.7511  0.5479
15193TIP3   OH267069   5.166   6.598  14.370 -0.5386 -0.2020  0.0691
15193TIP3    H167070   5.153   6.630  14.281 -0.5554  0.9615  0.4759
15193TIP3    H267071   5.243   6.646  14.402 -2.1300  1.4996  1.6187
15194TIP3   OH267072   0.832   6.391   4.769 -0.0350 -0.2523  0.7674
15194TIP3    H167073   0.770   6.462   4.750 -0.4439 -0.7912  0.0397
15194TIP3    H267074   0.776   6.319   4.801  0.4993  0.1894  2.8518
15195TIP3   OH267075   6.378   2.671  14.614 -0.2615  0.6586 -0.2635
15195TIP3    H167076   6.457   2.650  14.564  0.0302  1.0001  0.0511
15195TIP3    H267077   6.409   2.724  14.687 -0.6026 -0.3457  0.6416
15196TIP3   OH267078   0.847   3.337  11.795  0.1704  0.3986 -0.1507
15196TIP3    H167079   0.915   3.336  11.862  0.0356 -2.2347  0.0858
15196TIP3    H267080   0.892   3.308  11.715 -0.5330 -0.9380 -0.0922
15197TIP3   OH267081   2.249   2.189  15.124 -0.1369 -0.0683  0.3350
15197TIP3    H167082   2.264   2.282  15.104  0.9772  0.1487  2.0426
15197TIP3    H267083   2.187   2.161  15.057 -0.9462  2.0544  0.1019
15198TIP3   OH267084   2.344   5.383  11.073  0.2550 -0.5380  0.6061
15198TIP3    H167085   2.355   5.465  11.024 -1.4666 -0.1578  0.7657
15198TIP3    H267086   2.365   5.314  11.010 -2.0370 -0.0667 -0.8055
15199TIP3   OH267087   0.195   4.859  14.493 -0.6268  0.1674  0.5609
15199TIP3    H167088   0.135   4.890  14.425  0.8683  1.1073 -0.4051
15199TIP3    H267089   0.203   4.932  14.554  0.2381  0.4225  0.1611
15200TIP3   OH267090   2.121   5.813   3.609  0.2922 -0.0450  0.2911
15200TIP3    H167091   2.183   5.878   3.643  0.4760  0.0300 -0.1901
15200TIP3    H267092   2.089   5.768   3.688 -1.8937  2.3997  0.9392
15201TIP3   OH267093   6.571   2.709   2.525 -0.6887  0.3732  0.5966
15201TIP3    H167094   6.536   2.625   2.496  0.8442 -0.2073  0.3102
15201TIP3    H267095   6.495   2.767   2.529 -1.6637 -0.8240  0.0816
15202TIP3   OH267096   1.185   0.638  16.191  0.3926 -0.3118  0.2038
15202TIP3    H167097   1.096   0.663  16.216  0.6783 -0.7050  1.7630
15202TIP3    H267098   1.177   0.602  16.103 -0.9253  0.0336  0.1713
15203TIP3   OH267099   0.801   2.072  11.608 -0.1040 -0.0531  0.1645
15203TIP3    H167100   0.826   2.069  11.701  0.1497 -2.5006  0.0917
15203TIP3    H267101   0.841   2.152  11.575 -0.6825  1.1834  2.2848
15204TIP3   OH267102   3.755   0.888   5.935  0.1882 -0.1661 -0.6370
15204TIP3    H167103   3.772   0.815   5.994  0.9443 -0.5710 -1.3311
15204TIP3    H267104   3.776   0.966   5.986 -1.9085 -0.3159  0.5640
15205TIP3   OH267105   2.096   2.233   3.682 -0.4939  0.5440 -1.1088
15205TIP3    H167106   2.128   2.204   3.767  0.6920  0.4524 -1.5729
15205TIP3    H267107   2.172   2.271   3.639 -0.9523  0.1302 -2.3308
15206TIP3   OH267108   5.139   2.700   5.697  0.2177  0.1816 -0.3352
15206TIP3    H167109   5.185   2.682   5.779  0.6122  1.5024 -0.2493
15206TIP3    H267110   5.061   2.749   5.722  0.3907  0.6809 -0.7472
15207TIP3   OH267111   0.886   6.731  16.911 -0.1711  0.9191  0.4493
15207TIP3    H167112   0.877   6.656  16.852 -0.7541 -0.1418  1.8414
15207TIP3    H267113   0.980   6.734  16.931 -0.0927  0.7872  0.1127
15208TIP3   OH267114   2.003   3.068  16.996 -0.0822  0.6070 -0.4035
15208TIP3    H167115   2.091   3.040  16.971  0.2563 -0.1327  1.4677
15208TIP3    H267116   2.015   3.117  17.077 -1.2149  2.1824 -1.1219
15209TIP3   OH267117   6.625   4.053   3.671 -0.1070  0.0379 -0.1762
15209TIP3    H167118   6.566   4.052   3.747  0.6699 -0.1803  0.4356
15209TIP3    H267119   6.571   4.022   3.599  0.2313 -4.1423  1.1131
15210TIP3   OH267120   5.782   0.321  16.179 -0.1024 -0.1780  0.3655
15210TIP3    H167121   5.790   0.413  16.204 -0.1781 -0.0119 -0.2075
15210TIP3    H267122   5.840   0.311  16.104 -1.0571 -0.2781 -0.3859
15211TIP3   OH267123   0.813   2.489  15.083 -0.2968  0.0906  0.2806
15211TIP3    H167124   0.798   2.528  15.169 -1.0942  0.8899 -0.2003
15211TIP3    H267125   0.783   2.556  15.021 -1.5373 -1.2119 -0.5841
15212TIP3   OH267126   2.334   4.521   5.635 -0.1353  0.0332 -0.9109
15212TIP3    H167127   2.422   4.521   5.599 -0.6924  0.7638 -2.3276
15212TIP3    H267128   2.281   4.472   5.571 -0.4899 -1.8760  0.7181
15213TIP3   OH267129   1.358   0.989  15.267  0.1449  0.8455 -0.3327
15213TIP3    H167130   1.444   1.029  15.276  0.4925  0.4149 -1.5537
15213TIP3    H267131   1.376   0.895  15.260 -0.5029  0.6610  0.3873
15214TIP3   OH267132   4.698   4.125   0.775 -0.0644  0.3655  0.4679
15214TIP3    H167133   4.720   4.035   0.798  1.1694  0.4036 -0.4425
15214TIP3    H267134   4.604   4.132   0.792 -0.5840 -1.6376 -1.1151
15215TIP3   OH267135   3.749   4.777  10.916  0.3978  0.5417 -0.8176
15215TIP3    H167136   3.716   4.863  10.938  2.4930  0.6479  2.7658
15215TIP3    H267137   3.814   4.792  10.848  2.0921  2.2329  1.0287
15216TIP3   OH267138   0.060   1.588  11.817  0.9322 -0.9728 -0.0560
15216TIP3    H167139  -0.023   1.541  11.820 -0.1458  0.7790 -1.0257
15216TIP3    H267140   0.097   1.577  11.904  0.1421 -2.5434  0.1179
15217TIP3   OH267141   1.830   2.887  12.385 -0.0702 -0.2964 -0.4035
15217TIP3    H167142   1.766   2.859  12.451 -1.1706  0.0262 -1.3135
15217TIP3    H267143   1.806   2.977  12.365  0.6216 -0.1989 -0.8195
15218TIP3   OH267144   4.984   1.964   0.602  0.5235  0.5682 -0.3398
15218TIP3    H167145   4.914   1.899   0.601  0.6790  0.3008 -2.9997
15218TIP3    H267146   5.008   1.973   0.694 -0.1417 -2.4504  0.2425
15219TIP3   OH267147   2.888   5.299  10.696 -0.0004 -0.6895 -0.5448
15219TIP3    H167148   2.921   5.217  10.659 -0.9835 -1.6487  0.5997
15219TIP3    H267149   2.944   5.314  10.772 -1.1295 -1.4611  0.4689
15220TIP3   OH267150   0.143   5.855   2.982  0.3014  0.1510 -0.3365
15220TIP3    H167151   0.180   5.941   2.962 -0.7940  0.5475 -0.7945
15220TIP3    H267152   0.182   5.796   2.918  1.9829  0.0416  0.7471
15221TIP3   OH267153   5.611   6.122   2.522 -0.4746 -0.1529 -0.3467
15221TIP3    H167154   5.670   6.193   2.551  1.0333 -0.9754 -1.2523
15221TIP3    H267155   5.524   6.161   2.526  0.2569  1.6254 -0.3689
15222TIP3   OH267156   3.633   0.978  15.255 -0.0376 -0.7789 -0.1723
15222TIP3    H167157   3.722   0.980  15.288 -0.0061 -2.6247 -0.0349
15222TIP3    H267158   3.596   1.062  15.280  1.4283 -0.2797  0.4132
15223TIP3   OH267159   4.527   3.892  10.858 -0.0469 -0.4249  0.1841
15223TIP3    H167160   4.617   3.915  10.832  0.2416  1.2637  2.3791
15223TIP3    H267161   4.471   3.940  10.797  0.5716  0.5873  0.3932
15224TIP3   OH267162   5.564   3.861   5.480 -0.7624 -0.5484  0.5799
15224TIP3    H167163   5.531   3.779   5.517  0.8911 -1.0448  1.0598
15224TIP3    H267164   5.569   3.920   5.555  0.8684 -0.9897  0.8757
15225TIP3   OH267165   4.273   5.764   6.750 -0.0611  0.2822  0.0369
15225TIP3    H167166   4.365   5.740   6.759 -0.5135 -1.8310 -0.4098
15225TIP3    H267167   4.229   5.721   6.824 -0.7844  0.7116 -0.1291
15226TIP3   OH267168   6.231   6.300   4.536  0.1530 -0.4530  0.2699
15226TIP3    H167169   6.274   6.255   4.464 -1.0056 -0.1048 -0.6708
15226TIP3    H267170   6.263   6.390   4.531 -1.2099  0.0016 -0.9173
15227TIP3   OH267171   5.018   4.994  11.796  0.3804  0.3257  0.0745
15227TIP3    H167172   4.951   4.963  11.735  0.6746 -0.8754  0.3513
15227TIP3    H267173   4.981   4.977  11.883  2.1784 -3.1380  0.3110
15228TIP3   OH267174   0.016   0.226  16.038  0.2178  0.1081 -0.5594
15228TIP3    H167175   0.011   0.177  15.956 -1.3724 -1.4291  0.4013
15228TIP3    H267176  -0.023   0.311  16.017 -0.3135 -0.3153 -1.3474
15229TIP3   OH267177   1.636   5.048   3.308  0.1022  0.2684 -0.2683
15229TIP3    H167178   1.686   5.033   3.388 -1.2794 -0.0011  0.5924
15229TIP3    H267179   1.566   4.982   3.311 -0.5802  0.9248 -1.1678
15230TIP3   OH267180   0.446   0.927   6.351  0.1244 -0.3224 -0.0087
15230TIP3    H167181   0.437   0.986   6.426 -0.1099 -0.7536  0.3082
15230TIP3    H267182   0.516   0.966   6.298  0.1943  0.0637  0.3569
15231TIP3   OH267183   1.283   5.766   3.206  0.2681 -0.2040  0.1381
15231TIP3    H167184   1.256   5.696   3.265 -0.9744  0.4504  0.3742
15231TIP3    H267185   1.202   5.795   3.164  0.5042  2.1037  1.1596
15232TIP3   OH267186   2.204   5.797   6.420 -0.3349 -0.1725 -0.2046
15232TIP3    H167187   2.261   5.720   6.414  1.9313  1.2920  1.1054
15232TIP3    H267188   2.253   5.866   6.376 -1.2604  1.0948  0.6891
15233TIP3   OH267189   6.213   1.496  16.447 -0.9209 -0.9329 -0.9943
15233TIP3    H167190   6.150   1.551  16.401 -0.3929 -0.1510 -0.7987
15233TIP3    H267191   6.299   1.533  16.425 -0.5117 -1.9719 -1.2524
15234TIP3   OH267192   5.640   2.569  12.486 -0.2396 -0.2357  0.7422
15234TIP3    H167193   5.555   2.581  12.443 -1.7089 -1.6560  3.0472
15234TIP3    H267194   5.650   2.647  12.541  0.5204  0.4396 -0.3001
15235TIP3   OH267195   3.172   1.635  11.419  0.1211 -0.1471  0.2592
15235TIP3    H167196   3.117   1.621  11.342  1.4279  0.1325 -0.7723
15235TIP3    H267197   3.121   1.693  11.476 -0.7203 -0.0654 -0.5639
15236TIP3   OH267198   1.376   0.402  16.745  0.4295 -0.5265  0.0317
15236TIP3    H167199   1.285   0.372  16.754  0.8046 -1.3441  1.3119
15236TIP3    H267200   1.372   0.469  16.677 -1.1541 -0.4770  0.1346
15237TIP3   OH267201   3.893   0.410   4.427  0.3895  0.6488  0.0948
15237TIP3    H167202   3.864   0.477   4.489  2.6628 -0.2846  2.3554
15237TIP3    H267203   3.978   0.382   4.461  1.3589 -0.5903 -3.0107
15238TIP3   OH267204   1.562   4.282  13.085 -0.5406  0.3313 -0.2210
15238TIP3    H167205   1.614   4.321  13.015 -0.5482  1.5779  0.4358
15238TIP3    H267206   1.525   4.203  13.047  1.1000 -0.1095 -0.9842
15239TIP3   OH267207   3.602   4.054   0.499  0.7526  0.3693  0.2737
15239TIP3    H167208   3.602   3.964   0.468 -0.6369  0.2043  0.6821
15239TIP3    H267209   3.660   4.100   0.439  0.0855 -0.4449 -1.0431
15240TIP3   OH267210   2.157   1.148   2.803  0.2267  0.2733 -0.5313
15240TIP3    H167211   2.115   1.063   2.789  1.5602 -0.4399 -0.3253
15240TIP3    H267212   2.084   1.210   2.805 -0.8818 -0.9906  0.4523
15241TIP3   OH267213   4.101   2.888   6.787 -0.4687  0.4662 -0.1592
15241TIP3    H167214   4.167   2.819   6.795 -0.7937  0.2996  1.5701
15241TIP3    H267215   4.020   2.848   6.818 -1.0882  1.0723 -0.9597
15242TIP3   OH267216   4.617   3.140  10.964 -0.5594 -0.4427 -0.1179
15242TIP3    H167217   4.552   3.188  11.016  1.5840  1.2441  1.1738
15242TIP3    H267218   4.595   3.048  10.978 -1.2072  0.0066  2.2738
15243TIP3   OH267219   4.834   2.471   2.443  0.1543 -0.2675  0.0839
15243TIP3    H167220   4.841   2.390   2.393  1.5317  0.1660 -0.4672
15243TIP3    H267221   4.865   2.448   2.530  0.9407 -0.2485 -0.1851
15244TIP3   OH267222   4.253   2.113   0.812  0.4587  0.0801 -0.4427
15244TIP3    H167223   4.221   2.112   0.722  0.0446  1.1907 -0.3250
15244TIP3    H267224   4.201   2.046   0.857  1.1116 -0.9427 -1.1490
15245TIP3   OH267225   2.847   3.947  15.121 -0.4140 -0.5271  0.4756
15245TIP3    H167226   2.909   3.942  15.049  1.2400  0.5807  1.7565
15245TIP3    H267227   2.806   3.861  15.124 -2.3530  0.0280 -3.2484
15246TIP3   OH267228   1.485   4.907   4.660  0.7395 -0.1943  0.0639
15246TIP3    H167229   1.480   4.827   4.608  0.3693  0.5496 -1.0736
15246TIP3    H267230   1.576   4.934   4.653  0.4715  0.4773 -1.1202
15247TIP3   OH267231   3.195   1.771  16.617 -0.1206 -0.3867 -0.4077
15247TIP3    H167232   3.152   1.773  16.531 -3.0480 -0.1038  0.9424
15247TIP3    H267233   3.138   1.716  16.671  0.9862  0.4151  1.6923
15248TIP3   OH267234   1.853   5.759  14.275  0.2223  0.4249  0.8428
15248TIP3    H167235   1.778   5.723  14.226  0.2670  1.7557 -0.2739
15248TIP3    H267236   1.924   5.698  14.257 -0.0392  0.3240  0.0899
15249TIP3   OH267237   2.662   3.128  15.008 -0.3538 -0.1918  0.6676
15249TIP3    H167238   2.722   3.117  15.081 -0.6831  1.0224  1.1427
15249TIP3    H267239   2.679   3.216  14.975 -0.4264 -0.6103 -0.5255
15250TIP3   OH267240   3.377   5.597  13.056  0.2397 -0.3441 -0.1332
15250TIP3    H167241   3.381   5.504  13.075 -0.7778  0.0005  2.1622
15250TIP3    H267242   3.444   5.637  13.112  0.3650  0.3618 -0.7568
15251TIP3   OH267243   0.197   3.168  13.354 -0.0426 -0.7330 -0.2808
15251TIP3    H167244   0.285   3.139  13.331 -0.1054 -1.8125  0.7508
15251TIP3    H267245   0.200   3.263  13.345  0.8415 -0.8489 -1.5161
15252TIP3   OH267246   3.177   0.608   5.709 -0.7216  0.1151  0.2097
15252TIP3    H167247   3.175   0.672   5.780  0.9331  1.2547 -0.6885
15252TIP3    H267248   3.222   0.532   5.746  0.0794  0.6770  0.4164
15253TIP3   OH267249   0.679   2.428   0.136  0.2555 -0.2742 -0.2205
15253TIP3    H167250   0.596   2.389   0.163  0.4754 -1.2036 -0.8279
15253TIP3    H267251   0.729   2.354   0.099  0.0853  0.8360 -2.8960
15254TIP3   OH267252   2.902   6.372  17.309  0.0607  0.3720  0.4864
15254TIP3    H167253   2.859   6.451  17.275  1.4628 -0.0823 -2.7204
15254TIP3    H267254   2.846   6.300  17.279  1.4714 -0.0578 -1.3121
15255TIP3   OH267255   6.025   4.078   3.436  0.3203  0.0227 -0.5034
15255TIP3    H167256   6.000   4.128   3.359  0.8579 -0.7023 -1.1661
15255TIP3    H267257   5.946   4.028   3.459 -0.1296  0.9333 -0.0058
15256TIP3   OH267258   4.377   1.492   1.627  0.5927  0.4054  0.2657
15256TIP3    H167259   4.378   1.568   1.685 -0.0234  0.4513  0.2194
15256TIP3    H267260   4.341   1.421   1.680  0.5348  0.3123  0.1018
15257TIP3   OH267261   4.010   1.333   1.236 -0.5749  0.3416  0.2337
15257TIP3    H167262   3.946   1.273   1.197 -1.8340  1.4935  0.4262
15257TIP3    H267263   4.095   1.297   1.212 -1.2832 -1.4290  0.2460
15258TIP3   OH267264   1.611   3.137  15.054  0.6372  0.3594  0.3171
15258TIP3    H167265   1.533   3.192  15.058  1.2345  1.1715  1.7123
15258TIP3    H267266   1.683   3.199  15.039  0.7572 -0.6766 -5.9594
15259TIP3   OH267267   2.484   1.112  11.230 -0.2508 -0.5990 -0.0990
15259TIP3    H167268   2.446   1.027  11.252  0.0203 -0.8624 -0.6062
15259TIP3    H267269   2.475   1.117  11.134 -0.0215 -0.1753 -0.0979
15260TIP3   OH267270   0.361   0.746  14.178 -0.7907 -0.4773 -0.2108
15260TIP3    H167271   0.399   0.754  14.266 -1.7208  0.9687  0.0958
15260TIP3    H267272   0.353   0.652  14.164 -0.8870 -0.7358  1.3727
15261TIP3   OH267273   2.408   2.021  16.598  0.4591  0.3828  0.2398
15261TIP3    H167274   2.454   2.078  16.536  0.5462  2.5336  2.1494
15261TIP3    H267275   2.316   2.047  16.592  0.6311  1.5294  1.8172
15262TIP3   OH267276   4.673   2.047  14.232  0.2376 -0.4084 -0.4270
15262TIP3    H167277   4.612   1.995  14.285  0.4107 -0.3391 -0.1555
15262TIP3    H267278   4.748   2.061  14.290  1.0377 -1.5220 -1.1526
15263TIP3   OH267279   5.960   5.633   5.030 -0.6651 -0.3584  0.5595
15263TIP3    H167280   5.971   5.635   4.935 -0.2099 -0.3027  0.6120
15263TIP3    H267281   5.894   5.700   5.048 -0.2677  0.0975  0.3481
15264TIP3   OH267282   0.335   0.480   6.165  0.1750  0.4526 -0.0206
15264TIP3    H167283   0.381   0.443   6.240 -1.5311  1.0043  1.3757
15264TIP3    H267284   0.261   0.420   6.151 -0.0779  0.8958 -0.6267
15265TIP3   OH267285   2.026   2.917   5.040  0.4150  0.6111  0.2243
15265TIP3    H167286   2.014   3.010   5.017 -2.4773  0.6871  1.5929
15265TIP3    H267287   2.007   2.913   5.134 -0.5459 -1.4789 -0.0079
15266TIP3   OH267288   6.124   6.445  12.924 -0.0591 -0.6589 -0.7218
15266TIP3    H167289   6.035   6.455  12.960  0.1008  1.6338 -0.7898
15266TIP3    H267290   6.117   6.370  12.865 -2.2037 -0.0085 -1.3965
15267TIP3   OH267291   6.203   1.681  16.150 -0.6173 -0.1409 -0.0075
15267TIP3    H167292   6.110   1.659  16.143 -0.5984  0.1445 -1.4530
15267TIP3    H267293   6.243   1.643  16.072  0.4852 -0.2202  0.5649
15268TIP3   OH267294   1.708   0.778   1.484  0.4166  0.0048 -0.6649
15268TIP3    H167295   1.741   0.696   1.522 -0.2036  0.2053  0.3685
15268TIP3    H267296   1.614   0.776   1.502  0.4142  0.9992 -0.4908
15269TIP3   OH267297   3.122   2.619  11.850 -0.2956 -0.0245 -0.5145
15269TIP3    H167298   3.162   2.683  11.791 -1.1095  0.7775 -0.2273
15269TIP3    H267299   3.192   2.597  11.912  0.6774 -1.1470 -1.9488
15270TIP3   OH267300   6.695   0.196   3.057 -0.7048 -0.0566  0.0140
15270TIP3    H167301   6.637   0.272   3.049 -0.4804  0.0791 -0.3920
15270TIP3    H267302   6.648   0.126   3.012  0.3751  0.6040 -2.3259
15271TIP3   OH267303   1.987   0.418  16.853  0.1899  0.6497  0.0266
15271TIP3    H167304   2.030   0.403  16.769 -0.9753 -0.9899 -0.3247
15271TIP3    H267305   1.893   0.412  16.833 -0.1984  2.5107  1.0549
15272TIP3   OH267306   4.998   0.797   1.758 -0.8267 -0.4926 -0.1201
15272TIP3    H167307   5.018   0.887   1.783 -0.2862 -1.1720  2.1042
15272TIP3    H267308   5.079   0.766   1.716 -0.6328 -0.2732  0.0866
15273TIP3   OH267309   2.177   1.126  17.009 -0.0124  0.0188  0.5166
15273TIP3    H167310   2.205   1.035  16.995  0.0554  0.0029  0.7529
15273TIP3    H267311   2.239   1.178  16.958 -0.1361 -0.0741  0.2650
15274TIP3   OH267312   0.519   5.591   2.984  0.3382  0.1341 -0.0915
15274TIP3    H167313   0.462   5.537   2.931  0.9657 -1.1062  0.4585
15274TIP3    H267314   0.554   5.656   2.924 -0.3882 -0.0898 -0.7714
15275TIP3   OH267315   0.920   2.583   0.124 -0.1832  0.3762  0.1274
15275TIP3    H167316   0.832   2.559   0.154 -0.3508 -0.7741 -1.1850
15275TIP3    H267317   0.976   2.512   0.154  0.0591  0.4426 -0.1661
15276TIP3   OH267318   0.193   4.613  13.936 -0.0480  0.7116 -0.5925
15276TIP3    H167319   0.207   4.627  14.029 -1.8777  0.8214 -0.2979
15276TIP3    H267320   0.273   4.569  13.906  0.5496  0.6314  1.0166
15277TIP3   OH267321   3.317   2.574   5.758  0.1820  0.1103 -0.2588
15277TIP3    H167322   3.375   2.639   5.720  0.5218 -0.3149 -0.4759
15277TIP3    H267323   3.233   2.588   5.715 -0.3059  1.6973  1.0960
15278TIP3   OH267324   4.429   0.940  14.850  0.2743 -0.2189  0.4053
15278TIP3    H167325   4.339   0.959  14.824  0.0901 -1.2236  0.2826
15278TIP3    H267326   4.469   1.027  14.862  0.2760  0.3254 -2.7817
15279TIP3   OH267327   0.524   3.411  11.252  0.6879  0.3387 -0.5259
15279TIP3    H167328   0.445   3.368  11.218  0.2320 -0.0671  0.9534
15279TIP3    H267329   0.584   3.413  11.177 -0.1975 -0.6362 -1.3041
15280TIP3   OH267330   0.733   3.927   4.437 -0.7295 -0.1643 -0.1591
15280TIP3    H167331   0.732   3.937   4.342 -2.2990 -0.6781 -0.2412
15280TIP3    H267332   0.644   3.952   4.464 -0.4252 -0.4093  1.1195
15281TIP3   OH267333   6.423   3.687   4.192 -0.7080 -1.0210  0.2136
15281TIP3    H167334   6.476   3.766   4.182 -1.5937 -0.6349 -1.9357
15281TIP3    H267335   6.340   3.708   4.150 -1.3203 -2.7897  0.4508
15282TIP3   OH267336   1.119   5.741  15.671  0.1559  0.1912  0.3276
15282TIP3    H167337   1.120   5.689  15.590  0.0095  1.5576 -0.5805
15282TIP3    H267338   1.210   5.740  15.701  0.3546  0.2949 -0.2623
15283TIP3   OH267339   6.055   2.599   0.681 -0.3269 -0.3029 -0.0081
15283TIP3    H167340   5.970   2.644   0.684  0.6074  1.6988 -1.3344
15283TIP3    H267341   6.032   2.507   0.675 -2.4338  0.1721 -0.2857
15284TIP3   OH267342   2.506   5.701   3.378  0.2675  0.1561  0.1670
15284TIP3    H167343   2.573   5.645   3.338  0.6649 -0.1608  1.2564
15284TIP3    H267344   2.440   5.712   3.309  1.0626 -0.1567 -0.6661
15285TIP3   OH267345   0.533   6.311  13.000 -1.0399 -0.0176  0.0780
15285TIP3    H167346   0.624   6.282  12.994 -1.6687 -2.4890  1.1207
15285TIP3    H267347   0.532   6.396  12.956  2.1783  1.1295  1.8711
15286TIP3   OH267348   5.977   2.792   5.107 -0.1088 -0.5026 -0.0169
15286TIP3    H167349   6.022   2.709   5.091  0.0869 -0.5728  0.8443
15286TIP3    H267350   5.976   2.801   5.202 -1.2274 -0.1181 -0.0458
15287TIP3   OH267351   1.138   0.411   1.963  0.1200  0.0270  0.0720
15287TIP3    H167352   1.098   0.377   1.884  1.0080 -0.9977  0.0359
15287TIP3    H267353   1.144   0.335   2.022  1.7374  0.1745  0.1593
15288TIP3   OH267354   1.622   1.773  13.698 -0.0204 -0.1319  0.5085
15288TIP3    H167355   1.583   1.693  13.663 -2.1618  1.1068 -0.1382
15288TIP3    H267356   1.562   1.800  13.768  0.9143  0.6784  1.0189
15289TIP3   OH267357   5.378   6.311  14.569  0.2253  0.0681 -0.0150
15289TIP3    H167358   5.320   6.235  14.569 -1.0591  1.0133  0.1819
15289TIP3    H267359   5.353   6.361  14.647  1.6252  0.2865  0.3261
15290TIP3   OH267360   1.378   1.693  15.715  0.2047  0.2688  0.2668
15290TIP3    H167361   1.389   1.601  15.693  1.5766  0.5471 -0.2805
15290TIP3    H267362   1.451   1.713  15.774  0.0428  1.0565  0.2159
15291TIP3   OH267363   1.630   2.275  14.941  0.6702  0.9768  0.4787
15291TIP3    H167364   1.604   2.277  14.849  0.1624  0.4188  0.6057
15291TIP3    H267365   1.547   2.278  14.990  0.8916  0.3921  0.9030
15292TIP3   OH267366   2.643   5.607  17.097 -0.2587 -0.1051 -0.3064
15292TIP3    H167367   2.610   5.584  17.010 -0.7957 -2.9130  0.5164
15292TIP3    H267368   2.731   5.641  17.081 -0.1351 -1.0639 -1.9225
15293TIP3   OH267369   1.526   6.105   5.882 -0.0207  0.2944 -0.6053
15293TIP3    H167370   1.585   6.129   5.954  0.0606  2.2845 -1.3050
15293TIP3    H267371   1.459   6.173   5.882 -0.2118  0.1264 -2.2124
15294TIP3   OH267372   3.753   6.278  16.718 -0.3075  0.5485  0.3702
15294TIP3    H167373   3.710   6.280  16.633 -0.4162  0.1636  0.4136
15294TIP3    H267374   3.696   6.329  16.776 -2.4363 -2.4747  1.2103
15295TIP3   OH267375   0.514   5.125   3.739  0.4383 -0.1228 -0.0445
15295TIP3    H167376   0.508   5.215   3.709  2.0644  0.6366  1.7135
15295TIP3    H267377   0.467   5.124   3.823 -0.6838 -1.2616 -0.6440
15296TIP3   OH267378   3.315   0.599  14.165 -0.5248  0.3573  0.5417
15296TIP3    H167379   3.259   0.521  14.170 -0.9643  0.6761  0.7092
15296TIP3    H267380   3.269   0.657  14.105  0.2364  0.1474 -0.2614
15297TIP3   OH267381   2.052   5.928   1.044 -0.0860  0.1336 -0.1654
15297TIP3    H167382   2.011   5.842   1.045  2.3522 -1.1700 -1.4218
15297TIP3    H267383   1.997   5.981   0.986 -1.7231 -0.4866  0.7751
15298TIP3   OH267384   3.804   1.354  15.402  0.0065 -0.2818 -0.5364
15298TIP3    H167385   3.783   1.342  15.495  0.3177 -1.4098 -0.5982
15298TIP3    H267386   3.882   1.409  15.402 -0.4449  0.3806 -0.1707
15299TIP3   OH267387   5.514   5.769  15.922  0.1167  0.5323  0.5247
15299TIP3    H167388   5.469   5.782  15.838  0.7748 -1.8934 -0.2688
15299TIP3    H267389   5.448   5.729  15.978  0.0252  1.0526  0.7921
15300TIP3   OH267390   6.777   1.466   3.371  0.2631 -0.1789  0.4568
15300TIP3    H167391   6.770   1.435   3.462  0.3321  1.1949  0.9504
15300TIP3    H267392   6.813   1.554   3.379 -0.8117  0.4104 -0.8345
15301TIP3   OH267393   6.690   0.509  14.780  0.5093  0.0721  0.1003
15301TIP3    H167394   6.599   0.532  14.762  0.6249  0.7140  0.3155
15301TIP3    H267395   6.704   0.534  14.872  0.4992 -1.3210  0.5073
15302TIP3   OH267396   5.305   0.275   0.553  0.1014 -0.4817  0.0279
15302TIP3    H167397   5.226   0.312   0.591 -0.0516 -1.3785  0.6140
15302TIP3    H267398   5.307   0.308   0.463 -2.8885 -3.1996 -1.2187
15303TIP3   OH267399   0.087   2.871  16.150  0.0304 -0.2438 -0.1553
15303TIP3    H167400   0.128   2.957  16.143 -1.5311  0.5913  0.4596
15303TIP3    H267401  -0.001   2.889  16.183 -1.3310 -1.8252 -2.6111
15304TIP3   OH267402   1.612   2.173  12.784 -0.4131  0.0378 -0.3124
15304TIP3    H167403   1.567   2.145  12.704  1.0103 -0.8270 -0.8536
15304TIP3    H267404   1.584   2.112  12.851 -1.3738  0.5766 -0.2053
15305TIP3   OH267405   3.883   0.087  14.384  0.2004 -0.3903  0.2425
15305TIP3    H167406   3.965   0.057  14.345 -0.4766 -2.6128  0.4364
15305TIP3    H267407   3.903   0.101  14.476  0.6381  0.3082  0.0526
15306TIP3   OH267408   5.706   2.814  12.616 -0.4400 -0.2107 -0.2481
15306TIP3    H167409   5.745   2.794  12.702 -1.9822 -0.0011  0.5475
15306TIP3    H267410   5.668   2.901  12.627 -0.7748 -0.2385 -1.1015
15307TIP3   OH267411   1.353   3.832   5.106  0.5408 -0.2637 -0.0878
15307TIP3    H167412   1.384   3.805   5.193  1.7055 -0.4780 -0.5502
15307TIP3    H267413   1.259   3.814   5.108  0.5236 -0.1626  1.1639
15308TIP3   OH267414   3.142   3.453   1.443  0.5634 -0.3555 -0.2669
15308TIP3    H167415   3.111   3.418   1.359 -0.9179 -0.2465  0.1948
15308TIP3    H267416   3.220   3.401   1.464  2.0092  0.7794 -2.5168
15309TIP3   OH267417   1.583   5.483   0.736 -0.2019  0.4032 -0.2670
15309TIP3    H167418   1.595   5.412   0.673 -0.0261  1.3114 -1.3038
15309TIP3    H267419   1.568   5.439   0.820 -0.7440 -0.8542 -0.9844
15310TIP3   OH267420   4.136   4.054  13.163  0.2539  0.1529 -0.1160
15310TIP3    H167421   4.171   4.060  13.252  0.8799 -0.4072 -0.3183
15310TIP3    H267422   4.124   3.961  13.148  0.3392  0.2318 -0.6882
15311TIP3   OH267423   2.258   3.940  10.387 -0.1382  0.4607 -0.0284
15311TIP3    H167424   2.269   3.950  10.293 -0.1496 -1.5555 -0.2803
15311TIP3    H267425   2.339   3.897  10.416 -0.8562 -0.5420  0.5646
15312TIP3   OH267426   0.730   3.896  16.243  0.1787 -0.2303 -0.3167
15312TIP3    H167427   0.743   3.962  16.175 -2.9692  0.8263 -0.0490
15312TIP3    H267428   0.688   3.823  16.199 -0.2181 -0.3015  0.1722
15313TIP3   OH267429   5.623   2.608  15.269 -0.0374 -0.2695 -0.6484
15313TIP3    H167430   5.699   2.551  15.278 -0.6499 -0.9677  0.2622
15313TIP3    H267431   5.650   2.690  15.310  0.5740 -0.1486 -1.2668
15314TIP3   OH267432   3.459   5.876   1.295  0.6996  0.2059 -0.2708
15314TIP3    H167433   3.410   5.865   1.376  0.4943  1.1996 -0.2542
15314TIP3    H267434   3.405   5.834   1.228 -0.0976  1.1196 -0.2212
15315TIP3   OH267435   5.378   1.585  14.216  0.3612  0.1394  0.0954
15315TIP3    H167436   5.359   1.670  14.256  1.2188 -0.2186  1.3046
15315TIP3    H267437   5.468   1.566  14.242  0.5800 -0.6035 -1.1489
15316TIP3   OH267438   4.295   4.955   2.596  0.7898  0.9796  0.4579
15316TIP3    H167439   4.377   4.916   2.628  0.9265  0.3158 -0.6524
15316TIP3    H267440   4.320   5.045   2.571  1.4460  0.4610 -0.8477
15317TIP3   OH267441   3.709   5.089   0.197 -0.1210 -0.0396 -0.5149
15317TIP3    H167442   3.774   5.104   0.266 -0.6016  0.1467 -0.0950
15317TIP3    H267443   3.629   5.128   0.231 -0.5415 -0.5762 -0.8775
15318TIP3   OH267444   5.289   1.986  16.409 -0.3792 -0.7072 -0.4817
15318TIP3    H167445   5.259   1.903  16.372  0.2632 -0.5718 -1.3407
15318TIP3    H267446   5.269   2.051  16.341 -0.5105 -0.2186  0.0139
15319TIP3   OH267447   1.386   3.671  10.867  0.2826 -0.3896 -0.1604
15319TIP3    H167448   1.354   3.718  10.791 -0.7891 -0.5199  0.1968
15319TIP3    H267449   1.331   3.593  10.873  0.1821 -0.2547  0.8850
15320TIP3   OH267450   4.800   3.587  16.892  0.1962 -0.1449  0.2217
15320TIP3    H167451   4.892   3.562  16.903  0.5158  0.9260  0.1282
15320TIP3    H267452   4.758   3.558  16.973  1.0920  1.3420  1.2971
15321TIP3   OH267453   4.741   5.475  11.389  0.8866 -0.5842 -0.0956
15321TIP3    H167454   4.695   5.543  11.437  0.7730  0.4451 -1.5822
15321TIP3    H267455   4.821   5.518  11.356  0.8321 -1.1532 -1.0187
15322TIP3   OH267456   5.004   2.444   0.304 -0.1097  0.1330  0.2078
15322TIP3    H167457   5.067   2.516   0.315  1.7002 -1.2863 -0.3403
15322TIP3    H267458   5.059   2.366   0.294 -1.9010 -0.9359 -2.2904
15323TIP3   OH267459   5.327   3.677  11.542 -0.2800 -0.1707 -0.0887
15323TIP3    H167460   5.380   3.663  11.621  1.8246  1.6680 -1.0720
15323TIP3    H267461   5.238   3.686  11.575  0.4000 -0.3074  1.9891
15324TIP3   OH267462   1.918   1.970   6.752 -0.1115  0.8265  0.0410
15324TIP3    H167463   1.922   1.892   6.809 -3.7674  0.4372  0.0040
15324TIP3    H267464   2.005   2.010   6.761  0.6189 -1.0653  3.2141
15325TIP3   OH267465   3.754   3.616   4.469  0.0306  0.4675  0.1995
15325TIP3    H167466   3.808   3.540   4.444  0.8256  0.2585  2.3954
15325TIP3    H267467   3.689   3.580   4.529  0.1097  1.4445  0.8841
15326TIP3   OH267468   3.099   2.760   1.572 -0.4455  0.5014  0.3188
15326TIP3    H167469   3.060   2.684   1.614  1.8184 -0.5509  0.6391
15326TIP3    H267470   3.115   2.822   1.643  0.0200  0.2266  0.4573
15327TIP3   OH267471   3.187   3.340   2.451 -0.3150  0.3972  0.5826
15327TIP3    H167472   3.150   3.284   2.383  0.4746  1.7053 -0.9924
15327TIP3    H267473   3.270   3.299   2.474  0.4767  1.1128 -0.8933
15328TIP3   OH267474   4.906   5.269   4.278  0.0231 -0.0007  0.5384
15328TIP3    H167475   4.827   5.237   4.323 -0.1267  0.3145  0.4995
15328TIP3    H267476   4.875   5.299   4.193  0.4915 -1.7447 -0.2815
15329TIP3   OH267477   4.817   2.115   0.088  0.3230 -0.0112  0.8870
15329TIP3    H167478   4.724   2.102   0.073  0.2121  1.2047  0.4225
15329TIP3    H267479   4.843   2.040   0.143 -0.6150 -1.1128 -0.1166
15330TIP3   OH267480   0.290   5.441  17.023  0.2609 -0.1941 -0.0368
15330TIP3    H167481   0.265   5.511  16.961  1.1760  1.4104  1.3255
15330TIP3    H267482   0.241   5.462  17.102 -0.9477 -2.2691 -0.1754
15331TIP3   OH267483   1.436   4.090   5.106 -0.2712 -0.4259 -0.7590
15331TIP3    H167484   1.395   4.009   5.077 -0.5936 -1.0723  1.2841
15331TIP3    H267485   1.529   4.067   5.118 -0.5878 -0.9341  1.0739
15332TIP3   OH267486   2.097   1.568  16.632 -0.4411 -0.4847 -0.3433
15332TIP3    H167487   2.139   1.507  16.571 -0.2818 -2.2823  1.4568
15332TIP3    H267488   2.157   1.571  16.707 -1.6430 -0.0365  0.6234
15333TIP3   OH267489   0.263   3.662  12.395  0.3902  0.1875 -0.3593
15333TIP3    H167490   0.327   3.603  12.435  0.1279 -0.3340 -0.7131
15333TIP3    H267491   0.263   3.640  12.302 -1.0594 -0.5511 -0.2181
15334TIP3   OH267492   0.184   2.707  11.699  0.3130  0.6289 -0.3570
15334TIP3    H167493   0.247   2.776  11.682  1.7814 -0.7504 -0.7129
15334TIP3    H267494   0.174   2.661  11.616  1.0516 -0.9207  0.3687
15335TIP3   OH267495   1.853   6.703  14.258 -0.3276 -0.2963  0.4705
15335TIP3    H167496   1.858   6.719  14.352  0.6213 -0.0061  0.3744
15335TIP3    H267497   1.767   6.664  14.246 -0.7122  0.2315  1.3746
15336TIP3   OH267498   3.718   3.009  13.384  0.2895  0.0560  0.2144
15336TIP3    H167499   3.687   3.018  13.474 -0.2893 -0.1760  0.0409
15336TIP3    H267500   3.675   3.080  13.337  0.3497 -0.0113  0.0580
15337TIP3   OH267501   1.976   2.109   4.213  0.5890  0.4631  0.0705
15337TIP3    H167502   1.971   2.031   4.157 -0.2998 -0.7997  1.8114
15337TIP3    H267503   1.971   2.183   4.151  0.4736 -0.8442 -1.5622
15338TIP3   OH267504   1.703   6.459   2.853 -0.0895 -0.0634 -0.0523
15338TIP3    H167505   1.636   6.505   2.903 -0.0788 -0.8484  0.6994
15338TIP3    H267506   1.726   6.520   2.783 -1.0211  0.5342  0.1387
15339TIP3   OH267507   0.156   2.732  15.373 -0.2452 -0.5658 -0.2986
15339TIP3    H167508   0.243   2.692  15.385 -0.2777 -0.8033 -0.7863
15339TIP3    H267509   0.139   2.721  15.279 -0.3955  0.3273 -0.3770
15340TIP3   OH267510   5.797   3.902  13.952  0.1258 -0.0786  0.4091
15340TIP3    H167511   5.845   3.870  13.875 -1.4621  0.0096 -0.6683
15340TIP3    H267512   5.814   3.837  14.020  1.0083 -0.5282 -0.2198
15341TIP3   OH267513   5.058   5.362   1.731 -0.0295  0.0343 -0.2749
15341TIP3    H167514   5.137   5.401   1.769 -0.6670 -0.1556  1.3374
15341TIP3    H267515   5.027   5.428   1.668 -0.0328  1.3305  1.0171
15342TIP3   OH267516   0.338   0.223   5.248 -0.4997 -0.5011 -0.0599
15342TIP3    H167517   0.383   0.268   5.320  1.0503 -0.7820 -0.8029
15342TIP3    H267518   0.248   0.211   5.279 -0.4496  1.3600  0.9140
15343TIP3   OH267519   1.732   2.416  10.940 -0.4682 -0.1936  0.0751
15343TIP3    H167520   1.744   2.481  10.871 -1.6151  0.1718  0.2042
15343TIP3    H267521   1.799   2.350  10.922  0.1935  0.6179 -0.5205
15344TIP3   OH267522   4.300   4.030  14.435 -0.3678  0.2334  0.6125
15344TIP3    H167523   4.324   3.938  14.449 -1.5717 -0.3313 -0.7945
15344TIP3    H267524   4.367   4.063  14.375  1.4253  1.0023  2.8948
15345TIP3   OH267525   2.623   5.625  11.038  0.2035 -0.2450  0.9142
15345TIP3    H167526   2.631   5.605  10.945  0.1010  0.3779  0.7651
15345TIP3    H267527   2.647   5.718  11.044 -2.5637  0.5441  1.0836
15346TIP3   OH267528   0.814   2.660  12.810  0.2051  0.7937 -0.7161
15346TIP3    H167529   0.776   2.626  12.729  1.2594  0.3986 -1.0568
15346TIP3    H267530   0.774   2.746  12.821 -0.6561  0.4642 -1.1420
15347TIP3   OH267531   5.958   4.273   0.765 -0.3652 -0.2200  0.0891
15347TIP3    H167532   5.935   4.275   0.858 -0.8218 -1.3306  0.0104
15347TIP3    H267533   5.879   4.303   0.720  0.9212  3.8679  0.1592
15348TIP3   OH267534   2.786   4.370   3.680 -0.3491  0.3619  0.0762
15348TIP3    H167535   2.835   4.356   3.600 -0.4432  0.4683 -0.0005
15348TIP3    H267536   2.848   4.349   3.751  0.2992  1.9876  0.0187
15349TIP3   OH267537   6.080   2.428  14.149 -0.0551 -0.5684  0.2655
15349TIP3    H167538   6.067   2.522  14.134 -0.0251 -0.4106  1.1851
15349TIP3    H267539   6.164   2.422  14.195  0.1335 -1.0832 -0.1360
15350TIP3   OH267540   6.344   5.005  12.341  0.2038  0.1780 -0.0726
15350TIP3    H167541   6.405   5.045  12.280  0.3282 -1.4362 -1.0597
15350TIP3    H267542   6.271   4.975  12.286 -1.2832  1.6038  1.0140
15351TIP3   OH267543   3.706   0.565   1.989 -0.4073 -0.2137  0.6994
15351TIP3    H167544   3.774   0.509   1.950 -0.4141 -0.1264  0.5600
15351TIP3    H267545   3.731   0.573   2.081  0.8003  1.3281  0.2699
15352TIP3   OH267546   2.816   5.802  10.776  0.5541  0.9061  0.5118
15352TIP3    H167547   2.766   5.841  10.849 -2.5321  1.1318 -1.5366
15352TIP3    H267548   2.785   5.711  10.773  0.4418  0.9803 -0.6744
15353TIP3   OH267549   5.524   3.857   3.866 -0.1877 -0.0147 -0.4212
15353TIP3    H167550   5.510   3.925   3.801  1.4057 -0.0797 -0.8915
15353TIP3    H267551   5.499   3.776   3.822 -2.0767  0.2218  0.1359
15354TIP3   OH267552   6.038   5.515  11.462  0.3480 -0.2430 -0.2791
15354TIP3    H167553   6.080   5.503  11.377 -1.0688  1.1528 -1.2284
15354TIP3    H267554   6.076   5.596  11.497  0.0063 -0.1256 -0.1731
15355TIP3   OH267555   5.791   2.743  15.067  0.1140 -0.1136  0.4069
15355TIP3    H167556   5.706   2.703  15.052 -0.2582  1.1347 -1.0006
15355TIP3    H267557   5.780   2.791  15.149  0.0986 -1.5523  1.2841
15356TIP3   OH267558   2.037   6.045   2.331 -0.1716  0.1311  0.6933
15356TIP3    H167559   1.982   5.969   2.351 -0.3733 -0.3931 -1.5672
15356TIP3    H267560   2.000   6.116   2.384 -2.6661 -0.3723 -0.2372
15357TIP3   OH267561   2.839   5.793  15.813 -0.0688  0.1890 -0.9289
15357TIP3    H167562   2.768   5.732  15.794  0.1021  0.2557 -1.8264
15357TIP3    H267563   2.883   5.805  15.729  0.3245  1.0076 -0.6121
15358TIP3   OH267564   4.058   4.527   4.850  0.3355  0.5996 -0.2455
15358TIP3    H167565   3.967   4.516   4.822 -0.0337  0.9140  0.7757
15358TIP3    H267566   4.082   4.440   4.883 -0.1525  0.8954  0.9795
15359TIP3   OH267567   2.048   4.908  11.807  0.4344 -0.0567 -0.0972
15359TIP3    H167568   2.123   4.952  11.768 -0.8882  0.2505 -2.4655
15359TIP3    H267569   2.021   4.844  11.741 -3.7324  2.4906 -1.2279
15360TIP3   OH267570   0.309   0.857   5.063  0.2607  0.2168  0.4234
15360TIP3    H167571   0.316   0.857   4.968 -0.8880  0.4778  0.3250
15360TIP3    H267572   0.336   0.944   5.090 -0.5925  0.5566  0.2188
15361TIP3   OH267573   2.760   1.838   0.590  0.7832 -0.1037 -0.5744
15361TIP3    H167574   2.741   1.793   0.508  0.0673 -1.4892  0.3121
15361TIP3    H267575   2.786   1.768   0.650 -2.9126  0.1943  1.6352
15362TIP3   OH267576   6.412   4.636   0.935 -0.0085 -0.3139  0.1972
15362TIP3    H167577   6.444   4.725   0.951 -2.5106  0.6817  0.1560
15362TIP3    H267578   6.360   4.615   1.013  0.8431 -1.9208  0.3670
15363TIP3   OH267579   2.845   6.321  16.769 -0.3436  0.2060  0.3059
15363TIP3    H167580   2.872   6.249  16.826 -0.1643 -0.5269 -0.6705
15363TIP3    H267581   2.768   6.358  16.812 -0.2999 -0.4236  0.9445
15364TIP3   OH267582   0.390   4.126  15.574 -0.0605  0.1309  0.5943
15364TIP3    H167583   0.479   4.157  15.556  0.0829 -0.2418  0.6707
15364TIP3    H267584   0.391   4.034  15.551 -0.2726 -0.0082  1.1363
15365TIP3   OH267585   5.081   0.708  14.853  0.1879 -0.3962 -0.2154
15365TIP3    H167586   5.006   0.734  14.906  1.2598  1.4496  0.5067
15365TIP3    H267587   5.143   0.670  14.915  1.8196  2.5793  0.1786
15366TIP3   OH267588   3.105   5.500  14.155  0.3357  0.1049 -0.8480
15366TIP3    H167589   3.043   5.531  14.089  0.3807 -0.6261 -1.2546
15366TIP3    H267590   3.125   5.577  14.209 -0.2843  0.5339 -1.2231
15367TIP3   OH267591   0.314   0.392  16.807 -0.2895 -0.0052 -0.2590
15367TIP3    H167592   0.316   0.305  16.767 -0.9773  0.3985 -1.2003
15367TIP3    H267593   0.349   0.450  16.739 -0.0691  0.4862  0.2705
15368TIP3   OH267594   6.659   1.860  14.412 -0.3356 -0.7065 -0.6732
15368TIP3    H167595   6.617   1.775  14.406  1.7411 -1.7472 -1.3988
15368TIP3    H267596   6.678   1.871  14.505 -1.3277 -0.6220 -0.4652
15369TIP3   OH267597   4.440   0.199  11.429  0.6342 -0.4118  0.2959
15369TIP3    H167598   4.402   0.169  11.511 -1.1847 -0.5588 -0.5321
15369TIP3    H267599   4.534   0.184  11.438  0.1436 -3.6761  1.0097
15370TIP3   OH267600   5.595   0.229  16.395  0.0040  0.2997  0.1046
15370TIP3    H167601   5.537   0.162  16.358 -0.3425  1.1452 -0.9317
15370TIP3    H267602   5.632   0.274  16.319  0.6217  0.9644  0.7753
15371TIP3   OH267603   5.852   1.297  12.942 -0.3855  0.7668 -0.1513
15371TIP3    H167604   5.888   1.210  12.961  0.7530  0.8731 -1.6276
15371TIP3    H267605   5.901   1.356  12.999  0.0273  0.6288 -0.3612
15372TIP3   OH267606   5.622   1.079   1.555 -0.0598 -0.2458 -0.1202
15372TIP3    H167607   5.671   0.999   1.572 -0.1160  0.0044  1.3859
15372TIP3    H267608   5.629   1.092   1.461 -1.3699 -2.8393 -0.6659
15373TIP3   OH267609   6.793   0.727   1.226  0.0912 -0.3786  0.2614
15373TIP3    H167610   6.779   0.813   1.186  0.5686 -0.3763  0.1021
15373TIP3    H267611   6.887   0.722   1.241 -0.2387  0.5615  3.4752
15374TIP3   OH267612   4.054   5.179  12.400  0.5334 -0.5691  0.1287
15374TIP3    H167613   4.107   5.251  12.433  0.0858 -1.0009  1.9065
15374TIP3    H267614   3.964   5.204  12.422  0.1636 -0.7666 -1.0574
15375TIP3   OH267615   4.803   0.993  10.988  0.0543  0.3082 -0.0721
15375TIP3    H167616   4.848   1.040  11.058  0.9903 -2.2504  1.1688
15375TIP3    H267617   4.712   0.988  11.017 -0.2409  1.9579 -0.6152
15376TIP3   OH267618   5.352   2.599  13.119  0.9753  0.1748 -0.0572
15376TIP3    H167619   5.317   2.590  13.030  0.4416 -2.8081  0.3462
15376TIP3    H267620   5.288   2.653  13.165 -0.4239 -0.8973 -0.6913
15377TIP3   OH267621   1.207   0.129   4.646 -0.1161 -0.0933  0.0709
15377TIP3    H167622   1.270   0.151   4.714  0.6486 -2.0129  0.0486
15377TIP3    H267623   1.248   0.158   4.564  1.5332 -2.6383 -0.1179
15378TIP3   OH267624   0.041   3.856  12.172  0.2757 -0.0552  0.2203
15378TIP3    H167625   0.055   3.781  12.114  0.1685 -1.1511  1.5845
15378TIP3    H267626  -0.040   3.836  12.218  0.0081  1.1140  0.2887
15379TIP3   OH267627   1.310   2.265   2.814  0.7307  0.3601 -0.3031
15379TIP3    H167628   1.387   2.322   2.817  0.3756  1.0204 -2.2994
15379TIP3    H267629   1.344   2.180   2.789  0.9911  0.2409  0.4328
15380TIP3   OH267630   5.639   0.536   3.689  0.2840  0.1946 -0.4723
15380TIP3    H167631   5.693   0.458   3.699 -1.7262 -1.1411  0.8482
15380TIP3    H267632   5.591   0.521   3.607  0.5703  0.5006 -0.6979
15381TIP3   OH267633   1.829   1.846   3.524  0.3346  0.1470 -0.0223
15381TIP3    H167634   1.884   1.875   3.598 -0.2049 -1.2974  0.9951
15381TIP3    H267635   1.874   1.878   3.446 -0.2298  3.7202  0.9494
15382TIP3   OH267636   6.271   2.887  15.467 -0.5247  0.4039  0.2999
15382TIP3    H167637   6.190   2.937  15.473 -0.9843 -0.1352 -0.9951
15382TIP3    H267638   6.243   2.798  15.445  0.3659 -0.0508  0.9323
15383TIP3   OH267639   2.268   4.946   3.589 -0.0580 -0.4052 -0.7306
15383TIP3    H167640   2.238   4.912   3.506  0.0699 -0.2903 -0.8251
15383TIP3    H267641   2.275   5.041   3.575 -3.1256  0.0940  0.3456
15384TIP3   OH267642   4.629   5.223   3.478 -0.5304  0.3523  0.1483
15384TIP3    H167643   4.699   5.226   3.543 -0.4560 -1.6106  0.2368
15384TIP3    H267644   4.673   5.241   3.395 -0.7949  3.8993  0.6447
15385TIP3   OH267645   5.416   3.661  14.692  0.1924 -0.0630  0.2437
15385TIP3    H167646   5.350   3.668  14.762 -0.2710  0.8674 -0.2589
15385TIP3    H267647   5.487   3.610  14.730 -0.2667  0.0218  1.2366
15386TIP3   OH267648   5.203   2.627  11.423 -0.6825  0.1677  0.7876
15386TIP3    H167649   5.249   2.689  11.366 -0.6586 -1.0252 -0.5464
15386TIP3    H267650   5.229   2.541  11.391 -0.6770 -0.5640  2.6331
15387TIP3   OH267651   1.303   2.130   5.248  0.4096  0.8472 -0.4404
15387TIP3    H167652   1.341   2.214   5.272  1.9544  0.0611 -0.0020
15387TIP3    H267653   1.366   2.091   5.187  0.3840 -0.5262  0.3681
15388TIP3   OH267654   3.657   0.242  15.481 -0.0969 -0.8907 -0.4093
15388TIP3    H167655   3.647   0.151  15.507  1.6010 -0.9774  0.0508
15388TIP3    H267656   3.731   0.274  15.533 -1.3954  1.0979  0.3394
15389TIP3   OH267657   1.668   3.987  13.624  0.0339 -0.5380 -0.1319
15389TIP3    H167658   1.614   4.065  13.635 -0.3077 -0.5137 -1.7598
15389TIP3    H267659   1.655   3.937  13.705 -0.8745  0.4018  0.3211
15390TIP3   OH267660   5.028   3.063   4.503  0.2028  0.5236 -0.1350
15390TIP3    H167661   4.994   3.147   4.534  0.8142  0.9266 -0.5371
15390TIP3    H267662   5.022   3.068   4.407  0.0474  0.0259 -0.1549
15391TIP3   OH267663   3.005   1.310   0.909  0.0090 -0.1982  0.0731
15391TIP3    H167664   3.042   1.390   0.871 -0.5786 -0.7684 -1.8106
15391TIP3    H267665   3.074   1.245   0.902  0.1224 -0.1389  0.6153
15392TIP3   OH267666   2.267   1.329  13.653  0.3660  0.1514 -0.8127
15392TIP3    H167667   2.349   1.370  13.623 -0.2912  2.1450 -0.0097
15392TIP3    H267668   2.250   1.368  13.739 -0.4118 -1.7323 -0.0562
15393TIP3   OH267669   6.227   1.189  13.476 -0.1447  0.0882  0.1655
15393TIP3    H167670   6.155   1.210  13.536  0.9061  1.6146  0.9456
15393TIP3    H267671   6.231   1.264  13.417  1.1111  0.2575  0.4439
15394TIP3   OH267672   0.120   4.060   5.383 -0.4054  1.4104 -0.4573
15394TIP3    H167673   0.200   4.031   5.340 -0.6876  0.5930 -0.4439
15394TIP3    H267674   0.104   4.148   5.347  0.9060  1.9034  0.1196
15395TIP3   OH267675   2.282   5.064  15.266  0.1179 -0.5124 -0.7187
15395TIP3    H167676   2.295   5.150  15.306  1.2099 -0.6799 -0.6736
15395TIP3    H267677   2.359   5.051  15.211 -0.9964 -0.6104 -2.3255
15396TIP3   OH267678   2.905   3.623   0.826 -0.0588  0.0433  0.0575
15396TIP3    H167679   2.854   3.684   0.772  1.1215  0.7389 -0.3254
15396TIP3    H267680   2.844   3.594   0.894 -1.0910  0.4578 -0.6566
15397TIP3   OH267681   1.366   5.414   2.595 -1.0305  0.5950  0.1651
15397TIP3    H167682   1.402   5.393   2.509  1.6742  1.9017  0.8650
15397TIP3    H267683   1.387   5.507   2.608 -0.8533  0.3061  2.4303
15398TIP3   OH267684   0.927   1.286  12.855  0.1963  0.1462 -0.0297
15398TIP3    H167685   0.839   1.301  12.888 -0.3358 -2.7247  0.0777
15398TIP3    H267686   0.915   1.229  12.779  2.0004 -1.0829  0.5480
15399TIP3   OH267687   0.131   4.492   1.671 -0.1725 -0.6139 -0.4357
15399TIP3    H167688   0.212   4.465   1.714  1.4385  1.9798 -1.5928
15399TIP3    H267689   0.062   4.446   1.718  1.6944 -0.3688  2.8159
15400TIP3   OH267690   4.963   3.274  12.514 -0.0964 -0.3039 -0.1282
15400TIP3    H167691   5.004   3.328  12.446  0.6846 -0.5416  0.1466
15400TIP3    H267692   4.874   3.258  12.481 -0.6358  1.7994  0.1370
15401TIP3   OH267693   5.653   5.375  17.401 -0.1073 -0.3387 -0.5255
15401TIP3    H167694   5.616   5.319  17.468 -0.9236  0.3674 -0.3733
15401TIP3    H267695   5.598   5.453  17.401  1.0440  0.4973 -0.6857
15402TIP3   OH267696   5.800   1.042   1.872  0.3655 -0.1269 -0.1412
15402TIP3    H167697   5.860   0.968   1.880  1.3824  0.6704 -0.0849
15402TIP3    H267698   5.857   1.118   1.864 -0.6331  0.8017  1.0830
15403TIP3   OH267699   4.165   4.778  13.014  0.0493 -0.3615  0.2953
15403TIP3    H167700   4.207   4.698  12.983  3.0650  1.2136 -0.0403
15403TIP3    H267701   4.143   4.759  13.105 -0.2677 -1.8854 -0.0604
15404TIP3   OH267702   5.290   5.131   4.958  0.1572 -0.2005 -0.5439
15404TIP3    H167703   5.368   5.118   4.905 -0.0444  2.0357 -1.5368
15404TIP3    H267704   5.238   5.053   4.944  2.4060 -2.0182  0.5967
15405TIP3   OH267705   5.415   2.102  11.430  0.5579  0.2371 -0.4583
15405TIP3    H167706   5.401   2.138  11.342  1.4143  0.1942 -0.6149
15405TIP3    H267707   5.377   2.014  11.426  1.9909 -0.3627 -1.2661
15406TIP3   OH267708   4.194   4.073  14.088  0.0902  0.3099 -0.2923
15406TIP3    H167709   4.152   4.084  14.003  0.4971  1.1896 -0.3915
15406TIP3    H267710   4.191   3.979  14.105  0.0606  0.1232 -1.3048
15407TIP3   OH267711   0.294   5.362  11.611  0.0759 -0.0878 -0.1206
15407TIP3    H167712   0.281   5.411  11.692 -0.0991 -0.3841  0.0327
15407TIP3    H267713   0.307   5.429  11.544 -1.0941  0.1925 -0.0821
15408TIP3   OH267714   2.002   2.606  13.635  0.4426  0.2459  0.2467
15408TIP3    H167715   2.079   2.562  13.599  0.3309  0.3987 -0.1862
15408TIP3    H267716   1.966   2.544  13.698  1.2586  0.4112  0.8874
15409TIP3   OH267717   0.848   6.652   0.355 -0.1153 -0.1755  0.0816
15409TIP3    H167718   0.913   6.622   0.292 -0.7862  0.1512 -0.7819
15409TIP3    H267719   0.896   6.710   0.414  0.1829  0.8398 -1.1344
15410TIP3   OH267720   0.217   5.689   1.375 -0.0976  0.1139 -0.0068
15410TIP3    H167721   0.161   5.612   1.362 -4.0605  2.6132  0.6745
15410TIP3    H267722   0.178   5.734   1.450  2.7220  2.3042  0.2989
15411TIP3   OH267723   1.713   3.244   4.500 -0.0771 -0.5759 -0.5393
15411TIP3    H167724   1.628   3.212   4.529 -0.3518  0.4035 -0.2206
15411TIP3    H267725   1.746   3.176   4.441 -0.5422 -1.5222  0.2663
15412TIP3   OH267726   2.835   4.872  15.620  0.5467  0.2916  0.3580
15412TIP3    H167727   2.874   4.957  15.604  0.6270  0.3682  0.9516
15412TIP3    H267728   2.773   4.887  15.691  0.3849 -0.0973  0.3018
15413TIP3   OH267729   1.918   6.411   3.950 -0.1392  0.7183 -0.0548
15413TIP3    H167730   1.908   6.317   3.959  1.6259  0.3251 -1.4910
15413TIP3    H267731   1.913   6.445   4.040 -1.3854 -0.6470  0.4194
15414TIP3   OH267732   3.103   3.523   1.710  0.2561  0.0646  0.0524
15414TIP3    H167733   3.137   3.446   1.755  1.9817  1.2829  0.9276
15414TIP3    H267734   3.084   3.492   1.621  2.0952 -1.1114  0.0170
15415TIP3   OH267735   5.558   1.665   3.047  0.8293  0.4431 -0.1410
15415TIP3    H167736   5.632   1.703   3.094  0.2072 -0.4110  1.6173
15415TIP3    H267737   5.497   1.738   3.033  0.5074  0.5037  1.4527
15416TIP3   OH267738   2.390   3.349   3.309  0.0331 -0.2908 -0.7312
15416TIP3    H167739   2.378   3.331   3.402  0.6046  1.1390 -0.3647
15416TIP3    H267740   2.321   3.298   3.266  0.5837 -2.0279  0.3390
15417TIP3   OH267741   2.152   6.252  10.944 -0.3841  0.1530  0.1090
15417TIP3    H167742   2.167   6.322  11.007 -2.7122 -0.5768  1.6299
15417TIP3    H267743   2.116   6.180  10.997 -4.0441  0.0576 -2.1452
15418TIP3   OH267744   1.860   5.601  17.261  0.0415 -0.7158 -0.1384
15418TIP3    H167745   1.844   5.609  17.167  0.8464 -1.4572 -0.3508
15418TIP3    H267746   1.796   5.535  17.291 -0.7148  0.0559 -0.0121
15419TIP3   OH267747   0.892   6.282   3.506 -0.1025 -0.0195  0.0544
15419TIP3    H167748   0.877   6.363   3.553 -1.0447 -0.3219  0.2928
15419TIP3    H267749   0.832   6.286   3.431  0.9616  0.1964 -0.8154
15420TIP3   OH267750   2.524   4.421  16.358  0.4707  0.2271 -0.3931
15420TIP3    H167751   2.556   4.443  16.446 -0.2532 -1.8882  0.4569
15420TIP3    H267752   2.432   4.448  16.359 -0.5936 -2.9664  0.8577
15421TIP3   OH267753   2.134   5.455   4.489  0.4368  0.6871  0.2424
15421TIP3    H167754   2.082   5.478   4.566 -0.5236 -0.6960  0.0404
15421TIP3    H267755   2.100   5.511   4.420  0.7388  1.3471  0.6179
15422TIP3   OH267756   1.960   5.437   2.383  0.0024 -0.2488  0.0731
15422TIP3    H167757   1.908   5.361   2.408 -0.2641 -0.1180 -0.0864
15422TIP3    H267758   1.959   5.437   2.287  1.2800 -0.9324  0.0363
15423TIP3   OH267759   2.657   6.220   3.498 -0.5110  0.2797 -0.4274
15423TIP3    H167760   2.576   6.181   3.531  0.1972 -0.7350  0.1445
15423TIP3    H267761   2.681   6.165   3.423  0.4357 -0.3589  0.3180
15424TIP3   OH267762   6.631   5.782   5.243 -0.1722  0.3956  0.8641
15424TIP3    H167763   6.659   5.704   5.291 -2.1625  0.1307  1.7055
15424TIP3    H267764   6.709   5.838   5.241  1.1023 -1.2886  0.8482
15425TIP3   OH267765   1.949   0.991   5.198  0.1964  0.4317  0.1369
15425TIP3    H167766   1.998   1.041   5.262  1.7334 -0.0999 -0.5677
15425TIP3    H267767   2.008   0.920   5.172 -1.3146 -0.8380 -0.0445
15426TIP3   OH267768   2.668   0.850   3.545 -0.5441 -0.3620 -0.3177
15426TIP3    H167769   2.756   0.887   3.552 -0.6624  0.0809 -1.0054
15426TIP3    H267770   2.623   0.908   3.484 -1.3982 -0.4321  0.2290
15427TIP3   OH267771   3.192   4.883  13.615  0.3115 -0.0258 -0.4741
15427TIP3    H167772   3.230   4.798  13.593  0.6559  0.4209 -1.6928
15427TIP3    H267773   3.267   4.935  13.646  0.1463 -0.0907  0.0356
15428TIP3   OH267774   1.189   6.425  12.047  0.3988 -0.4209 -0.2437
15428TIP3    H167775   1.221   6.509  12.079  2.0720 -1.0324 -0.2107
15428TIP3    H267776   1.219   6.420  11.957 -1.5915 -0.0782 -0.9871
15429TIP3   OH267777   0.115   1.279  15.459 -0.4975  0.9202  0.1598
15429TIP3    H167778   0.161   1.207  15.416  0.6753  2.1368 -0.7333
15429TIP3    H267779   0.108   1.252  15.551 -1.5829 -1.0178 -0.4436
15430TIP3   OH267780   3.503   3.511  17.296  0.2057  0.0566 -0.0971
15430TIP3    H167781   3.455   3.579  17.345 -0.0904  0.0621 -0.3896
15430TIP3    H267782   3.578   3.557  17.259  0.4165  0.0598  0.3217
15431TIP3   OH267783   3.021   4.946   0.643 -0.0300 -0.3135  0.2475
15431TIP3    H167784   3.094   4.915   0.590 -1.0074 -0.1022 -1.2894
15431TIP3    H267785   3.032   5.041   0.646 -1.6100  0.0418 -2.2602
15432TIP3   OH267786   3.203   1.133  11.631  0.2904  0.2966  0.3974
15432TIP3    H167787   3.279   1.098  11.584  0.0190 -0.6731  0.6533
15432TIP3    H267788   3.178   1.211  11.581  1.7576  0.9458  0.6090
15433TIP3   OH267789   2.281   4.811  14.747 -0.4767 -0.3379  0.1356
15433TIP3    H167790   2.267   4.877  14.815 -0.3840 -0.3820  0.1968
15433TIP3    H267791   2.374   4.788  14.754 -0.6994 -1.1228  0.7137
15434TIP3   OH267792   3.358   4.214  13.018 -0.6527 -0.3764  0.0566
15434TIP3    H167793   3.379   4.219  13.111 -1.1439  1.0778  0.1169
15434TIP3    H267794   3.443   4.209  12.975 -0.4332 -1.4660  0.5891
15435TIP3   OH267795   2.858   2.687   5.177 -0.6674  0.3936  0.2448
15435TIP3    H167796   2.847   2.766   5.230  0.5869 -0.5954  2.0540
15435TIP3    H267797   2.829   2.713   5.089 -0.0422  2.9247  0.7202
15436TIP3   OH267798   6.129   0.165   4.158 -0.6110 -0.4801 -0.3225
15436TIP3    H167799   6.058   0.156   4.094 -0.9478 -0.0138 -0.0235
15436TIP3    H267800   6.113   0.250   4.199  0.8388  0.2136 -1.1233
15437TIP3   OH267801   0.274   6.256  12.443  0.4817  0.3260 -0.0283
15437TIP3    H167802   0.342   6.232  12.506  0.6731  0.1471 -0.2988
15437TIP3    H267803   0.202   6.195  12.460  0.4361  0.4378  0.1794
15438TIP3   OH267804   6.044   5.130   0.405  0.3099  0.5636 -0.1874
15438TIP3    H167805   6.120   5.145   0.461 -0.5566 -0.5727  1.3712
15438TIP3    H267806   6.045   5.035   0.388 -1.1398  0.3867  0.5074
15439TIP3   OH267807   4.441   3.945  12.609  0.1216 -0.0396 -0.1391
15439TIP3    H167808   4.495   3.894  12.669 -1.9472 -0.6977  1.2747
15439TIP3    H267809   4.451   3.901  12.524  1.3697 -0.4536  0.2089
15440TIP3   OH267810   3.593   2.769  14.695  0.1451 -0.3940 -0.3554
15440TIP3    H167811   3.688   2.781  14.698  0.2278 -0.8962 -0.9333
15440TIP3    H267812   3.580   2.678  14.669 -0.4835  0.3104 -2.7051
15441TIP3   OH267813   5.334   5.725   4.983 -0.6066 -0.0728  0.1231
15441TIP3    H167814   5.337   5.630   4.989 -0.4820 -0.0221  0.9565
15441TIP3    H267815   5.317   5.743   4.890 -1.1198 -0.9128  0.0508
15442TIP3   OH267816   2.351   3.714   5.720 -0.2109 -0.0117 -0.0336
15442TIP3    H167817   2.301   3.638   5.752 -0.7362 -0.2823 -1.4116
15442TIP3    H267818   2.288   3.787   5.724 -0.3663 -0.1075 -0.7013
15443TIP3   OH267819   1.212   4.258  13.566 -0.2530 -0.2221 -0.1525
15443TIP3    H167820   1.227   4.260  13.471 -0.3772 -0.6012 -0.1823
15443TIP3    H267821   1.178   4.345  13.586  0.6258  0.1648 -0.3075
15444TIP3   OH267822   4.928   5.302   0.128 -0.4641  0.2112  0.6992
15444TIP3    H167823   5.017   5.302   0.161 -0.5185  0.9942  0.8706
15444TIP3    H267824   4.907   5.395   0.116 -1.5500  0.0730  1.4650
15445TIP3   OH267825   5.671   5.796  14.003 -0.0145 -0.1118 -0.3010
15445TIP3    H167826   5.640   5.858  13.938 -1.2360 -0.3051  0.0754
15445TIP3    H267827   5.713   5.851  14.070 -0.0063  0.2027 -0.5607
15446TIP3   OH267828   1.817   5.543  13.011 -0.0543 -0.2745 -0.8572
15446TIP3    H167829   1.786   5.454  12.993 -0.8271 -0.2749  0.3817
15446TIP3    H267830   1.795   5.558  13.103  0.6607  0.9657 -0.8688
15447TIP3   OH267831   0.130   5.135   1.063 -0.2086 -0.2145 -0.4957
15447TIP3    H167832   0.174   5.087   0.994 -0.3699  0.3753 -1.0158
15447TIP3    H267833   0.124   5.225   1.030 -2.1356 -0.3490 -0.6293
15448TIP3   OH267834   5.904   2.191  12.891 -0.5117  0.1547  0.2612
15448TIP3    H167835   5.911   2.286  12.900  0.9737  0.1325 -0.3424
15448TIP3    H267836   5.878   2.176  12.801 -0.1682 -0.0162  0.1870
15449TIP3   OH267837   4.504   5.934  13.381 -0.1812 -0.3884 -0.0936
15449TIP3    H167838   4.463   5.939  13.467  1.6720 -2.1477  0.9700
15449TIP3    H267839   4.465   5.857  13.340  1.8873 -2.0685  0.9210
15450TIP3   OH267840   6.627   3.679   0.132  0.3461  0.1612  0.1630
15450TIP3    H167841   6.539   3.699   0.100  0.4232  0.9723  0.4353
15450TIP3    H267842   6.621   3.687   0.227  0.2516 -1.7059  0.3397
15451TIP3   OH267843   6.180   4.832   2.416 -0.0861 -0.3046 -0.0167
15451TIP3    H167844   6.268   4.803   2.390 -0.7921 -2.5026 -0.1457
15451TIP3    H267845   6.174   4.921   2.382  2.3836  0.2444  0.7445
15452TIP3   OH267846   1.024   2.918  15.334 -0.4381  0.4009 -0.8845
15452TIP3    H167847   0.959   2.890  15.270 -1.5209  2.7720 -0.9158
15452TIP3    H267848   0.981   2.909  15.418 -1.0525  2.3816 -0.9329
15453TIP3   OH267849   0.817   5.336   2.495  0.1905  0.2437 -0.3704
15453TIP3    H167850   0.887   5.371   2.441  0.4631 -0.6746 -0.6378
15453TIP3    H267851   0.855   5.257   2.534 -0.2560  0.4694  0.5471
15454TIP3   OH267852   5.584   1.717  14.585 -0.4655  0.2253 -0.6456
15454TIP3    H167853   5.584   1.729  14.490  1.4448 -2.3082 -1.0794
15454TIP3    H267854   5.559   1.625  14.598  1.3101 -0.0795  1.1240
15455TIP3   OH267855   5.750   0.099  13.745  0.2260 -0.7416  0.3653
15455TIP3    H167856   5.813   0.095  13.674 -2.4651  0.9984 -2.3777
15455TIP3    H267857   5.695   0.021  13.733 -1.3353  0.4659 -0.6937
15456TIP3   OH267858   0.761   3.808   0.994  0.1845  0.6356 -0.2755
15456TIP3    H167859   0.826   3.846   1.053 -0.2486 -0.4085  0.9111
15456TIP3    H267860   0.796   3.722   0.971 -0.5638  0.2288  0.0472
15457TIP3   OH267861   4.367   2.337  11.981 -0.0896 -0.3974  0.6527
15457TIP3    H167862   4.289   2.392  11.990  0.5895  1.1621 -1.7624
15457TIP3    H267863   4.364   2.307  11.890  1.7447 -0.9134  0.7322
15458TIP3   OH267864   6.652   1.196   4.409 -0.3780  0.0019  1.1563
15458TIP3    H167865   6.579   1.183   4.468 -1.0131 -1.9055  0.0338
15458TIP3    H267866   6.644   1.287   4.380 -1.5252  0.1974  2.0339
15459TIP3   OH267867   5.098   0.509  11.128 -0.7029  0.0961  0.3038
15459TIP3    H167868   5.006   0.508  11.100 -0.0858  1.7137 -2.0695
15459TIP3    H267869   5.130   0.595  11.103  1.3956 -0.2888  1.4420
15460TIP3   OH267870   3.244   4.215   3.990  0.3017  0.1784 -0.0216
15460TIP3    H167871   3.253   4.136   3.937 -0.5545 -0.0427  0.1566
15460TIP3    H267872   3.320   4.213   4.049 -0.6539 -1.4725  1.2292
15461TIP3   OH267873   5.865   0.344  15.665  0.0045 -0.0817 -0.7193
15461TIP3    H167874   5.782   0.299  15.648 -1.4091  1.3661  1.8150
15461TIP3    H267875   5.931   0.275  15.659 -1.5100 -1.5230 -1.5662
15462TIP3   OH267876   1.087   3.668   0.652 -0.7722 -0.4653  0.3272
15462TIP3    H167877   1.062   3.734   0.717 -0.4113 -0.0306  0.0308
15462TIP3    H267878   1.026   3.596   0.667 -0.5683 -0.4555  1.2843
15463TIP3   OH267879   2.110   1.203  11.033  0.4767 -0.1313  0.6055
15463TIP3    H167880   2.028   1.229  10.991 -0.0820 -2.5547  0.0287
15463TIP3    H267881   2.123   1.267  11.102 -1.4022  0.8574  0.1158
15464TIP3   OH267882   1.129   1.804   4.178  0.1963 -0.1826 -0.1015
15464TIP3    H167883   1.140   1.781   4.086  0.1985 -0.0632 -0.1309
15464TIP3    H267884   1.067   1.877   4.178  2.7192  2.1424 -0.3127
15465TIP3   OH267885   6.190   4.699  13.135  0.2038 -0.2813 -0.5518
15465TIP3    H167886   6.277   4.664  13.157 -0.3521 -1.7003 -0.4851
15465TIP3    H267887   6.134   4.667  13.206 -0.4070  0.4855 -0.6832
15466TIP3   OH267888   6.271   0.980   3.682 -0.1859 -0.4449 -0.2430
15466TIP3    H167889   6.205   1.015   3.622 -1.0982 -0.8220  0.5090
15466TIP3    H267890   6.236   0.894   3.708  0.6924 -0.7279  0.0236
15467TIP3   OH267891   4.258   5.578  15.812 -0.1760  0.5301 -0.6859
15467TIP3    H167892   4.342   5.588  15.856 -0.6500 -0.0368  0.3748
15467TIP3    H267893   4.280   5.573  15.719  1.2089 -2.1705 -0.3058
15468TIP3   OH267894   5.183   5.651   6.474 -0.1786  0.4065  0.5459
15468TIP3    H167895   5.232   5.725   6.438  1.1880 -0.1796  1.1581
15468TIP3    H267896   5.091   5.679   6.470  0.2306  1.7135 -0.1827
15469TIP3   OH267897   0.146   0.634  14.902  0.3036 -0.5472  0.1267
15469TIP3    H167898   0.139   0.721  14.941  3.8325 -0.9710  2.1891
15469TIP3    H267899   0.198   0.647  14.823  0.4353 -0.7098  0.1843
15470TIP3   OH267900   4.837   1.930  12.093  0.2101 -0.0801  0.5991
15470TIP3    H167901   4.875   1.851  12.132 -0.0043 -0.2778  0.4106
15470TIP3    H267902   4.805   1.901  12.008 -0.8723 -0.0477  0.9847
15471TIP3   OH267903   5.620   6.409   5.742  0.3089  0.7573 -0.3885
15471TIP3    H167904   5.670   6.332   5.715 -0.5917  0.5783 -1.5971
15471TIP3    H267905   5.687   6.475   5.763  1.0876 -0.3198  0.6481
15472TIP3   OH267906   0.640   4.639   0.691 -0.1729 -0.3991 -0.5880
15472TIP3    H167907   0.643   4.672   0.781 -1.5194 -0.3352 -0.5447
15472TIP3    H267908   0.546   4.628   0.673  0.1118 -0.9891 -1.7737
15473TIP3   OH267909   3.721   4.934   5.795  0.3297 -0.0224  0.0231
15473TIP3    H167910   3.788   5.001   5.802  0.7798 -0.4283 -0.3453
15473TIP3    H267911   3.684   4.928   5.883  1.3598 -0.3845  0.4437
15474TIP3   OH267912   5.280   1.013  16.965  0.3777 -0.0758 -0.4947
15474TIP3    H167913   5.233   1.091  16.992 -0.5184 -0.4650 -0.8972
15474TIP3    H267914   5.297   1.026  16.871  0.6210 -0.1683 -0.4651
15475TIP3   OH267915   2.562   4.063   2.401  0.4769  0.5546 -1.0239
15475TIP3    H167916   2.649   4.056   2.439 -0.4257  1.1979  1.2896
15475TIP3    H267917   2.571   4.023   2.314  3.4545  2.0975 -1.5616
15476TIP3   OH267918   2.261   4.078   1.032 -0.1171 -0.4521 -0.5427
15476TIP3    H167919   2.167   4.070   1.016 -0.0596 -0.9231 -0.6746
15476TIP3    H267920   2.270   4.062   1.126  0.0074 -2.2957 -0.8164
15477TIP3   OH267921   3.136   4.978  17.352  0.1453 -0.1852  0.1789
15477TIP3    H167922   3.136   5.028  17.434  0.1065 -2.1035  1.4177
15477TIP3    H267923   3.225   4.946  17.344 -0.3495 -1.7603  0.6415
15478TIP3   OH267924   2.272   5.389   6.761 -0.6692 -0.1478 -0.3920
15478TIP3    H167925   2.276   5.317   6.698  0.0581  0.2020 -0.7573
15478TIP3    H267926   2.193   5.437   6.737 -1.5251 -1.1897  0.2718
15479TIP3   OH267927   4.092   3.014   0.392  0.5851  0.2109  0.0395
15479TIP3    H167928   4.003   3.050   0.403  0.2983 -0.5505  0.3186
15479TIP3    H267929   4.077   2.924   0.364  1.2630 -0.1032  0.6704
15480TIP3   OH267930   5.083   3.802  17.141 -0.4273 -0.2802  0.1283
15480TIP3    H167931   5.163   3.813  17.193 -0.4049  0.1452  0.0048
15480TIP3    H267932   5.012   3.822  17.202 -0.4041  0.1335  0.0253
15481TIP3   OH267933   3.968   2.010   3.515  0.1425  0.1592 -0.4520
15481TIP3    H167934   3.911   2.006   3.592  0.0375 -1.7477 -0.5730
15481TIP3    H267935   3.961   2.100   3.484 -0.1844  0.8388  1.4817
15482TIP3   OH267936   3.450   2.434   3.181 -0.4572  0.4111  0.0811
15482TIP3    H167937   3.435   2.515   3.230 -0.7186 -0.3665  1.3304
15482TIP3    H267938   3.537   2.405   3.207 -1.2755 -0.9269  1.5106
15483TIP3   OH267939   6.423   4.961   3.344  0.0317 -0.6696  0.3015
15483TIP3    H167940   6.428   4.871   3.376  0.4589  0.0042  2.2612
15483TIP3    H267941   6.515   4.988   3.335 -0.0652 -0.8074 -1.5608
15484TIP3   OH267942   3.964   1.144  12.713  0.0096  0.5390  0.5001
15484TIP3    H167943   3.993   1.221  12.663 -0.6572 -0.6583 -1.8756
15484TIP3    H267944   4.043   1.112  12.756  1.0612  0.5455 -1.3400
15485TIP3   OH267945   2.697   6.108  16.943 -0.2077  0.0806 -0.1695
15485TIP3    H167946   2.647   6.132  16.866  0.4947  2.3733  0.0322
15485TIP3    H267947   2.634   6.112  17.015 -0.6070 -0.9771 -0.4422
15486TIP3   OH267948   4.154   2.063  16.609 -0.2889 -0.6329  0.2349
15486TIP3    H167949   4.166   2.034  16.518  3.1005  1.0073  0.0156
15486TIP3    H267950   4.120   2.152  16.601  2.0792  0.3631  0.3775
15487TIP3   OH267951   5.007   6.199  10.955  0.2272 -0.4341 -0.0305
15487TIP3    H167952   4.974   6.289  10.956 -0.0239 -0.4873 -1.3957
15487TIP3    H267953   4.928   6.145  10.966  0.4523 -0.5092  1.4881
15488TIP3   OH267954   5.203   3.663   2.587  0.5718 -0.0348  0.4317
15488TIP3    H167955   5.246   3.597   2.533  0.7937  1.0936 -0.8488
15488TIP3    H267956   5.109   3.643   2.581  0.6932 -0.6978  0.7224
15489TIP3   OH267957   1.869   4.866  11.509 -0.0124 -0.4693  0.5790
15489TIP3    H167958   1.881   4.946  11.458 -0.9839  0.1485  1.2968
15489TIP3    H267959   1.946   4.812  11.487  0.1222  0.2124 -0.7121
15490TIP3   OH267960   6.150   5.613   3.106 -0.0522  0.6616  0.3959
15490TIP3    H167961   6.151   5.517   3.105 -3.0608  0.5123  1.0625
15490TIP3    H267962   6.242   5.639   3.108  0.8250 -2.2276  1.5311
15491TIP3   OH267963   2.483   5.840  15.987 -0.0131  0.4355  0.9243
15491TIP3    H167964   2.550   5.903  15.960 -0.0312  1.5427  3.2590
15491TIP3    H267965   2.404   5.867  15.941  0.0307  2.0452  1.7387
15492TIP3   OH267966   0.647   1.086  16.051  0.1345  0.0146 -0.7086
15492TIP3    H167967   0.595   1.006  16.046  0.3687 -0.1205 -0.9734
15492TIP3    H267968   0.629   1.132  15.969 -1.5800  1.2155  0.2757
15493TIP3   OH267969   6.115   6.263   4.907 -0.5367 -0.6000  0.2756
15493TIP3    H167970   6.024   6.280   4.930 -0.9225 -0.5107 -1.2167
15493TIP3    H267971   6.139   6.335   4.849 -0.2934 -1.8401 -1.2593
15494TIP3   OH267972   5.658   4.635   3.221  0.1115 -0.2049  0.2349
15494TIP3    H167973   5.632   4.543   3.226  0.8186 -0.3690  1.2927
15494TIP3    H267974   5.585   4.683   3.259 -1.0976 -0.1243 -2.0361
15495TIP3   OH267975   2.679   5.265   3.594  0.2167 -0.6795  0.5058
15495TIP3    H167976   2.656   5.189   3.539 -0.6355 -0.1901  0.1682
15495TIP3    H267977   2.774   5.273   3.584  0.3219 -1.7049  0.5547
15496TIP3   OH267978   4.118   6.610   2.259  0.0920 -0.2610  0.0149
15496TIP3    H167979   4.204   6.618   2.216  0.7154  0.8441  1.3885
15496TIP3    H267980   4.131   6.650   2.345 -1.2929 -1.8039  0.9863
15497TIP3   OH267981   4.379   3.626   4.552 -0.4873  0.7002 -0.6040
15497TIP3    H167982   4.361   3.720   4.558  0.7314  0.8793  1.0720
15497TIP3    H267983   4.472   3.620   4.533 -0.3356 -0.1633  0.3292
15498TIP3   OH267984   5.402   4.987   5.837 -0.2729  0.5933 -0.1057
15498TIP3    H167985   5.309   4.987   5.814 -0.2540  0.6436 -0.1849
15498TIP3    H267986   5.425   4.895   5.847 -0.0032  0.4790 -1.4584
15499TIP3   OH267987   4.126   3.739  17.306 -0.0360  0.4700 -0.0256
15499TIP3    H167988   4.084   3.662  17.344  0.7293  0.8802  1.7777
15499TIP3    H267989   4.054   3.787  17.264 -0.9113 -0.1398  0.7399
15500TIP3   OH267990   3.101   2.098   3.943  0.3570 -0.0007  0.2349
15500TIP3    H167991   3.060   2.012   3.954 -0.3664  0.4238  0.8980
15500TIP3    H267992   3.154   2.109   4.022  0.0515  0.3748  0.3911
15501TIP3   OH267993   3.227   1.492  11.693 -0.8035 -0.1801  0.0037
15501TIP3    H167994   3.142   1.522  11.725 -0.9139  4.3276 -3.5777
15501TIP3    H267995   3.207   1.445  11.612  0.0602  0.9278 -0.8764
15502TIP3   OH267996   4.461   3.701   4.900  0.0374 -0.1760  0.2432
15502TIP3    H167997   4.533   3.700   4.836 -0.5562 -1.1739 -0.4423
15502TIP3    H267998   4.400   3.635   4.867  0.1591 -1.4213  2.3629
15503TIP3   OH267999   0.518   4.259  14.674  0.1219  0.5504  0.1404
15503TIP3    H168000   0.572   4.332  14.643  0.2410  0.6219  0.5055
15503TIP3    H268001   0.492   4.213  14.595 -0.5346  1.3940 -0.1478
15504TIP3   OH268002   0.126   0.001  16.178 -0.3651 -0.5461 -0.4093
15504TIP3    H168003   0.102   0.088  16.147  0.8719  0.1688  0.5209
15504TIP3    H268004   0.090  -0.059  16.113 -0.4195  0.7116 -1.5937
15505TIP3   OH268005   4.314   5.318  16.601 -0.4957 -0.1926 -0.0434
15505TIP3    H168006   4.384   5.253  16.614 -0.2478  0.3780  1.6455
15505TIP3    H268007   4.286   5.304  16.511  3.1778  0.8777 -1.5780
15506TIP3   OH268008   0.868   4.204  11.363  0.4005 -0.3959  0.0362
15506TIP3    H168009   0.933   4.153  11.315  1.0151  0.3064  0.1006
15506TIP3    H268010   0.784   4.163  11.342  0.5041  0.5290 -2.5054
15507TIP3   OH268011   3.844   2.459   2.380  0.3221  0.2360 -0.1224
15507TIP3    H168012   3.815   2.370   2.402 -0.3268  0.3203 -0.6259
15507TIP3    H268013   3.808   2.475   2.293  0.4839  0.9734 -0.0551
15508TIP3   OH268014   1.933   3.249   5.750  0.2396 -0.0605 -0.2327
15508TIP3    H168015   1.838   3.252   5.753  0.2167 -1.0414  0.4422
15508TIP3    H268016   1.959   3.340   5.733 -0.7888  0.3237  0.1510
15509TIP3   OH268017   6.010   4.560   5.704 -0.1731  0.0541  0.3123
15509TIP3    H168018   6.030   4.608   5.784  0.3580  0.0839  0.1635
15509TIP3    H268019   6.035   4.470   5.722  1.0335  0.2707 -0.2071
15510TIP3   OH268020   1.457   2.401  14.105 -0.3102  0.6131 -0.4112
15510TIP3    H168021   1.499   2.317  14.125 -0.3290  0.8137  0.5231
15510TIP3    H268022   1.403   2.382  14.028 -1.4553 -0.6458  0.6254
15511TIP3   OH268023   0.539   3.059   0.882  0.5669 -0.0882 -0.4418
15511TIP3    H168024   0.453   3.090   0.854  0.2609  1.0062  1.5197
15511TIP3    H268025   0.560   3.113   0.958  2.2423 -1.4794  0.1449
15512TIP3   OH268026   2.315   3.343  15.769 -0.0405  0.0558  0.7734
15512TIP3    H168027   2.276   3.354  15.855 -1.8555  0.9800 -0.1189
15512TIP3    H268028   2.302   3.250  15.748 -0.1706 -0.0248  1.2130
15513TIP3   OH268029   1.496   0.000  17.035 -0.3235 -1.0976 -0.0381
15513TIP3    H168030   1.491   0.084  17.082 -1.1772 -1.1868  0.0475
15513TIP3    H268031   1.582  -0.035  17.057  0.4856  0.2438 -0.9067
15514TIP3   OH268032   4.788   4.352   5.126  0.4415  0.2693  0.2162
15514TIP3    H168033   4.854   4.344   5.058  1.6996  1.7334  1.1869
15514TIP3    H268034   4.707   4.373   5.080  1.1067  0.4995 -0.8689
15515TIP3   OH268035   4.727   4.548   1.117  0.8519  0.1229  0.2439
15515TIP3    H168036   4.812   4.578   1.084  1.3287 -0.2089  1.1385
15515TIP3    H268037   4.666   4.566   1.045  1.4996  1.2678 -0.0451
15516TIP3   OH268038   2.767   1.319   6.207 -0.4846 -0.1304 -0.7041
15516TIP3    H168039   2.726   1.390   6.258 -0.4031 -0.6135  0.0537
15516TIP3    H268040   2.840   1.361   6.163 -0.2621  0.2028 -0.0298
15517TIP3   OH268041   1.027   0.254   1.709 -0.0535  0.4199 -0.1914
15517TIP3    H168042   1.012   0.180   1.651 -1.9986 -0.4226  1.2773
15517TIP3    H268043   1.030   0.330   1.651 -2.3897 -0.3121 -1.3932
15518TIP3   OH268044   6.698   1.847  12.007  0.5448  0.3198  0.6614
15518TIP3    H168045   6.752   1.797  12.068 -0.2823 -1.3809  0.0757
15518TIP3    H268046   6.633   1.784  11.976  0.0987  1.5056 -0.9265
15519TIP3   OH268047   0.620   0.595   6.875 -0.5226 -0.0446  0.0013
15519TIP3    H168048   0.614   0.631   6.786 -0.3463  1.7127  0.6449
15519TIP3    H268049   0.695   0.640   6.914 -0.3786 -1.0525  0.9303
15520TIP3   OH268050   4.452   4.119  16.301  0.0140  0.1947  0.0841
15520TIP3    H168051   4.428   4.195  16.354 -0.3440  0.4229 -0.3975
15520TIP3    H268052   4.395   4.124  16.224  0.7196  0.0311 -0.4642
15521TIP3   OH268053   1.372   4.690   1.300  0.9164 -0.0291 -0.4701
15521TIP3    H168054   1.331   4.638   1.369  1.3108 -2.2163 -1.8142
15521TIP3    H268055   1.316   4.677   1.224  1.5975  0.7232 -1.1176
15522TIP3   OH268056   0.667   1.264   3.943 -0.2421  0.6291 -0.2111
15522TIP3    H168057   0.597   1.254   3.878  0.2502  0.3986 -0.7162
15522TIP3    H268058   0.743   1.292   3.891 -0.0751  1.3186  0.3906
15523TIP3   OH268059   4.970   1.561   4.602  0.1576  0.1935 -0.1219
15523TIP3    H168060   4.910   1.615   4.550  0.2636  0.4773  0.0447
15523TIP3    H268061   4.992   1.616   4.677 -2.6893 -1.4282  2.1061
15524TIP3   OH268062   6.609   5.312  14.321  0.2712 -0.2520 -0.1338
15524TIP3    H168063   6.539   5.363  14.362  0.2052  0.1398 -0.7174
15524TIP3    H268064   6.567   5.229  14.297  0.7299 -1.1864  2.1040
15525TIP3   OH268065   6.071   2.987  15.040  0.2098  0.0760 -0.1529
15525TIP3    H168066   5.976   2.985  15.032  0.2791 -0.0854 -0.9632
15525TIP3    H268067   6.103   2.956  14.956  0.9850  0.2829  0.0588
15526TIP3   OH268068   1.285   3.173  16.749  0.5107 -0.0987 -0.7329
15526TIP3    H168069   1.206   3.188  16.697 -0.0918  0.0412  0.2004
15526TIP3    H268070   1.255   3.126  16.826  1.6148 -1.6563 -1.1905
15527TIP3   OH268071   5.314   4.172  15.583 -0.1673  0.3332 -0.0587
15527TIP3    H168072   5.354   4.149  15.667 -0.3167  1.5500  0.3651
15527TIP3    H268073   5.365   4.124  15.518  0.2318 -0.2777  0.6903
15528TIP3   OH268074   5.784   1.994  13.135  0.0160 -0.0233  0.5449
15528TIP3    H168075   5.732   1.969  13.059  1.7182  0.7149 -0.9420
15528TIP3    H268076   5.786   2.090  13.132  1.0226 -0.0186  0.8573
15529TIP3   OH268077   0.238   3.934  12.670  0.2954  0.0403  0.0716
15529TIP3    H168078   0.237   4.019  12.713  0.3263 -0.8658  1.9638
15529TIP3    H268079   0.199   3.874  12.734 -0.0672 -1.3095 -1.3579
15530TIP3   OH268080   5.360   5.550   1.389 -0.1658  0.0235  0.2829
15530TIP3    H168081   5.321   5.557   1.302 -0.7818 -0.0498  0.5529
15530TIP3    H268082   5.300   5.597   1.447 -0.8097 -1.6324  0.9975
15531TIP3   OH268083   5.229   2.179  10.716 -0.2293  0.0139 -0.2878
15531TIP3    H168084   5.270   2.115  10.659  1.8407 -0.0635  1.1714
15531TIP3    H268085   5.167   2.128  10.769 -1.5907 -0.0342 -1.8598
15532TIP3   OH268086   0.591   1.518  15.236 -0.2656 -0.2649  0.0635
15532TIP3    H168087   0.515   1.519  15.177 -0.1640  3.1669 -0.2402
15532TIP3    H268088   0.655   1.575  15.193  1.7955 -1.5913  1.2077
15533TIP3   OH268089   0.712   2.841   1.865 -0.1598 -0.4277 -0.0475
15533TIP3    H168090   0.695   2.909   1.930  0.4959 -1.3460  1.1187
15533TIP3    H268091   0.647   2.774   1.883 -0.2291 -0.5197 -0.6146
15534TIP3   OH268092   0.216   1.612   6.682 -0.2835  0.7810 -0.5042
15534TIP3    H168093   0.226   1.706   6.669  0.9693  0.8054  0.5556
15534TIP3    H268094   0.291   1.586   6.735 -2.4534 -0.1849  2.3314
15535TIP3   OH268095   1.436   6.035  15.059  0.3992  0.2541  0.4164
15535TIP3    H168096   1.445   5.971  14.988  0.9209  0.4926  0.2629
15535TIP3    H268097   1.431   5.981  15.138  3.1085  0.0220  0.5331
15536TIP3   OH268098   3.470   0.310  13.820 -0.2775 -0.4332 -0.1845
15536TIP3    H168099   3.426   0.305  13.735 -1.8758  1.2619  0.4846
15536TIP3    H268100   3.476   0.404  13.838 -0.2044 -0.7700  1.6926
15537TIP3   OH268101   3.297   1.775  12.638  0.3197 -0.1419  0.2813
15537TIP3    H168102   3.245   1.842  12.682  0.9657  0.7065 -0.2136
15537TIP3    H268103   3.276   1.694  12.684 -1.5118  0.1511  0.0270
15538TIP3   OH268104   4.709   0.323  13.192  0.1140 -0.2815 -0.2853
15538TIP3    H168105   4.733   0.242  13.236 -1.5548 -0.2644  0.7595
15538TIP3    H268106   4.623   0.303  13.152 -0.0665  0.8043 -0.4612
15539TIP3   OH268107   5.147   4.425   4.513 -0.4734 -0.4167  0.5129
15539TIP3    H168108   5.065   4.471   4.496 -0.8435 -1.5005 -0.7953
15539TIP3    H268109   5.121   4.339   4.545  0.1224 -0.8099 -0.0158
15540TIP3   OH268110   1.290   0.245   3.495 -0.1317  0.3265  1.0558
15540TIP3    H168111   1.311   0.320   3.441 -0.6494 -1.2731 -1.5575
15540TIP3    H268112   1.280   0.172   3.433  1.1709 -2.1161  3.4653
15541TIP3   OH268113   6.095   6.746  16.531  0.2632 -0.7920  0.3980
15541TIP3    H168114   6.050   6.830  16.524  1.4479 -0.2297 -1.3075
15541TIP3    H268115   6.084   6.720  16.622  2.5444  2.7845  1.9008
15542TIP3   OH268116   3.007   5.799  16.012  0.3165  0.1445  0.4825
15542TIP3    H168117   2.938   5.792  15.946  0.7339  1.4047 -0.1248
15542TIP3    H268118   3.084   5.759  15.971  0.8222  1.7458 -0.1939
15543TIP3   OH268119   5.915   2.705  17.057  0.0465  0.3772  0.6780
15543TIP3    H168120   5.850   2.638  17.038 -2.1754  2.6317 -0.2696
15543TIP3    H268121   5.905   2.769  16.986  0.4288  2.8417  2.7159
15544TIP3   OH268122   2.911   6.510   2.716  0.4478  0.4777  0.0857
15544TIP3    H168123   2.975   6.577   2.691  0.5559  0.9275  1.4797
15544TIP3    H268124   2.827   6.556   2.713  0.1216 -0.1553 -1.9041
15545TIP3   OH268125   2.671   1.493  12.032 -0.4356  0.0751  0.4611
15545TIP3    H168126   2.684   1.514  12.124  0.9066  3.7554 -0.4058
15545TIP3    H268127   2.724   1.414  12.018  2.4176  1.5379  2.1238
15546TIP3   OH268128   1.801   4.815  15.111  0.5700  0.1236 -0.0162
15546TIP3    H168129   1.847   4.738  15.077  2.0796  0.5605  0.9588
15546TIP3    H268130   1.776   4.791  15.200  1.2822  0.8356  0.3887
15547TIP3   OH268131   3.223   0.860  14.942 -0.2121 -0.0517  0.4507
15547TIP3    H168132   3.306   0.858  14.894 -0.4222  0.3013  0.0640
15547TIP3    H268133   3.156   0.867  14.874 -0.5705 -0.4718  0.7547
15548TIP3   OH268134   2.527   4.716  14.746  0.4329 -0.0947  0.2133
15548TIP3    H168135   2.489   4.663  14.676 -0.9324  1.9728 -0.7122
15548TIP3    H268136   2.600   4.762  14.704 -0.2999  1.0422  0.1453
15549TIP3   OH268137   6.446   6.431   1.033  0.2470  0.2415 -0.3356
15549TIP3    H168138   6.465   6.366   0.966 -1.0035  0.5608 -1.0225
15549TIP3    H268139   6.520   6.425   1.094  0.2177 -1.7009 -0.4476
15550TIP3   OH268140   1.708   2.424   3.787 -0.1397 -0.1456  0.4515
15550TIP3    H168141   1.698   2.502   3.733 -0.4211 -0.4795  0.0225
15550TIP3    H268142   1.626   2.417   3.835 -0.7757 -1.0912 -0.7216
15551TIP3   OH268143   6.470   3.607   5.411 -0.2981  0.3289  0.1420
15551TIP3    H168144   6.557   3.645   5.401  0.0473 -0.2592  0.8449
15551TIP3    H268145   6.429   3.619   5.325  0.4271  0.7093 -0.1622
15552TIP3   OH268146   2.676   1.910   3.295  0.1969  0.2850 -0.8914
15552TIP3    H168147   2.760   1.868   3.278 -0.4184 -0.7559 -1.4535
15552TIP3    H268148   2.690   1.961   3.374  1.6377  0.9317 -1.5373
15553TIP3   OH268149   6.686   3.154   1.480 -0.3444  0.3923  0.9084
15553TIP3    H168150   6.778   3.175   1.468 -0.6719  0.4886 -2.5691
15553TIP3    H268151   6.683   3.059   1.479 -0.2746  0.3873  1.1526
15554TIP3   OH268152   0.850   6.509  16.743  0.4647 -0.4832  0.7966
15554TIP3    H168153   0.864   6.487  16.651  0.5778 -2.4728  1.2503
15554TIP3    H268154   0.904   6.447  16.792 -0.0837  0.1076  2.2366
15555TIP3   OH268155   6.313   2.067  12.275 -0.1822 -0.3008  0.3142
15555TIP3    H168156   6.397   2.072  12.321 -0.4555  0.9796  0.6977
15555TIP3    H268157   6.336   2.079  12.182  0.0969 -0.3809  0.3719
15556TIP3   OH268158   4.831   4.658  14.104  0.1722  0.6600  0.1755
15556TIP3    H168159   4.798   4.586  14.158  1.2041 -0.9377 -1.2311
15556TIP3    H268160   4.866   4.721  14.167 -0.3155 -0.2741  1.4246
15557TIP3   OH268161   1.966   0.163  13.513 -0.0268  0.0531 -0.3628
15557TIP3    H168162   1.886   0.131  13.555 -0.5526 -0.1391 -1.4645
15557TIP3    H268163   2.022   0.085  13.505  0.4719  0.2738  0.8112
15558TIP3   OH268164   4.956   1.384   3.941  0.5409 -0.1408 -0.0530
15558TIP3    H168165   4.901   1.458   3.917  1.7581  1.5262  1.8413
15558TIP3    H268166   4.897   1.309   3.945 -1.2861  1.2507  0.4133
15559TIP3   OH268167   4.635   3.692  13.482  0.6350  0.1871  0.1460
15559TIP3    H168168   4.642   3.779  13.442  1.9470 -0.5117 -1.2507
15559TIP3    H268169   4.571   3.703  13.553 -2.1773  1.4019 -2.3789
15560TIP3   OH268170   3.410   3.194  16.497  0.9186  0.2929 -0.4826
15560TIP3    H168171   3.333   3.251  16.488  1.5002  1.0213 -0.9191
15560TIP3    H268172   3.420   3.154  16.410  1.7647  1.1600 -0.7971
15561TIP3   OH268173   3.557   4.530   3.979  0.3963 -0.5002  0.5330
15561TIP3    H168174   3.528   4.464   4.042 -1.3026  0.3701  0.7201
15561TIP3    H268175   3.503   4.607   3.998  0.9209  0.2844 -0.9806
15562TIP3   OH268176   0.588   1.718  12.049  0.0817 -0.5030 -0.3444
15562TIP3    H168177   0.621   1.633  12.079  2.3580  0.0298 -1.1088
15562TIP3    H268178   0.606   1.718  11.955 -0.4800  0.5896 -0.4591
15563TIP3   OH268179   4.679   3.075   4.541  0.4367  0.0961 -0.2210
15563TIP3    H168180   4.657   3.155   4.589 -0.3450  0.0370 -0.4735
15563TIP3    H268181   4.614   3.069   4.472  0.5976 -0.6672 -0.3197
15564TIP3   OH268182   5.200   1.535  11.090  0.6686 -0.1310 -0.0849
15564TIP3    H168183   5.273   1.476  11.106  1.1886  0.2345 -1.0436
15564TIP3    H268184   5.177   1.521  10.998  2.3601  2.7945 -1.0915
15565TIP3   OH268185   3.751   3.938   2.720  0.3267 -0.1035  0.4167
15565TIP3    H168186   3.662   3.905   2.725 -0.2044  1.2536  0.2996
15565TIP3    H268187   3.753   3.991   2.641  0.9087  0.8097  1.0290
15566TIP3   OH268188   6.608   0.410  15.028  0.6580  0.0535 -0.0165
15566TIP3    H168189   6.561   0.376  14.952  1.1203 -0.9804  0.1286
15566TIP3    H268190   6.550   0.392  15.102  0.9244 -0.4940  0.0664
15567TIP3   OH268191   3.115   5.193  15.266  0.0153 -0.0822  0.1425
15567TIP3    H168192   3.138   5.103  15.289 -1.3771 -0.3442  0.6504
15567TIP3    H268193   3.056   5.184  15.191  1.7092  0.5687 -1.3325
15568TIP3   OH268194   6.106   3.838  14.227 -0.1354 -0.1092 -0.2929
15568TIP3    H168195   6.172   3.770  14.239 -0.1397  0.1567  1.4253
15568TIP3    H268196   6.129   3.878  14.144  1.1576 -0.7969 -0.3015
15569TIP3   OH268197   6.669   2.318  15.086  0.2627 -0.1391 -0.1672
15569TIP3    H168198   6.742   2.353  15.035 -0.3088  0.8735 -0.3048
15569TIP3    H268199   6.591   2.359  15.048 -0.2162  0.2606  1.1986
15570TIP3   OH268200   6.693   5.169  12.904  0.0665 -0.0552  0.2967
15570TIP3    H168201   6.615   5.124  12.873 -1.2870  2.3110  0.0659
15570TIP3    H268202   6.759   5.153  12.836 -0.5140 -1.2429 -0.0054
15571TIP3   OH268203   0.711   2.066  12.439 -0.7848  0.1508 -0.2965
15571TIP3    H168204   0.711   1.983  12.391  0.8661 -0.8704  1.3208
15571TIP3    H268205   0.789   2.112  12.408 -1.0389  0.5676 -0.3214
15572TIP3   OH268206   1.647   1.314  13.819 -0.2650 -0.4704  0.3335
15572TIP3    H168207   1.735   1.330  13.853 -1.2740  2.7047  1.9382
15572TIP3    H268208   1.658   1.247  13.752  3.6009  0.8881 -0.6475
15573TIP3   OH268209   4.694   1.006  17.115  0.1977  0.6905  0.0672
15573TIP3    H168210   4.719   1.083  17.165  2.6166 -0.2134  0.4043
15573TIP3    H268211   4.632   1.038  17.050  0.0317  2.6169  1.1117
15574TIP3   OH268212   5.381   6.604   0.809 -0.1849 -0.0549  0.4185
15574TIP3    H168213   5.374   6.513   0.781  0.8293 -0.4612  1.4212
15574TIP3    H268214   5.436   6.601   0.887 -0.9004  1.3168  1.0097
15575TIP3   OH268215   1.569   1.722  15.889 -0.0459  0.3139 -0.0088
15575TIP3    H168216   1.530   1.794  15.938 -1.1468  0.5065 -1.1061
15575TIP3    H268217   1.548   1.644  15.940  2.4158  0.8222  1.9747
15576TIP3   OH268218   4.525   0.498   4.254 -0.0745 -0.6204 -0.1187
15576TIP3    H168219   4.518   0.504   4.159  1.0204  0.7003 -0.1470
15576TIP3    H268220   4.617   0.477   4.270 -0.0924 -0.1471  0.6625
15577TIP3   OH268221   6.479   2.681  12.702 -0.2148  0.0171  0.2167
15577TIP3    H168222   6.454   2.643  12.787  1.1315 -3.0602 -0.6170
15577TIP3    H268223   6.545   2.621  12.668 -0.6549  1.1826 -3.0018
15578TIP3   OH268224   2.450   5.867  16.680  0.2065  0.2853  0.3558
15578TIP3    H168225   2.541   5.890  16.660  0.7770 -1.1766  1.0948
15578TIP3    H268226   2.412   5.845  16.595  1.5922 -2.4610  0.3151
15579TIP3   OH268227   5.001   5.193  14.105 -0.3174 -0.6541  0.5862
15579TIP3    H168228   5.052   5.165  14.181  0.2269 -0.0227  0.4648
15579TIP3    H268229   4.965   5.112  14.069 -1.0244 -0.9022  1.8230
15580TIP3   OH268230   4.145   5.664   0.242  0.6297  0.0897 -0.1858
15580TIP3    H168231   4.156   5.738   0.183 -0.2908  0.4749  0.1043
15580TIP3    H268232   4.206   5.598   0.209  1.1462  0.8085 -0.7094
15581TIP3   OH268233   0.722   1.342  13.437  0.1417 -0.3341  0.2562
15581TIP3    H168234   0.703   1.287  13.360  0.2810 -0.8305  0.5688
15581TIP3    H268235   0.814   1.366  13.429  0.1728 -0.4381  0.2967
15582TIP3   OH268236   0.597   6.559  12.425 -0.3565  0.6850 -0.2883
15582TIP3    H168237   0.658   6.633  12.418  0.5269  0.6386  4.0091
15582TIP3    H268238   0.515   6.599  12.453 -0.6268  0.2282 -0.4219
15583TIP3   OH268239   4.388   1.394   6.954 -0.0611 -0.9081  0.4066
15583TIP3    H168240   4.333   1.417   6.878 -0.1050 -0.2335  0.6286
15583TIP3    H268241   4.477   1.409   6.925 -0.0544 -1.0607  0.3513
15584TIP3   OH268242   6.695   2.346   4.744  0.0754 -0.1299  0.2502
15584TIP3    H168243   6.726   2.419   4.689 -0.3024  0.1632  0.4178
15584TIP3    H268244   6.703   2.379   4.833 -0.2445 -0.2385  0.3179
15585TIP3   OH268245   6.554   2.668   1.834 -0.1020 -0.3138 -0.2082
15585TIP3    H168246   6.575   2.616   1.911  0.7896  0.2842 -0.0259
15585TIP3    H268247   6.474   2.629   1.799 -0.2289 -0.9115  0.7214
15586TIP3   OH268248   2.513   0.656  15.165  0.0883 -0.1608  0.0937
15586TIP3    H168249   2.527   0.587  15.100  0.1349  0.6485 -0.7832
15586TIP3    H268250   2.563   0.627  15.242  0.9538 -0.6005 -0.6170
15587TIP3   OH268251   6.251   6.630  12.757  0.2780 -0.3236 -0.0624
15587TIP3    H168252   6.233   6.721  12.782  1.6923 -0.2498  0.7518
15587TIP3    H268253   6.201   6.578  12.819 -1.7187 -0.1626 -1.4142
15588TIP3   OH268254   5.012   4.023  12.372 -0.1154  0.1519  0.4116
15588TIP3    H168255   5.056   4.095  12.417  0.4382  1.4401 -2.0109
15588TIP3    H268256   4.924   4.021  12.410  0.0889  1.6564  1.0247
15589TIP3   OH268257   0.525   6.417   1.118  0.1444  0.0689  0.0317
15589TIP3    H168258   0.438   6.455   1.136 -0.5613 -1.3448 -0.2975
15589TIP3    H268259   0.586   6.474   1.166 -0.7263  2.3430 -1.3916
15590TIP3   OH268260   0.476   6.728   0.917 -0.2016 -0.2705 -0.1690
15590TIP3    H168261   0.425   6.650   0.899 -3.3144  1.7202 -0.8378
15590TIP3    H268262   0.562   6.711   0.880 -1.2922 -2.7110 -1.7603
15591TIP3   OH268263   6.142   0.326  16.166  0.4142  0.3820 -0.0219
15591TIP3    H168264   6.107   0.350  16.081  1.1797  0.8009 -0.2311
15591TIP3    H268265   6.203   0.254  16.149 -0.0399 -0.0796  0.2827
15592TIP3   OH268266   6.128   3.793  13.013 -0.0979  0.1875  0.2740
15592TIP3    H168267   6.143   3.778  12.920 -0.4478  1.8953 -0.0886
15592TIP3    H268268   6.216   3.804  13.050  0.0513 -0.6443  0.1997
15593TIP3   OH268269   2.743   0.926  11.437  0.0682  0.7430 -0.8753
15593TIP3    H168270   2.698   1.010  11.434  0.1484  0.8207 -0.0307
15593TIP3    H268271   2.674   0.862  11.453  0.2229  0.8501  0.3018
15594TIP3   OH268272   3.416   4.834  11.811 -0.1106  0.1897 -0.2231
15594TIP3    H168273   3.473   4.896  11.854  1.9704 -1.8704  0.1751
15594TIP3    H268274   3.452   4.825  11.722 -0.0738 -0.7697 -0.1235
15595TIP3   OH268275   2.908   0.848   0.944  0.1720  0.2661 -0.4627
15595TIP3    H168276   2.949   0.911   1.004  4.1820 -1.5985 -0.9045
15595TIP3    H268277   2.886   0.773   1.000  1.8174 -0.5775 -0.8985
15596TIP3   OH268278   5.681   3.288  11.650 -0.1663 -0.1851 -0.4448
15596TIP3    H168279   5.683   3.193  11.660  0.3821 -0.3154 -1.6194
15596TIP3    H268280   5.770   3.311  11.624 -0.4657  0.5678 -0.8310
15597TIP3   OH268281   5.615   5.045  10.962 -0.2374  0.0076  0.1601
15597TIP3    H168282   5.603   5.138  10.981  1.5384  0.1659  0.5924
15597TIP3    H268283   5.619   5.003  11.047 -4.6424 -1.0793  0.0775
15598TIP3   OH268284   2.476   5.076   4.155  0.1595 -0.7020 -0.0246
15598TIP3    H168285   2.455   5.169   4.168  1.9859 -0.3106  0.3988
15598TIP3    H268286   2.418   5.030   4.216 -0.6759  0.1533 -0.1474
15599TIP3   OH268287   5.605   0.566  11.943  0.3212 -0.1736 -0.0101
15599TIP3    H168288   5.560   0.494  11.899  1.5555 -1.3956  0.6570
15599TIP3    H268289   5.673   0.593  11.881 -1.6503  2.1672 -1.3385
15600TIP3   OH268290   2.412   5.036  11.153  0.5570 -0.4991  0.0372
15600TIP3    H168291   2.325   5.071  11.132  0.9708  1.3663  1.2307
15600TIP3    H268292   2.444   5.002  11.070 -0.1513  1.4863 -1.1306
15601TIP3   OH268293   6.145   5.960  12.227  0.5801  0.1866 -0.2986
15601TIP3    H168294   6.138   5.919  12.314  1.5027  0.9426  0.1534
15601TIP3    H268295   6.239   5.980  12.218  0.2538  1.6279 -0.7630
15602TIP3   OH268296   0.067   3.097  10.865 -0.6903 -0.0757 -0.4340
15602TIP3    H168297   0.090   3.168  10.805  0.5813 -0.6420 -0.6498
15602TIP3    H268298   0.113   3.020  10.830 -0.6546 -0.6124  0.7501
15603TIP3   OH268299   2.828   5.469   1.195 -1.0790 -0.5842 -0.2137
15603TIP3    H168300   2.879   5.459   1.276  0.6296 -0.8139 -1.2634
15603TIP3    H268301   2.894   5.482   1.127 -2.4887 -0.1675 -1.5500
15604TIP3   OH268302   2.368   6.224   0.519 -0.4754  0.4927 -0.0662
15604TIP3    H168303   2.387   6.143   0.471 -1.1067 -0.0682  0.6047
15604TIP3    H268304   2.382   6.294   0.455 -0.5497 -0.1868 -0.8427
15605TIP3   OH268305   4.539   3.303   3.458 -0.5728  0.6422  0.3157
15605TIP3    H168306   4.511   3.393   3.476  0.8442  1.3944 -1.0480
15605TIP3    H268307   4.566   3.304   3.366  2.0734 -0.4664  0.9906
15606TIP3   OH268308   4.734   4.398  11.303 -0.3839  0.4144 -0.0334
15606TIP3    H168309   4.708   4.428  11.390 -1.5341 -0.5335 -0.0108
15606TIP3    H268310   4.652   4.400  11.253 -0.0645 -0.5956 -0.6131
15607TIP3   OH268311   1.191   2.617   5.201 -0.5903  0.2706  0.0295
15607TIP3    H168312   1.167   2.592   5.112 -0.8905 -0.6811  0.3598
15607TIP3    H268313   1.214   2.534   5.243  2.4211  0.9693  0.0246
15608TIP3   OH268314   1.406   0.901  15.970  0.2599 -0.5497 -0.5309
15608TIP3    H168315   1.470   0.944  16.026  1.2247 -2.5918  0.0609
15608TIP3    H268316   1.458   0.845  15.912 -0.9202 -1.1872 -1.0145
15609TIP3   OH268317   0.279   0.804  10.852 -0.8799 -0.3143  0.1433
15609TIP3    H168318   0.261   0.834  10.763  2.1613  1.4012 -0.0131
15609TIP3    H268319   0.251   0.712  10.852 -2.6478  0.1393 -1.9826
15610TIP3   OH268320   3.484   3.434   4.559 -0.5837 -0.0307  0.2666
15610TIP3    H168321   3.496   3.380   4.481  0.3861  0.7411 -0.1406
15610TIP3    H268322   3.484   3.372   4.631 -0.4967 -0.6672 -0.2718
15611TIP3   OH268323   0.038   5.422  14.718  0.1271  0.1971 -0.0864
15611TIP3    H168324   0.107   5.477  14.682  0.1929 -0.2400 -0.6441
15611TIP3    H268325  -0.036   5.481  14.732  0.7489  0.7572  0.9325
15612TIP3   OH268326   4.829   5.197  10.816  0.4206 -0.3145 -0.5010
15612TIP3    H168327   4.882   5.216  10.893  0.2882 -0.6038 -0.3371
15612TIP3    H268328   4.855   5.263  10.752 -0.8110  1.1356  0.4122
15613TIP3   OH268329   5.654   3.556  11.713  0.0018  0.2854 -0.1367
15613TIP3    H168330   5.655   3.603  11.629  0.8601  0.8064  0.1577
15613TIP3    H268331   5.654   3.463  11.688 -0.9337  0.4288 -0.7154
15614TIP3   OH268332   3.494   1.965   1.302  0.4522  0.9032  0.3661
15614TIP3    H168333   3.444   1.977   1.221  1.1679  0.4863 -0.1533
15614TIP3    H268334   3.545   1.885   1.287  1.1943  1.2624  0.9154
15615TIP3   OH268335   2.338   1.663  16.390 -0.3664  0.1662 -0.2740
15615TIP3    H168336   2.267   1.681  16.327  0.4526 -1.4356 -1.7378
15615TIP3    H268337   2.409   1.720  16.363 -0.0588 -0.4287 -0.7360
15616TIP3   OH268338   2.215   2.150   0.211  0.9340 -0.1128 -0.2743
15616TIP3    H168339   2.156   2.223   0.191  1.3537  0.6875  1.2274
15616TIP3    H268340   2.300   2.191   0.227  1.2756 -0.9774  0.1958
15617TIP3   OH268341   2.975   1.275   0.461 -0.0258 -0.0946 -0.1571
15617TIP3    H168342   2.977   1.364   0.496 -0.2827 -0.3326  0.4709
15617TIP3    H268343   2.959   1.219   0.537 -0.6204 -0.6210 -0.6543
15618TIP3   OH268344   2.563   2.386  13.931 -0.1527 -0.0897  0.6029
15618TIP3    H168345   2.582   2.410  14.022  2.7972 -0.0863  0.0850
15618TIP3    H268346   2.569   2.291  13.930 -1.6218 -0.1910  0.6717
15619TIP3   OH268347   6.123   2.463   4.182  0.3052 -0.2220 -0.0915
15619TIP3    H168348   6.145   2.531   4.119  2.3556 -0.0518  0.7107
15619TIP3    H268349   6.120   2.509   4.267 -2.6207 -0.3994  0.0036
15620TIP3   OH268350   4.299   3.142   2.288 -0.0015  0.0172 -0.0910
15620TIP3    H168351   4.380   3.193   2.288 -1.3548  2.3640  0.6690
15620TIP3    H268352   4.245   3.184   2.356 -1.5369 -2.0118  0.0414
15621TIP3   OH268353   5.791   5.533  16.035 -0.5060 -0.2526  0.1169
15621TIP3    H168354   5.836   5.531  15.951 -0.3894 -0.1764  0.1755
15621TIP3    H268355   5.744   5.450  16.040  0.1005 -0.5896  0.3133
15622TIP3   OH268356   6.591   3.420   1.905 -0.4200 -0.2546  0.6244
15622TIP3    H168357   6.591   3.514   1.886 -1.3629 -0.6565 -1.8342
15622TIP3    H268358   6.669   3.386   1.860 -0.5195 -0.7455  0.8145
15623TIP3   OH268359   4.607   3.566  11.937  0.2312  0.0797 -0.4021
15623TIP3    H168360   4.518   3.544  11.966  0.7033 -0.1540  0.9097
15623TIP3    H268361   4.618   3.515  11.856 -0.1409 -1.4289  0.4556
15624TIP3   OH268362   1.366   4.073  16.323 -0.1724  0.2244 -0.3341
15624TIP3    H168363   1.438   4.135  16.334 -0.2440  0.4409 -1.0670
15624TIP3    H268364   1.322   4.073  16.408  0.6645  0.1090  0.1182
15625TIP3   OH268365   0.623   3.424  16.057 -0.4676  0.6027 -0.3768
15625TIP3    H168366   0.589   3.335  16.064  0.8349  0.1540  0.5308
15625TIP3    H268367   0.687   3.420  15.986 -0.2159  0.7446 -0.1588
15626TIP3   OH268368   1.186   0.768   3.090 -0.3840  0.3953 -0.0281
15626TIP3    H168369   1.122   0.710   3.131  0.2382  0.2546  0.7519
15626TIP3    H268370   1.271   0.731   3.114  0.0650  2.2228  1.4043
15627TIP3   OH268371   6.727   6.093   2.321  0.0650 -0.5575  0.0427
15627TIP3    H168372   6.729   6.048   2.237  2.0515  2.1556 -1.5342
15627TIP3    H268373   6.819   6.100   2.347 -0.4052  0.0032  1.6766
15628TIP3   OH268374   3.137   3.991  15.337 -0.7735  0.5103 -0.2982
15628TIP3    H168375   3.170   3.905  15.309  1.2395  1.1577 -0.0626
15628TIP3    H268376   3.164   3.998  15.428 -1.6117  1.1114 -0.0810
15629TIP3   OH268377   3.406   4.522   1.903 -0.0564 -0.2742 -0.5632
15629TIP3    H168378   3.455   4.594   1.941 -0.5312  0.2944 -1.0112
15629TIP3    H268379   3.460   4.493   1.829 -0.2623  0.1707 -0.8890
15630TIP3   OH268380   6.391   2.974   2.354 -0.6997 -0.2304  0.3675
15630TIP3    H168381   6.478   2.937   2.366 -0.8021 -0.7402 -0.3774
15630TIP3    H268382   6.366   2.948   2.265 -0.7364  1.7120 -0.2333
15631TIP3   OH268383   0.585   5.512  15.589  0.3902  0.2521 -0.7568
15631TIP3    H168384   0.534   5.554  15.658 -2.0863 -0.9321 -1.7854
15631TIP3    H268385   0.616   5.585  15.535 -2.2635  0.9690 -1.4522
15632TIP3   OH268386   5.405   2.265  11.667  0.2882  0.2969  0.6970
15632TIP3    H168387   5.429   2.199  11.602  0.2135  1.1793 -0.2585
15632TIP3    H268388   5.310   2.275  11.657  0.4641  1.4668 -0.1108
15633TIP3   OH268389   2.569   6.256  12.457  0.0835  0.1255 -1.0348
15633TIP3    H168390   2.514   6.334  12.467 -0.4986 -0.2904 -0.9382
15633TIP3    H268391   2.507   6.184  12.447  0.5578 -0.6270  1.0112
15634TIP3   OH268392   6.584   3.443  11.592  0.3424 -0.1126  0.0481
15634TIP3    H168393   6.554   3.453  11.501  1.1651 -1.7334 -0.4559
15634TIP3    H268394   6.671   3.481  11.592  0.5187 -0.5063  0.0246
15635TIP3   OH268395   5.676   5.046   1.603 -0.2325  0.6098 -0.0670
15635TIP3    H168396   5.769   5.062   1.617 -0.0181  0.3286 -1.0928
15635TIP3    H268397   5.672   4.961   1.559 -1.1768 -0.9351  2.7295
15636TIP3   OH268398   5.836   1.469  16.919 -0.0408  0.3160 -0.1891
15636TIP3    H168399   5.792   1.446  17.001 -2.0071  0.1595 -1.2212
15636TIP3    H268400   5.858   1.385  16.879 -1.6034  0.2675 -1.0560
15637TIP3   OH268401   5.506   3.394  16.507 -0.6250 -0.4860  0.8825
15637TIP3    H168402   5.524   3.441  16.426 -1.8695 -0.1942  0.7493
15637TIP3    H268403   5.521   3.458  16.577 -2.5222  0.2431  0.6937
15638TIP3   OH268404   1.878   1.685   4.958 -0.4605 -0.1264 -0.4936
15638TIP3    H168405   1.906   1.760   5.010 -0.9753  0.6054 -1.2527
15638TIP3    H268406   1.903   1.609   5.011 -1.2914  0.5895  0.9942
15639TIP3   OH268407   5.113   2.781   1.339  0.0257  0.0296 -0.3951
15639TIP3    H168408   5.132   2.784   1.245  0.9598 -1.2588 -0.2738
15639TIP3    H268409   5.125   2.871   1.369  0.2214  0.3563 -1.4169
15640TIP3   OH268410   4.399   4.629   1.140 -0.3041  0.2198 -0.1181
15640TIP3    H168411   4.357   4.709   1.108  0.4094  0.5597 -0.2211
15640TIP3    H268412   4.382   4.629   1.234 -1.3514 -0.1463 -0.3004
15641TIP3   OH268413   2.963   0.778  14.634 -0.4485 -0.0474  0.3600
15641TIP3    H168414   3.021   0.852  14.652  1.5378 -1.4448  0.0796
15641TIP3    H268415   3.009   0.728  14.566 -2.2891 -0.9221 -0.2878
15642TIP3   OH268416   1.642   0.509   0.197  0.2252  0.0607 -0.0800
15642TIP3    H168417   1.650   0.590   0.146  0.9696  0.2239  0.2839
15642TIP3    H268418   1.633   0.539   0.287 -0.6648 -0.2395 -0.0529
15643TIP3   OH268419   0.383   4.420   4.520 -0.0940  0.4800 -1.0308
15643TIP3    H168420   0.414   4.509   4.504 -0.8580  1.3651  1.7890
15643TIP3    H268421   0.448   4.382   4.579  0.2954 -0.9206 -2.3087
15644TIP3   OH268422   0.234   5.712   0.255 -0.2000  0.0452 -0.2080
15644TIP3    H168423   0.199   5.660   0.183 -0.0019  1.6899 -1.5441
15644TIP3    H268424   0.193   5.798   0.245  2.6953  1.4890 -0.7592
15645TIP3   OH268425   2.634   4.003   2.802  0.2060  0.4017 -0.1722
15645TIP3    H168426   2.613   3.959   2.719  1.3445 -1.3892  0.4388
15645TIP3    H268427   2.582   3.957   2.868 -1.0479  2.1168  0.1030
15646TIP3   OH268428   0.910   5.744   4.509  0.4870  0.2592 -0.3451
15646TIP3    H168429   0.820   5.773   4.498  0.5442  1.0592  0.9947
15646TIP3    H268430   0.945   5.738   4.420 -0.8040  0.1609 -0.8680
15647TIP3   OH268431   6.313   3.861   1.056  0.2239 -0.3165 -0.3287
15647TIP3    H168432   6.339   3.945   1.017 -0.8968  0.3202  0.2594
15647TIP3    H268433   6.282   3.884   1.144 -2.7707 -0.9356 -1.1232
15648TIP3   OH268434   3.581   2.037   0.314  0.7799  0.5549 -0.2035
15648TIP3    H168435   3.514   2.105   0.305 -0.6446 -0.4082  2.0678
15648TIP3    H268436   3.636   2.067   0.386  0.5918 -0.3046  0.3132
15649TIP3   OH268437   4.500   0.514  11.073 -0.0600 -0.3489 -0.1836
15649TIP3    H168438   4.561   0.574  11.032  0.1088 -1.2153 -1.2429
15649TIP3    H268439   4.520   0.518  11.166 -1.7555  3.1731  0.2037
15650TIP3   OH268440   0.847   5.903  11.015 -0.2346  0.0174 -0.0192
15650TIP3    H168441   0.787   5.959  11.064 -2.5586 -1.4909 -1.0063
15650TIP3    H268442   0.915   5.963  10.984 -1.5421  1.9239  0.6162
15651TIP3   OH268443   0.450   0.854  13.754 -0.4575  0.4208 -0.1346
15651TIP3    H168444   0.476   0.915  13.823  1.3471 -0.0783 -0.3196
15651TIP3    H268445   0.506   0.777  13.768 -1.2413 -0.3664 -1.1391
15652TIP3   OH268446   2.046   2.363   1.492  0.1329  0.0666 -0.3758
15652TIP3    H168447   1.950   2.369   1.494  0.0970  1.8572 -2.8830
15652TIP3    H268448   2.074   2.446   1.454  2.8756  0.4945  2.2731
15653TIP3   OH268449   1.208   4.813   3.319 -0.3346  0.3512 -0.2621
15653TIP3    H168450   1.221   4.825   3.413 -1.4674 -0.5134  0.0261
15653TIP3    H268451   1.231   4.721   3.303 -0.2096  0.4763 -0.8283
15654TIP3   OH268452   1.377   4.094  13.057 -0.2237  0.2872 -0.1317
15654TIP3    H168453   1.336   4.123  12.976  0.0199 -2.8535 -1.5111
15654TIP3    H268454   1.312   4.037  13.098  1.2990 -1.7691 -0.4576
15655TIP3   OH268455   0.973   3.013  12.141 -0.1663 -0.6451  0.6952
15655TIP3    H168456   0.940   2.947  12.202 -0.0063 -0.9811  0.4194
15655TIP3    H268457   0.919   3.003  12.063  1.3716 -2.0693 -0.2572
15656TIP3   OH268458   2.017   1.925  16.209  0.0320  0.1395  0.1432
15656TIP3    H168459   1.998   2.018  16.225  0.9620  0.5099 -0.8046
15656TIP3    H268460   1.953   1.899  16.143 -1.3663 -0.3912  1.6385
15657TIP3   OH268461   5.527   1.893  15.273  0.2789  0.3221  0.5600
15657TIP3    H168462   5.437   1.881  15.242 -0.3583  0.2236  2.3405
15657TIP3    H268463   5.579   1.833  15.218 -0.7105  0.3886 -0.5002
15658TIP3   OH268464   1.115   3.010   3.282 -0.0665 -0.6533 -0.3945
15658TIP3    H168465   1.084   3.044   3.198  2.1453 -0.8521 -1.3596
15658TIP3    H268466   1.120   2.915   3.269 -0.4624 -0.7727  0.2533
15659TIP3   OH268467   2.865   6.247  16.134 -0.0086 -0.1539 -0.9138
15659TIP3    H168468   2.930   6.181  16.109  0.2802  0.1774 -1.0370
15659TIP3    H268469   2.782   6.199  16.136  0.3414 -0.7464 -0.0453
15660TIP3   OH268470   4.340   2.965   4.013  0.4916  0.4377 -0.0727
15660TIP3    H168471   4.304   2.951   3.926  2.9698 -1.3637 -0.9348
15660TIP3    H268472   4.405   3.035   4.001  0.2955  0.7184  0.4916
15661TIP3   OH268473   3.914   5.729   2.857 -0.0818 -0.4007 -0.3605
15661TIP3    H168474   3.872   5.814   2.866  0.5281  0.0389 -1.3907
15661TIP3    H268475   3.861   5.683   2.791 -0.7209 -1.0343  0.5798
15662TIP3   OH268476   1.895   6.253  14.723  0.1733 -0.2920 -0.2261
15662TIP3    H168477   1.805   6.225  14.707  0.2863  0.6492 -2.9621
15662TIP3    H268478   1.948   6.198  14.666  0.9815  1.3911 -1.1468
15663TIP3   OH268479   5.853   4.729  14.515 -0.0112  0.6619  0.3951
15663TIP3    H168480   5.910   4.669  14.564 -0.2164  0.9700  1.0219
15663TIP3    H268481   5.903   4.810  14.510 -0.1748  0.7663  0.4669
15664TIP3   OH268482   4.133   3.642  16.102 -0.2299 -0.2930  0.2672
15664TIP3    H168483   4.066   3.575  16.111 -0.1528 -0.3581  0.3489
15664TIP3    H268484   4.149   3.647  16.007 -0.3319 -0.2940  0.2503
15665TIP3   OH268485   1.792   0.358  16.434  0.3559 -0.1122  0.3514
15665TIP3    H168486   1.859   0.398  16.377  0.8529  0.9642  1.6522
15665TIP3    H268487   1.824   0.269  16.447  0.5513 -0.1897 -0.5565
15666TIP3   OH268488   3.388   6.373  11.285  0.2038 -0.3779  0.2245
15666TIP3    H168489   3.472   6.330  11.267  1.5862  1.5582  1.5869
15666TIP3    H268490   3.336   6.306  11.329  0.7692 -1.8004 -1.1672
15667TIP3   OH268491   1.958   3.832   1.691 -0.5967  0.5297  0.5456
15667TIP3    H168492   1.876   3.786   1.707 -1.5043  1.6213 -0.8138
15667TIP3    H268493   2.001   3.835   1.777 -1.3942 -1.1111  1.0354
15668TIP3   OH268494   6.111   4.962   0.073  0.0520  0.1978  0.6598
15668TIP3    H168495   6.082   5.051   0.092 -1.0120  0.1217 -0.4619
15668TIP3    H268496   6.128   4.924   0.160  0.8728  1.5744  1.1392
15669TIP3   OH268497   6.223   3.145   4.529 -0.3442  0.4058 -0.4591
15669TIP3    H168498   6.260   3.127   4.615 -0.2740 -2.4154 -0.9640
15669TIP3    H268499   6.290   3.115   4.467 -1.3347  0.1437 -1.4472
15670TIP3   OH268500   3.295   6.797  11.615 -0.3289  0.2547  0.1095
15670TIP3    H168501   3.350   6.719  11.625 -1.4934 -0.4306  1.4984
15670TIP3    H268502   3.241   6.778  11.538 -0.1064 -0.0032  0.0165
15671TIP3   OH268503   0.518   4.742   5.518 -0.1722  0.1712  0.3895
15671TIP3    H168504   0.470   4.659   5.512 -1.0768  0.6598  0.5872
15671TIP3    H268505   0.457   4.800   5.564 -0.0982  1.3441 -0.9538
15672TIP3   OH268506   1.560   2.586   0.533  0.2348  0.3434  0.3915
15672TIP3    H168507   1.569   2.553   0.443 -0.4383  0.8219  0.1433
15672TIP3    H268508   1.584   2.678   0.528 -1.9734  0.9661  0.2331
15673TIP3   OH268509   3.672   4.084   5.309 -0.1792 -0.5452  1.1280
15673TIP3    H168510   3.653   3.993   5.289  0.9574 -1.2133  2.8114
15673TIP3    H268511   3.605   4.134   5.264 -1.7888 -2.3115  1.4635
15674TIP3   OH268512   6.352   2.791  15.725 -0.3388 -0.4446 -0.2424
15674TIP3    H168513   6.329   2.814  15.635 -0.9283 -1.4488 -0.3561
15674TIP3    H268514   6.271   2.758  15.763  0.3236 -1.7146  0.1090
15675TIP3   OH268515   1.854   3.588  12.639 -0.3139  0.3518 -0.3522
15675TIP3    H168516   1.864   3.683  12.634 -2.0057  0.5608 -0.1639
15675TIP3    H268517   1.894   3.564  12.722  1.0070  0.7518 -0.8489
15676TIP3   OH268518   0.470   3.184  12.646 -0.1724 -0.2483  0.1851
15676TIP3    H168519   0.536   3.182  12.578  0.1517 -0.6919  0.5045
15676TIP3    H268520   0.519   3.177  12.728 -0.6236 -0.9456  0.4100
15677TIP3   OH268521   5.707   4.483  15.082 -0.7283 -0.6336  0.3255
15677TIP3    H168522   5.730   4.411  15.023  0.6122 -0.7372  0.9278
15677TIP3    H268523   5.768   4.473  15.155 -0.6365  1.0167  0.4994
15678TIP3   OH268524   6.037   1.063   4.744  0.1659 -0.3517 -0.4772
15678TIP3    H168525   5.998   1.137   4.698 -1.6423 -0.6128  0.5479
15678TIP3    H268526   6.007   1.072   4.835  3.1950 -0.1435  0.6057
15679TIP3   OH268527   5.951   4.495   2.565  0.4231 -0.5351  0.6507
15679TIP3    H168528   5.950   4.590   2.559 -0.7828 -0.4906  1.3590
15679TIP3    H268529   6.044   4.472   2.571  0.6832  0.6505  1.3212
15680TIP3   OH268530   4.798   2.042  16.326 -0.0424  0.3211 -0.3266
15680TIP3    H168531   4.744   2.121  16.329  1.8050  1.7028 -1.5975
15680TIP3    H268532   4.865   2.057  16.392  0.3468 -0.1703 -0.6049
15681TIP3   OH268533   3.110   5.258  14.305 -0.1195  0.0433 -0.1920
15681TIP3    H168534   3.182   5.264  14.368 -1.0373  0.5279  0.8474
15681TIP3    H268535   3.107   5.344  14.264  1.4326 -0.7116 -2.0450
15682TIP3   OH268536   6.639   4.746  15.329 -0.1839  0.0675 -0.4245
15682TIP3    H168537   6.705   4.813  15.313  0.4897 -1.0801 -3.0605
15682TIP3    H268538   6.624   4.749  15.423  2.8947  1.0647  0.1581
15683TIP3   OH268539   1.150   6.655  14.955 -0.0496  0.6068  0.4947
15683TIP3    H168540   1.196   6.713  14.895 -0.6653 -2.0116 -2.7764
15683TIP3    H268541   1.065   6.698  14.970 -0.0070  1.1767 -0.7870
15684TIP3   OH268542   1.676   5.710   1.672 -0.2029  0.7123  0.7708
15684TIP3    H168543   1.611   5.778   1.654 -0.9338 -0.1675 -0.0143
15684TIP3    H268544   1.758   5.747   1.642 -0.9850  0.3004 -2.1247
15685TIP3   OH268545   5.628   2.476  13.953 -0.1088 -0.4781 -0.0402
15685TIP3    H168546   5.611   2.571  13.954  1.2519 -0.2007  1.2827
15685TIP3    H268547   5.698   2.465  13.889  0.4403 -0.4229  0.5368
15686TIP3   OH268548   4.379   0.862   6.118  0.2126  0.7545 -0.1227
15686TIP3    H168549   4.319   0.844   6.190 -1.3857 -1.1672 -1.7861
15686TIP3    H268550   4.446   0.794   6.124 -0.2225  0.2639 -0.7307
15687TIP3   OH268551   6.260   5.851  13.878 -0.7799 -0.1078  0.5659
15687TIP3    H168552   6.275   5.872  13.785 -1.1606  0.3702  0.6035
15687TIP3    H268553   6.347   5.849  13.917 -0.5586 -1.0742  0.0458
15688TIP3   OH268554   1.842   0.304  11.926 -0.6411 -0.2394  0.8460
15688TIP3    H168555   1.876   0.215  11.913  1.1689  0.5312  0.0371
15688TIP3    H268556   1.824   0.336  11.837  2.3134  1.4998  0.7524
15689TIP3   OH268557   4.092   2.224  13.131 -0.2423 -0.3214 -0.2504
15689TIP3    H168558   4.168   2.197  13.080  0.5138  0.3675  0.4929
15689TIP3    H268559   4.069   2.310  13.095  0.7308  0.4960  0.9953
15690TIP3   OH268560   6.141   2.305   5.817  0.6928 -0.2548  0.0978
15690TIP3    H168561   6.163   2.255   5.738  0.9762  0.3175 -0.1963
15690TIP3    H268562   6.130   2.395   5.786  1.7366  0.1591  0.8443
15691TIP3   OH268563   1.764   6.784  16.266 -0.4776  0.5884 -0.2063
15691TIP3    H168564   1.758   6.703  16.215 -0.1689 -0.3858  1.2357
15691TIP3    H268565   1.817   6.842  16.212 -0.0247 -0.4620 -0.9289
15692TIP3   OH268566   6.056   5.475  17.138 -0.6140  0.3393  0.0799
15692TIP3    H168567   6.024   5.541  17.076 -1.1728 -0.6055 -0.6754
15692TIP3    H268568   5.996   5.401  17.126  0.6349 -0.7044  0.1399
15693TIP3   OH268569   3.694   4.693   3.548 -0.6442 -0.0365  0.7729
15693TIP3    H168570   3.709   4.727   3.636 -2.3556  2.2074  0.2807
15693TIP3    H268571   3.599   4.691   3.539 -0.5091 -1.3713 -0.6227
15694TIP3   OH268572   6.149   2.858   3.997 -0.6983  0.2720 -0.3264
15694TIP3    H168573   6.056   2.871   4.012 -1.2092  0.9292 -3.5282
15694TIP3    H268574   6.188   2.944   4.010 -0.4554 -0.0444  1.2144
15695TIP3   OH268575   5.515   4.228  13.844 -0.5005  0.1493 -0.1765
15695TIP3    H168576   5.529   4.134  13.829  0.6801  0.4903 -1.4333
15695TIP3    H268577   5.603   4.264  13.850 -0.8989  1.4456 -1.5771
15696TIP3   OH268578   2.281   2.008  12.119  0.0563  0.0403 -0.3698
15696TIP3    H168579   2.277   1.939  12.186 -0.0336  0.4423  0.0466
15696TIP3    H268580   2.374   2.021  12.104  0.0717 -0.2652 -0.5471
15697TIP3   OH268581   2.377   6.580  13.456 -0.4454 -0.2853 -0.1260
15697TIP3    H168582   2.447   6.614  13.512  1.0126  0.6736 -2.4119
15697TIP3    H268583   2.344   6.657  13.410 -0.0789 -1.3200 -2.2025
15698TIP3   OH268584   5.741   0.405   0.101  0.5564  0.1534 -0.0285
15698TIP3    H168585   5.650   0.411   0.128  0.2738  0.4866 -1.0160
15698TIP3    H268586   5.790   0.392   0.183 -0.0571  2.9819  0.9051
15699TIP3   OH268587   5.984   1.232   6.522  0.0511 -0.1155  0.3529
15699TIP3    H168588   6.015   1.323   6.518  1.5879 -0.6382 -0.2566
15699TIP3    H268589   5.890   1.239   6.505  0.0283  1.4027  0.8676
15700TIP3   OH268590   3.658   5.025   6.134 -0.0690  0.3499 -0.7551
15700TIP3    H168591   3.679   4.959   6.199 -1.6009  0.2300 -0.3389
15700TIP3    H268592   3.742   5.065   6.111  0.8357 -1.4781 -0.7604
15701TIP3   OH268593   2.514   6.569  16.018  0.1023 -0.1132  0.3342
15701TIP3    H168594   2.570   6.503  15.977 -0.6015 -0.9468  0.6782
15701TIP3    H268595   2.425   6.535  16.007 -0.2908  0.8532  0.3957
15702TIP3   OH268596   4.357   5.818  14.175  0.0980 -0.3908 -0.3057
15702TIP3    H168597   4.265   5.834  14.157 -0.1004 -1.2542 -0.1101
15702TIP3    H268598   4.391   5.902  14.205 -0.8336 -0.2710  0.4576
15703TIP3   OH268599   5.201   2.637   0.613 -0.3331  0.2397  0.1456
15703TIP3    H168600   5.268   2.572   0.635 -1.3048 -0.6342  0.5800
15703TIP3    H268601   5.245   2.721   0.627  0.6596 -0.3095  0.4807
15704TIP3   OH268602   0.555   6.325  13.532 -0.0789 -0.6032  0.4897
15704TIP3    H168603   0.484   6.317  13.468 -0.2533 -0.7400  0.6940
15704TIP3    H268604   0.594   6.411  13.515  0.1247 -0.7968 -0.0454
15705TIP3   OH268605   0.955   4.828   2.200 -0.2947 -0.1202  0.3500
15705TIP3    H168606   0.971   4.922   2.197  0.0304 -0.1414  1.0155
15705TIP3    H268607   0.886   4.818   2.266 -0.7488 -0.3025 -0.1471
15706TIP3   OH268608   4.844   2.876  14.635  0.4687  0.3982 -0.3431
15706TIP3    H168609   4.829   2.967  14.609 -1.8151  0.7187  1.7081
15706TIP3    H268610   4.911   2.882  14.703 -0.1820  0.6638  0.2894
15707TIP3   OH268611   3.249   0.420   1.473  0.5285  0.3176 -0.6095
15707TIP3    H168612   3.181   0.357   1.496  0.7135  0.3133 -0.0768
15707TIP3    H268613   3.209   0.506   1.490  0.0510  0.3831 -1.9287
15708TIP3   OH268614   5.742   2.090  15.260 -0.2192  0.2735 -0.3224
15708TIP3    H168615   5.785   2.100  15.174  0.5184 -0.1986 -0.0215
15708TIP3    H268616   5.670   2.029  15.244  0.2747 -0.2768 -0.5005
15709TIP3   OH268617   0.271   0.956  15.567  0.2304  0.0083  0.0181
15709TIP3    H168618   0.276   0.862  15.550  1.5223  0.3927 -2.0354
15709TIP3    H268619   0.284   0.963  15.661  2.2284 -1.7622 -0.0444
15710TIP3   OH268620   0.146   4.588  13.121  0.3966  0.2703  0.2234
15710TIP3    H168621   0.203   4.575  13.045  1.3075 -0.5039  1.0166
15710TIP3    H268622   0.204   4.579  13.197 -0.9366 -1.6425  1.1007
15711TIP3   OH268623   3.921   3.240  13.483  0.3509  0.3833 -0.0969
15711TIP3    H168624   3.866   3.166  13.505  2.7493 -1.2016  1.0327
15711TIP3    H268625   3.898   3.262  13.393 -1.3425 -0.8362 -0.0068
15712TIP3   OH268626   4.400   3.792  16.028 -0.3212  0.0174  0.1993
15712TIP3    H168627   4.463   3.721  16.017 -1.9050 -1.2300 -1.5107
15712TIP3    H268628   4.322   3.749  16.064 -0.2201  1.5526  2.4632
15713TIP3   OH268629   1.421   5.709  12.372  0.3226  0.1990  0.4325
15713TIP3    H168630   1.353   5.642  12.382  1.2792 -0.9945 -0.6071
15713TIP3    H268631   1.459   5.718  12.459 -0.2340 -0.1716  0.7155
15714TIP3   OH268632   5.078   0.387  17.031 -0.4761  0.3073 -0.0025
15714TIP3    H168633   5.171   0.387  17.007 -0.5768  0.1073 -0.3871
15714TIP3    H268634   5.045   0.302  17.001 -0.3681 -0.4018  1.7449
15715TIP3   OH268635   5.395   5.197  16.579  0.5418 -0.6616 -0.4677
15715TIP3    H168636   5.343   5.140  16.636  0.7249  0.7263  1.1801
15715TIP3    H268637   5.448   5.249  16.640 -0.1254  1.7460 -1.8011
15716TIP3   OH268638   0.172   3.682  13.134  0.2140 -0.1885  0.0275
15716TIP3    H168639   0.181   3.615  13.202 -0.6836  0.1039  0.4450
15716TIP3    H268640   0.174   3.765  13.182  0.4082  0.0541 -0.3950
15717TIP3   OH268641   2.925   5.575   0.463  0.0343 -0.0177 -0.0236
15717TIP3    H168642   3.001   5.525   0.432  0.9497  1.1898  0.2014
15717TIP3    H268643   2.953   5.610   0.548 -0.6543  0.7178 -0.0933
15718TIP3   OH268644   5.575   5.708   2.159  0.1254  0.1758 -0.0400
15718TIP3    H168645   5.626   5.767   2.214 -0.0735  1.0600 -0.7807
15718TIP3    H268646   5.523   5.765   2.102  0.9903 -0.6648 -1.7779
15719TIP3   OH268647   4.771   5.639  12.023  0.0497 -0.2385 -0.4204
15719TIP3    H168648   4.801   5.717  11.976  0.6266 -0.7263 -0.8761
15719TIP3    H268649   4.847   5.610  12.073  0.6650 -1.9499 -2.2085
15720TIP3   OH268650   2.111   3.933  12.156  0.4344 -0.8131 -0.2235
15720TIP3    H168651   2.195   3.970  12.184  0.2325 -1.0054  0.6404
15720TIP3    H268652   2.086   3.987  12.080  0.4737  0.3902  0.5863
15721TIP3   OH268653   3.177   0.440  16.380  0.4357 -0.0053 -0.3412
15721TIP3    H168654   3.222   0.399  16.453  1.3654  0.2248 -0.7663
15721TIP3    H268655   3.103   0.383  16.361 -0.4821  0.5101  1.4831
15722TIP3   OH268656   4.493   4.763   3.856  0.0472  0.0853 -0.2202
15722TIP3    H168657   4.486   4.856   3.876 -1.0612  0.2097 -1.0562
15722TIP3    H268658   4.425   4.722   3.908  0.0758 -0.1593 -0.3743
15723TIP3   OH268659   2.266   4.662   6.628  0.1614  0.4252  0.4463
15723TIP3    H168660   2.209   4.701   6.561  0.1978  0.1966  0.2799
15723TIP3    H268661   2.290   4.576   6.592  1.9450  1.1708 -0.2410
15724TIP3   OH268662   3.073   6.447  12.135 -0.0875 -0.0265 -0.1596
15724TIP3    H168663   3.047   6.535  12.162 -0.5837 -0.3553  0.4521
15724TIP3    H268664   3.021   6.388  12.190  0.4800 -0.7017 -0.3248
15725TIP3   OH268665   3.957   5.056   0.693 -0.3909  0.2952  0.2346
15725TIP3    H168666   3.976   5.134   0.641 -0.5905  0.3375  0.2247
15725TIP3    H268667   3.880   5.017   0.651  1.1880 -1.3118 -1.3380
15726TIP3   OH268668   1.458   1.761   5.987  0.5341  0.0741  0.4897
15726TIP3    H168669   1.468   1.855   5.993 -0.3080  0.0908  2.1708
15726TIP3    H268670   1.538   1.730   5.945  0.7254  1.5313 -0.2636
15727TIP3   OH268671   6.638   3.747   0.419  0.1746 -0.0245  0.4612
15727TIP3    H168672   6.727   3.781   0.431  0.9534 -2.0234  0.5908
15727TIP3    H268673   6.588   3.786   0.490  1.0305  0.7774  0.6505
15728TIP3   OH268674   2.355   1.722   5.776  0.0796 -0.3025  0.5308
15728TIP3    H168675   2.362   1.629   5.755  0.1274 -0.3500  0.7568
15728TIP3    H268676   2.317   1.724   5.864  1.2911 -0.1445  1.0710
15729TIP3   OH268677   0.000   4.057   0.800  0.5509  0.0005  0.1721
15729TIP3    H168678  -0.001   4.152   0.792 -0.6235  0.4712  3.9332
15729TIP3    H268679   0.048   4.041   0.881 -1.6738 -2.3683  1.1530
15730TIP3   OH268680   4.065   3.415  16.485 -0.0464 -0.1777  0.0056
15730TIP3    H168681   4.060   3.343  16.421 -0.3662  0.6572 -0.9362
15730TIP3    H268682   4.114   3.484  16.440 -1.4147  0.9317  0.1491
15731TIP3   OH268683   3.886   2.872  13.008  0.5848 -0.5563  0.9506
15731TIP3    H168684   3.853   2.784  12.990  1.5413 -1.1074  1.8076
15731TIP3    H268685   3.966   2.879  12.955 -0.8690  0.8352 -1.2627
15732TIP3   OH268686   1.152   2.949   5.758 -0.3123  0.3315 -0.0104
15732TIP3    H168687   1.193   2.929   5.842  1.8529  1.3618 -0.7459
15732TIP3    H268688   1.060   2.964   5.779  0.3912  1.8465  2.4263
15733TIP3   OH268689   4.961   5.296  11.046  0.2536  0.4436 -0.4234
15733TIP3    H168690   4.943   5.377  11.092 -0.8760 -1.1036  2.0357
15733TIP3    H268691   5.056   5.284  11.055  0.2080  0.7366  0.5204
15734TIP3   OH268692   0.174   2.234  14.914 -0.3581  0.3741  0.5292
15734TIP3    H168693   0.208   2.197  14.996  0.3935  1.2803  0.6459
15734TIP3    H268694   0.213   2.180  14.846  0.4178  0.6944  0.7115
15735TIP3   OH268695   1.214   4.725   2.726  0.2729 -0.0555  0.4039
15735TIP3    H168696   1.257   4.804   2.758 -0.6444  0.8066 -0.4123
15735TIP3    H268697   1.283   4.677   2.681  0.1728  2.0463 -2.2604
15736TIP3   OH268698   5.829   4.340   2.742  0.0756 -0.1914 -0.1914
15736TIP3    H168699   5.856   4.398   2.670  0.3079  0.4338  0.3892
15736TIP3    H268700   5.784   4.397   2.804  0.2399 -0.6438  0.3600
15737TIP3   OH268701   0.978   1.492  16.607 -0.2769  0.3418 -0.6079
15737TIP3    H168702   0.975   1.412  16.661 -0.8152  0.5599 -0.3120
15737TIP3    H268703   1.039   1.470  16.536  0.3534  0.0077  0.0195
15738TIP3   OH268704   1.263   5.796  10.826 -0.0757  0.2221 -0.5533
15738TIP3    H168705   1.233   5.755  10.908  1.6736 -0.8873 -0.4262
15738TIP3    H268706   1.278   5.887  10.850 -1.1699  0.2899 -0.0671
15739TIP3   OH268707   5.584   3.963   4.790 -0.2685  0.2165  0.5773
15739TIP3    H168708   5.658   3.950   4.732 -1.5802 -1.2365 -0.8562
15739TIP3    H268709   5.589   3.891   4.853 -0.8506 -0.3137  0.0272
15740TIP3   OH268710   1.031   3.877   2.577  0.6816  0.3507  0.1282
15740TIP3    H168711   0.989   3.796   2.606  0.4263  0.0448 -1.0732
15740TIP3    H268712   0.960   3.942   2.576  0.3452 -0.0198 -1.3121
15741TIP3   OH268713   3.905   1.628   1.416  0.0337 -0.1648 -0.2476
15741TIP3    H168714   3.853   1.549   1.426  1.4412 -1.2692 -1.1470
15741TIP3    H268715   3.988   1.597   1.378  0.0980  1.9130 -1.9754
15742TIP3   OH268716   1.084   6.776   2.799  0.3749 -0.4294  0.2656
15742TIP3    H168717   1.035   6.720   2.859 -1.1784 -0.1326 -0.6513
15742TIP3    H268718   1.169   6.789   2.841 -1.6590  2.4725  4.1067
15743TIP3   OH268719   4.323   3.759  15.226  0.2085 -0.1445  0.6364
15743TIP3    H168720   4.276   3.688  15.182 -2.0305  1.6501 -0.0286
15743TIP3    H268721   4.310   3.835  15.169  2.7142  0.8069  1.2103
15744TIP3   OH268722   3.191   4.463   3.845 -1.0114 -0.3420 -0.4369
15744TIP3    H168723   3.152   4.390   3.893  2.3072 -2.2177 -0.2776
15744TIP3    H268724   3.250   4.421   3.782 -0.1703  2.2006 -1.4621
15745TIP3   OH268725   1.898   4.638   5.134 -0.4367  0.4558 -0.7608
15745TIP3    H168726   1.871   4.723   5.100 -2.2034 -0.3717 -1.5391
15745TIP3    H268727   1.861   4.636   5.223  2.1678  1.6514  0.4657
15746TIP3   OH268728   6.519   6.717   0.708 -0.2992  0.6810 -0.3956
15746TIP3    H168729   6.526   6.625   0.680 -2.4742  0.9547 -2.0587
15746TIP3    H268730   6.579   6.764   0.650  0.0047  0.4686 -0.2615
15747TIP3   OH268731   4.268   5.846   1.581  0.1170  0.2458  0.2488
15747TIP3    H168732   4.242   5.756   1.561 -1.3206  1.0147 -1.6611
15747TIP3    H268733   4.299   5.881   1.498 -1.3298  2.1089  0.4331
15748TIP3   OH268734   6.621   1.448  15.925 -0.4475  0.1128 -0.1085
15748TIP3    H168735   6.673   1.368  15.919 -2.3395 -1.1656 -0.0098
15748TIP3    H268736   6.655   1.492  16.004 -1.2886 -2.0504  1.5668
15749TIP3   OH268737   4.714   2.696   1.133 -0.5131  0.2642  0.1174
15749TIP3    H168738   4.724   2.789   1.111  2.1392 -0.1894 -1.0472
15749TIP3    H268739   4.768   2.684   1.211  0.7531 -0.6193 -0.8575
15750TIP3   OH268740   5.630   0.166   2.623  0.5941  0.5095 -0.3162
15750TIP3    H168741   5.596   0.077   2.623  0.6359  0.4939 -0.1011
15750TIP3    H268742   5.673   0.175   2.538  1.7671 -0.1264  0.1938
15751TIP3   OH268743   5.001   4.445  14.317 -0.0202 -0.1342 -0.5289
15751TIP3    H168744   4.915   4.423  14.281  0.0742  0.9231 -1.4312
15751TIP3    H268745   5.063   4.421  14.249  0.3465 -0.1517 -0.1948
15752TIP3   OH268746   0.858   6.435  13.109  1.0517 -0.3851  0.2731
15752TIP3    H168747   0.788   6.497  13.089  2.6255  1.0900 -0.9181
15752TIP3    H268748   0.854   6.371  13.038 -1.4252 -2.5628  2.1957
15753TIP3   OH268749   4.191   0.004   2.707 -0.0405  0.2823 -0.2891
15753TIP3    H168750   4.274   0.007   2.755  0.6225 -1.6331 -1.1843
15753TIP3    H268751   4.126   0.035   2.770  1.2597  1.2957  0.6218
15754TIP3   OH268752   3.548   6.777   1.651 -0.0074 -0.1395  0.6579
15754TIP3    H168753   3.594   6.794   1.733 -0.1962  1.5971  0.4439
15754TIP3    H268754   3.610   6.728   1.597 -0.5635 -3.0779  2.4949
15755TIP3   OH268755   4.713   1.936   2.203  0.3843  0.1509 -0.3792
15755TIP3    H168756   4.735   1.973   2.118 -0.1382  1.6760  0.1091
15755TIP3    H268757   4.620   1.953   2.214  0.4598  0.0722  0.5239
15756TIP3   OH268758   4.306   0.335  16.859 -0.1718 -0.6826 -0.0126
15756TIP3    H168759   4.309   0.368  16.769  1.9102 -1.0817 -0.1273
15756TIP3    H268760   4.284   0.242  16.849  0.8901 -0.9234 -0.1855
15757TIP3   OH268761   0.406   3.482  11.820 -0.5450  0.3954 -0.3357
15757TIP3    H168762   0.321   3.467  11.863 -1.0977 -0.1811 -1.5952
15757TIP3    H268763   0.451   3.398  11.824 -0.9183  0.1233 -1.5383
15758TIP3   OH268764   2.458   4.818   1.610  0.2489 -0.2031  0.5954
15758TIP3    H168765   2.464   4.723   1.598  0.4169 -0.1089 -0.0704
15758TIP3    H268766   2.364   4.836   1.608  0.2885  0.0198 -2.3495
15759TIP3   OH268767   3.096   6.447  16.884 -0.8542 -0.5332 -0.3511
15759TIP3    H168768   3.108   6.542  16.887  0.5062 -0.6976  0.5996
15759TIP3    H268769   3.035   6.433  16.812  0.0244  0.9775 -1.4655
15760TIP3   OH268770   1.464   2.894  11.462  1.0384 -0.4462  0.5857
15760TIP3    H168771   1.474   2.922  11.553 -1.0315 -1.2162  1.0980
15760TIP3    H268772   1.399   2.824  11.465  0.6869 -0.2784 -1.5121
15761TIP3   OH268773   3.358   2.382  13.289 -0.2205  0.1061 -0.2376
15761TIP3    H168774   3.375   2.447  13.358  1.0363  0.3617 -0.7617
15761TIP3    H268775   3.432   2.391  13.229 -1.0812 -0.4047 -1.4090
15762TIP3   OH268776   6.328   0.643  11.255  0.5761 -0.0911  0.0557
15762TIP3    H168777   6.377   0.560  11.259  0.2336 -0.3523 -0.8134
15762TIP3    H268778   6.381   0.698  11.196  1.3171  0.6806  1.4006
15763TIP3   OH268779   2.451   5.380   3.005 -0.1771 -0.1669 -0.1783
15763TIP3    H168780   2.519   5.437   2.969 -1.2233  0.2926 -1.5152
15763TIP3    H268781   2.398   5.438   3.060  1.2400 -0.8049  1.9875
15764TIP3   OH268782   4.325   6.476  17.231  0.0353 -0.0713  0.4833
15764TIP3    H168783   4.254   6.424  17.195  0.5441  0.2829 -1.1330
15764TIP3    H268784   4.286   6.563  17.246  0.4849  0.6903 -2.1812
15765TIP3   OH268785   2.474   2.935  11.535  0.3345  0.0433  1.0553
15765TIP3    H168786   2.387   2.947  11.571  0.2259  0.3000  0.7188
15765TIP3    H268787   2.493   3.018  11.490 -0.5255 -1.0543 -1.5392
15766TIP3   OH268788   3.686   0.373   1.690  0.5480  0.2748  0.1671
15766TIP3    H168789   3.612   0.337   1.739  0.4542 -0.2033 -0.3182
15766TIP3    H268790   3.748   0.301   1.683  0.3495  0.1909 -0.8341
15767TIP3   OH268791   3.242   0.402   6.773  0.0158  0.2355  0.7156
15767TIP3    H168792   3.223   0.325   6.718 -1.3733  0.4046  0.9096
15767TIP3    H268793   3.298   0.369   6.843  0.1129 -0.4201  0.3389
15768TIP3   OH268794   5.167   2.543   3.213  0.2004  0.8300 -0.2874
15768TIP3    H168795   5.219   2.623   3.219 -1.3732  1.8613  0.3877
15768TIP3    H268796   5.099   2.564   3.148  0.9304 -0.6877 -1.6129
15769TIP3   OH268797   0.779   6.305  14.157  0.1282 -0.5972  0.2791
15769TIP3    H168798   0.690   6.335  14.139  0.7554  1.5982  0.5884
15769TIP3    H268799   0.816   6.287  14.070  0.0568  0.5910 -0.0118
15770TIP3   OH268800   5.849   6.302   4.951 -0.3942 -0.0873  0.5858
15770TIP3    H168801   5.814   6.391   4.948 -0.7477 -0.2118  0.9043
15770TIP3    H268802   5.772   6.246   4.938 -0.0541 -0.3326 -0.4675
15771TIP3   OH268803   0.215   3.417   0.712 -0.0829 -0.3950 -0.6819
15771TIP3    H168804   0.220   3.508   0.743  0.2395 -1.0486  1.3448
15771TIP3    H268805   0.122   3.397   0.711 -0.0820 -0.5239  0.4734
15772TIP3   OH268806   3.811   5.558   4.793  0.1814 -0.6567 -0.3895
15772TIP3    H168807   3.868   5.594   4.860  0.2333 -0.2240 -0.6628
15772TIP3    H268808   3.822   5.616   4.718  1.8019 -2.3403 -1.5559
15773TIP3   OH268809   5.645   3.358   0.607  0.2738 -0.6418  0.0397
15773TIP3    H168810   5.710   3.370   0.676  2.2514 -2.2198 -1.4464
15773TIP3    H268811   5.589   3.286   0.640 -0.5638  0.4692  1.1516
15774TIP3   OH268812   1.165   1.846   6.859 -0.1010  0.0350  1.0557
15774TIP3    H168813   1.105   1.919   6.844  1.0010  1.1789  1.9430
15774TIP3    H268814   1.251   1.888   6.870  0.5728 -1.4040  1.5613
15775TIP3   OH268815   6.062   2.487  17.251  0.7897 -0.3302 -0.2806
15775TIP3    H168816   6.100   2.574  17.247  0.7934 -0.3085  0.1624
15775TIP3    H268817   6.130   2.433  17.291  0.9386 -0.6221 -0.9147
15776TIP3   OH268818   4.190   5.479   2.664  0.1481  0.0320  0.7482
15776TIP3    H168819   4.171   5.566   2.630  2.5328  0.1466 -0.5749
15776TIP3    H268820   4.190   5.422   2.586 -0.7151 -1.0362  1.4994
15777TIP3   OH268821   4.850   4.909  13.236 -0.1390  0.0896 -0.2993
15777TIP3    H168822   4.918   4.901  13.304 -0.4768 -1.6531 -0.1191
15777TIP3    H268823   4.769   4.888  13.281 -0.2783 -1.8524 -1.3772
15778TIP3   OH268824   6.510   6.207  12.445 -0.1781  0.0111  0.6945
15778TIP3    H168825   6.421   6.241  12.451 -1.3170 -2.6287  0.2569
15778TIP3    H268826   6.506   6.122  12.489  2.4905  0.3957  1.8531
15779TIP3   OH268827   2.453   6.468   6.025 -0.1965  0.4305 -0.1255
15779TIP3    H168828   2.472   6.534   6.092  1.1696  1.1347 -1.1524
15779TIP3    H268829   2.531   6.412   6.025 -0.9722 -0.6761  0.1225
15780TIP3   OH268830   2.213   6.046   3.761 -0.0292  0.6631  0.3323
15780TIP3    H168831   2.235   6.020   3.851 -0.2924  3.3171  1.2354
15780TIP3    H268832   2.117   6.051   3.761 -0.2473 -1.8584 -0.9340
15781TIP3   OH268833   2.219   0.417   5.511  0.3732 -0.4520 -0.3684
15781TIP3    H168834   2.179   0.448   5.592  1.1699 -0.9070  0.2061
15781TIP3    H268835   2.215   0.492   5.452  0.1269 -0.0040  0.2103
15782TIP3   OH268836   5.926   5.400   1.076  0.2398 -0.0249  0.0684
15782TIP3    H168837   5.833   5.422   1.082 -0.0739 -1.3500  0.3099
15782TIP3    H268838   5.931   5.307   1.098  1.6340  0.0297  0.1070
15783TIP3   OH268839   5.902   4.985  12.089  0.1081 -1.0213  0.0494
15783TIP3    H168840   5.811   4.996  12.117 -0.1417  0.0183 -1.0994
15783TIP3    H268841   5.896   4.961  11.997  0.9870 -1.9833  0.2246
15784TIP3   OH268842   6.254   5.103  15.880 -0.1789 -0.5670 -0.2303
15784TIP3    H168843   6.203   5.064  15.809 -0.0941  0.3392 -0.8192
15784TIP3    H268844   6.304   5.031  15.917 -0.2370 -1.0645 -1.0967
15785TIP3   OH268845   0.616   6.673  11.459  1.4840 -0.5509  0.0317
15785TIP3    H168846   0.706   6.690  11.431  1.4389  0.5602  0.5159
15785TIP3    H268847   0.562   6.723  11.397  1.2041 -1.1645 -0.2227
15786TIP3   OH268848   5.118   5.655   1.867 -0.2392  0.0808 -0.0339
15786TIP3    H168849   5.179   5.581   1.866  0.7021  0.8389  0.1051
15786TIP3    H268850   5.169   5.728   1.902 -1.2007  0.7625 -0.0143
15787TIP3   OH268851   2.917   4.624  13.397  0.2479 -0.1956  0.4410
15787TIP3    H168852   2.900   4.610  13.304  2.4577 -0.4711  0.0256
15787TIP3    H268853   2.921   4.719  13.406 -0.6255 -0.1534  0.3857
15788TIP3   OH268854   1.648   1.956   0.287 -0.2952 -0.1977 -0.1771
15788TIP3    H168855   1.744   1.956   0.289 -0.2406 -0.6504 -1.3684
15788TIP3    H268856   1.625   2.022   0.222 -1.0244  3.4463  3.4304
15789TIP3   OH268857   4.508   2.055   5.196  0.2957 -0.3168  0.4351
15789TIP3    H168858   4.524   2.106   5.116 -0.1218  1.2659  1.3166
15789TIP3    H268859   4.562   2.098   5.263  0.0187 -1.1117  1.1814
15790TIP3   OH268860   0.665   0.497  16.417 -0.6662  0.0092  0.1795
15790TIP3    H168861   0.701   0.572  16.465  0.1623  1.3448 -2.3236
15790TIP3    H268862   0.697   0.509  16.328 -2.8886 -1.7999 -0.9609
15791TIP3   OH268863   4.475   5.238   0.346 -1.0911 -0.5417 -0.4038
15791TIP3    H168864   4.513   5.322   0.372 -2.3598  0.1387 -0.6266
15791TIP3    H268865   4.456   5.249   0.253 -0.6997 -1.3083 -0.5759
15792TIP3   OH268866   2.210   2.784  13.368 -0.0665  0.8040 -0.2231
15792TIP3    H168867   2.126   2.747  13.342 -0.1493  1.0135 -0.2575
15792TIP3    H268868   2.225   2.857  13.307 -1.3197  2.7154  1.6274
15793TIP3   OH268869   3.455   6.773   2.461  0.1575  0.1386  0.1499
15793TIP3    H168870   3.423   6.703   2.518 -1.0332 -0.0456 -0.7198
15793TIP3    H268871   3.452   6.852   2.515 -0.1958 -0.1672  0.5775
15794TIP3   OH268872   0.532   3.600   0.634 -0.0787  0.4113  0.1335
15794TIP3    H168873   0.585   3.605   0.555 -0.8261 -1.3832 -0.5368
15794TIP3    H268874   0.536   3.507   0.660  0.7700  1.0564  2.6586
15795TIP3   OH268875   0.522   1.126  13.913  0.4055  0.0960  0.1365
15795TIP3    H168876   0.434   1.148  13.881  0.6121  3.0154  1.2785
15795TIP3    H268877   0.506   1.081  13.996 -0.0155  0.0224  0.0214
15796TIP3   OH268878   2.479   1.729  11.661 -0.4994 -0.5838  0.2978
15796TIP3    H168879   2.384   1.734  11.648 -0.5667  1.2474  1.2071
15796TIP3    H268880   2.489   1.702  11.753 -0.1170 -1.2864  0.0603
15797TIP3   OH268881   4.861   3.844   5.166 -0.8028 -0.0267 -0.0966
15797TIP3    H168882   4.892   3.934   5.177  0.5658 -0.2540 -1.5731
15797TIP3    H268883   4.784   3.837   5.222  0.3747  1.3744  1.8253
15798TIP3   OH268884   3.209   6.254   5.722 -0.3839 -0.3316  0.2815
15798TIP3    H168885   3.223   6.346   5.743  0.3700 -0.1768 -0.8163
15798TIP3    H268886   3.206   6.211   5.808 -1.1097  0.7413  0.8227
15799TIP3   OH268887   4.100   3.173  11.631 -0.0684 -0.7842  0.2801
15799TIP3    H168888   4.007   3.160  11.647 -0.4885  1.5359  0.0247
15799TIP3    H268889   4.104   3.223  11.549  1.0014  3.6277  2.7277
15800TIP3   OH268890   3.221   1.302   5.932  0.4747 -0.1189 -0.2911
15800TIP3    H168891   3.137   1.313   5.887 -0.2243 -2.1562  0.4053
15800TIP3    H268892   3.263   1.388   5.927 -1.0067  0.5569 -1.9364
15801TIP3   OH268893   1.894   1.969  12.496  0.6845  0.3491  0.4857
15801TIP3    H168894   1.878   1.941  12.406  2.1935 -0.1131  0.3205
15801TIP3    H268895   1.818   1.940  12.545 -0.4238  1.1105 -0.7361
15802TIP3   OH268896   6.136   2.677   2.056  0.2579 -0.1164  1.1673
15802TIP3    H168897   6.160   2.588   2.081  0.0092  0.2350  2.7955
15802TIP3    H268898   6.153   2.682   1.962  2.2709 -1.2264  1.4333
15803TIP3   OH268899   6.414   1.450   1.640 -0.2635  0.1427  0.2608
15803TIP3    H168900   6.448   1.456   1.729  0.6512  0.2179 -0.0870
15803TIP3    H268901   6.320   1.467   1.649 -0.0459  0.9689  1.1030
15804TIP3   OH268902   2.747   0.789   3.229  0.2034  0.4933 -0.3923
15804TIP3    H168903   2.817   0.818   3.171  1.4315 -0.1627  0.6892
15804TIP3    H268904   2.710   0.870   3.265  0.9687  0.8358 -0.3560
15805TIP3   OH268905   5.363   3.331   0.317 -0.4112 -0.7235  0.1730
15805TIP3    H168906   5.311   3.308   0.394 -1.0754 -0.4471 -0.1877
15805TIP3    H268907   5.324   3.412   0.285 -1.4481 -1.8762 -1.6343
15806TIP3   OH268908   6.723   5.598  12.762 -0.4824  0.1985 -0.2404
15806TIP3    H168909   6.658   5.551  12.813  0.3445  0.4319  1.0619
15806TIP3    H268910   6.686   5.685  12.750 -2.3458 -0.8203 -3.2553
15807TIP3   OH268911   0.925   1.957  14.424 -0.0588  0.1832  0.6818
15807TIP3    H168912   0.977   1.977  14.502 -0.3582 -0.2864  1.0078
15807TIP3    H268913   0.835   1.956  14.456 -0.2042  0.2590  0.2710
15808TIP3   OH268914   3.759   2.533   2.644 -0.2693  0.4113 -0.9685
15808TIP3    H168915   3.829   2.534   2.579  0.3134  0.3715 -0.3521
15808TIP3    H268916   3.730   2.441   2.646  1.0812 -0.0111  0.2565
15809TIP3   OH268917   1.536   4.206  12.645  0.1161  0.1548  1.1852
15809TIP3    H168918   1.539   4.251  12.561 -1.0791 -1.0512  0.4643
15809TIP3    H268919   1.457   4.152  12.641  0.3720 -0.3996  2.8433
15810TIP3   OH268920   1.340   2.791   3.336  0.5705  0.1723  0.1584
15810TIP3    H168921   1.289   2.822   3.412  0.1492  0.6857 -0.3246
15810TIP3    H268922   1.429   2.819   3.354  0.5693 -0.1379  0.6935
15811TIP3   OH268923   4.518   4.486  15.489  0.6827 -0.4972  0.6944
15811TIP3    H168924   4.547   4.578  15.490  0.5072 -0.4335  2.2421
15811TIP3    H268925   4.583   4.442  15.434  0.5945  0.5946 -0.3387
15812TIP3   OH268926   2.130   1.238   1.254 -0.3497  1.1495 -0.2752
15812TIP3    H168927   2.183   1.316   1.272 -1.4878  2.2190 -1.3569
15812TIP3    H268928   2.040   1.270   1.255 -0.7603  0.2023 -2.3625
15813TIP3   OH268929   5.865   5.780   3.971  0.2056 -0.0111 -0.0655
15813TIP3    H168930   5.958   5.792   3.993  1.2723  0.9023 -4.1433
15813TIP3    H268931   5.839   5.864   3.933 -2.0075 -0.6077  0.0500
15814TIP3   OH268932   6.380   6.674  16.060 -0.3115  0.5761 -0.6104
15814TIP3    H168933   6.450   6.679  16.126 -0.0304  0.6277 -0.9098
15814TIP3    H268934   6.419   6.622  15.989 -0.9335 -0.2939 -0.3336
15815TIP3   OH268935   6.502   2.438   1.275  0.1913  0.1743 -0.3151
15815TIP3    H168936   6.588   2.479   1.269 -0.2853  1.3192  0.2104
15815TIP3    H268937   6.448   2.504   1.319 -0.5303 -1.1758  0.9072
15816TIP3   OH268938   4.162   0.047  14.964  0.1924  0.0995  0.5134
15816TIP3    H168939   4.133  -0.041  14.940  0.8286  0.4912 -2.0017
15816TIP3    H268940   4.136   0.057  15.056  1.2428 -3.1577  1.3096
15817TIP3   OH268941   6.381   5.608   1.441 -0.4066 -0.0962  0.4016
15817TIP3    H168942   6.300   5.650   1.471 -0.5274  2.6988 -3.1901
15817TIP3    H268943   6.450   5.669   1.463  0.0836 -0.2386 -0.6795
15818TIP3   OH268944   6.044   3.328  13.319  0.9027 -0.1942  0.7790
15818TIP3    H168945   5.973   3.265  13.334  0.1800  0.7151  1.2863
15818TIP3    H268946   6.060   3.366  13.406 -0.3460  2.0567  0.0994
15819TIP3   OH268947   0.184   1.090  12.517 -0.1233  0.1913 -0.1248
15819TIP3    H168948   0.108   1.132  12.556 -0.9904 -0.4475 -1.0820
15819TIP3    H268949   0.183   1.117  12.425  0.2016 -0.6505 -0.3879
15820TIP3   OH268950   5.390   0.578  10.700  0.4718 -0.1681 -0.1795
15820TIP3    H168951   5.443   0.566  10.622  1.4089 -0.1961  0.4372
15820TIP3    H268952   5.453   0.598  10.769 -0.1846 -1.6192  0.8967
15821TIP3   OH268953   1.736   1.248   1.791 -0.3344 -0.0814 -0.5415
15821TIP3    H168954   1.793   1.239   1.867  1.2416 -1.6434 -1.8424
15821TIP3    H268955   1.763   1.330   1.749  0.6014 -0.5433 -0.8521
15822TIP3   OH268956   2.957   3.694   5.896  0.3598  0.0497 -0.1308
15822TIP3    H168957   2.884   3.755   5.913  0.3082 -0.5081  1.9418
15822TIP3    H268958   2.962   3.689   5.801 -1.1836  1.4497 -0.3392
15823TIP3   OH268959   0.202   6.685  12.586  0.0770  0.0987 -0.0774
15823TIP3    H168960   0.188   6.592  12.570 -0.6454 -0.4197  3.0024
15823TIP3    H268961   0.118   6.726  12.566  0.5958  0.2805 -2.1308
15824TIP3   OH268962   6.128   3.719   4.826 -0.3112  0.1974  0.5960
15824TIP3    H168963   6.065   3.780   4.864 -1.0215 -0.9838  1.4076
15824TIP3    H268964   6.213   3.757   4.846 -0.7120  2.2837 -1.2908
15825TIP3   OH268965   4.258   4.392   0.216  0.5999  0.3422  0.1221
15825TIP3    H168966   4.297   4.364   0.134 -0.2453 -0.2402 -0.0965
15825TIP3    H268967   4.297   4.335   0.282 -2.2167 -2.5912 -0.4950
15826TIP3   OH268968   3.464   5.160  11.177 -0.0402  0.0030 -0.1000
15826TIP3    H168969   3.391   5.179  11.119  0.0763  1.6970  0.2612
15826TIP3    H268970   3.512   5.242  11.183 -0.1240 -0.0578  2.4885
15827TIP3   OH268971   2.488   6.510   2.590  0.4403  0.4492  0.3383
15827TIP3    H168972   2.496   6.595   2.634 -0.9618  0.5690  0.4039
15827TIP3    H268973   2.560   6.458   2.626  0.5860  1.2216  1.2078
15828TIP3   OH268974   2.760   4.427   2.809 -0.1883  0.1787 -0.0907
15828TIP3    H168975   2.710   4.363   2.860 -0.4250  0.7386  0.4030
15828TIP3    H268976   2.729   4.416   2.719 -0.6127 -0.0349  0.0782
15829TIP3   OH268977   1.164   6.781  11.722  0.4723  0.7670 -0.2898
15829TIP3    H168978   1.245   6.754  11.764  0.2109  1.0820  0.4312
15829TIP3    H268979   1.095   6.755  11.782  0.1446  1.9490 -0.1306
15830TIP3   OH268980   5.091   2.171   3.715  0.5125 -0.1644 -0.4118
15830TIP3    H168981   5.100   2.197   3.624  0.3749  0.6113 -0.2062
15830TIP3    H268982   5.153   2.226   3.763 -2.4388  2.6880  0.5507
15831TIP3   OH268983   3.146   0.429   2.696  0.1723 -0.1882  0.2557
15831TIP3    H168984   3.227   0.480   2.693 -0.3291  0.6679  0.8394
15831TIP3    H268985   3.089   0.472   2.632  0.5833 -1.5391 -1.0665
15832TIP3   OH268986   0.655   0.724  17.019  0.1488  0.1325  0.3725
15832TIP3    H168987   0.656   0.729  17.115 -1.0425 -0.8701  0.4617
15832TIP3    H268988   0.571   0.681  16.998  1.8370 -2.8436 -0.9504
15833TIP3   OH268989   6.753   5.726   1.785  0.7261  0.2375 -0.1818
15833TIP3    H168990   6.729   5.634   1.793 -1.6903  0.7527 -0.6656
15833TIP3    H268991   6.809   5.743   1.861  1.2522 -1.6303 -0.1147
15834TIP3   OH268992   5.420   1.305   2.970 -0.6209 -0.0029 -0.7980
15834TIP3    H168993   5.502   1.356   2.971 -0.0302 -0.8663  1.6678
15834TIP3    H268994   5.432   1.243   2.898  0.2301  0.8524 -1.4406
15835TIP3   OH268995   5.453   6.045  17.044  0.3642 -0.3280 -0.5901
15835TIP3    H168996   5.451   6.110  16.974  1.2985  0.5323  0.1381
15835TIP3    H268997   5.527   5.988  17.022  0.5821 -0.1308 -0.3790
15836TIP3   OH268998   2.770   3.452   1.338 -0.0505  0.1569  0.1117
15836TIP3    H168999   2.688   3.415   1.371  0.6512 -1.0672  0.5679
15836TIP3    H269000   2.811   3.490   1.416  1.2308 -2.0155  0.5844
15837TIP3   OH269001   4.078   1.076  15.551 -0.1291 -0.2641 -0.3808
15837TIP3    H169002   4.169   1.094  15.528  0.0445  1.0786  1.1672
15837TIP3    H269003   4.075   1.088  15.646 -2.0181  0.1212 -0.4545
15838TIP3   OH269004   4.938   1.809   4.199  0.0751  0.6912 -0.0643
15838TIP3    H169005   4.902   1.854   4.123 -0.9873  0.5380  0.3273
15838TIP3    H269006   4.995   1.742   4.163  1.2377  1.9544 -0.6732
15839TIP3   OH269007   6.322   1.391  14.570  0.1085 -0.3745  0.3076
15839TIP3    H169008   6.377   1.314  14.584  1.0566  0.5538  2.0752
15839TIP3    H269009   6.235   1.364  14.599 -0.0824 -1.3939 -1.0906
15840TIP3   OH269010   4.334   0.081  12.187  0.1565 -0.7030  0.1341
15840TIP3    H169011   4.320   0.141  12.114 -1.0137 -1.4552 -0.2928
15840TIP3    H269012   4.267   0.013  12.175  0.4173 -1.2301  1.4955
15841TIP3   OH269013   0.651   4.182   3.491 -0.3915 -0.7251 -0.0274
15841TIP3    H169014   0.596   4.211   3.563  0.5187  0.0285  0.3880
15841TIP3    H269015   0.730   4.236   3.497 -0.7697  0.2238 -2.2846
15842TIP3   OH269016   0.602   0.106   0.061 -0.1313 -0.4512  0.0565
15842TIP3    H169017   0.673   0.167   0.042 -1.1636  0.9772  0.6415
15842TIP3    H269018   0.568   0.082  -0.025  0.0143  0.1340 -0.1690
15843TIP3   OH269019   5.034   5.903   1.732 -0.4797 -0.4958 -0.0809
15843TIP3    H169020   5.090   5.955   1.790  1.1461 -0.5327 -1.5402
15843TIP3    H269021   4.955   5.888   1.783  0.6540 -0.0646  1.9195
15844TIP3   OH269022   1.542   2.129  13.219 -0.4579 -0.1690  0.2564
15844TIP3    H169023   1.612   2.101  13.279 -0.3102  0.3952  0.3583
15844TIP3    H269024   1.500   2.202  13.265 -0.6431 -0.0355 -0.1263
15845TIP3   OH269025   2.310   6.739   3.327  0.6208 -0.2657 -0.1373
15845TIP3    H169026   2.250   6.673   3.362  2.6452 -1.7029  0.8137
15845TIP3    H269027   2.336   6.790   3.404  1.4726 -0.4035 -0.3228
15846TIP3   OH269028   1.157   6.462   5.471 -0.6976  0.0096 -0.6909
15846TIP3    H169029   1.140   6.469   5.377  1.1311 -0.1561 -1.0701
15846TIP3    H269030   1.228   6.398   5.478 -0.0193  0.8585  0.6936
15847TIP3   OH269031   5.336   1.606   2.749 -0.2171 -0.2100  0.3467
15847TIP3    H169032   5.256   1.595   2.697 -0.4584  1.0646  0.4178
15847TIP3    H269033   5.307   1.648   2.830  0.7220  2.0991 -0.4244
15848TIP3   OH269034   0.697   4.076  14.115  0.6004  0.1093 -0.1579
15848TIP3    H169035   0.756   4.026  14.170  0.8109 -2.0882 -2.2046
15848TIP3    H269036   0.755   4.131  14.062  0.9199 -1.8623 -1.9880
15849TIP3   OH269037   4.780   6.385  15.553 -0.2136 -0.1901  0.9608
15849TIP3    H169038   4.770   6.318  15.485 -0.1721  0.5449  0.2025
15849TIP3    H269039   4.755   6.467  15.509 -0.9077  0.2075  2.0471
15850TIP3   OH269040   1.947   2.806   7.029 -0.2607 -0.3855 -0.7681
15850TIP3    H169041   1.892   2.849   6.964  0.1307  0.0704 -0.8083
15850TIP3    H269042   1.896   2.730   7.059 -1.7963  1.1300  0.6887
15851TIP3   OH269043   3.149   6.166  13.482 -0.3187  0.1752  0.1743
15851TIP3    H169044   3.104   6.085  13.456  0.7251 -0.3330 -0.0868
15851TIP3    H269045   3.240   6.140  13.493  0.3948  1.6981 -1.6899
15852TIP3   OH269046   5.766   1.032  15.965  0.4129  0.1879 -0.0868
15852TIP3    H169047   5.846   1.052  15.916  0.6373  0.8229  0.5074
15852TIP3    H269048   5.696   1.032  15.900  0.7826  0.4586 -0.4871
15853TIP3   OH269049   5.229   1.088  15.906 -0.0557  0.0860  0.4329
15853TIP3    H169050   5.221   1.050  15.993 -0.3908 -1.0686 -0.0922
15853TIP3    H269051   5.145   1.131  15.890 -0.9286 -1.7926 -0.2759
15854TIP3   OH269052   1.274   2.629  13.832  0.2419  0.5810 -0.7288
15854TIP3    H169053   1.325   2.676  13.899  0.2310 -0.8913  0.3860
15854TIP3    H269054   1.191   2.675  13.828 -0.3488 -0.1609  1.4479
15855TIP3   OH269055   0.946   4.918   3.278  0.4086 -0.0789  0.0052
15855TIP3    H169056   1.022   4.863   3.296  1.1135  0.6696 -0.6266
15855TIP3    H269057   0.982   5.000   3.245 -0.7002 -0.0044 -1.0973
15856TIP3   OH269058   6.688   3.678   3.263  0.1385 -0.3229  0.2056
15856TIP3    H169059   6.602   3.664   3.223 -0.1835 -1.3766  1.2374
15856TIP3    H269060   6.674   3.667   3.357  1.1474  0.8318  0.5260
15857TIP3   OH269061   3.269   6.357  13.258  0.3176 -0.3210  0.5989
15857TIP3    H169062   3.208   6.402  13.199 -0.6190 -0.4866  1.4255
15857TIP3    H269063   3.355   6.381  13.225 -0.1683  1.0883  0.2682
15858TIP3   OH269064   6.387   5.251  16.712  0.2768 -0.7024 -0.3402
15858TIP3    H169065   6.352   5.162  16.702 -1.7073 -0.1380  1.0366
15858TIP3    H269066   6.309   5.306  16.723  1.5192  1.0102  0.2562
15859TIP3   OH269067   1.937   5.665   1.077 -0.5515 -0.1140 -0.4395
15859TIP3    H169068   1.952   5.585   1.026  0.3541 -0.0101 -0.3559
15859TIP3    H269069   1.842   5.669   1.088 -0.5282 -2.8214  2.0997
15860TIP3   OH269070   6.546   4.316   6.476 -0.3776  0.1197  0.6795
15860TIP3    H169071   6.549   4.407   6.448  0.8977 -0.0416  0.2305
15860TIP3    H269072   6.623   4.276   6.436 -1.3937 -1.3741  0.1317
15861TIP3   OH269073   5.820   5.284  17.202  0.0389 -0.4972  0.2441
15861TIP3    H169074   5.768   5.209  17.173 -1.3055  0.6639 -0.4406
15861TIP3    H269075   5.759   5.337  17.253  0.9520  0.1784  0.6534
15862TIP3   OH269076   1.895   3.307  12.020  0.0873 -0.4768  0.1489
15862TIP3    H169077   1.806   3.299  12.055  0.3054  0.2552  0.8852
15862TIP3    H269078   1.938   3.370  12.077  1.5301 -1.8620  0.6609
15863TIP3   OH269079   0.770   4.580  14.137 -0.0850  0.3400  0.4975
15863TIP3    H169080   0.746   4.522  14.209  1.3174 -1.2769 -0.2615
15863TIP3    H269081   0.853   4.619  14.165  1.2425 -1.4187 -0.7631
15864TIP3   OH269082   5.383   0.181   1.891  0.1886 -0.2306 -0.2698
15864TIP3    H169083   5.317   0.165   1.958 -1.2302 -0.7619 -1.7461
15864TIP3    H269084   5.410   0.272   1.905 -2.0056  0.5228 -0.5967
15865TIP3   OH269085   6.681   4.709   4.960 -0.0870  0.0811 -0.2681
15865TIP3    H169086   6.761   4.750   4.992 -0.0491  1.1663 -1.6196
15865TIP3    H269087   6.710   4.652   4.889 -0.5846  1.7324 -1.8956
15866TIP3   OH269088   1.782   2.427   4.273 -0.4410  0.2208  0.3911
15866TIP3    H169089   1.736   2.347   4.299 -1.4181 -0.0854 -2.0061
15866TIP3    H269090   1.798   2.416   4.179  1.1234  2.0309  0.3886
15867TIP3   OH269091   4.431   4.281   5.296  0.3030  0.2777  0.1506
15867TIP3    H169092   4.504   4.332   5.330  0.6328  0.7215 -1.1523
15867TIP3    H269093   4.368   4.277   5.368  0.6407  1.8167  0.5540
15868TIP3   OH269094   5.873   0.311  14.709 -0.0291 -0.2634  0.2304
15868TIP3    H169095   5.819   0.363  14.649 -1.0037  2.6832  3.3396
15868TIP3    H269096   5.960   0.348  14.700 -0.2677  0.4816  0.8978
15869TIP3   OH269097   5.959   6.640  13.996 -0.0558  0.3988  0.0519
15869TIP3    H169098   6.012   6.673  13.924  0.3949 -0.4061  0.0027
15869TIP3    H269099   6.022   6.629  14.068 -0.3973  0.6549  0.3935
15870TIP3   OH269100   5.674   6.736  14.838 -0.0855  0.1650  0.2214
15870TIP3    H169101   5.733   6.734  14.762 -1.9730  0.4876 -1.3322
15870TIP3    H269102   5.710   6.669  14.897  0.6519 -1.1543 -1.5924
15871TIP3   OH269103   1.510   3.846   5.385  0.0398  0.4277  0.0008
15871TIP3    H169104   1.444   3.915   5.388 -1.1968 -0.6093 -1.7905
15871TIP3    H269105   1.593   3.891   5.402 -0.8028  2.2382 -0.5116
15872TIP3   OH269106   2.875   0.743  17.354 -0.2796 -0.1335  0.2566
15872TIP3    H169107   2.844   0.821  17.400 -1.7669 -1.1578  1.0404
15872TIP3    H269108   2.891   0.679  17.423  1.9940 -0.2251 -0.2820
15873TIP3   OH269109   4.247   3.477   1.580  0.0122 -0.3727  0.4029
15873TIP3    H169110   4.248   3.470   1.675 -1.2508  3.8149  0.9619
15873TIP3    H269111   4.339   3.474   1.554  0.3140 -2.7177  1.5245
15874TIP3   OH269112   1.377   1.296   1.311  0.6206  0.5843  0.1692
15874TIP3    H169113   1.472   1.291   1.302  0.5048 -0.2281 -0.8192
15874TIP3    H269114   1.357   1.236   1.383  0.8155  0.3221  0.0096
15875TIP3   OH269115   0.065   4.207  10.344  0.8514 -0.0094 -0.4168
15875TIP3    H169116   0.070   4.144  10.416  0.6661  0.6695  0.1983
15875TIP3    H269117  -0.026   4.205  10.316  0.4182  1.2518  0.7813
15876TIP3   OH269118   2.347   4.034   3.464  0.0265  0.4965  0.4064
15876TIP3    H169119   2.314   3.978   3.533 -0.0426  1.4339  1.1542
15876TIP3    H269120   2.276   4.039   3.400 -0.6473  1.1397  1.1868
15877TIP3   OH269121   4.382   2.386   4.190  0.0516 -0.2839  0.6245
15877TIP3    H169122   4.391   2.481   4.184  0.1161 -0.2657  0.9593
15877TIP3    H269123   4.411   2.353   4.105 -0.4793  0.0276  0.3180
15878TIP3   OH269124   1.053   2.383  16.906 -0.1261  0.4788 -0.3182
15878TIP3    H169125   0.982   2.447  16.905 -0.1431  0.5169  1.4303
15878TIP3    H269126   1.090   2.388  16.994  2.2485  0.6352 -1.2383
15879TIP3   OH269127   4.646   1.693   4.852 -0.0617  0.0445  0.0390
15879TIP3    H169128   4.591   1.754   4.803 -0.9270  0.1965  1.1480
15879TIP3    H269129   4.718   1.747   4.886 -0.0836  0.1629 -0.1004
15880TIP3   OH269130   0.754   1.761  11.776 -0.2694  0.5243  0.0639
15880TIP3    H169131   0.780   1.743  11.686  0.8288  1.0469  0.2694
15880TIP3    H269132   0.788   1.687  11.826 -1.7406 -0.2904 -0.0541
15881TIP3   OH269133   0.330   3.512  14.347  0.2285  0.2482  0.1330
15881TIP3    H169134   0.263   3.571  14.312  1.2163  1.1177 -0.3071
15881TIP3    H269135   0.305   3.499  14.439 -1.3498 -0.5931 -0.3789
15882TIP3   OH269136   4.461   0.985  11.586 -0.0294  0.4538 -0.3616
15882TIP3    H169137   4.444   1.075  11.559 -0.6910  0.0066 -1.4887
15882TIP3    H269138   4.531   0.955  11.528  0.3996  0.3214  0.2086
15883TIP3   OH269139   4.310   3.498  13.592 -0.1217 -0.2384 -0.0527
15883TIP3    H169140   4.373   3.484  13.663  0.4182 -0.4756 -0.5684
15883TIP3    H269141   4.348   3.569  13.540  0.8213 -1.7703 -1.5662
15884TIP3   OH269142   3.280   2.847   1.089 -0.1223  0.1993 -0.0741
15884TIP3    H169143   3.185   2.852   1.081 -0.1415  0.0356  0.0417
15884TIP3    H269144   3.305   2.927   1.135 -0.1271  0.6006 -0.7530
15885TIP3   OH269145   0.950   2.609   0.756 -0.7279 -0.9571 -0.7405
15885TIP3    H169146   1.011   2.646   0.820  0.8833 -1.3239 -1.9877
15885TIP3    H269147   0.875   2.581   0.808  0.2561 -0.6853  0.9081
15886TIP3   OH269148   0.797   4.743   3.936  0.0150 -0.2740 -0.3259
15886TIP3    H169149   0.862   4.703   3.994  0.7500  1.6409  0.2595
15886TIP3    H269150   0.746   4.800   3.994 -2.6543 -2.1547 -0.6397
15887TIP3   OH269151   1.611   2.070   2.998 -0.5195  0.3982 -0.7495
15887TIP3    H169152   1.656   2.005   3.053 -0.3529 -0.4970 -1.8982
15887TIP3    H269153   1.672   2.143   2.991  0.5685 -0.5670 -1.8214
15888TIP3   OH269154   6.341   5.134  15.210  0.4904  0.1657 -0.0847
15888TIP3    H169155   6.263   5.098  15.167  0.8575 -1.5723  0.6308
15888TIP3    H269156   6.306   5.192  15.277 -0.1374  0.9988 -1.1019
15889TIP3   OH269157   1.095   1.446   0.360  0.3057 -0.4360 -0.0536
15889TIP3    H169158   1.001   1.451   0.344  0.3996  1.1768 -0.2463
15889TIP3    H269159   1.113   1.352   0.368 -1.8149 -0.7457  2.9596
15890TIP3   OH269160   0.093   0.600  12.465 -0.0879 -0.8654  0.2446
15890TIP3    H169161   0.120   0.649  12.544 -1.5184 -1.1363  0.9245
15890TIP3    H269162   0.037   0.661  12.417 -0.9268 -1.4172  0.5064
15891TIP3   OH269163   2.535   1.377   4.061 -0.1400 -0.0784  0.0837
15891TIP3    H169164   2.491   1.448   4.014  2.1871  1.5185  0.1886
15891TIP3    H269165   2.532   1.404   4.153  2.7440  1.1862 -0.0777
15892TIP3   OH269166   4.857   2.795  11.547 -0.3335 -0.1859 -0.6244
15892TIP3    H169167   4.799   2.724  11.574  0.8781 -0.7417  0.6746
15892TIP3    H269168   4.801   2.854  11.496 -2.3702 -0.0404  1.5997
15893TIP3   OH269169   0.963   3.301  16.706 -0.5586 -0.2386 -0.0831
15893TIP3    H169170   0.883   3.258  16.676 -0.3431 -0.3991 -0.4433
15893TIP3    H269171   1.023   3.293  16.632 -1.1118  2.3367 -0.9037
15894TIP3   OH269172   3.829   5.497  15.307 -0.1819  0.1922 -0.1079
15894TIP3    H169173   3.840   5.584  15.345 -2.8748  0.1244  1.0478
15894TIP3    H269174   3.868   5.503  15.220  2.6381  1.5243  1.1172
15895TIP3   OH269175   6.396   2.757   3.958 -0.9816 -0.8760  0.3853
15895TIP3    H169176   6.368   2.673   3.994 -1.8438 -0.8493 -0.2163
15895TIP3    H269177   6.318   2.812   3.959 -0.3017  0.1313  1.3228
15896TIP3   OH269178   3.219   1.057   2.565  0.4794  0.2545  0.1828
15896TIP3    H169179   3.125   1.064   2.549  0.4228 -1.5123 -0.4366
15896TIP3    H269180   3.254   1.021   2.483  1.6134  0.4028  0.5951
15897TIP3   OH269181   5.485   5.530  16.508 -0.0551 -0.4030  0.3355
15897TIP3    H169182   5.551   5.579  16.460  0.2149  1.7040  2.6422
15897TIP3    H269183   5.456   5.462  16.447  2.3997  0.1734 -1.6302
15898TIP3   OH269184   0.136   0.394  16.998  0.6274  0.2185 -0.1667
15898TIP3    H169185   0.054   0.411  16.952  0.9006  0.5037 -0.5494
15898TIP3    H269186   0.204   0.409  16.933  1.0275  0.7715  0.3703
15899TIP3   OH269187   3.027   5.561  12.436 -0.5179 -0.2092 -0.6766
15899TIP3    H169188   3.072   5.476  12.446  0.1224  0.3500  2.2417
15899TIP3    H269189   3.009   5.589  12.526 -0.6533  2.8009 -1.5314
15900TIP3   OH269190   5.415   5.943   4.539 -0.3990  0.3951 -0.4165
15900TIP3    H169191   5.401   5.942   4.445  0.7624  2.6713 -0.6817
15900TIP3    H269192   5.362   6.016   4.571 -0.8433 -0.3943  0.7314
15901TIP3   OH269193   0.581   3.853   2.213 -0.1951 -0.4124 -0.8745
15901TIP3    H169194   0.664   3.813   2.238 -1.4036 -1.1911  2.5090
15901TIP3    H269195   0.593   3.947   2.231 -0.3691 -0.6896  0.8794
15902TIP3   OH269196   0.223   3.427  16.523  0.2166 -0.3551 -0.6332
15902TIP3    H169197   0.146   3.415  16.579 -0.2263  0.3752 -1.0598
15902TIP3    H269198   0.187   3.450  16.437  0.8914  1.8394 -0.4058
15903TIP3   OH269199   2.473   6.310  15.155 -0.6118  0.6550  0.3901
15903TIP3    H169200   2.540   6.282  15.217  1.0561  2.3579 -0.5187
15903TIP3    H269201   2.392   6.269  15.186  0.4307  0.2470  2.7955
15904TIP3   OH269202   2.641   6.408   0.077  0.0380  0.1237 -0.5534
15904TIP3    H169203   2.664   6.322   0.041 -0.1192  0.3257 -1.1419
15904TIP3    H269204   2.591   6.387   0.156 -0.0611 -0.3337 -0.7308
15905TIP3   OH269205   2.253   6.187   5.143  0.0002 -0.6757  0.4693
15905TIP3    H169206   2.184   6.120   5.138 -0.9822  0.1957  1.7249
15905TIP3    H269207   2.311   6.156   5.213 -0.8832  0.1207  1.5934
15906TIP3   OH269208   1.324   3.840   3.965 -0.4472 -0.2872 -0.2963
15906TIP3    H169209   1.280   3.835   3.880 -0.3584 -0.9568 -0.3099
15906TIP3    H269210   1.357   3.929   3.970 -1.1941  0.0151 -0.5941
15907TIP3   OH269211   0.521   4.269  14.938 -0.2109  0.7954  0.8572
15907TIP3    H169212   0.500   4.260  14.845 -0.2093  1.5343  0.7772
15907TIP3    H269213   0.488   4.356  14.961  1.3750  1.3724  1.1028
15908TIP3   OH269214   0.338   6.786  16.337 -0.2969  0.0494  0.7460
15908TIP3    H169215   0.397   6.850  16.296  0.1782 -0.0513  1.2553
15908TIP3    H269216   0.267   6.775  16.274  0.7193 -0.5671 -0.3308
15909TIP3   OH269217   4.727   4.339   4.812  0.0750  0.2163  0.1864
15909TIP3    H169218   4.804   4.396   4.812 -1.0253  1.7684  1.2018
15909TIP3    H269219   4.695   4.341   4.722  0.4626  0.6368  0.0552
15910TIP3   OH269220   0.121   5.996  14.539  0.0786  0.2716  0.2193
15910TIP3    H169221   0.113   6.090  14.525 -0.8506  0.1569 -0.0959
15910TIP3    H269222   0.204   5.973  14.498  0.1165  0.8885 -0.0593
15911TIP3   OH269223   3.829   4.106   1.572  0.1102 -0.5580  0.0103
15911TIP3    H169224   3.891   4.034   1.558  0.1573 -0.1222 -2.7167
15911TIP3    H269225   3.883   4.181   1.597  0.2436 -1.0308  1.1918
15912TIP3   OH269226   5.265   6.150  13.892 -0.4305 -0.1853 -0.6901
15912TIP3    H169227   5.246   6.155  13.986  0.2121  1.0933 -0.6087
15912TIP3    H269228   5.315   6.070  13.882 -1.9523 -1.2462 -0.2232
15913TIP3   OH269229   5.029   5.950   3.544 -0.6996  0.0796  0.0437
15913TIP3    H169230   4.952   5.903   3.513  0.2639 -0.0666 -2.3553
15913TIP3    H269231   5.103   5.899   3.509  0.4470  1.3008  0.6082
15914TIP3   OH269232   1.791   4.220  14.895 -0.9366  0.1991  0.3712
15914TIP3    H169233   1.789   4.249  14.986  0.2258 -0.5820  0.6583
15914TIP3    H269234   1.741   4.288  14.848 -0.2199  1.4607  1.3525
15915TIP3   OH269235   3.068   2.713   1.308  0.2319  0.3581  0.0084
15915TIP3    H169236   3.077   2.714   1.403 -1.6599  1.2778  0.2273
15915TIP3    H269237   3.122   2.640   1.279  2.8434  1.5448  1.5288
15916TIP3   OH269238   5.194   0.088  11.922  0.1298  0.7262  0.1175
15916TIP3    H169239   5.188  -0.006  11.902  0.6982  0.8560 -0.6933
15916TIP3    H269240   5.154   0.131  11.847  1.8114  1.2038 -0.5265
15917TIP3   OH269241   6.543   2.983  13.101  0.0923 -0.1693  0.3238
15917TIP3    H169242   6.630   2.998  13.138  0.2710  1.1690 -0.5887
15917TIP3    H269243   6.554   2.993  13.007 -0.8903 -0.8218  0.1230
15918TIP3   OH269244   4.280   3.936   5.742 -0.3333 -0.6122 -0.6985
15918TIP3    H169245   4.247   4.015   5.784  1.8119 -0.2495  0.4371
15918TIP3    H269246   4.367   3.960   5.709 -0.5262 -1.8955 -2.3047
15919TIP3   OH269247   3.586   5.845  13.797 -0.1340  0.3755  0.1385
15919TIP3    H169248   3.529   5.881  13.728 -0.1148 -0.2853 -0.2364
15919TIP3    H269249   3.607   5.920  13.853  1.0246  1.2471 -1.3759
15920TIP3   OH269250   5.223   3.684   5.155 -0.4986 -0.2777 -0.2537
15920TIP3    H169251   5.212   3.721   5.242  0.5633 -0.4226 -0.0514
15920TIP3    H269252   5.281   3.745   5.110  1.7528 -1.9269  0.2688
15921TIP3   OH269253   1.726   0.421  17.346 -0.1167  0.9214 -0.2520
15921TIP3    H169254   1.651   0.477  17.325  1.0679  2.7560  0.1085
15921TIP3    H269255   1.740   0.433  17.440  0.0132 -0.2260 -0.1098
15922TIP3   OH269256   5.579   5.896  12.140  0.1349 -0.3600  0.0505
15922TIP3    H169257   5.555   5.963  12.075 -0.6146 -0.4933  0.1916
15922TIP3    H269258   5.628   5.831  12.090 -0.7050 -0.6161 -0.4527
15923TIP3   OH269259   2.765   2.015   0.098  0.4624  0.1372 -0.2439
15923TIP3    H169260   2.797   2.105   0.097  0.5693  0.0980 -0.2659
15923TIP3    H269261   2.704   2.012   0.172  1.8790 -0.2676  0.9568
15924TIP3   OH269262   4.717   5.513   5.807 -0.3896 -0.3729 -0.2354
15924TIP3    H169263   4.696   5.435   5.756 -0.8931  0.0311 -0.6655
15924TIP3    H269264   4.800   5.493   5.850  0.2186 -0.6142 -1.4827
15925TIP3   OH269265   3.326   5.268  14.490 -0.0473  0.5661  0.2786
15925TIP3    H169266   3.325   5.174  14.506 -0.7646  0.6320  0.6934
15925TIP3    H269267   3.334   5.307  14.576 -0.3802  0.8915  0.1656
15926TIP3   OH269268   0.080   3.856   1.767  0.2061 -0.3993 -0.0296
15926TIP3    H169269   0.165   3.859   1.723  0.5180 -0.3196  0.5634
15926TIP3    H269270   0.099   3.821   1.854 -0.7908 -3.1083 -0.8260
15927TIP3   OH269271   3.789   3.592   1.837  0.0080  0.4733  0.0664
15927TIP3    H169272   3.811   3.569   1.927  0.4241  0.7195  0.0312
15927TIP3    H269273   3.823   3.681   1.826  0.8808  0.0756 -0.6390
15928TIP3   OH269274   1.152   1.854   3.432  0.3213  0.0569  0.2239
15928TIP3    H169275   1.168   1.781   3.492  1.1706  1.8459  2.3410
15928TIP3    H269276   1.077   1.900   3.471 -1.3086 -0.5667 -2.0121
15929TIP3   OH269277   2.348   1.250   3.256  0.1995 -0.2512 -0.4136
15929TIP3    H169278   2.294   1.324   3.283  1.9300  0.8180  0.2762
15929TIP3    H269279   2.434   1.288   3.240  0.4077 -1.6022 -3.1147
15930TIP3   OH269280   1.085   6.329   2.995 -0.1109 -0.7471  0.3364
15930TIP3    H169281   1.139   6.287   3.062  1.7769 -0.9473 -1.2327
15930TIP3    H269282   1.140   6.399   2.960 -0.4268 -1.6006 -2.0270
15931TIP3   OH269283   3.071   4.470  16.863  0.0611 -0.1729  0.4466
15931TIP3    H169284   3.022   4.476  16.781 -0.1029 -0.1200  0.5457
15931TIP3    H269285   3.150   4.420  16.841 -0.1567 -0.4718  0.3388
15932TIP3   OH269286   4.433   5.230   5.484  0.0767  0.4387  0.2691
15932TIP3    H169287   4.481   5.181   5.417 -0.3789  0.8208 -0.3489
15932TIP3    H269288   4.360   5.173   5.508 -0.3956  0.7673 -0.3764
15933TIP3   OH269289   4.358   6.098  13.204  0.5112  0.0451 -0.1044
15933TIP3    H169290   4.401   6.111  13.120  1.3882  0.8302  0.4573
15933TIP3    H269291   4.418   6.043  13.254  0.6054  0.6646  0.4753
15934TIP3   OH269292   5.799   0.415   3.432  0.1013  0.3854 -0.7837
15934TIP3    H169293   5.757   0.355   3.371 -1.0134 -1.2959  1.4864
15934TIP3    H269294   5.887   0.378   3.444 -0.4674 -0.7007  0.3465
15935TIP3   OH269295   1.346   1.631   5.678 -0.1252 -0.1682 -0.3569
15935TIP3    H169296   1.414   1.681   5.633 -0.3975  0.2635 -0.2966
15935TIP3    H269297   1.292   1.697   5.721  0.6752 -0.6025  1.4110
15936TIP3   OH269298   4.744   6.134   4.561  0.6531  0.3909  0.0731
15936TIP3    H169299   4.811   6.068   4.545 -0.5169 -0.7521 -0.2655
15936TIP3    H269300   4.665   6.100   4.519 -0.3710  1.2813  1.1791
15937TIP3   OH269301   0.895   0.486  12.870 -0.4966 -0.4495 -0.3207
15937TIP3    H169302   0.938   0.553  12.816  0.7020  0.2088  1.3883
15937TIP3    H269303   0.802   0.507  12.864 -0.2474  0.5454 -0.8928
15938TIP3   OH269304   2.618   3.816   3.443  0.0609  0.1877  0.1167
15938TIP3    H169305   2.584   3.733   3.475  0.7109  0.2868  1.1040
15938TIP3    H269306   2.713   3.804   3.443  0.1470  0.8376  0.0023
15939TIP3   OH269307   3.206   2.084   5.932  0.3264 -0.1402 -0.0437
15939TIP3    H169308   3.287   2.043   5.963  1.0234  0.0225 -1.5479
15939TIP3    H269309   3.190   2.044   5.847 -1.0248  0.0518  0.1034
15940TIP3   OH269310   1.435   4.666   4.524  0.1614 -0.0515  0.0288
15940TIP3    H169311   1.365   4.617   4.568  0.3994 -3.0130 -2.5347
15940TIP3    H269312   1.514   4.616   4.541  0.5116 -0.4014 -2.2666
15941TIP3   OH269313   3.169   0.948  16.263 -0.1844  0.1380  0.2196
15941TIP3    H169314   3.156   0.870  16.317 -0.0112 -0.7209 -0.9503
15941TIP3    H269315   3.133   1.020  16.316 -1.0593 -0.8376  0.9961
15942TIP3   OH269316   4.084   0.836  15.394 -0.0439 -0.4162  0.2833
15942TIP3    H169317   4.103   0.923  15.430 -0.4445 -0.0477 -0.3820
15942TIP3    H269318   4.141   0.828  15.317 -0.6477 -0.3809 -0.1727
15943TIP3   OH269319   6.655   2.397   2.463 -0.4415  0.0868  0.4115
15943TIP3    H169320   6.669   2.304   2.444 -1.0270 -0.5943  2.8738
15943TIP3    H269321   6.738   2.438   2.439 -0.9911 -0.5396 -3.1135
15944TIP3   OH269322   3.957   6.185   4.013 -0.4563  0.2959  0.0559
15944TIP3    H169323   3.998   6.125   3.951  0.8363  0.1430  1.0325
15944TIP3    H269324   3.963   6.271   3.971 -1.1434 -0.0465 -0.7723
15945TIP3   OH269325   4.261   0.615  10.975 -0.0282  0.1271  0.0263
15945TIP3    H169326   4.312   0.557  11.031  0.6160  1.1781  0.5628
15945TIP3    H269327   4.170   0.591  10.991  0.2184 -0.5602  0.4172
15946TIP3   OH269328   2.558   1.613   1.048 -0.7176 -0.2744  0.0522
15946TIP3    H169329   2.482   1.568   1.010 -2.0859  0.3768  1.8512
15946TIP3    H269330   2.572   1.688   0.991  0.5771 -1.9993 -2.0577
15947TIP3   OH269331   2.777   0.643  16.684 -0.4838 -0.2274  0.5249
15947TIP3    H169332   2.859   0.597  16.667 -1.0858 -1.0816 -0.1465
15947TIP3    H269333   2.788   0.681  16.771  0.4029 -0.8157  0.6805
15948TIP3   OH269334   5.114   2.987  16.734  0.0237  0.3551  0.5998
15948TIP3    H169335   5.190   2.995  16.677  0.5509 -2.2593  0.8240
15948TIP3    H269336   5.148   3.001  16.822  0.4197 -1.3090  0.7489
15949TIP3   OH269337   6.545   1.049  12.089 -0.2339  0.0248  0.1769
15949TIP3    H169338   6.585   1.044  12.001  0.2779 -1.0806  0.4570
15949TIP3    H269339   6.475   0.984  12.087  0.5546 -0.8669  0.9640
15950TIP3   OH269340   4.355   0.195  12.437 -0.0157 -0.0483 -0.2237
15950TIP3    H169341   4.371   0.155  12.351  1.4010 -0.8328  0.3729
15950TIP3    H269342   4.318   0.281  12.416  0.3150 -0.2150 -1.6174
15951TIP3   OH269343   0.615   3.067   3.529  0.4531  0.4056 -0.0256
15951TIP3    H169344   0.636   2.996   3.590 -0.6609  0.3274  0.2844
15951TIP3    H269345   0.664   3.046   3.449  0.9404 -0.1520  0.4142
15952TIP3   OH269346   2.882   1.279   5.209  0.3948 -0.2221 -0.0108
15952TIP3    H169347   2.957   1.272   5.151  1.0918 -0.5406  0.9056
15952TIP3    H269348   2.855   1.188   5.224 -1.0256 -0.0715 -1.3796
15953TIP3   OH269349   0.859   1.636   4.996 -0.2071  0.2474 -0.0208
15953TIP3    H169350   0.886   1.716   4.951  0.4249 -0.3609 -0.7435
15953TIP3    H269351   0.896   1.644   5.084  1.8386 -0.2612 -0.7819
15954TIP3   OH269352   2.511   5.356   5.591  0.5867  0.1668 -0.6097
15954TIP3    H169353   2.559   5.415   5.649 -1.1831  0.1500  0.9569
15954TIP3    H269354   2.428   5.401   5.573  0.1015 -0.8887 -1.1487
15955TIP3   OH269355   2.720   5.510   3.310 -0.2669  0.4892 -0.5528
15955TIP3    H169356   2.669   5.435   3.279  0.0737  0.8622 -2.0665
15955TIP3    H269357   2.799   5.470   3.348 -0.9476 -0.0029  0.3852
15956TIP3   OH269358   3.152   0.359   5.142  0.3970 -0.4277  0.1960
15956TIP3    H169359   3.207   0.296   5.095 -1.0405 -2.4551  1.0854
15956TIP3    H269360   3.184   0.444   5.113  2.7254 -1.5177 -0.7473
15957TIP3   OH269361   2.480   5.057   1.009  0.0154  0.0058 -0.1459
15957TIP3    H169362   2.462   4.988   1.073  2.8680 -1.1645 -0.4076
15957TIP3    H269363   2.452   5.020   0.925 -1.8396  0.7126  0.1299
15958TIP3   OH269364   3.172   2.107   5.160 -0.0228  0.3802  0.0144
15958TIP3    H169365   3.122   2.142   5.234 -0.2439 -0.7984  0.4515
15958TIP3    H269366   3.207   2.024   5.192 -1.0047 -0.6805 -1.5378
15959TIP3   OH269367   4.008   4.527  11.029  0.0646 -0.2372 -0.1275
15959TIP3    H169368   3.946   4.459  11.056 -1.8446  1.2824 -0.4018
15959TIP3    H269369   3.986   4.602  11.084  1.3808  0.4870 -0.5519
15960TIP3   OH269370   2.184   1.010   5.390 -0.0672 -0.7441 -0.1960
15960TIP3    H169371   2.154   0.923   5.414 -1.0901 -0.5294 -0.6812
15960TIP3    H269372   2.278   1.008   5.410  0.0229 -2.1019 -0.6434
15961TIP3   OH269373   6.172   6.196  17.041 -0.5959 -0.1786 -0.0830
15961TIP3    H169374   6.260   6.226  17.020 -0.5938  0.9531  1.3431
15961TIP3    H269375   6.116   6.237  16.975 -0.0513 -1.1393 -1.1727
15962TIP3   OH269376   5.655   4.801   0.579  0.0190  0.4312  0.1990
15962TIP3    H169377   5.636   4.892   0.558 -2.6652  0.0790  0.7964
15962TIP3    H269378   5.579   4.771   0.629  0.7754 -2.1835 -0.0769
15963TIP3   OH269379   2.854   2.433   5.455  0.2978 -0.6641 -0.1589
15963TIP3    H169380   2.855   2.510   5.512  1.4866 -0.2433 -0.7046
15963TIP3    H269381   2.802   2.368   5.502  2.4450 -0.8627  2.1725
15964TIP3   OH269382   1.480   1.543  17.292  0.5859  0.6820  0.9536
15964TIP3    H169383   1.555   1.580  17.245  0.1088 -0.1048 -0.4946
15964TIP3    H269384   1.455   1.467  17.240 -2.4074  1.9792  0.2613
15965TIP3   OH269385   3.170   5.811  17.209  0.3348 -0.1801 -0.4636
15965TIP3    H169386   3.210   5.784  17.291 -1.1407 -0.2031  0.2924
15965TIP3    H269387   3.150   5.903  17.221  1.7467  0.3032 -1.5220
15966TIP3   OH269388   6.394   1.888   3.459 -0.6714 -0.2392 -0.0190
15966TIP3    H169389   6.451   1.829   3.410 -0.0391 -0.4482  0.9233
15966TIP3    H269390   6.351   1.942   3.393  0.6086 -0.0979 -0.7654
15967TIP3   OH269391   3.161   4.092  15.957  0.3209  0.4855  0.9450
15967TIP3    H169392   3.207   4.090  16.041 -0.1439  0.0712  1.1938
15967TIP3    H269393   3.104   4.168  15.963  0.8145  0.8776  0.7185
15968TIP3   OH269394   2.047   5.216  15.803  0.1744  0.0056 -0.0377
15968TIP3    H169395   2.084   5.230  15.890 -1.1784 -2.2810  1.0049
15968TIP3    H269396   2.093   5.138  15.770  0.3253  0.5564 -1.1691
15969TIP3   OH269397   2.492   3.992   5.134  0.4914 -0.4623 -0.6275
15969TIP3    H169398   2.527   3.904   5.146  2.3820  0.4613  1.0186
15969TIP3    H269399   2.501   4.034   5.219 -1.3948  1.0164 -1.0819
15970TIP3   OH269400   0.597   4.851  15.364  0.0944 -0.6365 -0.1497
15970TIP3    H169401   0.658   4.905  15.313  0.3886 -0.5479  0.2968
15970TIP3    H269402   0.592   4.895  15.449  0.0986 -1.1488  0.1137
15971TIP3   OH269403   4.859   1.172  13.416  0.3852  0.4714  0.3478
15971TIP3    H169404   4.950   1.200  13.425  0.0510  0.9743  2.8848
15971TIP3    H269405   4.808   1.243  13.455 -0.9351 -0.7164  0.8567
15972TIP3   OH269406   4.594   1.594  15.635 -0.3059  0.0354  0.0676
15972TIP3    H169407   4.523   1.574  15.696  0.7799  0.0308  1.3746
15972TIP3    H269408   4.618   1.685  15.654  1.3592 -0.5622  1.0856
15973TIP3   OH269409   0.799   5.447  13.642 -0.0857  0.2132 -0.7049
15973TIP3    H169410   0.723   5.396  13.670  0.6437  0.2691  1.5354
15973TIP3    H269411   0.809   5.514  13.710  1.8344  0.3490 -1.0753
15974TIP3   OH269412   5.670   1.749   2.249 -0.5344 -0.2473  0.1638
15974TIP3    H169413   5.594   1.790   2.290 -1.5532 -1.7840 -0.1031
15974TIP3    H269414   5.684   1.668   2.300  1.2899  0.2740  0.5611
15975TIP3   OH269415   4.989   6.539   1.617  0.0325 -0.1264  0.6454
15975TIP3    H169416   4.943   6.498   1.544 -1.7679  0.8364  1.1761
15975TIP3    H269417   5.032   6.616   1.578 -0.0133 -0.2239  0.4009
15976TIP3   OH269418   1.658   3.305   3.001 -0.9988 -0.3670  0.0677
15976TIP3    H169419   1.643   3.400   3.002 -1.5220 -0.4511  0.4766
15976TIP3    H269420   1.721   3.291   3.072  0.0026 -0.1878 -0.7571
15977TIP3   OH269421   0.908   3.640  13.928 -0.0544 -0.3530 -0.1863
15977TIP3    H169422   0.862   3.648  13.844 -0.8341  1.3679  0.3524
15977TIP3    H269423   1.000   3.654  13.905 -0.2464 -0.0212 -0.7878
15978TIP3   OH269424   2.295   5.381   2.636 -0.8793  0.5836 -0.0571
15978TIP3    H169425   2.291   5.464   2.683 -0.6138  1.5711 -1.6975
15978TIP3    H269426   2.333   5.403   2.551  3.3342 -1.8806  0.9063
15979TIP3   OH269427   1.143   2.004  16.548 -0.5600  0.1614  0.1035
15979TIP3    H169428   1.111   1.920  16.581 -3.1850  1.3218  0.7855
15979TIP3    H269429   1.073   2.035  16.489  1.6296  0.6032 -2.4380
15980TIP3   OH269430   3.955   4.627   0.394 -0.0877  0.3999 -0.0941
15980TIP3    H169431   3.868   4.594   0.416 -1.7476  5.2498  1.8844
15980TIP3    H269432   3.940   4.690   0.323  2.3176 -0.4085 -1.4442
15981TIP3   OH269433   3.560   3.964  12.270 -0.0636  0.2599  0.0081
15981TIP3    H169434   3.533   4.023  12.341 -0.6767 -0.1530  0.1286
15981TIP3    H269435   3.544   3.877  12.305 -2.8521  0.0353 -1.5236
15982TIP3   OH269436   1.801   3.545  13.793 -0.1616  0.2181 -0.5055
15982TIP3    H169437   1.895   3.542  13.812  0.0355  1.8738 -1.0847
15982TIP3    H269438   1.761   3.576  13.874 -0.1778 -0.1374 -0.3749
15983TIP3   OH269439   6.354   2.285   0.136  0.5717  0.4407  0.1508
15983TIP3    H169440   6.420   2.347   0.105  0.5088  0.2572 -0.3744
15983TIP3    H269441   6.331   2.234   0.058  0.8075 -0.4146  0.6163
15984TIP3   OH269442   1.861   1.661   4.340  0.3799 -0.3731  0.4554
15984TIP3    H169443   1.843   1.649   4.247 -0.0969  0.2715  0.4619
15984TIP3    H269444   1.885   1.574   4.371  1.7576 -0.3799 -0.5282
15985TIP3   OH269445   6.786   6.533   4.865  0.6162  0.6321 -0.3997
15985TIP3    H169446   6.697   6.531   4.898  0.3835 -1.9176 -0.9817
15985TIP3    H269447   6.782   6.590   4.788 -0.3799  0.9441 -0.1245
15986TIP3   OH269448   6.255   0.423   2.380 -0.0748 -0.3123 -0.1359
15986TIP3    H169449   6.182   0.458   2.431  0.9564 -2.0681  2.8377
15986TIP3    H269450   6.324   0.488   2.389 -0.7635  0.6647 -1.7000
15987TIP3   OH269451   4.977   4.492   5.344  0.5135  0.3003  0.3032
15987TIP3    H169452   4.917   4.444   5.287  0.6267  1.2709 -0.6635
15987TIP3    H269453   4.929   4.504   5.426 -0.2787  0.3283 -0.1630
15988TIP3   OH269454   2.565   6.533  13.822 -0.0688 -0.4771 -0.1076
15988TIP3    H169455   2.562   6.593  13.747  0.6902  2.0086  1.7177
15988TIP3    H269456   2.658   6.514  13.834 -0.0113  0.4694  1.1310
15989TIP3   OH269457   2.597   4.301  11.084  0.3963 -0.2961 -0.2095
15989TIP3    H169458   2.603   4.396  11.090  0.9229 -0.2813 -0.8424
15989TIP3    H269459   2.530   4.285  11.018  1.9109 -0.3083 -1.8403
15990TIP3   OH269460   3.575   4.369  16.443 -0.1930  0.8209  0.3078
15990TIP3    H169461   3.577   4.276  16.418 -0.1633  0.5852  1.1659
15990TIP3    H269462   3.652   4.381  16.498  0.2149  1.5377 -0.4076
15991TIP3   OH269463   1.280   0.184  15.862  0.4523  0.1660 -0.0530
15991TIP3    H169464   1.203   0.227  15.900  0.1483 -1.6162  1.4744
15991TIP3    H269465   1.261   0.180  15.769 -1.5158 -0.5366  0.3169
15992TIP3   OH269466   1.928   2.054   3.295  0.4974 -0.4035  0.1411
15992TIP3    H169467   1.839   2.078   3.321  0.4615  1.4025 -1.4215
15992TIP3    H269468   1.915   1.994   3.221  0.5722 -0.4966  0.2047
15993TIP3   OH269469   1.247   3.208   1.728  0.0767 -0.3922  0.2200
15993TIP3    H169470   1.225   3.130   1.678  1.9757 -1.3645  0.7784
15993TIP3    H269471   1.209   3.192   1.815 -2.3497  0.8421 -0.5364
15994TIP3   OH269472   1.622   0.228  13.183  0.2814  0.4272 -0.6413
15994TIP3    H169473   1.711   0.263  13.178  0.1087  0.9379 -0.2428
15994TIP3    H269474   1.583   0.273  13.258 -0.0220 -0.4637 -0.2538
15995TIP3   OH269475   0.145   1.988  10.946 -0.0066 -0.2568  0.2048
15995TIP3    H169476   0.217   2.051  10.949 -0.1441 -0.1379  1.6758
15995TIP3    H269477   0.128   1.976  10.853 -0.1569  2.1230 -0.1483
15996TIP3   OH269478   3.217   1.949   5.656 -0.2340  0.0542  0.0327
15996TIP3    H169479   3.260   1.868   5.627 -0.8143  0.2635 -1.4567
15996TIP3    H269480   3.267   2.019   5.614 -0.7139  0.4043  0.0435
15997TIP3   OH269481   6.142   4.901  11.215 -0.6053  0.0073 -0.1823
15997TIP3    H169482   6.179   4.943  11.137 -2.6730  0.1182 -1.1728
15997TIP3    H269483   6.107   4.818  11.183 -1.1496 -0.1202  0.6981
15998TIP3   OH269484   2.980   6.326   4.374  0.0472  1.0188  0.5478
15998TIP3    H169485   2.966   6.327   4.469 -0.2242 -0.2901  0.5440
15998TIP3    H269486   2.964   6.416   4.346 -0.3146  1.3239  1.6803
15999TIP3   OH269487   2.962   0.172   3.621 -0.3769  0.0327 -0.3058
15999TIP3    H169488   3.004   0.225   3.554 -0.9254  0.5483 -0.2567
15999TIP3    H269489   3.030   0.112   3.652  0.2778  0.7593 -0.3168
16000TIP3   OH269490   5.861   6.689  14.637 -0.3094  0.2148  0.0528
16000TIP3    H169491   5.887   6.778  14.613  0.6663  0.2123  1.0003
16000TIP3    H269492   5.905   6.633  14.573  1.5227  0.2610  1.1870
16001TIP3   OH269493   5.135   2.501  11.874  0.2638  0.1996  0.1268
16001TIP3    H169494   5.133   2.524  11.781 -0.1568 -0.9637 -0.1671
16001TIP3    H269495   5.049   2.528  11.906 -0.2508 -0.9386 -0.2309
16002TIP3   OH269496   4.937   4.980  12.077 -0.7582 -0.2337  0.4877
16002TIP3    H169497   4.981   5.032  12.145 -2.4619  1.5888  0.2655
16002TIP3    H269498   4.848   5.014  12.074 -1.2040 -1.4067 -1.5362
16003TIP3   OH269499   4.441   1.065  17.349 -0.2410  0.0750  0.0164
16003TIP3    H169500   4.523   1.046  17.394 -0.5494 -1.8092 -0.1269
16003TIP3    H269501   4.405   1.141  17.395  1.2937  0.5799  0.4395
16004TIP3   OH269502   1.198   6.125  16.163 -0.1489  0.5090  0.0135
16004TIP3    H169503   1.257   6.199  16.170 -0.0445  0.6543 -1.8038
16004TIP3    H269504   1.245   6.062  16.108 -2.4874  1.6465 -3.6612
16005TIP3   OH269505   3.395   0.544   5.221  0.1910 -0.6699 -0.2329
16005TIP3    H169506   3.331   0.508   5.283  0.1564 -2.6929 -1.3799
16005TIP3    H269507   3.342   0.582   5.151  0.2559  0.4895  0.3095
16006TIP3   OH269508   6.042   4.288   5.713  0.6039  0.6126 -0.0205
16006TIP3    H169509   5.961   4.327   5.678  0.3823  0.6942  0.5628
16006TIP3    H269510   6.037   4.196   5.687  2.0919  1.2785 -3.1757
16007TIP3   OH269511   6.615   6.214  11.773  0.2930 -0.1760  0.4952
16007TIP3    H169512   6.666   6.179  11.699 -0.5441  1.1205 -0.7569
16007TIP3    H269513   6.649   6.168  11.849  1.5504 -1.2098 -0.6286
16008TIP3   OH269514   3.992   6.369  13.417  0.2268 -0.0384  0.1172
16008TIP3    H169515   3.975   6.345  13.326  0.1639  0.3250  0.0298
16008TIP3    H269516   4.083   6.401  13.417  0.4222 -0.5770  0.2951
16009TIP3   OH269517   0.514   5.398   1.416 -0.0562 -0.0681  0.3246
16009TIP3    H169518   0.574   5.356   1.478 -0.7148  0.5547  1.3942
16009TIP3    H269519   0.455   5.328   1.388  0.6320 -0.4933 -0.1004
16010TIP3   OH269520   5.944   6.279  16.869 -0.4373 -0.3463  0.1655
16010TIP3    H169521   5.886   6.255  16.796  2.1726 -0.8792 -1.8590
16010TIP3    H269522   5.993   6.354  16.836 -0.3624  0.5034  2.0832
16011TIP3   OH269523   5.800   2.291  15.924  0.2430 -0.5418  0.0008
16011TIP3    H169524   5.812   2.290  15.829  2.8515 -0.8043  0.2625
16011TIP3    H269525   5.786   2.199  15.947  2.6811 -0.9492  0.1142
16012TIP3   OH269526   0.416   0.480   2.152  0.3762  0.4922  0.3954
16012TIP3    H169527   0.477   0.447   2.086  0.9005  1.2498  0.4908
16012TIP3    H269528   0.464   0.473   2.235 -0.3128 -0.5465  0.7279
16013TIP3   OH269529   3.612   1.555   5.671  0.0766 -0.3398 -0.1589
16013TIP3    H169530   3.631   1.636   5.624  4.6577 -1.6657 -1.1017
16013TIP3    H269531   3.578   1.496   5.604 -3.5593  0.6760  0.5874
16014TIP3   OH269532   0.868   4.153   5.547 -0.1625 -0.0742 -0.1998
16014TIP3    H169533   0.922   4.135   5.470 -1.3140 -0.0312 -1.0432
16014TIP3    H269534   0.920   4.121   5.621  0.6534 -0.8025 -1.0615
16015TIP3   OH269535   3.893   6.329   5.549 -0.8933  0.3231 -0.3417
16015TIP3    H169536   3.977   6.359   5.514 -0.4233  0.1045  0.5595
16015TIP3    H269537   3.828   6.359   5.486 -0.3187  2.1062 -0.1396
16016TIP3   OH269538   0.948   0.266   0.772  0.5035  0.3746 -0.2268
16016TIP3    H169539   0.904   0.344   0.805  1.2335  0.9549 -0.6079
16016TIP3    H269540   1.040   0.278   0.795  0.6996 -0.1483 -0.7176
16017TIP3   OH269541   5.312   4.350   2.761 -0.3340  0.0678  0.2896
16017TIP3    H169542   5.242   4.288   2.783 -0.1845 -1.0135 -1.9756
16017TIP3    H269543   5.377   4.338   2.829 -1.4556 -0.3703  1.3205
16018TIP3   OH269544   0.600   6.289   0.122 -0.2587 -0.2551 -0.1519
16018TIP3    H169545   0.682   6.251   0.155  0.4267 -0.3605 -1.8701
16018TIP3    H269546   0.624   6.331   0.040 -1.8262  0.2637 -0.3836
16019TIP3   OH269547   2.202   3.897  13.189 -0.3822  0.8830 -0.2330
16019TIP3    H169548   2.150   3.830  13.145  1.3778 -0.0468 -0.9834
16019TIP3    H269549   2.289   3.858  13.198  0.4194  2.6804  0.2332
16020TIP3   OH269550   1.689   5.520  13.451  0.3185 -0.1036 -0.4713
16020TIP3    H169551   1.643   5.559  13.525 -0.6884  0.8027 -1.5211
16020TIP3    H269552   1.743   5.592  13.417 -0.1174 -0.1614 -1.2990
16021TIP3   OH269553   5.395   4.379   5.397  0.1249 -0.4114  0.1004
16021TIP3    H169554   5.314   4.424   5.423  0.4082 -0.2365  0.6856
16021TIP3    H269555   5.434   4.437   5.331  0.6112  0.3436  1.0268
16022TIP3   OH269556   6.387   3.565   4.464 -0.5674 -0.4056 -0.0507
16022TIP3    H169557   6.456   3.499   4.454  0.5095  0.4612  1.2823
16022TIP3    H269558   6.395   3.620   4.386  0.2894 -0.2889  0.1080
16023TIP3   OH269559   2.088   2.739   5.966 -0.5600  0.0684  0.0039
16023TIP3    H169560   2.005   2.766   5.925 -0.0256  0.4819 -0.8500
16023TIP3    H269561   2.113   2.659   5.920 -1.0279 -0.6693  1.0150
16024TIP3   OH269562   1.802   0.508  13.885  0.2554 -0.2756  0.3303
16024TIP3    H169563   1.845   0.586  13.920  0.7012 -0.3009 -0.1501
16024TIP3    H269564   1.857   0.435  13.915 -0.9636 -0.5651  2.0530
16025TIP3   OH269565   3.426   6.466   0.577  0.1563 -0.0565  0.3346
16025TIP3    H169566   3.464   6.551   0.554 -0.0322  0.0486  0.4141
16025TIP3    H269567   3.350   6.457   0.520 -0.9233  0.6681  1.6091
16026TIP3   OH269568   0.008   2.233  16.251 -0.3554 -0.1958  0.2310
16026TIP3    H169569   0.093   2.189  16.246 -0.2600 -0.2302  1.7320
16026TIP3    H269570   0.003   2.266  16.341 -0.7935  2.1398 -0.5702
16027TIP3   OH269571   3.837   4.902   6.634  0.0144  0.1001  0.1350
16027TIP3    H169572   3.910   4.841   6.618  0.4831  0.6649  0.0974
16027TIP3    H269573   3.768   4.847   6.671  0.9750 -0.2042  1.5632
16028TIP3   OH269574   6.704   3.651  12.333  0.4293 -0.3236  0.1581
16028TIP3    H169575   6.670   3.724  12.385 -1.4212 -1.5119  0.7082
16028TIP3    H269576   6.795   3.644  12.360  0.4415  1.2800  0.6566
16029TIP3   OH269577   4.311   0.107   5.569 -0.1745  0.5390  0.7394
16029TIP3    H169578   4.354   0.053   5.635  1.1743  0.7869  0.0984
16029TIP3    H269579   4.301   0.192   5.611 -0.6308  0.3107  1.1087
16030TIP3   OH269580   4.683   2.795   5.852 -0.2555  0.0023  0.0492
16030TIP3    H169581   4.643   2.716   5.816  1.0667 -2.2978  3.1405
16030TIP3    H269582   4.650   2.801   5.942  1.9149  1.2234  0.8675
16031TIP3   OH269583   1.811   2.464  15.217 -0.5399  0.1563  0.3149
16031TIP3    H169584   1.888   2.473  15.162  0.0877 -0.5388  1.0399
16031TIP3    H269585   1.845   2.475  15.306 -1.8265  3.2079  0.5293
16032TIP3   OH269586   1.396   5.933  15.340  0.1477  0.5876  0.2081
16032TIP3    H169587   1.463   5.876  15.379  0.3659  1.8630  1.8177
16032TIP3    H269588   1.313   5.894  15.366  0.2949  1.2781  1.8240
16033TIP3   OH269589   1.209   5.616   2.278 -0.3595  0.1463  0.0228
16033TIP3    H169590   1.170   5.687   2.330 -1.7390 -2.1577  2.3514
16033TIP3    H269591   1.293   5.651   2.249  0.1346  1.9126  3.1656
16034TIP3   OH269592   2.739   3.733  14.103  0.0781 -0.5278 -0.2797
16034TIP3    H169593   2.674   3.747  14.172  0.4459  1.7943 -0.3479
16034TIP3    H269594   2.817   3.779  14.133  1.5696 -2.7612 -0.4848
16035TIP3   OH269595   1.119   4.491  13.159 -0.3486 -0.5089  0.1177
16035TIP3    H169596   1.110   4.416  13.099 -1.3800  0.4833 -1.0180
16035TIP3    H269597   1.179   4.460  13.226 -0.3286 -2.1851 -0.6102
16036TIP3   OH269598   4.432   0.478  15.749 -0.5774  0.8135 -0.3068
16036TIP3    H169599   4.355   0.421  15.750 -0.4061  0.5855  0.2310
16036TIP3    H269600   4.426   0.528  15.830 -1.7902  3.0344 -1.6638
16037TIP3   OH269601   5.981   5.136   2.565  0.6133 -0.5392  0.3388
16037TIP3    H169602   5.923   5.203   2.600  0.4865 -0.0605 -0.7684
16037TIP3    H269603   6.027   5.102   2.642 -1.0417 -0.8590  1.2196
16038TIP3   OH269604   4.968   4.616  11.515  0.1699  0.4928  0.1026
16038TIP3    H169605   5.041   4.619  11.453 -0.4710 -2.2306 -0.9277
16038TIP3    H269606   4.890   4.621  11.460 -0.4218 -0.2310  0.8653
16039TIP3   OH269607   0.742   4.188  11.859  0.4409  0.3908 -0.2274
16039TIP3    H169608   0.709   4.170  11.947  2.2705  0.0176  0.4307
16039TIP3    H269609   0.736   4.283  11.851  0.7289  0.4804  0.5084
16040TIP3   OH269610   0.577   4.510  14.512 -0.5250 -0.0790  0.0378
16040TIP3    H169611   0.593   4.461  14.431  0.6265  0.5754 -0.1506
16040TIP3    H269612   0.485   4.538  14.505 -1.0323 -1.6408 -0.1350
16041TIP3   OH269613   3.448   4.338  14.485 -0.0061  0.6533  0.1450
16041TIP3    H169614   3.483   4.251  14.466  0.1259  0.8536 -0.5487
16041TIP3    H269615   3.477   4.393  14.412 -0.0245  1.3002  0.6080
16042TIP3   OH269616   3.026   5.220   0.729 -0.7206  0.0732 -0.2644
16042TIP3    H169617   2.999   5.188   0.815  0.5630  0.0660  0.1564
16042TIP3    H269618   2.968   5.294   0.712 -0.6449  0.4184  0.8625
16043TIP3   OH269619   2.309   5.971  14.803  0.5579 -0.7055  0.0358
16043TIP3    H169620   2.304   5.901  14.737 -0.3573 -1.1116  0.5159
16043TIP3    H269621   2.227   5.964  14.851  0.4461  0.7245  0.0844
16044TIP3   OH269622   2.949   0.812  12.376 -0.3724  0.4905 -0.1457
16044TIP3    H169623   3.043   0.799  12.381 -0.4650  0.2335  1.5017
16044TIP3    H269624   2.937   0.906  12.394 -0.3792  0.8137 -1.6635
16045TIP3   OH269625   4.507   1.575  14.469  0.3998 -0.6342 -0.6912
16045TIP3    H169626   4.596   1.542  14.474  1.4783  2.0658 -0.2934
16045TIP3    H269627   4.470   1.559  14.556  1.8326  1.4559  0.3924
16046TIP3   OH269628   4.897   4.751   4.678  0.4987  0.0126  0.0685
16046TIP3    H169629   4.902   4.675   4.619 -1.3295 -0.1780  0.0979
16046TIP3    H269630   4.805   4.778   4.674  0.2254 -0.1465  2.9996
16047TIP3   OH269631   0.956   6.193  16.236  0.7139  0.5912  0.3017
16047TIP3    H169632   0.951   6.165  16.327  0.9965  1.8814  0.7388
16047TIP3    H269633   1.048   6.183  16.212  0.6840  0.4802  0.2318
16048TIP3   OH269634   1.317   4.888   4.407  0.6165 -0.1936  0.2638
16048TIP3    H169635   1.310   4.807   4.457 -0.4694 -2.0309 -2.5768
16048TIP3    H269636   1.409   4.891   4.379  0.1422 -2.0496 -1.8325
16049TIP3   OH269637   4.083   6.319  16.427  0.3723  0.4377  0.2402
16049TIP3    H169638   4.103   6.314  16.520 -1.4964 -0.6006  0.6423
16049TIP3    H269639   3.991   6.296  16.421  0.2620  1.1874 -1.8146
16050TIP3   OH269640   1.499   4.565   0.650  0.2689  0.0359 -0.9175
16050TIP3    H169641   1.568   4.601   0.707 -0.0364  0.5529 -0.8719
16050TIP3    H269642   1.482   4.634   0.587 -0.7170  0.1881 -0.4944
16051TIP3   OH269643   3.736   1.792  13.322  0.2821  0.1215  0.2497
16051TIP3    H169644   3.775   1.869  13.363 -2.2498  0.9566  1.2980
16051TIP3    H269645   3.685   1.750  13.392 -0.6059 -0.9392 -0.9714
16052TIP3   OH269646   6.336   1.932   2.942 -0.0876  0.3596  0.0682
16052TIP3    H169647   6.279   1.864   2.980 -0.4412  1.5069  1.6934
16052TIP3    H269648   6.420   1.921   2.987 -0.5576  1.8350  1.4129
16053TIP3   OH269649   4.522   5.101   2.804  0.2840 -0.1600 -0.0335
16053TIP3    H169650   4.521   5.005   2.802  0.6574 -0.1685  0.1806
16053TIP3    H269651   4.441   5.124   2.849  1.0640 -0.4209  1.5458
16054TIP3   OH269652   1.263   0.247  17.025 -0.4354 -0.3687 -0.2800
16054TIP3    H169653   1.254   0.246  16.929 -1.4468 -1.6399 -0.1924
16054TIP3    H269654   1.349   0.285  17.040 -1.2597  2.2726 -1.5931
16055TIP3   OH269655   2.003   4.192   2.317  0.3197  0.0563 -0.4086
16055TIP3    H169656   1.956   4.119   2.278  1.6736 -1.4793  0.7202
16055TIP3    H269657   1.935   4.256   2.339 -1.1657 -1.7603  0.5441
16056TIP3   OH269658   2.992   0.580   6.372 -0.3100 -0.2217 -0.4212
16056TIP3    H169659   2.908   0.626   6.382 -0.1151  0.0609 -0.0583
16056TIP3    H269660   2.967   0.489   6.353 -0.6986 -0.1632 -0.2036
16057TIP3   OH269661   4.654   0.486   5.894 -0.0100 -0.0421 -0.1739
16057TIP3    H169662   4.656   0.397   5.929 -0.6040  0.4572  1.2028
16057TIP3    H269663   4.704   0.538   5.957 -0.3349  0.7405 -0.5405
16058TIP3   OH269664   5.290   5.249   5.660  0.0840 -0.0724 -0.7039
16058TIP3    H169665   5.223   5.274   5.596  0.2308  1.7205 -0.2083
16058TIP3    H269666   5.242   5.243   5.743  0.1128 -1.2172 -0.7546
16059TIP3   OH269667   6.682   0.205   1.653  0.1451  0.7085  0.2722
16059TIP3    H169668   6.754   0.160   1.698 -0.2616 -1.3322 -0.9545
16059TIP3    H269669   6.712   0.214   1.563 -0.9817  0.1153 -0.1819
16060TIP3   OH269670   5.038   0.040   3.364  0.1696 -0.5230  0.2684
16060TIP3    H169671   5.012   0.028   3.456  0.7711 -1.2067  0.3623
16060TIP3    H269672   5.006  -0.039   3.320  3.1111 -2.0403  0.6332
16061TIP3   OH269673   2.690   1.840  17.022  0.0256  0.1257 -1.1324
16061TIP3    H169674   2.724   1.876  17.104  1.3463 -3.5454  0.1490
16061TIP3    H269675   2.686   1.915  16.962  0.1112  2.7441  1.9024
16062TIP3   OH269676   2.933   3.903  14.209  0.6438 -0.1295 -0.0882
16062TIP3    H169677   2.884   3.966  14.262  0.9770 -0.5730  0.7697
16062TIP3    H269678   3.022   3.939  14.205  1.1223 -1.0794  1.3539
16063TIP3   OH269679   4.525   2.419   0.089  0.4276 -0.2649 -0.7233
16063TIP3    H169680   4.527   2.453   0.000  2.5209  0.0394 -0.6102
16063TIP3    H269681   4.541   2.495   0.145 -2.7737 -0.0664  0.1443
16064TIP3   OH269682   0.305   2.970   0.612 -0.2680 -0.4242  0.0765
16064TIP3    H169683   0.376   2.990   0.551  0.7440 -0.0143  1.3278
16064TIP3    H269684   0.322   3.026   0.687 -1.1310 -1.3278  0.9847
16065TIP3   OH269685   2.269   4.791  14.340 -0.3151 -0.2774 -0.7645
16065TIP3    H169686   2.233   4.712  14.300 -0.0795 -0.2217 -1.0854
16065TIP3    H269687   2.256   4.859  14.275  2.2366 -0.6599 -1.7769
16066TIP3   OH269688   3.023   5.209  11.330 -0.2181  0.0159  0.6642
16066TIP3    H169689   3.012   5.151  11.255 -0.5521 -0.3569  0.9998
16066TIP3    H269690   3.061   5.289  11.293 -0.1412 -0.2602  0.1387
16067TIP3   OH269691   3.107   3.929  13.878 -0.9292 -0.3426  0.1076
16067TIP3    H169692   3.170   3.986  13.923 -1.7670  1.1441 -0.5172
16067TIP3    H269693   3.128   3.841  13.908  0.1223  0.3426  1.4775
16068TIP3   OH269694   3.747   5.661   5.837 -0.1783 -0.1303 -0.3006
16068TIP3    H169695   3.745   5.698   5.925  0.2115 -1.4624  0.2803
16068TIP3    H269696   3.711   5.731   5.782  1.0531  1.3454  0.6740
16069TIP3   OH269697   6.378   0.631   5.009 -0.4176 -0.2563 -0.0820
16069TIP3    H169698   6.449   0.567   5.007  1.4143  1.6938 -2.3238
16069TIP3    H269699   6.324   0.609   4.933 -2.3913 -1.7697  1.6433
16070TIP3   OH269700   4.250   3.650  12.832 -0.3661  0.2573 -0.8619
16070TIP3    H169701   4.186   3.615  12.893 -1.1228 -0.7164 -2.1476
16070TIP3    H269702   4.333   3.609  12.858 -0.3976  0.9016  0.3125
16071TIP3   OH269703   2.465   0.797  16.970 -0.1532 -0.3402  0.1522
16071TIP3    H169704   2.515   0.873  16.938  0.0927 -0.0731  1.1207
16071TIP3    H269705   2.531   0.735  16.999 -0.3621 -0.7980 -0.3392
16072TIP3   OH269706   2.610   5.244   3.862  0.1005  1.0546  0.3178
16072TIP3    H169707   2.694   5.241   3.909  0.1918  1.2766  0.1699
16072TIP3    H269708   2.634   5.238   3.769 -0.1617 -0.9971  0.3231
16073TIP3   OH269709   5.571   0.707  13.420 -0.7692  0.2176  0.1734
16073TIP3    H169710   5.513   0.640  13.455 -1.2924  1.8032  2.6343
16073TIP3    H269711   5.520   0.788  13.425  1.1969  1.4794  1.3123
16074TIP3   OH269712   5.472   6.555   6.218  0.1308 -0.0352  0.4189
16074TIP3    H169713   5.535   6.628   6.224 -0.8675  1.0596 -1.2663
16074TIP3    H269714   5.509   6.497   6.151 -0.5189  0.5330 -0.4651
16075TIP3   OH269715   1.773   6.266   5.113 -0.1009 -0.3697 -0.1073
16075TIP3    H169716   1.821   6.185   5.099 -0.0516 -0.6367  1.3848
16075TIP3    H269717   1.681   6.242   5.106 -0.0674 -0.1543 -1.5204
16076TIP3   OH269718   6.162   5.443   5.700 -0.2389  0.5884  0.2391
16076TIP3    H169719   6.255   5.444   5.725 -0.0226  2.7654 -0.4365
16076TIP3    H269720   6.163   5.428   5.605 -0.7892 -2.3091  0.6031
16077TIP3   OH269721   5.688   1.730  11.372  0.0502  0.6439 -0.3430
16077TIP3    H169722   5.598   1.724  11.342 -0.2009 -1.9636  0.7167
16077TIP3    H269723   5.689   1.686  11.456  2.1865  1.2792  0.0409
16078TIP3   OH269724   4.721   4.937  13.555 -0.9589 -0.6737 -0.1688
16078TIP3    H169725   4.664   4.898  13.489  0.0829  0.2090 -1.6740
16078TIP3    H269726   4.792   4.874  13.567 -1.2901 -0.9571  0.3312
16079TIP3   OH269727   5.693   1.858  15.037  0.7472 -0.0033  0.5138
16079TIP3    H169728   5.770   1.871  14.981  0.7882 -0.7831  0.3875
16079TIP3    H269729   5.643   1.789  14.994 -0.8606  1.5433 -0.2747
16080TIP3   OH269730   3.770   0.584  16.909  0.6262 -0.4702  0.8677
16080TIP3    H169731   3.741   0.545  16.991  1.1196 -2.2213  0.2638
16080TIP3    H269732   3.860   0.613  16.926 -0.1900  1.7972  1.7247
16081TIP3   OH269733   1.111   3.809  12.915  0.0483 -0.1557  0.6866
16081TIP3    H169734   1.180   3.832  12.854  1.0321 -0.0502  1.8014
16081TIP3    H269735   1.097   3.715  12.901 -0.4130  0.0553 -0.3423
16082TIP3   OH269736   3.074   0.932   5.714 -0.3641 -0.0763  0.1077
16082TIP3    H169737   3.141   0.951   5.780  0.2831 -2.5265  0.2317
16082TIP3    H269738   3.122   0.927   5.632 -1.1688  2.9445 -0.6982
16083TIP3   OH269739   0.435   1.044   4.840  0.2214  0.2141  0.1785
16083TIP3    H169740   0.496   1.057   4.913  1.8932  3.3685 -1.6051
16083TIP3    H269741   0.362   1.102   4.859 -0.4240 -0.6313  0.3628
16084TIP3   OH269742   3.354   2.441  11.077 -0.0575 -0.0336 -0.0160
16084TIP3    H169743   3.344   2.515  11.137  0.8017 -0.6860  0.9691
16084TIP3    H269744   3.289   2.456  11.009 -0.9965  0.7789  1.0304
16085TIP3   OH269745   2.571   1.730  14.660  0.2082 -0.1537 -0.2857
16085TIP3    H169746   2.546   1.730  14.567 -2.4652  2.4468  0.2521
16085TIP3    H269747   2.559   1.821  14.687 -1.6126 -1.2310  3.1656
16086TIP3   OH269748   6.029   1.991   3.196 -0.0967  0.5599  0.1921
16086TIP3    H169749   6.041   1.898   3.178  0.8570  0.6434  0.3275
16086TIP3    H269750   6.069   2.035   3.121 -1.9984  0.8767 -0.7025
16087TIP3   OH269751   5.447   3.723   0.183  0.3455  0.0799 -0.0849
16087TIP3    H169752   5.536   3.757   0.188  0.2273  0.3403  0.3608
16087TIP3    H269753   5.433   3.705   0.090  1.6360 -2.0297  0.0556
16088TIP3   OH269754   3.403   6.627   2.056 -0.6178 -0.6649 -0.8719
16088TIP3    H169755   3.397   6.625   1.961  0.9941  1.4140 -1.0969
16088TIP3    H269756   3.336   6.690   2.083 -0.6313 -0.7578 -0.6870
16089TIP3   OH269757   5.340   1.601  15.382 -1.0031 -0.2828  0.1325
16089TIP3    H169758   5.314   1.673  15.325 -0.6395  1.8617  2.5256
16089TIP3    H269759   5.421   1.568  15.344 -0.6617  1.2122 -0.4756
16090TIP3   OH269760   3.756   1.685   4.893 -0.1107 -0.6190  0.1469
16090TIP3    H169761   3.712   1.679   4.809  0.2398 -0.8880 -0.0209
16090TIP3    H269762   3.840   1.726   4.874  1.4617 -3.6747 -0.2468
16091TIP3   OH269763   5.476   3.197   2.522  0.0987  0.0141 -0.3156
16091TIP3    H169764   5.552   3.240   2.562  1.4690  0.0482 -2.7301
16091TIP3    H269765   5.423   3.269   2.488 -0.9124 -0.0244  1.1102
16092TIP3   OH269766   0.546   5.698   0.297  0.2404 -0.5904  0.4162
16092TIP3    H169767   0.451   5.687   0.301  0.1214  0.5345  1.1766
16092TIP3    H269768   0.581   5.610   0.308 -0.7049 -0.8686  1.3864
16093TIP3   OH269769   6.242   3.208   2.212  0.5252  0.3829  0.2567
16093TIP3    H169770   6.271   3.123   2.180  0.8103  1.1793 -1.7501
16093TIP3    H269771   6.297   3.272   2.165 -0.0548  1.6913  1.2846
16094TIP3   OH269772   2.008   0.052   4.740  0.3375  0.6034  0.3101
16094TIP3    H169773   1.922   0.092   4.755  0.2179  0.2787  0.4905
16094TIP3    H269774   2.050   0.052   4.826  0.4112  0.5143  0.2742
16095TIP3   OH269775   3.132   1.486   3.435  0.3409 -0.4762  0.1415
16095TIP3    H169776   3.091   1.449   3.357 -0.5564  1.3607 -0.3047
16095TIP3    H269777   3.207   1.429   3.451 -0.6606 -2.1467 -0.7914
16096TIP3   OH269778   1.907   4.682   2.032 -0.1354  0.1728 -0.3111
16096TIP3    H169779   1.864   4.765   2.052  0.0658  0.1932  0.0486
16096TIP3    H269780   1.927   4.688   1.939 -0.4875  0.3588 -0.3770
16097TIP3   OH269781   0.201   2.023   4.401  0.6929  0.2499  0.0046
16097TIP3    H169782   0.197   1.940   4.450 -0.2014  0.8155  0.9141
16097TIP3    H269783   0.229   1.997   4.313 -0.1661 -1.0931  0.0988
16098TIP3   OH269784   2.698   4.864  14.578  0.7706  0.2011 -0.2018
16098TIP3    H169785   2.633   4.834  14.515  0.2923 -1.6645  1.0862
16098TIP3    H269786   2.672   4.954  14.599 -0.9449 -0.2470 -0.2954
16099TIP3   OH269787   5.492   3.448   1.529  0.4381 -0.0521 -0.3071
16099TIP3    H169788   5.533   3.363   1.511 -1.7945 -0.9981 -1.3835
16099TIP3    H269789   5.409   3.445   1.481 -0.3337  2.2139  0.7346
16100TIP3   OH269790   1.744   1.885  12.280 -0.3734  0.0109  0.1071
16100TIP3    H169791   1.805   1.887  12.206  0.1041 -0.9258  0.4536
16100TIP3    H269792   1.703   1.971  12.280  1.4956  0.9374  0.3369
16101TIP3   OH269793   0.038   4.922  15.262  1.1100  0.1143 -0.3886
16101TIP3    H169794   0.088   4.852  15.221  1.0308 -0.4828  0.5003
16101TIP3    H269795  -0.001   4.970  15.189  0.9637 -0.9189 -1.0047
16102TIP3   OH269796   2.762   3.681   1.525  0.2449 -0.1804  0.2665
16102TIP3    H169797   2.773   3.742   1.452  1.6504  0.0077  0.6001
16102TIP3    H269798   2.829   3.707   1.588 -0.4387 -0.8290  1.2890
16103TIP3   OH269799   4.404   2.677   3.007 -0.0794 -0.0829 -0.4735
16103TIP3    H169800   4.463   2.747   2.979  0.1168 -0.0602 -0.0135
16103TIP3    H269801   4.334   2.676   2.942  0.1253  0.2812 -0.6969
16104TIP3   OH269802   3.439   4.468  13.736  0.2803  0.3875 -0.4074
16104TIP3    H169803   3.442   4.454  13.831 -0.5124 -1.1704 -0.5780
16104TIP3    H269804   3.518   4.518  13.716  1.2493 -0.5829  0.8698
16105TIP3   OH269805   0.698   5.484   3.185  0.0362  0.3154 -0.1237
16105TIP3    H169806   0.761   5.422   3.149  1.0480  0.0483  1.9339
16105TIP3    H269807   0.663   5.530   3.109  4.4225  2.1310 -1.3406
16106TIP3   OH269808   5.070   2.863   5.429 -0.4478  0.8379 -0.6612
16106TIP3    H169809   5.071   2.816   5.513 -0.1763  0.1050 -1.0642
16106TIP3    H269810   4.979   2.892   5.419 -0.4746  0.9773 -0.0957
16107TIP3   OH269811   1.437   1.315   5.260 -0.5026 -0.1974  0.0976
16107TIP3    H169812   1.503   1.282   5.321 -1.6024  0.3521  1.6414
16107TIP3    H269813   1.410   1.238   5.210  0.3552 -0.6745  0.3397
16108TIP3   OH269814   6.451   0.245   3.666 -0.3746  0.5621 -0.4166
16108TIP3    H169815   6.466   0.225   3.759  0.2310  0.1379 -0.5991
16108TIP3    H269816   6.438   0.159   3.625  2.8317  0.3830 -1.3121
16109TIP3   OH269817   4.164   3.491   0.492 -0.4369 -0.4689 -0.1604
16109TIP3    H169818   4.147   3.398   0.482  1.1770 -0.7182 -0.8523
16109TIP3    H269819   4.254   3.503   0.460 -0.2439  1.1432  0.8560
16110TIP3   OH269820   2.247   0.994  14.981 -0.4463  0.2070  0.1928
16110TIP3    H169821   2.333   1.020  15.015  0.6372 -1.1225 -1.3728
16110TIP3    H269822   2.255   0.901  14.964 -1.3170  0.5279 -2.3719
16111TIP3   OH269823   0.536   2.732  12.966 -0.3088  0.2018  0.1905
16111TIP3    H169824   0.451   2.774  12.963 -0.6555 -0.4575 -3.0426
16111TIP3    H269825   0.598   2.802  12.944 -0.2066  0.2763  0.7017
16112TIP3   OH269826   1.253   2.518   3.372 -0.5149  0.0553 -0.2042
16112TIP3    H169827   1.301   2.496   3.292  0.2353  0.6698  0.0572
16112TIP3    H269828   1.265   2.613   3.381 -0.8078  0.0301  0.4999
16113TIP3   OH269829   6.727   0.028  12.545  0.5382  0.1489 -0.4720
16113TIP3    H169830   6.661   0.005  12.481 -1.3274  0.8496  1.1081
16113TIP3    H269831   6.761   0.113  12.516  1.1176 -0.4333 -1.5439
16114TIP3   OH269832   4.716   4.801   0.841  0.0097  0.3999 -0.0245
16114TIP3    H169833   4.730   4.856   0.918  0.0029  0.6505 -0.1995
16114TIP3    H269834   4.621   4.806   0.825  0.1699  1.3299 -0.7659
16115TIP3   OH269835   5.443   1.896  13.093 -0.0111  0.1188  0.2494
16115TIP3    H169836   5.532   1.880  13.064 -0.1193 -1.4352  0.6913
16115TIP3    H269837   5.452   1.936  13.179  0.2526  1.1154 -0.2256
16116TIP3   OH269838   1.699   5.706  16.495 -0.3533  0.1070 -0.1560
16116TIP3    H169839   1.630   5.651  16.533 -1.0474 -0.2020 -1.7726
16116TIP3    H269840   1.681   5.793  16.529 -1.1231 -0.1009 -0.0022
16117TIP3   OH269841   4.131   5.501  17.225  0.0219 -0.0513  0.1345
16117TIP3    H169842   4.213   5.530  17.184 -0.0796 -0.0729 -0.0852
16117TIP3    H269843   4.103   5.426  17.173 -0.2580  0.1002  0.0641
16118TIP3   OH269844   1.500   5.342   5.720  0.2735  0.4853  1.1071
16118TIP3    H169845   1.578   5.287   5.731  0.1619  0.1960  0.4655
16118TIP3    H269846   1.535   5.428   5.695  0.3710  0.1928  0.1959
16119TIP3   OH269847   5.795   2.044  13.434  0.0106  0.3329 -0.3022
16119TIP3    H169848   5.837   2.052  13.349  0.7765 -1.3260 -0.1025
16119TIP3    H269849   5.856   2.085  13.495 -0.7352  1.9244 -0.5473
16120TIP3   OH269850   6.161   3.721   4.540 -0.1528  0.1243 -0.0360
16120TIP3    H169851   6.140   3.732   4.632  2.1588  1.0346  0.4517
16120TIP3    H269852   6.237   3.662   4.540 -0.2812 -0.0757 -1.3822
16121TIP3   OH269853   6.555   3.790  13.760 -0.1825 -0.4492  0.2061
16121TIP3    H169854   6.480   3.752  13.805 -0.0794 -0.2726  0.5286
16121TIP3    H269855   6.527   3.800  13.669  0.1927 -2.4628 -0.1914
16122TIP3   OH269856   2.567   4.649  11.608  0.6590  0.5573 -0.1625
16122TIP3    H169857   2.475   4.674  11.600  0.4856  0.0896  0.2597
16122TIP3    H269858   2.593   4.681  11.695  0.5840 -0.2373  0.1620
16123TIP3   OH269859   5.513   0.702   0.126 -0.1366 -0.7894  0.0919
16123TIP3    H169860   5.439   0.693   0.187 -0.0615 -1.9153  0.0502
16123TIP3    H269861   5.554   0.785   0.150 -0.6518 -0.7715  0.9745
16124TIP3   OH269862   2.775   3.314   6.140  0.3651 -0.4572 -0.7950
16124TIP3    H169863   2.747   3.222   6.140  1.8115 -0.9112 -0.5330
16124TIP3    H269864   2.800   3.332   6.230  0.6093  0.0374 -0.9585
16125TIP3   OH269865   3.962   6.093  15.939  0.3763  0.5820  0.2349
16125TIP3    H169866   3.943   6.091  15.846  2.0982  1.8369 -0.2065
16125TIP3    H269867   3.893   6.146  15.977 -0.3112  0.1004 -0.3252
16126TIP3   OH269868   3.760   5.263  16.922  0.0914  0.3288  0.1787
16126TIP3    H169869   3.809   5.344  16.933 -0.8602  1.1466 -1.2967
16126TIP3    H269870   3.763   5.245  16.828 -1.1225 -0.4308  0.2568
16127TIP3   OH269871   2.938   6.632   3.260  0.1978  0.4266 -0.0263
16127TIP3    H169872   2.885   6.578   3.318  0.1043  0.4504 -0.0885
16127TIP3    H269873   3.023   6.637   3.303  0.7342 -1.1359 -0.7982
16128TIP3   OH269874   5.964   0.607   5.814 -0.1233 -0.4704 -0.9002
16128TIP3    H169875   5.938   0.528   5.862  0.5171 -0.9816 -1.3859
16128TIP3    H269876   5.946   0.678   5.875  1.8984 -1.2003  0.6471
16129TIP3   OH269877   2.485   4.055   0.713  0.1702  0.3412  0.4739
16129TIP3    H169878   2.431   4.128   0.741  1.2805  1.1820  0.4845
16129TIP3    H269879   2.521   4.082   0.628 -0.4280 -0.7453 -0.1494
16130TIP3   OH269880   4.547   1.906  16.244  0.1446 -0.0450 -0.3881
16130TIP3    H169881   4.621   1.959  16.273 -0.5626  0.8754 -0.2331
16130TIP3    H269882   4.570   1.879  16.155 -0.3436  2.1994 -1.2515
16131TIP3   OH269883   1.285   2.058  13.082  0.3128  0.2249  0.1702
16131TIP3    H169884   1.345   2.123  13.119  0.9486 -0.6724  0.7605
16131TIP3    H269885   1.318   1.974  13.115 -1.0312 -0.3191  0.1708
16132TIP3   OH269886   2.983   5.714   4.224 -0.3533 -0.1258  0.0913
16132TIP3    H169887   2.934   5.786   4.184  0.0161  0.4844  0.7126
16132TIP3    H269888   3.014   5.750   4.307 -0.7291 -1.2200  0.7300
16133TIP3   OH269889   6.495   4.359  12.944 -0.0445 -0.0248  0.0703
16133TIP3    H169890   6.497   4.446  12.903  1.6983 -1.0953 -2.3744
16133TIP3    H269891   6.484   4.299  12.870  3.7015 -2.1556  1.0199
16134TIP3   OH269892   4.132   0.748   3.624  0.0953  0.1670 -0.2022
16134TIP3    H169893   4.149   0.838   3.597  0.3519  0.2404  0.2017
16134TIP3    H269894   4.206   0.725   3.680 -0.3233 -0.0508  0.2771
16135TIP3   OH269895   2.449   2.689  14.114 -0.0689  0.3322 -0.3726
16135TIP3    H169896   2.438   2.658  14.024 -0.4499 -1.2855  0.1846
16135TIP3    H269897   2.538   2.663  14.138 -0.1244  0.3477 -0.1417
16136TIP3   OH269898   6.208   2.788  13.493 -0.2802  0.1244  0.1310
16136TIP3    H169899   6.202   2.697  13.464  2.5794  0.5638 -2.3451
16136TIP3    H269900   6.152   2.836  13.431  0.4617  0.3063 -0.4217
16137TIP3   OH269901   2.017   5.704  16.014 -0.4317 -0.1943 -0.0366
16137TIP3    H169902   2.093   5.660  15.976 -1.1695 -1.5341  0.0066
16137TIP3    H269903   2.015   5.674  16.105 -1.5650 -0.9134 -0.2975
16138TIP3   OH269904   0.946   0.040  14.986 -0.4220 -0.2199 -0.1027
16138TIP3    H169905   0.866   0.053  15.036 -1.5246 -0.8113 -1.6245
16138TIP3    H269906   1.005   0.110  15.015 -1.7498  0.6738  0.5253
16139TIP3   OH269907   0.008   3.209   3.104  1.1628 -0.4080  0.4788
16139TIP3    H169908   0.028   3.295   3.067  0.8500 -0.9807 -1.0650
16139TIP3    H269909  -0.020   3.156   3.030 -1.6441 -0.9838  1.8257
16140TIP3   OH269910   3.218   5.084   1.121  0.3755 -0.6505  0.1841
16140TIP3    H169911   3.151   5.037   1.170 -0.2732  0.6680  0.6126
16140TIP3    H269912   3.171   5.156   1.078  1.2113 -0.7658 -0.9968
16141TIP3   OH269913   4.928   5.970   1.308 -0.1036 -0.0303 -0.6002
16141TIP3    H169914   4.982   5.902   1.268 -0.9199 -1.2647  0.3262
16141TIP3    H269915   4.969   6.052   1.281  1.8235 -0.9115 -0.4959
16142TIP3   OH269916   4.638   0.285   2.050 -0.2367  0.6156 -0.2964
16142TIP3    H169917   4.636   0.319   2.139 -0.7922  0.2641 -0.1703
16142TIP3    H269918   4.586   0.205   2.053  2.2823 -1.1035 -0.2541
16143TIP3   OH269919   4.903   2.544  14.455  0.8508  0.4872 -0.0792
16143TIP3    H169920   4.944   2.619  14.412  2.4096  0.3788  1.1181
16143TIP3    H269921   4.917   2.471  14.395  2.2235  0.5126  0.1798
16144TIP3   OH269922   0.036   4.564   4.751  0.3483 -0.3349  0.2811
16144TIP3    H169923  -0.027   4.631   4.726  2.0440  1.4941  0.6879
16144TIP3    H269924   0.089   4.550   4.673  0.1645 -1.0490  0.2755
16145TIP3   OH269925   6.418   1.162  13.168  0.0993 -0.2335 -0.1905
16145TIP3    H169926   6.361   1.088  13.147 -0.8340 -0.2047  2.0307
16145TIP3    H269927   6.363   1.239  13.155  0.3022 -0.0699 -0.0847
16146TIP3   OH269928   6.323   5.682  14.790 -0.0938 -0.6153 -0.0456
16146TIP3    H169929   6.375   5.612  14.830  0.1963 -0.3235  0.0850
16146TIP3    H269930   6.285   5.641  14.711 -0.4562 -1.1109  0.3772
16147TIP3   OH269931   3.640   3.560  16.777 -0.1657  0.2128 -0.4933
16147TIP3    H169932   3.706   3.513  16.727  0.4797 -0.0692  0.5919
16147TIP3    H269933   3.689   3.608  16.843 -1.0928 -1.8597  1.8917
16148TIP3   OH269934   6.335   1.958  12.923 -0.0785  0.3250  0.0224
16148TIP3    H169935   6.259   2.009  12.951 -0.9293 -0.5677 -0.5761
16148TIP3    H269936   6.396   2.023  12.888  0.2545  1.2643  2.1785
16149TIP3   OH269937   0.243   4.484  16.811 -0.0551 -0.4820  0.1505
16149TIP3    H169938   0.154   4.466  16.782 -0.3742  0.3581  0.5829
16149TIP3    H269939   0.263   4.571  16.776  0.3257 -0.3511  0.6751
16150TIP3   OH269940   4.989   1.536  12.871  0.2662 -0.0548  0.3803
16150TIP3    H169941   4.972   1.630  12.877 -2.3085 -0.4031 -0.2450
16150TIP3    H269942   4.943   1.499  12.945 -0.2711 -0.9575 -0.3826
16151TIP3   OH269943   0.759   5.216  11.781 -0.0073  0.0400 -0.2123
16151TIP3    H169944   0.793   5.208  11.870 -2.3675 -1.7646  0.6447
16151TIP3    H269945   0.791   5.301  11.750  1.5107  0.3791  2.0438
16152TIP3   OH269946   0.442   5.211  14.223 -0.0795  0.3563 -0.3094
16152TIP3    H169947   0.377   5.161  14.174  1.2553 -0.9625 -0.8014
16152TIP3    H269948   0.444   5.297  14.180 -0.5305 -0.0314 -1.1173
16153TIP3   OH269949   4.506   5.144  16.705 -0.3358  0.0518 -0.4526
16153TIP3    H169950   4.568   5.172  16.772 -0.3784  0.6764 -0.6709
16153TIP3    H269951   4.503   5.048  16.713  0.8662 -0.0133 -0.6241
16154TIP3   OH269952   5.223   5.263  10.965 -0.1618 -0.2343 -0.0879
16154TIP3    H169953   5.295   5.304  11.013 -1.8669  1.4314  1.1913
16154TIP3    H269954   5.203   5.324  10.895 -0.8140 -0.2886  0.0394
16155TIP3   OH269955   4.355   4.462   0.943 -0.0102 -0.2941  1.1781
16155TIP3    H169956   4.269   4.421   0.950 -0.7379  0.9265 -0.2026
16155TIP3    H269957   4.363   4.515   1.023 -0.3157 -0.7871  1.5427
16156TIP3   OH269958   1.440   1.170   2.718  0.0843 -0.0799 -0.2781
16156TIP3    H169959   1.423   1.197   2.628 -0.8595  1.5972  0.3618
16156TIP3    H269960   1.407   1.081   2.723  0.7476 -0.4448 -1.7493
16157TIP3   OH269961   3.924   1.112  13.242  0.0615  0.2544  0.0418
16157TIP3    H169962   3.985   1.066  13.299 -0.1811  0.0352  0.1312
16157TIP3    H269963   3.965   1.197  13.225  0.3146  0.1694  0.2253
16158TIP3   OH269964   0.932   1.436  12.431  0.3678 -0.2938 -0.2673
16158TIP3    H169965   0.953   1.432  12.524 -2.1667 -1.1809  0.3472
16158TIP3    H269966   0.935   1.529  12.410 -0.0445  0.0237  0.9843
16159TIP3   OH269967   3.945   1.980  11.959  0.3400  0.1560 -0.2105
16159TIP3    H169968   3.858   1.943  11.946 -1.0609  3.0672 -0.0151
16159TIP3    H269969   3.954   1.991  12.053  1.3074 -0.8702 -0.1584
16160TIP3   OH269970   0.812   1.741  17.354  0.3435  0.4868  0.1258
16160TIP3    H169971   0.793   1.809  17.419  0.5692  1.1397 -0.4845
16160TIP3    H269972   0.733   1.736  17.300  0.5154  0.6080 -0.1363
16161TIP3   OH269973   0.461   3.395  13.894 -0.0015 -0.2715 -0.3275
16161TIP3    H169974   0.506   3.374  13.812 -1.3015 -2.6717 -0.5137
16161TIP3    H269975   0.430   3.484  13.882  1.3613  0.0644 -1.7143
16162TIP3   OH269976   0.350   6.757  15.496  0.3806 -1.0169  0.3611
16162TIP3    H169977   0.290   6.684  15.485 -0.8724 -0.1332  1.0306
16162TIP3    H269978   0.327   6.795  15.581  0.5427  0.5525 -0.2606
16163TIP3   OH269979   6.454   3.812  13.477  0.3767 -0.5855  0.0326
16163TIP3    H169980   6.478   3.842  13.389  1.3029 -1.3351  0.0150
16163TIP3    H269981   6.372   3.764  13.464 -0.0181  0.1304 -0.2515
16164TIP3   OH269982   4.106   6.608  13.575 -0.1949 -0.0991  0.1784
16164TIP3    H169983   4.184   6.633  13.527  0.4955  0.0387  1.3370
16164TIP3    H269984   4.043   6.583  13.508  0.7657  0.0087 -0.7795
16165TIP3   OH269985   5.103   1.339   4.606 -0.8975  0.1502  0.1842
16165TIP3    H169986   5.078   1.431   4.617  0.7442  0.5678  0.7868
16165TIP3    H269987   5.093   1.301   4.693 -2.9035 -0.6566 -0.3326
16166TIP3   OH269988   5.275   0.630  13.114  0.2514 -0.2269  0.2198
16166TIP3    H169989   5.192   0.587  13.092  0.3114 -1.9395  2.8537
16166TIP3    H269990   5.342   0.577  13.069  0.0497 -0.1400 -0.1861
16167TIP3   OH269991   0.402   6.341   3.307  0.1201  0.5431  0.5103
16167TIP3    H169992   0.459   6.271   3.339 -1.0663 -1.9576 -2.3947
16167TIP3    H269993   0.313   6.305   3.315 -0.5648  1.8639 -0.7254
16168TIP3   OH269994   2.479   5.231   2.779  0.1096 -0.0168 -0.7905
16168TIP3    H169995   2.461   5.250   2.871  1.2856 -0.0321 -0.5411
16168TIP3    H269996   2.400   5.260   2.733 -0.2572  0.5498  0.1518
16169TIP3   OH269997   5.775   2.018   0.176  0.0983  0.0885 -0.4282
16169TIP3    H169998   5.820   1.952   0.124 -2.1204  0.2754 -2.7619
16169TIP3    H269999   5.774   2.096   0.121 -0.8928  0.8274  0.5910
16170TIP3   OH270000   2.109   4.867  12.125 -0.2061 -0.3794  0.3098
16170TIP3    H170001   2.054   4.932  12.168 -0.8916 -0.1650 -0.8293
16170TIP3    H270002   2.077   4.865  12.034  2.0020  0.1335 -0.5410
16171TIP3   OH270003   3.938   5.632   1.306  0.0702  0.8115 -0.1785
16171TIP3    H170004   3.897   5.545   1.300  2.7680 -0.5395 -0.4479
16171TIP3    H270005   3.869   5.688   1.344 -1.4559 -1.6449  0.9523
16172TIP3   OH270006   5.688   5.121   1.946 -0.2189  0.0433 -0.2814
16172TIP3    H170007   5.685   5.095   1.854  0.4681  0.6866 -0.5003
16172TIP3    H270008   5.748   5.059   1.987  0.1821  0.3044 -0.4659
16173TIP3   OH270009   4.455   3.577   3.446 -0.2065  0.6291  0.0861
16173TIP3    H170010   4.363   3.603   3.436  0.0138  1.1924 -0.5362
16173TIP3    H270011   4.500   3.621   3.375  0.4538 -0.1626  0.0047
16174TIP3   OH270012   5.281   6.084  17.271 -0.3628 -0.7580  0.0165
16174TIP3    H170013   5.324   6.069  17.187  1.5950 -0.4984  0.9237
16174TIP3    H270014   5.343   6.051  17.336 -2.4564 -2.3670  1.3435
16175TIP3   OH270015   6.531   5.180   3.547  0.7339 -0.4956  0.6757
16175TIP3    H170016   6.515   5.261   3.499  0.4674 -0.2369  1.1953
16175TIP3    H270017   6.600   5.136   3.497  1.9727  0.7630  1.2022
16176TIP3   OH270018   5.917   3.377   5.662 -0.1014  0.6108 -0.5131
16176TIP3    H170019   5.906   3.303   5.722  1.3923  0.0695 -0.8855
16176TIP3    H270020   5.889   3.453   5.714 -0.3362 -0.0382  0.3379
16177TIP3   OH270021   3.614   3.110   6.371  0.2001 -0.5245  0.2093
16177TIP3    H170022   3.663   3.069   6.442 -1.1015  0.8462  1.9826
16177TIP3    H270023   3.544   3.159   6.415 -0.9834 -0.0500 -2.0531
16178TIP3   OH270024   4.980   4.671  12.083 -0.0084  0.0439  0.0987
16178TIP3    H170025   5.010   4.633  12.001  1.1800  1.8389 -0.3530
16178TIP3    H270026   5.005   4.606  12.149  0.1002 -0.8813 -0.8237
16179TIP3   OH270027   1.522   1.576   3.576 -0.5675  0.0759 -0.4744
16179TIP3    H170028   1.572   1.546   3.652 -1.0534 -1.8046 -0.8464
16179TIP3    H270029   1.587   1.623   3.523 -0.3933  2.0818  1.3982
16180TIP3   OH270030   4.609   3.628  16.429  0.0608 -1.1542  0.4203
16180TIP3    H170031   4.598   3.712  16.386 -1.8104 -1.1607  0.7882
16180TIP3    H270032   4.698   3.600  16.407  0.0482  0.0336 -1.2696
16181TIP3   OH270033   2.063   4.124  11.976  0.7423 -0.1757  0.8316
16181TIP3    H170034   2.055   4.149  11.884  1.6331 -1.8016  0.2735
16181TIP3    H270035   2.149   4.157  12.002  1.0220 -0.7744  0.6971
16182TIP3   OH270036   1.968   4.347  16.625  0.0124 -0.0131 -0.5507
16182TIP3    H170037   2.017   4.396  16.559  2.3976 -0.9191  0.4125
16182TIP3    H270038   1.980   4.255  16.601 -2.1439 -0.2651 -0.8346
16183TIP3   OH270039   2.234   3.396  17.042 -0.0516  0.0053  0.3097
16183TIP3    H170040   2.255   3.309  17.076  0.4574 -0.6153 -1.5066
16183TIP3    H270041   2.143   3.410  17.068 -0.7560 -1.8916 -0.9276
16184TIP3   OH270042   5.783   0.572   0.505  0.0642  0.6612 -0.0566
16184TIP3    H170043   5.774   0.487   0.463  2.8082  0.7339 -1.0326
16184TIP3    H270044   5.780   0.635   0.433  1.0239  1.1010  0.2614
16185TIP3   OH270045   3.957   1.690  11.609 -0.5034 -0.4328 -0.0806
16185TIP3    H170046   3.946   1.772  11.656  0.1679 -1.2058  1.5119
16185TIP3    H270047   4.010   1.636  11.667  2.2482 -0.7188 -2.5900
16186TIP3   OH270048   4.554   4.059   1.435  0.0964  0.0595  0.2664
16186TIP3    H170049   4.616   3.989   1.454  0.2846  0.3454  0.7110
16186TIP3    H270050   4.520   4.038   1.348 -1.1077 -1.5167  1.0627
16187TIP3   OH270051   3.575   1.868   0.102  0.1782  0.2887 -0.1440
16187TIP3    H170052   3.569   1.927   0.177 -1.2308  1.6899 -1.3003
16187TIP3    H270053   3.514   1.797   0.123 -0.1760  0.6493  0.0732
16188TIP3   OH270054   6.414   5.780   5.035 -0.1358 -0.1812  0.4325
16188TIP3    H170055   6.482   5.748   5.095  0.5446 -0.8859 -0.6701
16188TIP3    H270056   6.332   5.756   5.076  0.3115 -0.3930  1.2261
16189TIP3   OH270057   1.910   5.979   3.421 -0.2306  0.0556 -0.1375
16189TIP3    H170058   1.858   5.905   3.392  0.2267  0.3343 -1.7616
16189TIP3    H270059   2.001   5.949   3.415 -0.0884  0.3770  0.3099
16190TIP3   OH270060   3.990   1.793   5.713  0.1274  0.5793  0.1739
16190TIP3    H170061   3.960   1.706   5.687 -1.7317  0.6683  1.7889
16190TIP3    H270062   4.078   1.779   5.749 -0.5765 -0.8475  1.4369
16191TIP3   OH270063   2.978   3.047   4.355 -0.4355  0.1698  0.4976
16191TIP3    H170064   2.939   3.052   4.442  0.0544  1.1659  0.6858
16191TIP3    H270065   2.920   3.100   4.300  0.1854  1.0086  0.6150
16192TIP3   OH270066   1.459   5.026   3.875  0.4791  0.0468 -0.3507
16192TIP3    H170067   1.444   5.119   3.894  1.4812 -0.0421  1.1122
16192TIP3    H270068   1.551   5.011   3.900 -0.0087 -1.5999  0.6228
16193TIP3   OH270069   5.383   5.070   5.251 -0.2386 -0.2575 -0.2421
16193TIP3    H170070   5.416   5.118   5.176 -2.6963  0.5580 -0.9072
16193TIP3    H270071   5.290   5.091   5.253 -0.7048 -2.1860  1.6010
16194TIP3   OH270072   0.008   1.543  16.420  0.1488  0.4288  0.2431
16194TIP3    H170073   0.004   1.635  16.395 -1.2035  0.2928 -0.1211
16194TIP3    H270074  -0.028   1.540  16.508 -0.2890  0.1855  0.0579
16195TIP3   OH270075   0.180   3.604   3.346 -0.0122 -0.3064 -0.0266
16195TIP3    H170076   0.096   3.559   3.359 -1.2590  2.3756  2.0622
16195TIP3    H270077   0.172   3.646   3.261 -0.4924 -0.5895 -0.1258
16196TIP3   OH270078   5.296   2.465  13.401 -0.4182 -0.0019  0.3219
16196TIP3    H170079   5.375   2.437  13.448 -0.2114  0.9230  0.5422
16196TIP3    H270080   5.329   2.508  13.322 -0.7283 -0.2764  0.0410
16197TIP3   OH270081   3.895   3.095  12.328  0.2533 -0.3403  0.0735
16197TIP3    H170082   3.837   3.104  12.404  0.0474 -0.8871 -0.0131
16197TIP3    H270083   3.967   3.155  12.345 -0.7421  0.9659 -0.1946
16198TIP3   OH270084   1.495   3.357  14.567 -0.3591 -0.0016  0.0484
16198TIP3    H170085   1.555   3.299  14.614 -0.0526  1.0079  0.9328
16198TIP3    H270086   1.412   3.309  14.565 -0.4661  0.0350  1.8962
16199TIP3   OH270087   5.984   5.624  10.970 -0.8758  0.3780  0.2883
16199TIP3    H170088   5.941   5.679  10.905 -0.2178  0.2541 -0.2671
16199TIP3    H270089   6.006   5.684  11.042 -1.3906  0.5623  0.2964
16200TIP3   OH270090   6.153   6.380  11.126 -0.3132  0.1606 -0.8441
16200TIP3    H170091   6.176   6.463  11.084 -1.8718  0.8396 -0.4474
16200TIP3    H270092   6.228   6.323  11.109  3.0251  2.9407  2.8029
16201TIP3   OH270093   5.261   3.391   3.125 -0.3029 -0.3761  0.1436
16201TIP3    H170094   5.212   3.442   3.060  0.6643  0.7066  0.2302
16201TIP3    H270095   5.245   3.435   3.208  0.6955 -0.0763  0.1930
16202TIP3   OH270096   3.872   1.072  15.325 -0.3542 -0.5657 -0.6777
16202TIP3    H170097   3.815   1.144  15.350 -1.2447 -1.2892 -0.5686
16202TIP3    H270098   3.940   1.071  15.392 -0.3308  0.1660 -0.6827
16203TIP3   OH270099   5.911   6.772  15.960  0.1500  0.3239  0.3372
16203TIP3    H170100   5.816   6.762  15.952  0.2806 -0.9859  0.2189
16203TIP3    H270101   5.947   6.698  15.912  1.2492  1.0414  0.0304
16204TIP3   OH270102   6.362   4.348  11.695 -0.3594  0.5917  0.1934
16204TIP3    H170103   6.351   4.254  11.677 -1.0440  0.7545 -0.2847
16204TIP3    H270104   6.275   4.377  11.722 -0.2020  1.1337  0.1244
16205TIP3   OH270105   0.622   4.812   1.429  0.4440 -0.8991 -0.0323
16205TIP3    H170106   0.636   4.817   1.523 -0.9275  1.3300  0.1428
16205TIP3    H270107   0.662   4.893   1.395  0.3449 -1.3495 -1.2655
16206TIP3   OH270108   3.426   6.713   4.159  0.2269  0.1179 -0.1696
16206TIP3    H170109   3.359   6.685   4.096 -2.1019 -1.8182  2.8713
16206TIP3    H270110   3.451   6.632   4.204  1.7726  1.4148  1.4291
16207TIP3   OH270111   3.401   0.429  12.326  0.0413 -0.4944  0.4399
16207TIP3    H170112   3.490   0.463  12.312 -0.2215 -0.1810 -0.5459
16207TIP3    H270113   3.408   0.377  12.406  1.6358 -2.2450 -0.7403
16208TIP3   OH270114   4.193   4.956   0.769  0.4969 -0.3576  0.0884
16208TIP3    H170115   4.131   4.997   0.710  1.0234  2.6043  1.3812
16208TIP3    H270116   4.258   4.915   0.712 -1.3760 -1.5945 -1.2689
16209TIP3   OH270117   6.009   6.510   5.289 -0.2811  0.4102 -0.9336
16209TIP3    H170118   6.061   6.548   5.359 -0.7102  3.4187 -2.1052
16209TIP3    H270119   5.944   6.456   5.334 -2.3854  4.4327  1.3323
16210TIP3   OH270120   2.595   0.539  17.291  0.2053 -0.0252  0.7126
16210TIP3    H170121   2.614   0.622  17.248  0.2952  0.0367  0.8712
16210TIP3    H270122   2.502   0.523  17.272  0.5416 -0.6120 -0.5415
16211TIP3   OH270123   3.087   5.367   0.354 -0.3382 -0.0074  0.1110
16211TIP3    H170124   3.120   5.346   0.266  0.6243 -1.8131  0.8502
16211TIP3    H270125   3.162   5.407   0.398  0.2175 -2.0063  1.0728
16212TIP3   OH270126   0.080   2.519   2.352 -0.1087  0.5666 -0.8025
16212TIP3    H170127   0.067   2.485   2.263 -0.2620  1.3193 -1.0754
16212TIP3    H270128   0.174   2.529   2.360 -0.1332  1.1104 -1.1236
16213TIP3   OH270129   2.376   1.564   3.034 -0.3026  0.1920  0.0029
16213TIP3    H170130   2.446   1.499   3.026 -0.3244  0.1341  0.2766
16213TIP3    H270131   2.405   1.621   3.105  0.0824  0.9449 -0.7314
16214TIP3   OH270132   1.084   2.501  12.517  0.0112  0.0216 -0.4120
16214TIP3    H170133   1.154   2.451  12.558  1.1163  2.2637  0.6091
16214TIP3    H270134   1.061   2.568  12.581 -0.7364  1.4164 -2.0544
16215TIP3   OH270135   4.047   4.058  10.307  0.2700 -0.1335  0.2321
16215TIP3    H170136   4.130   4.106  10.302 -0.0818  0.4177 -0.7483
16215TIP3    H270137   3.982   4.124  10.331 -0.5125  0.3562 -2.8139
16216TIP3   OH270138   2.606   6.471   3.657 -0.5766  0.4538 -0.3020
16216TIP3    H170139   2.530   6.419   3.629 -0.0015 -0.6547  0.1262
16216TIP3    H270140   2.587   6.559   3.626 -1.6056  0.0041 -1.0271
16217TIP3   OH270141   2.846   2.991  14.410  0.1234 -0.0078  0.5864
16217TIP3    H170142   2.927   3.031  14.379 -0.5030  1.3090  0.5725
16217TIP3    H270143   2.787   3.066  14.426 -0.8196 -0.8831  1.3380
16218TIP3   OH270144   2.288   5.845  14.090 -0.0610 -0.0490  0.0945
16218TIP3    H170145   2.286   5.838  14.185  1.8616  0.0451  0.1760
16218TIP3    H270146   2.337   5.924  14.073 -0.8967  0.2619 -1.0021
16219TIP3   OH270147   3.276   4.241  12.736  0.5788  0.0523  0.2978
16219TIP3    H170148   3.219   4.168  12.760  3.2221 -1.9026  1.2091
16219TIP3    H270149   3.275   4.298  12.814  1.1613 -0.8871  1.0199
16220TIP3   OH270150   0.372   2.303  16.088  0.3107 -0.7984 -0.0992
16220TIP3    H170151   0.441   2.327  16.026 -1.4037 -0.6130 -2.0294
16220TIP3    H270152   0.384   2.210  16.103  2.6418 -0.2948  1.8342
16221TIP3   OH270153   5.572   2.459  16.090  0.0640  0.3083 -0.2604
16221TIP3    H170154   5.577   2.552  16.066 -1.2645  0.6156  0.5577
16221TIP3    H270155   5.663   2.433  16.105  0.5559  1.1908 -1.5075
16222TIP3   OH270156   1.794   5.703   3.354  0.5623 -0.0223  0.1310
16222TIP3    H170157   1.870   5.693   3.296 -0.0580 -2.5724 -0.3830
16222TIP3    H270158   1.720   5.715   3.295  0.2655  0.0856  0.5200
16223TIP3   OH270159   0.869   4.546  10.399  0.1354 -0.3845  0.3990
16223TIP3    H170160   0.930   4.619  10.388 -0.8805  0.3879 -0.3887
16223TIP3    H270161   0.786   4.588  10.423 -0.5420 -1.2509 -0.3621
16224TIP3   OH270162   5.990   4.362  16.298 -0.2623  0.2792 -0.0130
16224TIP3    H170163   6.055   4.325  16.358  0.8583  0.6574 -0.9593
16224TIP3    H270164   5.913   4.377  16.353  0.2282 -0.7503  1.0083
16225TIP3   OH270165   2.001   1.453   0.564  0.1234  0.7883 -0.2011
16225TIP3    H170166   1.969   1.518   0.501  1.3424  0.2397 -1.4336
16225TIP3    H270167   2.073   1.409   0.519 -0.4091 -1.1634  0.7644
16226TIP3   OH270168   5.438   0.843   3.042  0.1624 -0.3719 -0.7131
16226TIP3    H170169   5.448   0.938   3.047 -1.4218 -0.2263  0.8126
16226TIP3    H270170   5.507   0.809   3.099  0.6677 -0.1282 -1.1791
16227TIP3   OH270171   2.372   6.495   0.344 -0.1858  0.4011 -0.3818
16227TIP3    H170172   2.303   6.559   0.361 -0.0400  0.4501  0.0305
16227TIP3    H270173   2.329   6.426   0.292 -0.5200  0.4746 -0.2046
16228TIP3   OH270174   0.404   2.071   1.611  0.4005 -0.1509  0.4180
16228TIP3    H170175   0.452   2.130   1.552 -0.3829  1.0101  0.8941
16228TIP3    H270176   0.427   1.983   1.581 -1.0595  0.3416 -2.5818
16229TIP3   OH270177   5.113   1.695  16.393  0.5429  0.7063  0.5173
16229TIP3    H170178   5.058   1.708  16.316 -0.4561 -0.4870  0.9879
16229TIP3    H270179   5.150   1.607  16.381  1.4328  1.0347  0.7753
16230TIP3   OH270180   4.548   4.628   3.144 -0.2497  0.3086 -0.4409
16230TIP3    H170181   4.535   4.592   3.057  1.3342 -1.1000 -0.1557
16230TIP3    H270182   4.577   4.718   3.129 -0.9477  0.3933 -1.3277
16231TIP3   OH270183   6.260   1.549  13.328  0.5357 -0.7049  0.6468
16231TIP3    H170184   6.199   1.621  13.342 -0.0735 -1.2096  0.5932
16231TIP3    H270185   6.317   1.550  13.405  0.5236 -0.1751  0.6490
16232TIP3   OH270186   3.474   3.412   5.685 -0.4659  0.2756 -0.2322
16232TIP3    H170187   3.449   3.326   5.651  2.2738  0.3595 -2.8932
16232TIP3    H270188   3.447   3.474   5.617  0.3836  1.1354  0.1774
16233TIP3   OH270189   4.979   0.914   0.584 -0.0169 -0.4148 -0.2635
16233TIP3    H170190   4.913   0.976   0.613  0.5811 -0.0670  0.3943
16233TIP3    H270191   4.955   0.831   0.625 -1.1021 -0.7617 -1.5452
16234TIP3   OH270192   6.692   0.853   3.271 -0.4937 -0.0094  0.2495
16234TIP3    H170193   6.745   0.795   3.325  0.9498  1.6158  0.6886
16234TIP3    H270194   6.756   0.903   3.220 -1.7494 -0.1375 -1.5592
16235TIP3   OH270195   2.390   1.488  12.604 -0.1892 -0.4372  0.2225
16235TIP3    H170196   2.417   1.396  12.613  0.7456 -0.1364  0.5308
16235TIP3    H270197   2.472   1.537  12.603 -0.7271  0.5309  1.5532
16236TIP3   OH270198   2.810   1.361  11.641  0.7086 -0.0127 -0.0207
16236TIP3    H170199   2.788   1.321  11.557  0.2875 -0.3136  0.2324
16236TIP3    H270200   2.843   1.448  11.618  2.1273 -0.6735 -0.6236
16237TIP3   OH270201   2.762   5.260  12.855  0.4429 -0.1743  0.2207
16237TIP3    H170202   2.784   5.224  12.769 -2.1749  0.4807 -0.8313
16237TIP3    H270203   2.742   5.183  12.908  1.3488 -0.5547  0.0282
16238TIP3   OH270204   6.156   1.643  14.448 -0.1203 -0.0301  0.1713
16238TIP3    H170205   6.216   1.695  14.501 -0.5092  0.7729 -0.1571
16238TIP3    H270206   6.211   1.576  14.408  0.6406  0.9312 -0.4335
16239TIP3   OH270207   2.887   3.534  17.258 -0.2054 -0.3690  0.1918
16239TIP3    H170208   2.981   3.533  17.274 -0.4404 -3.0030  1.9145
16239TIP3    H270209   2.849   3.561  17.341 -1.0179 -0.3183 -0.1892
16240TIP3   OH270210   0.145   4.841   4.409  0.2462  1.0356 -0.4026
16240TIP3    H170211   0.173   4.799   4.490  3.4152  2.2202 -0.7480
16240TIP3    H270212   0.133   4.768   4.348 -3.8657 -0.0651  1.3286
16241TIP3   OH270213   1.645   5.174   0.861  0.0542  0.0675 -0.1116
16241TIP3    H170214   1.726   5.224   0.860  0.0618  0.0521 -0.3923
16241TIP3    H270215   1.672   5.084   0.845  0.5184 -0.7811  4.2044
16242TIP3   OH270216   5.950   4.764   0.638  0.1331 -0.5598 -0.0792
16242TIP3    H170217   5.964   4.671   0.617  1.5299 -0.5539  0.7277
16242TIP3    H270218   5.862   4.782   0.607 -0.6475 -2.4881  0.8429
16243TIP3   OH270219   0.249   1.388   2.544  0.0421  0.0583  0.6173
16243TIP3    H170220   0.263   1.479   2.571 -0.6035  0.3311  0.0738
16243TIP3    H270221   0.300   1.336   2.606  0.4100  0.7915  0.9409
16244TIP3   OH270222   4.427   6.788   2.982  0.6452  0.3236 -0.2020
16244TIP3    H170223   4.342   6.789   3.026 -0.5648  0.5074 -2.3965
16244TIP3    H270224   4.485   6.739   3.041 -1.4264 -1.3371  0.5603
16245TIP3   OH270225   3.175   0.466  12.206  0.5310  0.1230  0.2541
16245TIP3    H170226   3.250   0.440  12.260  0.4428  0.8581  0.7507
16245TIP3    H270227   3.192   0.558  12.186 -0.2654  0.3072  0.4162
16246TIP3   OH270228   2.234   6.296   5.541  0.0558 -0.0649  0.1545
16246TIP3    H170229   2.204   6.386   5.528  1.6087  0.2100 -1.9962
16246TIP3    H270230   2.303   6.303   5.607 -1.1192  0.0060  1.4129
16247TIP3   OH270231   6.692   3.074   2.890 -0.1705 -0.2238 -0.1734
16247TIP3    H170232   6.634   3.014   2.937 -0.1467 -0.1346 -0.0291
16247TIP3    H270233   6.664   3.068   2.799  0.2377 -0.9216 -0.2625
16248TIP3   OH270234   3.382   2.598  16.291  0.2470 -0.2262  0.0349
16248TIP3    H170235   3.353   2.689  16.291  1.3146  0.1368 -0.4957
16248TIP3    H270236   3.312   2.550  16.246 -0.6379  0.2087  0.9105
16249TIP3   OH270237   3.754   5.736  14.980 -0.0808  1.3097 -0.1301
16249TIP3    H170238   3.842   5.727  15.016 -1.0171  2.7638  2.8735
16249TIP3    H270239   3.750   5.826  14.948 -0.4232  1.2016 -0.4011
16250TIP3   OH270240   2.733   1.146  11.788  0.0345 -0.0886 -0.5841
16250TIP3    H170241   2.764   1.235  11.774 -1.2856  0.1930 -2.0735
16250TIP3    H270242   2.787   1.092  11.731 -1.4283  0.2664 -2.3902
16251TIP3   OH270243   3.457   4.498  15.362 -0.2286 -0.3883 -0.3674
16251TIP3    H170244   3.420   4.504  15.450 -1.0160 -0.5117 -0.6787
16251TIP3    H270245   3.475   4.405  15.349 -3.2038 -0.9114 -1.5235
16252TIP3   OH270246   2.679   4.156   3.180 -0.0300  0.0033 -0.1244
16252TIP3    H170247   2.626   4.084   3.215 -1.6010  0.5364 -1.2980
16252TIP3    H270248   2.769   4.131   3.201 -0.6832 -1.1128  1.6208
16253TIP3   OH270249   5.837   0.441  15.044  0.1845 -0.3442 -0.3755
16253TIP3    H170250   5.907   0.400  15.094 -0.6895 -0.9864  0.3399
16253TIP3    H270251   5.800   0.507  15.103 -1.1816 -1.4487  0.0642
16254TIP3   OH270252   2.567   4.906   3.149 -0.3623 -0.3365 -0.0349
16254TIP3    H170253   2.552   4.836   3.085 -0.7422  0.4273 -0.7857
16254TIP3    H270254   2.579   4.859   3.232 -0.5032 -1.3006 -0.5427
16255TIP3   OH270255   6.295   2.750   5.782 -1.0269 -0.3207  0.2663
16255TIP3    H170256   6.383   2.716   5.798 -1.1557 -1.1044 -0.6224
16255TIP3    H270257   6.302   2.799   5.700 -1.4300 -0.4829  0.1265
16256TIP3   OH270258   0.631   2.676  14.963 -0.0890  0.3992  0.1640
16256TIP3    H170259   0.579   2.714  14.892 -0.3632 -0.8090 -0.2925
16256TIP3    H270260   0.567   2.651  15.029  0.1858  1.7669  0.9844
16257TIP3   OH270261   6.239   5.351   5.450  0.3828  0.2584  0.1701
16257TIP3    H170262   6.180   5.277   5.465  2.5318 -1.7953 -0.8586
16257TIP3    H270263   6.213   5.383   5.363  0.4754 -0.3667 -0.0999
16258TIP3   OH270264   6.495   1.333   0.540  0.0265 -0.8996 -0.2950
16258TIP3    H170265   6.559   1.378   0.485  1.5760 -0.6401  1.5890
16258TIP3    H270266   6.411   1.346   0.495  0.5592  2.7520 -0.5766
16259TIP3   OH270267   2.607   0.510   2.287 -0.2139  0.4868  0.0523
16259TIP3    H170268   2.673   0.478   2.348 -1.5269  2.9943  3.0270
16259TIP3    H270269   2.655   0.569   2.229  0.5548  0.5670  0.7567
16260TIP3   OH270270   6.521   0.940  13.421  0.0968  0.1656  0.0850
16260TIP3    H170271   6.537   1.034  13.432 -0.7272  0.2151  1.1012
16260TIP3    H270272   6.487   0.912  13.506 -2.1191 -0.5176 -0.9466
16261TIP3   OH270273   0.530   4.243  12.734 -0.5183 -0.2206  0.1182
16261TIP3    H170274   0.587   4.188  12.680 -0.9601  0.4894 -1.1189
16261TIP3    H270275   0.507   4.316  12.677  1.4120  2.2008  2.1993
16262TIP3   OH270276   4.455   3.223  11.697 -0.4184  0.8776  0.5536
16262TIP3    H170277   4.384   3.272  11.657  0.0238  0.5628 -0.6673
16262TIP3    H270278   4.534   3.256  11.655 -0.0172 -0.0661  0.5225
16263TIP3   OH270279   3.456   6.043   1.595  0.0411 -0.1580  0.5402
16263TIP3    H170280   3.460   6.009   1.685 -1.4699  1.0186  1.1010
16263TIP3    H270281   3.367   6.023   1.566  0.3053  0.0682 -0.4540
16264TIP3   OH270282   6.201   0.256   2.162  0.4905  0.2220  0.4912
16264TIP3    H170283   6.141   0.189   2.195  2.5495 -1.9735  0.0688
16264TIP3    H270284   6.213   0.316   2.236 -1.1458 -0.0226  0.9994
16265TIP3   OH270285   4.033   6.466   1.638 -0.2766 -0.2275 -0.0248
16265TIP3    H170286   4.101   6.500   1.696 -0.0458 -0.1704 -0.3275
16265TIP3    H270287   4.080   6.412   1.575 -0.5517 -0.4550 -0.0343
16266TIP3   OH270288   2.332   3.696   2.507  0.0495 -0.3976  0.0156
16266TIP3    H170289   2.296   3.764   2.449 -2.4927 -0.6049  1.2356
16266TIP3    H270290   2.330   3.736   2.594  2.2905 -0.6830  0.2715
16267TIP3   OH270291   1.163   5.599   3.874 -0.2232 -0.6993 -0.0532
16267TIP3    H170292   1.194   5.554   3.796  0.1152  1.8057 -1.4737
16267TIP3    H270293   1.207   5.555   3.946  1.9111 -1.1471 -1.5329
16268TIP3   OH270294   0.104   3.170  14.935  0.2347  0.0200 -0.1590
16268TIP3    H170295   0.059   3.092  14.967  1.3527 -0.2230  0.9392
16268TIP3    H270296   0.059   3.243  14.978  0.4318 -0.1774  0.4032
16269TIP3   OH270297   5.433   4.095  15.806 -0.4985  0.3868  0.3526
16269TIP3    H170298   5.523   4.065  15.817  0.2760  1.5619 -2.1065
16269TIP3    H270299   5.423   4.165  15.871  0.3486  0.2672  0.6222
16270TIP3   OH270300   4.823   0.916  12.448 -0.0739 -0.1434 -0.0220
16270TIP3    H170301   4.849   0.903  12.539  1.0181 -1.5292 -0.4907
16270TIP3    H270302   4.869   0.995  12.422 -1.2636  0.8951  0.9164
16271TIP3   OH270303   1.833   5.029  15.356  0.3378  0.3903 -0.9317
16271TIP3    H170304   1.908   4.980  15.322  1.0303 -1.0912  2.3166
16271TIP3    H270305   1.770   4.962  15.381 -1.4251  1.5436 -2.0580
16272TIP3   OH270306   1.082   4.775   3.984  0.3264 -0.3707  1.2042
16272TIP3    H170307   1.083   4.726   4.067 -1.8735  1.8908  2.7335
16272TIP3    H270308   1.121   4.859   4.006 -2.9053  1.3908  0.8820
16273TIP3   OH270309   2.324   4.175  10.660 -0.2666  0.0081 -0.4340
16273TIP3    H170310   2.412   4.210  10.649  0.0503 -1.1076 -1.7040
16273TIP3    H270311   2.268   4.234  10.608 -0.5415  1.5658  1.5093
16274TIP3   OH270312   0.881   6.306   5.701 -0.1572  0.0679 -0.1692
16274TIP3    H170313   0.913   6.395   5.686  0.4203 -0.6175 -4.1027
16274TIP3    H270314   0.916   6.282   5.787  0.1481  3.3810  0.7730
16275TIP3   OH270315   2.001   6.794   3.755  0.0392  0.5284 -0.0566
16275TIP3    H170316   2.017   6.700   3.744 -0.9165  0.5611 -2.2127
16275TIP3    H270317   1.967   6.802   3.844 -0.1257 -1.2140  0.0742
16276TIP3   OH270318   6.765   3.359  13.237 -0.0898 -0.8960 -0.1299
16276TIP3    H170319   6.780   3.298  13.165  0.4943 -1.8006  0.7358
16276TIP3    H270320   6.849   3.404  13.248  0.0018 -1.1812  0.3574
16277TIP3   OH270321   1.312   2.816  15.523 -0.0147 -0.6202 -0.0194
16277TIP3    H170322   1.356   2.760  15.587 -1.8239 -1.1852  0.7938
16277TIP3    H270323   1.270   2.754  15.462 -1.0332 -0.1457  0.1870
16278TIP3   OH270324   2.633   2.936   5.520 -0.1533  0.7457  0.0641
16278TIP3    H170325   2.575   2.891   5.581  2.5027 -1.4832  1.1599
16278TIP3    H270326   2.695   2.983   5.576  2.4700 -1.5072 -0.7133
16279TIP3   OH270327   5.255   4.590  12.580  0.0993 -0.1430 -0.0418
16279TIP3    H170328   5.246   4.545  12.495 -1.0854  1.0526 -0.5749
16279TIP3    H270329   5.270   4.681  12.558  0.0750  0.1375  1.0411
16280TIP3   OH270330   1.395   1.048  14.804  0.4849 -0.0082  0.4956
16280TIP3    H170331   1.328   1.014  14.863  0.4316 -2.9718 -1.0971
16280TIP3    H270332   1.475   1.002  14.829  0.7473 -0.3481 -0.8870
16281TIP3   OH270333   2.702   3.757  12.288  0.1211 -0.1858 -0.5048
16281TIP3    H170334   2.721   3.670  12.324 -2.9083 -1.0857 -0.7892
16281TIP3    H270335   2.660   3.804  12.360  0.1034  0.4090 -0.8957
16282TIP3   OH270336   5.031   4.053   5.913  0.5894 -0.1865  0.0460
16282TIP3    H170337   5.068   4.128   5.867 -0.7736  1.2315  1.1497
16282TIP3    H270338   4.939   4.076   5.927  0.1582 -2.0084  0.5648
16283TIP3   OH270339   3.146   1.923   0.775  0.3129  0.2997 -0.6438
16283TIP3    H170340   3.081   1.921   0.704  0.6853 -1.2954 -0.9764
16283TIP3    H270341   3.207   1.992   0.750  1.7163 -1.6799 -3.1018
16284TIP3   OH270342   6.270   1.356   3.176 -0.1212  0.3495 -0.0656
16284TIP3    H170343   6.330   1.386   3.108  0.0045 -1.4805 -0.8261
16284TIP3    H270344   6.325   1.305   3.235 -0.9289 -1.6988 -0.9968
16285TIP3   OH270345   6.781   1.827   4.266  0.3516  0.2965  0.2756
16285TIP3    H170346   6.843   1.798   4.333 -0.9460 -0.9788  0.9971
16285TIP3    H270347   6.718   1.880   4.315 -1.7008 -2.2056  0.5484
16286TIP3   OH270348   2.600   6.683   3.981 -0.4840 -0.3532  0.3838
16286TIP3    H170349   2.647   6.704   4.062  0.1481  2.9220 -0.6978
16286TIP3    H270350   2.669   6.655   3.920 -0.6776 -0.7355  0.3370
16287TIP3   OH270351   6.110   6.128  14.044 -0.3889 -0.3411 -0.4998
16287TIP3    H170352   6.065   6.066  14.102  0.5625 -1.0609 -0.5012
16287TIP3    H270353   6.202   6.122  14.069 -0.0058 -0.4093 -1.8319
16288TIP3   OH270354   4.302   3.149   1.565 -0.4363  0.0966  0.0960
16288TIP3    H170355   4.235   3.192   1.511 -0.4466 -0.3635 -0.2676
16288TIP3    H270356   4.383   3.161   1.515 -0.3735  0.0321  0.1836
16289TIP3   OH270357   0.865   2.395  12.397 -0.1981  0.2828 -0.0369
16289TIP3    H170358   0.946   2.422  12.441  1.4730 -2.6359 -1.0345
16289TIP3    H270359   0.795   2.421  12.457  1.7440 -0.5461  2.7574
16290TIP3   OH270360   0.955   0.462   3.599  0.2713 -0.0550 -0.4888
16290TIP3    H170361   1.009   0.383   3.588  1.7210  0.9114 -0.6586
16290TIP3    H270362   0.865   0.431   3.594  0.7730 -1.9185  0.9226
16291TIP3   OH270363   0.215   4.076  16.903 -0.2683 -0.4819  0.4263
16291TIP3    H170364   0.262   4.022  16.840  0.4578  0.4462  0.1557
16291TIP3    H270365   0.166   4.013  16.957 -1.1109 -1.2821 -1.1965
16292TIP3   OH270366   6.613   4.043  16.722  0.2946 -0.1908  0.0701
16292TIP3    H170367   6.537   4.043  16.781  0.4675  0.9322  0.3116
16292TIP3    H270368   6.577   4.016  16.638 -0.3069 -0.0396  0.2721
16293TIP3   OH270369   5.719   3.515   3.611 -0.2355  0.4510 -0.5423
16293TIP3    H170370   5.771   3.593   3.633  0.4682  0.1670 -1.1777
16293TIP3    H270371   5.741   3.496   3.520 -0.3086 -0.5634 -0.3597
16294TIP3   OH270372   5.888   5.012  15.851 -0.5905  0.0736 -0.0354
16294TIP3    H170373   5.862   4.952  15.920 -0.0970  0.0454  0.1311
16294TIP3    H270374   5.982   4.995  15.839 -0.6746  0.0499 -0.7336
16295TIP3   OH270375   0.839   5.484  11.758 -0.5370  0.0516 -0.3796
16295TIP3    H170376   0.751   5.522  11.762 -0.3825  0.8059 -2.5780
16295TIP3    H270377   0.898   5.556  11.780 -0.4084 -0.1405 -0.0832
16296TIP3   OH270378   3.896   6.450   4.454 -0.3765 -0.4946  0.0116
16296TIP3    H170379   3.836   6.444   4.380 -1.3965 -1.4480  0.8664
16296TIP3    H270380   3.842   6.432   4.530  0.3509  1.8733  1.1703
16297TIP3   OH270381   4.639   3.366  16.768 -0.1424  0.3283 -0.1490
16297TIP3    H170382   4.705   3.434  16.755 -1.8258  2.0140 -0.3473
16297TIP3    H270383   4.569   3.388  16.707 -0.9916 -1.2852  0.1771
16298TIP3   OH270384   4.655   0.992  15.143  0.5805 -0.3916  0.2246
16298TIP3    H170385   4.591   1.034  15.199  0.5907 -1.1635  0.8379
16298TIP3    H270386   4.682   1.060  15.081 -0.3254  0.1275  0.3841
16299TIP3   OH270387   1.910   2.473  12.239 -0.6966 -0.3814 -0.3339
16299TIP3    H170388   1.990   2.501  12.283 -0.6772  1.3728 -1.3554
16299TIP3    H270389   1.936   2.461  12.148 -1.9558  2.5269 -1.2009
16300TIP3   OH270390   6.495   3.214  12.422  0.7944  0.3196 -0.1784
16300TIP3    H170391   6.444   3.280  12.376 -0.6731  0.0162  0.9507
16300TIP3    H270392   6.514   3.253  12.507  0.9838 -0.2492  0.0461
16301TIP3   OH270393   3.982   5.978   0.052  0.2608 -0.2638 -0.0900
16301TIP3    H170394   4.052   5.946  -0.005  1.0970  0.0486  0.7303
16301TIP3    H270395   4.028   6.013   0.129 -0.8327 -0.7653  0.8192
16302TIP3   OH270396   5.216   4.745   2.132  0.1033 -0.7428  0.5945
16302TIP3    H170397   5.131   4.785   2.114  0.4947 -0.5422 -0.9358
16302TIP3    H270398   5.207   4.655   2.100  0.3480 -0.8278  0.7650
16303TIP3   OH270399   2.919   3.093  12.045 -0.3181  0.3009  0.0974
16303TIP3    H170400   2.969   3.160  12.090  0.0048  1.5103 -1.9495
16303TIP3    H270401   2.982   3.023  12.029  0.0788  0.7328 -0.2545
16304TIP3   OH270402   0.716   0.672   5.466  0.2361  0.5858  0.1968
16304TIP3    H170403   0.722   0.596   5.524 -0.1416  0.6033  0.2642
16304TIP3    H270404   0.661   0.734   5.514 -0.6609  0.3287 -0.4600
16305TIP3   OH270405   5.293   5.443   5.018 -0.1490  0.3586  0.4675
16305TIP3    H170406   5.305   5.348   5.027  2.5526  0.4843 -0.6729
16305TIP3    H270407   5.274   5.473   5.107  0.4609 -1.1035  1.1364
16306TIP3   OH270408   3.197   2.185  15.138  0.0646  0.3141 -0.3321
16306TIP3    H170409   3.146   2.264  15.120 -0.1190  0.0778 -0.8467
16306TIP3    H270410   3.152   2.115  15.091 -0.7664 -0.4313  1.4821
16307TIP3   OH270411   2.114   6.055  15.338 -0.5016  0.4482 -0.0492
16307TIP3    H170412   2.124   6.078  15.246  1.6489 -0.4856 -0.0897
16307TIP3    H270413   2.094   5.962  15.338  1.2981  0.0272  0.4487
16308TIP3   OH270414   5.579   2.584  14.578  0.0516 -0.3955  0.2735
16308TIP3    H170415   5.548   2.516  14.638 -2.5502 -1.2687 -1.8832
16308TIP3    H270416   5.523   2.659  14.596  0.0539 -0.2646 -0.2411
16309TIP3   OH270417   3.008   5.882  12.234 -0.1018 -0.0010  0.0889
16309TIP3    H170418   3.079   5.926  12.188 -0.8133  1.5362  0.3864
16309TIP3    H270419   2.947   5.953  12.257 -0.9489 -1.0605  1.2305
16310TIP3   OH270420   6.342   6.445   3.158  0.5930  0.0653  0.4412
16310TIP3    H170421   6.301   6.440   3.244 -2.0201  0.3175 -0.6730
16310TIP3    H270422   6.306   6.370   3.110  1.7155  0.1148 -0.5327
16311TIP3   OH270423   3.768   1.617   0.084  0.0244  0.0927  0.0086
16311TIP3    H170424   3.816   1.695   0.055 -0.6536  0.3389 -0.4846
16311TIP3    H270425   3.711   1.595   0.009  0.3776 -1.0144  0.0459
16312TIP3   OH270426   3.331   5.541  16.137  0.1896 -0.0460 -0.1872
16312TIP3    H170427   3.312   5.580  16.052 -0.0339  0.4656  0.0944
16312TIP3    H270428   3.383   5.606  16.183 -2.6318  1.2634  1.4045
16313TIP3   OH270429   5.002   2.533  10.767 -0.0692 -0.2505 -0.2488
16313TIP3    H170430   5.071   2.538  10.701 -0.9700  0.4463 -1.1788
16313TIP3    H270431   4.991   2.623  10.797  0.9498 -0.6691  1.5694
16314TIP3   OH270432   4.129   1.652  14.842  0.4350 -0.5617 -0.6104
16314TIP3    H170433   4.098   1.666  14.931 -0.2612 -0.6829 -0.8277
16314TIP3    H270434   4.073   1.582  14.808 -0.2085  0.3786 -1.5786
16315TIP3   OH270435   0.525   0.306   3.326 -0.0313  0.1950  0.0141
16315TIP3    H170436   0.438   0.270   3.347  0.3356 -0.4400  0.4759
16315TIP3    H270437   0.550   0.261   3.245  0.2147 -0.2340  0.3244
16316TIP3   OH270438   5.980   1.967   0.623 -0.3429 -0.3289 -0.3066
16316TIP3    H170439   6.025   1.900   0.571  1.0448  0.3614 -0.0484
16316TIP3    H270440   5.967   2.040   0.563 -0.2096 -0.1435 -0.1106
16317TIP3   OH270441   3.187   0.557   2.116 -0.3051  0.2886 -0.2622
16317TIP3    H170442   3.277   0.528   2.105 -0.6809 -1.0053 -0.0573
16317TIP3    H270443   3.191   0.652   2.103  1.1284  0.2954  0.0467
16318TIP3   OH270444   4.192   0.962   1.420 -1.1123  0.8003  0.6822
16318TIP3    H170445   4.230   0.918   1.496  3.5523 -2.2340 -2.8491
16318TIP3    H270446   4.117   0.907   1.396  1.0129 -1.9765 -0.1579
16319TIP3   OH270447   1.984   4.008  17.058  0.4752 -0.3422 -0.4987
16319TIP3    H170448   2.063   4.058  17.075  1.2414 -0.2495 -3.6743
16319TIP3    H270449   1.958   3.975  17.143  1.2120  3.4773  1.4205
16320TIP3   OH270450   5.190   2.553  16.075  0.1466 -0.1114 -0.0787
16320TIP3    H170451   5.251   2.607  16.126 -1.3879 -1.1294  3.1020
16320TIP3    H270452   5.152   2.614  16.011 -0.2613  2.2311  2.2123
16321TIP3   OH270453   3.266   2.568   3.796 -0.3825 -0.1545  0.1602
16321TIP3    H170454   3.304   2.531   3.876  0.9140 -1.7329 -1.1132
16321TIP3    H270455   3.334   2.625   3.761 -1.6472  2.0430  1.0809
16322TIP3   OH270456   0.330   6.579  14.944 -0.3874  0.0199  0.2485
16322TIP3    H170457   0.305   6.487  14.957  0.8543 -0.4790 -0.6281
16322TIP3    H270458   0.250   6.629  14.962 -1.4688 -1.3326 -0.5896
16323TIP3   OH270459   3.802   0.035   3.865  0.0007  0.0533 -0.0146
16323TIP3    H170460   3.721   0.081   3.846  0.0157  0.2514  0.3676
16323TIP3    H270461   3.856   0.046   3.787 -0.3534 -0.1100 -0.2806
16324TIP3   OH270462   3.955   4.957  17.378  0.7134  0.3010  0.0250
16324TIP3    H170463   4.011   4.977  17.453 -0.4584  0.7314  0.8002
16324TIP3    H270464   4.013   4.912  17.316  1.4846 -0.8700  1.5503
16325TIP3   OH270465   2.588   5.735  11.741  0.1891 -0.5809  0.0146
16325TIP3    H170466   2.649   5.779  11.800 -0.3683  0.7555 -0.3640
16325TIP3    H270467   2.526   5.803  11.716 -0.3715 -1.4545 -1.0574
16326TIP3   OH270468   4.664   2.535  12.056 -0.3362  0.8871  0.2656
16326TIP3    H170469   4.597   2.478  12.018  1.3123 -0.0657 -1.3563
16326TIP3    H270470   4.628   2.623  12.046 -1.1611  0.4405 -1.0097
16327TIP3   OH270471   0.228   3.124  15.891  0.0598 -0.7991  0.4203
16327TIP3    H170472   0.213   3.155  15.980 -0.8061 -2.2348  0.8204
16327TIP3    H270473   0.170   3.048  15.882  0.2132 -0.7613 -1.3294
16328TIP3   OH270474   5.625   0.747  12.176  0.2254 -0.3343  0.7068
16328TIP3    H170475   5.618   0.676  12.113  3.3296  0.2076 -0.4109
16328TIP3    H270476   5.652   0.823  12.124  1.2965  0.5580  2.4576
16329TIP3   OH270477   2.549   2.539   3.936  0.3057  0.1777  0.3378
16329TIP3    H170478   2.496   2.586   3.872 -3.1683 -2.8809  0.6712
16329TIP3    H270479   2.515   2.567   4.021  0.2141 -0.7811  0.6191
16330TIP3   OH270480   3.857   5.868  15.712 -0.2530 -0.5452  0.5126
16330TIP3    H170481   3.943   5.873  15.752  0.7577 -1.4277 -1.4094
16330TIP3    H270482   3.827   5.959  15.708 -0.7152 -0.4469  3.7029
16331TIP3   OH270483   2.479   3.063   6.324  0.1041 -0.0626 -0.5001
16331TIP3    H170484   2.509   2.975   6.344  0.7253 -0.1863 -1.9078
16331TIP3    H270485   2.483   3.109   6.408 -0.4597 -1.4178  0.3027
16332TIP3   OH270486   1.627   0.714  10.406  0.1590  0.4913 -0.0553
16332TIP3    H170487   1.714   0.678  10.417  0.2154  0.6931  0.1613
16332TIP3    H270488   1.568   0.645  10.435  0.2911  0.8907  1.2032
16333TIP3   OH270489   2.489   2.684  11.739 -0.2429  0.2702 -0.5052
16333TIP3    H170490   2.445   2.664  11.656 -1.6867 -0.0070  0.2855
16333TIP3    H270491   2.576   2.714  11.714 -0.0120 -1.5271 -2.0252
16334TIP3   OH270492   2.462   2.773   5.075  0.4793  0.3505  0.3442
16334TIP3    H170493   2.506   2.696   5.039  0.6980  0.7948 -0.3630
16334TIP3    H270494   2.466   2.760   5.170  1.0524 -0.2159  0.2552
16335TIP3   OH270495   1.408   6.485  16.854  0.2819 -0.1999 -0.3117
16335TIP3    H170496   1.342   6.514  16.791  0.5030 -0.2774 -0.5772
16335TIP3    H270497   1.486   6.536  16.833  0.3052 -0.1005  0.0103
16336TIP3   OH270498   2.531   2.335  16.942  0.5335 -0.3708  0.0750
16336TIP3    H170499   2.560   2.332  16.851 -0.5741 -0.8962 -0.2840
16336TIP3    H270500   2.452   2.281  16.944  1.2739 -1.4931  1.6390
16337TIP3   OH270501   1.765   4.461  15.072  0.1711  0.1553  0.0179
16337TIP3    H170502   1.807   4.439  15.155  0.1674  0.9174  0.2201
16337TIP3    H270503   1.828   4.516  15.026  1.0152 -1.8232 -1.3472
16338TIP3   OH270504   6.423   3.301  16.443 -0.1645  0.4821  0.3113
16338TIP3    H170505   6.424   3.315  16.349 -0.2576 -0.6323  0.1250
16338TIP3    H270506   6.467   3.217  16.455  0.6054  1.0152  1.3473
16339TIP3   OH270507   1.934   2.700   1.755  0.0102  0.2829 -0.1417
16339TIP3    H170508   1.868   2.713   1.687  0.4705 -0.5323 -0.7705
16339TIP3    H270509   2.009   2.751   1.726  0.7089 -1.1759 -1.0040
16340TIP3   OH270510   6.703   3.899   6.445 -0.5100  0.5599 -0.2209
16340TIP3    H170511   6.713   3.852   6.362  2.5128 -3.0950  1.8766
16340TIP3    H270512   6.655   3.839   6.501 -1.2832  2.3589  1.1420
16341TIP3   OH270513   5.932   1.280   4.591  0.6980 -0.6135  0.4044
16341TIP3    H170514   5.907   1.214   4.526 -0.0058 -2.7232  2.6796
16341TIP3    H270515   5.894   1.361   4.559  0.1291 -1.6321 -1.6377
16342TIP3   OH270516   4.761   2.516   5.693  0.0915 -0.1507 -0.3293
16342TIP3    H170517   4.758   2.558   5.607 -0.2359  0.8097  0.1392
16342TIP3    H270518   4.670   2.495   5.713  0.2844 -1.4521 -0.7135
16343TIP3   OH270519   4.960   1.769  11.622 -0.5064 -0.1005 -0.2964
16343TIP3    H170520   5.047   1.743  11.652  0.3430  1.3203 -1.4207
16343TIP3    H270521   4.940   1.707  11.552 -0.6799 -0.8076  0.3666
16344TIP3   OH270522   4.403   1.156   1.443 -0.0464 -0.4720  0.0186
16344TIP3    H170523   4.350   1.084   1.410  0.1209 -0.2790 -0.7071
16344TIP3    H270524   4.375   1.168   1.533 -0.7649 -0.8035 -0.1545
16345TIP3   OH270525   1.768   3.411  15.544 -0.2935  0.1177 -0.7214
16345TIP3    H170526   1.852   3.391  15.503  0.4849 -2.6306  1.8842
16345TIP3    H270527   1.775   3.504  15.565  2.7558 -0.2774  0.6164
16346TIP3   OH270528   3.548   5.937  15.836  0.1694  0.1196 -0.1421
16346TIP3    H170529   3.630   5.922  15.788 -0.5519 -2.4462 -0.7081
16346TIP3    H270530   3.533   6.031  15.828  1.9677  0.3326 -1.8276
16347TIP3   OH270531   3.016   0.009  15.375 -0.3603 -0.3899  0.4181
16347TIP3    H170532   3.065   0.089  15.356 -0.4261 -0.6566 -0.9910
16347TIP3    H270533   3.084  -0.057  15.391 -0.2949  0.1286  2.6622
16348TIP3   OH270534   3.890   0.875   2.388 -0.0048  0.4006 -0.2509
16348TIP3    H170535   3.814   0.839   2.435  1.3612 -0.2753  1.5242
16348TIP3    H270536   3.892   0.827   2.305 -0.9459 -0.2629  0.0965
16349TIP3   OH270537   2.816   5.799  14.606  0.6372  0.5446 -0.0543
16349TIP3    H170538   2.851   5.886  14.590 -0.2963  0.4706 -3.1616
16349TIP3    H270539   2.844   5.747  14.530 -1.6796 -0.9175 -0.0084
16350TIP3   OH270540   6.558   3.194   5.325  0.0083  0.8652  0.6901
16350TIP3    H170541   6.487   3.239   5.280 -0.4110 -0.7071 -0.3045
16350TIP3    H270542   6.516   3.147   5.397  0.0990  0.3379  0.4074
16351TIP3   OH270543   5.704   4.152   5.209 -0.3431  0.1802  0.2138
16351TIP3    H170544   5.624   4.127   5.256  0.0823 -0.2708  0.7118
16351TIP3    H270545   5.684   4.238   5.172 -1.0845  0.0403  0.2693
16352TIP3   OH270546   1.650   2.369   3.253 -0.1355 -0.1372 -0.1771
16352TIP3    H170547   1.673   2.286   3.295  0.4739 -0.8250 -1.7545
16352TIP3    H270548   1.711   2.375   3.179 -2.1534  0.1982 -1.8849
16353TIP3   OH270549   3.251   4.637   0.083  0.3141  0.1375 -0.2741
16353TIP3    H170550   3.296   4.557   0.110  0.7627  1.5069  3.5860
16353TIP3    H270551   3.204   4.612   0.003  1.5863 -3.5127 -0.0670
16354TIP3   OH270552   2.895   5.451   2.731  0.1084  0.0791 -0.7032
16354TIP3    H170553   2.930   5.519   2.673  1.1008  0.2881  0.1271
16354TIP3    H270554   2.918   5.369   2.688  3.0190  0.1540  0.5422
16355TIP3   OH270555   3.683   4.723   0.996  0.0090  0.4176  0.6290
16355TIP3    H170556   3.667   4.709   0.903  2.2219 -0.4937  0.3463
16355TIP3    H270557   3.675   4.818   1.007  1.6841  0.7835 -0.9177
16356TIP3   OH270558   3.054   4.653   3.153  0.4369 -0.3183  0.4930
16356TIP3    H170559   3.078   4.701   3.073  0.0886  3.2848  2.3343
16356TIP3    H270560   2.991   4.587   3.123  0.7647  0.4826 -2.2738
16357TIP3   OH270561   3.302   4.352  16.785  0.1118  0.6277 -0.8402
16357TIP3    H170562   3.347   4.310  16.858 -0.8053 -1.7135 -1.5392
16357TIP3    H270563   3.366   4.415  16.751  1.1534  0.5781  0.9220
16358TIP3   OH270564   6.458   5.037  11.457  0.3165 -0.0488  0.0348
16358TIP3    H170565   6.512   5.008  11.531  0.3269 -2.2105 -0.7379
16358TIP3    H270566   6.410   5.112  11.490  1.1624 -0.2703  1.8853
16359TIP3   OH270567   4.568   2.184   1.880 -0.3553 -0.2913  0.2862
16359TIP3    H170568   4.504   2.212   1.946 -0.5785  0.1798 -0.1175
16359TIP3    H270569   4.515   2.141   1.813 -0.1401 -0.6885  0.3684
16360TIP3   OH270570   6.677   5.042   0.434  0.2340 -0.1948 -0.5256
16360TIP3    H170571   6.585   5.018   0.442  0.0130  1.1372  1.5684
16360TIP3    H270572   6.692   5.049   0.340 -2.1728  0.8734 -0.8925
16361TIP3   OH270573   6.629   2.513  12.545  0.6170  0.1441 -0.1567
16361TIP3    H170574   6.718   2.477  12.543  0.5381 -0.0518 -0.1515
16361TIP3    H270575   6.572   2.436  12.539  0.4419  0.1985  0.6927
16362TIP3   OH270576   3.533   4.741   4.533  0.1719  0.0034 -0.3323
16362TIP3    H170577   3.489   4.657   4.546 -1.2201  0.6137 -0.8831
16362TIP3    H270578   3.490   4.779   4.457  1.1812  0.9674 -0.4493
16363TIP3   OH270579   0.435   6.492   6.013 -0.0029  0.1845  1.0662
16363TIP3    H170580   0.353   6.542   6.011  1.2909  2.4137  0.3542
16363TIP3    H270581   0.446   6.461   5.924  0.6761  1.2835  0.7388
16364TIP3   OH270582   5.504   5.141   6.032  0.2044 -0.3536 -0.4309
16364TIP3    H170583   5.479   5.080   5.963  1.4254  1.5210 -2.6708
16364TIP3    H270584   5.421   5.172   6.068 -0.4745 -0.9096 -1.4740
16365TIP3   OH270585   3.608   6.758  17.245 -0.0664  0.1814  0.1096
16365TIP3    H170586   3.609   6.790  17.155  1.5735  1.0237  0.3845
16365TIP3    H270587   3.521   6.778  17.278 -0.1565  1.3421 -0.8007
16366TIP3   OH270588   5.445   2.976   5.452 -0.4186 -0.8180 -0.8437
16366TIP3    H170589   5.510   3.044   5.470  0.1897 -1.4143 -0.7350
16366TIP3    H270590   5.372   3.022   5.412 -0.3705  0.0254  0.0264
16367TIP3   OH270591   3.280   1.606   2.754  0.0389 -0.1813 -0.2498
16367TIP3    H170592   3.356   1.558   2.721 -1.3702 -3.1700  0.5067
16367TIP3    H270593   3.207   1.576   2.700 -0.8576  1.6253 -0.1122
16368TIP3   OH270594   4.037   2.612   5.695  0.2638 -0.4297 -0.3681
16368TIP3    H170595   4.049   2.542   5.759 -0.3089 -0.7330 -0.5911
16368TIP3    H270596   3.980   2.575   5.629  0.6957 -0.0482 -0.9637
16369TIP3   OH270597   1.324   3.628   6.369  0.0177 -0.1403  0.1485
16369TIP3    H170598   1.242   3.585   6.396  0.7718 -0.9740  1.2157
16369TIP3    H270599   1.359   3.572   6.300 -0.1509  0.0574 -0.1020
16370TIP3   OH270600   3.329   4.111  10.788 -0.1296  0.2333  0.3530
16370TIP3    H170601   3.408   4.077  10.830 -0.4038 -2.1111 -0.8646
16370TIP3    H270602   3.354   4.199  10.758  2.1184 -0.5274 -0.2268
16371TIP3   OH270603   1.986   3.146   2.329  0.5689  0.1654 -0.1882
16371TIP3    H170604   1.988   3.177   2.420  1.2776 -1.5000  0.4000
16371TIP3    H270605   1.967   3.053   2.336  0.1904  0.0898 -1.7953
16372TIP3   OH270606   0.092   2.772  11.089 -0.4205  0.6551 -0.4641
16372TIP3    H170607   0.041   2.694  11.111  0.3090  0.3246  0.0785
16372TIP3    H270608   0.145   2.744  11.014 -0.2480  0.6668 -0.3458
16373TIP3   OH270609   0.073   1.421  13.987  0.5757  0.2880 -0.0301
16373TIP3    H170610   0.064   1.329  13.961 -1.4955  0.2372  0.7343
16373TIP3    H270611   0.096   1.417  14.080  3.1393  0.5626 -0.5636
16374TIP3   OH270612   1.713   6.117  14.570  0.0081 -0.4369 -0.4383
16374TIP3    H170613   1.703   6.046  14.633  0.3966  0.4535  0.6455
16374TIP3    H270614   1.769   6.080  14.502  1.6440 -0.6663  0.9672
16375TIP3   OH270615   5.917   2.053   1.245 -0.3987  0.6288 -0.0878
16375TIP3    H170616   5.896   2.145   1.258  0.2126  0.7096  0.3809
16375TIP3    H270617   5.969   2.052   1.164  1.4117  1.0017  0.9989
16376TIP3   OH270618   0.435   1.481  15.972  0.2453  0.3922 -0.1406
16376TIP3    H170619   0.478   1.438  16.046 -0.9933  0.6738  0.7635
16376TIP3    H270620   0.496   1.469  15.899  1.7768  0.6139  1.0434
16377TIP3   OH270621   5.697   3.175   2.911  0.4886 -0.1426  0.5758
16377TIP3    H170622   5.751   3.150   2.986  0.0829 -1.3781  0.4725
16377TIP3    H270623   5.626   3.227   2.949 -0.3431 -1.6899  1.2402
16378TIP3   OH270624   0.102   3.052  12.491  0.1159 -0.7012 -0.0446
16378TIP3    H170625   0.163   2.979  12.491  2.1198  0.8824 -0.3370
16378TIP3    H270626   0.068   3.056  12.401 -1.0828 -2.0557  0.3109
16379TIP3   OH270627   1.606   2.709  17.015 -0.1469 -0.1751 -0.5038
16379TIP3    H170628   1.692   2.735  16.981 -0.1023 -0.4354 -0.5897
16379TIP3    H270629   1.548   2.711  16.938  0.2821 -2.2838 -0.9416
16380TIP3   OH270630   3.972   4.070   0.366  0.0629 -0.1578 -0.3969
16380TIP3    H170631   3.981   4.157   0.327 -1.1305 -0.1340 -0.6530
16380TIP3    H270632   3.971   4.086   0.460 -0.0721  0.1040 -0.4406
16381TIP3   OH270633   1.925   3.596   0.997 -0.1989 -0.2462  0.4023
16381TIP3    H170634   1.943   3.677   0.951 -0.3975 -0.2475  0.3213
16381TIP3    H270635   1.910   3.623   1.088 -0.2143 -0.1979  0.3853
16382TIP3   OH270636   0.172   0.538   1.510 -0.0825 -0.3986  0.3696
16382TIP3    H170637   0.083   0.573   1.516  0.3501  0.7366  0.4723
16382TIP3    H270638   0.221   0.585   1.578  0.7093 -0.6214 -0.0290
16383TIP3   OH270639   5.235   5.574  12.137  0.1328  0.7460 -0.3755
16383TIP3    H170640   5.327   5.592  12.123  0.3589 -1.0199 -1.4841
16383TIP3    H270641   5.232   5.528  12.221  0.5318 -0.9021 -1.2368
16384TIP3   OH270642   1.496   2.194   1.306  0.4162  0.0495  0.5516
16384TIP3    H170643   1.491   2.099   1.316 -0.2349  0.2296  2.1387
16384TIP3    H270644   1.528   2.207   1.217  1.2919 -1.6616  0.5870
16385TIP3   OH270645   4.981   1.023  12.111 -0.1239 -0.5267 -0.2207
16385TIP3    H170646   4.961   0.952  12.050 -0.5163 -2.1937  1.7276
16385TIP3    H270647   5.070   1.004  12.141 -0.2843 -0.2633  0.4260
16386TIP3   OH270648   3.328   5.781   3.318  0.1195  0.4191  0.5767
16386TIP3    H170649   3.413   5.751   3.286 -0.4346  1.0416 -1.6169
16386TIP3    H270650   3.264   5.733   3.265 -0.8160  3.7797 -1.6158
16387TIP3   OH270651   6.154   4.401   3.511 -0.3441 -0.0160  0.1863
16387TIP3    H170652   6.212   4.423   3.439  0.9544 -1.9630  0.5648
16387TIP3    H270653   6.179   4.461   3.581  1.3589 -0.8643  0.3721
16388TIP3   OH270654   5.029   6.193   3.270  0.0966 -0.5850  0.0439
16388TIP3    H170655   5.098   6.143   3.227 -1.3585 -3.2882  0.6300
16388TIP3    H270656   4.957   6.193   3.208 -1.6607 -3.6484  1.8406
16389TIP3   OH270657   5.582   1.298  16.967 -0.0943 -0.1425  0.5281
16389TIP3    H170658   5.504   1.344  16.999 -0.4586  0.2548 -0.8558
16389TIP3    H270659   5.608   1.242  17.040 -2.4241 -1.2471  0.6105
16390TIP3   OH270660   0.750   0.360   1.465 -0.2420  0.6575 -0.1722
16390TIP3    H170661   0.808   0.331   1.395  0.4366  1.5964 -0.0251
16390TIP3    H270662   0.696   0.428   1.426 -0.6737  0.3703 -0.0857
16391TIP3   OH270663   6.255   0.810  12.166  0.5744  0.3167 -0.4429
16391TIP3    H170664   6.346   0.782  12.177  0.4581 -0.6339 -1.6846
16391TIP3    H270665   6.204   0.729  12.167 -0.2053  0.8024 -0.2406
16392TIP3   OH270666   3.924   2.486  13.971 -0.1591  0.3454  0.1891
16392TIP3    H170667   3.939   2.403  13.927  0.6285 -1.3110  3.2625
16392TIP3    H270668   4.011   2.526  13.978  0.3147 -0.8951  2.7120
16393TIP3   OH270669   0.482   0.158  12.277  0.2686  0.0169 -0.4493
16393TIP3    H170670   0.458   0.106  12.353 -0.0919  0.2554 -0.3981
16393TIP3    H270671   0.507   0.244  12.313  1.6096 -0.3408 -0.4587
16394TIP3   OH270672   6.397   5.354  10.972  0.2575 -0.0161 -0.2600
16394TIP3    H170673   6.329   5.380  10.910  0.7413 -0.2383 -0.9012
16394TIP3    H270674   6.422   5.266  10.943 -0.2667 -0.5649  0.9172
16395TIP3   OH270675   2.504   4.483  13.702  0.1119 -0.4929  0.1872
16395TIP3    H170676   2.595   4.470  13.677  0.2663 -1.1041  1.0416
16395TIP3    H270677   2.495   4.578  13.714  0.9256 -0.5264  1.1693
16396TIP3   OH270678   1.485   5.919   3.309  0.7886  0.3666 -0.4162
16396TIP3    H170679   1.434   5.865   3.249 -2.1330  2.9875 -0.5553
16396TIP3    H270680   1.529   5.983   3.252 -1.0699  2.1403  0.0409
16397TIP3   OH270681   5.371   3.505  16.999  0.1057 -0.4631 -0.1346
16397TIP3    H170682   5.292   3.492  16.946  0.6197 -1.5070 -0.6709
16397TIP3    H270683   5.403   3.417  17.016  0.5088 -0.0950  1.0866
16398TIP3   OH270684   0.293   5.124   2.554 -0.2706 -0.2781 -0.4912
16398TIP3    H170685   0.290   5.158   2.465  1.0423  0.9628 -0.1045
16398TIP3    H270686   0.385   5.129   2.579 -0.0499 -3.5507 -0.1205
16399TIP3   OH270687   0.943   5.090  17.086 -0.6331 -0.1952 -0.4441
16399TIP3    H170688   0.952   5.155  17.156  1.5849  1.3417 -2.0311
16399TIP3    H270689   0.872   5.124  17.032 -2.8326 -1.7371  1.2481
16400TIP3   OH270690   0.864   4.863   4.324 -0.1563 -0.1138 -0.2011
16400TIP3    H170691   0.827   4.911   4.249 -0.2307  0.0603 -0.0535
16400TIP3    H270692   0.925   4.801   4.285  0.6887  0.7668 -0.3305
16401TIP3   OH270693   2.172   0.730   3.683 -0.1973  0.4629  0.7291
16401TIP3    H170694   2.265   0.755   3.680 -0.0421  0.2418  2.4173
16401TIP3    H270695   2.140   0.771   3.763 -0.8605 -1.6909  1.6283
16402TIP3   OH270696   1.420   4.887  12.189 -0.1528 -0.0461 -0.0382
16402TIP3    H170697   1.449   4.932  12.110  0.0965  0.1310  0.1550
16402TIP3    H270698   1.392   4.801  12.158 -0.0795  0.0294 -0.3218
16403TIP3   OH270699   2.753   1.094  10.993  0.6188 -0.1097 -0.4557
16403TIP3    H170700   2.783   1.125  11.079  0.2184 -1.9531  0.3817
16403TIP3    H270701   2.819   1.127  10.932  2.0244 -0.4533  0.8170
16404TIP3   OH270702   4.441   0.082  16.901  0.2362 -0.1008  0.0229
16404TIP3    H170703   4.426   0.112  16.811 -1.5564  0.0560  0.3365
16404TIP3    H270704   4.404  -0.006  16.903  0.4256 -0.1706  0.5707
16405TIP3   OH270705   4.703   2.218   4.666  0.6561  0.4746  0.0964
16405TIP3    H170706   4.639   2.282   4.636  1.0040  0.5880 -0.4122
16405TIP3    H270707   4.774   2.270   4.703  1.0032  0.3951 -0.4459
16406TIP3   OH270708   1.445   6.137  14.676 -0.0664 -0.4048 -0.6819
16406TIP3    H170709   1.444   6.101  14.587 -0.0669  0.6127 -1.1100
16406TIP3    H270710   1.532   6.174  14.686  0.7067 -2.3876  0.5531
16407TIP3   OH270711   3.518   4.314  11.287  0.0007  0.4360  0.0302
16407TIP3    H170712   3.531   4.228  11.248 -1.2927  0.4957 -0.5920
16407TIP3    H270713   3.546   4.303  11.378 -0.1341 -0.6353 -0.0424
16408TIP3   OH270714   4.832   4.843   2.975  0.3232  0.1195  0.8746
16408TIP3    H170715   4.877   4.915   3.019  0.5037  0.2317  0.5076
16408TIP3    H270716   4.740   4.853   3.002 -0.1541  2.0140 -1.1019
16409TIP3   OH270717   1.862   1.403   4.454  0.4968  0.0828  0.2417
16409TIP3    H170718   1.814   1.335   4.501  1.3526  0.4473  1.6829
16409TIP3    H270719   1.920   1.441   4.519  0.8334  1.4544 -0.8175
16410TIP3   OH270720   3.071   3.664  15.391  0.6534  0.0491 -1.2027
16410TIP3    H170721   3.108   3.683  15.477  3.1633 -0.7531 -2.0150
16410TIP3    H270722   3.111   3.581  15.365 -0.9380 -0.3191 -2.6912
16411TIP3   OH270723   0.182   2.103  11.214 -0.1178 -0.2716  0.4207
16411TIP3    H170724   0.250   2.104  11.147 -0.7286 -1.7323 -0.2753
16411TIP3    H270725   0.157   2.011  11.221 -1.9204  0.2126  0.7630
16412TIP3   OH270726   2.461   0.238   2.922 -0.2716  0.1434  0.3088
16412TIP3    H170727   2.470   0.231   3.017 -1.7693  1.0097  0.5399
16412TIP3    H270728   2.395   0.173   2.899  0.7154 -0.6779 -0.2819
16413TIP3   OH270729   4.144   1.524   1.477  0.1687 -0.6854 -0.0064
16413TIP3    H170730   4.088   1.471   1.535 -0.8922  0.1928 -0.1897
16413TIP3    H270731   4.233   1.504   1.506 -0.3072 -0.5732  1.6863
16414TIP3   OH270732   6.750   6.267  16.083 -0.2416 -0.0390  0.4209
16414TIP3    H170733   6.785   6.249  15.996  0.3439 -0.6873  0.7847
16414TIP3    H270734   6.660   6.233  16.080  0.6368 -2.5961  0.9024
16415TIP3   OH270735   0.969   0.469   2.660  0.1182  0.7041  0.9344
16415TIP3    H170736   1.020   0.388   2.653 -1.1192 -0.0013 -0.5320
16415TIP3    H270737   0.894   0.455   2.603  0.9407  3.7216 -1.1094
16416TIP3   OH270738   2.478   4.311   2.233 -0.4499 -0.6655 -0.2920
16416TIP3    H170739   2.484   4.236   2.292 -0.7963  0.5935  1.4384
16416TIP3    H270740   2.384   4.322   2.218 -0.7509  1.2906  2.1660
16417TIP3   OH270741   4.711   3.548   2.770 -0.5279  0.1243  0.1963
16417TIP3    H170742   4.665   3.586   2.695 -0.5382 -0.9225 -0.3443
16417TIP3    H270743   4.725   3.622   2.829  0.7551  1.2852 -1.4588
16418TIP3   OH270744   2.904   1.183   1.579 -0.1012 -0.1104 -0.9374
16418TIP3    H170745   2.864   1.179   1.666 -0.6843  2.4295 -1.0222
16418TIP3    H270746   2.885   1.097   1.541 -1.0015 -0.8097  0.9274
16419TIP3   OH270747   0.104   6.790   4.110  0.1366  0.3481  0.0103
16419TIP3    H170748   0.021   6.752   4.081 -0.4757  2.3326 -1.0070
16419TIP3    H270749   0.144   6.825   4.030 -0.1182  3.1924  0.9989
16420TIP3   OH270750   5.680   0.677   5.234  0.0063  0.4635 -0.0910
16420TIP3    H170751   5.710   0.749   5.289 -1.4952  0.8162  0.3019
16420TIP3    H270752   5.651   0.718   5.153 -1.4823  0.4165  0.3847
16421TIP3   OH270753   4.883   0.091   4.959  0.3179 -0.1876 -0.2132
16421TIP3    H170754   4.951   0.112   4.895 -1.5933  1.6260 -1.7947
16421TIP3    H270755   4.831   0.023   4.916  1.3284 -1.9453  1.2036
16422TIP3   OH270756   1.870   1.151  14.312 -0.0527 -0.0202 -0.0586
16422TIP3    H170757   1.817   1.212  14.260  2.2991  0.1370 -2.5303
16422TIP3    H270758   1.824   1.068  14.306 -0.5143  0.2990 -1.4290
16423TIP3   OH270759   5.247   3.846   5.391  0.1701 -0.1004 -0.5107
16423TIP3    H170760   5.159   3.867   5.361 -0.5381 -0.1577  1.4217
16423TIP3    H270761   5.245   3.860   5.485  2.3493  0.2656 -0.4579
16424TIP3   OH270762   1.321   0.222  11.626 -0.1058 -0.1261  0.0457
16424TIP3    H170763   1.250   0.259  11.575 -0.6083 -0.1884  0.6844
16424TIP3    H270764   1.300   0.129  11.632 -0.9243  0.1364  1.7182
16425TIP3   OH270765   5.802   1.845  14.078 -0.1882  0.3854 -0.1785
16425TIP3    H170766   5.891   1.826  14.108 -0.3097 -0.0180 -0.0684
16425TIP3    H270767   5.805   1.937  14.050 -0.0071  0.7058  0.8359
16426TIP3   OH270768   3.366   4.499   2.749 -0.6423 -0.9807 -0.1524
16426TIP3    H170769   3.454   4.533   2.732 -0.9645 -0.4019 -0.6956
16426TIP3    H270770   3.377   4.442   2.825 -0.2298  0.8993  1.2677
16427TIP3   OH270771   1.695   1.681   6.457  0.1947  0.1056  0.2475
16427TIP3    H170772   1.737   1.752   6.506  0.4066  0.0649  0.1255
16427TIP3    H270773   1.650   1.726   6.385  0.2819  0.1219  0.2025
16428TIP3   OH270774   1.270   5.294  15.323  0.3251 -0.3206 -0.1995
16428TIP3    H170775   1.190   5.304  15.272  0.1095 -1.6146 -0.1589
16428TIP3    H270776   1.323   5.371  15.302 -2.0146  2.0262  1.8199
16429TIP3   OH270777   2.085   4.361  14.882 -0.5151 -0.2996  0.4747
16429TIP3    H170778   2.020   4.291  14.885 -0.3893 -0.4519 -0.1608
16429TIP3    H270779   2.124   4.353  14.795 -0.7916  0.8243  0.2355
16430TIP3   OH270780   0.092   1.298   2.024 -0.4851  0.0900 -0.2637
16430TIP3    H170781   0.111   1.360   2.094  2.9314 -0.3699 -0.5959
16430TIP3    H270782   0.102   1.212   2.065  2.2356 -0.1979 -1.3213
16431TIP3   OH270783   2.319   5.589   1.307  0.5535 -0.6309  0.3313
16431TIP3    H170784   2.378   5.516   1.291  0.8343 -0.4245  0.4054
16431TIP3    H270785   2.375   5.666   1.304  0.2320 -0.4050  0.0943
16432TIP3   OH270786   5.114   5.634   1.228  0.1688 -0.3843 -0.4446
16432TIP3    H170787   5.021   5.625   1.206  0.1459 -0.1910 -0.4279
16432TIP3    H270788   5.133   5.727   1.214 -0.8489  0.7855  4.2250
16433TIP3   OH270789   0.307   3.719  15.484  0.3487  0.3101 -0.7522
16433TIP3    H170790   0.225   3.760  15.457 -0.6340  0.5139  2.1617
16433TIP3    H270791   0.309   3.635  15.438 -1.2640  0.5224 -1.2457
16434TIP3   OH270792   4.214   5.802  11.322  0.0071 -0.0947 -0.1078
16434TIP3    H170793   4.149   5.781  11.389  0.0464 -0.8218 -0.2826
16434TIP3    H270794   4.276   5.861  11.365 -0.5482  0.2881  0.1740
16435TIP3   OH270795   3.735   5.872   3.238 -0.2945  0.7804  0.2463
16435TIP3    H170796   3.767   5.790   3.200 -0.7696  0.3346  0.7918
16435TIP3    H270797   3.690   5.916   3.165  3.1779  2.3940 -1.1467
16436TIP3   OH270798   3.514   0.661   1.090  0.5745 -0.6663  0.3691
16436TIP3    H170799   3.499   0.755   1.093  0.0405 -0.7619  0.8888
16436TIP3    H270800   3.464   0.631   1.014  1.1478 -0.4617 -0.0896
16437TIP3   OH270801   3.184   4.738   1.114  0.2418  0.4008  0.1503
16437TIP3    H170802   3.166   4.779   1.029  1.6973  0.7947  0.0105
16437TIP3    H270803   3.274   4.763   1.134 -0.0656  0.2917  1.8070
16438TIP3   OH270804   0.030   5.202   2.338 -0.6064  0.2141  0.1046
16438TIP3    H170805  -0.057   5.167   2.356 -1.1945  0.9478 -1.1689
16438TIP3    H270806   0.052   5.255   2.414 -1.0487 -0.3920  0.6611
16439TIP3   OH270807   2.826   3.787  16.728  0.1146  0.8185  1.1240
16439TIP3    H170808   2.763   3.750  16.666  1.8835  0.9212 -0.8272
16439TIP3    H270809   2.786   3.772  16.814 -1.3113 -1.5159  0.1503
16440TIP3   OH270810   2.201   4.740   2.603  0.4033 -0.1960 -0.0001
16440TIP3    H170811   2.164   4.653   2.590  0.6223 -0.2457 -0.2950
16440TIP3    H270812   2.170   4.766   2.690 -1.6167  0.4262 -0.8553
16441TIP3   OH270813   1.818   2.438   1.370  0.2521  0.2044 -0.1576
16441TIP3    H170814   1.832   2.516   1.424  0.3067  0.0070  0.1164
16441TIP3    H270815   1.724   2.420   1.377  0.5519 -0.9797  1.5021
16442TIP3   OH270816   1.946   5.371  11.889 -0.8075  0.0396 -0.4661
16442TIP3    H170817   1.929   5.283  11.858 -2.4746  0.3873 -0.6098
16442TIP3    H270818   2.012   5.360  11.958 -1.0256 -1.3076 -0.4581
16443TIP3   OH270819   6.540   0.015  12.361  0.3399 -0.2547  0.0005
16443TIP3    H170820   6.528  -0.078  12.339  0.2553 -0.5771  1.3077
16443TIP3    H270821   6.575   0.054  12.281  2.2412 -1.7966  0.0070
16444TIP3   OH270822   0.973   5.697   1.398  0.1423 -0.1308  0.0008
16444TIP3    H170823   0.964   5.792   1.392  0.9142 -0.1438 -2.8047
16444TIP3    H270824   0.894   5.663   1.355  0.8416 -0.6929 -0.8693
16445TIP3   OH270825   2.797   1.820  15.185 -0.4459 -0.2190  0.0789
16445TIP3    H170826   2.812   1.735  15.227  2.3735 -0.3555 -0.9523
16445TIP3    H270827   2.862   1.878  15.224  0.1502  0.4572 -1.8096
16446TIP3   OH270828   4.941   6.274   0.841 -0.1273  0.1878  0.5449
16446TIP3    H170829   5.001   6.348   0.835 -0.3200  0.2408 -1.3358
16446TIP3    H270830   4.990   6.201   0.805 -0.6565 -0.1219  0.4468
16447TIP3   OH270831   1.952   5.584   3.145 -0.2982  0.1661  0.2606
16447TIP3    H170832   1.936   5.544   3.059 -1.4717 -0.0688  0.5608
16447TIP3    H270833   1.899   5.531   3.205  0.4382  0.3893  1.1133
16448TIP3   OH270834   0.300   3.036   4.811  0.6221  0.2619 -0.0412
16448TIP3    H170835   0.380   3.063   4.767 -0.0406 -0.2260 -1.6288
16448TIP3    H270836   0.259   2.975   4.751  0.6833 -2.1722  2.2020
16449TIP3   OH270837   2.941   2.214   2.273 -0.2950 -0.0510 -0.4241
16449TIP3    H170838   2.904   2.287   2.323  2.0268  0.0657  1.2790
16449TIP3    H270839   2.955   2.251   2.185  1.8626  2.0437  0.6689
16450TIP3   OH270840   2.394   1.102  12.384 -0.5731 -0.4662  0.5462
16450TIP3    H170841   2.421   1.179  12.334 -1.6853 -1.0976 -1.1323
16450TIP3    H270842   2.376   1.136  12.472  2.3355  0.5207  0.8778
16451TIP3   OH270843   5.399   1.986   4.275  0.1080  0.0728  0.2203
16451TIP3    H170844   5.390   1.947   4.188 -1.5877  1.0380 -0.0978
16451TIP3    H270845   5.310   1.985   4.311  0.7575 -0.2115  1.9141
16452TIP3   OH270846   0.559   2.804   6.183 -0.9903  0.5519 -0.7774
16452TIP3    H170847   0.514   2.863   6.243  0.5025  0.0865  0.8901
16452TIP3    H270848   0.545   2.717   6.219 -0.9528  0.1357 -1.7236
16453TIP3   OH270849   5.563   5.038  14.105 -0.2116 -0.1000  0.3852
16453TIP3    H170850   5.498   4.979  14.143 -1.7177  1.3190  0.0890
16453TIP3    H270851   5.532   5.055  14.016  1.0227 -0.0390 -0.0553
16454TIP3   OH270852   0.512   0.275  11.572  0.2478  0.0438  0.2895
16454TIP3    H170853   0.542   0.366  11.565  0.0209  0.0826 -0.2243
16454TIP3    H270854   0.564   0.239  11.644  1.3080  0.2038 -0.3727
16455TIP3   OH270855   4.563   4.809   5.958 -0.4703 -0.4878  0.0169
16455TIP3    H170856   4.584   4.717   5.942  0.9300 -0.2979  0.5328
16455TIP3    H270857   4.568   4.819   6.053  0.5555  0.3463 -0.0973
16456TIP3   OH270858   2.622   1.713  11.210 -0.4754 -0.5708  0.0215
16456TIP3    H170859   2.685   1.733  11.141 -0.8464 -2.6407 -1.0240
16456TIP3    H270860   2.537   1.732  11.171 -0.6076  0.0759  0.6149
16457TIP3   OH270861   1.671   3.039  16.830 -0.3915 -0.0993  0.2431
16457TIP3    H170862   1.706   2.963  16.783  0.4092  1.0203 -1.0048
16457TIP3    H270863   1.617   3.085  16.766  0.8297  1.5274  0.3133
16458TIP3   OH270864   0.140   5.166   5.323 -0.2402 -0.2595 -0.3632
16458TIP3    H170865   0.135   5.110   5.245  1.1380  1.5218 -1.8081
16458TIP3    H270866   0.190   5.115   5.386 -1.2658 -1.6827 -0.6454
16459TIP3   OH270867   3.536   5.386  13.157  0.2699 -0.2890  0.0377
16459TIP3    H170868   3.506   5.316  13.215  2.0905 -2.9747 -2.0120
16459TIP3    H270869   3.630   5.392  13.173  0.0455  2.5247  0.8740
16460TIP3   OH270870   2.359   5.107   3.351 -0.2522  0.1717 -0.2134
16460TIP3    H170871   2.431   5.050   3.379 -0.7393  0.0887  0.9287
16460TIP3    H270872   2.366   5.110   3.256  2.5362  1.8534 -0.0392
16461TIP3   OH270873   4.467   1.909  11.968  0.4274 -0.1986  0.1050
16461TIP3    H170874   4.493   1.927  12.058 -1.3599 -0.5872  0.7323
16461TIP3    H270875   4.439   1.818  11.969  0.2480 -0.1612 -0.8064
16462TIP3   OH270876   1.477   2.922   5.700 -0.0279 -0.2122 -0.7387
16462TIP3    H170877   1.445   2.999   5.749  0.1517  0.4992 -1.7136
16462TIP3    H270878   1.426   2.849   5.736  1.0866  0.0195  1.5169
16463TIP3   OH270879   6.223   4.169  14.536 -0.6189  0.6212  0.6271
16463TIP3    H170880   6.204   4.189  14.627  1.1684  3.0624  0.5464
16463TIP3    H270881   6.319   4.169  14.531 -0.6783  0.3021 -1.2100
16464TIP3   OH270882   2.538   3.331  12.470  0.3287  0.5799  0.0828
16464TIP3    H170883   2.451   3.337  12.509 -0.4327 -3.4942 -0.6111
16464TIP3    H270884   2.524   3.345  12.377  0.9292  2.4363  0.2154
16465TIP3   OH270885   3.052   1.383  11.996  0.6528 -0.0301  0.0312
16465TIP3    H170886   3.147   1.379  11.986  0.8465 -0.6789  1.6597
16465TIP3    H270887   3.020   1.422  11.915  2.3749  1.0364 -0.1790
16466TIP3   OH270888   5.582   5.413  16.758  0.0795 -0.0139  0.1781
16466TIP3    H170889   5.538   5.449  16.681  0.2463 -0.0266  0.0768
16466TIP3    H270890   5.675   5.414  16.734  0.0554 -0.9266 -0.0020
16467TIP3   OH270891   0.186   3.556  13.900 -0.2221  0.5056  0.1575
16467TIP3    H170892   0.212   3.640  13.939 -0.9714  0.7087  0.2374
16467TIP3    H270893   0.131   3.581  13.826 -0.1008  0.0861 -0.0745
16468TIP3   OH270894   5.445   0.906  14.171  0.1105  0.1640  0.3003
16468TIP3    H170895   5.381   0.947  14.229 -0.1054  3.0195 -1.7522
16468TIP3    H270896   5.520   0.966  14.172  1.5910 -1.5912  0.3419
16469TIP3   OH270897   2.000   4.767   4.776 -0.7141 -0.2977 -0.1048
16469TIP3    H170898   1.929   4.769   4.840 -1.1713  0.1387 -0.6113
16469TIP3    H270899   1.957   4.788   4.693 -0.0289 -0.2724 -0.4560
16470TIP3   OH270900   4.448   6.654   6.113  0.2876 -0.5340  0.1509
16470TIP3    H170901   4.370   6.672   6.061 -0.6132  1.3168  1.9465
16470TIP3    H270902   4.434   6.567   6.150 -1.4001  0.0705  1.0790
16471TIP3   OH270903   3.985   6.321  13.148 -0.5425  0.1347 -0.8137
16471TIP3    H170904   4.002   6.397  13.093 -0.0404 -0.3296 -1.3191
16471TIP3    H270905   4.041   6.252  13.111 -0.5880 -0.3268 -0.0372
16472TIP3   OH270906   0.904   0.080  15.473  0.1561  0.5304 -0.0576
16472TIP3    H170907   0.821   0.039  15.449  0.1050  1.5217 -1.7724
16472TIP3    H270908   0.968   0.008  15.471 -0.3348  0.0988 -0.6716
16473TIP3   OH270909   0.413   0.684  16.120 -0.8494  0.0159 -0.0874
16473TIP3    H170910   0.323   0.702  16.091 -0.1808  1.3673 -1.4623
16473TIP3    H270911   0.468   0.733  16.059  0.7415  2.1321  2.8071
16474TIP3   OH270912   4.215   4.442   5.732  0.1950  0.4154 -0.1620
16474TIP3    H170913   4.233   4.391   5.653 -2.0920 -2.0099  0.6815
16474TIP3    H270914   4.147   4.504   5.706 -0.3560 -0.1914 -0.1931
16475TIP3   OH270915   5.151   1.058   5.644 -0.1546  0.4531 -0.6162
16475TIP3    H170916   5.060   1.027   5.650  0.0296 -0.5128 -2.2237
16475TIP3    H270917   5.186   1.048   5.732 -1.3063 -0.1440 -0.2025
16476TIP3   OH270918   1.062   5.320   3.799  0.1391 -0.1463  0.0330
16476TIP3    H170919   0.973   5.286   3.794  0.0536 -0.0746  0.8268
16476TIP3    H270920   1.093   5.290   3.885  0.5481  0.6171  0.1563
16477TIP3   OH270921   3.456   3.374  13.532 -0.2741  0.8261  0.3593
16477TIP3    H170922   3.389   3.310  13.555  0.5742 -0.0055  0.5927
16477TIP3    H270923   3.529   3.355  13.591  0.8414  0.5340 -1.0419
16478TIP3   OH270924   0.564   1.837   5.009 -0.3842  0.0981  0.0751
16478TIP3    H170925   0.528   1.750   4.993 -1.6386  0.4459  0.8380
16478TIP3    H270926   0.547   1.885   4.927 -0.6259 -0.0815  0.0184
16479TIP3   OH270927   6.000   4.870   1.856 -0.0717 -0.4828 -0.0448
16479TIP3    H170928   6.040   4.788   1.884  0.1767 -0.1536  0.5777
16479TIP3    H270929   5.908   4.862   1.883 -0.0672 -0.5894 -0.0587
16480TIP3   OH270930   0.353   3.518  16.814  0.1748  0.0475  0.1397
16480TIP3    H170931   0.272   3.491  16.772 -0.6643  0.6119  1.3250
16480TIP3    H270932   0.416   3.449  16.794 -0.2997  0.0891 -1.6333
16481TIP3   OH270933   0.310   2.164   6.710 -0.1931 -0.4590  0.3797
16481TIP3    H170934   0.293   2.093   6.648 -0.0365 -1.5571  1.5527
16481TIP3    H270935   0.405   2.162   6.724 -0.3501 -0.9681  1.4815
16482TIP3   OH270936   1.498   4.414   1.722 -0.1435 -0.1940 -1.0334
16482TIP3    H170937   1.420   4.393   1.773  0.1658 -1.4140 -1.0244
16482TIP3    H270938   1.495   4.353   1.648  1.2879 -0.9269 -0.5149
16483TIP3   OH270939   0.768   6.443  11.463 -0.1276  0.0968  0.2163
16483TIP3    H170940   0.846   6.484  11.426 -1.0565  1.7693  0.0042
16483TIP3    H270941   0.721   6.514  11.506 -0.7036 -1.1908  1.8495
16484TIP3   OH270942   1.817   6.727  16.537  1.1515 -0.4371 -0.2742
16484TIP3    H170943   1.866   6.793  16.585  0.5974  0.5125 -0.9880
16484TIP3    H270944   1.806   6.763  16.449 -1.4419 -0.2357  0.0390
16485TIP3   OH270945   0.873   5.993  16.000 -0.1573  0.0330  0.3179
16485TIP3    H170946   0.818   5.996  16.079  1.9363 -2.4075  2.0477
16485TIP3    H270947   0.961   6.013  16.031  0.6278 -0.3659 -1.5143
16486TIP3   OH270948   5.035   2.843   1.057  0.4138  0.3369 -0.4886
16486TIP3    H170949   5.105   2.900   1.027 -1.0295  2.1814 -0.5600
16486TIP3    H270950   5.006   2.796   0.979  0.6812  0.5663 -0.7271
16487TIP3   OH270951   0.614   3.261   4.480 -0.0513 -0.5316  0.4837
16487TIP3    H170952   0.659   3.292   4.558  0.1675  0.1533  0.0982
16487TIP3    H270953   0.623   3.333   4.417 -1.4255 -0.5077  0.2842
16488TIP3   OH270954   1.083   5.435  15.813 -0.3773  0.4211 -0.0778
16488TIP3    H170955   1.099   5.435  15.907 -0.0956 -1.5713 -0.0872
16488TIP3    H270956   1.146   5.498  15.778 -1.4023  2.2324  1.1536
16489TIP3   OH270957   6.405   4.711  10.892 -0.0628 -0.0639 -0.0744
16489TIP3    H170958   6.440   4.662  10.967 -1.0867 -1.5534 -0.5235
16489TIP3    H270959   6.397   4.801  10.924  0.9053 -0.3712  1.1202
16490TIP3   OH270960   3.102   6.461   2.171  0.3193  0.0381 -0.7205
16490TIP3    H170961   3.146   6.377   2.158 -0.5587 -0.2308 -2.2049
16490TIP3    H270962   3.149   6.522   2.114  0.9054  0.5609  0.2935
16491TIP3   OH270963   0.287   4.865  13.302  0.1084  0.6355 -0.2663
16491TIP3    H170964   0.280   4.771  13.320 -2.4691  0.7537 -0.2497
16491TIP3    H270965   0.257   4.874  13.212 -0.2374  1.4722 -0.0793
16492TIP3   OH270966   6.683   3.150  14.000  0.2141 -0.3632 -0.4364
16492TIP3    H170967   6.738   3.100  13.939 -1.5643 -2.9835 -0.0771
16492TIP3    H270968   6.597   3.109  13.993 -1.2497  2.3453  0.4134
16493TIP3   OH270969   2.179   3.518   3.945  0.2082  0.7811 -0.3546
16493TIP3    H170970   2.132   3.450   3.993  0.1120  0.2940 -1.1239
16493TIP3    H270971   2.110   3.570   3.903  0.3070 -0.9209 -2.8457
16494TIP3   OH270972   5.642   5.295  15.985 -0.0100 -0.1472  0.3475
16494TIP3    H170973   5.611   5.315  15.896  1.1561  0.2367  0.0147
16494TIP3    H270974   5.624   5.201  15.996  0.8071 -0.4510 -0.7142
16495TIP3   OH270975   6.519   1.456   6.188 -0.7556  0.3912  0.0097
16495TIP3    H170976   6.497   1.534   6.239  0.4884 -0.1926  1.5480
16495TIP3    H270977   6.511   1.384   6.251 -0.2341 -0.5022 -0.9204
16496TIP3   OH270978   1.059   2.158  13.184 -0.2456  0.2477 -0.0374
16496TIP3    H170979   1.082   2.250  13.167  2.1509 -0.5975 -1.9592
16496TIP3    H270980   1.133   2.108  13.150 -1.6038 -2.4553  0.6885
16497TIP3   OH270981   6.060   0.591   1.377 -0.1356  0.0081 -0.5526
16497TIP3    H170982   6.023   0.634   1.300 -2.2431  0.6878  0.7820
16497TIP3    H270983   6.037   0.648   1.450 -2.4802 -2.9311  1.2255
16498TIP3   OH270984   2.357   3.086   5.095  0.0589  0.1542  0.3680
16498TIP3    H170985   2.418   3.105   5.166  0.7178 -0.1212 -0.1057
16498TIP3    H270986   2.280   3.050   5.138  0.5123 -0.1661  0.9306
16499TIP3   OH270987   4.113   2.869  12.842 -0.2992  0.6510  0.1043
16499TIP3    H170988   4.086   2.822  12.764  1.9453 -1.0524  0.2677
16499TIP3    H270989   4.192   2.824  12.872 -1.1059  1.1518  3.4334
16500TIP3   OH270990   5.751   3.395  12.938  0.7713  0.0004 -0.0460
16500TIP3    H170991   5.840   3.368  12.961  0.7773 -0.5936 -0.7260
16500TIP3    H270992   5.759   3.487  12.912  1.1282  0.0359  0.1860
16501TIP3   OH270993   6.527   6.242  13.067 -0.1107 -0.0205 -0.0294
16501TIP3    H170994   6.596   6.248  13.133  0.0422  0.0490 -0.1950
16501TIP3    H270995   6.573   6.252  12.983 -0.0836 -1.6586 -0.2428
16502TIP3   OH270996   1.211   6.654  14.324  0.4557  0.3423 -0.6543
16502TIP3    H170997   1.175   6.717  14.386 -0.2840  0.5365 -1.2740
16502TIP3    H270998   1.306   6.659  14.338  0.2652 -1.0316  1.8399
16503TIP3   OH270999   2.487   6.487  12.836 -0.3472 -0.4314  0.3890
16503TIP3    H171000   2.534   6.404  12.828  1.1313  0.3590  0.5514
16503TIP3    H271001   2.457   6.506  12.747 -0.4743 -1.0149  0.3063
16504TIP3   OH271002   6.684   4.211   2.760  0.1782 -0.6412 -0.2073
16504TIP3    H171003   6.616   4.277   2.747 -0.7405 -1.1347  1.7396
16504TIP3    H271004   6.639   4.140   2.806  2.0560 -0.8786  1.3771
16505TIP3   OH271005   5.403   0.997  15.022  0.1071  0.1612  0.4178
16505TIP3    H171006   5.421   0.999  15.116 -0.3677  0.7522  0.5048
16505TIP3    H271007   5.461   1.064  14.985  1.3306 -1.0385  0.0829
16506TIP3   OH271008   5.924   5.933   4.761 -0.0230  0.2222  0.7874
16506TIP3    H171009   5.905   6.024   4.739 -0.2646  0.7729  3.0380
16506TIP3    H271010   5.839   5.889   4.753  0.1053  0.1514 -0.3589
16507TIP3   OH271011   6.588   6.004   0.694 -0.0972  0.3237  0.4878
16507TIP3    H171012   6.535   5.936   0.653 -0.6836  0.6851  0.6388
16507TIP3    H271013   6.580   6.079   0.636 -1.5639  1.0910  1.6179
16508TIP3   OH271014   2.834   3.938   6.910 -0.2063  0.2230  0.0514
16508TIP3    H171015   2.779   4.002   6.954  1.7483  0.8558  1.6739
16508TIP3    H271016   2.858   3.980   6.827  0.4282  1.2708  0.7568
16509TIP3   OH271017   5.524   5.567   1.688  1.1286 -0.1140 -0.5440
16509TIP3    H171018   5.464   5.627   1.643 -0.3269  1.5342  3.1484
16509TIP3    H271019   5.495   5.480   1.661 -2.1009  0.6665 -0.0888
16510TIP3   OH271020   1.204   0.529  12.543 -0.0959 -0.5327  0.0778
16510TIP3    H171021   1.257   0.523  12.623 -0.2062 -1.0572  0.1157
16510TIP3    H271022   1.224   0.449  12.495 -0.1021 -0.2603 -0.3778
16511TIP3   OH271023   0.233   4.179  11.510  0.0020 -0.4333  0.8234
16511TIP3    H171024   0.177   4.136  11.574 -0.2820  0.6964  1.3688
16511TIP3    H271025   0.183   4.256  11.482  0.2455 -0.7488 -0.5405
16512TIP3   OH271026   3.646   0.298  11.394  0.1234  0.1845  0.2614
16512TIP3    H171027   3.608   0.375  11.353 -1.0534  0.5326  1.8914
16512TIP3    H271028   3.680   0.329  11.478  0.9426 -0.8104  0.3289
16513TIP3   OH271029   0.454   0.960   3.639  0.0976  0.1820 -0.0929
16513TIP3    H171030   0.393   0.902   3.594 -0.9882  0.9683  0.3204
16513TIP3    H271031   0.533   0.957   3.585 -0.6602 -0.0566 -1.2415
16514TIP3   OH271032   6.306   6.213   5.479  0.1792 -0.0596  0.7312
16514TIP3    H171033   6.243   6.144   5.456 -0.8989  0.6332  1.4999
16514TIP3    H271034   6.392   6.170   5.473 -0.3221 -0.9256 -0.7007
16515TIP3   OH271035   5.805   0.790   2.181 -0.0544  0.7457 -0.2551
16515TIP3    H171036   5.885   0.801   2.233 -0.7261  0.9210  0.7796
16515TIP3    H271037   5.774   0.702   2.203 -0.1509  0.6859 -0.6354
16516TIP3   OH271038   2.487   2.517   1.574  0.0615 -0.2047 -0.1346
16516TIP3    H171039   2.399   2.492   1.601  0.5793 -0.3598  1.5222
16516TIP3    H271040   2.515   2.582   1.639  1.0219  0.1131 -0.8404
16517TIP3   OH271041   4.461   4.613  17.173  0.8018 -0.5345 -0.5989
16517TIP3    H171042   4.420   4.575  17.250  0.6708  0.2304 -0.2839
16517TIP3    H271043   4.517   4.683  17.207  1.2957 -0.6578 -1.1395
16518TIP3   OH271044   5.662   5.030   5.719  0.6006  0.3187 -0.4714
16518TIP3    H171045   5.591   5.016   5.782  1.1538 -0.1648  0.0587
16518TIP3    H271046   5.624   5.088   5.653 -0.3905 -0.1785 -0.3644
16519TIP3   OH271047   4.236   6.228   3.774 -0.7867 -0.2167 -0.1104
16519TIP3    H171048   4.290   6.275   3.710  1.0904 -0.6359  1.0911
16519TIP3    H271049   4.157   6.281   3.782  0.3727  1.6364 -0.3332
16520TIP3   OH271050   0.360   5.269   2.327  0.2787  0.3286 -0.6645
16520TIP3    H171051   0.409   5.331   2.382  0.8682 -1.6066  1.0954
16520TIP3    H271052   0.419   5.252   2.253  2.1515 -1.5189  1.1232
16521TIP3   OH271053   5.596   2.870  12.242  0.0738  0.3569  0.1756
16521TIP3    H171054   5.604   2.950  12.189 -0.5302  1.7353  2.0562
16521TIP3    H271055   5.646   2.804  12.194 -0.0075  1.6636 -1.8128
16522TIP3   OH271056   2.627   1.485  15.917 -0.3320  0.5331  0.1433
16522TIP3    H171057   2.609   1.392  15.921 -0.9575  0.5658 -1.4528
16522TIP3    H271058   2.562   1.525  15.974 -1.8282  0.1898 -1.2632
16523TIP3   OH271059   2.186   0.768  16.533  0.4095 -0.6153 -0.3140
16523TIP3    H171060   2.248   0.726  16.592  1.0927  0.4985 -0.2123
16523TIP3    H271061   2.183   0.859  16.562  0.9961  0.0428 -2.1774
16524TIP3   OH271062   0.404   1.957   5.404 -0.4113  0.2036 -0.1731
16524TIP3    H171063   0.469   1.889   5.388 -1.2787 -0.9556  0.9788
16524TIP3    H271064   0.336   1.913   5.456 -0.7375  2.0799  1.0884
16525TIP3   OH271065   2.895   0.874  15.654  0.5327  0.0833 -0.4963
16525TIP3    H171066   2.964   0.810  15.638  0.6880 -0.0643  0.6535
16525TIP3    H271067   2.836   0.832  15.716  0.5582  0.9868  0.1676
16526TIP3   OH271068   6.781   1.838   1.058  0.2708 -0.3269 -0.4425
16526TIP3    H171069   6.778   1.744   1.040  0.5072 -0.5945  0.8611
16526TIP3    H271070   6.690   1.864   1.073  0.2520 -0.4329 -0.3756
16527TIP3   OH271071   2.276   4.538  13.587  0.4266  0.0010 -0.1791
16527TIP3    H171072   2.334   4.514  13.659 -0.1677  0.3221  0.4214
16527TIP3    H271073   2.333   4.545  13.511  1.4322  1.8241  0.6942
16528TIP3   OH271074   3.080   3.050  14.708  0.6757  0.3629  0.2556
16528TIP3    H171075   3.102   3.143  14.713 -0.1839  0.6079 -0.3036
16528TIP3    H271076   3.077   3.031  14.614  0.6071 -0.1711  0.3604
16529TIP3   OH271077   3.785   5.490  16.659  0.0571  0.2007 -0.1019
16529TIP3    H171078   3.757   5.499  16.568 -0.1451 -2.6937 -0.4315
16529TIP3    H271079   3.854   5.423  16.656 -1.2818 -1.4142  2.0250
16530TIP3   OH271080   3.849   6.184   4.872 -0.1067 -0.3689  0.1625
16530TIP3    H171081   3.849   6.276   4.898  0.0903 -0.1858 -0.4713
16530TIP3    H271082   3.877   6.137   4.950 -0.1301  0.1146  0.4643
16531TIP3   OH271083   3.987   5.058   1.896  0.1136 -0.1247 -0.5867
16531TIP3    H171084   3.918   4.992   1.884 -0.6679  0.5359  0.1420
16531TIP3    H271085   3.957   5.111   1.970  0.7807  0.9724 -1.0801
16532TIP3   OH271086   1.130   0.705  11.802  0.1153  0.8848  0.1545
16532TIP3    H171087   1.104   0.700  11.894 -0.3750  1.7113  0.0677
16532TIP3    H271088   1.063   0.760  11.761 -1.2365 -1.6137 -1.2521
16533TIP3   OH271089   3.893   0.389  11.202 -0.3168 -0.4179 -0.0883
16533TIP3    H171090   3.854   0.309  11.168 -0.3722 -0.5839  0.3624
16533TIP3    H271091   3.970   0.361  11.251 -0.3793 -0.2113  0.1373
16534TIP3   OH271092   3.464   0.639   4.891 -0.2551 -0.2648  0.6739
16534TIP3    H171093   3.394   0.697   4.859  0.9691  1.2088  0.5590
16534TIP3    H271094   3.543   0.693   4.888  1.4161 -2.5989 -1.5199
16535TIP3   OH271095   1.232   1.958  12.823  0.1905  0.4837  0.3657
16535TIP3    H171096   1.306   1.898  12.817  0.4695  0.9231 -0.7026
16535TIP3    H271097   1.229   1.983  12.916 -0.7939 -2.2343  1.1596
16536TIP3   OH271098   5.932   1.493  15.302 -0.6997 -0.1354  0.4422
16536TIP3    H171099   5.967   1.408  15.276  1.1418  1.3577 -2.5305
16536TIP3    H271100   5.869   1.515  15.232  0.1009  1.6051  0.2034
16537TIP3   OH271101   5.468   2.836   2.988  0.1683  0.2626 -0.2059
16537TIP3    H171102   5.500   2.878   2.909  0.8338  1.9594  0.9185
16537TIP3    H271103   5.372   2.839   2.981  0.1035 -2.4964 -2.3652
16538TIP3   OH271104   6.650   6.706   4.058  0.3050  0.3611 -0.4695
16538TIP3    H171105   6.633   6.672   4.145  0.9324 -1.7600 -1.1054
16538TIP3    H271106   6.612   6.640   3.999  0.2936  1.5145 -1.8090
16539TIP3   OH271107   4.828   4.487   4.229  0.5929  0.1847 -0.0579
16539TIP3    H171108   4.774   4.412   4.207  1.5320 -0.7983  0.8697
16539TIP3    H271109   4.783   4.562   4.189 -0.6412 -0.7852 -0.5435
16540TIP3   OH271110   5.203   5.972  11.422 -0.0839  0.1663 -0.1400
16540TIP3    H171111   5.135   6.040  11.417 -0.1367  0.3424  1.9034
16540TIP3    H271112   5.283   6.020  11.443 -0.2836 -0.4019  2.1927
16541TIP3   OH271113   5.091   5.891  12.338 -0.2798  0.0463  0.4941
16541TIP3    H171114   5.160   5.831  12.367  1.4313  2.2603  1.3753
16541TIP3    H271115   5.049   5.920  12.419  1.5294  2.8550  0.5888
16542TIP3   OH271116   5.138   6.608   4.999  0.4992 -0.1258 -0.1569
16542TIP3    H171117   5.064   6.549   4.984  0.1273  0.5117 -0.9105
16542TIP3    H271118   5.126   6.641   5.087 -1.0502  1.2389 -0.8251
16543TIP3   OH271119   0.754   2.282   5.648  0.0249  0.6276  0.5359
16543TIP3    H171120   0.687   2.295   5.581  2.2251 -0.9533 -2.2126
16543TIP3    H271121   0.813   2.357   5.637  0.7062  0.0641  0.2137
16544TIP3   OH271122   3.584   4.851   0.193  0.0096  0.5279 -0.3283
16544TIP3    H171123   3.568   4.866   0.100  0.8388 -0.3245 -0.6298
16544TIP3    H271124   3.637   4.926   0.221 -1.4098  1.5084 -0.1817
16545TIP3   OH271125   1.594   5.970  13.111  0.0346 -0.4526 -0.1750
16545TIP3    H171126   1.567   5.883  13.083 -0.0075 -0.3780 -0.3670
16545TIP3    H271127   1.513   6.012  13.141  0.2038 -0.8173  0.8399
16546TIP3   OH271128   0.423   1.832   1.259 -0.2214 -0.0817  0.3509
16546TIP3    H171129   0.412   1.804   1.168  1.8013  0.5579 -0.1454
16546TIP3    H271130   0.337   1.863   1.285 -0.4928  1.3208 -1.9071
16547TIP3   OH271131   5.815   0.262  12.447 -0.4575  1.0522  0.0368
16547TIP3    H171132   5.729   0.230  12.422 -0.3875  1.2613 -0.4846
16547TIP3    H271133   5.814   0.355  12.424 -0.2185  1.1355  0.3587
16548TIP3   OH271134   3.718   2.097  13.095  0.0166 -0.3435 -0.2193
16548TIP3    H171135   3.772   2.121  13.020  1.2539 -0.8136  0.4914
16548TIP3    H271136   3.781   2.073  13.163 -0.9956  2.0457  1.6995
16549TIP3   OH271137   5.300   2.181   0.320  0.0236  0.4634  0.6087
16549TIP3    H171138   5.291   2.170   0.226  0.8697  1.1782  0.4268
16549TIP3    H271139   5.333   2.271   0.331 -2.2958  1.2414  1.7348
16550TIP3   OH271140   1.748   4.180   3.776  0.2842  0.0148 -1.1769
16550TIP3    H171141   1.769   4.208   3.865 -1.6308 -0.5422 -0.5056
16550TIP3    H271142   1.672   4.122   3.786  0.3537 -0.4857 -3.1235
16551TIP3   OH271143   3.304   2.970   6.571  0.6539  0.4078  0.1425
16551TIP3    H171144   3.319   3.047   6.515  1.8407 -0.9683 -1.5213
16551TIP3    H271145   3.386   2.958   6.618  1.6025 -1.5304 -1.8503
16552TIP3   OH271146   6.493   0.591   5.462 -0.2040  0.1252 -0.0858
16552TIP3    H171147   6.515   0.643   5.384  0.5841 -0.6517 -0.4092
16552TIP3    H271148   6.545   0.630   5.532  0.2918 -0.1389 -0.3002
16553TIP3   OH271149   0.223   0.691   6.018 -0.3807  0.4529 -0.2773
16553TIP3    H171150   0.280   0.767   6.016 -0.1391  0.2606 -1.4898
16553TIP3    H271151   0.267   0.629   6.076 -1.8683  2.1500  2.9747
16554TIP3   OH271152   0.609   1.115   0.622  0.0962  0.1153  0.0142
16554TIP3    H171153   0.662   1.091   0.547 -0.1004  0.6748 -0.3109
16554TIP3    H271154   0.577   1.203   0.602 -0.0978  0.2038  0.6726
16555TIP3   OH271155   0.907   5.608   2.933  0.4773  0.3951 -0.0700
16555TIP3    H171156   0.878   5.538   2.874 -1.5249  0.7600  0.4001
16555TIP3    H271157   0.994   5.630   2.902  1.0557 -2.0807 -0.4359
16556TIP3   OH271158   5.697   1.932   0.945 -0.3603 -0.5235  0.4623
16556TIP3    H171159   5.664   1.946   1.034 -1.2870 -0.3201  0.0980
16556TIP3    H271160   5.685   2.016   0.901  4.1428  0.8303  1.3094
16557TIP3   OH271161   5.861   3.113   1.418  0.0968 -0.3525 -0.6029
16557TIP3    H171162   5.854   3.201   1.454 -0.6752 -0.3979 -0.6262
16557TIP3    H271163   5.900   3.125   1.332 -1.8803  0.2093 -1.4873
16558TIP3   OH271164   6.438   3.978  12.844  0.0405  0.1366  0.2707
16558TIP3    H171165   6.459   4.003  12.934 -1.5995  2.3878  0.1080
16558TIP3    H271166   6.371   3.910  12.854  0.3052 -0.0631  0.7427
16559TIP3   OH271167   0.167   6.660   2.143 -0.1770 -0.4090  0.3420
16559TIP3    H171168   0.117   6.587   2.180  0.5259 -0.3118  1.5269
16559TIP3    H271169   0.101   6.726   2.122 -1.0287 -1.9284 -2.2417
16560TIP3   OH271170   3.174   5.828  16.633  0.4035 -0.1056  0.1599
16560TIP3    H171171   3.163   5.787  16.719 -0.9960 -1.7471 -0.7497
16560TIP3    H271172   3.114   5.903  16.636  1.6443  0.9053  1.1842
16561TIP3   OH271173   4.792   0.370  13.472 -0.4413  0.7870 -0.5400
16561TIP3    H171174   4.780   0.409  13.386 -0.2676  0.4395 -0.7204
16561TIP3    H271175   4.721   0.307  13.480  0.5852 -0.4882 -1.1676
16562TIP3   OH271176   4.013   1.191  11.555  0.2879  0.1000  0.4807
16562TIP3    H171177   3.944   1.212  11.493  0.6528  1.1938  0.4131
16562TIP3    H271178   3.967   1.172  11.637 -0.1174  0.1338  0.2613
16563TIP3   OH271179   0.467   2.522   5.921 -0.3578 -0.3729  0.5731
16563TIP3    H171180   0.469   2.561   5.834  1.7884 -1.0886  0.2497
16563TIP3    H271181   0.397   2.570   5.967 -0.5065  1.0573 -1.0397
16564TIP3   OH271182   1.237   4.977  13.178 -0.2381  0.3647 -0.2236
16564TIP3    H171183   1.207   4.931  13.100 -2.7641  1.3160  0.0846
16564TIP3    H271184   1.297   5.044  13.145  2.1879 -1.9383 -0.8177
16565TIP3   OH271185   5.827   0.103   1.666  0.6941  0.1028 -0.5096
16565TIP3    H171186   5.749   0.139   1.625  0.9922  0.7383 -0.5401
16565TIP3    H271187   5.806   0.011   1.683 -0.9625  0.7954  1.6339
16566TIP3   OH271188   6.328   3.865  14.005  0.2694 -0.3109  0.0683
16566TIP3    H171189   6.388   3.939  14.007 -0.5166  0.3343  1.4170
16566TIP3    H271190   6.265   3.886  13.937  0.5670 -0.1694 -0.1647
16567TIP3   OH271191   1.060   0.564  11.354  0.1241  0.2204  0.5427
16567TIP3    H171192   1.053   0.610  11.271 -0.2103  0.4881  0.7192
16567TIP3    H271193   1.147   0.587  11.387  0.5863 -0.5209 -0.1034
16568TIP3   OH271194   5.082   0.731   4.071 -0.2463  0.5074 -0.4537
16568TIP3    H171195   5.042   0.812   4.041  0.1100  0.8787  0.0649
16568TIP3    H271196   5.127   0.754   4.152  0.8075  0.0516 -0.8795
16569TIP3   OH271197   5.120   3.887  15.678 -0.6700  0.3574  0.1071
16569TIP3    H171198   5.132   3.982  15.674  0.4048  0.1945 -1.1094
16569TIP3    H271199   5.026   3.875  15.687 -1.1632  1.5133 -2.5541
16570TIP3   OH271200   0.279   0.447   0.149 -0.0440 -0.1290 -0.8011
16570TIP3    H171201   0.274   0.422   0.056 -1.4577 -1.0469 -0.5165
16570TIP3    H271202   0.206   0.400   0.189 -1.7323  3.0837  0.1557
16571TIP3   OH271203   4.405   3.270  11.108 -0.4433  0.2785  0.5085
16571TIP3    H171204   4.328   3.226  11.071  0.0112 -0.0713 -0.0580
16571TIP3    H271205   4.397   3.361  11.079  0.1973 -0.1097 -0.9874
16572TIP3   OH271206   3.066   0.668  16.269 -0.0174 -0.4679  0.2864
16572TIP3    H171207   3.073   0.612  16.191 -3.8756 -0.1968 -0.4367
16572TIP3    H271208   3.097   0.613  16.341 -0.5179 -2.3386 -0.8617
16573TIP3   OH271209   6.606   2.580  14.454 -0.1538  0.3504  0.4865
16573TIP3    H171210   6.680   2.605  14.399  0.0052 -1.9222 -0.4225
16573TIP3    H271211   6.645   2.549  14.535 -0.1447 -0.1580  0.2894
16574TIP3   OH271212   3.163   3.460   5.830  0.2681  0.1268 -0.1481
16574TIP3    H171213   3.150   3.528   5.896  1.4785 -0.0795  0.3133
16574TIP3    H271214   3.223   3.500   5.766 -0.0481 -0.0534 -0.5649
16575TIP3   OH271215   2.205   1.303   1.570  0.1120 -0.0937  0.1017
16575TIP3    H171216   2.152   1.257   1.505 -0.4801  0.8724 -0.1276
16575TIP3    H271217   2.205   1.394   1.541  1.7449 -0.0357  0.2257
16576TIP3   OH271218   3.956   4.524  14.548 -0.4051 -0.2068 -0.5209
16576TIP3    H171219   3.922   4.442  14.582 -2.3200  1.8715  3.1626
16576TIP3    H271220   4.043   4.532  14.588 -1.4114  0.8003  1.6167
16577TIP3   OH271221   2.576   4.890   4.520 -0.1181 -0.5503 -0.1330
16577TIP3    H171222   2.644   4.913   4.457  0.0982  0.1667  0.3399
16577TIP3    H271223   2.527   4.971   4.533  0.9279 -0.1638  1.9111
16578TIP3   OH271224   0.566   2.674  12.121 -0.0276  0.1299  0.2299
16578TIP3    H171225   0.483   2.634  12.096 -0.8535  0.8947  1.5818
16578TIP3    H271226   0.563   2.761  12.082  0.8039 -0.3278 -0.9080
16579TIP3   OH271227   2.662   1.994   2.536 -0.3264  0.4408 -0.0791
16579TIP3    H171228   2.724   1.978   2.464  1.0188  0.1041  1.1061
16579TIP3    H271229   2.670   2.088   2.554  0.2099  0.3125  0.3807
16580TIP3   OH271230   4.706   6.784   0.488  0.4569 -0.0127  0.0857
16580TIP3    H171231   4.654   6.719   0.441  1.6694 -0.6773 -0.3926
16580TIP3    H271232   4.642   6.839   0.532 -0.6554 -0.4671 -0.9099
16581TIP3   OH271233   5.226   5.004   2.993  0.1315  0.1009 -0.1461
16581TIP3    H171234   5.234   4.914   3.025 -0.2035 -0.6709 -2.1155
16581TIP3    H271235   5.278   5.006   2.913 -0.7155  1.3779 -0.6959
16582TIP3   OH271236   3.028   1.254  15.155  0.0673 -0.4767 -0.2511
16582TIP3    H171237   3.070   1.168  15.151 -0.4777 -0.7837  0.4855
16582TIP3    H271238   2.951   1.241  15.210  1.2210  1.0150  1.8327
16583TIP3   OH271239   1.815   1.893  14.755 -0.1705 -0.2327 -0.3120
16583TIP3    H171240   1.814   1.987  14.737  2.0102 -0.2712 -0.9292
16583TIP3    H271241   1.870   1.884  14.833  1.7331 -1.1318 -1.6687
16584TIP3   OH271242   4.271   3.992   5.356 -0.2236  0.7323  0.2209
16584TIP3    H171243   4.261   3.912   5.409 -0.6309  1.1918  0.8493
16584TIP3    H271244   4.364   3.995   5.335 -0.1139  0.3687  0.6371
16585TIP3   OH271245   6.516   3.748  16.942  0.3169  0.3110  0.0775
16585TIP3    H171246   6.501   3.686  17.014  1.0782 -0.4216 -0.3742
16585TIP3    H271247   6.610   3.768  16.946  0.1197  1.3019  0.0983
16586TIP3   OH271248   6.334   0.234   6.041  0.6112  0.7145  0.2820
16586TIP3    H171249   6.366   0.299   6.104  1.1649  1.0216 -0.3064
16586TIP3    H271250   6.277   0.178   6.093  1.9253  0.2780  1.3393
16587TIP3   OH271251   6.563   5.526   2.564 -0.0743 -0.0357  0.0407
16587TIP3    H171252   6.564   5.594   2.633 -1.6819 -1.7552  1.9054
16587TIP3    H271253   6.528   5.449   2.608  0.5762 -1.7666 -2.3174
16588TIP3   OH271254   6.484   1.857  13.239  0.0232  0.2345  0.5815
16588TIP3    H171255   6.475   1.803  13.317 -0.2906 -2.0189 -0.9333
16588TIP3    H271256   6.485   1.795  13.166 -0.0611  2.2618 -1.2557
16589TIP3   OH271257   0.590   1.038   2.697  0.2198  0.6300 -0.0531
16589TIP3    H171258   0.563   0.946   2.706 -0.2613  0.9644  3.1942
16589TIP3    H271259   0.520   1.079   2.646 -0.1424 -0.5455 -0.5392
16590TIP3   OH271260   6.768   6.190  11.143  0.0149 -0.1157 -0.3112
16590TIP3    H171261   6.715   6.213  11.219 -1.9243  0.1378 -1.6383
16590TIP3    H271262   6.703   6.175  11.073  1.7164  0.3228 -2.0766
16591TIP3   OH271263   3.658   0.048  13.566 -0.3147 -0.4481 -0.2558
16591TIP3    H171264   3.670   0.068  13.659  0.1625  0.5632 -0.5232
16591TIP3    H271265   3.746   0.030  13.533 -0.2388  0.9257 -0.8798
16592TIP3   OH271266   2.349   4.594  11.191 -1.1223  0.0575  0.1906
16592TIP3    H171267   2.331   4.576  11.099 -0.0558  3.0505 -0.7522
16592TIP3    H271268   2.336   4.689  11.199  0.8082  0.2204  2.6081
16593TIP3   OH271269   2.344   3.358  15.493  0.0126 -0.5127  0.4001
16593TIP3    H171270   2.340   3.452  15.476  3.3218 -0.1229  1.0141
16593TIP3    H271271   2.338   3.351  15.588 -1.6972 -1.1031  0.2705
16594TIP3   OH271272   5.605   3.104  16.479 -0.5189 -0.6409 -0.6618
16594TIP3    H171273   5.655   3.094  16.398 -1.0268  1.7953 -1.3598
16594TIP3    H271274   5.576   3.195  16.478 -0.9836 -0.6822  2.0406
16595TIP3   OH271275   0.367   0.945  11.158  0.1800  0.0522 -0.5315
16595TIP3    H171276   0.418   0.977  11.083  0.3268  1.3980  0.0991
16595TIP3    H271277   0.402   0.995  11.232 -0.7192 -0.4498  0.2368
16596TIP3   OH271278   3.466   5.905   6.097 -0.0641 -0.0082  0.4030
16596TIP3    H171279   3.531   5.838   6.079  0.3985 -0.0341  2.0548
16596TIP3    H271280   3.466   5.915   6.192 -0.9806  1.4813  0.2881
16597TIP3   OH271281   2.724   3.742  14.577  0.6147 -0.0260 -1.4536
16597TIP3    H171282   2.812   3.761  14.544  1.3832  0.3425  0.6337
16597TIP3    H271283   2.739   3.691  14.657 -0.9975  1.1526 -0.3441
16598TIP3   OH271284   1.230   5.357   3.298  0.1859  0.1323 -0.2413
16598TIP3    H171285   1.325   5.370   3.290  0.6315 -1.8525  1.1251
16598TIP3    H271286   1.215   5.353   3.393 -0.6983 -2.9135 -0.4352
16599TIP3   OH271287   3.412   3.204  10.897  0.1964 -0.4544 -0.1938
16599TIP3    H171288   3.370   3.258  10.964 -2.0047 -2.5141  0.2358
16599TIP3    H271289   3.506   3.214  10.912 -0.2198 -0.4906  2.9459
16600TIP3   OH271290   5.870   4.701  16.326 -0.3787  0.0069 -0.1369
16600TIP3    H171291   5.885   4.614  16.288 -2.8354 -0.8063  0.5617
16600TIP3    H271292   5.925   4.704  16.404 -0.3840 -0.9773 -0.0909
16601TIP3   OH271293   0.229   0.359   3.299 -0.0192  0.1568 -0.0876
16601TIP3    H171294   0.246   0.266   3.287  1.8444  0.5329 -0.7376
16601TIP3    H271295   0.137   0.364   3.327  0.5593 -2.0323  2.5266
16602TIP3   OH271296   1.587   5.253   3.117 -0.0939  0.0740  0.2972
16602TIP3    H171297   1.529   5.261   3.041 -1.4535 -0.0700  1.2888
16602TIP3    H271298   1.553   5.178   3.165  1.8252 -0.9213  0.1690
16603TIP3   OH271299   2.327   5.170  10.664 -0.0149 -0.7883 -0.2892
16603TIP3    H171300   2.384   5.128  10.601 -0.6607 -0.8609 -0.8315
16603TIP3    H271301   2.280   5.237  10.614  1.4289  1.0540  0.6623
16604TIP3   OH271302   1.413   0.860   1.590  0.0107  0.4735 -0.5331
16604TIP3    H171303   1.469   0.914   1.646  0.1683  1.1197 -1.3051
16604TIP3    H271304   1.332   0.850   1.640  1.2463 -1.6833  1.2635
16605TIP3   OH271305   4.183   1.284   2.128 -0.0130  0.3235  0.3683
16605TIP3    H171306   4.157   1.314   2.041 -0.0375  1.5974  0.7978
16605TIP3    H271307   4.278   1.296   2.131  0.2015 -1.0997  0.0176
16606TIP3   OH271308   4.639   1.271  13.794 -0.0479 -0.4460 -0.3272
16606TIP3    H171309   4.629   1.176  13.801  0.3769 -0.4170  1.0414
16606TIP3    H271310   4.711   1.292  13.854 -0.9913  0.8950  0.3963
16607TIP3   OH271311   3.340   0.970  13.115 -0.0976 -0.1487 -0.2847
16607TIP3    H171312   3.383   0.973  13.201 -0.2454 -1.9046 -0.1121
16607TIP3    H271313   3.347   0.879  13.088 -1.4574  0.0464 -1.4248
16608TIP3   OH271314   2.634   2.324   0.043 -0.2424  0.4793 -0.0634
16608TIP3    H171315   2.577   2.284  -0.023 -1.0329 -0.1649  0.9932
16608TIP3    H271316   2.575   2.367   0.104  0.2723 -1.3669  1.8263
16609TIP3   OH271317   2.293   1.785   4.040  0.4939  0.7859 -0.1507
16609TIP3    H171318   2.357   1.856   4.034 -0.1107  1.3741  0.1750
16609TIP3    H271319   2.275   1.778   4.134  1.0351 -0.2432 -0.1211
16610TIP3   OH271320   4.884   3.534   5.754  0.0625 -0.3706  0.6433
16610TIP3    H171321   4.894   3.621   5.792  1.2521 -0.5144  0.6706
16610TIP3    H271322   4.799   3.538   5.708  0.1593  0.8351  0.5369
16611TIP3   OH271323   2.387   0.133   3.512 -0.5355  0.0498 -0.4984
16611TIP3    H171324   2.452   0.203   3.502 -0.4103  0.2012  1.1691
16611TIP3    H271325   2.320   0.170   3.569 -2.0595 -0.1602 -2.0489
16612TIP3   OH271326   6.615   4.549  14.663  0.1301  0.2991  0.4336
16612TIP3    H171327   6.547   4.496  14.621  0.2337  0.9430 -0.5800
16612TIP3    H271328   6.590   4.639  14.643  1.4747  0.5309 -0.2760
16613TIP3   OH271329   0.760   5.314  12.726  0.3235 -0.4189 -0.0527
16613TIP3    H171330   0.725   5.359  12.802  0.3992  0.5414 -0.5741
16613TIP3    H271331   0.701   5.240  12.713  0.5023 -0.7919  1.1220
16614TIP3   OH271332   5.611   4.365   3.288  0.1511 -0.4349  0.0001
16614TIP3    H171333   5.587   4.300   3.222  0.8861 -1.1213  0.3917
16614TIP3    H271334   5.670   4.319   3.347  0.6764  0.5856  0.3017
16615TIP3   OH271335   2.018   3.213  11.550 -0.0766  0.0600 -0.1408
16615TIP3    H171336   2.025   3.239  11.458  1.7378 -0.5842 -0.2373
16615TIP3    H271337   2.002   3.119  11.548  1.3955 -0.2342  0.1467
16616TIP3   OH271338   6.760   6.771   0.916  0.5353  0.0156 -0.0629
16616TIP3    H171339   6.730   6.808   0.999 -0.8216  0.8074 -0.8585
16616TIP3    H271340   6.683   6.725   0.881  0.2196  1.8794 -2.0545
16617TIP3   OH271341   1.569   5.790  12.637  0.0945  0.1921 -0.0839
16617TIP3    H171342   1.581   5.695  12.635  0.8560  0.1983  2.3170
16617TIP3    H271343   1.655   5.826  12.617  0.4689  0.3267  1.6505
16618TIP3   OH271344   4.071   6.347   4.901  0.9585 -0.4598 -0.5490
16618TIP3    H171345   4.091   6.363   4.808 -0.4612  0.5000 -0.7241
16618TIP3    H271346   3.990   6.395   4.916  1.4221 -0.2164  1.3291
16619TIP3   OH271347   0.572   6.183  15.243 -0.3557  0.0152 -0.1417
16619TIP3    H171348   0.642   6.150  15.187 -0.4377  0.6188 -0.6001
16619TIP3    H271349   0.508   6.111  15.246  0.4879 -0.7292  0.6735
16620TIP3   OH271350   0.294   6.283  16.997 -0.2846 -0.9343 -0.7138
16620TIP3    H171351   0.337   6.256  17.078 -1.7455  2.7700  1.5503
16620TIP3    H271352   0.210   6.239  16.998 -1.8255  1.6986  1.8864
16621TIP3   OH271353   0.425   5.900  12.638  0.3139 -0.1399  0.3981
16621TIP3    H171354   0.477   5.845  12.695 -0.3486 -2.1646 -0.8496
16621TIP3    H271355   0.405   5.978  12.690  0.8532 -1.3100  2.4151
16622TIP3   OH271356   0.101   1.203  15.734  0.1331  0.0402 -0.2631
16622TIP3    H171357   0.172   1.141  15.747  0.9100  0.7279 -1.1008
16622TIP3    H271358   0.050   1.200  15.815  1.3405 -0.1764  0.4990
16623TIP3   OH271359   3.421   4.491   4.618  0.4502  0.2851 -0.0678
16623TIP3    H171360   3.452   4.415   4.569 -1.5081 -0.8993  0.4382
16623TIP3    H271361   3.415   4.461   4.709  1.2247  1.5660  0.4387
16624TIP3   OH271362   3.119   6.613   5.605 -0.1244 -0.0106  0.1291
16624TIP3    H171363   3.160   6.613   5.692  0.4598 -1.7885 -0.0933
16624TIP3    H271364   3.040   6.666   5.615  0.0659  0.0298  1.6751
16625TIP3   OH271365   2.890   5.694  17.126 -0.1976 -0.3234  0.1975
16625TIP3    H171366   2.923   5.691  17.216  0.0677  0.8761  0.1621
16625TIP3    H271367   2.957   5.649  17.074 -1.3347 -2.8936  0.8283
16626TIP3   OH271368   5.358   3.215  15.291  0.0331  0.0564  0.1077
16626TIP3    H171369   5.308   3.268  15.229  0.0737  0.7794  0.6897
16626TIP3    H271370   5.434   3.269  15.314  0.0377 -0.2168  0.7600
16627TIP3   OH271371   0.489   4.921   0.642 -0.0386  0.3475 -0.2615
16627TIP3    H171372   0.573   4.937   0.599  1.0611  0.8146  1.8988
16627TIP3    H271373   0.483   4.990   0.709 -0.6477 -1.4663  1.6655
16628TIP3   OH271374   4.832   4.559   2.605 -0.7315 -0.1599 -0.3355
16628TIP3    H171375   4.778   4.483   2.585 -0.4615 -1.5060  3.3793
16628TIP3    H271376   4.921   4.532   2.581 -0.7098 -0.8198  0.4747
16629TIP3   OH271377   4.050   3.459   3.313 -0.0911 -0.4488  0.5241
16629TIP3    H171378   4.013   3.528   3.367  1.4988  2.2089 -1.5277
16629TIP3    H271379   4.109   3.412   3.371  0.4467  1.3542  1.5012
16630TIP3   OH271380   6.668   0.053  14.236 -0.1977 -0.6369  0.5636
16630TIP3    H171381   6.707   0.140  14.223 -1.1920 -0.3697 -0.8996
16630TIP3    H271382   6.601   0.067  14.303 -0.5493 -0.1973  0.1270
16631TIP3   OH271383   0.884   6.085   3.704 -0.3759 -0.2700  0.1711
16631TIP3    H171384   0.814   6.142   3.737 -0.4922 -0.1466 -0.2866
16631TIP3    H271385   0.935   6.141   3.645 -1.0183 -0.8641 -0.9904
16632TIP3   OH271386   4.022   4.534  10.741  0.1272  0.0327 -0.1639
16632TIP3    H171387   4.011   4.443  10.713 -0.1965  0.1197 -0.3282
16632TIP3    H271388   4.021   4.530  10.837  1.2238 -0.2661 -0.1449
16633TIP3   OH271389   6.606   6.074  14.612 -0.1216 -0.1108 -0.2735
16633TIP3    H171390   6.695   6.039  14.607  0.5447  1.4718 -0.1589
16633TIP3    H271391   6.563   6.022  14.680  1.2582  0.1864  0.8645
16634TIP3   OH271392   2.601   1.753   4.572 -0.8917  0.2584  0.3536
16634TIP3    H171393   2.596   1.847   4.588  0.3351  0.4246 -0.1496
16634TIP3    H271394   2.515   1.720   4.597 -1.0978  1.4034  1.2397
16635TIP3   OH271395   1.198   4.936   0.905  0.6575 -0.4596  0.4339
16635TIP3    H171396   1.195   5.030   0.920 -0.2112 -0.1407 -1.4324
16635TIP3    H271397   1.154   4.924   0.821  0.7579 -2.5387  0.6329
16636TIP3   OH271398   1.919   5.689  12.336  0.2906  0.1610 -0.5610
16636TIP3    H171399   1.884   5.678  12.248  0.8739 -0.5130 -0.7156
16636TIP3    H271400   1.975   5.613  12.349  2.1295  1.4498 -0.5310
16637TIP3   OH271401   4.207   4.562  14.653 -0.6400 -0.5408  0.5349
16637TIP3    H171402   4.275   4.626  14.633  0.1811 -0.3787  3.3615
16637TIP3    H271403   4.239   4.481  14.613 -0.1596  0.1220 -0.4697
16638TIP3   OH271404   0.111   0.496   5.837 -0.3641  0.4714  0.0087
16638TIP3    H171405   0.190   0.442   5.838  0.2275  1.2516  2.5825
16638TIP3    H271406   0.141   0.582   5.868 -1.7264  1.6716 -1.7660
16639TIP3   OH271407   5.016   4.229  14.086  0.5104 -0.5161  0.4524
16639TIP3    H171408   5.100   4.223  14.039 -0.3328 -0.8491 -1.0643
16639TIP3    H271409   4.968   4.297  14.040 -0.2345 -0.6362  1.0368
16640TIP3   OH271410   3.550   5.562   3.860  0.1023  0.0086  0.2746
16640TIP3    H171411   3.567   5.623   3.788 -1.1074 -0.4280 -0.3916
16640TIP3    H271412   3.523   5.481   3.817 -2.0377  0.1690  1.2181
16641TIP3   OH271413   3.914   5.074   5.377 -0.0025  0.5516  0.2869
16641TIP3    H171414   3.934   5.085   5.284  2.4346  2.3316  0.9182
16641TIP3    H271415   3.856   5.147   5.398 -0.3649  0.2816  0.2482
16642TIP3   OH271416   2.202   4.896   0.421  0.0785 -0.2609  0.3705
16642TIP3    H171417   2.184   4.976   0.471  2.5110  0.4191  0.3017
16642TIP3    H271418   2.223   4.831   0.488  2.9782  0.5557  0.4085
16643TIP3   OH271419   0.484   2.675   1.481 -0.1021  0.2740  0.4336
16643TIP3    H171420   0.571   2.673   1.442 -0.0148  0.5563  0.6112
16643TIP3    H271421   0.487   2.747   1.544  0.3308 -1.2955  2.2944
16644TIP3   OH271422   4.000   4.308   3.280 -0.1081  0.0124  0.2226
16644TIP3    H171423   4.039   4.239   3.334 -1.6639 -1.2646 -0.2254
16644TIP3    H271424   3.988   4.382   3.340  1.0268 -0.2923  0.8523
16645TIP3   OH271425   6.724   3.161  16.932 -0.4329 -0.2621 -0.2080
16645TIP3    H171426   6.636   3.137  16.960 -0.9034 -0.1078 -1.4805
16645TIP3    H271427   6.737   3.112  16.851 -0.3156  1.5863 -1.3565
16646TIP3   OH271428   6.048   6.681  17.034 -0.6276 -0.2474  0.1361
16646TIP3    H171429   6.105   6.754  17.056 -1.0206  0.5409 -1.3308
16646TIP3    H271430   5.959   6.714  17.049 -0.7973 -0.6044 -0.0479
16647TIP3   OH271431   1.167   1.956  11.955 -0.0938 -0.2677 -0.1717
16647TIP3    H171432   1.191   1.991  11.869  1.7424  0.3087  0.5068
16647TIP3    H271433   1.249   1.960  12.006 -0.7276 -2.0874  1.1131
16648TIP3   OH271434   3.378   3.119  14.983 -0.1313  0.5029 -0.3386
16648TIP3    H171435   3.390   3.119  14.888  1.4155  2.8483 -0.2452
16648TIP3    H271436   3.283   3.119  14.995 -0.3524  0.0346 -1.8646
16649TIP3   OH271437   3.567   0.146  13.282 -0.0487 -0.5951 -0.0559
16649TIP3    H171438   3.608   0.098  13.354  0.1080  0.9938  0.9436
16649TIP3    H271439   3.561   0.081  13.211 -0.1434 -2.1818  1.3338
16650TIP3   OH271440   1.208   6.502  16.654  0.5122  0.6933  0.5846
16650TIP3    H171441   1.125   6.550  16.650  0.4303  0.5289  0.2044
16650TIP3    H271442   1.239   6.501  16.563  0.2656 -0.3911  0.4921
16651TIP3   OH271443   2.691   2.279   2.639 -0.0007  0.0471 -0.2087
16651TIP3    H171444   2.608   2.303   2.680  0.0859  0.4911 -0.2804
16651TIP3    H271445   2.747   2.255   2.713  0.4242  1.6786  0.0454
16652TIP3   OH271446   0.937   4.905   4.624  0.3252 -0.5064  0.9300
16652TIP3    H171447   0.905   4.908   4.534 -0.3621 -0.1645  1.1816
16652TIP3    H271448   0.991   4.826   4.627  1.9106  0.4605 -0.2852
16653TIP3   OH271449   5.176   3.395  15.135  0.2747 -0.1151 -0.3423
16653TIP3    H171450   5.265   3.431  15.131  0.2037  0.2522  0.9326
16653TIP3    H271451   5.120   3.467  15.108  0.3733 -0.4445 -1.4611
16654TIP3   OH271452   1.104   0.778   6.117 -0.3768  0.3834 -0.1858
16654TIP3    H171453   1.130   0.720   6.189  0.0255 -0.0971 -0.7098
16654TIP3    H271454   1.141   0.863   6.140  0.6661 -0.0202 -0.3516
16655TIP3   OH271455   2.627   0.935  15.586 -0.0695  0.2586 -0.4668
16655TIP3    H171456   2.713   0.934  15.544  0.8912 -0.5495  1.3883
16655TIP3    H271457   2.602   0.843  15.594  0.1593  0.3184  1.3711
16656TIP3   OH271458   1.946   3.097  16.015  0.0006  0.0144 -0.0008
16656TIP3    H171459   1.959   3.172  16.074 -0.7853  0.9565 -0.9886
16656TIP3    H271460   1.986   3.124  15.933 -0.9211 -0.3560 -0.5786
16657TIP3   OH271461   0.667   4.416  10.720  0.4683  0.1876  0.0498
16657TIP3    H171462   0.645   4.441  10.630 -0.3167  0.4677  0.3088
16657TIP3    H271463   0.614   4.338  10.736 -0.6272  1.0480  0.7888
16658TIP3   OH271464   3.934   5.383   4.508 -0.4013  0.4266  0.0450
16658TIP3    H171465   3.966   5.430   4.584  0.9467 -1.0781  0.4638
16658TIP3    H271466   4.013   5.350   4.465 -1.2505 -2.0054  0.1750
16659TIP3   OH271467   1.100   2.702  12.324  0.0331  0.3169 -0.2392
16659TIP3    H171468   1.096   2.629  12.386  0.7457 -0.9326 -1.6139
16659TIP3    H271469   1.129   2.776  12.376 -1.9126 -0.0262  1.4732
16660TIP3   OH271470   3.567   5.088  12.932  0.7846 -0.5165 -0.6674
16660TIP3    H171471   3.597   5.134  13.011  1.8187 -0.8696 -0.8381
16660TIP3    H271472   3.507   5.149  12.890 -1.1260 -0.9652  1.2527
16661TIP3   OH271473   2.287   4.330   1.236  0.1933 -0.0635 -0.5948
16661TIP3    H171474   2.223   4.307   1.303  0.4216  0.8813 -0.0489
16661TIP3    H271475   2.337   4.249   1.223  1.7571  0.3485  2.1383
16662TIP3   OH271476   6.099   1.702  11.790  0.2802  0.2062  0.2043
16662TIP3    H171477   6.106   1.620  11.742  0.6419  1.1432 -1.4378
16662TIP3    H271478   6.011   1.700  11.828  0.8508 -1.6039  1.5690
16663TIP3   OH271479   4.828   4.647   1.735  1.0565 -0.8246  0.4202
16663TIP3    H171480   4.850   4.643   1.642 -1.9017 -0.3217 -0.4356
16663TIP3    H271481   4.877   4.722   1.768  0.4045  0.4700 -1.3765
16664TIP3   OH271482   2.809   1.982  16.262 -0.4098  0.6048 -0.1290
16664TIP3    H171483   2.758   1.946  16.190  0.1167  1.7696 -1.1145
16664TIP3    H271484   2.823   1.908  16.321 -0.3132 -0.5235 -1.5237
16665TIP3   OH271485   5.832   5.327   4.051 -0.1779 -0.6700 -0.5433
16665TIP3    H171486   5.742   5.339   4.081  0.1093  0.0962  0.0357
16665TIP3    H271487   5.843   5.232   4.042 -0.4663 -0.8862  1.1659
16666TIP3   OH271488   5.768   1.164   3.266 -0.2182 -0.3608 -0.2476
16666TIP3    H171489   5.825   1.088   3.254  1.4006  0.7140  0.3335
16666TIP3    H271490   5.805   1.231   3.209 -1.8537 -0.0692 -1.0482
16667TIP3   OH271491   5.409   2.451   2.682  0.1539  0.3105 -0.3869
16667TIP3    H171492   5.324   2.445   2.638  0.9597  0.7775 -2.0823
16667TIP3    H271493   5.460   2.511   2.628  1.7325 -0.3198  0.3412
16668TIP3   OH271494   4.621   5.178  14.015  0.0991 -0.7671 -0.0568
16668TIP3    H171495   4.686   5.133  13.960 -0.1429  0.5571 -1.4803
16668TIP3    H271496   4.635   5.271  13.997 -0.0676 -0.2804  2.0794
16669TIP3   OH271497   0.151   3.005   1.154 -0.2224 -0.0948  0.1569
16669TIP3    H171498   0.092   2.986   1.227 -1.7492  0.4422 -0.8634
16669TIP3    H271499   0.214   2.934   1.154 -1.3496 -1.1281  0.8479
16670TIP3   OH271500   2.140   0.961   0.462  0.4874  0.2676 -0.3626
16670TIP3    H171501   2.092   0.928   0.385  0.6448  0.8732 -0.7230
16670TIP3    H271502   2.095   1.042   0.485 -0.0796 -0.3277  0.7070
16671TIP3   OH271503   2.616   1.894  12.378  0.3258 -0.1609  0.4319
16671TIP3    H171504   2.616   1.912  12.472  1.0751  0.2378  0.3663
16671TIP3    H271505   2.533   1.929  12.346 -0.2641 -0.9585  1.0619
16672TIP3   OH271506   4.208   2.739  15.139 -0.0684  0.4942  0.3599
16672TIP3    H171507   4.128   2.703  15.177  0.9580 -0.0040  2.1921
16672TIP3    H271508   4.229   2.813  15.196  1.0211  0.3088  0.2141
16673TIP3   OH271509   5.300   1.009  15.649 -0.0611 -0.3471  0.1041
16673TIP3    H171510   5.285   1.038  15.739 -2.1585 -0.2522 -0.2216
16673TIP3    H271511   5.212   0.991  15.615  0.5910  0.5674 -2.2440
16674TIP3   OH271512   3.792   1.992   4.316 -0.0894 -0.3562  0.2358
16674TIP3    H171513   3.728   2.059   4.341  0.3818 -0.1956  1.0420
16674TIP3    H271514   3.875   2.038   4.311 -0.2677 -0.1575 -2.6650
16675TIP3   OH271515   4.911   1.723  13.783 -0.2127 -0.1976  0.6828
16675TIP3    H171516   4.865   1.772  13.714  0.4277 -1.1465 -0.4479
16675TIP3    H271517   4.841   1.682  13.834 -0.7135  0.9053  0.9265
16676TIP3   OH271518   0.160   2.530  12.190  0.0679 -0.4651  0.1149
16676TIP3    H171519   0.122   2.452  12.150 -0.2400 -1.2246  1.8016
16676TIP3    H271520   0.240   2.546  12.141 -0.7666 -0.7563 -1.4168
16677TIP3   OH271521   0.336   2.187   0.669 -0.0677  0.0993  0.0997
16677TIP3    H171522   0.288   2.105   0.657 -1.0259  0.2994  2.0717
16677TIP3    H271523   0.267   2.253   0.679  0.6299  0.7183  0.9914
16678TIP3   OH271524   2.943   5.155   1.610  0.2825  0.1133 -0.0091
16678TIP3    H171525   2.922   5.131   1.520 -1.8452  2.8936 -0.3934
16678TIP3    H271526   2.886   5.100   1.664  0.8810 -0.8947 -0.3809
16679TIP3   OH271527   2.927   4.111   1.865  0.1499 -0.2896 -1.0525
16679TIP3    H171528   2.865   4.165   1.914  1.6045 -1.1506  1.9274
16679TIP3    H271529   2.885   4.026   1.857  0.0081 -0.2120 -1.1418
16680TIP3   OH271530   4.815   0.859  15.335 -0.1410  0.1167 -0.1795
16680TIP3    H171531   4.907   0.844  15.313  0.0266 -0.1162  0.6404
16680TIP3    H271532   4.784   0.920  15.268  0.9809  1.2792  0.2986
16681TIP3   OH271533   2.439   5.979  11.711  0.9405 -0.4161 -0.2939
16681TIP3    H171534   2.374   5.986  11.641  0.9961  0.4870 -0.2687
16681TIP3    H271535   2.418   6.050  11.771  2.0537  0.0100 -0.3791
16682TIP3   OH271536   6.277   5.956  17.090 -0.1764  0.0055  0.0985
16682TIP3    H171537   6.274   5.916  17.003  0.4879  0.9885 -0.3901
16682TIP3    H271538   6.241   6.044  17.077  2.9654  1.4093  0.0849
16683TIP3   OH271539   1.380   1.856  13.859  0.4641 -0.0388  0.1923
16683TIP3    H171540   1.356   1.943  13.826 -0.4531  0.4436  2.0035
16683TIP3    H271541   1.323   1.796  13.811  0.8615  0.3573 -0.8245
16684TIP3   OH271542   0.549   3.245   2.512 -0.5903  0.5085  0.0275
16684TIP3    H171543   0.605   3.322   2.529  1.5390 -1.2684  1.6664
16684TIP3    H271544   0.603   3.189   2.456 -0.9141 -1.0227  1.2049
16685TIP3   OH271545   1.393   4.736   2.474 -0.1013  0.3390  0.1160
16685TIP3    H171546   1.452   4.679   2.425 -2.0274  0.4663 -2.6238
16685TIP3    H271547   1.438   4.821   2.477 -0.2372  0.5621 -2.3129
16686TIP3   OH271548   2.217   3.595  15.518 -0.2419  0.3012  0.0736
16686TIP3    H171549   2.232   3.615  15.610  1.3718  1.0099 -0.3105
16686TIP3    H271550   2.122   3.596  15.508 -0.6004 -2.0787  2.1895
16687TIP3   OH271551   6.313   2.691  12.371 -0.1340  0.5187 -0.6516
16687TIP3    H171552   6.287   2.712  12.461 -1.2422 -0.5466 -0.7024
16687TIP3    H271553   6.315   2.596  12.368  0.6997  0.5529 -1.5486
16688TIP3   OH271554   0.983   2.122   0.360 -0.2467  0.1342  0.2977
16688TIP3    H171555   1.063   2.074   0.342 -0.9514 -0.5365 -1.2218
16688TIP3    H271556   0.982   2.132   0.455  0.9491 -1.0511  0.4618
16689TIP3   OH271557   0.326   5.788   3.497  0.6134 -0.7068 -0.3060
16689TIP3    H171558   0.299   5.750   3.580  0.6703 -0.9111 -0.3778
16689TIP3    H271559   0.244   5.810   3.453  0.5839  1.7206  0.8242
16690TIP3   OH271560   3.651   2.281   2.914  0.0566 -0.5172  0.4125
16690TIP3    H171561   3.578   2.316   2.864 -0.2247 -1.3546  0.2299
16690TIP3    H271562   3.692   2.358   2.954 -1.5586 -0.1224  1.3924
16691TIP3   OH271563   5.406   2.280  16.712  0.4054 -0.2110  0.3585
16691TIP3    H171564   5.407   2.190  16.679 -0.3733 -0.5751  1.2890
16691TIP3    H271565   5.455   2.330  16.646 -1.7457 -0.7572 -1.8309
16692TIP3   OH271566   5.259   4.321   3.965  0.2327  0.1364 -0.7230
16692TIP3    H171567   5.256   4.376   3.887  0.0252  1.4186  0.1587
16692TIP3    H271568   5.178   4.340   4.011  0.1260 -0.9712 -0.4119
16693TIP3   OH271569   5.694   4.845  12.736 -0.0107 -0.3317  0.4598
16693TIP3    H171570   5.741   4.778  12.688 -0.9729 -2.0031  1.7523
16693TIP3    H271571   5.601   4.822  12.725 -0.6593  2.5686 -1.6174
16694TIP3   OH271572   4.141   3.717   5.828 -0.1016  0.1933  0.1681
16694TIP3    H171573   4.164   3.804   5.794  1.0805  0.2392  1.0285
16694TIP3    H271574   4.208   3.699   5.894 -1.7235 -0.3484  1.7267
16695TIP3   OH271575   4.543   6.539  16.117 -0.0797 -0.2869 -1.1051
16695TIP3    H171576   4.537   6.444  16.124 -0.1614 -0.1637  1.3286
16695TIP3    H271577   4.582   6.567  16.200 -1.5032  1.8973 -1.0840
16696TIP3   OH271578   0.460   0.911  17.296  0.2528  0.1089  0.1570
16696TIP3    H171579   0.439   0.953  17.213  3.1860  1.3531 -0.0822
16696TIP3    H271580   0.376   0.909  17.343 -0.8274  2.5944 -1.4416
16697TIP3   OH271581   4.033   2.871   1.841  0.4776  0.3789 -0.3146
16697TIP3    H171582   3.959   2.820   1.874  0.3654 -0.0887 -1.2595
16697TIP3    H271583   3.993   2.945   1.796  0.5497 -0.1050 -1.2054
16698TIP3   OH271584   5.668   2.126  14.371 -0.1085  0.4833 -0.4713
16698TIP3    H171585   5.759   2.139  14.396  0.0325  0.0044 -0.7204
16698TIP3    H271586   5.626   2.091  14.450  0.5267 -1.8775 -1.0872
16699TIP3   OH271587   2.711   0.497   5.274  0.0153  0.4808  0.5877
16699TIP3    H171588   2.622   0.523   5.296 -0.1908  0.1196  0.1950
16699TIP3    H271589   2.702   0.444   5.195  0.2756 -1.8857  2.0421
16700TIP3   OH271590   1.211   1.908   5.982 -0.0679  0.5025 -0.3384
16700TIP3    H171591   1.298   1.892   5.946 -0.8174  1.3706 -2.7796
16700TIP3    H271592   1.220   1.893   6.076  2.3280 -0.8798 -0.7204
16701TIP3   OH271593   2.019   6.688  13.260  0.6381  0.1591 -0.3815
16701TIP3    H171594   2.066   6.710  13.340  1.7355 -1.2117 -0.6149
16701TIP3    H271595   2.073   6.727  13.190  0.3552  0.2776 -0.5342
16702TIP3   OH271596   0.732   3.391  13.536  0.4600  0.0074  0.1234
16702TIP3    H171597   0.784   3.322  13.496  2.0797  0.5257  1.2121
16702TIP3    H271598   0.704   3.354  13.620 -0.1068  0.0778 -0.0340
16703TIP3   OH271599   0.610   4.999  13.761  0.3349  0.3077  0.6321
16703TIP3    H171600   0.544   4.956  13.815  0.0527  0.1515  0.1756
16703TIP3    H271601   0.608   4.950  13.678  1.7604 -0.3700  0.9655
16704TIP3   OH271602   2.599   0.347  15.624 -0.3649 -0.5598  0.2447
16704TIP3    H171603   2.590   0.293  15.546  0.4181  1.9263 -1.6737
16704TIP3    H271604   2.649   0.292  15.685  0.4820 -1.9718 -1.6135
16705TIP3   OH271605   0.428   0.263  14.237 -0.3825  0.1743  0.2692
16705TIP3    H171606   0.489   0.281  14.307 -1.9238  3.7673  0.9229
16705TIP3    H271607   0.480   0.270  14.157  0.2725  2.6456  0.8281
16706TIP3   OH271608   2.496   3.550   1.103 -0.2335 -0.1013  0.4085
16706TIP3    H171609   2.420   3.511   1.146 -0.1360  0.0730  0.7441
16706TIP3    H271610   2.463   3.577   1.018 -0.3869 -0.6055  0.3023
16707TIP3   OH271611   1.690   4.420  12.897  0.0291  0.8602  0.5938
16707TIP3    H171612   1.654   4.496  12.852 -1.3504  0.1856  0.4744
16707TIP3    H271613   1.782   4.417  12.871 -0.0467  2.1041  0.1015
16708TIP3   OH271614   1.208   4.480  15.817  0.4746 -0.6893 -0.0891
16708TIP3    H171615   1.124   4.441  15.840  0.7416 -0.8903  0.5707
16708TIP3    H271616   1.255   4.487  15.900 -0.1180  2.4276  0.1199
16709TIP3   OH271617   4.701   0.384  17.206 -0.2060 -0.0264  0.0925
16709TIP3    H171618   4.773   0.442  17.181 -1.6113  1.5613 -0.4662
16709TIP3    H271619   4.676   0.341  17.125 -0.8507  0.5711 -0.0343
16710TIP3   OH271620   1.842   2.784   4.478 -0.7849 -0.5368  0.4806
16710TIP3    H171621   1.935   2.764   4.474 -1.1810 -2.3219 -1.2540
16710TIP3    H271622   1.816   2.758   4.567  0.7836  2.4646  1.9620
16711TIP3   OH271623   2.391   4.055  11.850 -0.2812 -0.7077  0.7254
16711TIP3    H171624   2.381   4.150  11.861  0.7413 -0.5293  0.2727
16711TIP3    H271625   2.363   4.039  11.760  1.7834 -0.4416 -0.0168
16712TIP3   OH271626   5.419   1.393   3.262  0.0014  0.4107 -0.0506
16712TIP3    H171627   5.447   1.314   3.309  0.1612 -0.3428 -1.3814
16712TIP3    H271628   5.462   1.387   3.177 -0.9717  1.3056 -0.6259
16713TIP3   OH271629   1.363   5.720  13.408  0.5305  0.5254 -0.0136
16713TIP3    H171630   1.331   5.809  13.417  1.2667  0.6193  3.1159
16713TIP3    H271631   1.349   5.697  13.316  0.5621  3.9174 -0.9788
16714TIP3   OH271632   5.657   1.311  13.552 -0.1640 -0.0374  0.3270
16714TIP3    H171633   5.591   1.287  13.487  0.5434  0.7938 -0.7385
16714TIP3    H271634   5.705   1.229  13.568 -0.8395 -0.4291  0.3951
16715TIP3   OH271635   3.835   1.105  12.179 -0.2435 -0.4621  0.7390
16715TIP3    H171636   3.861   1.168  12.112 -0.4697  0.6786  1.6905
16715TIP3    H271637   3.903   1.111  12.246 -1.3357  0.2966  1.8044
16716TIP3   OH271638   4.271   0.456   2.279 -0.4541  0.3749 -0.2098
16716TIP3    H171639   4.291   0.364   2.296 -2.8795 -0.5717 -2.0773
16716TIP3    H271640   4.306   0.473   2.192 -0.9294  0.9234 -0.2994
16717TIP3   OH271641   2.051   1.359  15.161  0.0016 -0.3023  0.4785
16717TIP3    H171642   2.110   1.293  15.197  1.3221  0.5977  0.0603
16717TIP3    H271643   2.045   1.425  15.230  0.0005 -0.0897  0.2765
16718TIP3   OH271644   3.471   0.447  17.233  0.0007 -0.9227  0.3685
16718TIP3    H171645   3.461   0.393  17.312  0.3683 -1.8933 -0.2339
16718TIP3    H271646   3.559   0.426  17.201  0.9692  1.5116  1.1838
16719TIP3   OH271647   6.781   6.689  16.662  1.2341  0.8345 -0.3055
16719TIP3    H171648   6.716   6.745  16.705 -0.7878 -2.2022  0.9195
16719TIP3    H271649   6.810   6.740  16.586 -2.6691  2.3936 -0.9868
16720TIP3   OH271650   1.463   2.737  14.443 -0.4807 -0.2613 -0.4773
16720TIP3    H171651   1.556   2.748  14.422  0.1898 -1.5892  1.5940
16720TIP3    H271652   1.425   2.701  14.363  0.8514 -0.0776 -1.2275
16721TIP3   OH271653   2.056   6.097  16.006  0.4920  0.5818 -0.1083
16721TIP3    H171654   2.151   6.096  16.016  0.3977 -1.4513  1.0477
16721TIP3    H271655   2.042   6.133  15.918  2.4524 -1.0997 -1.1978
16722TIP3   OH271656   4.569   0.454  15.308 -0.0323 -0.9141 -0.6522
16722TIP3    H171657   4.630   0.465  15.235  1.1672 -1.3239  0.2518
16722TIP3    H271658   4.483   0.470  15.270  0.6949  0.5512 -1.7731
16723TIP3   OH271659   3.381   5.837  12.686  0.0896 -0.5672  0.1287
16723TIP3    H171660   3.306   5.834  12.626 -0.1809 -2.3209  0.5007
16723TIP3    H271661   3.395   5.746  12.712  2.4634 -0.3136 -0.0438
16724TIP3   OH271662   0.737   0.685   5.913  0.3842  0.1866 -0.1960
16724TIP3    H171663   0.694   0.756   5.960 -0.6152  0.1322 -0.9920
16724TIP3    H271664   0.678   0.611   5.920  0.8304 -0.2016 -0.4355
16725TIP3   OH271665   0.914   0.570  14.565  0.3557  0.3119 -0.2116
16725TIP3    H171666   1.006   0.574  14.592  0.6617  1.4506 -1.3033
16725TIP3    H271667   0.864   0.597  14.642  1.1106  2.1929 -0.3264
16726TIP3   OH271668   3.925   4.748  12.506  0.3598  0.2922 -0.3540
16726TIP3    H171669   3.967   4.820  12.458  0.3831  0.4423 -0.1109
16726TIP3    H271670   3.851   4.790  12.550 -0.6687 -0.1516 -1.5844
16727TIP3   OH271671   0.250   6.338  11.132 -0.6280  0.5508 -0.0563
16727TIP3    H171672   0.188   6.302  11.195  0.2843  1.7911  1.6530
16727TIP3    H271673   0.261   6.429  11.158 -0.1495  1.1135 -2.0100
16728TIP3   OH271674   3.071   0.266  10.888  0.0311  0.0330 -0.2812
16728TIP3    H171675   3.082   0.359  10.871  1.8360  0.1779  1.3715
16728TIP3    H271676   2.988   0.243  10.845 -1.3879  2.7584  0.7625
16729TIP3   OH271677   6.647   2.752   3.817  0.8745 -0.3650  0.2150
16729TIP3    H171678   6.604   2.818   3.763  1.5557 -0.5919 -0.6424
16729TIP3    H271679   6.581   2.726   3.881 -0.6637 -1.4205 -1.6621
16730TIP3   OH271680   5.007   5.091  17.150  0.2132 -0.2983  0.3382
16730TIP3    H171681   4.940   5.144  17.106  1.2307 -0.7997 -1.9766
16730TIP3    H271682   4.960   5.013  17.179 -0.7754  0.6802  1.4730
16731TIP3   OH271683   5.754   2.363   3.561 -0.0286  0.2177  0.5493
16731TIP3    H171684   5.744   2.338   3.469 -0.9642  0.3142  0.6126
16731TIP3    H271685   5.814   2.297   3.597  0.1043 -0.0002 -0.0560
16732TIP3   OH271686   4.521   5.683   0.092 -0.3607  0.3728  0.3923
16732TIP3    H171687   4.434   5.724   0.097 -0.5204 -0.0494  1.1855
16732TIP3    H271688   4.516   5.609   0.152  0.3449 -0.0440 -0.0537
16733TIP3   OH271689   1.566   1.035   2.067  0.0996 -0.4256  0.2195
16733TIP3    H171690   1.530   0.949   2.041  1.3250 -1.0282  0.4594
16733TIP3    H271691   1.658   1.030   2.043 -0.0037  1.1931 -0.6120
16734TIP3   OH271692   4.031   0.126  11.948  0.2485  0.2789 -0.2608
16734TIP3    H171693   4.000   0.099  12.035  2.2725  0.2037  0.4938
16734TIP3    H271694   4.023   0.047  11.895 -0.0189  0.0238  0.1479
16735TIP3   OH271695   6.459   5.583  15.053  0.5311  0.0557  0.1086
16735TIP3    H171696   6.474   5.518  15.122  0.3703  1.5507  1.6260
16735TIP3    H271697   6.402   5.649  15.095 -0.3210  0.5623 -1.7471
16736TIP3   OH271698   6.682   2.942   4.254 -0.3909  0.1230  0.0607
16736TIP3    H171699   6.750   2.927   4.188 -1.8228 -1.9850 -1.0430
16736TIP3    H271700   6.698   2.875   4.321  0.4206  1.5948  1.4116
16737TIP3   OH271701   1.542   2.965   1.780  0.5597  0.4203  0.6519
16737TIP3    H171702   1.536   2.892   1.841  0.2601  0.6920  0.9497
16737TIP3    H271703   1.621   2.947   1.729  0.0142 -0.5617  0.1279
16738TIP3   OH271704   6.192   0.074   3.293 -0.0274  0.1336  0.0321
16738TIP3    H171705   6.211   0.027   3.374 -0.8914 -1.9043 -0.8806
16738TIP3    H271706   6.216   0.013   3.223 -1.5483  0.8813 -1.2266
16739TIP3   OH271707   2.905   3.464  13.457 -0.0683  0.2511 -0.2299
16739TIP3    H171708   2.827   3.454  13.511  0.5290 -2.0057  0.3297
16739TIP3    H271709   2.902   3.391  13.395  0.8973  0.9294 -1.1208
16740TIP3   OH271710   6.207   5.753   5.621 -0.6006 -0.7415 -0.2983
16740TIP3    H171711   6.259   5.794   5.552 -1.3399 -1.5585 -1.3601
16740TIP3    H271712   6.272   5.705   5.674  0.0728  0.5541  0.0938
16741TIP3   OH271713   6.314   5.426  16.401 -0.1366  0.0856  0.3981
16741TIP3    H171714   6.286   5.478  16.325 -0.0193 -0.5408 -0.0926
16741TIP3    H271715   6.345   5.489  16.465  1.9475  0.5362 -0.9682
16742TIP3   OH271716   6.499   3.370  13.571  0.1799  0.5908 -0.7905
16742TIP3    H171717   6.474   3.379  13.479  0.1224 -0.5888 -0.9073
16742TIP3    H271718   6.543   3.452  13.592 -0.9875  1.4258 -1.4793
16743TIP3   OH271719   3.126   5.112   5.751 -0.8772  0.0789  0.4158
16743TIP3    H171720   3.072   5.156   5.685 -1.3510 -0.5995  0.3406
16743TIP3    H271721   3.113   5.019   5.735  1.0014 -0.1213 -0.1435
16744TIP3   OH271722   3.817   2.491   3.022  0.0559 -0.2440  0.6197
16744TIP3    H171723   3.865   2.507   3.103 -1.0288 -2.0029  1.7018
16744TIP3    H271724   3.765   2.570   3.008  3.1361  1.7436 -0.6197
16745TIP3   OH271725   2.232   6.725  15.361 -0.5459 -0.2012  0.0875
16745TIP3    H171726   2.226   6.720  15.266 -0.2376 -1.3433  0.1074
16745TIP3    H271727   2.149   6.689  15.392 -0.7212  0.3377  0.2579
16746TIP3   OH271728   0.706   5.241  15.224 -0.3277 -0.2411 -0.0790
16746TIP3    H171729   0.737   5.168  15.172  1.5010 -0.7637  1.6180
16746TIP3    H271730   0.692   5.312  15.161  0.1389 -1.3260 -1.4457
16747TIP3   OH271731   3.424   3.235  11.397 -0.0124 -0.1804  0.4906
16747TIP3    H171732   3.359   3.304  11.386 -2.6060 -2.5606 -0.2691
16747TIP3    H271733   3.482   3.245  11.321 -1.7629 -0.1948 -0.9282
16748TIP3   OH271734   4.946   3.796   0.310  0.5801  0.1733 -0.8298
16748TIP3    H171735   5.006   3.822   0.379  0.2243 -0.6328 -0.2043
16748TIP3    H271736   5.002   3.782   0.233  1.1328 -0.0953 -0.3824
16749TIP3   OH271737   4.140   3.032   3.434  0.0573  0.1179  0.1609
16749TIP3    H171738   4.109   3.084   3.359  0.0977 -0.4786 -0.2749
16749TIP3    H271739   4.068   2.972   3.453  1.1002 -1.7103 -1.2575
16750TIP3   OH271740   2.731   3.195  12.670 -0.6941  0.0773 -0.7880
16750TIP3    H171741   2.785   3.273  12.676 -0.6331  0.0661 -1.1515
16750TIP3    H271742   2.660   3.220  12.611 -1.4487  0.2978  0.1910
16751TIP3   OH271743   3.669   6.284   6.077  0.1436 -0.0811  0.1244
16751TIP3    H171744   3.578   6.259   6.095  0.2018 -0.5254 -0.1695
16751TIP3    H271745   3.685   6.254   5.988  0.5571  0.0584  0.1481
16752TIP3   OH271746   3.363   0.099   0.210 -0.3138  0.2756  0.0261
16752TIP3    H171747   3.301   0.039   0.251  0.5458  0.5746  1.8495
16752TIP3    H271748   3.433   0.043   0.177  0.2012  0.2034  1.2072
16753TIP3   OH271749   2.797   4.307   5.138 -0.4713  0.0927  0.4251
16753TIP3    H171750   2.731   4.376   5.132 -0.5253 -0.0315 -0.6243
16753TIP3    H271751   2.850   4.330   5.214  0.7420  2.4067 -1.0114
16754TIP3   OH271752   1.440   1.951  12.036 -0.3783  0.0960  0.2285
16754TIP3    H171753   1.465   1.865  12.002 -2.5608 -0.3751 -0.3215
16754TIP3    H271754   1.523   1.996  12.050  0.7614 -1.5163 -0.9875
16755TIP3   OH271755   5.215   0.524  16.368 -0.1089  0.9643 -0.8376
16755TIP3    H171756   5.219   0.586  16.442 -0.9231 -0.9749  0.9202
16755TIP3    H271757   5.303   0.487  16.364 -0.6417 -0.6419  0.8013
16756TIP3   OH271758   5.569   5.126   3.460 -0.5333 -0.1473  0.0186
16756TIP3    H171759   5.601   5.140   3.371  0.7781  1.2219  0.6477
16756TIP3    H271760   5.539   5.212   3.489  2.0180  0.2193  1.9401
16757TIP3   OH271761   0.280   0.954   4.523 -0.3912 -0.5575  0.1608
16757TIP3    H171762   0.191   0.986   4.538 -0.2256  0.1809 -0.3902
16757TIP3    H271763   0.333   1.033   4.515  0.2651 -0.9886  0.1771
16758TIP3   OH271764   5.402   0.867   4.826 -0.3225  0.0668 -0.3941
16758TIP3    H171765   5.308   0.856   4.839 -0.5498  0.5439 -1.5411
16758TIP3    H271766   5.413   0.872   4.731  0.7514  0.9384 -0.2440
16759TIP3   OH271767   5.490   2.915   0.855  0.7890  0.0530  0.0552
16759TIP3    H171768   5.534   2.836   0.887  0.9485 -0.0912 -0.5187
16759TIP3    H271769   5.558   2.982   0.854  0.4572  0.4463  1.3872
16760TIP3   OH271770   6.785   5.925   0.393 -0.0894  0.6764 -0.0294
16760TIP3    H171771   6.858   5.986   0.402  0.9449 -0.6767  1.0655
16760TIP3    H271772   6.807   5.851   0.450 -3.1434  0.9903  1.8039
16761TIP3   OH271773   2.958   4.444   3.006 -0.1428  0.1350  0.0841
16761TIP3    H171774   3.039   4.404   2.974  0.4454  0.2925  1.3408
16761TIP3    H271775   2.907   4.462   2.926  2.3467  2.8604 -1.0626
16762TIP3   OH271776   6.693   2.887   1.068 -0.2959 -0.1516  0.2548
16762TIP3    H171777   6.684   2.946   0.994  0.3293 -2.4149 -1.7620
16762TIP3    H271778   6.781   2.905   1.102 -0.9870  1.6554  1.2372
16763TIP3   OH271779   2.463   2.847   0.671  0.2768 -0.1040  0.9338
16763TIP3    H171780   2.414   2.926   0.646  2.6348  0.9273 -0.8144
16763TIP3    H271781   2.409   2.807   0.739 -2.7213  1.1796 -0.4646
16764TIP3   OH271782   6.222   2.024  13.532 -0.3330 -0.0245 -0.4320
16764TIP3    H171783   6.306   2.052  13.497  0.1524 -0.4634  0.3461
16764TIP3    H271784   6.228   1.929  13.537  0.4137  0.0790  2.6335
16765TIP3   OH271785   4.757   6.147  13.137  0.4980 -0.1699  0.4759
16765TIP3    H171786   4.812   6.120  13.064 -0.1214  0.4747 -0.2543
16765TIP3    H271787   4.674   6.101  13.124  1.1732 -2.0031  2.1809
16766TIP3   OH271788   5.312   4.139   0.011  0.3067 -0.5309 -0.2331
16766TIP3    H171789   5.239   4.151   0.071  1.8103  0.6973  1.4877
16766TIP3    H271790   5.308   4.047  -0.015 -1.7562 -0.5085 -0.1087
16767TIP3   OH271791   1.482   6.033   0.285  0.0196  0.0059 -0.0464
16767TIP3    H171792   1.551   6.083   0.327  1.4177  0.2267 -2.4416
16767TIP3    H271793   1.486   5.947   0.326  0.5480  0.5377  1.0408
16768TIP3   OH271794   5.655   6.245  13.582  0.4098  0.3292 -0.6414
16768TIP3    H171795   5.651   6.227  13.675  1.3936  2.7903 -0.0495
16768TIP3    H271796   5.653   6.158  13.540 -1.2411 -0.7904  1.5578
16769TIP3   OH271797   0.345   6.666   2.352 -0.0344 -0.2774  0.1973
16769TIP3    H171798   0.302   6.698   2.272  0.1977  0.2876  0.2990
16769TIP3    H271799   0.275   6.664   2.417 -0.0907 -0.1641  0.1404
16770TIP3   OH271800   5.370   1.547   5.348 -0.4842 -0.0733  0.2068
16770TIP3    H171801   5.304   1.545   5.280  0.0366 -0.5529 -0.2965
16770TIP3    H271802   5.320   1.554   5.430 -1.0637  2.1807 -0.2805
16771TIP3   OH271803   4.831   6.269  16.861  0.3523 -0.3649  0.2270
16771TIP3    H171804   4.874   6.270  16.947  0.5444 -2.7245  0.2260
16771TIP3    H271805   4.739   6.252  16.881 -0.1387  1.9284  0.0788
16772TIP3   OH271806   5.075   1.939  15.846  0.0193 -0.2243  0.6604
16772TIP3    H171807   5.084   1.936  15.750  1.8980  2.2035  0.6659
16772TIP3    H271808   5.143   1.879  15.877  1.4523  1.2011  0.4289
16773TIP3   OH271809   6.782   4.859  16.357 -0.2780 -0.3418  0.3921
16773TIP3    H171810   6.723   4.793  16.322 -2.3497  1.3636  0.4322
16773TIP3    H271811   6.858   4.810  16.389 -0.9051 -2.4714 -1.1939
16774TIP3   OH271812   3.783   6.031  15.209 -0.1251 -0.4028 -0.0000
16774TIP3    H171813   3.774   6.065  15.120 -1.9801 -0.5451  0.1044
16774TIP3    H271814   3.875   6.004  15.215  0.1086 -0.0974 -1.7531
16775TIP3   OH271815   5.302   3.034   4.895 -0.0610  0.5285  0.4168
16775TIP3    H171816   5.215   3.065   4.869 -0.9419 -1.8018  0.4010
16775TIP3    H271817   5.334   2.985   4.819  0.4434 -0.2155  1.0945
16776TIP3   OH271818   3.467   6.754   6.954  0.5386  0.3040  0.3661
16776TIP3    H171819   3.427   6.705   7.026 -0.7113  0.0866 -0.4587
16776TIP3    H271820   3.397   6.765   6.890  1.1628  1.9955 -0.0803
16777TIP3   OH271821   3.543   2.769  12.800 -0.5811 -0.2371 -0.0458
16777TIP3    H171822   3.585   2.822  12.733 -0.9159 -1.3873 -1.2054
16777TIP3    H271823   3.483   2.829  12.844  0.7403  0.9070  0.2565
16778TIP3   OH271824   1.200   5.204  17.396  0.1695 -0.9076  0.3776
16778TIP3    H171825   1.255   5.253  17.457  1.0890 -0.0187 -1.1040
16778TIP3    H271826   1.261   5.147  17.349 -0.3615 -0.8561 -0.3929
16779TIP3   OH271827   6.781   0.788   2.057  0.2273 -0.1730  0.4935
16779TIP3    H171828   6.687   0.805   2.050  0.5736  1.6009 -0.2850
16779TIP3    H271829   6.820   0.873   2.075  1.8419 -0.5569 -0.9391
16780TIP3   OH271830   0.112   4.698   4.198  0.1196  0.3041 -0.2022
16780TIP3    H171831   0.076   4.779   4.161 -1.4689  0.1341  0.9083
16780TIP3    H271832   0.124   4.641   4.122  2.5041  1.9452 -1.2047
16781TIP3   OH271833   5.183   1.434  15.993 -0.3642 -0.4147 -0.5247
16781TIP3    H171834   5.136   1.454  16.074 -0.2755 -1.7733 -0.0973
16781TIP3    H271835   5.120   1.386  15.940 -0.9671  1.8826 -2.0228
16782TIP3   OH271836   1.998   3.913  15.583 -0.1598  0.0122  0.0477
16782TIP3    H171837   1.950   3.995  15.585 -1.7344 -0.7710 -1.9040
16782TIP3    H271838   2.075   3.928  15.638  0.0438  3.0439 -0.8926
16783TIP3   OH271839   2.919   0.252  15.602 -0.2702  0.6262  0.1603
16783TIP3    H171840   2.998   0.256  15.548 -0.0516  1.3252  0.5086
16783TIP3    H271841   2.944   0.199  15.677  0.1522  1.5662  0.6982
16784TIP3   OH271842   3.006   0.260   5.670 -0.1701  0.3294  0.3467
16784TIP3    H171843   2.969   0.282   5.585 -1.3898 -0.6412  0.6088
16784TIP3    H271844   3.090   0.218   5.649 -0.6254 -0.2351 -0.4054
16785TIP3   OH271845   3.895   1.306   3.085  0.7025 -0.3820 -0.5764
16785TIP3    H171846   3.918   1.281   2.996  1.3639  0.0472 -0.5320
16785TIP3    H271847   3.936   1.240   3.141 -1.2311 -1.7282 -0.6436
16786TIP3   OH271848   0.855   3.294   0.496  0.1422 -0.7122  0.5465
16786TIP3    H171849   0.808   3.274   0.577 -0.8513  0.1404  0.1982
16786TIP3    H271850   0.827   3.227   0.434  0.2113 -0.8388  0.6528
16787TIP3   OH271851   2.053   3.661  16.988  0.2690  0.0546 -0.2709
16787TIP3    H171852   2.003   3.618  17.057 -0.0870 -0.2169 -0.6929
16787TIP3    H271853   2.139   3.677  17.027 -0.1990  0.6958  0.5198
16788TIP3   OH271854   4.589   2.052   4.225 -0.1176  0.4415 -0.2581
16788TIP3    H171855   4.665   2.086   4.179 -0.2493  1.0260 -0.0464
16788TIP3    H271856   4.594   1.957   4.213 -0.4108  0.6088 -1.8848
16789TIP3   OH271857   3.288   5.241  13.795  0.2440 -0.1857 -0.0529
16789TIP3    H171858   3.252   5.213  13.879 -0.8427  1.4126  0.0681
16789TIP3    H271859   3.366   5.291  13.817 -0.4987  0.9530  0.1198
16790TIP3   OH271860   3.503   6.653  11.224 -0.2277  0.0878  0.0806
16790TIP3    H171861   3.445   6.634  11.298  0.7358  0.3893  0.9528
16790TIP3    H271862   3.488   6.745  11.205 -0.0901  0.1490  0.2628
16791TIP3   OH271863   5.411   4.098   0.858 -0.3546  0.0632  0.5650
16791TIP3    H171864   5.450   4.059   0.936  0.0695 -2.1402 -0.6622
16791TIP3    H271865   5.486   4.113   0.799 -0.6994  1.3854  0.4290
16792TIP3   OH271866   3.680   1.709   6.495  0.1873  0.7677  0.7139
16792TIP3    H171867   3.648   1.793   6.463 -0.9092 -0.3263 -1.2617
16792TIP3    H271868   3.602   1.662   6.524  0.1624 -1.0237 -1.9327
16793TIP3   OH271869   4.746   5.090   4.534  0.0057 -0.0732 -0.4204
16793TIP3    H171870   4.731   5.043   4.616  2.6582 -0.8162 -0.2559
16793TIP3    H271871   4.668   5.072   4.481 -0.6017 -1.7660  0.9455
16794TIP3   OH271872   5.288   5.377   6.481 -0.2006 -0.1210  0.2126
16794TIP3    H171873   5.373   5.339   6.457 -0.7290 -0.2031 -1.6857
16794TIP3    H271874   5.302   5.472   6.477  0.2783 -0.0759  1.8650
16795TIP3   OH271875   1.677   3.057  17.346 -0.1943 -0.6734  0.0907
16795TIP3    H171876   1.717   3.060  17.259 -1.5020  0.7104 -0.5093
16795TIP3    H271877   1.591   3.018  17.332 -1.0262  0.9114  0.4516
16796TIP3   OH271878   6.724   1.632  16.113  0.0521 -0.4631 -0.1269
16796TIP3    H171879   6.732   1.692  16.187  0.2877 -1.8720  1.0476
16796TIP3    H271880   6.806   1.582  16.113 -0.6323 -1.6400 -0.2471
16797TIP3   OH271881   5.732   0.052   4.501  0.1680 -0.2348 -0.3881
16797TIP3    H171882   5.686   0.049   4.585 -0.6011 -2.2015 -0.8377
16797TIP3    H271883   5.718   0.142   4.470 -1.8090 -0.2297  0.3554
16798TIP3   OH271884   6.114   6.434  10.558 -0.1771  0.0655  0.2860
16798TIP3    H171885   6.029   6.394  10.541  1.2906 -3.2300 -0.2048
16798TIP3    H271886   6.126   6.497  10.487 -1.2639 -1.1541 -1.0452
16799TIP3   OH271887   3.307   6.318   1.824 -0.0939 -0.5522  0.3550
16799TIP3    H171888   3.383   6.287   1.774 -0.3246  0.2384 -0.4993
16799TIP3    H271889   3.330   6.407   1.851  0.1733 -1.0810  1.9927
16800TIP3   OH271890   6.478   2.177   4.292  0.1995  0.1760 -0.2324
16800TIP3    H171891   6.552   2.117   4.286  1.5000  1.7453 -0.7772
16800TIP3    H271892   6.502   2.238   4.363 -1.2071 -0.0766  0.5062
16801TIP3   OH271893   0.688   2.824  16.439 -0.2287  0.4065 -0.2710
16801TIP3    H171894   0.647   2.776  16.511  0.4056  0.5173  0.1620
16801TIP3    H271895   0.615   2.869  16.397 -0.9572 -1.3938 -1.0711
16802TIP3   OH271896   1.552   5.254   0.589  0.2888 -0.9034  0.3671
16802TIP3    H171897   1.536   5.236   0.682  1.6517 -0.3987  0.7303
16802TIP3    H271898   1.539   5.170   0.545 -0.6527 -1.0812  0.9664
16803TIP3   OH271899   4.788   0.983   0.078  0.0790 -0.3572 -0.0685
16803TIP3    H171900   4.754   0.997   0.167  1.1679 -0.1339  0.3262
16803TIP3    H271901   4.812   1.071   0.048 -0.1434 -0.4532 -0.5312
16804TIP3   OH271902   1.607   5.519  12.628  0.0473 -0.3833  0.3030
16804TIP3    H171903   1.602   5.482  12.540  0.4338 -0.0113  0.1179
16804TIP3    H271904   1.558   5.459  12.683 -1.2515  0.0257 -0.3796
16805TIP3   OH271905   4.921   4.563   4.473  0.2495  0.1529 -0.0786
16805TIP3    H171906   4.885   4.622   4.408  0.0421 -0.5408 -0.6132
16805TIP3    H271907   4.895   4.476   4.443 -1.7141 -0.0912  2.0595
16806TIP3   OH271908   0.061   3.827  12.834 -0.1176  0.0152  0.0084
16806TIP3    H171909   0.034   3.918  12.818 -2.4641 -0.8143 -1.1622
16806TIP3    H271910  -0.002   3.795  12.898 -0.5328 -1.3507 -1.0607
16807TIP3   OH271911   3.160   1.635   2.296 -0.1773 -0.6385  0.3975
16807TIP3    H171912   3.166   1.639   2.201  2.0967 -3.3092  0.2986
16807TIP3    H271913   3.213   1.709   2.326  2.0254 -1.7433 -0.5234
16808TIP3   OH271914   6.554   4.990  11.718  0.4444  0.0450 -0.6506
16808TIP3    H171915   6.633   4.965  11.766  0.1633 -1.4375 -0.9186
16808TIP3    H271916   6.482   4.963  11.774  0.1174 -0.2516 -1.2100
16809TIP3   OH271917   2.915   5.600  11.933  0.3658 -0.3291 -0.1349
16809TIP3    H171918   2.920   5.601  12.028 -1.1666  0.0558 -0.0390
16809TIP3    H271919   2.898   5.691  11.908 -2.7910 -0.8859 -0.4822
16810TIP3   OH271920   3.505   4.360   1.145  0.3251  0.1052 -0.7714
16810TIP3    H171921   3.429   4.395   1.099  0.2677  1.3496  0.2255
16810TIP3    H271922   3.497   4.265   1.135 -1.2164  0.2213 -0.9115
16811TIP3   OH271923   6.690   2.658  16.985 -0.0884  0.2282  0.3134
16811TIP3    H171924   6.642   2.584  16.949  0.8119 -0.0692 -0.2993
16811TIP3    H271925   6.735   2.622  17.062 -0.5747  0.4308  0.7003
16812TIP3   OH271926   1.506   1.683  14.345 -0.4288 -0.1748  0.0563
16812TIP3    H171927   1.550   1.740  14.408  1.0295  2.0780 -2.7720
16812TIP3    H271928   1.423   1.726  14.327 -0.3625 -0.2104 -0.3489
16813TIP3   OH271929   6.094   0.423   1.076 -0.1896  0.5389  0.0981
16813TIP3    H171930   6.037   0.475   1.132 -1.1372  0.0380 -0.3917
16813TIP3    H271931   6.078   0.332   1.103  1.1497  0.4383  0.6678
16814TIP3   OH271932   4.068   4.406  16.741  0.2718 -0.1493  0.3266
16814TIP3    H171933   4.123   4.393  16.818  0.2692  2.3098  0.8432
16814TIP3    H271934   4.117   4.467  16.686 -0.7774  0.0121 -0.4723
16815TIP3   OH271935   3.922   1.637  12.127 -0.2186 -0.0082  0.5091
16815TIP3    H171936   3.957   1.593  12.049 -0.4571 -0.8997  0.8967
16815TIP3    H271937   3.891   1.566  12.183 -0.8685  0.6699  1.0305
16816TIP3   OH271938   5.419   2.869  14.298  0.7287  0.0933  0.4433
16816TIP3    H171939   5.467   2.886  14.217  0.2485  2.2885  0.5770
16816TIP3    H271940   5.366   2.947  14.312 -2.2219 -1.8250  0.8251
16817TIP3   OH271941   2.674   0.505  16.188 -0.3841  0.0248  0.3072
16817TIP3    H171942   2.578   0.502  16.192 -0.5019  2.1444  0.8870
16817TIP3    H271943   2.702   0.484  16.277 -0.1790 -2.1815 -0.2319
16818TIP3   OH271944   3.735   3.019   4.293 -0.3388  0.5615  0.7779
16818TIP3    H171945   3.655   3.007   4.242  0.9179 -1.2509 -0.9322
16818TIP3    H271946   3.783   3.087   4.246  0.1007  0.0371  0.4517
16819TIP3   OH271947   2.823   2.886   6.623  0.2101  0.1238 -0.1812
16819TIP3    H171948   2.791   2.796   6.621  1.8658 -0.5097  0.1566
16819TIP3    H271949   2.768   2.930   6.689 -1.8618 -0.0798 -1.6731
16820TIP3   OH271950   2.470   1.179   2.298  0.2034 -0.7273 -0.3703
16820TIP3    H171951   2.439   1.247   2.239  3.0231  2.0673  1.0305
16820TIP3    H271952   2.391   1.145   2.340 -1.4464  0.4406 -2.3577
16821TIP3   OH271953   3.966   5.944  11.637  0.4584  0.0147  0.5735
16821TIP3    H171954   3.992   6.035  11.626  3.4225 -0.4084  2.9435
16821TIP3    H271955   4.038   5.894  11.599 -0.4278 -1.3779  0.6607
16822TIP3   OH271956   1.824   3.040   5.500 -0.1215 -0.1729  0.4472
16822TIP3    H171957   1.828   3.068   5.592 -1.9296  2.4017 -0.1391
16822TIP3    H271958   1.734   3.008   5.489 -0.0746  0.0079 -0.5410
16823TIP3   OH271959   4.798   4.632   0.252 -0.2720  0.4961  0.0660
16823TIP3    H171960   4.770   4.540   0.252 -1.4086  0.8127 -0.7479
16823TIP3    H271961   4.788   4.660   0.343  0.1152 -0.1884  0.3295
16824TIP3   OH271962   0.451   4.553  10.869 -0.0427 -0.5033 -0.0991
16824TIP3    H171963   0.537   4.519  10.846 -0.3021 -0.3729 -1.2886
16824TIP3    H271964   0.393   4.477  10.868  0.0167 -0.5633  0.5370
16825TIP3   OH271965   3.578   0.938   2.520  0.1783 -0.3504 -0.6538
16825TIP3    H171966   3.591   0.846   2.501 -0.9447 -0.4973 -0.8106
16825TIP3    H271967   3.491   0.958   2.484  0.7677  0.9879 -1.4126
16826TIP3   OH271968   2.616   1.593  11.464 -0.1474 -0.2124 -0.1083
16826TIP3    H171969   2.566   1.648  11.524  0.4931 -0.0777  0.3051
16826TIP3    H271970   2.612   1.640  11.381  0.7835  0.7031  0.3551
16827TIP3   OH271971   4.766   0.990   2.336  0.0582  0.5661 -0.3453
16827TIP3    H171972   4.834   0.952   2.393  1.3969  1.4378 -1.2979
16827TIP3    H271973   4.801   0.981   2.248 -0.8205  1.5593 -0.8112
16828TIP3   OH271974   3.246   1.018  12.764  0.1730 -0.4696 -0.0809
16828TIP3    H171975   3.330   1.062  12.750 -0.6531  1.3049  0.2392
16828TIP3    H271976   3.240   0.955  12.693  1.1272  0.4163 -0.9841
16829TIP3   OH271977   2.103   5.084  12.695 -0.5023 -0.0411 -0.3251
16829TIP3    H171978   2.195   5.108  12.693 -0.6275  0.6130  0.8462
16829TIP3    H271979   2.095   5.024  12.769 -0.6959 -1.5748 -1.5516
16830TIP3   OH271980   4.470   4.090  13.599  0.1699  0.4960 -0.0654
16830TIP3    H171981   4.380   4.095  13.566 -0.0056  0.5571  0.4102
16830TIP3    H271982   4.484   4.174  13.642 -0.0467 -0.0392  1.1003
16831TIP3   OH271983   3.336   4.828   4.364 -0.0571  0.4452 -0.0706
16831TIP3    H171984   3.281   4.750   4.364 -1.2542  1.1912  2.3572
16831TIP3    H271985   3.279   4.898   4.333  0.4704  0.6938 -0.5045
16832TIP3   OH271986   2.897   1.928  11.825 -0.7632 -0.1371  0.0989
16832TIP3    H171987   2.992   1.915  11.813 -1.1363 -1.2370 -2.2687
16832TIP3    H271988   2.884   1.927  11.919  1.5714 -0.0796  0.4785
16833TIP3   OH271989   1.417   0.432   3.002  0.0958 -1.0331 -0.1365
16833TIP3    H171990   1.449   0.521   2.990  0.9317 -1.2575  0.3906
16833TIP3    H271991   1.494   0.377   2.990  0.2574 -1.5038  2.5965
16834TIP3   OH271992   6.113   5.297  14.620  0.6721 -0.1252 -0.0671
16834TIP3    H171993   6.031   5.339  14.649  1.3351  1.3473 -0.2266
16834TIP3    H271994   6.092   5.259  14.535  0.2479  0.5718 -0.2771
16835TIP3   OH271995   4.974   4.225   3.672  0.4915 -0.7997  0.1722
16835TIP3    H171996   5.054   4.277   3.675  0.6281 -1.0445  0.9987
16835TIP3    H271997   4.974   4.176   3.753 -0.7451 -0.4429  0.4167
16836TIP3   OH271998   5.299   6.332   6.448 -0.1157 -0.6793 -0.4021
16836TIP3    H171999   5.281   6.253   6.499  0.0149 -0.1842  0.4280
16836TIP3    H272000   5.342   6.391   6.510 -0.6952  0.2497 -0.8715
16837TIP3   OH272001   2.323   0.278   5.749  0.0086 -0.0750  0.4301
16837TIP3    H172002   2.332   0.183   5.749 -1.7630 -0.2701  1.0098
16837TIP3    H272003   2.283   0.298   5.664 -1.8237 -0.1096  1.2604
16838TIP3   OH272004   4.537   4.648  14.381 -0.6273 -0.2527 -0.3428
16838TIP3    H172005   4.570   4.723  14.332 -0.9468 -0.0925 -0.3159
16838TIP3    H272006   4.607   4.583  14.376 -0.0938  0.2758  0.1516
16839TIP3   OH272007   0.610   4.651  12.621 -0.0543  0.1592 -0.1138
16839TIP3    H172008   0.620   4.705  12.542 -0.7254  0.3589 -0.0748
16839TIP3    H272009   0.693   4.660  12.667  0.5042 -0.3013 -1.0000
16840TIP3   OH272010   5.676   0.019  13.138  0.0551  0.3725  0.1049
16840TIP3    H172011   5.652   0.110  13.154 -1.2208 -0.0365  0.6767
16840TIP3    H272012   5.706  -0.013  13.223  0.0352  0.1353  0.0247
16841TIP3   OH272013   3.441   1.278   2.832 -0.2218 -0.0998  0.2416
16841TIP3    H172014   3.452   1.183   2.831 -0.7865 -0.3750 -4.4082
16841TIP3    H272015   3.350   1.291   2.805 -0.2220  1.7876  1.0145
16842TIP3   OH272016   3.208   4.455   1.602 -0.1858 -0.3316  0.5355
16842TIP3    H172017   3.120   4.446   1.565  0.3117 -0.6068 -0.6286
16842TIP3    H272018   3.257   4.503   1.536  0.5170 -0.0687  1.2283
16843TIP3   OH272019   3.362   5.401   0.941 -0.2405  0.3812 -0.2286
16843TIP3    H172020   3.368   5.446   0.857  0.7912 -0.6883 -0.7569
16843TIP3    H272021   3.287   5.343   0.931  0.8871 -0.9913 -1.0722
16844TIP3   OH272022   6.768   6.101   4.868 -0.0840 -0.2807  0.1235
16844TIP3    H172023   6.693   6.160   4.861  2.3007  3.0295 -0.2956
16844TIP3    H272024   6.816   6.133   4.945  0.7265 -2.5271  0.6120
16845TIP3   OH272025   3.890   6.092   5.661  0.3580  0.3989  0.6085
16845TIP3    H172026   3.881   6.166   5.601 -0.2239 -0.4157 -0.3536
16845TIP3    H272027   3.967   6.045   5.630 -0.5945 -0.6586 -0.2579
16846TIP3   OH272028   1.618   3.442  12.945  0.0662  0.4756 -0.0715
16846TIP3    H172029   1.611   3.389  12.867 -0.9523  0.1705  0.2126
16846TIP3    H272030   1.574   3.391  13.013 -0.0991  1.2585  0.4224
16847TIP3   OH272031   2.909   6.165  12.983 -0.1637 -0.0001 -0.2242
16847TIP3    H172032   2.835   6.169  12.923 -1.4088 -0.1263  1.2547
16847TIP3    H272033   2.873   6.130  13.064  1.0519  1.8369  1.1927
16848TIP3   OH272034   0.107   5.276  11.827  0.2268 -0.1774 -0.3888
16848TIP3    H172035   0.199   5.258  11.808  0.8027  0.3944  1.6015
16848TIP3    H272036   0.096   5.248  11.918 -1.1486  1.2584 -0.0771
16849TIP3   OH272037   2.719   5.569  12.598  0.1870  0.3015 -0.3883
16849TIP3    H172038   2.701   5.557  12.504 -0.5076 -2.0115 -0.0349
16849TIP3    H272039   2.787   5.505  12.617  0.3337  0.7655  0.6835
16850TIP3   OH272040   5.067   3.783   6.509  0.5660  0.4957  0.1682
16850TIP3    H172041   4.988   3.829   6.483 -0.1599 -0.5112  0.5316
16850TIP3    H272042   5.130   3.853   6.528 -1.4547  1.5976  3.8829
16851TIP3   OH272043   4.147   1.802   5.962 -0.3277  0.2261  0.2707
16851TIP3    H172044   4.057   1.784   5.991  0.1224 -1.6590  0.5905
16851TIP3    H272045   4.186   1.851   6.034 -0.4774 -0.7734  1.0407
16852TIP3   OH272046   0.293   0.694  15.518  0.5118  0.1533 -0.6290
16852TIP3    H172047   0.211   0.653  15.543  0.2416  0.6961 -0.5978
16852TIP3    H272048   0.360   0.651  15.572  0.4246 -1.0995 -1.4769
16853TIP3   OH272049   3.544   2.195   6.106  0.0759  0.2446  0.1879
16853TIP3    H172050   3.596   2.232   6.035 -0.0379 -0.5407 -0.3171
16853TIP3    H272051   3.512   2.271   6.155  1.3342  0.7539  0.2551
16854TIP3   OH272052   1.956   1.788  12.732  0.2830 -0.3378 -0.5265
16854TIP3    H172053   1.972   1.869  12.683  0.5770  0.4408  0.7920
16854TIP3    H272054   2.016   1.793  12.807 -2.5308  0.2807  1.8778
16855TIP3   OH272055   3.022   3.294  12.261  0.6638 -0.3976  0.5138
16855TIP3    H172056   2.972   3.372  12.237 -0.6758 -1.0600  1.0648
16855TIP3    H272057   3.105   3.328  12.295 -1.0319  1.0419  3.6944
16856TIP3   OH272058   3.160   0.996  13.454  0.2116  0.0487 -0.0220
16856TIP3    H172059   3.085   0.971  13.508 -0.9791 -0.1389 -1.6835
16856TIP3    H272060   3.202   0.914  13.431  1.3610  0.1842  1.4118
16857TIP3   OH272061   1.835   5.407  12.258 -0.0823 -0.9740 -0.1207
16857TIP3    H172062   1.760   5.452  12.298 -0.1317 -0.5613 -0.6692
16857TIP3    H272063   1.837   5.321  12.300 -0.9065 -1.0111 -0.1462
16858TIP3   OH272064   1.841   0.126   1.604 -0.2300 -0.2543  0.2204
16858TIP3    H172065   1.929   0.142   1.571 -0.6745  1.6872 -0.2006
16858TIP3    H272066   1.800   0.070   1.539  0.3952 -0.3664 -0.0788
16859TIP3   OH272067   6.445   5.693  16.745  0.4891 -0.0348  0.0286
16859TIP3    H172068   6.433   5.788  16.750 -0.1906 -0.1670  1.3218
16859TIP3    H272069   6.369   5.657  16.791  1.5901 -1.1623  1.0139
16860TIP3   OH272070   1.590   5.349   4.110  0.0348 -0.2712  0.5027
16860TIP3    H172071   1.621   5.268   4.151 -0.0689 -0.3487  0.4291
16860TIP3    H272072   1.526   5.320   4.045 -1.2622 -0.0179  1.6236
16861TIP3   OH272073   0.093   4.475   2.568 -0.1397  0.2253  0.5993
16861TIP3    H172074   0.018   4.533   2.574  0.2886  0.8088  0.3911
16861TIP3    H272075   0.162   4.529   2.530  0.2451 -0.4376  0.3470
16862TIP3   OH272076   0.816   0.954  14.916 -0.0484  0.6425 -0.1746
16862TIP3    H172077   0.890   1.005  14.948 -0.5367  3.0405 -2.5967
16862TIP3    H272078   0.839   0.929  14.827 -1.3050 -0.3816 -0.2531
16863TIP3   OH272079   4.713   6.344   2.534  0.0609  0.1260 -0.3719
16863TIP3    H172080   4.745   6.418   2.585  0.8966 -0.0431 -0.6302
16863TIP3    H272081   4.710   6.271   2.597  0.9434 -0.0454 -0.5114
16864TIP3   OH272082   4.508   2.509   4.694 -0.0275 -0.4091 -0.5133
16864TIP3    H172083   4.432   2.553   4.655  1.7287  1.7971 -1.6458
16864TIP3    H272084   4.508   2.538   4.785  1.8662  3.4134 -1.5192
16865TIP3   OH272085   6.121   4.822  16.029 -0.0423 -0.4971  0.6858
16865TIP3    H172086   6.209   4.859  16.021 -0.2309  0.1602  1.5384
16865TIP3    H272087   6.113   4.764  15.953  1.0907 -0.5052  0.5502
16866TIP3   OH272088   3.959   3.311   1.821  0.3236  0.0393  0.6797
16866TIP3    H172089   3.868   3.317   1.850 -0.5059 -0.6578 -1.6150
16866TIP3    H272090   3.965   3.227   1.776  1.0309  1.6316 -2.5115
16867TIP3   OH272091   4.809   0.641  13.624  0.0685  0.0386 -0.4500
16867TIP3    H172092   4.852   0.720  13.593  1.9274 -0.4662  0.6839
16867TIP3    H272093   4.779   0.597  13.544  1.0842  0.7528 -1.2471
16868TIP3   OH272094   2.369   4.062  13.018  0.2907 -0.7203  0.2330
16868TIP3    H172095   2.352   4.032  13.108  0.2970 -1.1060  0.1069
16868TIP3    H272096   2.290   4.039  12.970 -0.6809  1.5173  0.6147
16869TIP3   OH272097   5.625   0.734   2.805 -0.2890 -0.3412 -0.8682
16869TIP3    H172098   5.554   0.725   2.869 -0.5862  1.4766 -0.8756
16869TIP3    H272099   5.656   0.824   2.816  1.7237 -0.9456 -1.1977
16870TIP3   OH272100   3.218   3.489   2.885  0.5670 -0.3022  0.3982
16870TIP3    H172101   3.140   3.468   2.834  1.0791  0.2506 -0.6511
16870TIP3    H272102   3.220   3.585   2.887  2.3573 -0.2410 -1.4576
16871TIP3   OH272103   5.263   5.970   5.502  0.0843 -0.6161 -0.2851
16871TIP3    H172104   5.299   5.901   5.446  1.8243 -0.6445  0.7720
16871TIP3    H272105   5.174   5.942   5.520 -0.6535 -0.4531 -3.2036
16872TIP3   OH272106   2.787   3.788  13.086  0.6695 -0.2043  0.4558
16872TIP3    H172107   2.861   3.739  13.123 -0.3395  0.8296  4.2109
16872TIP3    H272108   2.731   3.808  13.161 -1.8402  1.8120 -1.7665
16873TIP3   OH272109   1.256   5.125  16.673  0.1622 -0.4575 -0.0410
16873TIP3    H172110   1.338   5.076  16.679 -0.1926 -1.0713 -0.0958
16873TIP3    H272111   1.248   5.169  16.758  1.0815  0.4896 -0.4271
16874TIP3   OH272112   5.082   6.310  14.438  0.7143  0.2185 -0.1104
16874TIP3    H172113   5.093   6.400  14.408 -1.5276  0.6146  0.1403
16874TIP3    H272114   5.080   6.258  14.358 -0.2123  0.6811 -0.4018
16875TIP3   OH272115   4.680   4.850  14.253 -0.7058  0.2506  0.0327
16875TIP3    H172116   4.717   4.936  14.277 -0.5025  0.3267 -0.5423
16875TIP3    H272117   4.617   4.870  14.184  0.1510 -0.1817 -0.8909
16876TIP3   OH272118   2.492   6.321   2.036  0.5162  0.0086  0.0576
16876TIP3    H172119   2.570   6.296   2.085 -0.1847 -2.2041  0.1591
16876TIP3    H272120   2.477   6.413   2.059  1.6714 -0.2429  1.9811
16877TIP3   OH272121   1.357   6.380   1.019  0.3688  0.3739 -0.5980
16877TIP3    H172122   1.444   6.412   1.043  1.4958  0.0117 -3.6590
16877TIP3    H272123   1.319   6.347   1.101  3.9410 -1.3093  0.5855
16878TIP3   OH272124   3.506   2.035   1.588  0.3164 -0.4868 -0.5235
16878TIP3    H172125   3.414   2.031   1.616  0.1288  1.0296 -0.8072
16878TIP3    H272126   3.522   1.951   1.547 -0.0813 -1.9191  2.0287
16879TIP3   OH272127   5.229   2.348  11.325 -0.0758 -0.0686 -0.1400
16879TIP3    H172128   5.277   2.265  11.326 -0.3584 -0.2839 -1.9375
16879TIP3    H272129   5.147   2.328  11.372  0.8050 -0.1481  1.4491
16880TIP3   OH272130   4.378   4.875  17.067  0.6974  0.4832 -0.2842
16880TIP3    H172131   4.409   4.790  17.099  1.1993  1.0617  0.8018
16880TIP3    H272132   4.343   4.856  16.980  0.5968 -0.8720  0.0335
16881TIP3   OH272133   4.530   1.675  13.642 -0.4171 -0.3611  0.1896
16881TIP3    H172134   4.514   1.666  13.736  0.4690  1.3923  0.5466
16881TIP3    H272135   4.464   1.738  13.613 -0.7305 -0.9478 -0.3938
16882TIP3   OH272136   3.901   6.171   2.013 -0.1322  0.2180  0.0411
16882TIP3    H172137   3.943   6.253   1.987 -1.6281  0.6953 -1.0240
16882TIP3    H272138   3.811   6.197   2.035 -0.4735 -1.0617  0.2077
16883TIP3   OH272139   4.564   3.163  13.048  0.4528  0.1249  0.5629
16883TIP3    H172140   4.594   3.249  13.075  0.9292  0.0120  0.4021
16883TIP3    H272141   4.644   3.114  13.028  0.2161 -0.5288  1.1628
16884TIP3   OH272142   0.110   5.440   3.314  0.5779 -0.1222 -0.0021
16884TIP3    H172143   0.177   5.374   3.330  0.9844  0.2638 -0.1212
16884TIP3    H272144   0.029   5.389   3.304  0.8623 -0.5908  0.0549
16885TIP3   OH272145   0.246   3.910   2.340  0.0696 -0.2571 -0.5899
16885TIP3    H172146   0.256   3.845   2.271 -1.5848  0.9135 -2.0020
16885TIP3    H272147   0.293   3.986   2.308  1.4502 -0.4850  0.7689
16886TIP3   OH272148   1.371   0.397   0.499  1.2257 -0.4753 -0.1030
16886TIP3    H172149   1.338   0.389   0.409  1.7642 -1.2378 -0.2355
16886TIP3    H272150   1.411   0.313   0.517 -0.3334 -0.9350  1.4450
16887TIP3   OH272151   0.216   5.415   3.044  0.4149 -0.1375 -0.5179
16887TIP3    H172152   0.132   5.416   2.998 -0.1892 -0.1173  0.5567
16887TIP3    H272153   0.196   5.449   3.131  1.0475 -2.4118  0.5842
16888TIP3   OH272154   3.346   3.790   6.486  0.7036 -0.1930 -0.0393
16888TIP3    H172155   3.265   3.821   6.525 -0.6774 -3.3212 -0.1419
16888TIP3    H272156   3.330   3.795   6.391 -0.4013 -2.9862 -0.0749
16889TIP3   OH272157   0.674   6.142  10.813 -0.2421 -0.1827 -0.3807
16889TIP3    H172158   0.759   6.179  10.791  0.2447 -0.9508  0.1464
16889TIP3    H272159   0.678   6.052  10.781 -1.4951  0.2485 -1.8898
16890TIP3   OH272160   5.091   3.774  16.803  0.6740  0.3004  0.8774
16890TIP3    H172161   5.032   3.759  16.729  1.9207  1.4795 -0.4201
16890TIP3    H272162   5.034   3.774  16.880 -0.8770  0.4871 -0.2194
16891TIP3   OH272163   3.809   3.452  16.583 -0.2843 -0.4205  0.4405
16891TIP3    H172164   3.890   3.452  16.532 -1.1239  0.3792 -0.9778
16891TIP3    H272165   3.770   3.367  16.566  0.6632 -1.1747  1.8694
16892TIP3   OH272166   2.438   2.719  16.045  0.0386 -0.4908 -0.5399
16892TIP3    H172167   2.510   2.783  16.047 -0.2923 -0.0453 -2.0370
16892TIP3    H272168   2.388   2.737  16.125 -0.9241  2.2118 -1.6201
16893TIP3   OH272169   5.802   6.323   2.561  0.2317 -0.1526 -0.6384
16893TIP3    H172170   5.862   6.335   2.635 -0.3664  0.9882 -0.3111
16893TIP3    H272171   5.770   6.411   2.541  0.9278 -0.3139 -2.7522
16894TIP3   OH272172   4.973   1.226  15.350 -0.4502 -0.1549 -0.2770
16894TIP3    H172173   5.020   1.201  15.270 -0.2183 -1.4185  0.2402
16894TIP3    H272174   4.927   1.306  15.325  0.3728  0.0076 -1.3950
16895TIP3   OH272175   3.858   2.035   5.796 -0.0546  0.0795 -0.3164
16895TIP3    H172176   3.908   1.968   5.750  0.7216  1.9439 -2.3489
16895TIP3    H272177   3.768   2.003   5.794  0.3255 -1.0114 -0.9859
16896TIP3   OH272178   6.222   3.384   0.113 -0.2056  0.2863  0.8565
16896TIP3    H172179   6.278   3.317   0.074  2.6329  2.8072  0.1940
16896TIP3    H272180   6.177   3.423   0.038 -0.8512  0.0113  1.0919
16897TIP3   OH272181   1.468   2.108  15.709 -0.4094  0.4340  0.3963
16897TIP3    H172182   1.392   2.050  15.715 -0.3795  0.4101  0.5750
16897TIP3    H272183   1.462   2.161  15.789 -0.1611  0.3363  0.4796
16898TIP3   OH272184   5.100   6.731  12.992 -0.0023 -0.9469  0.4041
16898TIP3    H172185   5.096   6.732  13.088 -0.9827  1.0996  0.3952
16898TIP3    H272186   5.193   6.741  12.973  0.2301 -1.5914  1.1224
16899TIP3   OH272187   0.142   5.750  11.246  0.2016 -0.2432 -0.1172
16899TIP3    H172188   0.103   5.739  11.160  1.5190 -2.7758 -0.4520
16899TIP3    H272189   0.136   5.845  11.263 -0.3740  0.2629 -2.7927
16900TIP3   OH272190   6.329   1.516  15.556 -0.1922  0.0084 -0.2150
16900TIP3    H172191   6.381   1.499  15.477  0.2523 -0.3969  0.1512
16900TIP3    H272192   6.313   1.610  15.555 -0.2353 -0.0048 -0.8167
16901TIP3   OH272193   4.724   2.306  12.833 -0.8378  0.0777  0.2343
16901TIP3    H172194   4.669   2.371  12.876 -1.4684  0.3646 -0.9560
16901TIP3    H272195   4.663   2.240  12.800 -0.4761  0.3278 -0.9883
16902TIP3   OH272196   5.962   1.643   5.732  0.5016 -0.1513  0.5793
16902TIP3    H172197   6.034   1.706   5.728  0.2792  0.0566 -0.6414
16902TIP3    H272198   5.892   1.690   5.778  1.2554 -0.5013  2.1443
16903TIP3   OH272199   6.218   4.682  11.997 -0.0200 -0.6713 -0.0138
16903TIP3    H172200   6.304   4.639  11.987 -0.4044 -1.7829  1.2739
16903TIP3    H272201   6.155   4.616  11.967 -0.4502  0.2532 -1.2586
16904TIP3   OH272202   1.707   3.758  16.148 -0.3187  0.0210  0.5375
16904TIP3    H172203   1.630   3.811  16.129 -0.4674 -0.4462 -0.2013
16904TIP3    H272204   1.689   3.718  16.233 -0.0499  1.4118  1.2835
16905TIP3   OH272205   5.834   3.045  14.741 -0.0662  1.2182  0.5878
16905TIP3    H172206   5.854   3.138  14.733  2.0892  0.8238  0.6982
16905TIP3    H272207   5.863   3.006  14.659  1.9411  0.2496  1.6868
16906TIP3   OH272208   4.155   0.230   6.141  0.0081 -0.3791 -0.3604
16906TIP3    H172209   4.117   0.163   6.198 -0.1473  1.3143  1.6468
16906TIP3    H272210   4.100   0.230   6.063 -0.9853 -1.4559  0.3200
16907TIP3   OH272211   5.955   4.649  15.659 -0.0281 -0.1058 -0.2135
16907TIP3    H172212   5.876   4.699  15.681  0.7878  0.3477  1.9140
16907TIP3    H272213   5.972   4.670  15.567 -4.2761 -2.9240 -1.9641
16908TIP3   OH272214   1.748   1.200  15.453  0.5829 -0.5586  0.2037
16908TIP3    H172215   1.712   1.259  15.518 -0.6321  2.5300 -2.9764
16908TIP3    H272216   1.831   1.240  15.427  0.1492 -0.6343 -1.4277
16909TIP3   OH272217   3.100   0.424  14.162  0.3528  0.0050 -0.2558
16909TIP3    H172218   3.025   0.468  14.123  0.3917 -0.0266 -0.3661
16909TIP3    H272219   3.062   0.349  14.208 -0.1403  1.9426  2.7986
16910TIP3   OH272220   6.509   3.384   5.562 -0.7268 -0.2237 -0.7647
16910TIP3    H172221   6.596   3.345   5.553 -1.2391 -1.4510 -0.6421
16910TIP3    H272222   6.514   3.466   5.513 -0.0361 -1.1533 -2.3284
16911TIP3   OH272223   5.969   3.001  12.044 -0.1793 -0.7270 -0.4362
16911TIP3    H172224   6.002   2.992  12.133  3.0426 -0.4393 -1.4896
16911TIP3    H272225   6.005   2.927  11.997 -0.0836  0.2422 -1.9668
16912TIP3   OH272226   1.576   4.251   0.958 -0.0618 -0.5187  0.1068
16912TIP3    H172227   1.642   4.205   1.011 -0.1803  0.9152  1.5904
16912TIP3    H272228   1.594   4.343   0.974 -2.4310 -0.0738  0.5598
16913TIP3   OH272229   6.090   5.397  13.815  0.4952  0.0636  0.2487
16913TIP3    H172230   6.113   5.435  13.899 -0.1628  2.0491 -0.4036
16913TIP3    H272231   6.174   5.384  13.770  0.7337  1.9390  0.0546
16914TIP3   OH272232   6.067   0.870   0.069  0.4748 -0.5020 -0.0688
16914TIP3    H172233   6.125   0.818   0.124 -0.4777  0.2992  1.7784
16914TIP3    H272234   5.996   0.811   0.045  0.3934 -0.5955  0.3940
16915TIP3   OH272235   5.112   5.298   3.534  0.0139  0.5239 -0.1068
16915TIP3    H172236   5.188   5.242   3.551 -1.1258 -0.6495  1.4230
16915TIP3    H272237   5.084   5.274   3.446  0.2049 -0.5767  0.1081
16916TIP3   OH272238   5.487   6.227  13.151 -0.6071  0.1342  0.0666
16916TIP3    H172239   5.574   6.235  13.189  0.1547 -0.1911 -1.5137
16916TIP3    H272240   5.449   6.314  13.157  0.6482  0.7946 -1.0550
16917TIP3   OH272241   4.262   0.470   1.749 -0.3249 -0.1719 -0.0567
16917TIP3    H172242   4.328   0.515   1.696  0.8583 -0.2763  1.2627
16917TIP3    H272243   4.236   0.394   1.697  1.8848 -1.0899  0.0897
16918TIP3   OH272244   5.595   4.916  11.196  0.5680  0.2353 -0.7662
16918TIP3    H172245   5.635   4.852  11.255 -1.1204 -0.9575 -0.8177
16918TIP3    H272246   5.564   4.986  11.254 -1.3970 -1.0956 -0.0816
16919TIP3   OH272247   4.631   1.015   3.738  0.6537  0.2015 -0.4987
16919TIP3    H172248   4.675   0.972   3.665 -2.3026 -0.4232 -2.0930
16919TIP3    H272249   4.654   0.962   3.815  1.3099 -1.0672 -1.5228
16920TIP3   OH272250   6.633   6.498   0.581 -0.3034 -0.1511 -0.5563
16920TIP3    H172251   6.680   6.519   0.500  0.5609 -1.7730 -0.5232
16920TIP3    H272252   6.600   6.409   0.566  2.6928 -1.8830  2.0666
16921TIP3   OH272253   3.826   6.225  11.723  0.1825  0.1154 -0.0273
16921TIP3    H172254   3.859   6.304  11.765  0.2998 -0.6572  1.4114
16921TIP3    H272255   3.885   6.211  11.648  0.3232  1.2178 -0.1441
16922TIP3   OH272256   6.451   3.174   6.165  0.2586 -0.6366  0.2452
16922TIP3    H172257   6.388   3.244   6.182 -0.0017 -0.8398  0.1286
16922TIP3    H272258   6.443   3.115   6.240 -1.2121 -1.7678 -0.7363
16923TIP3   OH272259   2.210   0.576  11.522  0.0510  0.2158 -0.3906
16923TIP3    H172260   2.235   0.667  11.540 -0.8234  1.0023 -2.7429
16923TIP3    H272261   2.292   0.532  11.502  0.4009  0.7148 -0.0814
16924TIP3   OH272262   1.364   1.931   0.987 -0.6671 -0.2247  0.5475
16924TIP3    H172263   1.360   1.883   1.069 -1.9007  1.3207  1.4603
16924TIP3    H272264   1.275   1.923   0.951 -0.0182 -1.2591 -0.8696
16925TIP3   OH272265   1.286   3.568   0.470  0.7915 -0.2411 -0.6010
16925TIP3    H172266   1.222   3.601   0.533  0.7672 -0.8506 -0.2943
16925TIP3    H272267   1.367   3.614   0.492  0.5934  0.1317 -0.6383
16926TIP3   OH272268   3.118   4.516  12.322  0.0060  0.6452 -0.1532
16926TIP3    H172269   3.085   4.542  12.408 -0.5260  2.8135 -0.9531
16926TIP3    H272270   3.040   4.485  12.275 -0.2492  2.0901 -0.7387
16927TIP3   OH272271   1.463   1.853   0.532 -0.1717  0.4417 -0.0608
16927TIP3    H172272   1.423   1.771   0.502  0.0493 -0.1026  1.0783
16927TIP3    H272273   1.469   1.907   0.453 -0.2135 -0.6838 -0.8602
16928TIP3   OH272274   6.026   5.303   2.278  0.2028  0.6223  0.2436
16928TIP3    H172275   5.959   5.363   2.309  0.2974  0.7333  0.2363
16928TIP3    H272276   6.040   5.328   2.187 -0.2831  0.1083  0.0204
16929TIP3   OH272277   4.271   4.449  11.007 -0.3188  0.3581 -0.0380
16929TIP3    H172278   4.193   4.491  11.043  0.4308  0.3023  1.7632
16929TIP3    H272279   4.296   4.504  10.933 -2.7322 -0.3016 -1.4758
16930TIP3   OH272280   2.474   3.910   0.119  0.1428  0.4123  0.4749
16930TIP3    H172281   2.506   3.897   0.030 -1.0504 -0.7931  0.2071
16930TIP3    H272282   2.487   4.004   0.135 -0.3922  0.8221 -1.2728
16931TIP3   OH272283   1.077   5.747   5.060 -0.0932  0.3794  0.4946
16931TIP3    H172284   1.150   5.714   5.113 -1.0508 -1.1400  0.9424
16931TIP3    H272285   0.999   5.726   5.112 -0.8963  1.4274 -0.2492
16932TIP3   OH272286   5.341   1.145  11.997  0.3965 -0.0914  0.4004
16932TIP3    H172287   5.285   1.208  12.042  1.0500  0.4580  0.4638
16932TIP3    H272288   5.404   1.198  11.949  0.5431 -0.6912 -0.0938
16933TIP3   OH272289   3.494   0.406  13.226 -0.2257 -0.6754 -0.1782
16933TIP3    H172290   3.548   0.430  13.151  1.8737 -0.0333  1.4543
16933TIP3    H272291   3.524   0.318  13.250 -0.5569 -0.6855  0.2096
16934TIP3   OH272292   1.860   1.777  15.990 -0.2603 -0.3156 -0.3147
16934TIP3    H172293   1.805   1.856  15.986 -0.2523 -0.2775  0.2919
16934TIP3    H272294   1.824   1.727  16.063 -0.0840 -0.7395 -0.5208
16935TIP3   OH272295   6.559   0.284   1.349  0.2990 -0.0183 -0.1593
16935TIP3    H172296   6.470   0.267   1.316  0.0032 -1.0737  1.1312
16935TIP3    H272297   6.568   0.379   1.343 -1.4656  0.2640  0.9900
16936TIP3   OH272298   6.240   3.193   4.807  1.0830 -0.1263  0.0305
16936TIP3    H172299   6.253   3.118   4.865  0.9502  0.5497  0.9464
16936TIP3    H272300   6.275   3.267   4.855 -1.8709  1.0046  0.6368
16937TIP3   OH272301   4.100   3.243  11.330  0.2456  0.3020  0.3083
16937TIP3    H172302   4.083   3.337  11.338  0.7901  0.3021  1.9295
16937TIP3    H272303   4.116   3.229  11.237 -1.2560  1.5536 -0.1858
16938TIP3   OH272304   6.399   6.478  10.969  0.2095  0.0923 -0.6458
16938TIP3    H172305   6.490   6.502  10.952  0.0238  0.5014 -1.0887
16938TIP3    H272306   6.369   6.435  10.889  0.4339 -1.3436  0.0254
16939TIP3   OH272307   5.212   5.123   0.123  0.3614  0.2473  0.3180
16939TIP3    H172308   5.293   5.080   0.149 -0.3279  0.3946  3.0046
16939TIP3    H272309   5.229   5.216   0.138  0.1033  0.4122 -0.3769
16940TIP3   OH272310   2.677   2.375   5.665 -0.0792  0.0360 -0.4832
16940TIP3    H172311   2.594   2.360   5.620 -0.8290 -2.1283  1.4577
16940TIP3    H272312   2.659   2.446   5.726 -1.4007 -2.1056  1.7937
16941TIP3   OH272313   6.101   0.960   2.304  0.4169 -0.3812  0.0812
16941TIP3    H172314   6.030   0.937   2.364 -0.9773  0.4308 -1.2050
16941TIP3    H272315   6.147   0.877   2.289  0.0748 -0.8281  1.3050
16942TIP3   OH272316   2.390   6.442   4.298  0.0297  0.3742 -0.3939
16942TIP3    H172317   2.469   6.409   4.256  0.3311  0.0864  0.3641
16942TIP3    H272318   2.422   6.496   4.371 -0.4614 -0.4976  0.4911
16943TIP3   OH272319   0.830   5.121  16.733 -0.1702  0.4697 -0.4944
16943TIP3    H172320   0.779   5.173  16.795 -0.2428  0.0208 -0.1725
16943TIP3    H272321   0.767   5.059  16.696  0.4812 -1.3568  1.2817
16944TIP3   OH272322   5.355   3.365  12.515  0.2173 -0.4335  0.6857
16944TIP3    H172323   5.354   3.450  12.471  2.9576 -0.8128 -0.3085
16944TIP3    H272324   5.380   3.385  12.605  0.4806 -0.1395  0.5502
16945TIP3   OH272325   0.029   2.613  13.967 -0.2824 -0.3693  0.3909
16945TIP3    H172326  -0.044   2.627  13.908 -0.8375 -0.9982  0.9081
16945TIP3    H272327   0.105   2.651  13.922 -0.5904 -1.2720 -0.9458
16946TIP3   OH272328   2.433   3.493  16.883  0.0590  0.5819  0.4461
16946TIP3    H172329   2.391   3.515  16.799  0.6759 -0.6828 -0.2231
16946TIP3    H272330   2.363   3.457  16.937 -0.4217  1.7394  0.6365
16947TIP3   OH272331   5.798   1.124  12.618 -0.2178 -0.2577  0.2163
16947TIP3    H172332   5.721   1.166  12.658 -0.2395 -1.5912  1.6621
16947TIP3    H272333   5.863   1.194  12.614 -2.1110  1.5692 -3.1475
16948TIP3   OH272334   3.048   6.432  14.750 -0.0812 -0.1238  0.1820
16948TIP3    H172335   2.957   6.441  14.722 -0.2292  0.1011  0.7227
16948TIP3    H272336   3.099   6.471  14.679 -0.3418 -1.2068 -0.6157
16949TIP3   OH272337   5.500   0.153   0.940 -0.4559 -0.0831 -0.5371
16949TIP3    H172338   5.583   0.144   0.895 -0.2323  0.3431 -0.2113
16949TIP3    H272339   5.434   0.130   0.874 -0.1030 -0.0459 -0.9048
16950TIP3   OH272340   4.786   1.059   0.700 -0.1817 -0.2662 -0.7210
16950TIP3    H172341   4.711   1.001   0.690 -1.0479  0.6709  0.1513
16950TIP3    H272342   4.750   1.147   0.695  1.2143  0.2741 -2.8794
16951TIP3   OH272343   5.346   1.557   4.612  0.1379 -0.1476 -0.1574
16951TIP3    H172344   5.356   1.510   4.530 -0.4868  1.1348 -0.9930
16951TIP3    H272345   5.361   1.649   4.590  1.7776  0.0634  1.5079
16952TIP3   OH272346   4.258   5.281   2.262 -0.2861  0.3421  0.3689
16952TIP3    H172347   4.247   5.311   2.172 -0.6843  1.2190  0.6944
16952TIP3    H272348   4.332   5.331   2.295  0.0539 -0.2004  0.4429
16953TIP3   OH272349   4.919   5.366  15.425 -0.0684 -0.1135  0.6004
16953TIP3    H172350   4.907   5.277  15.457  0.0878 -0.1529  0.5509
16953TIP3    H272351   4.912   5.421  15.504  0.7792 -0.2483  0.7839
16954TIP3   OH272352   1.144   4.847  16.488 -0.0566  0.1328 -0.1156
16954TIP3    H172353   1.234   4.880  16.491  0.0271  0.2085 -2.0556
16954TIP3    H272354   1.090   4.925  16.478 -0.1838 -0.0109 -0.6074
16955TIP3   OH272355   3.786   1.362  16.960  0.3501  0.3184 -0.8103
16955TIP3    H172356   3.868   1.390  16.921  1.6537 -0.5712  1.1205
16955TIP3    H272357   3.806   1.277  16.999 -1.1951  0.5456  0.6098
16956TIP3   OH272358   5.883   3.145  12.535 -0.0782 -0.0837  0.4348
16956TIP3    H172359   5.804   3.122  12.585  0.1890 -0.6838  0.5836
16956TIP3    H272360   5.899   3.069  12.479  0.5720 -0.0930  0.6309
16957TIP3   OH272361   0.083   5.455   1.244  0.3777 -0.7753  0.1362
16957TIP3    H172362   0.125   5.462   1.158 -1.3172  0.8817 -0.6275
16957TIP3    H272363  -0.010   5.443   1.225 -0.1670  0.5055  1.7025
16958TIP3   OH272364   6.440   1.779   1.639 -0.0686 -0.5481  0.0535
16958TIP3    H172365   6.355   1.815   1.616  1.0502  1.2055 -1.6359
16958TIP3    H272366   6.473   1.742   1.558  1.5394  0.5039  0.1785
16959TIP3   OH272367   4.349   0.944   5.207  0.0353 -0.2971 -0.1544
16959TIP3    H172368   4.326   0.979   5.120 -0.6050 -1.4140 -0.4538
16959TIP3    H272369   4.404   0.868   5.188  0.0430 -0.4387  0.4304
16960TIP3   OH272370   4.866   3.617  13.110  0.2242 -0.2255  0.2697
16960TIP3    H172371   4.956   3.609  13.077  1.2464  0.7209  2.6313
16960TIP3    H272372   4.869   3.580  13.198 -0.9766  2.3234  1.5026
16961TIP3   OH272373   2.949   4.797  14.460  0.0924  0.2810 -0.1373
16961TIP3    H172374   2.855   4.804  14.478 -0.2149  3.7887 -2.1403
16961TIP3    H272375   2.986   4.880  14.490  1.9214  0.3255 -2.1970
16962TIP3   OH272376   6.090   5.084  10.837 -0.7369 -0.1099 -0.3509
16962TIP3    H172377   6.040   5.040  10.906 -0.7304 -1.4269 -1.1329
16962TIP3    H272378   6.033   5.078  10.760  0.2749 -0.9615 -1.0696
16963TIP3   OH272379   6.213   1.961  16.214 -0.0630  0.3678 -0.2417
16963TIP3    H172380   6.178   2.002  16.135  0.6058  0.2239 -0.6263
16963TIP3    H272381   6.188   1.869  16.206 -1.9453  0.7524  0.8375
16964TIP3   OH272382   3.364   0.133   1.320 -0.1942  1.0475 -0.2872
16964TIP3    H172383   3.458   0.141   1.340 -0.8722  2.7087  2.9477
16964TIP3    H272384   3.341   0.217   1.280 -0.5032  1.1046  0.0066
16965TIP3   OH272385   4.354   6.757   4.478 -0.3315  0.2717  0.0978
16965TIP3    H172386   4.308   6.840   4.470 -0.8177 -0.0585 -0.5944
16965TIP3    H272387   4.447   6.780   4.476 -0.4588  0.8920  1.0021
16966TIP3   OH272388   3.713   2.355   0.022 -0.0437  0.7954 -0.2997
16966TIP3    H172389   3.652   2.282   0.006  1.0609 -0.5197  1.1123
16966TIP3    H272390   3.789   2.335  -0.033 -1.2900  3.1664 -3.1486
16967TIP3   OH272391   5.391   2.436  15.876  0.1307  0.2531 -0.0923
16967TIP3    H172392   5.470   2.431  15.930  0.0077  0.8965  0.1503
16967TIP3    H272393   5.326   2.478  15.933 -0.7832 -1.4204  0.1848
16968TIP3   OH272394   4.009   5.791   4.044  0.1325  0.9771 -0.1517
16968TIP3    H172395   4.088   5.819   4.090  0.7055  0.0775 -0.5591
16968TIP3    H272396   3.973   5.722   4.100  0.2034  0.6773 -0.4742
16969TIP3   OH272397   1.421   3.905   2.958 -0.1017 -0.0687 -0.5561
16969TIP3    H172398   1.402   3.911   2.865 -1.1611 -0.2557 -0.3596
16969TIP3    H272399   1.367   3.833   2.989 -0.2077  0.3677  0.3112
16970TIP3   OH272400   5.971   2.729   4.682 -0.0154  0.5786 -0.1450
16970TIP3    H172401   6.052   2.741   4.732 -0.4360 -1.8251  1.3184
16970TIP3    H272402   5.902   2.748   4.745 -0.6010  1.4530 -1.0384
16971TIP3   OH272403   3.506   3.316   2.580 -0.5433 -0.3182  0.4081
16971TIP3    H172404   3.552   3.342   2.500 -2.0643 -0.0957 -0.4259
16971TIP3    H272405   3.477   3.226   2.563 -0.1077 -0.6057  1.0927
16972TIP3   OH272406   2.623   6.298   4.312  0.0320 -0.0567 -0.5531
16972TIP3    H172407   2.678   6.375   4.324 -0.4076 -0.1695  3.2799
16972TIP3    H272408   2.661   6.232   4.370 -1.9557 -1.3947 -0.6704
16973TIP3   OH272409   3.186   4.494  12.855  0.4505 -0.1743 -0.5333
16973TIP3    H172410   3.115   4.557  12.845  0.0588 -0.5227 -0.0092
16973TIP3    H272411   3.168   4.451  12.939  1.0078 -0.6111 -0.6316
16974TIP3   OH272412   2.869   1.694   2.181  0.2758 -0.5038  0.5682
16974TIP3    H172413   2.923   1.616   2.169  1.5357  0.2676  1.0580
16974TIP3    H272414   2.812   1.673   2.255  0.1557 -1.1845  0.2876
16975TIP3   OH272415   1.327   1.979   4.657 -0.1474  0.3696 -0.3864
16975TIP3    H172416   1.317   1.951   4.566 -0.0727 -0.3755 -0.1718
16975TIP3    H272417   1.381   2.057   4.652  3.0865 -1.6947 -0.7521
16976TIP3   OH272418   6.670   4.066   1.913  0.0421  0.1812 -0.0223
16976TIP3    H172419   6.752   4.065   1.865 -1.1020 -0.2347 -2.1139
16976TIP3    H272420   6.683   4.005   1.985  1.3023 -0.5366 -0.8225
16977TIP3   OH272421   4.312   4.669   1.497 -0.7015  0.1021 -0.2762
16977TIP3    H172422   4.354   4.586   1.519 -0.5841  0.5819  1.4722
16977TIP3    H272423   4.374   4.735   1.527 -1.4213  0.8200 -0.3461
16978TIP3   OH272424   4.518   1.100  15.707  0.0405  0.6019 -0.0982
16978TIP3    H172425   4.438   1.075  15.661 -0.1022  0.7079  0.0897
16978TIP3    H272426   4.516   1.049  15.788 -1.1668  2.4826  1.1638
16979TIP3   OH272427   0.672   5.515  15.100 -0.3754 -0.4320 -0.0027
16979TIP3    H172428   0.698   5.536  15.010 -1.2281  1.1838  0.0995
16979TIP3    H272429   0.592   5.566  15.115  0.7605  0.8047  2.3012
16980TIP3   OH272430   4.111   3.959   3.799  0.2263 -0.1612 -0.5536
16980TIP3    H172431   4.036   3.983   3.744  0.7988  2.6006 -0.3064
16980TIP3    H272432   4.072   3.918   3.876 -0.8311 -0.9337 -1.4657
16981TIP3   OH272433   3.359   2.233  14.261 -0.0699 -0.3988  0.0645
16981TIP3    H172434   3.292   2.222  14.328  0.0589 -0.4581  0.1855
16981TIP3    H272435   3.425   2.288  14.302 -1.0295  1.4613 -0.7779
16982TIP3   OH272436   4.265   2.442  14.806  0.9690 -0.4068 -0.3136
16982TIP3    H172437   4.250   2.356  14.768  1.8924 -0.4872 -0.5130
16982TIP3    H272438   4.267   2.501  14.731  0.1113 -0.1670 -0.1595
16983TIP3   OH272439   0.234   1.770  16.529  0.3790 -0.0684 -0.9335
16983TIP3    H172440   0.190   1.841  16.481  1.6564  0.6890 -1.0322
16983TIP3    H272441   0.326   1.796  16.530  0.6690 -1.0891  0.1848
16984TIP3   OH272442   2.510   0.991   1.315  0.2018 -0.0159 -0.1012
16984TIP3    H172443   2.473   1.009   1.228 -0.5262 -1.2787 -0.0758
16984TIP3    H272444   2.590   0.942   1.297  0.8534  1.0048 -0.0857
16985TIP3   OH272445   2.739   1.321   0.178  0.0114 -0.1893  0.5126
16985TIP3    H172446   2.785   1.277   0.107  0.7766  1.3734 -0.0014
16985TIP3    H272447   2.795   1.395   0.201 -1.2640  0.5745  1.2868
16986TIP3   OH272448   4.015   1.769   1.654 -0.9086  0.1094 -0.0133
16986TIP3    H172449   3.935   1.716   1.650  0.4792 -2.1647  0.4405
16986TIP3    H272450   4.066   1.740   1.579 -0.4641  1.4863 -0.2608
16987TIP3   OH272451   2.159   3.092  11.807 -0.1005 -0.7734 -0.1589
16987TIP3    H172452   2.165   3.033  11.732 -1.9340 -1.2513 -0.0015
16987TIP3    H272453   2.203   3.045  11.878 -1.4058 -1.9445 -0.0778
16988TIP3   OH272454   4.195   2.310   3.485  0.1840  0.6052 -0.4659
16988TIP3    H172455   4.164   2.274   3.402 -2.4602  2.4256 -0.3860
16988TIP3    H272456   4.285   2.337   3.467  0.5450 -1.3377 -1.9405
16989TIP3   OH272457   3.538   5.355  13.892  0.2148 -0.0207 -0.5178
16989TIP3    H172458   3.572   5.422  13.834 -2.8299  0.7904 -1.5388
16989TIP3    H272459   3.472   5.400  13.945  0.7036 -1.4391  1.4212
16990TIP3   OH272460   1.107   6.549   1.036 -0.1063  0.0008 -0.0421
16990TIP3    H172461   1.141   6.597   1.111 -0.9160 -0.5790  0.7108
16990TIP3    H272462   1.185   6.517   0.991  0.3882 -0.1236  0.8726
16991TIP3   OH272463   2.031   2.845  15.504  0.0458  0.4052  0.1751
16991TIP3    H172464   1.967   2.883  15.443  1.4575 -1.4939 -2.6597
16991TIP3    H272465   2.102   2.909  15.506 -0.7305  1.2925  1.3148
16992TIP3   OH272466   3.593   4.359  15.083  0.4064  0.3829  0.1916
16992TIP3    H172467   3.650   4.383  15.010  0.7142  0.0491  0.3171
16992TIP3    H272468   3.548   4.440  15.107 -0.4384  0.2845 -1.0056
16993TIP3   OH272469   0.805   1.954  14.154  0.3354  0.2746 -0.3434
16993TIP3    H172470   0.793   2.042  14.119 -0.9398  0.6437  0.8938
16993TIP3    H272471   0.849   1.968  14.239 -1.6415 -0.0594  0.7917
16994TIP3   OH272472   6.352   5.152  17.009  0.1052 -0.0519  0.1124
16994TIP3    H172473   6.357   5.246  17.029  1.5970 -0.6909  3.4782
16994TIP3    H272474   6.404   5.142  16.930 -0.5558  2.0144 -0.6541
16995TIP3   OH272475   5.591   5.624  13.663  0.0645  1.1926  0.5678
16995TIP3    H172476   5.545   5.708  13.668 -2.9763 -0.1061 -2.0372
16995TIP3    H272477   5.627   5.622  13.574  2.0559  0.5880  1.3303
16996TIP3   OH272478   5.948   2.021   6.136  0.3586 -0.5567 -0.0719
16996TIP3    H172479   5.890   2.021   6.060  0.8662 -0.1897 -0.4655
16996TIP3    H272480   6.035   2.036   6.099  0.5950 -0.2756  0.5972
16997TIP3   OH272481   1.588   6.570  16.521  0.2342  0.2232  0.3841
16997TIP3    H172482   1.522   6.634  16.494  0.8582  0.0314 -1.7388
16997TIP3    H272483   1.664   6.623  16.545  0.5687  0.3413 -0.8624
16998TIP3   OH272484   0.742   1.696  15.877 -0.6213  0.3411 -0.1065
16998TIP3    H172485   0.770   1.605  15.880 -0.9424  0.2620  0.9370
16998TIP3    H272486   0.779   1.735  15.956 -1.2428  0.8876 -0.0769
16999TIP3   OH272487   5.991   4.031   5.628 -0.0192 -0.0670  0.0257
16999TIP3    H172488   5.999   3.938   5.648 -0.9499 -0.1063  0.2659
16999TIP3    H272489   5.985   4.034   5.532  0.0226 -0.2550  0.0170
17000TIP3   OH272490   1.007   5.677   6.761 -0.3481  0.3916 -0.5092
17000TIP3    H172491   1.036   5.592   6.728  0.9538 -0.0942  1.6793
17000TIP3    H272492   0.915   5.664   6.784 -0.2229 -0.3780 -0.4039
17001TIP3   OH272493   5.464   3.623   3.778  0.1471 -0.0813  0.0859
17001TIP3    H172494   5.475   3.596   3.687  0.1027  0.0302  0.0470
17001TIP3    H272495   5.372   3.648   3.785 -0.2734 -1.6469  0.5789
17002TIP3   OH272496   1.169   1.865  14.122  0.1072 -0.4370 -0.0967
17002TIP3    H172497   1.151   1.958  14.130 -0.4271 -0.6039  0.7551
17002TIP3    H272498   1.208   1.840  14.206 -1.5948 -1.3715  0.4510
17003TIP3   OH272499   2.556   4.018  10.973  0.1934  0.6591 -0.3112
17003TIP3    H172500   2.539   4.110  10.992 -0.6543  0.3137  0.6931
17003TIP3    H272501   2.547   3.974  11.058  3.7733  0.0610 -0.1175
17004TIP3   OH272502   2.305   1.658  15.747  0.3190 -0.4246 -0.1364
17004TIP3    H172503   2.400   1.662  15.754  0.3030 -0.6182  0.2201
17004TIP3    H272504   2.289   1.629  15.658  0.5395  2.0471 -1.0726
17005TIP3   OH272505   1.694   4.468   1.106 -0.0078  0.1243 -0.5315
17005TIP3    H172506   1.680   4.563   1.109  3.3868  0.7996 -1.2288
17005TIP3    H272507   1.768   4.454   1.166 -0.3554 -2.1016 -0.5509
17006TIP3   OH272508   2.857   6.746   1.410  0.1925  0.0406  0.0056
17006TIP3    H172509   2.769   6.761   1.445  0.3049  0.6440  0.0465
17006TIP3    H272510   2.916   6.779   1.478  0.4318  0.4320 -0.3834
17007TIP3   OH272511   6.164   3.370  15.477 -0.1699 -0.4134  0.2629
17007TIP3    H172512   6.116   3.430  15.420 -1.0337  1.2874  2.6130
17007TIP3    H272513   6.256   3.381  15.452 -0.4923  0.4813 -0.5977
17008TIP3   OH272514   5.076   5.563  13.109 -0.3707 -0.0571  0.5687
17008TIP3    H172515   5.132   5.565  13.032 -0.1313  0.9729  0.7536
17008TIP3    H272516   5.037   5.475  13.108  0.1588 -0.2973 -0.3316
17009TIP3   OH272517   1.484   1.162  10.548  0.7776  0.2912  0.1773
17009TIP3    H172518   1.519   1.223  10.613  1.0657  1.0606 -0.6878
17009TIP3    H272519   1.460   1.217  10.474 -0.4546 -0.4600 -0.0062
17010TIP3   OH272520   5.994   3.719   3.229  0.2323  0.1854  0.5608
17010TIP3    H172521   6.054   3.769   3.285  1.0171  0.8462 -0.8045
17010TIP3    H272522   6.024   3.738   3.140 -0.0657 -1.9645 -0.0495
17011TIP3   OH272523   3.363   5.595   1.133  0.6197 -0.2922  0.3189
17011TIP3    H172524   3.277   5.621   1.166  0.8007  1.0367 -0.1910
17011TIP3    H272525   3.343   5.536   1.060  0.0676  1.1185 -0.7210
17012TIP3   OH272526   1.256   5.187   0.712 -0.1105  0.3936 -0.9141
17012TIP3    H172527   1.216   5.153   0.631 -1.7073  0.9403 -0.3864
17012TIP3    H272528   1.184   5.190   0.775  1.4602 -1.7446  1.1281
17013TIP3   OH272529   5.304   5.085   3.606  0.0463  0.3707 -0.2139
17013TIP3    H172530   5.399   5.085   3.617 -0.0314 -1.9413  1.2125
17013TIP3    H272531   5.279   4.993   3.619 -2.3600  0.8848 -0.7972
17014TIP3   OH272532   2.298   3.868  12.443  0.1493 -0.2497  0.0992
17014TIP3    H172533   2.208   3.865  12.474  0.4392 -0.9570  0.9014
17014TIP3    H272534   2.294   3.830  12.355 -0.8401  2.6779 -1.2646
17015TIP3   OH272535   0.173   1.927   1.287 -0.5587  0.3603 -0.2365
17015TIP3    H172536   0.101   1.904   1.229 -0.7668  0.1039  0.1153
17015TIP3    H272537   0.147   2.010   1.327 -0.8052  0.1131  0.1236
17016TIP3   OH272538   6.745   6.462  11.253 -0.1638  0.0098 -0.4363
17016TIP3    H172539   6.824   6.416  11.281  0.8832  0.6727 -2.2016
17016TIP3    H272540   6.710   6.499  11.334  0.3269 -1.7481  0.6509
17017TIP3   OH272541   1.359   4.064  12.139 -0.3102  0.3907 -0.3463
17017TIP3    H172542   1.369   4.150  12.098 -0.7045  1.3494  1.4515
17017TIP3    H272543   1.438   4.053  12.191  0.4168 -1.0256 -1.6679
17018TIP3   OH272544   5.262   1.975   2.728 -0.1527  0.0787  0.8266
17018TIP3    H172545   5.175   1.963   2.767  1.0107  0.3640  3.7375
17018TIP3    H272546   5.318   1.911   2.773  1.5632  1.3155  0.5415
17019TIP3   OH272547   6.301   3.182  12.815 -0.6079 -0.3520  0.3427
17019TIP3    H172548   6.325   3.102  12.863 -0.9099 -1.1419 -0.7865
17019TIP3    H272549   6.207   3.175  12.802 -1.1047  1.4758  2.4795
17020TIP3   OH272550   1.700   6.510   5.237  0.5005  0.0262 -0.2642
17020TIP3    H172551   1.722   6.490   5.328  0.8661  0.8301 -0.1726
17020TIP3    H272552   1.739   6.439   5.186  0.1085 -0.5438  0.2202
17021TIP3   OH272553   4.413   5.949  11.438  0.1550  0.0135  0.4828
17021TIP3    H172554   4.470   6.005  11.385  0.3678  1.4026  2.1295
17021TIP3    H272555   4.429   5.976  11.528 -1.0454 -1.5175  1.1967
17022TIP3   OH272556   5.962   5.171  15.450  0.0695  0.0756  0.8754
17022TIP3    H172557   5.975   5.259  15.413 -0.7661 -0.1021  0.1422
17022TIP3    H272558   5.903   5.185  15.524 -1.8423 -0.1033 -0.5347
17023TIP3   OH272559   3.126   5.603   4.632  0.2842 -0.0055  0.7180
17023TIP3    H172560   3.059   5.605   4.700 -3.3297 -1.4687 -2.4371
17023TIP3    H272561   3.116   5.686   4.585  2.4062  0.7868  1.5392
17024TIP3   OH272562   1.006   4.666  11.711 -0.2161  0.3453  0.4307
17024TIP3    H172563   1.086   4.637  11.666 -0.2385 -1.1231  1.2593
17024TIP3    H272564   0.976   4.588  11.757 -1.6658  1.1159  0.8293
17025TIP3   OH272565   3.434   4.878   4.973 -0.0515  1.0253 -0.0024
17025TIP3    H172566   3.487   4.907   4.899  1.1178  0.3697  0.5395
17025TIP3    H272567   3.448   4.945   5.040  0.7260  0.4586  0.4114
17026TIP3   OH272568   5.163   6.094  14.881  0.3740  0.1644  0.5208
17026TIP3    H172569   5.200   6.050  14.958  0.7918 -0.0417  0.2034
17026TIP3    H272570   5.160   6.187  14.906  1.2548  0.2065  0.4956
17027TIP3   OH272571   2.874   4.594  15.622  0.0792  0.5848 -0.2330
17027TIP3    H172572   2.888   4.583  15.528  1.6299 -0.3552  0.0834
17027TIP3    H272573   2.850   4.686  15.632  1.5688  1.1386 -1.3785
17028TIP3   OH272574   1.447   2.366  15.114 -0.0435  0.1018 -0.0409
17028TIP3    H172575   1.353   2.373  15.100 -0.1273 -0.3788  0.2695
17028TIP3    H272576   1.479   2.456  15.113 -0.6963  0.3608  1.1753
17029TIP3   OH272577   1.406   4.822  11.290  0.1934  0.7781 -0.6092
17029TIP3    H172578   1.383   4.797  11.201  1.9996 -2.1083 -0.3916
17029TIP3    H272579   1.501   4.815  11.294  0.0620 -0.8189  1.9304
17030TIP3   OH272580   6.435   4.695   3.443 -0.8744 -1.0965  0.5913
17030TIP3    H172581   6.511   4.656   3.402  0.0004  0.7913  0.2788
17030TIP3    H272582   6.453   4.689   3.537 -0.5113 -1.0135  0.5299
17031TIP3   OH272583   0.859   0.446  15.254 -0.0160 -0.1943 -0.3059
17031TIP3    H172584   0.876   0.419  15.164  1.1579 -0.6850  0.0335
17031TIP3    H272585   0.770   0.416  15.272 -0.0364 -0.6420 -1.1042
17032TIP3   OH272586   5.323   4.228   5.160  0.0509  0.7478 -0.0282
17032TIP3    H172587   5.384   4.158   5.181 -0.6790  0.1164  0.0139
17032TIP3    H272588   5.362   4.306   5.199  2.3260  0.9757 -2.4351
17033TIP3   OH272589   3.322   4.943   2.555 -0.3619 -0.8347  0.2254
17033TIP3    H172590   3.338   4.852   2.529  1.0135 -0.7484  0.7366
17033TIP3    H272591   3.227   4.954   2.543 -0.5284 -2.2816  0.0094
17034TIP3   OH272592   0.092   2.430  12.484 -0.3607  0.0021 -0.0304
17034TIP3    H172593   0.186   2.416  12.492 -0.1425  0.4996 -1.4745
17034TIP3    H272594   0.074   2.417  12.391 -1.5267  1.0742  0.0291
17035TIP3   OH272595   5.562   2.394  14.763 -0.0365  0.4169 -0.5019
17035TIP3    H172596   5.639   2.338  14.756  0.8483  1.6100 -0.7245
17035TIP3    H272597   5.507   2.351  14.829  0.6148 -0.6722 -0.6441
17036TIP3   OH272598   3.393   5.177  11.863 -0.8490  0.1770  0.2197
17036TIP3    H172599   3.420   5.263  11.895 -1.0622  0.4889 -0.4211
17036TIP3    H272600   3.472   5.124  11.866 -0.5066  0.6613 -0.2592
17037TIP3   OH272601   0.158   4.759   0.209 -0.1934  0.5609 -0.4998
17037TIP3    H172602   0.163   4.846   0.249  0.9795 -0.2266  1.1659
17037TIP3    H272603   0.236   4.713   0.240 -0.1775 -0.7316 -2.2798
17038TIP3   OH272604   1.596   0.905   0.311 -0.2985  0.0947 -0.2924
17038TIP3    H172605   1.582   0.818   0.348  0.8580  0.2073  0.4502
17038TIP3    H272606   1.599   0.963   0.386  2.2510  0.3021 -0.4816
17039TIP3   OH272607   6.282   0.041  17.030 -0.5194  0.1280 -0.2881
17039TIP3    H172608   6.361   0.084  16.996 -0.1006  0.2539  0.7946
17039TIP3    H272609   6.227   0.113  17.060 -0.7332  0.0039 -0.3846
17040TIP3   OH272610   1.509   6.233   5.068  0.4768 -0.1886  0.6342
17040TIP3    H172611   1.460   6.157   5.034  1.7210 -1.1464  0.8993
17040TIP3    H272612   1.512   6.294   4.994 -0.7459 -0.2661  0.4869
17041TIP3   OH272613   4.010   0.129   2.278  0.0813 -0.2599  0.0470
17041TIP3    H172614   3.996   0.063   2.210  0.6209  0.3805 -0.6948
17041TIP3    H272615   4.099   0.112   2.309 -0.6007 -1.3697  1.5187
17042TIP3   OH272616   5.453   0.793  16.620  0.6833 -0.8226  0.4630
17042TIP3    H172617   5.414   0.780  16.533  2.1892  0.2699 -0.4242
17042TIP3    H272618   5.388   0.845  16.668 -0.8294 -2.6963  0.5623
17043TIP3   OH272619   0.752   0.257  11.304  0.4053 -0.4205 -0.4586
17043TIP3    H172620   0.712   0.231  11.222  0.0740  2.5778 -1.3801
17043TIP3    H272621   0.710   0.341  11.326  2.7346  0.4496  1.0818
17044TIP3   OH272622   2.079   1.937  16.790 -0.3502 -0.2693 -1.1624
17044TIP3    H172623   2.014   1.948  16.720 -0.1483 -0.5209 -1.3894
17044TIP3    H272624   2.088   2.024  16.829 -2.1316 -0.5586  0.0379
17045TIP3   OH272625   3.346   5.877  15.452 -0.3820  0.4764 -0.4319
17045TIP3    H172626   3.323   5.822  15.378  1.2176 -2.4548  1.0822
17045TIP3    H272627   3.427   5.921  15.425 -0.0134 -0.2819 -0.5759
17046TIP3   OH272628   5.098   4.626  16.454 -0.4158 -0.8566  0.1925
17046TIP3    H172629   5.055   4.559  16.507 -0.7923 -0.0605  0.9227
17046TIP3    H272630   5.178   4.584  16.422 -1.0319 -1.9011 -0.0236
17047TIP3   OH272631   4.673   5.977   5.689  0.2636 -0.3032 -0.3322
17047TIP3    H172632   4.644   6.044   5.750  1.1703 -0.6128  0.4701
17047TIP3    H272633   4.618   5.901   5.708  1.3585 -0.8021  0.9948
17048TIP3   OH272634   0.849   5.854  12.574  0.1834 -0.1067 -0.2303
17048TIP3    H172635   0.903   5.872  12.651 -0.7931 -0.2516  0.5214
17048TIP3    H272636   0.911   5.834  12.504  1.1741  2.2712 -0.1021
17049TIP3   OH272637   3.826   0.639   4.593  0.1172  0.1109 -0.0562
17049TIP3    H172638   3.758   0.575   4.613 -0.7304  1.2062  0.7404
17049TIP3    H272639   3.893   0.626   4.660 -0.8503  1.1275  1.1729
17050TIP3   OH272640   6.374   5.564  12.194  0.0449  0.4397  0.2260
17050TIP3    H172641   6.399   5.647  12.235 -2.6874  1.6943 -0.4262
17050TIP3    H272642   6.339   5.588  12.108  0.4377 -1.5506 -0.5492
17051TIP3   OH272643   3.152   5.319  12.524  0.0313 -0.0336  0.1965
17051TIP3    H172644   3.069   5.278  12.502  0.9776 -2.5958  1.0776
17051TIP3    H272645   3.173   5.288  12.612  0.8378  2.4437  0.9748
17052TIP3   OH272646   2.396   6.496  17.226 -0.2399  0.3128  0.1092
17052TIP3    H172647   2.485   6.465  17.212 -0.0283  0.1296  1.6669
17052TIP3    H272648   2.353   6.485  17.141  1.2339  0.4995 -0.6921
17053TIP3   OH272649   1.982   6.559   4.500  0.3069 -0.4457 -0.5994
17053TIP3    H172650   2.032   6.520   4.573  0.6852  4.9438  2.5527
17053TIP3    H272651   2.049   6.593   4.441  0.2923  1.3014  0.3372
17054TIP3   OH272652   6.306   4.790  14.036 -0.2482  0.0528 -0.3266
17054TIP3    H172653   6.278   4.699  14.030 -0.0304 -0.0417  0.0393
17054TIP3    H272654   6.271   4.831  13.957  0.4040 -0.5498 -0.9474
17055TIP3   OH272655   0.907   5.244   5.037  0.0035  0.2100 -0.2724
17055TIP3    H172656   0.896   5.158   4.997  0.1271  0.1720 -0.2268
17055TIP3    H272657   0.896   5.228   5.130  1.6231 -0.0580 -0.0860
17056TIP3   OH272658   4.309   4.257   5.548 -0.3345 -0.2324 -0.1385
17056TIP3    H172659   4.243   4.189   5.537 -0.2049 -0.3521 -0.1838
17056TIP3    H272660   4.389   4.209   5.572 -0.4750 -0.0197  0.7772
17057TIP3   OH272661   5.671   0.995  13.831 -0.2228  0.0560 -0.3670
17057TIP3    H172662   5.576   1.005  13.828 -0.3848 -1.2632 -0.0727
17057TIP3    H272663   5.699   1.055  13.901 -1.1425 -1.4616  1.3958
17058TIP3   OH272664   3.297   6.277  14.492 -0.5476  0.2622  0.1228
17058TIP3    H172665   3.276   6.365  14.462  0.2772  0.5489  0.3563
17058TIP3    H272666   3.234   6.259  14.562  0.3381  1.3318  1.2323
17059TIP3   OH272667   3.088   1.016   0.822  0.1097  0.4023  0.2477
17059TIP3    H172668   3.093   0.939   0.879  1.0446  1.2711  1.3855
17059TIP3    H272669   3.170   1.063   0.838  1.7803 -0.6419 -3.8186
17060TIP3   OH272670   2.351   5.224   3.655  0.0950 -0.0657  0.0826
17060TIP3    H172671   2.336   5.309   3.696 -1.4025  1.6386 -3.5454
17060TIP3    H272672   2.427   5.239   3.598 -0.6012 -0.9271 -1.1107
17061TIP3   OH272673   5.953   6.351  15.519  0.0497  0.3495 -0.0229
17061TIP3    H172674   6.046   6.370  15.514  0.0237  0.5548  0.2914
17061TIP3    H272675   5.948   6.260  15.548  0.1506  0.3446 -0.0232
17062TIP3   OH272676   2.548   2.457  11.948  0.2496 -0.8553 -0.3139
17062TIP3    H172677   2.535   2.536  11.897  0.7420 -0.0386  0.7711
17062TIP3    H272678   2.462   2.416  11.952  0.1051 -0.6692 -1.3442
17063TIP3   OH272679   4.412   2.849  15.758 -0.3509 -0.0684 -0.2824
17063TIP3    H172680   4.433   2.812  15.844 -0.2822  0.2273 -0.1707
17063TIP3    H272681   4.445   2.785  15.695 -0.2473 -0.2032 -0.0906
17064TIP3   OH272682   4.667   0.498   5.241  0.7621  0.0001  0.3173
17064TIP3    H172683   4.604   0.460   5.302  0.4226  0.7033  0.4177
17064TIP3    H272684   4.710   0.423   5.200  1.3321 -0.4889  1.7690
17065TIP3   OH272685   5.780   3.478  14.939  0.7463  0.4034 -0.7248
17065TIP3    H172686   5.824   3.557  14.969 -0.4962  0.1835  1.9573
17065TIP3    H272687   5.711   3.510  14.881 -0.3362  1.4281  1.0454
17066TIP3   OH272688   6.223   3.638   2.778 -0.2341  0.5845 -0.0984
17066TIP3    H172689   6.234   3.553   2.820 -0.6645  0.5143 -0.1302
17066TIP3    H272690   6.303   3.649   2.726 -0.2115  0.1650 -0.1568
17067TIP3   OH272691   3.592   6.146   2.034 -0.6057  0.6638  0.2256
17067TIP3    H172692   3.545   6.105   2.107  1.3662  1.1118  1.8531
17067TIP3    H272693   3.564   6.238   2.036 -0.8447  0.5921  0.1768
17068TIP3   OH272694   1.700   5.245   1.474 -0.3996 -0.0116 -0.9472
17068TIP3    H172695   1.750   5.274   1.550  1.3838 -1.1622 -1.6107
17068TIP3    H272696   1.763   5.246   1.401 -1.5517 -0.7123 -2.0075
17069TIP3   OH272697   6.196   0.385   3.661 -0.7723  0.5535  0.2143
17069TIP3    H172698   6.204   0.429   3.745  0.6002  2.1739 -0.7119
17069TIP3    H272699   6.264   0.318   3.662 -0.4911  0.8363  0.2635
17070TIP3   OH272700   1.686   1.229   4.585  0.0564  0.3228 -0.0724
17070TIP3    H172701   1.608   1.177   4.564  0.4522 -0.2537 -0.1554
17070TIP3    H272702   1.671   1.259   4.675  0.3467 -0.9570  0.4240
17071TIP3   OH272703   5.080   5.294  13.075 -0.3227 -0.1254  0.5310
17071TIP3    H172704   5.060   5.231  13.144 -2.4578  0.4257  0.5094
17071TIP3    H272705   5.170   5.275  13.049 -0.4120 -2.1601  1.5417
17072TIP3   OH272706   4.626   6.349  14.529 -0.2365  0.0346 -0.1776
17072TIP3    H172707   4.573   6.429  14.517  0.3039  0.2404 -1.3813
17072TIP3    H272708   4.681   6.346  14.451 -1.0149 -2.1123 -0.7130
17073TIP3   OH272709   4.934   5.806   3.242 -0.1904  0.2285 -0.0651
17073TIP3    H172710   4.937   5.732   3.302  2.7307  0.3428  0.0633
17073TIP3    H272711   5.024   5.837   3.238 -0.6046  1.3519 -3.1461
17074TIP3   OH272712   0.976   2.835  11.771  0.3932 -0.0701 -0.1212
17074TIP3    H172713   0.947   2.751  11.734  0.5126 -1.7925  3.2846
17074TIP3    H272714   1.063   2.817  11.806 -1.0146  0.1744  4.0243
17075TIP3   OH272715   6.162   4.403  15.280 -0.1436  0.4082  0.7871
17075TIP3    H172716   6.238   4.460  15.273  0.3562 -0.2596  0.6400
17075TIP3    H272717   6.158   4.358  15.196 -2.8789  3.0463 -0.6845
17076TIP3   OH272718   2.409   4.579   0.234  0.3381 -0.0790 -0.0660
17076TIP3    H172719   2.473   4.517   0.199 -0.3528 -0.8693  0.0351
17076TIP3    H272720   2.461   4.653   0.262  1.1333 -0.3689 -0.7133
17077TIP3   OH272721   5.004   2.488   4.488 -0.1579  0.2654  0.3564
17077TIP3    H172722   4.913   2.495   4.516  0.0207 -0.0045  1.0399
17077TIP3    H272723   5.025   2.574   4.452 -1.6582 -0.6069 -2.9925
17078TIP3   OH272724   3.346   4.133   0.057  0.0823 -0.2829  0.6887
17078TIP3    H172725   3.385   4.059   0.103 -0.6089 -1.3375 -0.3741
17078TIP3    H272726   3.314   4.096  -0.025  2.0943  1.6725 -1.1376
17079TIP3   OH272727   2.128   3.000   4.677  0.2992 -0.3799 -0.1462
17079TIP3    H172728   2.130   2.949   4.596  2.5337  1.6718 -1.5427
17079TIP3    H272729   2.215   2.988   4.715 -0.6888 -1.2284  1.9832
17080TIP3   OH272730   1.904   1.859  13.728  0.1850 -0.2632  0.2978
17080TIP3    H172731   1.815   1.824  13.725  0.4085 -1.2406  2.6204
17080TIP3    H272732   1.960   1.784  13.707  0.4935  0.1650 -0.4278
17081TIP3   OH272733   3.116   1.733  15.173  0.3009  0.0015  0.0898
17081TIP3    H172734   3.120   1.639  15.192  0.8441 -0.0737 -0.3836
17081TIP3    H272735   3.086   1.772  15.255 -1.0014 -0.6892 -0.0406
17082TIP3   OH272736   0.079   0.355   0.532  0.0058 -0.4158 -0.2484
17082TIP3    H172737   0.012   0.396   0.586 -0.4024 -0.8723 -0.3974
17082TIP3    H272738   0.154   0.346   0.591  0.7747  2.1797 -0.7057
17083TIP3   OH272739   3.644   0.349  14.222 -0.0412  0.3223 -0.2140
17083TIP3    H172740   3.657   0.273  14.165 -1.5315 -0.3475  0.2833
17083TIP3    H272741   3.548   0.357  14.228  0.1081  1.6080  0.5786
17084TIP3   OH272742   0.606   3.552   2.015  0.2117  0.3685 -0.3285
17084TIP3    H172743   0.604   3.487   1.944  0.0407 -1.0750  0.9446
17084TIP3    H272744   0.514   3.575   2.028  0.2119  0.3866 -0.3581
17085TIP3   OH272745   2.434   0.710  16.354 -0.0719 -0.3355  0.1127
17085TIP3    H172746   2.442   0.787  16.410  0.6835  0.3318 -0.8849
17085TIP3    H272747   2.508   0.654  16.378  0.5270  0.1719 -0.5596
17086TIP3   OH272748   6.416   1.743   0.322  0.1527  0.0710 -0.0097
17086TIP3    H172749   6.417   1.707   0.411  0.4287 -0.5213 -0.2514
17086TIP3    H272750   6.508   1.755   0.300  0.0696  0.7526 -0.0086
17087TIP3   OH272751   5.900   3.594   1.487  0.6032 -0.0164  0.0343
17087TIP3    H172752   5.816   3.615   1.528 -0.0175  0.0538 -1.2157
17087TIP3    H272753   5.954   3.671   1.504 -0.0636  0.5553 -0.3468
17088TIP3   OH272754   6.106   1.902   3.738 -0.1217  0.1422  0.2353
17088TIP3    H172755   6.107   1.982   3.685 -0.6719  0.8927  1.3185
17088TIP3    H272756   6.166   1.919   3.810  2.1734 -1.6280 -1.1200
17089TIP3   OH272757   1.671   0.669   6.275 -0.2299 -0.9285 -1.2769
17089TIP3    H172758   1.729   0.634   6.342  1.2410 -1.3599 -2.7137
17089TIP3    H272759   1.590   0.618   6.283 -0.6631 -0.0200  1.0436
17090TIP3   OH272760   6.243   3.774  15.892  0.1807  0.1324  0.1286
17090TIP3    H172761   6.208   3.739  15.810  0.3636 -0.4625  0.2941
17090TIP3    H272762   6.175   3.754  15.957  0.4201 -0.1942  0.2805
17091TIP3   OH272763   4.254   4.835  15.686  0.2366 -0.5730  0.1920
17091TIP3    H172764   4.318   4.876  15.745  2.0116  0.9041 -2.4967
17091TIP3    H272765   4.170   4.873  15.711  1.1241  1.0176  0.9121
17092TIP3   OH272766   3.757   1.380  16.485  0.3420  0.2375 -0.0633
17092TIP3    H172767   3.847   1.392  16.517 -0.3433  2.9257  1.1148
17092TIP3    H272768   3.709   1.346  16.560  0.0255  0.4432 -0.1684
17093TIP3   OH272769   1.082   2.252  11.143 -0.0993  0.1031  0.0943
17093TIP3    H172770   1.096   2.229  11.052  0.0730 -1.6523  0.5199
17093TIP3    H272771   1.147   2.319  11.162 -0.8304  1.2640 -1.3240
17094TIP3   OH272772   5.116   1.530   3.212 -0.0494  0.0645  0.5078
17094TIP3    H172773   5.137   1.480   3.133 -0.7990  0.5259 -0.0040
17094TIP3    H272774   5.188   1.593   3.220  0.5685 -0.6682  0.7963
17095TIP3   OH272775   4.626   2.778   4.062  0.0341  0.0019  0.2019
17095TIP3    H172776   4.545   2.827   4.079 -0.0722  0.0465 -0.4250
17095TIP3    H272777   4.671   2.777   4.147  0.2947  1.6317  0.1229
17096TIP3   OH272778   3.463   1.459   5.903 -0.2915  0.3635  0.0971
17096TIP3    H172779   3.396   1.524   5.883 -1.3518 -0.7523 -0.0824
17096TIP3    H272780   3.528   1.468   5.833 -0.1092  1.5943  0.3896
17097TIP3   OH272781   3.757   2.652  12.558  0.2543  0.6572 -0.3066
17097TIP3    H172782   3.739   2.652  12.464 -0.0461  0.2212 -0.2489
17097TIP3    H272783   3.798   2.567  12.575 -1.1649  0.0388  0.2263
17098TIP3   OH272784   1.680   3.709  11.949  0.0632 -0.1503 -0.6083
17098TIP3    H172785   1.763   3.709  11.902  0.6648 -0.2928  0.4150
17098TIP3    H272786   1.696   3.765  12.025 -0.9723  0.3019 -0.7162
17099TIP3   OH272787   2.425   0.399   3.977  0.8693 -0.0501 -0.0920
17099TIP3    H172788   2.462   0.311   3.977 -1.7236 -1.2022  0.2115
17099TIP3    H272789   2.349   0.394   3.919  1.0522  2.2035 -0.6479
17100TIP3   OH272790   4.090   2.522  14.196  0.3680 -0.1434  0.6174
17100TIP3    H172791   4.058   2.610  14.176  1.8966  0.2247 -0.3492
17100TIP3    H272792   4.173   2.536  14.241  1.1637 -1.0879 -0.5017
17101TIP3   OH272793   1.051   4.747   0.059  0.0213 -0.2629  0.7957
17101TIP3    H172794   0.970   4.711   0.023  1.1651 -0.8430 -1.4082
17101TIP3    H272795   1.092   4.792  -0.015  1.4344  0.5334  2.0063
17102TIP3   OH272796   5.147   5.432  14.816 -0.0397 -0.3098  0.0650
17102TIP3    H172797   5.163   5.477  14.899  0.4680  0.6418 -0.5340
17102TIP3    H272798   5.166   5.497  14.749 -2.0629 -0.5350 -0.7935
17103TIP3   OH272799   5.697   4.095  15.870 -0.0633  0.1508  0.3114
17103TIP3    H172800   5.725   4.104  15.961  1.0897  1.2016 -0.1048
17103TIP3    H272801   5.778   4.077  15.822 -0.7193 -0.8688 -0.4583
17104TIP3   OH272802   4.353   4.063   6.174 -0.0517 -0.0044  0.6293
17104TIP3    H172803   4.311   4.121   6.237  0.7385 -0.4396  1.5670
17104TIP3    H272804   4.304   3.981   6.181  0.1549 -0.1117  0.8096
17105TIP3   OH272805   4.127   6.446  15.770 -0.0793 -0.3028  0.3892
17105TIP3    H172806   4.096   6.493  15.693 -0.0177 -0.3736  0.3206
17105TIP3    H272807   4.048   6.416  15.815 -0.0940 -1.7136 -0.5398
17106TIP3   OH272808   4.474   2.511  16.205  1.0601  0.0038 -0.2119
17106TIP3    H172809   4.492   2.432  16.155  3.2874 -0.7318  1.5456
17106TIP3    H272810   4.410   2.483  16.271  0.2033  0.2516 -0.9317
17107TIP3   OH272811   3.655   1.473  16.247 -0.0552 -0.8656  0.2385
17107TIP3    H172812   3.582   1.412  16.255  1.3109 -2.5999  0.0408
17107TIP3    H272813   3.703   1.466  16.330  0.0947  0.0015  0.2413
17108TIP3   OH272814   2.212   5.080  17.378 -0.2179 -0.1246  0.0765
17108TIP3    H172815   2.238   5.071  17.470 -1.5963 -1.3033  0.3893
17108TIP3    H272816   2.295   5.086  17.330  0.5184  0.3822  1.3710
17109TIP3   OH272817   6.234   4.324  14.802 -0.4204  0.1050  0.2221
17109TIP3    H172818   6.178   4.269  14.857 -0.9116  1.8191  1.5357
17109TIP3    H272819   6.267   4.391  14.862  2.0572 -0.0953 -0.7880
17110TIP3   OH272820   4.887   5.422   1.959 -0.3497  0.5087 -0.4704
17110TIP3    H172821   4.929   5.337   1.947  0.0882  0.7018 -0.3156
17110TIP3    H272822   4.927   5.478   1.893 -1.9604  0.1365 -1.8432
17111TIP3   OH272823   1.725   5.220   2.820  0.0832  0.2256  0.4307
17111TIP3    H172824   1.713   5.315   2.823  0.3573  0.3179 -0.9960
17111TIP3    H272825   1.794   5.207   2.755 -1.3744 -1.0780 -0.9049
17112TIP3   OH272826   4.179   6.211  15.353  0.3117 -0.1109 -0.1966
17112TIP3    H172827   4.235   6.149  15.400  0.7621  0.4026 -0.0399
17112TIP3    H272828   4.194   6.191  15.260 -2.9037 -3.2210 -0.2517
17113TIP3   OH272829   5.482   5.590   5.808  0.1345 -0.0222  0.4483
17113TIP3    H172830   5.573   5.616   5.824  0.8630 -2.0746  0.0675
17113TIP3    H272831   5.459   5.536   5.884 -1.0197  1.0094  0.8578
17114TIP3   OH272832   2.347   3.304  12.947  0.7314  0.2024  0.3182
17114TIP3    H172833   2.302   3.239  12.892 -0.3153  0.7811  0.4681
17114TIP3    H272834   2.277   3.352  12.989  1.4154  2.5623 -1.0659
17115TIP3   OH272835   6.296   0.199  13.158 -0.0314  0.0683 -0.0560
17115TIP3    H172836   6.331   0.115  13.129 -2.9065 -2.4039  2.7953
17115TIP3    H272837   6.364   0.236  13.214  1.2426 -0.3761 -1.2758
17116TIP3   OH272838   5.529   5.050   6.492  0.2862  0.1916  0.0002
17116TIP3    H172839   5.581   5.052   6.572  0.3451  1.8788 -0.0400
17116TIP3    H272840   5.477   4.970   6.500  1.5896 -0.6241  0.8546
17117TIP3   OH272841   0.653   0.995  15.119  0.6586 -0.1080 -0.2750
17117TIP3    H172842   0.670   1.086  15.143 -0.2438  0.0225 -0.1023
17117TIP3    H272843   0.719   0.975  15.054  0.6260  0.7975 -0.5989
17118TIP3   OH272844   1.474   3.401   1.713  0.5079 -0.5132  0.1619
17118TIP3    H172845   1.403   3.340   1.692  0.1794 -0.4218  0.9726
17118TIP3    H272846   1.430   3.485   1.726  1.0543  0.1313 -1.8602
17119TIP3   OH272847   2.046   3.818   1.979  0.3482 -0.2835  0.0545
17119TIP3    H172848   1.991   3.871   2.038  0.3424  1.0204 -1.0586
17119TIP3    H272849   2.024   3.728   2.000  0.0796  0.1470  1.7918
17120TIP3   OH272850   5.829   0.662   0.043 -0.3556  0.4297  0.3208
17120TIP3    H172851   5.809   0.569   0.041 -1.9958  0.7461  0.2279
17120TIP3    H272852   5.783   0.699  -0.033 -0.0554  1.3694  0.5719
17121TIP3   OH272853   1.509   5.585  10.464 -0.2256 -0.0891  0.0508
17121TIP3    H172854   1.559   5.504  10.454  0.4108  0.4294 -1.2572
17121TIP3    H272855   1.434   5.560  10.518  1.7002 -0.7494  2.5960
17122TIP3   OH272856   6.443   0.045  15.125  0.1499  0.4420 -0.9043
17122TIP3    H172857   6.392   0.034  15.205 -0.1452 -1.4109 -1.3029
17122TIP3    H272858   6.378   0.037  15.054  0.4388  1.8325 -1.3586
17123TIP3   OH272859   0.624   4.272   2.764  0.6616  0.2825  0.2716
17123TIP3    H172860   0.594   4.286   2.854  1.2977 -0.8191  0.6703
17123TIP3    H272861   0.707   4.226   2.773  2.0159  2.3464 -0.8351
17124TIP3   OH272862   2.977   3.866   5.385  0.8806 -0.2883  0.2527
17124TIP3    H172863   2.980   3.961   5.383 -0.2414 -0.2318  0.6768
17124TIP3    H272864   2.999   3.843   5.475  0.7814 -0.4128  0.2457
17125TIP3   OH272865   1.881   5.887  16.920 -0.2164  0.5357  0.1194
17125TIP3    H172866   1.915   5.917  16.835 -0.1936 -0.1615 -0.1234
17125TIP3    H272867   1.947   5.826  16.952  0.4552  1.8215  1.3058
17126TIP3   OH272868   0.240   1.446   6.036 -0.0402  0.0954 -0.3841
17126TIP3    H172869   0.334   1.429   6.042  0.1417  0.3891 -2.0001
17126TIP3    H272870   0.232   1.540   6.051 -0.1247  0.0100  0.1223
17127TIP3   OH272871   4.868   6.754   0.788  0.5789  0.3859 -0.1178
17127TIP3    H172872   4.846   6.795   0.705 -0.3671  1.1033  0.4696
17127TIP3    H272873   4.785   6.745   0.834  0.6537 -2.6557 -0.3881
17128TIP3   OH272874   2.609   0.500   3.084  0.2918  0.0957  0.2746
17128TIP3    H172875   2.647   0.518   3.170  1.4489  0.9116 -0.3793
17128TIP3    H272876   2.614   0.405   3.076  0.7042  0.0576  0.8742
17129TIP3   OH272877   4.325   2.399  13.414  0.1018  0.4579  0.3533
17129TIP3    H172878   4.372   2.386  13.332  1.3545 -0.6274  1.2018
17129TIP3    H272879   4.375   2.467  13.460  0.5705 -0.3344  1.0407
17130TIP3   OH272880   6.004   0.818   3.829  0.3984  0.1354 -0.5954
17130TIP3    H172881   5.991   0.769   3.911  1.3722  1.8388  0.6547
17130TIP3    H272882   6.058   0.761   3.775 -1.3246 -1.5705 -0.6195
17131TIP3   OH272883   3.286   3.598   4.056  0.4780 -0.0851 -0.0344
17131TIP3    H172884   3.276   3.534   3.985 -0.4651  0.2093 -0.1876
17131TIP3    H272885   3.237   3.559   4.129 -0.1704  0.4964 -0.1543
17132TIP3   OH272886   0.885   3.638  12.484 -0.5240 -0.6761  0.1780
17132TIP3    H172887   0.821   3.630  12.554  0.1486  1.6237  1.1365
17132TIP3    H272888   0.970   3.642  12.528  0.1340 -1.5865 -0.9402
17133TIP3   OH272889   4.165   2.165   3.261 -0.0909 -0.0454 -0.0204
17133TIP3    H172890   4.162   2.212   3.177 -1.0151 -0.5279 -0.2796
17133TIP3    H272891   4.253   2.129   3.265  0.3555  0.9778 -0.2197
17134TIP3   OH272892   2.890   6.495   4.127 -0.0548  0.6330 -0.7774
17134TIP3    H172893   2.913   6.521   4.038 -0.2657  1.4540 -0.5921
17134TIP3    H272894   2.873   6.577   4.173 -0.7727  0.1698 -0.2015
17135TIP3   OH272895   5.548   2.017   6.908  0.1294 -0.2761 -0.0829
17135TIP3    H172896   5.484   1.971   6.963 -0.1389  0.7777  0.5082
17135TIP3    H272897   5.528   2.110   6.921 -0.4592  0.0184 -2.5539
17136TIP3   OH272898   4.311   3.258   4.791  0.1183  0.3507 -0.3521
17136TIP3    H172899   4.246   3.191   4.817  0.6732  0.3075  1.0094
17136TIP3    H272900   4.288   3.279   4.701  0.1371 -1.9441 -0.9645
17137TIP3   OH272901   3.413   4.901   3.346 -0.2055  0.0222  0.3853
17137TIP3    H172902   3.499   4.906   3.303 -0.4221 -2.5606 -0.5494
17137TIP3    H272903   3.351   4.934   3.281 -0.3865 -2.6769 -0.9293
17138TIP3   OH272904   4.101   6.638   0.690  0.0566  0.4448  0.3847
17138TIP3    H172905   4.169   6.608   0.629 -0.9207  0.7452 -0.9206
17138TIP3    H272906   4.148   6.662   0.769  1.4152  0.2402 -0.3253
17139TIP3   OH272907   5.032   3.713  13.375  0.3258 -0.0879 -0.0185
17139TIP3    H172908   5.040   3.623  13.344 -0.5419  0.1708 -1.0561
17139TIP3    H272909   5.002   3.762  13.298  1.4661  1.2214  0.3475
17140TIP3   OH272910   6.101   4.882  14.490  0.5238  0.3704  0.0016
17140TIP3    H172911   6.124   4.896  14.582 -2.8454 -3.5238  1.7569
17140TIP3    H272912   6.168   4.821  14.458  0.4471 -0.0520  0.6244
17141TIP3   OH272913   6.526   2.196  11.770 -0.1650 -0.8386 -0.3873
17141TIP3    H172914   6.606   2.178  11.820 -1.2683  1.1749  2.3187
17141TIP3    H272915   6.527   2.290  11.756 -2.4707 -0.6415  0.4818
17142TIP3   OH272916   3.886   0.353  10.773 -0.4734 -0.6471 -0.0264
17142TIP3    H172917   3.978   0.377  10.781 -0.8483  0.6742  0.7078
17142TIP3    H272918   3.842   0.436  10.753 -1.2625 -1.6228 -2.7328
17143TIP3   OH272919   3.699   2.212  12.565  0.1131  0.2009  0.0224
17143TIP3    H172920   3.681   2.118  12.573 -1.0154  0.4739  1.1215
17143TIP3    H272921   3.624   2.246  12.517  0.0648  0.6692  0.4237
17144TIP3   OH272922   3.307   4.195  13.716  0.0162  0.3015 -0.1145
17144TIP3    H172923   3.331   4.155  13.800  2.4267  2.6341  0.4267
17144TIP3    H272924   3.376   4.259  13.699 -0.8850  0.5702 -3.4619
17145TIP3   OH272925   0.703   1.188  17.226 -0.0098 -0.0849 -0.4279
17145TIP3    H172926   0.669   1.099  17.235 -2.5192  0.9960  2.5424
17145TIP3    H272927   0.773   1.194  17.291  0.3008  0.0436 -0.7722
17146TIP3   OH272928   5.080   2.190  15.102  0.2809 -1.0756  0.3703
17146TIP3    H172929   5.106   2.201  15.011 -1.4547 -2.7851 -0.4038
17146TIP3    H272930   5.044   2.275  15.127  2.5884  0.0332  0.1627
17147TIP3   OH272931   6.052   6.483   2.512 -0.0001 -0.0282  0.6306
17147TIP3    H172932   6.082   6.392   2.519  1.6590  0.4448  0.2398
17147TIP3    H272933   6.052   6.501   2.418  0.3566  0.5832  0.7453
17148TIP3   OH272934   4.559   0.097  16.399  0.3824 -0.0896 -0.3583
17148TIP3    H172935   4.469   0.130  16.395  0.2422 -0.5144 -0.7732
17148TIP3    H272936   4.550   0.002  16.385  0.6551 -0.4987  1.8699
17149TIP3   OH272937   4.128   5.891  16.163 -0.5489 -0.2550  0.2129
17149TIP3    H172938   4.094   5.909  16.251 -0.9626 -1.0593  0.2347
17149TIP3    H272939   4.149   5.797  16.165 -0.3200 -0.2227 -0.4670
17150TIP3   OH272940   4.537   0.449  11.334 -0.3699  0.5126  0.2293
17150TIP3    H172941   4.538   0.354  11.345 -0.9421  0.5206  0.3783
17150TIP3    H272942   4.526   0.483  11.423  1.0859  0.7670  0.3459
17151TIP3   OH272943   5.454   1.499   1.109  0.4505 -0.8592  0.5071
17151TIP3    H172944   5.382   1.553   1.141 -0.2237 -1.6837  0.4429
17151TIP3    H272945   5.495   1.551   1.040 -2.7784 -1.9269 -2.5732
17152TIP3   OH272946   6.253   3.572  11.939  0.2886  0.0077  0.0484
17152TIP3    H172947   6.263   3.489  11.986  1.9496  0.1359 -0.0235
17152TIP3    H272948   6.226   3.546  11.851  1.9162 -0.5857 -0.3218
17153TIP3   OH272949   3.397   4.686  12.872 -0.3931 -0.2620 -0.7764
17153TIP3    H172950   3.363   4.597  12.865  0.1808 -0.5398 -0.1496
17153TIP3    H272951   3.325   4.736  12.911 -0.8144 -0.3815 -1.3793
17154TIP3   OH272952   0.647   4.342   4.948 -0.2553 -0.2734  0.0985
17154TIP3    H172953   0.722   4.353   5.005  1.7238 -3.8243 -1.5223
17154TIP3    H272954   0.572   4.337   5.008  1.0459  0.9462  1.9394
17155TIP3   OH272955   6.286   5.599   3.497  0.5419  0.1698  0.1705
17155TIP3    H172956   6.237   5.656   3.438  0.1312 -1.6019 -1.3237
17155TIP3    H272957   6.356   5.654   3.532  0.4114  1.4930 -1.5107
17156TIP3   OH272958   4.365   6.029  15.431 -0.5490  0.3887 -0.6553
17156TIP3    H172959   4.412   5.954  15.468 -1.1135  0.6867  0.7057
17156TIP3    H272960   4.370   6.015  15.336  1.9312  0.2118 -0.5692
17157TIP3   OH272961   0.766   1.438  17.417  0.0278 -0.1425  0.0936
17157TIP3    H172962   0.747   1.439  17.323 -1.4101  0.4529  0.3706
17157TIP3    H272963   0.858   1.463  17.423  0.2083 -0.4173 -1.1605
17158TIP3   OH272964   4.844   1.765  16.293 -0.2729  1.0140  0.0530
17158TIP3    H172965   4.823   1.858  16.288  1.5271  1.4103 -1.5828
17158TIP3    H272966   4.846   1.736  16.202 -3.4017 -1.3640  0.5412
17159TIP3   OH272967   0.213   3.335   5.271 -0.0450 -0.5977 -0.2485
17159TIP3    H172968   0.243   3.320   5.360  1.5317  0.6456 -0.5266
17159TIP3    H272969   0.257   3.268   5.219 -0.0406 -0.6009 -0.2405
17160TIP3   OH272970   1.357   3.342  13.383  0.5538  0.5554  0.0414
17160TIP3    H172971   1.351   3.265  13.440  2.3063  0.4465  0.1215
17160TIP3    H272972   1.406   3.406  13.434 -0.6121  1.6340 -0.1502
17161TIP3   OH272973   6.540   0.553  15.308  0.0163 -0.1309 -0.3253
17161TIP3    H172974   6.480   0.480  15.294  1.2977 -1.6365  1.4457
17161TIP3    H272975   6.594   0.556  15.229 -1.1032  0.0228 -1.1156
17162TIP3   OH272976   4.512   6.162  13.724  0.9215 -0.2165 -0.0046
17162TIP3    H172977   4.496   6.154  13.819 -0.0675  1.2539 -0.0097
17162TIP3    H272978   4.470   6.085  13.686  1.5204 -0.9376  0.7656
17163TIP3   OH272979   4.240   0.239   4.951  0.0015  0.0971 -0.3640
17163TIP3    H172980   4.169   0.269   5.008 -0.6420 -0.1139 -1.0394
17163TIP3    H272981   4.282   0.168   4.999 -0.1200  0.3501  0.1196
17164TIP3   OH272982   5.116   0.698   2.392 -0.1399  0.0831  0.4330
17164TIP3    H172983   5.152   0.628   2.445 -1.6890  0.8009  2.5673
17164TIP3    H272984   5.176   0.705   2.317  0.2116 -3.2714  0.2665
17165TIP3   OH272985   3.022   2.386   1.996  0.5905 -0.6466  0.4218
17165TIP3    H172986   2.991   2.458   2.050  2.0044 -1.0466  1.8125
17165TIP3    H272987   3.114   2.405   1.979  0.6194 -1.4169 -0.3976
17166TIP3   OH272988   5.557   0.424  13.548 -0.1951  0.5916 -0.0927
17166TIP3    H172989   5.579   0.339  13.511  0.4910  0.6979  0.0657
17166TIP3    H272990   5.465   0.437  13.525  0.2497  0.7207 -1.8824
17167TIP3   OH272991   6.349   5.420   0.488 -0.3809 -0.4625 -0.1208
17167TIP3    H172992   6.393   5.488   0.436 -0.5806 -2.0432 -2.4941
17167TIP3    H272993   6.260   5.453   0.501  0.0138  0.4819  0.2949
17168TIP3   OH272994   3.565   5.578  15.590  0.2729  0.2318 -0.2680
17168TIP3    H172995   3.632   5.580  15.658 -1.1205  0.6776  1.1609
17168TIP3    H272996   3.585   5.653  15.534  0.0919  1.3056  1.0504
17169TIP3   OH272997   3.991   6.597  14.605  0.0826  0.0574  0.0459
17169TIP3    H172998   4.004   6.674  14.549  0.0379 -0.3211 -0.4947
17169TIP3    H272999   4.048   6.612  14.681 -0.1350  0.7488  0.0772
17170TIP3   OH273000   5.686   5.271  15.265 -0.3945 -0.1719 -0.0327
17170TIP3    H173001   5.656   5.280  15.356  1.4312  1.5884  0.4607
17170TIP3    H273002   5.728   5.185  15.263 -1.7775 -0.8893  0.3432
17171TIP3   OH273003   6.312   5.819  13.624 -0.1280  0.0681  0.2948
17171TIP3    H173004   6.271   5.843  13.540 -0.4071  2.4648  1.0354
17171TIP3    H273005   6.405   5.832  13.610  0.3436 -3.4247 -0.7674
17172TIP3   OH273006   4.292   0.795   3.083  0.0178  0.2911 -0.3683
17172TIP3    H173007   4.328   0.883   3.075 -0.4794  0.6185  0.7904
17172TIP3    H273008   4.221   0.803   3.147  0.1741 -1.0165  0.0124
17173TIP3   OH273009   2.373   1.518   1.762  0.2773 -0.3030  0.2573
17173TIP3    H173010   2.416   1.520   1.847 -1.5836  0.0460  1.2344
17173TIP3    H273011   2.401   1.435   1.723  1.1326 -0.4875  1.2243
17174TIP3   OH273012   1.574   1.851   3.399 -0.1858  0.3983 -0.0764
17174TIP3    H173013   1.661   1.846   3.440 -1.2694 -0.3228  2.3345
17174TIP3    H273014   1.591   1.846   3.305  2.3949  0.6956  0.3099
17175TIP3   OH273015   0.990   1.771  11.287 -0.3446 -0.0273 -0.1395
17175TIP3    H173016   1.013   1.852  11.242  1.3792 -1.2105 -1.5238
17175TIP3    H273017   1.009   1.788  11.379 -2.0267  1.7849 -0.0572
17176TIP3   OH273018   4.560   6.449   5.779  0.0086 -0.5231  0.2108
17176TIP3    H173019   4.487   6.450   5.841 -1.5638  1.9069 -1.5088
17176TIP3    H273020   4.519   6.459   5.693  2.3155  2.4108 -0.7433
17177TIP3   OH273021   2.098   0.611   5.337 -0.5844 -0.4261  0.1312
17177TIP3    H173022   2.034   0.656   5.392  0.0468 -0.8145  1.2228
17177TIP3    H273023   2.133   0.680   5.280 -1.2835 -0.0158  0.1911
17178TIP3   OH273024   1.681   1.378   2.728  0.2604 -0.7232  0.2384
17178TIP3    H173025   1.596   1.354   2.765 -1.1978  2.6502 -0.4704
17178TIP3    H273026   1.670   1.365   2.634  0.3234  0.1855  0.0972
17179TIP3   OH273027   2.636   3.558   2.946  0.5502 -0.0756 -0.4499
17179TIP3    H173028   2.729   3.580   2.946  1.0152 -1.8921 -1.2819
17179TIP3    H273029   2.628   3.482   2.888 -1.3334 -0.4405  0.1886
17180TIP3   OH273030   6.164   1.054  14.632 -0.2202  0.3332  0.3583
17180TIP3    H173031   6.094   1.040  14.567  0.8123  0.2316 -0.7645
17180TIP3    H273032   6.160   0.976  14.687 -1.0803  0.3881  0.3935
17181TIP3   OH273033   1.960   2.659  13.336  0.4187  0.0176 -0.1252
17181TIP3    H173034   1.946   2.712  13.414 -0.2228 -0.9925  0.4724
17181TIP3    H273035   1.905   2.699  13.269  0.6256  0.6268  0.0632
17182TIP3   OH273036   3.446   0.710  14.373  0.0511  0.4720 -0.3730
17182TIP3    H173037   3.397   0.668  14.303 -0.7262  1.1877 -0.2808
17182TIP3    H273038   3.508   0.767  14.328  1.0032 -0.6344 -0.4950
17183TIP3   OH273039   0.491   4.126   3.933  0.2788  0.1070 -0.3588
17183TIP3    H173040   0.578   4.145   3.897 -0.8432  1.1429 -2.6972
17183TIP3    H273041   0.471   4.038   3.903  0.7099 -0.3586  0.6628
17184TIP3   OH273042   1.880   3.892   2.866 -0.5718 -0.4325  0.4260
17184TIP3    H173043   1.892   3.913   2.959  1.2242  1.4680 -0.1610
17184TIP3    H273044   1.946   3.825   2.848  1.3289  1.4609 -0.1046
17185TIP3   OH273045   5.775   4.975  14.723  0.0653  0.6810  0.4396
17185TIP3    H173046   5.785   4.991  14.817 -1.5340  0.9021  0.6016
17185TIP3    H273047   5.745   4.884  14.718 -0.0526  0.7355  0.1526
17186TIP3   OH273048   0.564   1.302  16.178  0.3904 -0.3052  0.0606
17186TIP3    H173049   0.639   1.320  16.234 -0.1530 -0.1961  0.7594
17186TIP3    H273050   0.589   1.222  16.131  1.8144  0.8683 -1.3010
17187TIP3   OH273051   4.166   1.297  14.597 -0.4747 -0.1502 -0.1338
17187TIP3    H173052   4.109   1.328  14.667 -1.6443 -2.6792  0.1732
17187TIP3    H273053   4.114   1.307  14.517  0.5731  2.0210 -0.6227
17188TIP3   OH273054   2.440   5.738  15.348  0.2870  0.4146  0.4403
17188TIP3    H173055   2.357   5.690  15.346  0.5410 -0.0203 -0.1691
17188TIP3    H273056   2.446   5.777  15.260  2.1648 -2.1007 -0.6594
17189TIP3   OH273057   6.494   5.011  16.747  0.6395  0.6070 -0.0906
17189TIP3    H173058   6.518   4.952  16.818 -0.6404  1.1406  0.8126
17189TIP3    H273059   6.573   5.063  16.732  1.2800 -0.2653  0.1668
17190TIP3   OH273060   3.957   5.715  13.249 -0.0250 -0.0411  0.0698
17190TIP3    H173061   3.946   5.804  13.282 -1.3107 -0.3072  0.4213
17190TIP3    H273062   3.878   5.669  13.277  1.6346 -1.9556  1.9726
17191TIP3   OH273063   6.641   5.618   3.410  0.2542  0.3611 -0.1462
17191TIP3    H173064   6.716   5.600   3.352 -0.5527  1.5549 -1.6139
17191TIP3    H273065   6.660   5.704   3.447  0.1180  0.1777  0.3656
17192TIP3   OH273066   2.063   5.972   5.082  0.5051  0.2968  0.0374
17192TIP3    H173067   1.976   5.988   5.046  0.5227 -0.1607 -0.2133
17192TIP3    H273068   2.046   5.950   5.174  0.2849 -0.5007 -0.1822
17193TIP3   OH273069   1.200   0.796  13.040 -0.2928  0.4739  0.1147
17193TIP3    H173070   1.209   0.891  13.033 -1.0427  0.5892  0.6172
17193TIP3    H273071   1.232   0.763  12.956 -0.9632  1.2385 -0.4608
17194TIP3   OH273072   3.364   5.141   2.817 -0.6668  0.4779  0.0617
17194TIP3    H173073   3.445   5.192   2.814  0.3109 -0.8909  1.5434
17194TIP3    H273074   3.355   5.106   2.728  0.6830  0.2191 -0.0023
17195TIP3   OH273075   2.157   2.879  15.828  0.0738 -0.4618  0.2771
17195TIP3    H173076   2.140   2.808  15.766  0.5255 -1.2544  1.0349
17195TIP3    H273077   2.160   2.835  15.914  1.3181  0.3226  0.6577
17196TIP3   OH273078   3.587   0.955   0.143 -0.1764 -0.4664 -0.6635
17196TIP3    H173079   3.566   1.040   0.182 -1.1655  0.7025 -3.4681
17196TIP3    H273080   3.639   0.910   0.209  0.1595  2.2131  1.0363
17197TIP3   OH273081   1.535   6.468  10.830  0.4490 -0.2031  1.0879
17197TIP3    H173082   1.526   6.373  10.819 -2.3972  0.0654  0.3021
17197TIP3    H273083   1.497   6.505  10.750  2.4103  1.6503  0.9204
17198TIP3   OH273084   4.768   6.419   0.141  0.6253 -0.3878 -0.0235
17198TIP3    H173085   4.693   6.380   0.186  0.4844 -0.3859 -0.2544
17198TIP3    H273086   4.740   6.426   0.050  0.3742  0.9438  0.1407
17199TIP3   OH273087   1.656   2.017   4.613  0.2160  0.5778 -0.0509
17199TIP3    H173088   1.709   1.965   4.673  0.2992  1.2999  0.5042
17199TIP3    H273089   1.592   2.061   4.669 -0.6543  0.1018 -0.6581
17200TIP3   OH273090   6.064   2.129  12.371  0.0040 -0.3629  0.3669
17200TIP3    H173091   6.014   2.168  12.300 -0.2073 -0.3327  0.5337
17200TIP3    H273092   6.154   2.129  12.339 -0.1243 -0.5927 -0.0132
17201TIP3   OH273093   2.421   5.364  15.743  0.1204  0.9917  0.8089
17201TIP3    H173094   2.396   5.300  15.810  0.6429 -0.5842 -0.4368
17201TIP3    H273095   2.341   5.414  15.726 -0.6494 -0.1635  0.9529
17202TIP3   OH273096   5.832   3.410  12.449  0.1767 -0.0891 -0.0299
17202TIP3    H173097   5.884   3.329  12.452  0.7428  0.2568 -0.4063
17202TIP3    H273098   5.768   3.395  12.380  0.8811  0.1360 -0.7395
17203TIP3   OH273099   0.290   6.173   2.070 -0.0218 -0.5027  0.1246
17203TIP3    H173100   0.352   6.187   2.142 -1.8397 -1.3771  1.9717
17203TIP3    H273101   0.320   6.093   2.028  2.4084  1.2239 -1.6879
17204TIP3   OH273102   5.350   3.372   3.840  0.1296 -0.9210  0.2590
17204TIP3    H173103   5.413   3.324   3.787 -1.7442 -1.2934 -1.7600
17204TIP3    H273104   5.378   3.463   3.834  2.2950 -1.3698  2.1160
17205TIP3   OH273105   4.191   0.537   2.517 -0.5176 -0.0888 -0.5303
17205TIP3    H173106   4.217   0.526   2.426  1.0203  0.7957 -0.2380
17205TIP3    H273107   4.256   0.596   2.554 -1.9760  0.8152  0.7628
17206TIP3   OH273108   3.787   2.568   2.136  0.0456  0.2528  0.1875
17206TIP3    H173109   3.821   2.651   2.167  1.1745 -0.1822  0.1693
17206TIP3    H273110   3.859   2.530   2.085 -0.8888 -0.1717 -0.8704
17207TIP3   OH273111   0.610   6.138  11.733 -0.5250 -0.5147 -0.2243
17207TIP3    H173112   0.515   6.150  11.734 -0.6287 -0.8012 -2.2813
17207TIP3    H273113   0.645   6.217  11.773 -1.6219 -0.7898  1.3824
17208TIP3   OH273114   0.620   0.431   2.006 -0.1738 -0.3367  0.1335
17208TIP3    H173115   0.653   0.396   1.923 -0.5990  1.2609 -0.7618
17208TIP3    H273116   0.697   0.435   2.063  0.4022 -0.2585 -0.6331
17209TIP3   OH273117   5.007   4.040   0.614 -0.0236  0.0147 -0.2405
17209TIP3    H173118   5.047   4.127   0.614 -0.0708  0.0399 -0.9745
17209TIP3    H273119   5.038   3.999   0.695  2.3638 -0.3571 -1.2719
17210TIP3   OH273120   4.610   1.696   1.555 -0.1220  0.4801  0.1765
17210TIP3    H173121   4.558   1.672   1.632 -1.3528  1.1216 -0.4313
17210TIP3    H273122   4.611   1.791   1.556 -0.2029  0.4941 -0.6336
17211TIP3   OH273123   6.120   2.368  15.365 -0.4645 -0.7918  0.0254
17211TIP3    H173124   6.195   2.319  15.329 -0.0389 -1.1615  1.3751
17211TIP3    H273125   6.060   2.300  15.396 -0.6723 -0.4654  0.3400
17212TIP3   OH273126   5.842   3.943   2.894  0.5096 -0.4578  0.0758
17212TIP3    H173127   5.837   4.013   2.829  3.0524  0.7891  1.1218
17212TIP3    H273128   5.759   3.895   2.883 -1.2006  2.4813 -0.8875
17213TIP3   OH273129   4.221   2.599   4.017 -0.0301 -0.7732  0.2416
17213TIP3    H173130   4.148   2.592   3.956  0.0298  1.3378 -0.1485
17213TIP3    H273131   4.294   2.556   3.972 -0.5751 -1.3352 -0.1238
17214TIP3   OH273132   2.723   5.942   1.591 -0.5944 -0.0655 -0.2451
17214TIP3    H173133   2.637   5.939   1.633 -1.4329 -0.2457 -1.8710
17214TIP3    H273134   2.733   5.855   1.551  0.0543  0.1727 -0.6155
17215TIP3   OH273135   0.737   1.988  13.622  0.1901  0.4938 -0.6403
17215TIP3    H173136   0.753   1.919  13.557  1.6002  0.3068 -0.1186
17215TIP3    H273137   0.789   2.062  13.592  0.4151  0.5930 -0.0225
17216TIP3   OH273138   5.491   3.903   1.620  0.3982 -0.0969 -0.0496
17216TIP3    H173139   5.569   3.909   1.566  0.4631 -0.9843 -0.0802
17216TIP3    H273140   5.445   3.985   1.607  0.2754 -0.4030 -1.6560
17217TIP3   OH273141   0.585   5.623   5.402  0.3888  0.3593  0.2778
17217TIP3    H173142   0.651   5.661   5.460  2.3650 -1.8868 -0.3441
17217TIP3    H273143   0.539   5.560   5.458  0.4223  0.1837  0.1068
17218TIP3   OH273144   2.468   4.078  13.398  0.2625 -0.2740 -0.0554
17218TIP3    H173145   2.527   4.010  13.366  1.3100 -1.0247  3.0245
17218TIP3    H273146   2.393   4.030  13.434 -0.2074  0.3887 -0.1343
17219TIP3   OH273147   1.792   5.041   3.009  0.4276  0.4579  0.1486
17219TIP3    H173148   1.748   5.100   2.948  0.6003  0.8619  0.4135
17219TIP3    H273149   1.748   5.055   3.093  0.9636  0.7566  0.3824
17220TIP3   OH273150   1.281   3.650  15.123 -0.2597 -0.3020  0.0254
17220TIP3    H173151   1.309   3.734  15.160  1.2085 -0.4618 -0.6441
17220TIP3    H273152   1.261   3.595  15.199  1.5097 -0.2295  0.5839
17221TIP3   OH273153   3.295   5.280   0.666  0.0118 -0.2549  0.2072
17221TIP3    H173154   3.214   5.235   0.641 -0.7672  0.9885  0.4076
17221TIP3    H273155   3.292   5.363   0.618  1.2864 -0.2792  0.0472
17222TIP3   OH273156   6.018   3.945   5.916 -0.7098 -0.2192  0.1232
17222TIP3    H173157   5.944   3.900   5.956 -0.6332  0.7221  1.3827
17222TIP3    H273158   5.986   3.974   5.831 -1.1861 -1.4267 -0.1223
17223TIP3   OH273159   0.527   2.016   0.427 -0.2552  0.1820 -0.3572
17223TIP3    H173160   0.466   1.947   0.402  0.3922 -0.1494 -1.0487
17223TIP3    H273161   0.612   1.986   0.396  0.3391  0.4705  0.9177
17224TIP3   OH273162   2.200   4.339   0.199  0.1313  0.2439  0.2033
17224TIP3    H173163   2.266   4.408   0.205  0.4725 -0.1104  0.5822
17224TIP3    H273164   2.119   4.380   0.229  0.2855  0.5383  0.2196
17225TIP3   OH273165   0.345   3.632   1.934  0.8018 -0.5143 -0.0416
17225TIP3    H173166   0.365   3.653   1.843 -2.2204  0.6751 -0.5413
17225TIP3    H273167   0.337   3.717   1.977  0.8371 -1.0316  1.0263
17226TIP3   OH273168   4.084   2.732  14.899 -0.1866 -0.1307  0.1345
17226TIP3    H173169   4.150   2.770  14.841 -0.8360  1.2757  0.2653
17226TIP3    H273170   4.126   2.730  14.985 -1.0098  2.9663  0.7193
17227TIP3   OH273171   3.132   3.985  17.007  0.1612  0.5382 -0.7023
17227TIP3    H173172   3.194   3.912  17.006 -0.6073 -0.1297 -0.2846
17227TIP3    H273173   3.105   3.995  16.916 -0.4914 -0.3554 -0.6117
17228TIP3   OH273174   4.781   5.495  13.672  0.2741  0.5257  0.1794
17228TIP3    H173175   4.784   5.406  13.638  0.5479  0.9898 -1.0859
17228TIP3    H273176   4.807   5.487  13.764  1.4651 -0.5484 -0.2218
17229TIP3   OH273177   2.745   5.336  11.591 -0.1464  0.0283  0.4373
17229TIP3    H173178   2.755   5.431  11.585  3.0464 -0.2536 -0.6587
17229TIP3    H273179   2.747   5.306  11.500  1.0017 -1.2006  0.8318
17230TIP3   OH273180   4.085   0.627  14.435 -0.2373  0.3861 -0.0340
17230TIP3    H173181   4.056   0.546  14.394 -1.3702 -0.1990  1.8167
17230TIP3    H273182   4.167   0.603  14.480 -0.3347  0.3795  0.1406
17231TIP3   OH273183   6.310   5.751   2.528 -0.7584  0.0785 -0.4696
17231TIP3    H173184   6.316   5.665   2.485 -1.0841 -0.3828  0.3701
17231TIP3    H273185   6.359   5.810   2.472  0.5269 -0.9103 -0.4288
17232TIP3   OH273186   0.971   4.964   1.630 -0.1756 -0.1198 -0.6470
17232TIP3    H173187   0.947   4.951   1.538 -0.0320  1.2299 -0.9011
17232TIP3    H273188   1.064   4.942   1.633 -0.7151 -2.6311 -0.2540
17233TIP3   OH273189   1.930   6.624   2.681  0.3684  0.5854 -0.3131
17233TIP3    H173190   1.895   6.689   2.620  2.2541  1.1798 -0.8221
17233TIP3    H273191   1.920   6.664   2.768  0.9084  1.2829 -0.5640
17234TIP3   OH273192   6.644   2.892   5.613 -0.0076 -0.6701  0.0826
17234TIP3    H173193   6.615   2.813   5.659 -0.5940 -0.4878  0.0389
17234TIP3    H273194   6.728   2.868   5.574 -0.0376 -1.1772  0.3246
17235TIP3   OH273195   1.874   4.805  16.718  0.4371  0.4836 -0.0594
17235TIP3    H173196   1.845   4.864  16.788 -1.9699 -1.8614  1.0859
17235TIP3    H273197   1.957   4.770  16.748  0.6596  1.3846  0.4036
17236TIP3   OH273198   2.505   4.261   6.787  0.2500 -0.6629  0.7270
17236TIP3    H173199   2.413   4.258   6.760  0.6957  1.2283 -1.2342
17236TIP3    H273200   2.520   4.352   6.812  2.1025 -0.3886 -1.1223
17237TIP3   OH273201   2.826   3.337  14.598  0.3360 -1.0084  0.2598
17237TIP3    H173202   2.831   3.407  14.533  0.3010 -2.1836 -1.0735
17237TIP3    H273203   2.855   3.259  14.550 -0.7312 -2.1137  1.3468
17238TIP3   OH273204   4.466   0.810   3.458  0.5574 -0.0140  0.3497
17238TIP3    H173205   4.562   0.812   3.466  0.5296  0.0513  0.7214
17238TIP3    H273206   4.446   0.724   3.423  0.7631  0.0366  0.1020
17239TIP3   OH273207   1.451   5.696  14.671  0.2884  0.1362  0.2739
17239TIP3    H173208   1.460   5.708  14.577 -0.4123 -2.5311 -0.2158
17239TIP3    H273209   1.529   5.646  14.696 -1.3330 -2.5985  0.2943
17240TIP3   OH273210   3.659   3.851  11.994 -0.3839  0.5204  0.2804
17240TIP3    H173211   3.693   3.772  12.036  0.7997  0.9985  0.2596
17240TIP3    H273212   3.600   3.889  12.059 -0.4909 -0.0578  0.5284
17241TIP3   OH273213   6.615   1.581   5.813 -0.0797 -0.0584 -0.2268
17241TIP3    H173214   6.586   1.517   5.748 -1.8733 -0.3162  0.7601
17241TIP3    H273215   6.710   1.568   5.818 -0.3100 -2.3681 -0.3753
17242TIP3   OH273216   3.572   1.726   0.611  0.1772  0.8097  0.1331
17242TIP3    H173217   3.610   1.808   0.644 -1.0699  1.5669 -0.2514
17242TIP3    H273218   3.485   1.722   0.651  0.6179 -0.9134  1.0345
17243TIP3   OH273219   4.014   2.016  12.527  0.1731 -0.1828  0.3553
17243TIP3    H173220   3.981   2.007  12.437  0.7253 -0.3406  0.1625
17243TIP3    H273221   3.970   1.947  12.576 -1.7627  1.2351  0.7021
17244TIP3   OH273222   1.339   0.457   3.716 -0.5099 -0.4112  0.5388
17244TIP3    H173223   1.297   0.410   3.788  0.8017  0.8362  2.2282
17244TIP3    H273224   1.339   0.396   3.643  0.4536 -2.7752  2.3936
17245TIP3   OH273225   2.833   6.433  13.770  0.8525  0.1160  0.0273
17245TIP3    H173226   2.829   6.443  13.674 -1.3621 -0.8170 -0.0215
17245TIP3    H273227   2.897   6.362  13.783 -1.2442 -2.1326 -1.0440
17246TIP3   OH273228   2.370   3.281  16.536 -0.6994 -0.5442 -0.2470
17246TIP3    H173229   2.275   3.286  16.549 -0.4389  4.2215  2.1058
17246TIP3    H273230   2.404   3.251  16.620 -0.1120  0.5869 -0.0457
17247TIP3   OH273231   4.469   4.237  11.508 -0.0354  0.3950  0.3918
17247TIP3    H173232   4.384   4.251  11.549  0.3463 -1.5677  1.9913
17247TIP3    H273233   4.519   4.315  11.531 -1.2032  1.3318 -0.1288
17248TIP3   OH273234   1.600   4.260  16.196 -0.7489 -0.1222 -0.7727
17248TIP3    H173235   1.576   4.313  16.272 -0.5006  0.2022 -0.9188
17248TIP3    H273236   1.690   4.234  16.213 -0.2131  1.1088 -1.6037
17249TIP3   OH273237   0.193   5.817  12.513 -0.2594  0.0538  0.1379
17249TIP3    H173238   0.286   5.840  12.512 -0.2428 -0.0184  0.0500
17249TIP3    H273239   0.189   5.737  12.567 -0.4411  0.8048  1.2795
17250TIP3   OH273240   2.852   4.811   0.500  0.5512  0.2860  0.0719
17250TIP3    H173241   2.915   4.846   0.563 -0.0756  0.4902  0.6036
17250TIP3    H273242   2.811   4.737   0.546  0.4936  0.0762 -0.3133
17251TIP3   OH273243   5.444   2.653  15.578 -0.7356 -0.0599  0.0962
17251TIP3    H173244   5.472   2.717  15.643 -0.6877  0.1113 -0.0943
17251TIP3    H273245   5.348   2.656  15.581 -0.7594  0.9867 -0.8505
17252TIP3   OH273246   3.673   3.307   1.913 -0.1052  0.4602  0.2292
17252TIP3    H173247   3.701   3.390   1.950  1.3657 -0.0942  0.3989
17252TIP3    H273248   3.578   3.306   1.926 -0.0928  1.9394  0.5476
17253TIP3   OH273249   4.194   6.049   0.227 -0.4337  0.4035  0.5312
17253TIP3    H173250   4.168   6.027   0.317  0.1793  1.2928  0.9341
17253TIP3    H273251   4.214   6.142   0.230 -1.1506  0.6170 -0.7146
17254TIP3   OH273252   1.194   2.278   1.026  0.6167 -0.2961 -0.4293
17254TIP3    H173253   1.104   2.251   1.042  0.7755 -0.9219 -0.5828
17254TIP3    H273254   1.246   2.200   1.044  1.2511  0.4098  0.9559
17255TIP3   OH273255   3.146   6.288   0.767 -0.2465  0.0899  0.1969
17255TIP3    H173256   3.220   6.311   0.824  0.0102 -1.4304  0.5312
17255TIP3    H273257   3.185   6.238   0.696 -0.9155 -0.5234  0.2447
17256TIP3   OH273258   3.943   2.962  15.034 -0.3373  0.4598  0.2473
17256TIP3    H173259   4.013   2.982  15.096 -0.5381  0.6713  0.4073
17256TIP3    H273260   3.989   2.927  14.957 -0.1576 -1.0039  0.9695
17257TIP3   OH273261   0.410   3.992  11.440  0.2387 -0.5298  0.1875
17257TIP3    H173262   0.334   4.049  11.442  1.5083  1.2255  0.9831
17257TIP3    H273263   0.421   3.963  11.531  0.8408 -0.3339  0.1777
17258TIP3   OH273264   5.411   3.446  13.634 -0.3884  0.3413 -0.7788
17258TIP3    H173265   5.432   3.523  13.582  0.1525  0.9870  0.3449
17258TIP3    H273266   5.494   3.419  13.672 -0.4389 -1.2879 -1.7651
17259TIP3   OH273267   3.958   2.176  13.473 -0.0019  0.3743 -0.4603
17259TIP3    H173268   4.006   2.114  13.528  1.1831  2.6815  1.2475
17259TIP3    H273269   3.959   2.136  13.386  2.1299 -1.2355  0.2181
17260TIP3   OH273270   3.417   2.413   0.374 -0.5073 -0.0329  0.0998
17260TIP3    H173271   3.385   2.326   0.349 -0.0579  0.4159 -2.2859
17260TIP3    H273272   3.338   2.466   0.386 -0.7418 -0.2122 -0.6603
17261TIP3   OH273273   3.829   3.722   0.813 -0.2249 -0.0387 -0.4061
17261TIP3    H173274   3.776   3.800   0.794  0.9362  1.6148  2.3748
17261TIP3    H273275   3.774   3.670   0.872  0.8958  1.4945  2.1761
17262TIP3   OH273276   5.946   4.200   4.490  0.1178 -0.4392  0.1666
17262TIP3    H173277   5.854   4.174   4.482 -0.1079 -0.0211  1.2633
17262TIP3    H273278   5.994   4.117   4.490 -0.4009 -0.7593  1.1257
17263TIP3   OH273279   6.321   2.009  13.986  0.0055 -0.0027  0.1077
17263TIP3    H173280   6.293   1.958  13.910  1.1166 -0.2868 -0.1366
17263TIP3    H273281   6.390   2.066  13.952 -1.8417  2.3976  0.1624
17264TIP3   OH273282   4.520   1.702   2.627  0.0596  0.1764  0.1623
17264TIP3    H173283   4.484   1.790   2.618 -0.5218 -0.0813 -0.0393
17264TIP3    H273284   4.512   1.682   2.720 -0.4363  0.0695  0.0969
17265TIP3   OH273285   0.536   4.956  13.429 -0.1034  1.3962  0.2342
17265TIP3    H173286   0.556   4.872  13.471 -1.4798  0.3362 -1.1281
17265TIP3    H273287   0.442   4.968  13.442  0.2035  3.1503  1.0927
17266TIP3   OH273288   2.725   3.369   4.577 -0.3442 -0.4663  0.0161
17266TIP3    H173289   2.643   3.405   4.544  1.5766  2.8054 -1.7954
17266TIP3    H273290   2.758   3.436   4.637  0.9752 -1.7543  0.7978
17267TIP3   OH273291   2.405   5.680   3.090 -0.0687 -0.3201  0.1865
17267TIP3    H173292   2.332   5.659   3.033  0.3544  1.9569 -1.3278
17267TIP3    H273293   2.370   5.744   3.152  0.6854  1.1436 -0.8446
17268TIP3   OH273294   2.726   2.878   0.750 -0.3807  0.2293  0.2009
17268TIP3    H173295   2.746   2.888   0.657  0.4190 -2.8206 -0.0661
17268TIP3    H273296   2.638   2.841   0.752 -0.0892 -0.4700  0.5827
17269TIP3   OH273297   3.893   5.292  15.725  0.4725 -0.1442 -0.1604
17269TIP3    H173298   3.935   5.331  15.649  0.7598 -0.1863 -0.0247
17269TIP3    H273299   3.821   5.351  15.746 -0.4568 -0.8350 -1.2838
17270TIP3   OH273300   6.388   4.016   1.827 -0.0820 -0.0286  0.2213
17270TIP3    H173301   6.338   4.095   1.845  1.3010  1.1858 -0.9832
17270TIP3    H273302   6.470   4.029   1.874 -0.7783 -1.9464  2.0979
17271TIP3   OH273303   6.497   6.586  14.498 -0.5313 -0.7967 -0.6501
17271TIP3    H173304   6.561   6.563  14.431 -0.4939  2.7360 -2.0136
17271TIP3    H273305   6.547   6.584  14.580  0.6894 -0.5731 -1.3536
17272TIP3   OH273306   5.178   3.177   2.212 -0.1244 -0.5750  0.0409
17272TIP3    H173307   5.178   3.167   2.307 -1.4006 -0.5337  0.0608
17272TIP3    H273308   5.208   3.092   2.178 -1.4345 -1.2093  0.4400
17273TIP3   OH273309   0.497   5.980   5.074  0.4286  0.0938  0.3432
17273TIP3    H173310   0.478   5.899   5.026 -0.9176 -0.5934  1.9483
17273TIP3    H273311   0.537   5.950   5.156  0.4380  1.0961  0.7171
17274TIP3   OH273312   5.779   6.379  14.436 -0.0217 -0.0052 -0.7099
17274TIP3    H173313   5.748   6.382  14.527 -1.0416  1.4076 -1.0659
17274TIP3    H273314   5.748   6.294  14.404  0.2205 -0.4569  0.2043
17275TIP3   OH273315   4.876   3.008   5.199 -0.4103 -0.4002 -0.3076
17275TIP3    H173316   4.893   3.086   5.251  1.4635 -0.6765 -0.4242
17275TIP3    H273317   4.831   2.949   5.259 -0.3148  0.1407  0.3106
17276TIP3   OH273318   5.311   1.894  12.827 -0.5146 -0.8148 -0.2883
17276TIP3    H173319   5.381   1.888  12.892 -0.5254 -0.4475 -0.2435
17276TIP3    H273320   5.347   1.849  12.750 -0.5815 -1.4244  0.0343
17277TIP3   OH273321   1.951   0.786  12.166 -0.1204 -0.2880  0.7788
17277TIP3    H173322   2.001   0.814  12.243  1.0817  1.6497 -0.5965
17277TIP3    H273323   1.860   0.807  12.187  0.2791  0.9098  1.4196
17278TIP3   OH273324   5.082   4.122  13.745  0.1241  0.1239  0.1312
17278TIP3    H173325   4.991   4.147  13.755  0.6887  1.4542  2.8209
17278TIP3    H273326   5.090   4.039  13.791  0.9022  1.8560  3.4667
17279TIP3   OH273327   0.440   3.178  13.190 -0.0175 -0.0347 -0.7260
17279TIP3    H173328   0.490   3.249  13.232 -0.9941  0.2507 -0.0152
17279TIP3    H273329   0.389   3.222  13.123  0.8471 -0.3634 -1.6217
17280TIP3   OH273330   1.577   4.209  17.296  0.2267  0.0297 -0.6722
17280TIP3    H173331   1.593   4.295  17.257 -0.5752  0.9471  0.9089
17280TIP3    H273332   1.564   4.227  17.389 -1.5543 -1.5962 -0.5342
17281TIP3   OH273333   1.582   3.131  15.504 -0.5404 -0.3023 -0.0488
17281TIP3    H173334   1.614   3.118  15.593 -0.8061 -2.0736 -0.1675
17281TIP3    H273335   1.575   3.043  15.468  0.3027  0.4070 -2.1029
17282TIP3   OH273336   1.845   3.657   2.556 -0.2788 -0.3222  0.2261
17282TIP3    H173337   1.914   3.682   2.617 -0.0378  0.6328 -0.4189
17282TIP3    H273338   1.766   3.649   2.610  0.1832 -0.7302  0.8526
17283TIP3   OH273339   5.013   2.251   4.356 -0.6906  0.0738  0.0267
17283TIP3    H173340   5.026   2.207   4.440  0.0463  1.3822  0.6393
17283TIP3    H273341   5.020   2.344   4.376 -0.4726  0.4213 -1.4934
17284TIP3   OH273342   4.349   1.185   0.733  0.4849  0.1943  0.1166
17284TIP3    H173343   4.386   1.137   0.807 -0.3282 -1.4962 -0.5289
17284TIP3    H273344   4.255   1.185   0.748  0.1476 -1.4374 -1.5533
17285TIP3   OH273345   1.996   2.696   3.642 -0.3217 -0.4691  0.0787
17285TIP3    H173346   2.082   2.682   3.603  0.1868  0.8345  0.6762
17285TIP3    H273347   2.010   2.764   3.708 -1.7923 -0.2961  0.2491
17286TIP3   OH273348   2.210   3.688   3.038  0.0999  0.8913 -0.5594
17286TIP3    H173349   2.299   3.695   3.005  0.7708  0.8027  1.1422
17286TIP3    H273350   2.211   3.735   3.121 -1.7190  1.7848 -0.9895
17287TIP3   OH273351   0.346   2.338   2.080  0.2087  0.1306  0.1611
17287TIP3    H173352   0.344   2.243   2.093  0.9829 -0.2327 -1.9408
17287TIP3    H273353   0.348   2.349   1.985  1.3734  2.2106  0.3585
17288TIP3   OH273354   4.433   1.841  12.927 -0.0939 -0.5046  0.0643
17288TIP3    H173355   4.438   1.754  12.967  0.0699 -0.6363 -0.2383
17288TIP3    H273356   4.524   1.870  12.922 -0.1626 -0.2425  0.3221
17289TIP3   OH273357   5.467   5.755  16.704 -0.7220 -0.1384  0.0858
17289TIP3    H173358   5.478   5.690  16.635 -2.6877  0.1764 -0.5911
17289TIP3    H273359   5.387   5.729  16.749 -0.3731  0.6123  1.1867
17290TIP3   OH273360   1.383   2.145   3.263 -0.7305 -0.3709 -0.4585
17290TIP3    H173361   1.382   2.166   3.356  1.2075  1.8954 -0.8464
17290TIP3    H273362   1.475   2.149   3.238 -1.3490  1.1133 -2.8416
17291TIP3   OH273363   4.609   1.150   4.998  0.3856 -0.0331  0.4592
17291TIP3    H173364   4.613   1.233   5.045 -0.1268  0.3357 -0.1379
17291TIP3    H273365   4.531   1.157   4.943  0.8756 -0.5179 -0.3202
17292TIP3   OH273366   4.876   0.674  12.865 -0.2097 -0.6202 -0.1668
17292TIP3    H173367   4.906   0.590  12.901 -0.2607 -0.7538 -0.4349
17292TIP3    H273368   4.817   0.708  12.932  1.4813  0.2465  0.9599
17293TIP3   OH273369   4.440   6.481   3.857 -0.4272 -0.5082  0.1441
17293TIP3    H173370   4.371   6.443   3.911 -0.5528 -0.0742  0.2975
17293TIP3    H273371   4.399   6.559   3.818 -0.9981 -1.8901 -2.2163
17294TIP3   OH273372   3.859   1.544   2.903  0.2565 -0.2264 -0.3129
17294TIP3    H173373   3.938   1.587   2.935  0.7759 -0.9545 -0.5805
17294TIP3    H273374   3.887   1.455   2.883 -0.7542 -0.6379  0.0564
17295TIP3   OH273375   3.849   4.834   3.728 -0.6247  0.1516 -0.0997
17295TIP3    H173376   3.914   4.795   3.669 -0.4479 -0.5849  0.5630
17295TIP3    H273377   3.831   4.765   3.792 -2.5091  0.1051 -0.6093
17296TIP3   OH273378   3.123   4.910   2.119  0.0431 -0.2078 -0.0429
17296TIP3    H173379   3.166   4.860   2.050 -1.3639 -1.2445 -0.2289
17296TIP3    H273380   3.078   4.843   2.171  0.3489  0.6384  1.3565
17297TIP3   OH273381   1.882   5.522  11.668 -0.2599 -0.2416 -0.3083
17297TIP3    H173382   1.950   5.531  11.602 -0.1747 -1.8744 -0.4957
17297TIP3    H273383   1.913   5.451  11.725 -1.0055  0.1599  0.6209
17298TIP3   OH273384   3.200   0.621   5.066 -0.9365  0.3076  0.0556
17298TIP3    H173385   3.119   0.642   5.112  0.1458  3.2726  0.7886
17298TIP3    H273386   3.221   0.699   5.015  1.4005 -0.4194 -0.2497
17299TIP3   OH273387   4.979   6.407  14.055 -0.2178  0.1329  0.3899
17299TIP3    H173388   5.024   6.323  14.056 -0.9411 -0.3082  3.2363
17299TIP3    H273389   4.917   6.400  13.982  3.3270  0.3837 -3.0009
17300TIP3   OH273390   5.369   4.032   1.956 -0.0518  0.4885 -0.4724
17300TIP3    H173391   5.361   3.986   2.039 -0.2718 -1.9185 -1.7450
17300TIP3    H273392   5.461   4.056   1.950  0.5371 -1.6465 -0.6378
17301TIP3   OH273393   0.410   2.546   4.117  0.0206 -0.5452  1.1801
17301TIP3    H173394   0.455   2.465   4.093  0.8822  0.1562  0.3296
17301TIP3    H273395   0.479   2.601   4.154 -0.2605  0.3016  0.4735
17302TIP3   OH273396   3.248   5.762  14.001 -0.3660 -0.5645 -0.5472
17302TIP3    H173397   3.180   5.817  14.039  0.7691  0.2523  0.3797
17302TIP3    H273398   3.233   5.767  13.906  0.1336  2.0035 -0.5570
17303TIP3   OH273399   5.330   1.743   4.089 -0.2606  0.5288  0.7723
17303TIP3    H173400   5.379   1.709   4.015 -2.0145  0.0129 -0.2100
17303TIP3    H273401   5.247   1.694   4.088  0.1079 -0.4259  3.8392
17304TIP3   OH273402   5.412   3.963  15.425 -0.2633 -0.6989  1.0760
17304TIP3    H173403   5.501   3.933  15.441  0.5018  0.7429 -0.2109
17304TIP3    H273404   5.358   3.886  15.438  1.2233 -1.7472  1.3138
17305TIP3   OH273405   5.662   5.441   1.028 -0.5973 -0.1667 -0.4620
17305TIP3    H173406   5.617   5.490   1.097 -2.3658  0.9124 -2.2586
17305TIP3    H273407   5.663   5.502   0.953  1.1257 -1.3272 -1.4479
17306TIP3   OH273408   3.307   2.132  11.986 -0.2442 -0.4921 -0.0048
17306TIP3    H173409   3.283   2.214  12.030 -0.1291  1.1876 -2.8671
17306TIP3    H273410   3.403   2.130  11.990 -0.2687 -0.8231  0.5737
17307TIP3   OH273411   0.196   5.241   4.073 -0.1904  0.2951  0.0717
17307TIP3    H173412   0.222   5.150   4.083  1.0165  0.3467 -2.0744
17307TIP3    H273413   0.100   5.239   4.073 -0.2949 -0.4737  3.4716
17308TIP3   OH273414   3.405   6.184   3.688  0.1102  0.1551 -0.1477
17308TIP3    H173415   3.310   6.169   3.687  0.3730 -1.7107 -0.6140
17308TIP3    H273416   3.419   6.246   3.617 -0.6426 -0.6247 -1.0170
17309TIP3   OH273417   4.782   0.395   4.382  0.6755 -0.0176  0.2656
17309TIP3    H173418   4.874   0.419   4.367  0.2074  1.9199  0.2092
17309TIP3    H273419   4.766   0.422   4.472 -0.3532  1.5700 -0.3491
17310TIP3   OH273420   3.642   0.459   5.954 -0.2477 -0.4978  0.0509
17310TIP3    H173421   3.691   0.541   5.944  0.8158 -1.1045  0.0759
17310TIP3    H273422   3.562   0.484   6.000  0.0707  0.5246  0.0702
17311TIP3   OH273423   5.819   0.860   5.367  0.3853 -0.0026 -0.3639
17311TIP3    H173424   5.814   0.954   5.387 -1.7812 -0.4134  1.4882
17311TIP3    H273425   5.795   0.817   5.449  0.2664 -2.1596 -1.4600
17312TIP3   OH273426   0.268   4.747   0.714 -0.0987  0.6681 -0.4921
17312TIP3    H173427   0.318   4.821   0.681  1.6338 -0.3836 -0.3340
17312TIP3    H273428   0.319   4.714   0.788 -0.2895 -1.2501 -1.1426
17313TIP3   OH273429   4.759   5.429   5.465  0.6399  0.6603 -0.0809
17313TIP3    H173430   4.766   5.378   5.385 -2.3123  0.0178 -0.0657
17313TIP3    H273431   4.746   5.364   5.534 -0.5559  1.2936  0.3260
17314TIP3   OH273432   0.538   6.108   4.578  0.3873  0.3954 -0.5400
17314TIP3    H173433   0.552   6.181   4.518  0.4227 -1.3215 -2.7557
17314TIP3    H273434   0.595   6.126   4.652  0.6353  2.4318 -1.1795
17315TIP3   OH273435   1.917   2.678   6.218 -0.3473  0.8112  0.5645
17315TIP3    H173436   1.982   2.609   6.205 -0.3811  0.9467 -0.4082
17315TIP3    H273437   1.833   2.637   6.196 -0.0985  1.8819 -3.0735
17316TIP3   OH273438   0.062   6.534  12.776 -0.3567  0.3232 -0.1603
17316TIP3    H173439   0.149   6.497  12.764 -0.1020  0.4693  1.1179
17316TIP3    H273440   0.007   6.485  12.716  0.2853 -1.0306  0.3135
17317TIP3   OH273441   5.609   1.087  12.234 -0.3747  0.5125 -0.1167
17317TIP3    H173442   5.635   1.169  12.192 -0.7807 -0.3324 -2.1697
17317TIP3    H273443   5.596   1.026  12.161 -0.7146 -1.2050  1.2993
17318TIP3   OH273444   3.789   4.743   3.298 -0.0400  0.1158  0.7492
17318TIP3    H173445   3.743   4.827   3.288 -2.6033 -0.9682  2.3007
17318TIP3    H273446   3.758   4.709   3.382  0.2531 -2.7657 -0.1977
17319TIP3   OH273447   6.597   3.421  12.201  0.2594  0.0557  0.1557
17319TIP3    H173448   6.508   3.426  12.236  0.5754 -0.0721  1.0097
17319TIP3    H273449   6.640   3.499  12.236  0.6729 -0.2404  0.3130
17320TIP3   OH273450   3.049   3.858   1.641  0.0266 -0.2549  0.1368
17320TIP3    H173451   3.109   3.905   1.699  0.7287 -1.4477  0.3934
17320TIP3    H273452   3.009   3.791   1.697 -1.7580  0.6466  0.0442
17321TIP3   OH273453   6.546   4.082  15.356  0.1108  0.4009  0.3774
17321TIP3    H173454   6.484   4.155  15.367 -1.4952 -0.5201 -1.8664
17321TIP3    H273455   6.517   4.017  15.419  0.0667  0.7674  0.7427
17322TIP3   OH273456   3.306   0.729   1.325 -0.3600 -0.3480 -0.3690
17322TIP3    H173457   3.272   0.789   1.392 -1.7279 -3.1668  1.6813
17322TIP3    H273458   3.401   0.745   1.325 -0.8089  3.2084 -1.5484
17323TIP3   OH273459   5.575   2.764  13.171 -0.3318  0.7686  0.3023
17323TIP3    H173460   5.483   2.745  13.192 -0.3735  1.3853  0.6970
17323TIP3    H273461   5.624   2.692  13.210 -0.6573  0.3979  0.0269
17324TIP3   OH273462   5.245   1.403   3.472  0.1792 -0.2613  0.2737
17324TIP3    H173463   5.176   1.337   3.463  0.0881 -0.2400  0.7820
17324TIP3    H273464   5.268   1.425   3.382  0.3726 -1.1570  0.0879
17325TIP3   OH273465   5.000   1.949  12.416 -0.1369 -0.1348  0.3737
17325TIP3    H173466   4.911   1.972  12.391 -0.4360  0.4057  1.8045
17325TIP3    H273467   4.994   1.859  12.447  0.5664 -1.4499 -2.9347
17326TIP3   OH273468   0.091   2.895  14.162 -0.4856  0.1798 -0.1979
17326TIP3    H173469   0.021   2.871  14.101 -1.9360 -0.7794  1.7328
17326TIP3    H273470   0.169   2.852  14.127 -1.1348  0.0829 -1.6165
17327TIP3   OH273471   2.888   4.001  15.573 -0.1132  0.1710 -0.5842
17327TIP3    H173472   2.886   3.924  15.631  2.1485  0.0891 -0.4994
17327TIP3    H273473   2.883   4.075  15.633  0.7359  0.0763 -0.3779
17328TIP3   OH273474   2.585   3.123   2.637  0.3143  0.4307 -0.0148
17328TIP3    H173475   2.631   3.072   2.571  1.1087  1.2257 -0.0960
17328TIP3    H273476   2.494   3.093   2.633  0.9191 -1.5750  0.5255
17329TIP3   OH273477   4.784   3.845   3.620 -0.0705  0.2292 -0.1161
17329TIP3    H173478   4.866   3.809   3.656 -1.3908 -0.9757  1.9115
17329TIP3    H273479   4.741   3.770   3.580 -0.3242  0.7971 -0.9255
17330TIP3   OH273480   2.566   3.118   4.276 -0.3047  0.0740 -0.4059
17330TIP3    H173481   2.489   3.105   4.220 -1.0726  1.0357  0.3670
17330TIP3    H273482   2.596   3.206   4.254  0.0529  0.0328 -0.0915
17331TIP3   OH273483   3.214   0.680  12.411 -0.3235  0.2309 -0.4724
17331TIP3    H173484   3.264   0.740  12.468 -0.0292 -0.6335  0.1982
17331TIP3    H273485   3.236   0.593  12.443  0.1774 -0.3045 -2.1959
17332TIP3   OH273486   4.881   6.018  11.222 -0.0378  0.0625  0.0411
17332TIP3    H173487   4.932   6.087  11.264  0.0139  0.1758 -0.2074
17332TIP3    H273488   4.934   5.939  11.232 -0.7924 -0.2848  1.7160
17333TIP3   OH273489   1.889   2.468   5.163  0.4389  0.6984 -0.1693
17333TIP3    H173490   1.894   2.515   5.246 -0.2817  1.7348 -0.6963
17333TIP3    H273491   1.950   2.515   5.105  1.1350 -0.1747 -0.1752
17334TIP3   OH273492   0.975   1.522   3.269  0.2874 -0.1803  0.3815
17334TIP3    H173493   0.896   1.470   3.282 -0.9901  0.7898 -2.6882
17334TIP3    H273494   0.999   1.551   3.357 -2.9027 -0.3046  1.4178
17335TIP3   OH273495   2.875   1.213   1.164  0.1809 -0.2303 -0.1868
17335TIP3    H173496   2.806   1.280   1.166  2.6297  2.4471  0.7920
17335TIP3    H273497   2.927   1.235   1.087  0.0106 -2.2584 -0.9458
17336TIP3   OH273498   5.993   2.109   0.997  0.1653 -0.1310  0.2729
17336TIP3    H173499   5.994   2.205   0.995 -1.5646 -0.0733  0.6891
17336TIP3    H273500   5.989   2.084   0.905 -0.2156  0.2226  0.1897
17337TIP3   OH273501   0.924   3.744  17.120 -0.1350 -0.5366  0.2137
17337TIP3    H173502   0.859   3.788  17.065 -0.1774  3.7711  3.2475
17337TIP3    H273503   0.881   3.735  17.205  1.8881 -1.3448  1.2185
17338TIP3   OH273504   0.909   1.606   3.594  0.2970 -0.8209 -0.0824
17338TIP3    H173505   0.954   1.524   3.614  2.0554  0.3817  1.2403
17338TIP3    H273506   0.876   1.636   3.679 -1.7355 -0.9210 -0.8059
17339TIP3   OH273507   6.225   3.372  14.270  0.4053 -0.8372 -0.7709
17339TIP3    H173508   6.266   3.455  14.246  0.0581 -0.8969 -1.6010
17339TIP3    H273509   6.291   3.306  14.250 -0.7469 -1.1736 -4.2950
17340TIP3   OH273510   3.548   0.722  13.436 -0.5189 -0.6560 -0.2297
17340TIP3    H173511   3.562   0.809  13.475  0.7279  0.2767 -2.5807
17340TIP3    H273512   3.609   0.665  13.482  2.3946  0.8313 -1.9775
17341TIP3   OH273513   3.908   6.056   6.158  0.3543  0.1677  0.4287
17341TIP3    H173514   3.847   6.054   6.084 -1.4294  4.4575  1.4366
17341TIP3    H273515   3.862   6.011   6.229 -1.7827  3.0676  1.0802
17342TIP3   OH273516   4.727   4.581  13.698 -0.2954  0.3892  0.0530
17342TIP3    H173517   4.716   4.653  13.760  0.6858  0.1301  0.5544
17342TIP3    H273518   4.799   4.609  13.641 -1.3368  0.7248 -1.1329
17343TIP3   OH273519   4.758   1.799  12.374 -0.2670 -0.3915  0.1586
17343TIP3    H173520   4.711   1.716  12.385  0.8893 -1.2557 -1.1008
17343TIP3    H273521   4.841   1.774  12.333  0.1960  1.3782 -0.0548
17344TIP3   OH273522   4.930   3.453  13.311 -0.1873 -0.3228 -0.5207
17344TIP3    H173523   4.988   3.426  13.382 -0.9162  1.5994  0.8919
17344TIP3    H273524   4.844   3.417  13.334 -0.9814  2.2222  0.9559
17345TIP3   OH273525   1.449   5.313   3.875 -0.0425 -0.6455  0.4416
17345TIP3    H173526   1.377   5.374   3.890 -0.2035 -0.1028 -2.1673
17345TIP3    H273527   1.502   5.355   3.807  0.3935 -2.9400 -0.7136
17346TIP3   OH273528   6.097   5.039   4.226 -0.0684 -0.3680  0.1243
17346TIP3    H173529   6.150   5.117   4.242  0.1550 -0.2514 -1.1037
17346TIP3    H273530   6.145   4.991   4.158  0.3003 -2.0822  1.5291
17347TIP3   OH273531   0.932   2.936   3.018 -0.1194 -0.2016  0.3900
17347TIP3    H173532   0.901   2.897   2.936  1.0606  0.4321 -0.4022
17347TIP3    H273533   0.963   2.861   3.069  1.7864 -0.4160 -0.9625
17348TIP3   OH273534   1.890   5.146  11.366 -0.4524 -0.1391 -0.6200
17348TIP3    H173535   1.832   5.109  11.299  0.2187 -0.6911 -0.9092
17348TIP3    H273536   1.942   5.211  11.320 -0.1594 -0.3450 -0.5825
17349TIP3   OH273537   2.515   2.998   3.481  0.0474  0.4259 -0.1732
17349TIP3    H173538   2.528   3.047   3.400  2.1410 -0.7285 -0.6181
17349TIP3    H273539   2.421   2.999   3.495 -0.4029  0.4951 -2.7179
17350TIP3   OH273540   3.613   6.380  13.386 -0.0998 -0.7226  0.1798
17350TIP3    H173541   3.625   6.285  13.381  0.1199 -0.7504  1.1759
17350TIP3    H273542   3.582   6.404  13.298 -1.3914 -1.8914  0.2702
17351TIP3   OH273543   4.925   2.211   5.142  0.2226 -0.7968 -0.5807
17351TIP3    H173544   4.867   2.280   5.110  0.2887 -0.5456 -0.1666
17351TIP3    H273545   4.911   2.138   5.082 -0.9844 -0.9633 -0.1211
17352TIP3   OH273546   6.032   3.650  16.500  0.2306  0.3744  0.0454
17352TIP3    H173547   6.075   3.670  16.582  0.3300 -2.2765  0.7335
17352TIP3    H273548   5.961   3.590  16.524  0.2517 -0.4572 -1.7752
17353TIP3   OH273549   2.283   0.857  11.607  0.1403  0.1487 -0.1032
17353TIP3    H173550   2.366   0.904  11.616 -0.6516  1.3649  1.3467
17353TIP3    H273551   2.279   0.801  11.685 -1.9803  2.8133  1.8635
17354TIP3   OH273552   2.394   6.269   1.143  0.2297  0.3150 -0.2957
17354TIP3    H173553   2.375   6.180   1.113  0.6172 -0.1451  0.7426
17354TIP3    H273554   2.458   6.257   1.213 -0.4672  1.3368  0.5518
17355TIP3   OH273555   0.333   4.563  17.161 -0.0845  0.0239 -0.4412
17355TIP3    H173556   0.316   4.476  17.125  1.3795 -0.3384 -0.3033
17355TIP3    H273557   0.425   4.579  17.143 -0.0512  1.0812  0.5544
17356TIP3   OH273558   2.127   3.547  11.396  0.1063 -0.5414 -0.5938
17356TIP3    H173559   2.035   3.521  11.404 -0.1532  0.4663 -0.0340
17356TIP3    H273560   2.124   3.626  11.342  0.2802  1.2407  1.8308
17357TIP3   OH273561   5.639   1.202  14.022  0.5393 -0.4110 -0.1223
17357TIP3    H173562   5.670   1.147  14.094  1.5537  2.9271  2.2415
17357TIP3    H273563   5.547   1.218  14.042  0.6260 -0.1000  0.0414
17358TIP3   OH273564   1.289   4.112  14.379 -0.5866 -0.3534 -0.3797
17358TIP3    H173565   1.341   4.037  14.409 -0.0779  0.1745  0.0966
17358TIP3    H273566   1.206   4.104  14.426 -0.0883  0.0310  0.6175
17359TIP3   OH273567   5.643   2.453   2.831  0.4866  0.3127 -0.9307
17359TIP3    H173568   5.562   2.474   2.784  0.8593  0.4598 -1.5130
17359TIP3    H273569   5.655   2.359   2.816  0.6796  0.3861 -1.2597
17360TIP3   OH273570   1.965   4.045   4.341 -0.5747  0.2505  0.1259
17360TIP3    H173571   2.043   4.065   4.288 -0.3131  0.2964  0.5244
17360TIP3    H273572   1.979   4.092   4.423 -0.6146 -0.4285  0.5325
17361TIP3   OH273573   5.158   6.394  16.998  0.0524 -0.5204  0.5163
17361TIP3    H173574   5.222   6.324  16.988  0.4307  0.0311 -1.4540
17361TIP3    H273575   5.194   6.467  16.947 -1.8834 -0.0367 -0.2646
17362TIP3   OH273576   4.258   0.823  12.750  0.4802 -0.1781 -0.0384
17362TIP3    H173577   4.205   0.770  12.690  0.0579 -1.1685  1.1800
17362TIP3    H273578   4.348   0.807  12.723  0.2599  0.1966 -1.0483
17363TIP3   OH273579   3.747   6.582  11.571 -0.2984  0.0874  0.0560
17363TIP3    H173580   3.694   6.504  11.552 -0.7194  0.0325  1.3477
17363TIP3    H273581   3.835   6.559  11.540 -0.5527 -0.6749 -0.1161
17364TIP3   OH273582   2.267   5.471   3.771 -0.7271  0.1334  0.1847
17364TIP3    H173583   2.175   5.499   3.773 -0.2827  1.7663  2.4836
17364TIP3    H273584   2.313   5.540   3.723 -0.8302 -1.4807 -2.4147
17365TIP3   OH273585   2.923   5.795   0.690 -0.0280  0.1177  0.0346
17365TIP3    H173586   2.911   5.890   0.691 -0.8493  0.0233  1.8620
17365TIP3    H273587   2.894   5.766   0.776 -0.0744 -1.8428 -0.5995
17366TIP3   OH273588   0.971   4.929   5.822 -0.0731  0.5116  0.0154
17366TIP3    H173589   0.920   4.912   5.901 -1.1528  2.8250 -0.1110
17366TIP3    H273590   1.032   4.855   5.816 -0.9615 -0.4633  2.1743
17367TIP3   OH273591   5.076   6.596  16.067  0.8337  0.1914  0.5131
17367TIP3    H173592   4.990   6.557  16.080  0.5338 -0.2018 -2.0141
17367TIP3    H273593   5.138   6.526  16.090  0.4880  0.3219  1.8872
17368TIP3   OH273594   5.730   1.930   2.906 -0.3583 -0.3044  0.3496
17368TIP3    H173595   5.697   1.928   2.996  0.4162  1.4655  0.7079
17368TIP3    H273596   5.652   1.913   2.852 -1.2390  0.6116  1.2855
17369TIP3   OH273597   6.266   2.250   1.270 -0.1697 -0.1650  0.1649
17369TIP3    H173598   6.320   2.328   1.280 -1.4183  0.6757  0.5740
17369TIP3    H273599   6.178   2.284   1.250 -0.3441 -1.5082 -1.6229
17370TIP3   OH273600   2.223   5.532  16.020 -0.1129 -0.0166 -0.4669
17370TIP3    H173601   2.165   5.485  16.079 -0.6092  0.8331 -0.2633
17370TIP3    H273602   2.303   5.546  16.071  0.4749 -1.5439 -0.8809
17371TIP3   OH273603   1.355   5.009   5.023 -0.2361 -0.6057 -0.2524
17371TIP3    H173604   1.391   5.048   5.103 -0.2106  0.1388 -0.6147
17371TIP3    H273605   1.424   4.950   4.992 -0.8774 -2.1805  1.1409
17372TIP3   OH273606   5.667   5.220  13.668 -0.3714 -0.0996 -0.1004
17372TIP3    H173607   5.621   5.197  13.749  1.6718  0.2579  1.2402
17372TIP3    H273608   5.719   5.297  13.690 -2.1135  2.0038 -2.6970
17373TIP3   OH273609   0.770   2.892   3.665 -0.3344  0.4561  0.8045
17373TIP3    H173610   0.824   2.827   3.712 -2.1696 -1.6664  0.1512
17373TIP3    H273611   0.817   2.906   3.582  1.2567  1.7894  1.8650
17374TIP3   OH273612   6.238   5.153  16.250  0.3194  0.3781 -0.3292
17374TIP3    H173613   6.316   5.175  16.302 -0.6696 -0.2011  1.5072
17374TIP3    H273614   6.218   5.062  16.274 -0.6822  0.3759 -1.0977
17375TIP3   OH273615   5.547   2.621  15.004  0.1028  0.0033  0.1229
17375TIP3    H173616   5.535   2.584  15.091  0.4278 -0.8898 -0.2013
17375TIP3    H273617   5.524   2.550  14.944 -1.1837  0.9411 -0.5448
17376TIP3   OH273618   0.204   2.293  15.445  0.1316 -0.1650  0.6385
17376TIP3    H173619   0.291   2.292  15.485 -0.0264 -1.7507  1.0123
17376TIP3    H273620   0.150   2.340  15.509  0.3935 -0.5485  1.1523
17377TIP3   OH273621   0.890   4.394  16.918  0.5877 -0.1121 -0.1361
17377TIP3    H173622   0.864   4.427  17.003  1.6745 -0.3868  0.3275
17377TIP3    H273623   0.814   4.346  16.886  0.0669  0.2520  0.5464
17378TIP3   OH273624   0.934   0.432  14.980  0.2179  0.4535 -0.5134
17378TIP3    H173625   0.879   0.402  14.907  0.0842 -0.4697 -0.0437
17378TIP3    H273626   0.965   0.351  15.021  1.4916  0.9637 -0.4425
17379TIP3   OH273627   6.463   5.710   1.817 -0.0631  0.2773 -0.4149
17379TIP3    H173628   6.546   5.757   1.813 -0.4090  0.8707 -0.6174
17379TIP3    H273629   6.474   5.648   1.889  0.3009  0.8351  0.0122
17380TIP3   OH273630   5.421   5.020   2.371  0.3074  0.3857  0.4538
17380TIP3    H173631   5.496   5.068   2.334  0.3445  0.6175  0.8240
17380TIP3    H273632   5.369   5.088   2.415 -0.5366  0.3578 -0.4615
17381TIP3   OH273633   6.700   1.163  16.668  0.2735 -0.0453 -0.2430
17381TIP3    H173634   6.696   1.255  16.695  1.8305  0.5311 -1.8029
17381TIP3    H273635   6.780   1.129  16.709 -0.0250 -0.5825 -0.0868
17382TIP3   OH273636   0.365   1.412   0.841 -0.2080  0.0347 -0.4129
17382TIP3    H173637   0.436   1.349   0.841 -2.2427 -2.4453 -1.6069
17382TIP3    H273638   0.318   1.397   0.923 -1.0688 -0.5149 -0.9854
17383TIP3   OH273639   1.036   2.506   4.955 -0.1975  0.3138  0.2597
17383TIP3    H173640   0.988   2.588   4.939  0.3422  0.9378  1.6870
17383TIP3    H273641   1.119   2.518   4.908 -0.0001  0.7201  0.7008
17384TIP3   OH273642   2.492   3.224  11.494  0.0166  0.2178 -0.2563
17384TIP3    H173643   2.586   3.241  11.486 -0.1692  2.1063  0.9138
17384TIP3    H273644   2.451   3.289  11.437 -0.5979 -1.0940 -1.3698
17385TIP3   OH273645   6.496   6.337   4.381  0.1970  0.3542  0.1741
17385TIP3    H173646   6.464   6.427   4.377  0.5806  0.5106  0.6011
17385TIP3    H273647   6.564   6.333   4.314  0.9904  0.7122  0.9443
17386TIP3   OH273648   0.224   5.541   4.050  0.0986  0.2174 -0.4312
17386TIP3    H173649   0.275   5.516   3.973  1.2036  0.8757  0.0510
17386TIP3    H273650   0.240   5.471   4.113 -1.7677 -0.9402 -1.1687
17387TIP3   OH273651   1.764   3.118   3.850  0.8634 -0.1272 -0.2724
17387TIP3    H173652   1.755   3.066   3.930  2.1923 -0.0211 -0.0329
17387TIP3    H273653   1.760   3.209   3.880  0.7461 -0.0891 -0.4039
17388TIP3   OH273654   5.882   4.900   2.446  0.4208  0.1229 -0.6496
17388TIP3    H173655   5.899   4.986   2.485 -1.2732 -0.2026  0.9099
17388TIP3    H273656   5.811   4.863   2.498 -1.8290 -0.4951 -3.8382
17389TIP3   OH273657   6.040   1.427   3.317  0.1663 -0.5822 -0.0918
17389TIP3    H173658   6.123   1.403   3.275  0.9622  0.9825  0.4821
17389TIP3    H273659   6.061   1.432   3.410 -0.9328 -1.5154  0.2209
17390TIP3   OH273660   4.539   0.536   3.971  0.5423 -0.4092  0.2959
17390TIP3    H173661   4.624   0.555   3.932 -0.3576 -0.4258 -1.8303
17390TIP3    H273662   4.529   0.441   3.963  0.1043 -0.3449  0.0300
17391TIP3   OH273663   2.967   2.543  13.184 -0.2345  0.1636  0.2325
17391TIP3    H173664   2.878   2.556  13.151 -0.6205  1.4194  1.6583
17391TIP3    H273665   2.971   2.597  13.262  1.9426  0.4592 -0.0474
17392TIP3   OH273666   4.496   0.210   3.645  0.1474 -0.6166 -0.1642
17392TIP3    H173667   4.554   0.286   3.648  1.2961 -1.4962  1.7306
17392TIP3    H273668   4.541   0.147   3.589  0.7844 -1.1040  0.8859
17393TIP3   OH273669   4.298   6.574  11.462  0.0101  0.2322  0.6135
17393TIP3    H173670   4.235   6.535  11.401 -0.0594  0.4449  0.5494
17393TIP3    H273671   4.383   6.541  11.432  0.0211  0.6796  0.1295
17394TIP3   OH273672   4.068   3.906  14.569  0.2223 -0.4151 -0.3312
17394TIP3    H173673   3.998   3.960  14.605 -0.2226 -1.2445  0.0732
17394TIP3    H273674   4.127   3.968  14.525  0.2908  0.5171  1.0313
17395TIP3   OH273675   3.109   2.476  10.895 -0.5952 -0.1734  0.5804
17395TIP3    H173676   3.025   2.460  10.938 -1.3355 -2.1930 -1.4261
17395TIP3    H273677   3.107   2.421  10.817  0.6027  3.2246 -2.1379
17396TIP3   OH273678   1.514   1.277  15.920 -0.1584  0.1514 -0.3287
17396TIP3    H173679   1.517   1.213  15.991  0.0044  1.0689  0.5098
17396TIP3    H273680   1.547   1.358  15.959 -0.8688  0.8928 -1.2129
17397TIP3   OH273681   6.154   0.880   4.540 -0.3201 -0.0527 -0.6091
17397TIP3    H173682   6.147   0.936   4.617 -2.9276  0.9551 -1.4621
17397TIP3    H273683   6.153   0.940   4.466 -0.7327 -1.1019 -1.4907
17398TIP3   OH273684   3.623   0.448   6.811 -0.5035  0.3956 -0.1023
17398TIP3    H173685   3.708   0.407   6.794 -0.1561  1.3313 -0.7465
17398TIP3    H273686   3.559   0.383   6.784  0.0234  0.1653 -0.8242
17399TIP3   OH273687   5.431   6.166   3.633  0.3200 -0.3192  0.2520
17399TIP3    H173688   5.491   6.099   3.598 -0.3496 -2.3778  2.7105
17399TIP3    H273689   5.481   6.209   3.702  0.0877  0.3742 -0.0067
17400TIP3   OH273690   0.185   3.780  16.559 -0.3943 -0.8593  0.8141
17400TIP3    H173691   0.219   3.797  16.471 -1.5965  1.2043  0.6801
17400TIP3    H273692   0.261   3.791  16.617 -0.0619  0.0157  0.2206
17401TIP3   OH273693   4.145   4.174   4.324 -0.2118 -0.6067 -0.0058
17401TIP3    H173694   4.205   4.102   4.306 -0.4522 -0.7058 -0.4389
17401TIP3    H273695   4.083   4.139   4.388  1.8029  0.3483  2.6465
17402TIP3   OH273696   5.869   5.125   3.538 -0.6463  0.1005 -0.0649
17402TIP3    H173697   5.938   5.184   3.508 -0.1372 -0.5990 -0.3223
17402TIP3    H273698   5.809   5.118   3.465  0.6836 -1.7419 -1.0841
17403TIP3   OH273699   3.740   0.427  11.609 -0.1761  0.1500  0.3556
17403TIP3    H173700   3.782   0.511  11.594 -0.8921  0.7955  1.7935
17403TIP3    H273701   3.783   0.392  11.687  0.7699 -1.2908 -0.7544
17404TIP3   OH273702   2.109   1.633   5.646 -0.4736 -0.3692  0.1234
17404TIP3    H173703   2.179   1.669   5.592 -1.5893  0.4560 -0.8389
17404TIP3    H273704   2.036   1.693   5.633 -1.7061 -1.7730  0.2528
17405TIP3   OH273705   0.078   5.734  14.749  0.4534 -0.0939 -0.0716
17405TIP3    H173706   0.118   5.819  14.766  0.6588 -0.3932  1.0541
17405TIP3    H273707   0.008   5.727  14.815  0.0498 -0.5457 -0.5354
17406TIP3   OH273708   0.473   5.160   4.019  0.0924  0.4822  0.6086
17406TIP3    H173709   0.495   5.224   4.087  1.1674 -1.8562  2.6041
17406TIP3    H273710   0.410   5.102   4.061 -1.2087  0.4302 -1.3070
17407TIP3   OH273711   2.711   2.026   3.536  1.0945 -0.0895 -0.0012
17407TIP3    H173712   2.737   2.115   3.559  4.1803 -0.5792 -1.2044
17407TIP3    H273713   2.764   1.970   3.592  0.9573 -1.1803 -0.9351
17408TIP3   OH273714   4.215   1.383   0.429  0.5103  0.0812 -0.1003
17408TIP3    H173715   4.285   1.318   0.423  1.1539  0.7208  0.4459
17408TIP3    H273716   4.258   1.463   0.460 -0.4427  0.5052  0.1603
17409TIP3   OH273717   0.235   2.707   5.180  0.1642  0.7104  0.4138
17409TIP3    H173718   0.291   2.649   5.128 -1.7068  0.8145 -1.9394
17409TIP3    H273719   0.217   2.781   5.121 -3.1769  0.1872  0.5750
17410TIP3   OH273720   0.287   0.369  14.732  0.0857  0.4924 -0.0472
17410TIP3    H173721   0.290   0.455  14.773  0.2191  1.2770 -1.6148
17410TIP3    H273722   0.378   0.348  14.712  0.2120 -0.6690  1.5381
17411TIP3   OH273723   5.437   1.897   3.447  0.0166 -0.2534  0.1287
17411TIP3    H173724   5.527   1.909   3.419 -0.2595  0.9571 -0.2864
17411TIP3    H273725   5.435   1.809   3.485  1.7193  0.3163  1.6144
17412TIP3   OH273726   6.502   0.392  11.306 -0.1350  0.2341 -0.1341
17412TIP3    H173727   6.466   0.425  11.389 -0.4982  1.2565 -0.6927
17412TIP3    H273728   6.574   0.335  11.333  0.7023  1.6886  0.8453
17413TIP3   OH273729   1.145   2.809  14.238 -0.3985  0.7273  0.5374
17413TIP3    H173730   1.220   2.749  14.242 -0.8390  0.0793 -0.4983
17413TIP3    H273731   1.092   2.785  14.314 -0.5310 -0.1718  0.1772
17414TIP3   OH273732   5.374   4.467   6.033  0.2214  0.7193 -0.0955
17414TIP3    H173733   5.286   4.444   6.063  0.6694  0.9875  1.5156
17414TIP3    H273734   5.417   4.503   6.111  3.1221 -3.0391  0.3106
17415TIP3   OH273735   1.934   6.037  14.337 -0.3147  0.1528 -0.5000
17415TIP3    H173736   1.913   5.945  14.324 -0.3042  0.2197 -1.0179
17415TIP3    H273737   1.988   6.039  14.416 -1.1498 -0.1697  0.0833
17416TIP3   OH273738   4.406   6.512  15.877  0.1062 -0.0480 -0.0205
17416TIP3    H173739   4.462   6.506  15.955  0.9356  0.0766 -0.5994
17416TIP3    H273740   4.317   6.498  15.911  0.2627  1.5451  1.2104
17417TIP3   OH273741   4.374   0.952  12.374 -0.1347  0.6055 -0.0956
17417TIP3    H173742   4.338   0.957  12.286  1.1970  1.3411 -0.6222
17417TIP3    H273743   4.462   0.916  12.362  0.1538  0.9510  0.9057
17418TIP3   OH273744   4.614   0.356   2.650  0.0251 -0.2245  0.4553
17418TIP3    H173745   4.534   0.406   2.662 -0.8585 -1.3049 -0.7056
17418TIP3    H273746   4.597   0.272   2.694  1.1330  0.0975  1.5692
17419TIP3   OH273747   1.689   4.156  11.971  0.2582  0.0596 -0.0602
17419TIP3    H173748   1.599   4.129  11.987  0.2396 -0.4049 -0.9069
17419TIP3    H273749   1.733   4.142  12.055 -0.0806 -1.2769 -0.0926
17420TIP3   OH273750   0.221   2.341  17.010  0.2400 -0.1130 -0.2273
17420TIP3    H173751   0.155   2.299  16.954  0.1079  0.4503 -0.5056
17420TIP3    H273752   0.173   2.365  17.089  0.4040 -0.8243  0.0887
17421TIP3   OH273753   3.079   6.152   1.840 -0.0729 -0.2278  0.3526
17421TIP3    H173754   3.139   6.218   1.873  0.1296 -0.2926  0.1151
17421TIP3    H273755   3.018   6.137   1.913  0.9690 -1.1064  1.0815
17422TIP3   OH273756   0.334   3.694  11.663 -0.0611  0.3946  0.2169
17422TIP3    H173757   0.357   3.606  11.695  0.4050  0.3012 -0.3525
17422TIP3    H273758   0.315   3.681  11.570  3.6025  1.4052 -0.8566
17423TIP3   OH273759   3.233   2.414  13.560  0.0525 -0.0168 -0.2934
17423TIP3    H173760   3.218   2.332  13.513 -1.0154  0.9247 -1.6749
17423TIP3    H273761   3.160   2.419  13.622  0.4537 -0.3910  0.2138
17424TIP3   OH273762   2.972   3.249   1.294  0.1322 -0.6093  0.2016
17424TIP3    H173763   2.898   3.309   1.305  0.5644 -0.4419  3.0419
17424TIP3    H273764   2.932   3.168   1.262 -1.4594 -0.6969  2.1627
17425TIP3   OH273765   1.587   6.100   1.398 -0.7357 -0.3268 -0.2085
17425TIP3    H173766   1.583   6.097   1.493  0.9559 -0.9236 -0.1250
17425TIP3    H273767   1.592   6.008   1.371  0.0841 -0.1213 -0.7835
17426TIP3   OH273768   5.253   4.608   4.244 -0.1935 -0.1645 -0.1613
17426TIP3    H173769   5.182   4.552   4.212 -0.5761  0.1191  0.1831
17426TIP3    H273770   5.209   4.682   4.285  0.2946 -0.2065  0.4586
17427TIP3   OH273771   0.969   6.395  17.210 -0.2236  0.1117 -0.1305
17427TIP3    H173772   1.047   6.350  17.242  0.4140  0.3772 -1.2713
17427TIP3    H273773   0.997   6.485  17.196 -1.6472  1.1456  2.7357
17428TIP3   OH273774   5.091   4.800  12.805 -0.1523  0.0221 -0.4318
17428TIP3    H173775   5.112   4.805  12.712  0.6051 -2.1850 -0.4301
17428TIP3    H273776   5.110   4.710  12.829  0.1811  0.6820  2.0065
17429TIP3   OH273777   1.442   6.796  13.168 -0.4156  0.3300 -0.2471
17429TIP3    H173778   1.492   6.714  13.169 -0.1100  0.5084  1.5555
17429TIP3    H273779   1.509   6.865  13.175 -0.7998  0.6430  0.3726
17430TIP3   OH273780   0.787   5.442  11.320 -0.2720 -0.0170 -0.0057
17430TIP3    H173781   0.760   5.402  11.402  0.7261  0.9131  0.8146
17430TIP3    H273782   0.805   5.533  11.343 -1.0532  0.5426 -1.5028
17431TIP3   OH273783   1.031   4.016  14.488  0.0349  1.1870  0.0657
17431TIP3    H173784   0.952   4.051  14.446 -0.4009 -0.0995 -0.2178
17431TIP3    H273785   1.006   4.002  14.579 -0.1800  0.4654 -0.0984
17432TIP3   OH273786   3.828   3.805   0.230  0.9421  0.1566 -0.0579
17432TIP3    H173787   3.806   3.826   0.140  0.6928  2.1271  0.4140
17432TIP3    H273788   3.915   3.841   0.243  0.8520  0.1618  0.5799
17433TIP3   OH273789   5.387   6.529   5.646 -0.5127  0.1943 -0.4442
17433TIP3    H173790   5.335   6.504   5.569  1.2288  1.6735 -2.2277
17433TIP3    H273791   5.465   6.474   5.640  0.2682  1.2812 -0.5695
17434TIP3   OH273792   0.538   6.566  16.171 -0.5380  0.0437  0.2109
17434TIP3    H173793   0.502   6.571  16.083  0.4341  1.5205 -0.1428
17434TIP3    H273794   0.472   6.608  16.226 -0.9301 -0.4475  0.1212
17435TIP3   OH273795   3.971   0.097   5.822 -0.5866 -0.2104  0.1873
17435TIP3    H173796   4.035   0.168   5.819 -1.6281  0.7545  0.2513
17435TIP3    H273797   3.898   0.133   5.872 -1.1341 -1.3291  0.2145
17436TIP3   OH273798   5.678   4.345  14.460 -0.0307  0.0927 -0.2989
17436TIP3    H173799   5.616   4.289  14.505 -0.3836 -0.3901 -1.3448
17436TIP3    H273800   5.654   4.338  14.367  0.7799  0.8967 -0.5873
17437TIP3   OH273801   0.657   3.627  14.035  0.4472 -0.3297  0.5879
17437TIP3    H173802   0.661   3.564  14.107  0.6480 -0.2611  0.6384
17437TIP3    H273803   0.720   3.595  13.971 -1.7302 -1.9757 -0.8708
17438TIP3   OH273804   0.494   3.816   6.416  0.2025 -0.4154 -0.7429
17438TIP3    H173805   0.548   3.850   6.344  0.7877 -0.2075 -0.2126
17438TIP3    H273806   0.555   3.761   6.466 -0.2035 -0.5456 -0.3942
17439TIP3   OH273807   5.378   2.619   2.111  0.1451 -0.5264 -0.4164
17439TIP3    H173808   5.377   2.526   2.132 -1.7312 -0.4680 -0.0030
17439TIP3    H273809   5.353   2.662   2.193 -0.9338  0.1777 -1.0821
17440TIP3   OH273810   6.601   4.477  15.299 -0.5959 -0.0469  0.5483
17440TIP3    H173811   6.523   4.476  15.242 -0.2257  0.8452 -0.0035
17440TIP3    H273812   6.616   4.570  15.316  0.6114 -0.1801  0.2894
17441TIP3   OH273813   4.200   2.904   2.446  0.7053 -0.1581 -0.2849
17441TIP3    H173814   4.191   2.964   2.519 -0.4364  0.4174 -0.8746
17441TIP3    H273815   4.220   2.960   2.371  1.3458 -0.6881 -0.5200
17442TIP3   OH273816   5.761   1.599   0.068  0.1560 -0.2343 -0.1908
17442TIP3    H173817   5.815   1.651   0.127 -0.8946  1.9072 -1.0165
17442TIP3    H273818   5.747   1.517   0.115  2.5434 -0.1483  0.8246
17443TIP3   OH273819   4.281   5.077  11.697  0.9080 -0.0727 -0.5851
17443TIP3    H173820   4.260   5.166  11.726  2.0246 -0.6450  2.3390
17443TIP3    H273821   4.359   5.088  11.642  1.3654  0.7568  0.1906
17444TIP3   OH273822   1.303   4.547   3.293 -0.0532 -0.5197 -0.1282
17444TIP3    H173823   1.368   4.531   3.224  0.2973  0.1465  0.0361
17444TIP3    H273824   1.302   4.465   3.343 -0.3695 -1.0389 -0.9614
17445TIP3   OH273825   4.254   2.178  14.664 -0.4088 -0.2572  0.0385
17445TIP3    H173826   4.223   2.227  14.587 -0.7988  0.5405  0.6812
17445TIP3    H273827   4.201   2.098  14.664 -0.6924 -0.0734 -0.3003
17446TIP3   OH273828   4.465   0.523  12.089  0.6614  0.1026  0.6159
17446TIP3    H173829   4.529   0.471  12.138  2.7239  3.3897  1.7849
17446TIP3    H273830   4.500   0.525  11.999 -0.3749 -1.8134  0.1280
17447TIP3   OH273831   6.604   5.916   0.954 -0.1069 -0.0159  0.3568
17447TIP3    H173832   6.688   5.870   0.959 -1.7631 -3.1352  1.9718
17447TIP3    H273833   6.594   5.937   0.861  2.0413 -0.2896  0.0071
17448TIP3   OH273834   0.379   5.736   1.819 -0.0086  0.7901 -0.6139
17448TIP3    H173835   0.367   5.655   1.869  0.2192  1.4373  0.5001
17448TIP3    H273836   0.424   5.708   1.739  1.0557 -0.0345  0.2469
17449TIP3   OH273837   0.779   2.409   3.680 -0.1325  0.2084  0.9558
17449TIP3    H173838   0.858   2.362   3.706 -0.4480 -0.6357  0.4475
17449TIP3    H273839   0.729   2.344   3.631 -0.8084  0.9494  0.6591
17450TIP3   OH273840   6.332   6.184  14.628  0.3359 -0.3136 -1.1077
17450TIP3    H173841   6.296   6.269  14.603  1.4936  1.6844  3.0354
17450TIP3    H273842   6.426   6.193  14.616  0.8181  0.3250  2.0850
17451TIP3   OH273843   5.476   4.503  13.661  0.3071 -0.3437  0.3292
17451TIP3    H173844   5.423   4.498  13.581 -2.5534  1.2853  1.9250
17451TIP3    H273845   5.468   4.417  13.700  0.2882 -0.6397 -0.3047
17452TIP3   OH273846   5.104   1.581   4.034 -0.5574 -0.0993  0.4082
17452TIP3    H173847   5.120   1.573   3.940  1.0944 -1.4700  0.7564
17452TIP3    H273848   5.063   1.498   4.059  1.9091 -1.1043  1.3862
17453TIP3   OH273849   2.969   4.265  14.701 -0.3297 -0.0220  0.0494
17453TIP3    H173850   2.998   4.251  14.792  0.2298 -0.7899 -0.2325
17453TIP3    H273851   2.910   4.192  14.684 -0.2459 -0.0141 -0.2809
17454TIP3   OH273852   1.029   3.294  11.978  0.4401 -0.4344 -0.6896
17454TIP3    H173853   1.109   3.259  12.018 -0.2796 -0.4598  0.8159
17454TIP3    H273854   0.959   3.237  12.011 -0.4525  0.9028 -0.1903
17455TIP3   OH273855   5.479   3.612   5.574  0.4497  0.3305  0.3596
17455TIP3    H173856   5.384   3.602   5.582  0.0824  2.5414 -0.5234
17455TIP3    H273857   5.508   3.536   5.524 -1.3892  1.2979 -2.3666
17456TIP3   OH273858   6.230   5.475   2.020  0.0342  0.1062  0.5429
17456TIP3    H173859   6.231   5.421   1.941 -1.5445  0.1624  0.4529
17456TIP3    H273860   6.323   5.484   2.044  0.8934  2.3024 -2.7803
17457TIP3   OH273861   6.777   3.073   2.334 -0.8781 -0.6227 -0.0477
17457TIP3    H173862   6.810   2.983   2.336  1.3382  0.1281  0.2669
17457TIP3    H273863   6.784   3.099   2.242 -0.5397 -0.4524  0.0243
17458TIP3   OH273864   0.518   3.199  16.438 -0.3829 -0.2621  0.3392
17458TIP3    H173865   0.537   3.130  16.374 -0.0449  0.7089 -0.6409
17458TIP3    H273866   0.428   3.183  16.465 -0.2899 -1.1201  0.1642
17459TIP3   OH273867   5.218   1.834   0.493 -0.0243  0.3322  0.6873
17459TIP3    H173868   5.209   1.885   0.412 -0.2100 -1.9751 -0.8245
17459TIP3    H273869   5.149   1.869   0.550 -1.5745  0.3710 -1.1014
17460TIP3   OH273870   2.236   0.627   5.991 -0.1086 -0.7799  0.1005
17460TIP3    H173871   2.294   0.600   6.062  1.3552 -0.0167 -0.7643
17460TIP3    H273872   2.173   0.686   6.033 -1.1061 -2.6165  1.2981
17461TIP3   OH273873   2.715   4.260  13.800  0.3004  0.0260  0.3509
17461TIP3    H173874   2.763   4.209  13.865  0.8268  1.2005  0.9026
17461TIP3    H273875   2.749   4.349  13.809 -0.3777  0.4241 -0.8061
17462TIP3   OH273876   1.666   2.113   4.097 -0.8344  0.3208 -0.4882
17462TIP3    H173877   1.741   2.167   4.071  0.0179 -1.2173 -1.3968
17462TIP3    H273878   1.691   2.075   4.180 -0.8830  0.2936 -0.4858
17463TIP3   OH273879   6.740   3.095   0.878 -0.2447 -0.1081 -0.2444
17463TIP3    H173880   6.786   3.122   0.957 -0.0700 -1.4896  0.1532
17463TIP3    H273881   6.731   3.175   0.826  1.2983  0.4575  0.3289
17464TIP3   OH273882   5.793   2.550   1.931  0.0111 -0.0707  0.2953
17464TIP3    H173883   5.881   2.587   1.928 -0.3887  0.8538 -1.0050
17464TIP3    H273884   5.751   2.594   2.005 -0.4153  2.0968 -1.1534
17465TIP3   OH273885   0.859   2.759   5.327  0.4761 -0.2378  0.6953
17465TIP3    H173886   0.951   2.738   5.343  0.9079  0.7214 -0.3878
17465TIP3    H273887   0.828   2.793   5.410  1.3125  0.1306  0.8702
17466TIP3   OH273888   5.317   3.709   1.733 -0.4076 -0.0592  0.1418
17466TIP3    H173889   5.390   3.740   1.679 -1.4935 -0.7589 -1.8423
17466TIP3    H273890   5.260   3.785   1.743  0.1502  0.2626  0.9604
17467TIP3   OH273891   4.822   0.335  16.403  0.0795 -0.3839 -0.8989
17467TIP3    H173892   4.875   0.348  16.325 -0.4222  2.9783 -0.8498
17467TIP3    H273893   4.736   0.369  16.379 -0.1793  0.4253  0.9823
17468TIP3   OH273894   5.490   0.539  16.279  0.8460 -0.1050 -0.1253
17468TIP3    H173895   5.579   0.505  16.270  0.7666 -0.1902 -0.6027
17468TIP3    H273896   5.447   0.516  16.197 -0.1607 -1.7103  0.7892
17469TIP3   OH273897   1.729   6.461   4.634 -0.8663  0.2513  0.4687
17469TIP3    H173898   1.793   6.407   4.681 -1.3619 -0.2301  0.6062
17469TIP3    H273899   1.777   6.497   4.560 -0.6152 -0.7035  0.1464
17470TIP3   OH273900   5.816   1.573  13.533 -0.2769 -0.0205 -0.0159
17470TIP3    H173901   5.783   1.629  13.463 -0.9198 -0.5486 -0.1543
17470TIP3    H273902   5.749   1.505  13.542  1.6276 -2.2321 -1.5576
17471TIP3   OH273903   0.502   1.883  12.579 -0.5229  0.5847  0.3460
17471TIP3    H173904   0.492   1.812  12.642 -1.1041  0.6992  0.3862
17471TIP3    H273905   0.544   1.842  12.503 -0.3738  0.3179  0.5720
17472TIP3   OH273906   0.203   2.391  10.856 -0.1018 -0.4938  0.4605
17472TIP3    H173907   0.215   2.486  10.853  0.4678 -0.5023  1.7213
17472TIP3    H273908   0.152   2.371  10.778  1.8425  0.5341 -1.1904
17473TIP3   OH273909   4.400   1.554   5.028  0.4205  0.4902 -0.2009
17473TIP3    H173910   4.460   1.501   4.976 -1.2417 -1.9799  0.2156
17473TIP3    H273911   4.454   1.624   5.063  2.6544 -0.5926 -1.2635
17474TIP3   OH273912   1.732   0.751   0.725  0.2930  0.0399 -0.1519
17474TIP3    H173913   1.754   0.744   0.632  1.0325  1.4840 -0.1041
17474TIP3    H273914   1.812   0.725   0.770  0.3109  0.4897  0.0721
17475TIP3   OH273915   4.189   1.942   3.057  0.1244  0.0080 -0.9564
17475TIP3    H173916   4.100   1.978   3.056 -0.0837 -0.4591  0.0252
17475TIP3    H273917   4.190   1.883   3.132  0.7638 -1.2603 -1.9219
17476TIP3   OH273918   1.072   3.429   6.181  0.4450  0.6049  0.1690
17476TIP3    H173919   1.096   3.470   6.264 -1.2316  1.4397  0.2813
17476TIP3    H273920   1.083   3.336   6.197  0.1597  0.7504  1.3449
17477TIP3   OH273921   4.441   2.688   5.645 -0.0774  0.6251  0.3838
17477TIP3    H173922   4.387   2.750   5.695 -0.3179 -0.1948  1.1781
17477TIP3    H273923   4.447   2.611   5.702 -1.2752 -0.7865 -1.2875
17478TIP3   OH273924   3.388   3.305  12.738 -0.7237  0.2380 -0.2157
17478TIP3    H173925   3.457   3.264  12.790 -0.3675 -0.0188 -0.8810
17478TIP3    H273926   3.324   3.235  12.723 -1.5064  0.6572  1.0112
17479TIP3   OH273927   2.259   1.368   3.791  0.3402 -0.1312  0.3568
17479TIP3    H173928   2.303   1.361   3.706 -0.2853 -0.7162  0.0645
17479TIP3    H273929   2.302   1.440   3.835 -0.3002  1.1760 -1.0733
17480TIP3   OH273930   6.339   6.576   4.451  0.6067  0.0767 -0.2972
17480TIP3    H173931   6.368   6.626   4.527 -1.6971 -0.2573  0.9013
17480TIP3    H273932   6.278   6.634   4.406 -0.8057 -1.0018  0.1717
17481TIP3   OH273933   4.096   0.668  16.659 -0.2605 -0.1533  0.1742
17481TIP3    H173934   4.030   0.675  16.589  0.3823 -1.2950 -0.5787
17481TIP3    H273935   4.179   0.686  16.615  0.3021 -2.1769  0.3169
17482TIP3   OH273936   4.764   2.747  14.933 -0.3192  0.0640  0.7590
17482TIP3    H173937   4.782   2.675  14.993 -0.0829 -0.5024  0.0190
17482TIP3    H273938   4.669   2.746  14.920 -0.1025 -1.6963 -1.1514
17483TIP3   OH273939   4.711   1.455   0.080 -0.0050 -0.7387 -0.0452
17483TIP3    H173940   4.775   1.496   0.138 -0.8957 -0.8315  1.0411
17483TIP3    H273941   4.629   1.502   0.097 -0.1595 -0.3281 -1.7202
17484TIP3   OH273942   4.579   5.020   0.494  0.0684 -0.0182  0.3434
17484TIP3    H173943   4.585   5.099   0.439  1.0748 -0.2033  0.1603
17484TIP3    H273944   4.669   5.003   0.521 -0.4697  0.5576  2.7795
17485TIP3   OH273945   0.296   0.038  12.139 -0.4967  0.4027 -0.3848
17485TIP3    H173946   0.377   0.055  12.187 -1.5409  0.5812  1.3797
17485TIP3    H273947   0.306  -0.052  12.106  0.6471  0.6327 -0.7008
17486TIP3   OH273948   4.294   0.575   6.176  0.2349  0.3250  0.5710
17486TIP3    H173949   4.257   0.599   6.260  1.3588 -0.4153  1.3040
17486TIP3    H273950   4.362   0.510   6.197  0.7887  0.4003 -0.8589
17487TIP3   OH273951   1.860   3.867  12.743  0.2396  0.4550 -0.2052
17487TIP3    H173952   1.854   3.962  12.747 -0.6731  0.3641  0.8965
17487TIP3    H273953   1.811   3.836  12.819 -0.3108 -0.9308 -1.0772
17488TIP3   OH273954   5.092   1.705   0.798 -0.1753 -0.2864 -0.0247
17488TIP3    H173955   5.177   1.670   0.824  0.1234 -0.4137 -1.1065
17488TIP3    H273956   5.102   1.800   0.803  0.2582 -0.2787 -0.7572
17489TIP3   OH273957   0.027   6.304   5.707  0.5088 -0.2648  0.5757
17489TIP3    H173958   0.117   6.290   5.676  0.8066  0.5103  1.0605
17489TIP3    H273959  -0.019   6.341   5.631  1.5819  2.9327  1.3292
17490TIP3   OH273960   6.787   4.399  15.523  0.5847 -0.0238 -0.0958
17490TIP3    H173961   6.715   4.389  15.460  0.5599  3.8270 -0.9877
17490TIP3    H273962   6.849   4.457  15.478  1.6613  1.0471  2.5763
17491TIP3   OH273963   4.870   1.421  12.666 -0.7206  0.5248  0.1677
17491TIP3    H173964   4.922   1.462  12.736  0.7925  2.4779 -1.9336
17491TIP3    H273965   4.779   1.436  12.692 -0.2124  1.2065  1.6909
17492TIP3   OH273966   5.811   5.827  16.799  0.3461  0.1095 -0.2611
17492TIP3    H173967   5.791   5.866  16.884  1.3607  1.5034 -0.6344
17492TIP3    H273968   5.727   5.819  16.755 -0.2621 -1.0674  1.0184
17493TIP3   OH273969   3.736   4.104   1.302  0.2903  0.9339  0.0649
17493TIP3    H173970   3.765   4.101   1.393  1.0556 -0.5457 -0.1938
17493TIP3    H273971   3.769   4.023   1.264 -1.4582  0.7148 -1.1050
17494TIP3   OH273972   1.583   2.352   2.417 -0.5605 -0.8121  0.3683
17494TIP3    H173973   1.616   2.303   2.492 -0.2801  0.7768  1.3303
17494TIP3    H273974   1.490   2.330   2.413 -0.2130 -2.3461  0.0037
17495TIP3   OH273975   6.429   0.521   6.716 -0.1815 -0.0956 -0.1166
17495TIP3    H173976   6.398   0.435   6.688  1.5106  0.0152 -2.5381
17495TIP3    H273977   6.349   0.574   6.724 -0.9573 -0.5725 -3.4714
17496TIP3   OH273978   3.383   2.156  13.747  0.4239  0.3076 -0.0322
17496TIP3    H173979   3.407   2.177  13.837  2.0658 -2.3038  0.2266
17496TIP3    H273980   3.432   2.220  13.694  0.4587  1.0322  0.8459
17497TIP3   OH273981   3.234   6.562  10.928 -0.2366 -0.0352  0.5594
17497TIP3    H173982   3.308   6.553  10.988  2.2667  0.9928 -2.1163
17497TIP3    H273983   3.211   6.472  10.905 -1.4034 -0.4543  3.1098
17498TIP3   OH273984   1.987   6.475  13.085 -0.3406 -0.4594  0.0054
17498TIP3    H173985   2.058   6.509  13.030 -1.7285  1.2816 -0.8297
17498TIP3    H273986   1.980   6.538  13.157 -1.3769 -0.2959 -0.2227
17499TIP3   OH273987   6.095   6.517  11.350  0.6668 -0.5707 -0.3526
17499TIP3    H173988   6.112   6.427  11.375 -2.1878 -0.9596  0.5053
17499TIP3    H273989   6.086   6.564  11.433 -0.2954 -0.0273 -0.7466
17500TIP3   OH273990   6.334   1.805   1.911 -0.5746  0.0925 -0.1429
17500TIP3    H173991   6.363   1.714   1.914  4.2215  1.3827  2.0748
17500TIP3    H273992   6.383   1.845   1.840  0.3900  1.6609  1.3117
17501TIP3   OH273993   5.259   0.555   6.702 -0.0114  0.3052  0.2472
17501TIP3    H173994   5.167   0.528   6.698 -1.4383  4.3897  0.5802
17501TIP3    H273995   5.275   0.596   6.617  1.7737 -0.8638 -0.0338
17502TIP3   OH273996   6.746   3.346   0.707 -0.1650 -0.3658 -0.0905
17502TIP3    H173997   6.665   3.392   0.687  0.7011  1.4175  0.2480
17502TIP3    H273998   6.789   3.335   0.622  0.0020  0.2303 -0.0873
17503TIP3   OH273999   4.212   1.296  12.675 -0.2991  0.2042  0.4626
17503TIP3    H174000   4.229   1.208  12.642 -0.9080  0.3489 -0.2575
17503TIP3    H274001   4.146   1.332  12.616  0.2107  1.2839  0.5171
17504TIP3   OH274002   0.976   0.050   5.215  0.6118 -0.0688  0.0144
17504TIP3    H174003   1.046   0.028   5.277  0.7008  1.0925  0.3436
17504TIP3    H274004   0.902  -0.005   5.241  0.9858 -0.3468  0.4978
17505TIP3   OH274005   2.328   4.918   2.394  0.5155 -0.8672  0.0335
17505TIP3    H174006   2.381   4.865   2.334 -0.3855 -1.5015 -0.2242
17505TIP3    H274007   2.301   4.858   2.463  0.6517 -0.3947  0.5111
17506TIP3   OH274008   5.164   1.837   5.491  0.1268  0.0367 -0.4147
17506TIP3    H174009   5.212   1.772   5.542  1.5947  0.3931 -1.2558
17506TIP3    H274010   5.189   1.921   5.529 -0.8250  0.1754 -0.0790
17507TIP3   OH274011   0.930   2.725   1.082  0.2511  0.0026  0.2016
17507TIP3    H174012   0.911   2.633   1.062 -0.5963  0.1714  0.2036
17507TIP3    H274013   0.844   2.767   1.084  0.6189  0.7487  0.4370
17508TIP3   OH274014   4.087   1.313  15.711 -0.3782 -0.1062 -0.2833
17508TIP3    H174015   3.993   1.330  15.708 -0.4032 -0.2405 -0.2653
17508TIP3    H274016   4.123   1.360  15.636 -0.6597 -1.3027 -1.2000
17509TIP3   OH274017   1.300   0.964   5.181 -0.4524  0.1176  0.1755
17509TIP3    H174018   1.350   0.968   5.100  0.9647  0.3061  1.0384
17509TIP3    H274019   1.245   1.043   5.179  0.0078  0.4276 -0.3118
17510TIP3   OH274020   0.185   5.480  13.022 -0.1481 -0.6328  0.1432
17510TIP3    H174021   0.239   5.484  12.943 -1.7955  0.0446 -0.9951
17510TIP3    H274022   0.164   5.387  13.033 -0.5948 -0.6416 -0.7139
17511TIP3   OH274023   5.018   4.266   1.136  0.0983  0.7346  0.4522
17511TIP3    H174024   5.083   4.196   1.145 -2.0697 -1.2052  2.5657
17511TIP3    H274025   4.993   4.265   1.044  0.4787 -0.9625  0.3392
17512TIP3   OH274026   2.119   4.716  16.801 -0.0888 -0.7120  0.1146
17512TIP3    H174027   2.109   4.702  16.895 -0.8853 -3.2591 -0.2854
17512TIP3    H274028   2.184   4.652  16.773  3.0949  2.4602 -0.6082
17513TIP3   OH274029   6.674   4.879   5.468 -0.4347  0.1454 -0.5598
17513TIP3    H174030   6.625   4.937   5.409 -0.9654 -1.4594 -1.7638
17513TIP3    H274031   6.723   4.821   5.409 -0.7686 -1.3322  0.5650
17514TIP3   OH274032   4.885   6.640   6.473  0.0190  0.0849  0.0894
17514TIP3    H174033   4.979   6.659   6.477  0.0165  0.6379 -1.5484
17514TIP3    H274034   4.845   6.697   6.538  0.8377 -0.4331  1.0740
17515TIP3   OH274035   3.859   5.115  12.084  0.4444 -0.2433  0.3814
17515TIP3    H174036   3.824   5.200  12.058 -1.2890 -0.5955  1.4000
17515TIP3    H274037   3.797   5.083  12.150  2.1208 -1.4293  1.4599
17516TIP3   OH274038   1.322   4.259   3.845  0.2882  0.1200 -0.1188
17516TIP3    H174039   1.235   4.251   3.883  0.5889 -0.9462  0.3881
17516TIP3    H274040   1.340   4.353   3.846 -0.1941  0.2207  1.3031
17517TIP3   OH274041   2.867   4.480   0.903 -0.3266  0.2251 -0.0593
17517TIP3    H174042   2.961   4.477   0.890 -0.3929 -0.0151 -0.5059
17517TIP3    H274043   2.851   4.431   0.984 -0.2039 -0.9448 -0.7304
17518TIP3   OH274044   0.689   0.496   5.671  0.9209 -0.2619 -0.7431
17518TIP3    H174045   0.722   0.446   5.745  0.5906  1.1180  0.3811
17518TIP3    H274046   0.620   0.551   5.708  0.9323  0.6610 -2.0127
17519TIP3   OH274047   5.103   1.366  13.103  0.1291  0.2618 -0.0287
17519TIP3    H174048   5.122   1.272  13.098  0.8333  0.3984 -0.0032
17519TIP3    H274049   5.152   1.396  13.179  1.5316  1.0306 -1.2133
17520TIP3   OH274050   5.957   0.175   1.886 -0.0449  0.5924 -0.2901
17520TIP3    H174051   5.898   0.121   1.833  3.5882 -2.4537 -1.7207
17520TIP3    H274052   5.992   0.240   1.825 -1.2428  1.9003  0.3636
17521TIP3   OH274053   4.557   2.184   0.879  0.3423 -0.3999  0.1625
17521TIP3    H174054   4.486   2.245   0.858  1.2683  0.1024 -1.6760
17521TIP3    H274055   4.586   2.151   0.794  0.4498 -2.7913  1.0447
17522TIP3   OH274056   0.969   5.851   5.991  0.0083  0.0362 -0.4451
17522TIP3    H174057   0.882   5.818   6.012  0.2400 -0.6422 -0.5198
17522TIP3    H274058   1.004   5.788   5.928  2.0555 -1.9791  2.4073
17523TIP3   OH274059   3.322   4.714  15.257  0.1106  0.0122  0.3960
17523TIP3    H174060   3.410   4.751  15.247 -0.3323  1.4919  1.5829
17523TIP3    H274061   3.337   4.623  15.281  1.2549 -0.9924 -3.3638
17524TIP3   OH274062   2.775   6.642   5.329 -0.2028 -0.1893 -0.8264
17524TIP3    H174063   2.733   6.563   5.363 -0.7978  0.8305  0.9042
17524TIP3    H274064   2.719   6.671   5.258 -1.0594 -0.2493 -0.1860
17525TIP3   OH274065   2.563   6.695   1.239  0.0503 -0.0988 -0.1295
17525TIP3    H174066   2.652   6.672   1.266 -0.2428 -0.9980  0.1099
17525TIP3    H274067   2.507   6.657   1.308 -0.7635 -2.7860 -2.0998
17526TIP3   OH274068   6.605   2.023  11.402 -0.5630  0.6056  0.0676
17526TIP3    H174069   6.531   2.023  11.341 -0.5639 -0.7391  0.0287
17526TIP3    H274070   6.682   2.014  11.346 -0.6213 -1.7487  0.2310
17527TIP3   OH274071   1.672   6.052   1.039  0.1720  0.2312  0.3566
17527TIP3    H174072   1.601   5.996   1.008  1.1153  0.0697 -1.6691
17527TIP3    H274073   1.628   6.123   1.087 -1.5248  0.8966 -2.0012
17528TIP3   OH274074   6.586   2.579   0.542  0.1026 -0.1870  0.0842
17528TIP3    H174075   6.513   2.582   0.604  0.1760 -0.3243  0.1781
17528TIP3    H274076   6.545   2.563   0.457 -0.0987  1.1212 -0.0848
17529TIP3   OH274077   2.707   1.024  17.054 -0.2667 -0.0593 -0.1212
17529TIP3    H174078   2.789   1.068  17.030  0.4111 -1.7110 -0.9642
17529TIP3    H274079   2.735   0.946  17.102 -1.3606 -0.4258 -0.0630
17530TIP3   OH274080   0.451   6.153  15.580 -0.2199  1.0664 -0.1329
17530TIP3    H174081   0.377   6.174  15.637 -0.4350 -0.4795  0.2011
17530TIP3    H274082   0.411   6.119  15.500  0.0814 -0.9204  0.4997
17531TIP3   OH274083   1.559   0.319  13.465 -0.5153  0.3921 -0.1730
17531TIP3    H174084   1.587   0.238  13.508  0.3426  0.5665 -0.3976
17531TIP3    H274085   1.553   0.383  13.535  0.5250  0.5814 -0.2504
17532TIP3   OH274086   4.096   1.466  12.303 -0.1336  0.0043 -0.5774
17532TIP3    H174087   4.183   1.430  12.322 -0.2889  0.4328  1.1372
17532TIP3    H274088   4.101   1.557  12.334 -1.5647 -0.3420  0.7826
17533TIP3   OH274089   0.565   2.634   5.640 -0.1416  0.0740 -0.4185
17533TIP3    H174090   0.538   2.718   5.603 -1.9857  0.9383  2.4921
17533TIP3    H274091   0.630   2.657   5.706 -0.9627 -0.6775  0.6998
17534TIP3   OH274092   0.672   5.113   2.374 -0.1967 -0.2690  0.0635
17534TIP3    H174093   0.698   5.153   2.456  0.9008  1.8219 -1.2106
17534TIP3    H274094   0.732   5.040   2.362  0.7244  0.4254  0.3467
17535TIP3   OH274095   4.529   3.969   4.998 -0.0689  0.1187 -0.1748
17535TIP3    H174096   4.449   4.003   4.957 -0.2742 -0.7794 -0.5513
17535TIP3    H274097   4.526   3.874   4.981  0.6380 -0.0486  0.5629
17536TIP3   OH274098   0.384   4.246   0.701 -0.1427 -0.1727 -0.7371
17536TIP3    H174099   0.477   4.237   0.721  0.1646  1.3834 -1.3533
17536TIP3    H274100   0.361   4.163   0.659  1.2152 -0.2197 -1.4579
17537TIP3   OH274101   0.058   5.280  13.591  0.0920  0.3171 -0.5413
17537TIP3    H174102   0.094   5.272  13.680  0.2865  1.6632 -0.4788
17537TIP3    H274103   0.130   5.315  13.539  0.4390 -1.8530 -1.5924
17538TIP3   OH274104   0.849   2.969   5.845 -0.0373  0.4699 -0.1702
17538TIP3    H174105   0.804   3.053   5.840 -2.0251 -0.4355  1.3571
17538TIP3    H274106   0.887   2.967   5.933  1.5334  0.4581 -0.8091
17539TIP3   OH274107   5.882   2.614  15.399  0.5764  0.8797  0.0823
17539TIP3    H174108   5.882   2.697  15.447 -2.3042  1.4678 -0.7450
17539TIP3    H274109   5.841   2.552  15.459 -0.1861  0.8583 -0.4522
17540TIP3   OH274110   6.703   0.259  11.725 -0.6389  0.5730 -0.2107
17540TIP3    H174111   6.620   0.232  11.764 -0.5004  1.2330  0.5951
17540TIP3    H274112   6.768   0.238  11.792 -0.2204  0.5237 -0.6310
17541TIP3   OH274113   5.562   2.765   1.958 -0.2990  0.4236 -0.1117
17541TIP3    H174114   5.494   2.718   2.007  0.1319  0.4186  0.4876
17541TIP3    H274115   5.621   2.799   2.025  0.4984  0.1140 -0.6400
17542TIP3   OH274116   2.634   0.566  14.833  0.7058 -0.0667  0.0926
17542TIP3    H174117   2.672   0.481  14.808 -0.6382 -0.0358 -2.4809
17542TIP3    H274118   2.562   0.544  14.892 -0.3694 -0.8943 -1.4605
17543TIP3   OH274119   0.978   0.932  11.710 -0.2433 -0.4515  0.1170
17543TIP3    H174120   0.891   0.932  11.670 -0.3772 -0.0854  0.3986
17543TIP3    H274121   1.030   0.991  11.656 -0.2149 -0.5453  0.0426
17544TIP3   OH274122   5.979   2.049   3.460 -0.1819 -0.7836 -0.2390
17544TIP3    H174123   5.984   2.034   3.366 -2.8502  1.7435 -0.9322
17544TIP3    H274124   6.051   2.110   3.478 -1.1595  0.7135 -1.1980
17545TIP3   OH274125   5.139   3.789   0.561 -0.2537  0.3075  0.0009
17545TIP3    H174126   5.080   3.758   0.631 -0.0070  0.3841  0.2451
17545TIP3    H274127   5.221   3.743   0.577  0.1947  1.2535  0.5105
17546TIP3   OH274128   0.465   4.285   5.159  0.1056 -0.2795  0.0098
17546TIP3    H174129   0.512   4.212   5.201  0.2998 -1.0124 -1.4309
17546TIP3    H274130   0.375   4.255   5.154  0.3218 -0.7663 -1.2712
17547TIP3   OH274131   1.218   4.650  15.086  0.1643 -0.8547  0.4957
17547TIP3    H174132   1.155   4.644  15.157 -1.0042 -0.2501 -0.4574
17547TIP3    H274133   1.182   4.594  15.017  0.0799  0.3703 -0.4834
17548TIP3   OH274134   3.200   0.857  16.821  0.1185 -0.3199  0.5585
17548TIP3    H174135   3.235   0.773  16.791 -1.7264 -0.6400 -0.8462
17548TIP3    H274136   3.278   0.912  16.832  1.1625 -0.9540 -2.5031
17549TIP3   OH274137   0.806   5.029  15.457  0.0956  0.1863 -0.1740
17549TIP3    H174138   0.796   5.123  15.447 -0.1918  0.0971 -0.7762
17549TIP3    H274139   0.728   5.001  15.505  0.0014  0.2108 -0.3100
17550TIP3   OH274140   1.974   5.265   5.909  0.8222  0.4115  0.1950
17550TIP3    H174141   2.007   5.237   5.994  0.3083  0.7247  0.5080
17550TIP3    H274142   1.943   5.185   5.867 -1.2430  0.5283  1.3509
17551TIP3   OH274143   2.540   3.444   6.117 -0.5153  0.4044 -0.2352
17551TIP3    H174144   2.632   3.417   6.126  0.1063  2.6727  1.0154
17551TIP3    H274145   2.542   3.515   6.053 -1.2776  0.8874  0.2522
17552TIP3   OH274146   3.446   2.308   4.491 -0.2570 -0.4201 -0.1951
17552TIP3    H174147   3.409   2.385   4.449  2.4071 -0.3394 -2.6838
17552TIP3    H274148   3.391   2.235   4.460  0.3834 -0.0897 -2.2925
17553TIP3   OH274149   4.008   3.786   4.246  0.1512 -0.0449  0.1089
17553TIP3    H174150   4.020   3.803   4.340  1.4106 -0.4633  0.0506
17553TIP3    H274151   4.097   3.774   4.213 -0.2615  0.2879 -1.1843
17554TIP3   OH274152   5.569   3.609  16.682 -0.2713  0.0012  0.2196
17554TIP3    H174153   5.593   3.697  16.711 -0.4395 -0.4854  1.9256
17554TIP3    H274154   5.476   3.615  16.661  0.1227  0.6643 -1.5586
17555TIP3   OH274155   5.612   1.876   6.401  0.0114 -0.5525 -0.5216
17555TIP3    H174156   5.626   1.857   6.494  1.3588 -1.3460 -0.8592
17555TIP3    H274157   5.647   1.800   6.355 -2.3901 -1.0808 -1.6486
17556TIP3   OH274158   5.834   2.223   2.427 -0.2475  0.4521  0.1614
17556TIP3    H174159   5.817   2.137   2.389 -1.0330 -0.0115  1.5048
17556TIP3    H274160   5.899   2.207   2.496  2.6112  1.5535 -2.0545
17557TIP3   OH274161   3.548   6.288   2.394 -0.5178 -1.0900 -0.3177
17557TIP3    H174162   3.530   6.379   2.373 -1.1410 -1.3417 -0.9067
17557TIP3    H274163   3.532   6.281   2.488  1.6912 -0.0926  0.2054
17558TIP3   OH274164   3.594   1.934  13.609  0.0847  0.4720 -0.1799
17558TIP3    H174165   3.668   1.995  13.613 -1.4985  2.4565  1.3537
17558TIP3    H274166   3.535   1.972  13.543  0.2462 -0.8910 -1.1371
17559TIP3   OH274167   2.444   2.658  13.411  0.0302 -0.4247  0.1172
17559TIP3    H174168   2.357   2.695  13.397  0.8327  1.1587 -1.0079
17559TIP3    H274169   2.439   2.570  13.375 -0.6029  0.3125 -1.7099
17560TIP3   OH274170   6.163   1.487  15.801 -0.2034  0.1463 -0.3716
17560TIP3    H174171   6.079   1.507  15.761  0.2424  2.4851 -0.2552
17560TIP3    H274172   6.225   1.488  15.728 -0.0899 -0.3828 -0.2853
17561TIP3   OH274173   0.071   0.193  15.258  0.2305 -0.6028  0.1740
17561TIP3    H174174   0.041   0.282  15.244  1.8320 -0.1635 -0.6980
17561TIP3    H274175   0.025   0.141  15.192 -1.3646 -0.6066  1.2462
17562TIP3   OH274176   4.020   6.380   2.113 -0.6194  0.3529 -0.2677
17562TIP3    H174177   4.069   6.419   2.041  1.1047 -0.8474  0.1932
17562TIP3    H274178   4.040   6.436   2.189 -0.6757  0.3618 -0.2592
17563TIP3   OH274179   5.105   5.088   1.734 -0.2153 -0.2720  0.2392
17563TIP3    H174180   5.199   5.096   1.718  0.1160 -2.5274  0.7371
17563TIP3    H274181   5.073   5.178   1.734  1.8283  0.5133 -0.5405
17564TIP3   OH274182   4.074   4.162   4.619  0.2393 -0.3142 -0.2361
17564TIP3    H174183   4.118   4.194   4.698  0.5495 -0.2887 -0.4165
17564TIP3    H274184   3.988   4.204   4.620  1.2007  1.8530 -1.3195
17565TIP3   OH274185   5.311   4.067   3.215 -0.1602  0.9569  0.0911
17565TIP3    H174186   5.399   4.100   3.231 -0.1498  1.4295 -0.8848
17565TIP3    H274187   5.325   3.976   3.185 -0.1391  0.3389  1.8882
17566TIP3   OH274188   0.357   6.433   1.994  0.2804  0.2218 -0.2453
17566TIP3    H174189   0.369   6.339   2.008 -0.8326 -0.3828 -2.7112
17566TIP3    H274190   0.271   6.452   2.031  1.7196  1.0278  2.9873
17567TIP3   OH274191   6.722   4.278  15.133  0.0572  0.3123 -0.0799
17567TIP3    H174192   6.758   4.204  15.182  1.7265  1.3297  0.3023
17567TIP3    H274193   6.633   4.289  15.169  0.0739 -0.9827  0.4156
17568TIP3   OH274194   2.063   0.708   3.289  0.0006  0.5415 -0.0939
17568TIP3    H174195   2.094   0.624   3.255  1.4843  0.3337  1.6514
17568TIP3    H274196   2.085   0.771   3.220 -0.0873 -0.3156 -0.9304
17569TIP3   OH274197   5.349   0.212   4.406  0.6006  0.3337 -0.0077
17569TIP3    H174198   5.327   0.222   4.313 -0.2177  1.4023  0.2825
17569TIP3    H274199   5.413   0.141   4.408  0.9847  0.6010 -1.4400
17570TIP3   OH274200   6.343   5.197  14.059 -0.0695 -0.2573 -0.6003
17570TIP3    H174201   6.256   5.161  14.075 -0.8634  1.7030 -0.2290
17570TIP3    H274202   6.393   5.174  14.137 -0.2438 -1.3773 -0.8052
17571TIP3   OH274203   5.250   1.324   0.294 -0.4249 -0.4985 -0.0342
17571TIP3    H174204   5.255   1.285   0.381  1.0865 -0.7104 -0.1991
17571TIP3    H274205   5.318   1.391   0.294  0.6970 -1.5884 -1.5755
17572TIP3   OH274206   5.830   5.125   3.813 -0.2859  0.0146  0.2925
17572TIP3    H174207   5.843   5.215   3.842 -0.8981  0.0029  0.6105
17572TIP3    H274208   5.870   5.122   3.726 -1.0194  0.8238 -0.0757
17573TIP3   OH274209   6.224   1.830   1.075  0.1035  0.1471 -0.1692
17573TIP3    H174210   6.158   1.876   1.023 -0.7744 -1.4337 -0.5287
17573TIP3    H274211   6.179   1.750   1.106  1.7385 -0.8035 -0.1317
17574TIP3   OH274212   6.253   2.032   1.601 -0.4009 -0.1456 -0.4545
17574TIP3    H174213   6.172   2.060   1.558 -0.3054  1.6049  0.4242
17574TIP3    H274214   6.323   2.069   1.547 -0.0750 -2.6678 -1.9118
17575TIP3   OH274215   0.538   2.490  14.236 -0.1720  0.1352 -0.3450
17575TIP3    H174216   0.562   2.580  14.259  0.1244  0.4485 -1.7700
17575TIP3    H274217   0.622   2.443  14.234 -0.0758  0.3303 -1.6089
17576TIP3   OH274218   4.035   1.085   3.782 -0.0523 -0.1123  0.0004
17576TIP3    H174219   4.121   1.047   3.766  1.5001  3.3011 -0.6832
17576TIP3    H274220   4.041   1.123   3.869 -0.4902  1.0053 -0.4366
17577TIP3   OH274221   3.792   4.565  16.277 -0.4483  0.1753  0.0239
17577TIP3    H174222   3.874   4.536  16.316 -0.8603  0.2260  0.9599
17577TIP3    H274223   3.798   4.539  16.185  0.6166  0.2047  0.0788
17578TIP3   OH274224   1.149   4.038   1.640 -0.0898  0.3739 -0.3078
17578TIP3    H174225   1.239   4.007   1.652 -0.0626  0.3992 -0.4512
17578TIP3    H274226   1.150   4.129   1.668 -0.5258 -0.1876  1.7031
17579TIP3   OH274227   2.436   2.683  15.769  0.1126 -0.5284  0.0108
17579TIP3    H174228   2.434   2.718  15.859  1.9606 -1.1627  0.3449
17579TIP3    H274229   2.498   2.739  15.723  0.5916 -1.3416 -0.3500
17580TIP3   OH274230   3.750   0.225   6.623  0.0432 -0.5565 -0.4021
17580TIP3    H174231   3.827   0.256   6.672  0.7906 -1.1336 -1.1815
17580TIP3    H274232   3.776   0.140   6.588 -1.2850 -1.1818  0.0559
17581TIP3   OH274233   6.037   3.737  16.095  0.0764 -0.2358  0.2360
17581TIP3    H174234   6.052   3.784  16.177  1.5967 -2.0357  1.0703
17581TIP3    H274235   5.971   3.671  16.115 -0.8187  0.4067 -0.4832
17582TIP3   OH274236   2.595   1.226  15.920 -0.1138  0.2443 -0.1030
17582TIP3    H174237   2.566   1.197  16.006 -0.2524  0.8336  0.0495
17582TIP3    H274238   2.548   1.169  15.859 -1.2767  0.9046  0.1540
17583TIP3   OH274239   4.358   0.813   2.560  0.4004  0.0254 -0.0916
17583TIP3    H174240   4.407   0.818   2.478 -0.7101 -1.9536 -0.9336
17583TIP3    H274241   4.272   0.850   2.538  0.4199  0.4195  0.4768
17584TIP3   OH274242   2.011   2.136  15.475 -0.4708  0.2621 -0.1211
17584TIP3    H174243   2.055   2.184  15.545  0.0543  0.1960 -0.4000
17584TIP3    H274244   1.928   2.184  15.462 -1.8698 -1.2967  2.3676
17585TIP3   OH274245   6.077   1.475  14.100 -0.3697  0.1793  0.2342
17585TIP3    H174246   5.994   1.469  14.054  0.7087 -0.6054 -1.7415
17585TIP3    H274247   6.079   1.399  14.158 -0.5638 -0.4299 -0.5475
17586TIP3   OH274248   4.364   5.848   1.833  0.3046 -0.5052 -0.1430
17586TIP3    H174249   4.331   5.862   1.744 -1.7331  1.8198  0.8461
17586TIP3    H274250   4.455   5.877   1.830  0.9523 -2.4347 -1.8642
17587TIP3   OH274251   2.676   2.680   1.369  0.1224  0.2105 -0.3080
17587TIP3    H174252   2.757   2.639   1.337  3.1466  3.3646  2.4981
17587TIP3    H274253   2.651   2.627   1.445  1.3221  0.7679  0.5191
17588TIP3   OH274254   0.686   2.580  16.088  0.0008 -0.3260 -0.5777
17588TIP3    H174255   0.650   2.668  16.100 -0.1840 -0.1829 -1.9710
17588TIP3    H274256   0.623   2.536  16.031 -0.4541 -1.7434  0.9273
17589TIP3   OH274257   6.779   3.435   5.195  0.3846 -0.5448 -0.3037
17589TIP3    H174258   6.861   3.392   5.219  0.6098 -0.9753 -1.7362
17589TIP3    H274259   6.762   3.406   5.105 -0.9400  0.1453 -0.3039
17590TIP3   OH274260   1.276   5.423   4.049  0.3398 -0.4278  0.0201
17590TIP3    H174261   1.315   5.403   4.134  0.1053  0.8098  0.4323
17590TIP3    H274262   1.183   5.402   4.060  0.0774  0.8648  0.4799
17591TIP3   OH274263   0.632   2.181   1.895  0.4055  0.5809  0.0207
17591TIP3    H174264   0.674   2.263   1.867  0.4110  0.0716 -1.6122
17591TIP3    H274265   0.540   2.193   1.872  0.8061 -0.7815 -2.6873
17592TIP3   OH274266   4.109   6.609   2.543  0.2105  0.1924 -0.2245
17592TIP3    H174267   4.171   6.536   2.542  0.1640  0.1465  0.1395
17592TIP3    H274268   4.155   6.678   2.591 -0.3715 -0.1570  0.8667
17593TIP3   OH274269   5.520   2.376  14.291  0.5837 -0.2914 -0.4722
17593TIP3    H174270   5.604   2.420  14.276  0.7279 -0.7417 -1.0359
17593TIP3    H274271   5.534   2.323  14.369  0.9934 -0.7547 -0.8507
17594TIP3   OH274272   5.318   5.880  11.796 -0.3552 -0.2258  0.1978
17594TIP3    H174273   5.338   5.788  11.813 -1.4369 -0.5392 -0.2068
17594TIP3    H274274   5.236   5.879  11.747  0.1950  0.9006 -0.8039
17595TIP3   OH274275   5.335   6.068   0.495 -0.1191  0.4577 -0.3081
17595TIP3    H174276   5.273   5.995   0.498  0.3223  0.1032  1.0249
17595TIP3    H274277   5.292   6.138   0.545  0.9326 -0.1528  1.5746
17596TIP3   OH274278   4.848   6.353   4.306 -0.2322 -0.0327 -0.6095
17596TIP3    H174279   4.809   6.430   4.266 -0.7829  0.2987  0.5027
17596TIP3    H274280   4.875   6.382   4.393  1.8283 -0.4697 -1.0602
17597TIP3   OH274281   1.421   0.625   6.072  0.5492 -0.4459 -0.3544
17597TIP3    H174282   1.407   0.560   6.141  0.4061 -0.6276 -0.5557
17597TIP3    H274283   1.350   0.610   6.010 -0.8915  1.4077  0.7365
17598TIP3   OH274284   0.610   3.461  14.279 -0.3111 -0.0233 -0.0154
17598TIP3    H174285   0.656   3.400  14.337  1.1927  1.1009  0.0319
17598TIP3    H274286   0.518   3.452  14.303  0.3127  1.2519  3.4503
17599TIP3   OH274287   1.282   6.513   1.948  0.0508  0.4199 -0.0347
17599TIP3    H174288   1.345   6.441   1.952  2.4274  2.3877  0.3655
17599TIP3    H274289   1.278   6.537   1.855 -0.3190  0.1362 -0.0938
17600TIP3   OH274290   6.744   2.079  12.264  0.3434 -0.1103  0.6931
17600TIP3    H174291   6.715   1.997  12.223 -1.3179  0.1592  1.2333
17600TIP3    H274292   6.838   2.069  12.273  0.3938 -1.3039 -0.6814
17601TIP3   OH274293   5.791   0.421  12.878 -0.5448 -0.1551 -0.0385
17601TIP3    H174294   5.778   0.511  12.848  1.8361 -0.3328 -1.8849
17601TIP3    H274295   5.860   0.426  12.944  0.0472 -0.6677 -0.6010
17602TIP3   OH274296   4.999   6.739   5.516  0.0693 -0.3304  0.8359
17602TIP3    H174297   5.078   6.794   5.525 -0.6749  0.8521  0.3581
17602TIP3    H274298   4.928   6.802   5.507 -1.1509 -1.3526  2.7510
17603TIP3   OH274299   5.259   5.197  12.201 -0.5085  0.0886 -0.4221
17603TIP3    H174300   5.287   5.129  12.140  1.1872 -0.7541  1.1929
17603TIP3    H274301   5.327   5.264  12.194 -1.4521  1.0002 -1.0087
17604TIP3   OH274302   6.381   5.426  17.049 -0.1766 -0.6142  0.6492
17604TIP3    H174303   6.352   5.449  17.138 -1.8787 -0.9097  0.2103
17604TIP3    H274304   6.334   5.487  16.992 -1.3206 -2.2144 -0.2184
17605TIP3   OH274305   5.026   2.760  13.508 -0.2247 -0.1725  0.1772
17605TIP3    H174306   5.089   2.721  13.568 -0.1436 -0.3949 -0.0522
17605TIP3    H274307   5.060   2.847  13.490 -1.2860  0.7017  2.0550
17606TIP3   OH274308   0.180   4.387  14.328 -0.7767 -0.4604 -0.0231
17606TIP3    H174309   0.124   4.405  14.253  0.6679 -0.1327 -1.0780
17606TIP3    H274310   0.242   4.461  14.329  1.3865 -2.1341 -0.6488
17607TIP3   OH274311   4.525   1.405   3.765 -0.4388 -0.2476  0.7259
17607TIP3    H174312   4.495   1.323   3.725 -0.1840  0.7568 -1.7089
17607TIP3    H274313   4.445   1.456   3.778 -0.3608  0.1854 -0.3950
17608TIP3   OH274314   2.757   5.327   6.381 -0.2970  0.0652  0.2931
17608TIP3    H174315   2.702   5.280   6.443  1.1127 -0.4197  1.2259
17608TIP3    H274316   2.725   5.417   6.384 -1.2022 -0.2539  0.5968
17609TIP3   OH274317   4.914   1.568   0.208  0.3127 -0.4527  0.2475
17609TIP3    H174318   4.924   1.657   0.176  0.2735  0.0570  1.5749
17609TIP3    H274319   4.980   1.560   0.277 -1.6431 -0.3841  2.2487
17610TIP3   OH274320   1.773   6.059  12.927 -0.1162 -0.4715 -0.0324
17610TIP3    H174321   1.808   6.134  12.975  0.5613 -1.4464  1.0752
17610TIP3    H274322   1.723   6.010  12.993  0.3812 -1.5595 -0.4410
17611TIP3   OH274323   5.646   6.770  15.244  0.4285 -0.1732  0.2688
17611TIP3    H174324   5.647   6.766  15.340  0.1787 -0.6295  0.2520
17611TIP3    H274325   5.582   6.838  15.223  0.0287 -0.5026  0.4136
17612TIP3   OH274326   0.598   0.252  14.010  0.4796  0.5993 -0.3217
17612TIP3    H174327   0.544   0.198  13.952 -0.6906 -0.2708  1.4877
17612TIP3    H274328   0.688   0.227  13.989 -0.0144 -2.1434  0.4781
17613TIP3   OH274329   3.461   2.038  13.015  0.3363 -0.0249 -0.6359
17613TIP3    H174330   3.427   2.008  13.099  2.2435  2.7631  1.3242
17613TIP3    H274331   3.556   2.044  13.029  1.0011 -1.4019 -3.7333
17614TIP3   OH274332   5.395   0.383   5.233  0.0128  0.0465 -0.1324
17614TIP3    H174333   5.340   0.421   5.302  0.3921 -1.2038  0.8950
17614TIP3    H274334   5.390   0.289   5.247  1.0710 -0.1747 -1.0848
17615TIP3   OH274335   2.955   6.285   4.653  0.5858 -0.5799 -0.3276
17615TIP3    H174336   3.033   6.323   4.693 -0.6706  1.9562 -0.1259
17615TIP3    H274337   2.905   6.251   4.728  0.1085  0.5577 -0.1073
17616TIP3   OH274338   4.873   4.683  11.185 -0.5515 -0.0145  0.0066
17616TIP3    H174339   4.835   4.755  11.136 -1.9828 -1.2726 -0.7822
17616TIP3    H274340   4.802   4.651  11.241  0.3051 -0.2788  0.9831
17617TIP3   OH274341   4.841   4.061  17.301 -0.9963 -0.8368 -0.4688
17617TIP3    H174342   4.816   3.970  17.283  0.7827 -1.8789  1.7034
17617TIP3    H274343   4.823   4.072  17.395  1.0492  0.2042 -0.1475
17618TIP3   OH274344   6.634   3.212   4.260  0.4215 -0.4896  0.0148
17618TIP3    H174345   6.655   3.118   4.263  1.8572 -0.2550 -1.1328
17618TIP3    H274346   6.694   3.247   4.194 -0.1555  1.2327  0.3598
17619TIP3   OH274347   6.645   6.447  13.576  0.4327  0.2638 -0.0361
17619TIP3    H174348   6.624   6.540  13.575  0.6154  0.3042 -0.1718
17619TIP3    H274349   6.741   6.444  13.581  0.3644  0.0943  2.0622
17620TIP3   OH274350   1.109   5.441   1.855 -0.6082 -0.3028 -0.2255
17620TIP3    H174351   1.102   5.347   1.871  0.4476 -0.1656  1.2313
17620TIP3    H274352   1.041   5.480   1.911  0.2976 -0.0904  0.7562
17621TIP3   OH274353   0.330   6.684  13.926 -0.2603 -0.2692 -0.7413
17621TIP3    H174354   0.392   6.692  13.998 -2.1145 -0.9649  1.0177
17621TIP3    H274355   0.317   6.590  13.917 -0.2438 -0.1801 -1.8642
17622TIP3   OH274356   0.924   5.645  15.926  0.2210  0.3222  0.0119
17622TIP3    H174357   0.974   5.589  15.985 -1.0346 -1.4303 -0.4830
17622TIP3    H274358   0.943   5.610  15.838 -0.3818  0.8296 -0.3323
17623TIP3   OH274359   6.137   4.491  11.766  0.2857 -0.3858  0.4070
17623TIP3    H174360   6.178   4.575  11.747 -1.4613  0.2768 -0.6406
17623TIP3    H274361   6.093   4.466  11.685 -0.1316 -1.7877  1.0270
17624TIP3   OH274362   4.055   3.668  16.994 -0.2138  0.6666 -0.0646
17624TIP3    H174363   4.056   3.579  17.029  0.1615 -0.2020 -2.1403
17624TIP3    H274364   4.145   3.699  17.006  0.4052 -0.3111 -1.7752
17625TIP3   OH274365   3.355   2.902  17.109 -0.5298 -0.0347  0.0277
17625TIP3    H174366   3.370   2.807  17.108 -0.9405 -0.1243  0.9550
17625TIP3    H274367   3.295   2.916  17.182 -1.8936  0.7504 -1.2031
17626TIP3   OH274368   1.110   6.287  13.116  0.2179  1.2135 -0.0748
17626TIP3    H174369   1.028   6.318  13.154 -1.5305 -0.6669 -2.0800
17626TIP3    H274370   1.138   6.216  13.174 -0.4070  0.8542 -0.2052
17627TIP3   OH274371   6.429   1.334  13.650 -0.4410  0.2139 -0.2641
17627TIP3    H174372   6.374   1.261  13.623 -1.7463  1.2856 -0.6139
17627TIP3    H274373   6.368   1.405  13.668  0.8630  1.8576 -1.8953
17628TIP3   OH274374   1.889   5.046   2.299 -0.0913  0.1364  0.0973
17628TIP3    H174375   1.977   5.068   2.268 -0.6043  0.1269 -1.4112
17628TIP3    H274376   1.904   4.980   2.368  1.0706  0.0551 -0.2159
17629TIP3   OH274377   1.080   1.431  12.188 -0.1802  0.0446  0.0075
17629TIP3    H174378   1.117   1.516  12.212 -1.2232  0.5181  0.0156
17629TIP3    H274379   1.037   1.400  12.268  0.1449 -0.4662 -0.0117
17630TIP3   OH274380   6.319   2.768  13.056  0.1714 -0.4201 -0.2617
17630TIP3    H174381   6.401   2.720  13.066  0.2097 -0.2265  0.4493
17630TIP3    H274382   6.340   2.856  13.088 -0.0540 -0.0974 -0.9969
17631TIP3   OH274383   1.057   6.567  14.121  0.0734 -0.3969  0.1998
17631TIP3    H174384   1.097   6.568  14.208 -1.4833 -4.4053  1.1999
17631TIP3    H274385   1.129   6.587  14.062  1.3023  1.9445  2.2879
17632TIP3   OH274386   4.395   0.241  13.500 -0.2179 -0.0613  0.0697
17632TIP3    H174387   4.463   0.203  13.445 -1.1646 -0.1374 -1.0930
17632TIP3    H274388   4.441   0.307  13.552  0.7326 -0.0460 -0.7493
17633TIP3   OH274389   2.413   0.371   4.640 -0.4681  0.1536 -0.1373
17633TIP3    H174390   2.337   0.337   4.688 -0.0641  0.9020  1.0956
17633TIP3    H274391   2.416   0.464   4.664  0.1289  0.4051 -1.1487
17634TIP3   OH274392   0.845   3.609  12.084 -0.6143  0.2798  0.0292
17634TIP3    H174393   0.787   3.593  12.009  0.3303  3.0282 -1.4363
17634TIP3    H274394   0.817   3.694  12.118  1.2496  0.7164  0.5512
17635TIP3   OH274395   4.062   2.286   6.656  0.4201 -0.0786  0.0574
17635TIP3    H174396   4.050   2.201   6.700 -0.8842 -0.1581 -0.4189
17635TIP3    H274397   4.157   2.296   6.650  0.6187 -0.6025  1.8399
17636TIP3   OH274398   1.985   0.655   2.040 -0.0574  0.4135 -0.2565
17636TIP3    H174399   1.924   0.602   2.091  0.5100  0.5263  0.5666
17636TIP3    H274400   2.038   0.701   2.106  0.2169  1.1187 -0.9540
17637TIP3   OH274401   1.101   5.917   6.724  0.3245 -0.0410 -0.6331
17637TIP3    H174402   1.071   5.827   6.727  0.1578  0.0218 -0.4113
17637TIP3    H274403   1.055   5.961   6.795  0.1712  0.2897 -0.9296
17638TIP3   OH274404   2.879   1.559   0.119  0.4401 -0.0385  0.6166
17638TIP3    H174405   2.910   1.537   0.031 -2.8828  0.5626 -0.8800
17638TIP3    H274406   2.828   1.639   0.106 -0.0934  0.1104  3.1543
17639TIP3   OH274407   1.559   0.612   1.693  0.2383  0.3193  0.2212
17639TIP3    H174408   1.471   0.648   1.679 -0.7647 -2.2591 -0.7433
17639TIP3    H274409   1.550   0.519   1.674  3.0783 -0.1494  0.7173
17640TIP3   OH274410   0.417   2.912   2.994 -0.6397 -0.1231  0.0527
17640TIP3    H174411   0.348   2.969   2.958 -1.7730 -1.8510 -0.6482
17640TIP3    H274412   0.465   2.881   2.917 -0.2988 -0.4373  0.3882
17641TIP3   OH274413   6.011   2.449  15.771 -0.2873 -0.2155  0.1467
17641TIP3    H174414   6.023   2.355  15.755 -2.9299 -0.5442 -0.3371
17641TIP3    H274415   5.931   2.471  15.724 -1.4370  1.6226  2.7449
17642TIP3   OH274416   4.263   3.972   4.126  0.3218 -0.0469  0.5354
17642TIP3    H174417   4.294   4.038   4.063  2.4580 -1.5270 -0.0810
17642TIP3    H274418   4.183   3.937   4.086 -0.8528  2.0958  0.8773
17643TIP3   OH274419   4.093   1.382  12.925  0.8005  0.0249 -0.2639
17643TIP3    H174420   4.151   1.348  12.856 -1.3971  0.1788 -2.3010
17643TIP3    H274421   4.015   1.411  12.879 -0.4351  0.9736  2.2437
17644TIP3   OH274422   5.915   2.228  11.396  0.0312 -0.3456 -0.7059
17644TIP3    H174423   5.959   2.257  11.476 -0.4726  1.7671 -1.1311
17644TIP3    H274424   5.826   2.207  11.424 -0.1346  0.3567 -0.7093
17645TIP3   OH274425   3.669   3.946   3.922 -0.3822 -0.1530  0.5721
17645TIP3    H174426   3.607   4.003   3.876 -0.2490 -0.0573  0.5109
17645TIP3    H274427   3.613   3.883   3.968 -0.4994 -1.2434 -0.9801
17646TIP3   OH274428   2.518   4.016   1.725  0.0133 -0.5404  0.5598
17646TIP3    H174429   2.505   4.087   1.789 -1.0693  0.0681 -0.2871
17646TIP3    H274430   2.501   3.936   1.775 -1.4894 -0.0417  0.9066
17647TIP3   OH274431   4.095   6.074   3.535 -0.3540 -0.6303  0.5330
17647TIP3    H174432   4.080   6.036   3.621 -2.5754  1.2065  1.0402
17647TIP3    H274433   4.123   6.164   3.553 -0.2366 -0.4110 -0.6637
17648TIP3   OH274434   0.644   0.774  14.171  0.0852 -0.2908 -0.0688
17648TIP3    H174435   0.680   0.704  14.117  0.7584  0.4562 -0.6089
17648TIP3    H274436   0.549   0.763  14.165  0.1108  0.2799 -2.0930
17649TIP3   OH274437   6.204   1.130  12.073 -0.2100  0.5527  0.0860
17649TIP3    H174438   6.110   1.139  12.062  0.0692  0.7352 -3.0457
17649TIP3    H274439   6.222   1.039  12.051  0.3837  0.5836  0.4267
17650TIP3   OH274440   2.362   2.121   5.549 -0.9154 -0.0271 -1.0978
17650TIP3    H174441   2.439   2.082   5.508 -0.2906 -0.0025  0.0274
17650TIP3    H274442   2.376   2.215   5.543 -0.3463 -0.0214 -0.0014
17651TIP3   OH274443   0.071   3.977  16.233  0.0862  0.5258 -0.4513
17651TIP3    H174444   0.165   3.975  16.250 -0.2022  0.6968  1.3825
17651TIP3    H274445   0.049   4.070  16.229 -0.0007  0.4865 -0.8426
17652TIP3   OH274446   2.026   4.514   2.567 -0.1896 -0.4775 -0.1856
17652TIP3    H174447   1.993   4.481   2.483 -1.8246  0.3013  0.1130
17652TIP3    H274448   1.949   4.521   2.623  0.2725  2.2689  0.2819
17653TIP3   OH274449   5.273   5.211   6.162 -0.4543 -0.7855  0.0436
17653TIP3    H174450   5.267   5.289   6.107  1.2061 -1.3205 -0.9578
17653TIP3    H274451   5.301   5.243   6.247  0.7429 -0.3246 -0.5079
17654TIP3   OH274452   0.519   5.169   5.864  0.4262 -0.0097 -0.6392
17654TIP3    H174453   0.470   5.174   5.781 -2.1359 -0.5877  0.7098
17654TIP3    H274454   0.529   5.075   5.879 -1.7644 -0.0728  1.0155
17655TIP3   OH274455   0.311   2.854   2.325 -0.4490  0.2762 -0.1282
17655TIP3    H174456   0.355   2.769   2.331  0.4091  0.4301 -3.0035
17655TIP3    H274457   0.219   2.833   2.306 -0.4812  0.0074  0.3135
17656TIP3   OH274458   0.373   3.039  11.968 -0.0905 -0.3978  0.0144
17656TIP3    H174459   0.372   3.082  12.054  1.2125 -1.3320  0.5307
17656TIP3    H274460   0.298   3.076  11.922  0.7485  2.1568  0.5407
17657TIP3   OH274461   2.490   4.835   5.503  0.0290 -0.4901  0.0509
17657TIP3    H174462   2.457   4.808   5.417  0.9261 -3.0391  0.4009
17657TIP3    H274463   2.412   4.856   5.554 -0.5074  1.2546 -1.3976
17658TIP3   OH274464   3.457   4.819   6.018 -0.2348 -0.4170 -0.2734
17658TIP3    H174465   3.365   4.815   6.044 -0.1985  0.0957 -0.0466
17658TIP3    H274466   3.494   4.888   6.073 -0.0950  0.5076 -1.4765
17659TIP3   OH274467   4.075   3.148   5.178 -0.3398 -0.0235  0.1651
17659TIP3    H174468   4.103   3.240   5.177  4.0250 -1.0947  1.3057
17659TIP3    H274469   4.122   3.108   5.105 -0.7745 -1.6703  0.7472
17660TIP3   OH274470   1.881   6.220  13.117 -0.3142 -0.6616  0.8189
17660TIP3    H174471   1.833   6.202  13.198 -2.6972  0.9800 -0.1139
17660TIP3    H274472   1.935   6.296  13.138 -2.1799  0.8075  0.4716
17661TIP3   OH274473   2.908   6.370  11.711  0.3734 -0.0933  0.4850
17661TIP3    H174474   2.825   6.321  11.710  0.8740 -1.0005 -1.6323
17661TIP3    H274475   2.956   6.336  11.636  1.8791  1.8058  0.5345
17662TIP3   OH274476   1.619   4.481   4.581  0.1476  0.1124 -0.1059
17662TIP3    H174477   1.618   4.426   4.660  0.2452  0.6642  0.2864
17662TIP3    H274478   1.622   4.419   4.509  3.4846 -0.4268  0.3462
17663TIP3   OH274479   4.525   2.861   3.583  0.4291 -0.7615 -0.3821
17663TIP3    H174480   4.592   2.921   3.549  0.3905  0.0252  0.8684
17663TIP3    H274481   4.491   2.818   3.505  3.4743 -2.3888 -0.9804
17664TIP3   OH274482   6.787   1.167   6.209  0.1037 -0.0565  0.3526
17664TIP3    H174483   6.716   1.140   6.268 -0.2158 -3.2797 -1.2650
17664TIP3    H274484   6.743   1.197   6.130  0.4462 -1.7461 -0.5304
17665TIP3   OH274485   3.066   1.161   3.287  1.0148  0.8116 -0.1776
17665TIP3    H174486   3.131   1.163   3.217 -0.3982 -0.5907 -1.6281
17665TIP3    H274487   3.006   1.232   3.267  0.6719  0.4825 -0.3321
17666TIP3   OH274488   2.059   5.180   0.939  0.4647 -0.3099  0.0628
17666TIP3    H174489   2.045   5.093   0.978 -0.0040 -0.2788 -0.0249
17666TIP3    H274490   2.128   5.166   0.874 -0.7002 -0.9822 -1.0949
17667TIP3   OH274491   5.306   6.709  13.500  0.0994  0.1355 -0.4202
17667TIP3    H174492   5.233   6.724  13.439  1.3355 -1.2401 -2.3749
17667TIP3    H274493   5.309   6.614  13.511  2.4155  0.0068 -1.5611
17668TIP3   OH274494   6.197   3.656  13.706  0.3811 -0.0972  0.0002
17668TIP3    H174495   6.119   3.634  13.758  0.2701  0.3644  0.0292
17668TIP3    H274496   6.265   3.596  13.739  0.1738 -0.1618  0.3193
17669TIP3   OH274497   6.724   5.425   2.159  0.9998 -0.0375 -0.2961
17669TIP3    H174498   6.781   5.382   2.222  0.8812 -1.4623 -1.1337
17669TIP3    H274499   6.687   5.354   2.107  1.1970  1.0938 -2.0560
17670TIP3   OH274500   3.989   2.252  13.832  0.0837  0.3514  0.0417
17670TIP3    H174501   4.078   2.272  13.804  1.3366 -1.9760  1.9810
17670TIP3    H274502   3.954   2.196  13.763  0.0618  1.3401 -0.7664
17671TIP3   OH274503   0.748   1.736  15.140 -0.2229 -0.5056 -0.6221
17671TIP3    H174504   0.709   1.822  15.128 -0.5450 -0.5086  0.3854
17671TIP3    H274505   0.843   1.753  15.140 -0.2895  0.1554  1.5795
17672TIP3   OH274506   1.209   1.078  11.544  0.8180  0.7388  0.3505
17672TIP3    H174507   1.248   1.008  11.492  1.3050  0.2819  1.3081
17672TIP3    H274508   1.154   1.126  11.482  0.7005 -0.3136 -0.3866
17673TIP3   OH274509   6.150   3.962   6.210 -0.2006 -0.6528  0.2243
17673TIP3    H174510   6.144   4.009   6.127 -1.1910 -0.2911  0.4936
17673TIP3    H274511   6.236   3.919   6.207  0.2243  0.2206 -0.5232
17674TIP3   OH274512   1.118   3.552  11.978  0.3360 -0.2654  0.1985
17674TIP3    H174513   1.049   3.619  11.987  0.1262 -0.4405 -0.0778
17674TIP3    H274514   1.074   3.470  12.000  0.3722 -0.4171 -0.2815
17675TIP3   OH274515   0.457   5.012   1.311 -0.1562  0.0972 -0.2387
17675TIP3    H174516   0.478   4.921   1.330  3.2594  0.7527 -0.2469
17675TIP3    H274517   0.542   5.055   1.301 -1.6317  2.9968 -1.7218
17676TIP3   OH274518   2.220   0.378  14.222 -0.4575 -0.3146 -0.0769
17676TIP3    H174519   2.124   0.374  14.229 -0.5587 -0.0525 -1.1409
17676TIP3    H274520   2.241   0.313  14.155  0.2230 -1.1531  0.9162
17677TIP3   OH274521   2.553   2.701  13.660  0.5370 -0.0597  0.4122
17677TIP3    H174522   2.527   2.792  13.677  1.5648  0.1733  0.8324
17677TIP3    H274523   2.523   2.684  13.570 -1.2087  0.1012  0.9295
17678TIP3   OH274524   4.669   3.758   3.968 -0.2236  0.5321  0.0412
17678TIP3    H174525   4.656   3.665   3.987  2.2944  0.1283  0.1813
17678TIP3    H274526   4.643   3.803   4.049  0.8086 -0.2860  0.8473
17679TIP3   OH274527   2.751   5.759  13.004 -0.0993 -0.0508 -0.3205
17679TIP3    H174528   2.750   5.675  13.051  0.4096  0.9518  1.6136
17679TIP3    H274529   2.844   5.779  12.994 -0.2205  0.3424 -0.6819
17680TIP3   OH274530   1.231   4.890   1.676  0.2202 -0.4575  0.2786
17680TIP3    H174531   1.271   4.914   1.593  0.9394 -2.0495  0.1271
17680TIP3    H274532   1.252   4.962   1.735  0.7852  0.1033 -0.5881
17681TIP3   OH274533   1.802   5.183   2.547 -0.1263 -0.3080 -0.0156
17681TIP3    H174534   1.714   5.202   2.514 -1.1968 -2.6675  1.2536
17681TIP3    H274535   1.845   5.138   2.474 -1.0661 -1.8351  0.3216
17682TIP3   OH274536   4.413   1.928  14.064 -0.0872 -0.1549 -0.6404
17682TIP3    H174537   4.479   1.914  14.132  0.2334 -0.5908 -1.0406
17682TIP3    H274538   4.331   1.935  14.113  0.4209  2.1456  0.0326
17683TIP3   OH274539   1.520   0.022  11.162  0.8564  0.1241 -0.4254
17683TIP3    H174540   1.507  -0.014  11.250  1.5822  0.0840 -0.3291
17683TIP3    H274541   1.462  -0.029  11.106 -1.5942  1.8116  0.3877
17684TIP3   OH274542   3.793   0.648   0.744  0.2487  0.3357 -0.2386
17684TIP3    H174543   3.780   0.740   0.723  0.7726  0.2211 -1.1476
17684TIP3    H274544   3.705   0.612   0.749  0.0604  0.6668 -0.9919
17685TIP3   OH274545   5.834   1.300   0.855  0.4079  0.6712 -0.1354
17685TIP3    H174546   5.870   1.386   0.832  1.1263  0.1375 -1.0995
17685TIP3    H274547   5.740   1.314   0.863  0.1804  1.1351 -2.5818
17686TIP3   OH274548   4.001   0.059   2.873 -0.1864  0.0504  0.5309
17686TIP3    H174549   3.914   0.025   2.852  0.0057 -0.9268  1.2623
17686TIP3    H274550   3.993   0.092   2.962  0.0947  0.3124  0.4595
17687TIP3   OH274551   6.533   0.240  15.428  0.6705  0.1698 -0.0080
17687TIP3    H174552   6.474   0.165  15.429  1.0839 -0.1556  0.8919
17687TIP3    H274553   6.507   0.290  15.350  0.9005 -1.2955 -1.0632
17688TIP3   OH274554   0.048   5.574  16.931  0.2320 -0.0457  0.3537
17688TIP3    H174555   0.032   5.649  16.874  2.2297 -1.6546 -2.5886
17688TIP3    H274556  -0.013   5.507  16.901  1.0136 -0.7753  0.3514
17689TIP3   OH274557   3.819   4.230  15.870  0.7869 -0.1190  0.2322
17689TIP3    H174558   3.783   4.231  15.959 -0.7190  0.9536 -0.3372
17689TIP3    H274559   3.909   4.200  15.881  0.6520  0.0184  2.1196
17690TIP3   OH274560   3.802   2.660   5.583 -0.3037  0.2764  0.0652
17690TIP3    H174561   3.727   2.642   5.640 -0.8204  0.7208 -0.4698
17690TIP3    H274562   3.829   2.749   5.605  0.3324 -0.0133  0.5323
17691TIP3   OH274563   0.745   3.645   5.700 -0.3266 -0.7355  0.2898
17691TIP3    H174564   0.665   3.594   5.706 -2.1292  1.7112 -1.3080
17691TIP3    H274565   0.773   3.656   5.791 -0.0837 -3.9542  0.7579
17692TIP3   OH274566   2.561   2.133  14.401 -0.4372 -0.2132  0.0483
17692TIP3    H174567   2.630   2.087  14.450  0.0509 -0.2846 -0.6887
17692TIP3    H274568   2.556   2.087  14.317  2.2694  2.8535 -2.0342
17693TIP3   OH274569   2.716   0.169  15.426  0.1628  0.0256  0.0068
17693TIP3    H174570   2.772   0.209  15.492  0.1654 -0.4872  0.3244
17693TIP3    H274571   2.699   0.081  15.460 -0.1138 -0.1246 -0.5137
17694TIP3   OH274572   5.327   6.334   4.912  0.5104  0.1987  0.0759
17694TIP3    H174573   5.308   6.426   4.895 -3.4829 -0.6244 -0.9901
17694TIP3    H274574   5.279   6.314   4.992  0.0365 -1.2461 -0.5358
17695TIP3   OH274575   1.559   3.188   3.377 -0.0474 -0.3013 -0.5127
17695TIP3    H174576   1.557   3.133   3.455  1.6537  2.9031  2.0175
17695TIP3    H274577   1.469   3.220   3.367 -0.5561 -1.7127 -0.7407
17696TIP3   OH274578   5.736   2.453   0.841 -0.1157  0.0302 -0.4101
17696TIP3    H174579   5.675   2.391   0.882  0.0419 -0.5874 -1.0895
17696TIP3    H274580   5.721   2.442   0.747  0.7467  0.1794 -0.5678
17697TIP3   OH274581   4.421   5.945  16.024 -0.0661 -0.0835 -0.4130
17697TIP3    H174582   4.486   5.938  15.955 -0.7088 -0.4330 -0.9920
17697TIP3    H274583   4.471   5.939  16.105  0.8155  1.3549 -0.8216
17698TIP3   OH274584   6.100   3.747   3.594  0.2316  0.1022  0.0909
17698TIP3    H174585   6.186   3.729   3.556 -0.4252  0.0015 -1.4472
17698TIP3    H274586   6.096   3.693   3.672  1.1070 -0.8281 -0.4829
17699TIP3   OH274587   0.948   2.978   2.308  0.0229 -0.4482  0.2067
17699TIP3    H174588   1.023   2.946   2.258 -1.2756 -0.4158 -1.8934
17699TIP3    H274589   0.976   2.974   2.399  1.7086 -2.7391 -0.3155
17700TIP3   OH274590   0.276   0.763   4.792  0.2458 -0.0835  0.0884
17700TIP3    H174591   0.311   0.842   4.752 -0.4866  0.3217  0.2268
17700TIP3    H274592   0.181   0.777   4.795 -0.0087 -1.3810 -0.8132
17701TIP3   OH274593   4.431   4.196   0.806  0.1131  0.1533  0.1035
17701TIP3    H174594   4.390   4.243   0.733  0.4417 -0.8396 -0.7529
17701TIP3    H274595   4.358   4.163   0.857 -0.1267  0.4981 -0.0071
17702TIP3   OH274596   0.557   3.521   5.276 -0.1330 -0.1404 -0.1695
17702TIP3    H174597   0.594   3.494   5.361 -1.8621  0.4207  0.8128
17702TIP3    H274598   0.620   3.584   5.242  0.7929 -0.6740  0.4991
17703TIP3   OH274599   3.626   1.337  16.726  0.5618 -0.3890 -0.2342
17703TIP3    H174600   3.573   1.416  16.723  0.1486 -0.6450  0.2571
17703TIP3    H274601   3.680   1.347  16.804 -0.0163 -0.9238  0.2374
17704TIP3   OH274602   3.400   3.301  15.177  0.4147  0.4268  0.1051
17704TIP3    H174603   3.384   3.218  15.132 -1.0784  0.8995 -0.2912
17704TIP3    H274604   3.446   3.355  15.113  0.7372  0.1621  0.1114
17705TIP3   OH274605   1.267   5.895   5.244  0.3240  0.0427 -0.1498
17705TIP3    H174606   1.301   5.807   5.258  0.2389  0.4625  4.2182
17705TIP3    H274607   1.338   5.941   5.199  2.1370 -1.2678  1.1920
17706TIP3   OH274608   6.152   5.685   1.831  0.7836  0.8296  0.7803
17706TIP3    H174609   6.245   5.686   1.808  0.7906  0.4616  0.7935
17706TIP3    H274610   6.145   5.622   1.903  0.6180  1.3003  1.1851
17707TIP3   OH274611   3.489   0.892   5.799  0.2890  0.1412  0.4203
17707TIP3    H174612   3.408   0.887   5.851  0.6774  0.9181  1.1169
17707TIP3    H274613   3.559   0.892   5.864  0.8939 -1.2143 -0.2109
17708TIP3   OH274614   6.469   1.442   2.978 -0.5568 -0.0866  0.6851
17708TIP3    H174615   6.538   1.415   3.039 -1.7572 -1.4822  1.5049
17708TIP3    H274616   6.513   1.451   2.894  0.9163  0.6803  1.4884
17709TIP3   OH274617   0.695   5.229   4.292  0.4820  0.0034  0.8776
17709TIP3    H174618   0.764   5.185   4.243 -0.0856 -0.5706  0.5774
17709TIP3    H274619   0.720   5.322   4.292  1.1236 -0.1694  0.5785
17710TIP3   OH274620   6.766   2.824  11.825  0.5732 -0.0344 -0.0270
17710TIP3    H174621   6.842   2.780  11.788  0.9601  0.7682 -0.2005
17710TIP3    H274622   6.730   2.761  11.887  2.7494  0.3765  1.8371
17711TIP3   OH274623   5.242   4.300  12.574  0.1504 -0.3858  0.4910
17711TIP3    H174624   5.153   4.302  12.540  0.4076  0.5469 -0.1348
17711TIP3    H274625   5.233   4.325  12.666  0.2006  4.5397 -0.5951
17712TIP3   OH274626   4.318   2.820  13.135 -0.3687  0.1410 -0.4985
17712TIP3    H174627   4.374   2.831  13.213  0.3809 -0.5041 -0.9283
17712TIP3    H274628   4.268   2.902  13.129  0.1809  0.5357  0.1760
17713TIP3   OH274629   5.391   2.462  14.066 -0.1217 -0.2839 -0.1278
17713TIP3    H174630   5.404   2.428  14.155  1.2819  0.1419 -0.1457
17713TIP3    H274631   5.479   2.466  14.029 -0.3575  2.1848 -0.5637
17714TIP3   OH274632   1.427   5.474   0.422  0.7772 -0.2606 -0.0877
17714TIP3    H174633   1.466   5.452   0.506  2.2381  0.2767 -0.5935
17714TIP3    H274634   1.332   5.472   0.438  0.9793 -1.7456  1.1496
17715TIP3   OH274635   3.175   4.003  12.469  0.0786 -0.4472 -0.6024
17715TIP3    H174636   3.224   3.979  12.390  0.5327  0.1423 -0.5129
17715TIP3    H274637   3.084   4.006  12.440  0.2998  0.3676 -1.2750
17716TIP3   OH274638   6.629   5.496  10.522 -0.1207  0.3189  0.4411
17716TIP3    H174639   6.648   5.570  10.464  0.0589 -0.2226 -0.1915
17716TIP3    H274640   6.595   5.538  10.601  1.2019  1.1555  0.6023
17717TIP3   OH274641   4.617   4.093   6.197 -0.0263 -0.4790 -0.0069
17717TIP3    H174642   4.524   4.074   6.192 -0.1466  0.1449 -4.9469
17717TIP3    H274643   4.622   4.178   6.241 -2.0079  0.2151 -1.0024
17718TIP3   OH274644   0.920   4.854  12.309  0.4611  0.2892 -0.0244
17718TIP3    H174645   0.940   4.829  12.400 -0.9902 -0.0855  0.2246
17718TIP3    H274646   0.997   4.902  12.280  0.2447  2.0502  2.0228
17719TIP3   OH274647   1.030   2.625   2.000 -0.4449  0.1494  0.2114
17719TIP3    H174648   1.071   2.558   1.945 -1.5577  0.3136 -0.8848
17719TIP3    H274649   1.074   2.618   2.084  0.6271 -0.8081 -0.4005
17720TIP3   OH274650   2.003   6.539   0.491 -0.0713 -0.1032  0.0559
17720TIP3    H174651   1.917   6.557   0.453  1.0440  1.2071 -2.1169
17720TIP3    H274652   2.056   6.614   0.464  2.6668 -2.4823 -1.8832
17721TIP3   OH274653   2.393   3.981  12.176  0.6484  0.2236  0.1715
17721TIP3    H174654   2.369   4.045  12.109 -0.3774  1.2716  1.4883
17721TIP3    H274655   2.463   3.929  12.136 -0.1841  0.5616 -1.8418
17722TIP3   OH274656   5.905   3.194  17.005 -0.2418  0.1895 -0.2225
17722TIP3    H174657   5.863   3.128  17.060 -1.7218 -0.0063 -1.5194
17722TIP3    H274658   5.950   3.143  16.937  1.5811  0.4257  0.7451
17723TIP3   OH274659   0.822   6.689   5.453  0.3645  0.5328  0.1853
17723TIP3    H174660   0.731   6.715   5.466  0.0698 -0.6074  0.4797
17723TIP3    H274661   0.821   6.593   5.461  2.0770  0.6403  3.4194
17724TIP3   OH274662   1.102   5.901   2.349 -0.0066 -0.3094 -0.0635
17724TIP3    H174663   1.162   5.974   2.362 -0.5600  0.2503 -0.5520
17724TIP3    H274664   1.046   5.928   2.276 -1.0983 -0.6506  0.6155
17725TIP3   OH274665   2.797   3.151   0.293  0.0562 -0.2316 -0.3231
17725TIP3    H174666   2.847   3.070   0.286 -0.9295 -0.8024 -1.0014
17725TIP3    H274667   2.809   3.194   0.208  0.1501  0.0731 -0.1560
17726TIP3   OH274668   0.302   6.123   5.896 -0.3315 -0.4931 -0.0325
17726TIP3    H174669   0.334   6.140   5.985  0.6925 -1.4937 -0.1853
17726TIP3    H274670   0.230   6.061   5.908  0.4778 -1.4391  0.0472
17727TIP3   OH274671   3.604   3.796   0.399 -0.0526  0.3137 -0.4560
17727TIP3    H174672   3.687   3.793   0.352  0.9771 -0.0534  1.2987
17727TIP3    H274673   3.589   3.706   0.427 -0.1719  0.6515  0.6369
17728TIP3   OH274674   0.648   1.323   5.207  0.1478  0.5802 -0.0908
17728TIP3    H174675   0.597   1.260   5.258 -0.0364 -0.7217 -1.7982
17728TIP3    H274676   0.736   1.286   5.206  0.5754  1.5188  0.7119
17729TIP3   OH274677   2.999   6.049  16.699  0.3668  0.7066 -0.2339
17729TIP3    H174678   2.921   6.030  16.648  0.0978  1.1454  0.0103
17729TIP3    H274679   3.039   6.125  16.655  1.4589 -0.3990 -1.2312
17730TIP3   OH274680   6.285   0.662   6.400  0.3048 -0.2648 -0.1410
17730TIP3    H174681   6.192   0.677   6.386  0.1269 -1.1593  0.0534
17730TIP3    H274682   6.297   0.676   6.494  0.2413 -0.7777 -0.0541
17731TIP3   OH274683   4.589   2.681  17.355 -0.2981 -0.3977 -0.1884
17731TIP3    H174684   4.661   2.742  17.374 -0.8793  0.2247  0.0688
17731TIP3    H274685   4.618   2.634  17.277  0.1103  0.3172 -0.4832
17732TIP3   OH274686   6.116   5.168   0.908  0.2760 -0.2819  0.5163
17732TIP3    H174687   6.048   5.178   0.842  1.5304 -2.0460 -1.1403
17732TIP3    H274688   6.107   5.078   0.940 -0.2144  0.4843  2.7175
17733TIP3   OH274689   2.167   1.017  15.553 -0.1980  0.0555  0.4564
17733TIP3    H174690   2.159   0.922  15.546 -1.2593  0.1848 -0.2458
17733TIP3    H274691   2.172   1.034  15.647 -0.4411 -0.6616  0.6061
17734TIP3   OH274692   5.503   6.443   4.421  0.2171  0.2354 -0.6052
17734TIP3    H174693   5.435   6.382   4.391 -0.5567 -0.5964  2.5367
17734TIP3    H274694   5.529   6.410   4.507  2.0042  2.6353 -0.1194
17735TIP3   OH274695   4.122   2.019   1.265  0.0333  0.0789 -0.4480
17735TIP3    H174696   4.137   1.979   1.179 -0.4403  1.4504 -1.1968
17735TIP3    H274697   4.082   2.104   1.246  0.8358  0.8550  1.0799
17736TIP3   OH274698   3.101   4.504   0.406 -0.3323  0.1916 -0.1113
17736TIP3    H174699   3.172   4.443   0.387 -0.2221 -0.4953  2.1881
17736TIP3    H274700   3.022   4.451   0.402 -0.7538  0.9099 -2.4544
17737TIP3   OH274701   2.185   3.647  14.975 -0.5701 -0.2324 -0.0360
17737TIP3    H174702   2.097   3.617  14.998 -1.0273  0.7952 -0.3689
17737TIP3    H274703   2.176   3.679  14.885  0.0850  0.0890  0.0077
17738TIP3   OH274704   3.304   6.748   5.090 -0.9097 -0.0825 -0.0198
17738TIP3    H174705   3.250   6.669   5.087 -1.7622  0.4806 -0.0453
17738TIP3    H274706   3.384   6.725   5.044 -1.4413 -0.7085 -0.6440
17739TIP3   OH274707   3.251   6.641   3.987  0.2934 -0.3588 -0.0082
17739TIP3    H174708   3.204   6.703   3.931  0.3914 -0.5287 -0.2809
17739TIP3    H274709   3.184   6.580   4.016  0.0639  0.2582  0.8078
17740TIP3   OH274710   1.786   0.734   4.872  0.9283  0.7048  0.1994
17740TIP3    H174711   1.781   0.740   4.967 -1.5003  0.0987  0.1488
17740TIP3    H274712   1.834   0.813   4.846 -0.1272  1.9302  1.8026
17741TIP3   OH274713   1.992   5.540   3.732  0.2002 -0.1339  0.2911
17741TIP3    H174714   1.903   5.568   3.751  0.4416  0.4457  0.5748
17741TIP3    H274715   1.990   5.514   3.640  0.0557  1.1499 -0.0787
17742TIP3   OH274716   1.908   1.769  11.986  0.0670 -0.1002  0.2139
17742TIP3    H174717   1.963   1.815  12.049 -0.1196  0.4515 -0.0238
17742TIP3    H274718   1.856   1.838  11.943 -1.2176 -0.6468  0.8205
17743TIP3   OH274719   0.026   4.029  10.591 -0.5827 -0.0891 -0.5377
17743TIP3    H174720  -0.005   3.940  10.605 -0.7594 -0.0442 -0.6381
17743TIP3    H274721   0.001   4.075  10.671  2.3034 -0.8538  0.9455
17744TIP3   OH274722   5.057   0.175   5.178  0.0591  0.5273 -0.5255
17744TIP3    H174723   5.019   0.116   5.243  1.2764  2.4896  2.1970
17744TIP3    H274724   5.016   0.151   5.096 -3.2733 -0.7307  1.3167
17745TIP3   OH274725   3.266   6.027   3.182  0.0915  0.1625 -0.2703
17745TIP3    H174726   3.299   5.951   3.230  0.5543  0.7287  0.3179
17745TIP3    H274727   3.176   6.039   3.214  0.3233  0.4060  0.3115
17746TIP3   OH274728   0.819   3.821   1.536 -0.2939 -0.0027  1.0121
17746TIP3    H174729   0.831   3.915   1.525 -0.2261  0.2104  2.6852
17746TIP3    H274730   0.745   3.800   1.478  0.9388  0.6713 -0.9189
17747TIP3   OH274731   4.292   0.700  11.766 -0.0947  0.2555  0.3577
17747TIP3    H174732   4.243   0.781  11.750 -1.2842 -0.5573 -0.2578
17747TIP3    H274733   4.367   0.727  11.819  0.5564  2.0542 -1.3548
17748TIP3   OH274734   2.602   0.750   6.621 -0.2517 -0.0991 -0.0244
17748TIP3    H174735   2.536   0.813   6.651  0.2514  0.1666  0.5360
17748TIP3    H274736   2.674   0.760   6.683  1.3895  1.4062 -2.0478
17749TIP3   OH274737   6.528   6.295  12.106 -0.6696 -0.3386 -0.0581
17749TIP3    H174738   6.538   6.387  12.130  1.7749 -0.4954 -0.2027
17749TIP3    H274739   6.613   6.271  12.069 -2.1026 -1.9506 -2.5830
17750TIP3   OH274740   1.041   1.667   5.266  0.2326 -0.7950  0.2505
17750TIP3    H174741   1.118   1.611   5.278  0.8235  0.2384  1.4485
17750TIP3    H274742   1.066   1.726   5.195  0.3307 -0.8253  0.2592
17751TIP3   OH274743   4.465   1.368  16.234  0.0252 -0.2855 -0.0179
17751TIP3    H174744   4.496   1.441  16.287  0.0127  0.8251 -1.4648
17751TIP3    H274745   4.542   1.312  16.221  0.9652  1.2974 -1.7487
17752TIP3   OH274746   4.683   0.584   4.605 -1.0026  0.3814 -0.7006
17752TIP3    H174747   4.672   0.569   4.699 -0.4499  1.0872 -0.5173
17752TIP3    H274748   4.597   0.616   4.576 -0.4747  2.6939  0.0850
17753TIP3   OH274749   5.146   6.334   1.717 -0.6696 -0.4661  0.7972
17753TIP3    H174750   5.086   6.401   1.683  1.0631  0.5544 -0.4028
17753TIP3    H274751   5.092   6.283   1.778 -3.0057 -0.2244 -0.9183
17754TIP3   OH274752   2.306   4.615   6.267  0.2814 -0.3150  0.9856
17754TIP3    H174753   2.245   4.604   6.340 -1.3829 -1.4182 -0.4886
17754TIP3    H274754   2.376   4.553   6.285 -2.3274 -3.9996 -0.4756
17755TIP3   OH274755   3.492   0.662  14.650 -0.0850  0.2147 -0.6239
17755TIP3    H174756   3.467   0.682  14.559 -0.2839  0.7176 -0.4600
17755TIP3    H274757   3.498   0.566  14.652  2.0882  0.2423 -1.7460
17756TIP3   OH274758   0.453   4.116   0.373  0.2162 -0.1251  0.4889
17756TIP3    H174759   0.376   4.082   0.419 -0.6676 -0.1769 -0.9485
17756TIP3    H274760   0.481   4.043   0.317  1.6572 -0.2859  1.3498
17757TIP3   OH274761   0.404   0.322   6.390  0.1303 -0.2459  0.2971
17757TIP3    H174762   0.420   0.393   6.452 -1.6219 -0.4243  0.9910
17757TIP3    H274763   0.324   0.280   6.421 -1.3683  0.2364 -2.5897
17758TIP3   OH274764   3.986   0.022  11.383 -0.4472 -0.3593  0.4119
17758TIP3    H174765   3.951  -0.058  11.344  0.0273 -0.7557  0.7881
17758TIP3    H274766   3.913   0.060  11.432 -0.5532 -0.7961  0.5945
17759TIP3   OH274767   5.204   0.127   5.556  0.0898  0.9158 -0.1141
17759TIP3    H174768   5.177   0.199   5.614  1.7315  1.2405  0.2937
17759TIP3    H274769   5.288   0.098   5.591  1.0778  1.0261 -2.2209
17760TIP3   OH274770   4.247   4.232  10.610 -0.7018 -0.0504  0.5793
17760TIP3    H174771   4.272   4.321  10.585 -1.3438  0.1911  0.7643
17760TIP3    H274772   4.151   4.232  10.604 -0.6748 -0.8841  0.0901
17761TIP3   OH274773   1.879   4.887  16.465  0.0925 -0.2814 -0.6050
17761TIP3    H174774   1.811   4.954  16.463  0.7990  0.4293 -1.3456
17761TIP3    H274775   1.883   4.860  16.557 -1.2415 -0.4151 -0.5579
17762TIP3   OH274776   2.892   6.746  12.442  0.4281  0.0290  0.2634
17762TIP3    H174777   2.831   6.760  12.370  1.9626  0.3137 -1.0372
17762TIP3    H274778   2.876   6.657  12.471 -1.0894  0.3404  0.4451
17763TIP3   OH274779   1.672   0.920  16.402  0.2007  0.2703 -0.6972
17763TIP3    H174780   1.721   0.911  16.484  1.5887 -0.2646 -1.5481
17763TIP3    H274781   1.728   0.976  16.347  0.5785 -1.5016 -2.2027
17764TIP3   OH274782   1.257   0.421  12.163 -0.1681  0.6242  0.0648
17764TIP3    H174783   1.276   0.481  12.091  0.8998  0.3798  0.1308
17764TIP3    H274784   1.161   0.415  12.164 -0.2323  1.2507 -0.8144
17765TIP3   OH274785   6.762   2.470   5.049  0.2300 -0.3137  0.8049
17765TIP3    H174786   6.689   2.413   5.072 -1.2259  0.5637 -1.3259
17765TIP3    H274787   6.779   2.521   5.128  0.1968 -2.2010  2.0906
17766TIP3   OH274788   4.310   5.505   3.958  0.0963 -0.7665  0.4067
17766TIP3    H174789   4.324   5.593   3.925 -2.1575 -0.6207 -0.3634
17766TIP3    H274790   4.286   5.453   3.881 -0.2660 -1.6435  1.0822
17767TIP3   OH274791   1.777   0.974   6.383  0.0309 -0.5398  0.2054
17767TIP3    H174792   1.824   1.056   6.372  0.8257 -1.0605 -0.3807
17767TIP3    H274793   1.846   0.909   6.396 -0.6001 -1.0617  1.0932
17768TIP3   OH274794   0.001   0.934   4.465  0.0622 -0.4076  0.4319
17768TIP3    H174795  -0.094   0.926   4.454  0.0067 -0.0078  0.6057
17768TIP3    H274796   0.037   0.910   4.379 -0.1707 -0.9510  0.4811
17769TIP3   OH274797   6.189   3.841  11.861 -0.4139 -0.2495  0.5504
17769TIP3    H174798   6.214   3.760  11.906 -0.4828 -0.5715  0.0166
17769TIP3    H274799   6.254   3.851  11.792 -2.1167 -1.5060 -1.3597
17770TIP3   OH274800   0.466   2.246  16.950 -0.4794  0.3199 -0.0303
17770TIP3    H174801   0.391   2.298  16.978 -0.5576 -0.6004  1.5568
17770TIP3    H274802   0.501   2.207  17.030  1.7136  0.7196 -0.7164
17771TIP3   OH274803   1.489   5.266   1.668  0.1959 -0.1568 -0.2037
17771TIP3    H174804   1.482   5.347   1.717 -1.8076  0.5638 -1.5608
17771TIP3    H274805   1.567   5.278   1.613  2.4203 -0.9497  2.5701
17772TIP3   OH274806   0.692   4.721   5.235 -0.6857  0.3444 -0.0136
17772TIP3    H174807   0.740   4.655   5.186  0.4571 -2.1317  3.9509
17772TIP3    H274808   0.600   4.699   5.222 -0.3448 -2.4321  1.4268
17773TIP3   OH274809   5.545   3.521   4.224 -0.3667  0.4437 -0.0549
17773TIP3    H174810   5.533   3.433   4.188 -0.5046  0.0893  0.8267
17773TIP3    H274811   5.601   3.566   4.161 -0.7929 -0.0829 -0.8174
17774TIP3   OH274812   0.180   1.218   5.657 -0.7648  0.2800  0.1427
17774TIP3    H174813   0.207   1.214   5.565 -0.0897 -2.3800  0.4016
17774TIP3    H274814   0.101   1.165   5.661 -0.7502  0.3226  1.1179
17775TIP3   OH274815   5.268   6.349  17.298  0.1251  0.0203  0.3814
17775TIP3    H174816   5.297   6.259  17.282  2.7631  0.9115 -0.4887
17775TIP3    H274817   5.291   6.366  17.390  0.4329  0.0477  0.3026
17776TIP3   OH274818   6.637   4.896   4.349  0.0121  0.0286  0.6380
17776TIP3    H174819   6.594   4.980   4.367  0.1293  0.6331 -1.5732
17776TIP3    H274820   6.731   4.916   4.359 -0.0199 -0.3891  2.0246
17777TIP3   OH274821   0.954   1.564   5.774 -0.0205  0.0370  0.8478
17777TIP3    H174822   0.901   1.538   5.700  2.1198 -0.9539 -0.4298
17777TIP3    H274823   0.970   1.657   5.761 -3.0837  0.9355  2.4347
17778TIP3   OH274824   4.001   4.399  13.609  0.3109 -1.0048 -0.0273
17778TIP3    H174825   4.064   4.353  13.666  0.0973 -1.1669  0.0797
17778TIP3    H274826   3.921   4.402  13.660 -0.2393 -2.2058 -0.7605
17779TIP3   OH274827   3.396   4.956  12.748  0.0816 -0.2761  0.3681
17779TIP3    H174828   3.382   4.861  12.755 -0.5795 -0.1164  1.5282
17779TIP3    H274829   3.465   4.974  12.811  1.2503 -0.1606 -0.8920
17780TIP3   OH274830   3.315   1.541  11.941  0.0505  0.0477  0.1616
17780TIP3    H174831   3.326   1.634  11.960  1.0219  0.1739 -0.9021
17780TIP3    H274832   3.286   1.538  11.850 -2.8446 -0.6091  1.0228
17781TIP3   OH274833   5.207   3.769  15.438 -0.9984 -0.5957 -0.1637
17781TIP3    H174834   5.161   3.686  15.429  0.3642 -1.6020  1.5307
17781TIP3    H274835   5.202   3.791  15.531  2.0536 -0.9197  0.1878
17782TIP3   OH274836   3.829   1.056   5.298 -0.5066  0.3383 -0.4989
17782TIP3    H174837   3.917   1.087   5.272  0.2947 -0.7295  0.8221
17782TIP3    H274838   3.785   1.135   5.329 -0.5710  1.1644 -2.5035
17783TIP3   OH274839   6.701   3.884  15.103 -0.4423  0.0374 -0.5056
17783TIP3    H174840   6.781   3.900  15.053 -0.6529  2.3059 -0.1933
17783TIP3    H274841   6.731   3.844  15.184  0.2824  0.0131 -0.7777
17784TIP3   OH274842   2.072   0.780  13.480  0.0713  0.1800 -0.3445
17784TIP3    H174843   2.145   0.729  13.445  0.6374  0.3479  0.5603
17784TIP3    H274844   2.110   0.866  13.499 -0.6905  0.7139 -1.1442
17785TIP3   OH274845   2.986   3.253  11.812 -0.1390 -0.6655 -0.2378
17785TIP3    H174846   2.953   3.188  11.874  0.9570 -0.5393  0.5186
17785TIP3    H274847   2.913   3.269  11.752 -1.2330 -0.8202  0.9971
17786TIP3   OH274848   1.359   1.640   4.566 -0.0058  0.2902 -0.7420
17786TIP3    H174849   1.449   1.613   4.549  0.2881  1.4330 -1.0556
17786TIP3    H274850   1.306   1.587   4.506  0.4948 -0.0531 -0.8855
17787TIP3   OH274851   5.073   0.343   5.675  0.3146  0.6568 -0.0926
17787TIP3    H174852   5.031   0.370   5.594 -0.6219 -0.4785 -0.0201
17787TIP3    H274853   5.147   0.403   5.686 -0.2251  1.5431 -1.1763
17788TIP3   OH274854   2.152   1.503  12.972 -0.1073  0.1185  0.6183
17788TIP3    H174855   2.077   1.464  13.016  0.4571 -0.2470  1.2833
17788TIP3    H274856   2.169   1.445  12.897 -0.1823 -0.0776  0.7530
17789TIP3   OH274857   1.138   3.145   3.974 -0.1823  0.6775  0.7407
17789TIP3    H174858   1.050   3.113   3.956 -0.1657  0.6548  0.6988
17789TIP3    H274859   1.143   3.229   3.927  0.2501  0.0741 -0.3121
17790TIP3   OH274860   5.511   1.948   0.344 -0.4603  0.7441  0.0287
17790TIP3    H174861   5.575   2.002   0.297  1.5307  1.0986  2.8549
17790TIP3    H274862   5.427   1.990   0.327  0.6215  2.8532 -0.4763
17791TIP3   OH274863   2.182   3.721  15.793  0.2586  0.1600 -0.3306
17791TIP3    H174864   2.263   3.693  15.835  0.4282  2.4030  0.9866
17791TIP3    H274865   2.176   3.815  15.810 -2.2388  0.2298 -1.0610
17792TIP3   OH274866   6.542   2.125   4.829  0.0309 -0.2260 -0.5267
17792TIP3    H174867   6.600   2.100   4.901 -1.8164  0.7753  1.4317
17792TIP3    H274868   6.576   2.210   4.799  1.0012 -0.8001 -1.1185
17793TIP3   OH274869   4.739   1.258   4.363  0.4902  0.0405  0.0805
17793TIP3    H174870   4.665   1.308   4.329  0.7804 -0.1153 -0.8056
17793TIP3    H274871   4.713   1.234   4.452 -1.5428 -1.9901 -0.9403
17794TIP3   OH274872   2.131   4.573   2.155 -0.1338 -0.1843  0.5145
17794TIP3    H174873   2.134   4.623   2.236 -0.3352 -0.0432  0.4353
17794TIP3    H274874   2.058   4.610   2.106  0.6873  0.5020 -0.2279
17795TIP3   OH274875   4.524   0.193   0.103 -0.4632  0.5322  0.0494
17795TIP3    H174876   4.542   0.255   0.032 -1.1841  0.5935 -0.0786
17795TIP3    H274877   4.445   0.226   0.145 -1.4519 -0.8551 -0.6676
17796TIP3   OH274878   4.897   2.568  15.385  0.4358  0.1852  0.4556
17796TIP3    H174879   4.821   2.618  15.356  1.3758  0.9527 -0.7592
17796TIP3    H274880   4.860   2.489  15.424 -0.9746 -0.4970 -2.0252
17797TIP3   OH274881   5.056   4.725  16.768  0.0750 -0.0319  0.4912
17797TIP3    H174882   5.126   4.729  16.833 -0.6127  1.7414  1.1881
17797TIP3    H274883   5.075   4.647  16.716  2.2822  0.1444  0.9637
17798TIP3   OH274884   6.592   2.559  16.623  0.0113 -0.1506  0.3710
17798TIP3    H174885   6.683   2.578  16.600 -0.2755  0.2249 -0.4890
17798TIP3    H274886   6.541   2.623  16.574 -0.7587 -0.7759  0.3347
17799TIP3   OH274887   4.316   3.886  16.963  0.1570 -0.0260 -0.3954
17799TIP3    H174888   4.270   3.950  16.909 -0.7080  0.7989  1.2244
17799TIP3    H274889   4.409   3.902  16.946 -0.0749  1.0798 -0.6909
17800TIP3   OH274890   6.093   1.735  11.249 -0.2716 -0.2659 -0.2537
17800TIP3    H174891   6.029   1.677  11.290  0.8877  0.1730  2.3930
17800TIP3    H274892   6.071   1.822  11.282 -1.5249  0.8275 -3.5704
17801TIP3   OH274893   1.338   0.486  16.360 -0.0315  0.2918  0.6414
17801TIP3    H174894   1.268   0.531  16.312  0.2854 -0.6724 -0.8109
17801TIP3    H274895   1.419   0.525  16.326  0.2214 -0.8797 -0.1787
17802TIP3   OH274896   3.402   2.681  16.638 -0.3320 -0.1925  0.2723
17802TIP3    H174897   3.421   2.713  16.726  1.1701  2.6835 -0.9445
17802TIP3    H274898   3.324   2.731  16.611 -0.6433 -0.8795 -0.1174
17803TIP3   OH274899   0.013   4.165  14.118  0.1866 -0.4207  0.2446
17803TIP3    H174900   0.056   4.114  14.186  0.7100  0.6694  0.7741
17803TIP3    H274901  -0.023   4.241  14.164 -0.5003 -0.2726 -0.5128
17804TIP3   OH274902   3.675   2.925  13.921 -0.3291 -0.0462  0.4337
17804TIP3    H174903   3.596   2.889  13.880 -1.9294  0.0993  3.1276
17804TIP3    H274904   3.681   2.880  14.006  1.6362  1.0462  0.9390
17805TIP3   OH274905   3.412   2.866  10.862 -0.0089 -0.1569 -0.0739
17805TIP3    H174906   3.441   2.830  10.946  0.8849 -1.5060 -0.9231
17805TIP3    H274907   3.424   2.961  10.871  1.5236 -0.4006  0.8004
17806TIP3   OH274908   2.627   3.494   3.221 -0.4638 -0.4860  0.5151
17806TIP3    H174909   2.603   3.511   3.130  1.3766 -2.8041 -0.5098
17806TIP3    H274910   2.549   3.454   3.259 -0.4736 -1.7637 -0.7745
17807TIP3   OH274911   0.961   5.680   3.194  0.5261  0.3615  0.0026
17807TIP3    H174912   0.994   5.599   3.234 -2.9430 -1.0626  0.3384
17807TIP3    H274913   0.954   5.659   3.101 -0.1998  0.3298  0.0626
17808TIP3   OH274914   0.302   6.587  11.782 -0.2165  0.0514  0.5823
17808TIP3    H174915   0.349   6.530  11.843  0.5734  0.3009  0.2294
17808TIP3    H274916   0.359   6.663  11.773 -1.5552  1.2204  1.5488
17809TIP3   OH274917   5.543   4.822   4.901 -0.5517  0.0282 -0.5553
17809TIP3    H174918   5.626   4.846   4.859 -0.7854 -0.0267 -1.0460
17809TIP3    H274919   5.537   4.727   4.888 -0.3500 -0.0813  0.1002
17810TIP3   OH274920   4.004   3.083   4.090 -0.1405  0.4637 -0.9574
17810TIP3    H174921   3.961   3.153   4.140  0.3958 -1.0257  1.8388
17810TIP3    H274922   4.088   3.119   4.065 -0.3042  1.1993 -0.4745
17811TIP3   OH274923   4.857   0.424  15.964 -0.5018 -0.1873  0.1487
17811TIP3    H174924   4.771   0.395  15.935  0.5376 -1.0383 -2.3265
17811TIP3    H274925   4.919   0.367  15.918  1.4343  1.2779  0.7885
17812TIP3   OH274926   5.211   2.916   6.136  0.2720 -0.5243 -1.1020
17812TIP3    H174927   5.229   3.004   6.104 -1.1811 -0.1860 -1.0761
17812TIP3    H274928   5.119   2.901   6.114 -0.1144 -1.2026  0.7942
17813TIP3   OH274929   2.076   4.682  13.720 -0.2914 -0.4386 -0.4292
17813TIP3    H174930   2.066   4.611  13.785  0.3019  0.2512  0.4329
17813TIP3    H274931   2.138   4.647  13.656  0.5582 -0.4413  0.3792
17814TIP3   OH274932   0.051   0.970   3.067  0.0949  0.8841  0.7499
17814TIP3    H174933  -0.011   0.911   3.025  0.8079  0.4203  0.3174
17814TIP3    H274934   0.039   1.054   3.024 -0.8445  1.0290  1.2828
17815TIP3   OH274935   2.713   1.287   5.642  0.5335 -0.6282  0.3981
17815TIP3    H174936   2.647   1.305   5.708 -0.0478 -3.0099  0.5337
17815TIP3    H274937   2.681   1.331   5.563 -0.5649 -0.6964  0.7928
17816TIP3   OH274938   6.324   3.467  12.322  0.2749 -0.4513 -0.3189
17816TIP3    H174939   6.299   3.555  12.294 -1.3881 -1.2692 -1.5537
17816TIP3    H274940   6.296   3.462  12.413  1.7145  0.7556  0.2268
17817TIP3   OH274941   5.135   2.521   1.990  0.9363  0.3973  0.1867
17817TIP3    H174942   5.217   2.568   2.005  0.6866  0.5807  1.0195
17817TIP3    H274943   5.069   2.590   1.988  0.9859  0.4629 -2.3620
17818TIP3   OH274944   3.282   1.570  16.316  0.5219 -0.1710  0.0338
17818TIP3    H174945   3.191   1.597  16.302  1.2381  2.8444  0.5212
17818TIP3    H274946   3.276   1.502  16.383 -1.4851 -1.5591 -1.4389
17819TIP3   OH274947   4.055   3.904   1.537 -1.1231 -0.2296  0.1515
17819TIP3    H174948   4.087   3.947   1.457  0.6262 -2.1568 -0.2654
17819TIP3    H274949   4.001   3.832   1.505 -1.3375 -0.3468  0.7646
17820TIP3   OH274950   1.517   2.174  16.963  0.3340 -0.1902 -0.2016
17820TIP3    H174951   1.556   2.261  16.964  1.5880 -0.7097 -1.4871
17820TIP3    H274952   1.440   2.182  16.906  0.2439  0.1378 -0.0392
17821TIP3   OH274953   2.962   4.064   3.274 -0.1276  0.7150 -0.6078
17821TIP3    H174954   2.938   4.007   3.347 -0.2117  0.7672 -0.5941
17821TIP3    H274955   2.979   4.005   3.202  1.0180  0.5953 -0.2544
17822TIP3   OH274956   0.883   2.066  15.963 -0.1875 -0.2930 -0.5114
17822TIP3    H174957   0.828   2.094  15.889  0.2560 -0.4414 -0.9067
17822TIP3    H274958   0.896   2.146  16.014 -1.4583 -0.4262  0.0557
17823TIP3   OH274959   1.197   6.239  17.252  0.0244  0.1748 -0.1749
17823TIP3    H174960   1.273   6.297  17.260 -0.4590  1.4260 -3.2021
17823TIP3    H274961   1.218   6.164  17.308  2.6676  1.2798  0.4640
17824TIP3   OH274962   6.259   0.008  14.154 -0.5077 -0.1651  0.6067
17824TIP3    H174963   6.197  -0.064  14.144 -0.5766  0.0478 -0.6197
17824TIP3    H274964   6.285   0.031  14.065  0.1721  0.7630  1.0191
17825TIP3   OH274965   1.205   0.967  12.706  0.1236  0.1496 -0.1493
17825TIP3    H174966   1.280   0.911  12.725 -0.9794 -0.9567  1.2051
17825TIP3    H274967   1.130   0.920  12.743 -0.7800  2.8363  1.8181
17826TIP3   OH274968   4.217   1.048  12.595 -0.0375  0.6790 -0.2748
17826TIP3    H174969   4.268   1.023  12.518 -0.8166  0.3671 -0.7001
17826TIP3    H274970   4.242   0.984  12.662  0.0385  0.4581 -0.5131
17827TIP3   OH274971   0.833   3.964   5.950  0.1303 -0.3941 -0.1798
17827TIP3    H174972   0.778   4.036   5.980 -0.2456  0.3012 -2.3888
17827TIP3    H274973   0.869   3.926   6.031 -1.6020  0.6876  1.1676
17828TIP3   OH274974   4.966   0.921   5.051 -0.0150 -0.1150  0.1832
17828TIP3    H174975   4.957   0.970   5.133  1.5940 -3.2802  2.4550
17828TIP3    H274976   4.923   0.838   5.068  0.1337 -0.7883 -2.3580
17829TIP3   OH274977   6.124   4.191   2.545  0.6207 -0.2047  0.5210
17829TIP3    H174978   6.086   4.200   2.458 -2.1995  0.5975  1.7160
17829TIP3    H274979   6.098   4.103   2.573  0.7350 -0.1245  0.8894
17830TIP3   OH274980   0.913   0.050   5.918  0.4533  0.5629 -0.2053
17830TIP3    H174981   0.883  -0.040   5.916  0.0514  0.7076 -0.7887
17830TIP3    H274982   0.927   0.069   6.011  0.9649 -0.2336 -0.1164
17831TIP3   OH274983   5.870   0.865   2.446 -0.4438  0.6007 -0.2802
17831TIP3    H174984   5.796   0.857   2.385 -0.2470  1.9744 -0.7267
17831TIP3    H274985   5.851   0.801   2.515 -2.5170  1.5199  0.0745
17832TIP3   OH274986   2.539   0.064   2.400 -0.5627  0.4914  0.6649
17832TIP3    H174987   2.461   0.096   2.353  0.0611  0.9253 -0.0946
17832TIP3    H274988   2.613   0.099   2.350  0.1632 -1.5871  0.1836
17833TIP3   OH274989   1.087   0.601   4.116 -0.7733 -0.3511 -0.0445
17833TIP3    H174990   1.113   0.597   4.208  0.2637  1.4939 -0.2162
17833TIP3    H274991   0.995   0.623   4.119 -0.5372  0.6087  0.5598
17834TIP3   OH274992   6.201   6.265  11.390  0.0985  0.1418  0.2407
17834TIP3    H174993   6.259   6.308  11.327  1.9208 -2.3618  0.0409
17834TIP3    H274994   6.235   6.289  11.476 -1.7095  2.6560  0.3540
17835TIP3   OH274995   0.896   5.253  15.750 -0.1899  0.1214  1.1302
17835TIP3    H174996   0.956   5.324  15.774 -0.7833  0.5763  1.2696
17835TIP3    H274997   0.841   5.290  15.680  0.3456 -0.6165  0.2866
17836TIP3   OH274998   3.896   3.628   5.754 -0.1794  0.8303  0.1666
17836TIP3    H174999   3.876   3.547   5.801  1.1853 -1.3376 -2.6295
17836TIP3    H275000   3.979   3.658   5.790  0.6276 -0.5480 -0.4586
17837TIP3   OH275001   0.951   4.442  11.144 -0.1552  0.3751  0.4577
17837TIP3    H175002   1.031   4.391  11.144 -0.7614 -0.6004  0.7875
17837TIP3    H275003   0.892   4.394  11.086 -1.6587 -0.8463  2.8255
17838TIP3   OH275004   4.125   2.361  16.047 -0.6737  0.1792 -0.2905
17838TIP3    H175005   4.046   2.318  16.014 -0.0831 -1.4446  0.2937
17838TIP3    H275006   4.096   2.406  16.126 -1.1855  0.3167 -0.5511
17839TIP3   OH275007   0.258   2.707  16.031  0.2760  0.1345 -0.3059
17839TIP3    H175008   0.205   2.628  16.023 -0.7335  0.6466  0.8639
17839TIP3    H275009   0.205   2.766  16.085  3.3614 -0.5953  4.0835
17840TIP3   OH275010   1.758   1.711  13.181 -0.2242  0.0140 -0.0496
17840TIP3    H175011   1.758   1.616  13.195  1.8556  0.0347  0.3387
17840TIP3    H275012   1.833   1.743  13.231  1.2285  1.4244 -2.8930
17841TIP3   OH275013   1.835   3.172  15.705 -0.3968  0.3624  0.0322
17841TIP3    H175014   1.834   3.226  15.625  1.9090 -0.1266 -0.4001
17841TIP3    H275015   1.835   3.235  15.776  1.0991  0.9803 -0.4558
17842TIP3   OH275016   6.434   4.113   0.130 -0.5579  0.8994  0.2053
17842TIP3    H175017   6.395   4.101   0.216  0.5385 -0.1382  0.5879
17842TIP3    H275018   6.498   4.183   0.142 -0.2655  0.6215  0.2985
17843TIP3   OH275019   3.059   1.422  15.796 -0.5332  0.2576  0.5841
17843TIP3    H175020   3.125   1.400  15.731 -2.0457 -0.3077 -0.8345
17843TIP3    H275021   3.021   1.338  15.822 -1.8621  0.6632  0.0533
17844TIP3   OH275022   5.839   5.112   4.249 -0.2453  0.7048 -0.0135
17844TIP3    H175023   5.928   5.080   4.232 -0.1641  0.5404  0.6802
17844TIP3    H275024   5.788   5.082   4.174 -0.1388 -0.9493  0.5451
17845TIP3   OH275025   3.696   5.305  11.987 -0.2688 -0.4800 -0.3984
17845TIP3    H175026   3.612   5.314  12.032 -0.1292 -1.7018  0.1358
17845TIP3    H275027   3.734   5.393  11.990 -0.8087 -0.2643  0.7872
17846TIP3   OH275028   0.596   0.078  13.407  0.5182  0.2909  0.0804
17846TIP3    H175029   0.607   0.172  13.419  0.7645  0.1892  0.7196
17846TIP3    H275030   0.534   0.052  13.475 -0.2560  0.1303 -0.6689
17847TIP3   OH275031   0.272   3.595   4.908 -0.0064 -0.0286 -0.0881
17847TIP3    H175032   0.342   3.530   4.912 -0.6859 -0.7057  2.0169
17847TIP3    H275033   0.269   3.634   4.995 -1.3856  0.9273 -0.5174
17848TIP3   OH275034   5.261   2.668  15.313  0.0578  0.1267  0.1220
17848TIP3    H175035   5.351   2.700  15.323  0.5605 -0.7918 -1.2161
17848TIP3    H275036   5.207   2.747  15.319  1.0197  0.8132  0.0281
17849TIP3   OH275037   6.014   4.697  15.140  0.3380 -0.3942 -0.9935
17849TIP3    H175038   5.921   4.690  15.116  0.3024  0.4219 -1.1299
17849TIP3    H275039   6.045   4.773  15.091  0.5413  0.6746  0.7387
17850TIP3   OH275040   2.078   5.165   4.505 -0.3300  0.6120 -0.0300
17850TIP3    H175041   2.049   5.251   4.536  1.6471  0.8458  1.3147
17850TIP3    H275042   2.144   5.183   4.439 -1.4879  0.0834 -1.3870
17851TIP3   OH275043   5.977   4.669  16.575 -0.0882 -0.6360  1.1015
17851TIP3    H175044   5.982   4.668  16.671 -1.3449 -0.2322  1.1973
17851TIP3    H275045   5.969   4.576  16.551 -0.3341 -0.7049  1.4361
17852TIP3   OH275046   6.171   1.236   0.522  0.0083  0.8764 -0.1285
17852TIP3    H175047   6.165   1.142   0.505  2.0554  0.6610  0.1253
17852TIP3    H275048   6.206   1.272   0.441  1.3884  1.0836  0.5415
17853TIP3   OH275049   5.684   4.093   4.436  0.2370 -0.5848 -0.0970
17853TIP3    H175050   5.682   4.077   4.341  0.1249 -0.3186 -0.1401
17853TIP3    H275051   5.608   4.149   4.452  1.3982  1.0428 -0.1525
17854TIP3   OH275052   4.847   2.379  12.607 -0.2656  0.3263  0.1455
17854TIP3    H175053   4.843   2.365  12.702  1.2779  1.4815  0.4253
17854TIP3    H275054   4.805   2.464  12.594  0.3963  0.6294 -0.0617
17855TIP3   OH275055   1.128   3.466   1.738 -0.5142 -0.1250 -0.2530
17855TIP3    H175056   1.065   3.448   1.808 -0.1839 -0.7213 -0.1068
17855TIP3    H275057   1.187   3.391   1.739  0.0010  0.2748 -0.6127
17856TIP3   OH275058   4.431   6.117   4.408 -0.0965 -0.2893  0.4099
17856TIP3    H175059   4.338   6.137   4.400  0.1916  1.1547  0.2802
17856TIP3    H275060   4.468   6.140   4.322 -0.0058 -3.4921 -0.5167
17857TIP3   OH275061   5.378   1.207   1.151 -0.1930  0.5341  0.1804
17857TIP3    H175062   5.393   1.300   1.130 -1.9322  0.8770  0.3198
17857TIP3    H275063   5.326   1.174   1.078 -0.7973  0.0549  0.8147
17858TIP3   OH275064   5.495   3.298  11.857  0.2894  0.1370 -0.4260
17858TIP3    H175065   5.444   3.217  11.860  0.7152 -0.1022  0.5710
17858TIP3    H275066   5.567   3.278  11.796 -0.7960  0.4876 -1.8560
17859TIP3   OH275067   3.338   4.304   3.683 -0.3536 -0.0327 -0.2909
17859TIP3    H175068   3.410   4.251   3.719 -1.4023 -0.9772  0.4720
17859TIP3    H275069   3.380   4.360   3.617  1.0832 -0.5329  0.1659
17860TIP3   OH275070   0.834   2.507  11.207  0.0303  0.7528 -0.3548
17860TIP3    H175071   0.756   2.526  11.259  0.1523  1.8687 -0.5507
17860TIP3    H275072   0.864   2.593  11.178  1.3106  0.3383 -0.3072
17861TIP3   OH275073   3.188   6.500   6.192  0.0825  0.2430  0.3306
17861TIP3    H175074   3.238   6.509   6.273  0.3090  0.8642  0.1216
17861TIP3    H275075   3.139   6.418   6.203  1.1806 -0.4059  0.5118
17862TIP3   OH275076   1.337   0.843   0.032  0.3911 -0.1441  0.1563
17862TIP3    H175077   1.332   0.829  -0.063  1.3539 -1.9006  0.3176
17862TIP3    H275078   1.345   0.754   0.069 -0.9573  0.4287  1.9641
17863TIP3   OH275079   2.110   3.369  13.097  0.1501  0.4093  0.2147
17863TIP3    H175080   2.057   3.312  13.153  0.5510  2.3369  2.7020
17863TIP3    H275081   2.106   3.455  13.139  2.2140  1.4835 -1.6022
17864TIP3   OH275082   1.372   2.318  13.343 -0.1109  0.3311 -0.1475
17864TIP3    H175083   1.375   2.316  13.438 -1.2377 -1.6916 -0.1025
17864TIP3    H275084   1.323   2.398  13.323 -1.1899  0.0033  1.0418
17865TIP3   OH275085   0.349   6.265  14.459  0.4534 -0.0045 -0.0576
17865TIP3    H175086   0.358   6.261  14.554 -0.1664 -0.8877 -0.0276
17865TIP3    H275087   0.313   6.352  14.442 -0.6912 -0.3219  0.6330
17866TIP3   OH275088   0.420   5.427   2.734 -0.2089 -0.5765  0.5439
17866TIP3    H175089   0.427   5.496   2.668  2.6112  1.3700  2.6182
17866TIP3    H275090   0.333   5.439   2.772 -0.3588  0.8814 -0.1801
17867TIP3   OH275091   2.976   6.215  14.061 -0.3641 -0.1961 -0.0342
17867TIP3    H175092   2.959   6.309  14.054  1.9519  0.2652 -0.5849
17867TIP3    H275093   3.025   6.194  13.981  0.7694 -1.4462  0.9370
17868TIP3   OH275094   4.893   1.753  13.067 -0.3686  0.3412  0.1259
17868TIP3    H175095   4.945   1.700  13.128 -1.0909 -2.2819 -1.4021
17868TIP3    H275096   4.958   1.808  13.022  0.6679 -0.5039  0.5406
17869TIP3   OH275097   4.168   5.947   0.937 -0.1001 -0.8090  0.3637
17869TIP3    H175098   4.144   6.039   0.928  1.0218 -0.7266 -3.1696
17869TIP3    H275099   4.087   5.904   0.963 -1.2343  0.9013 -0.1696
17870TIP3   OH275100   6.430   4.867  14.869 -0.5649  0.0765  0.0152
17870TIP3    H175101   6.430   4.956  14.834 -0.5082  0.1429  0.1838
17870TIP3    H275102   6.393   4.814  14.799 -0.5430  0.2239 -0.1095
17871TIP3   OH275103   4.939   4.464  13.960 -0.2429  0.1852  0.0922
17871TIP3    H175104   4.886   4.542  13.979 -2.4094 -1.0844 -0.4096
17871TIP3    H275105   5.010   4.496  13.906 -0.0909  2.0853  1.3048
17872TIP3   OH275106   6.788   1.511   0.504 -0.0857  0.5719 -0.1502
17872TIP3    H175107   6.760   1.512   0.413 -1.2813  1.4229  0.2064
17872TIP3    H275108   6.840   1.591   0.514  1.9337 -0.6044 -0.6050
17873TIP3   OH275109   6.034   1.296   1.107  0.1127 -0.0633 -0.6214
17873TIP3    H175110   6.121   1.336   1.109  0.7054 -1.2800 -0.8605
17873TIP3    H275111   6.001   1.314   1.019  0.1898  0.2455 -0.5890
17874TIP3   OH275112   6.753   6.479  13.041  0.4317  0.7348  0.5548
17874TIP3    H175113   6.775   6.475  12.948 -2.2950  0.9302 -0.2040
17874TIP3    H275114   6.762   6.572  13.064  1.2323  0.6667  0.5396
17875TIP3   OH275115   1.883   4.285   5.978  0.4025 -0.1860 -0.7677
17875TIP3    H175116   1.831   4.332   5.913  1.1411 -0.6857 -1.7471
17875TIP3    H275117   1.866   4.331   6.061 -2.3625 -0.9226 -0.8301
17876TIP3   OH275118   3.790   1.572   6.289 -0.4035  0.3506  0.7012
17876TIP3    H175119   3.783   1.619   6.372 -1.4844 -0.1550  0.9156
17876TIP3    H275120   3.701   1.542   6.271 -0.5891  1.9492 -1.5333
17877TIP3   OH275121   0.438   6.453   0.621  0.4795 -0.0735  0.4278
17877TIP3    H175122   0.505   6.521   0.612 -0.7220  1.0660 -0.2475
17877TIP3    H275123   0.487   6.375   0.649  1.9901  0.8703  0.5435
17878TIP3   OH275124   2.521   4.700  13.434  0.1572  0.0506  0.3230
17878TIP3    H175125   2.451   4.689  13.369  0.5311 -1.2628  0.1182
17878TIP3    H275126   2.567   4.616  13.434 -0.0898 -0.1357  2.6086
17879TIP3   OH275127   2.967   0.613   5.241  0.1567  0.0953  0.0916
17879TIP3    H175128   2.899   0.550   5.217  0.2810 -0.5401  1.3332
17879TIP3    H275129   2.948   0.636   5.331  0.4167  1.4736 -0.1841
17880TIP3   OH275130   2.364   5.521  10.813 -0.2299 -0.3441  0.4375
17880TIP3    H175131   2.441   5.495  10.764  0.5928 -0.1757  1.6009
17880TIP3    H275132   2.316   5.579  10.754  1.2079  0.6056  0.1773
17881TIP3   OH275133   3.273   5.566  11.955 -0.3485  0.0164 -0.0380
17881TIP3    H175134   3.365   5.589  11.966 -0.4683  0.8349 -0.6593
17881TIP3    H275135   3.227   5.650  11.957 -0.8334 -0.1508 -2.0796
17882TIP3   OH275136   5.115   3.601  10.670 -0.4492  0.4253  0.1240
17882TIP3    H175137   5.176   3.663  10.708  0.2549 -0.6387  0.7723
17882TIP3    H275138   5.035   3.652  10.654 -0.1070  1.3331  1.2270
17883TIP3   OH275139   4.215   0.600  15.484 -0.1008  0.0762  0.0978
17883TIP3    H175140   4.154   0.666  15.449 -0.6419 -0.0061  0.8646
17883TIP3    H275141   4.297   0.648  15.496 -0.6112  0.7499  1.0730
17884TIP3   OH275142   1.870   3.993  13.096 -0.2974  0.3965 -0.3559
17884TIP3    H175143   1.881   4.054  13.169 -0.3508  0.5983 -0.5156
17884TIP3    H275144   1.785   3.953  13.111  0.9214 -1.8000  1.3586
17885TIP3   OH275145   4.900   4.146   2.290 -0.3172 -0.2377  0.3755
17885TIP3    H175146   4.965   4.120   2.225 -0.8346 -3.2031  0.9341
17885TIP3    H275147   4.820   4.101   2.264 -1.0924  0.1870  1.9139
17886TIP3   OH275148   1.442   5.131  11.997 -0.6337 -0.0554 -0.0909
17886TIP3    H175149   1.479   5.126  11.909 -0.3893  1.1270 -0.0728
17886TIP3    H275150   1.463   5.220  12.026  1.7999 -1.2677  2.2617
17887TIP3   OH275151   1.996   0.292  13.909  0.0379  0.4561  0.3395
17887TIP3    H175152   2.043   0.315  13.828 -0.4008  1.4443  0.3579
17887TIP3    H275153   2.065   0.268  13.970  0.3688 -0.5496 -0.3864
17888TIP3   OH275154   6.115   3.725  12.526  0.1517 -0.2686 -0.3378
17888TIP3    H175155   6.093   3.643  12.569  1.3148 -1.5010 -1.9713
17888TIP3    H275156   6.055   3.790  12.565 -1.2099 -1.9869  0.5479
17889TIP3   OH275157   3.953   5.686  11.452 -0.6219 -0.3963  0.0307
17889TIP3    H175158   3.912   5.622  11.509 -0.5500 -1.5174 -1.1390
17889TIP3    H275159   3.890   5.699  11.381  0.8813 -2.0082 -1.6991
17890TIP3   OH275160   5.099   3.783   3.067 -0.8008 -0.1775 -0.5602
17890TIP3    H175161   5.064   3.715   3.126 -0.3061  0.0477  0.0026
17890TIP3    H275162   5.194   3.774   3.073 -0.5674  2.3801  1.7737
17891TIP3   OH275163   1.761   5.883  15.335 -0.1226 -0.5740 -0.7825
17891TIP3    H175164   1.712   5.802  15.347 -0.5055 -0.2300  0.0172
17891TIP3    H275165   1.714   5.948  15.387  2.0133 -0.5766  1.3223
17892TIP3   OH275166   4.047   6.452   3.613  0.2378  0.1305  0.2329
17892TIP3    H175167   4.016   6.516   3.678 -0.6402  1.3300 -1.3038
17892TIP3    H275168   4.136   6.482   3.592 -0.9624  2.3898 -2.1955
17893TIP3   OH275169   2.549   6.460  11.730 -0.0893  0.3988 -0.0070
17893TIP3    H175170   2.598   6.445  11.811 -0.8671 -0.2394  0.3636
17893TIP3    H275171   2.546   6.375  11.687 -2.0469  0.0536  0.6784
17894TIP3   OH275172   0.682   6.035   4.227  0.1800 -0.3758 -0.8931
17894TIP3    H175173   0.764   6.039   4.276  0.8741 -1.3540 -1.9192
17894TIP3    H275174   0.647   5.948   4.244 -0.8403  0.1542 -0.1925
17895TIP3   OH275175   4.388   5.835   4.626 -0.4934  0.0720  0.4225
17895TIP3    H175176   4.400   5.773   4.554 -0.1683 -1.3445  1.6400
17895TIP3    H275177   4.477   5.850   4.660 -0.5185  1.5263 -0.0820
17896TIP3   OH275178   2.971   5.002   1.217 -0.5424  0.7076 -0.2392
17896TIP3    H175179   2.884   5.041   1.208 -0.1245  1.2406 -2.7700
17896TIP3    H275180   2.981   4.948   1.138  1.4897  0.8075 -0.0927
17897TIP3   OH275181   4.915   4.607  12.464  0.8949 -0.2044  0.1237
17897TIP3    H175182   4.845   4.620  12.400  0.1458 -0.5951  0.8571
17897TIP3    H275183   4.985   4.564  12.414  0.5070 -0.0805 -0.5390
17898TIP3   OH275184   1.920   1.975   0.286 -0.3453 -0.3037  0.4943
17898TIP3    H175185   1.994   1.970   0.226 -0.0887 -0.6459  0.8339
17898TIP3    H275186   1.935   2.053   0.339 -1.0872  0.5817 -0.5460
17899TIP3   OH275187   5.337   2.289   1.695 -0.0390  0.3116 -0.0996
17899TIP3    H175188   5.429   2.264   1.703 -0.3063 -0.4117  0.9370
17899TIP3    H275189   5.302   2.230   1.629  0.1258  0.2890 -0.1691
17900TIP3   OH275190   3.354   5.709   2.357 -0.3220 -0.0665  0.1407
17900TIP3    H175191   3.312   5.638   2.309  0.9184 -1.1248  0.5733
17900TIP3    H275192   3.438   5.722   2.312 -0.3287  0.8121  0.3623
17901TIP3   OH275193   3.003   0.317  14.436 -0.5507 -0.0806  0.1348
17901TIP3    H175194   3.024   0.230  14.403 -0.6612 -0.1540  0.2548
17901TIP3    H275195   2.908   0.314  14.451 -0.1886 -0.8109  2.6654
17902TIP3   OH275196   2.618   4.696   1.325 -0.4819 -0.5694  0.2473
17902TIP3    H175197   2.606   4.601   1.333 -1.0052 -0.4465  0.9229
17902TIP3    H275198   2.699   4.714   1.374  0.3772 -0.8443 -1.0208
17903TIP3   OH275199   3.363   2.561  12.958 -0.3947 -0.1793 -0.0917
17903TIP3    H175200   3.407   2.601  13.033  1.1117 -1.8985  0.0140
17903TIP3    H275201   3.389   2.616  12.884 -0.6570  0.6563  0.4232
17904TIP3   OH275202   1.300   6.787   2.993 -0.2952  0.0675  0.1712
17904TIP3    H175203   1.349   6.802   3.074 -0.1878  0.0597  0.1078
17904TIP3    H275204   1.215   6.752   3.022 -0.2574  0.0667  0.2800
17905TIP3   OH275205   1.588   5.090  14.401  0.4541  0.3624 -0.0957
17905TIP3    H175206   1.572   5.052  14.488 -1.5970 -0.8370 -0.9148
17905TIP3    H275207   1.646   5.027  14.358 -0.0374 -0.0194 -0.2133
17906TIP3   OH275208   5.148   0.360   1.529  0.4265 -0.1707  0.0867
17906TIP3    H175209   5.192   0.276   1.513 -0.8069 -0.7294 -0.5386
17906TIP3    H275210   5.069   0.336   1.578 -0.2959  0.5304 -0.7073
17907TIP3   OH275211   0.895   3.105  12.551 -0.1899 -0.3541 -0.2013
17907TIP3    H175212   0.977   3.119  12.503  0.4166 -0.1122  0.8663
17907TIP3    H275213   0.923   3.078  12.639 -1.2653 -0.6032  0.0780
17908TIP3   OH275214   4.158   4.236  16.198  0.3808  0.3846 -0.3424
17908TIP3    H175215   4.149   4.275  16.111  1.0591  0.4647 -0.3823
17908TIP3    H275216   4.197   4.305  16.251 -0.2980  0.4335  0.1039
17909TIP3   OH275217   1.593   5.988  12.224  0.1692 -0.5240  0.0406
17909TIP3    H175218   1.627   6.074  12.201  0.7860 -0.6643  0.3939
17909TIP3    H275219   1.597   5.985  12.320 -0.4730 -0.6968  0.0675
17910TIP3   OH275220   3.572   4.723   1.993 -0.1617 -0.1918 -0.5283
17910TIP3    H175221   3.494   4.778   1.983  0.2290  1.0461  2.1123
17910TIP3    H275222   3.645   4.784   1.984  0.3228 -0.4640  1.1825
17911TIP3   OH275223   2.331   1.637  13.347  0.1808 -0.0780  0.3459
17911TIP3    H175224   2.385   1.688  13.287  0.3141 -1.1992 -0.5322
17911TIP3    H275225   2.273   1.701  13.387 -1.5245  0.4966 -2.7158
17912TIP3   OH275226   3.502   6.635   6.597 -0.3964 -0.3789  0.0655
17912TIP3    H175227   3.468   6.678   6.676 -0.7901  0.1076 -0.3518
17912TIP3    H275228   3.424   6.596   6.557 -0.4439  0.5229 -0.7678
17913TIP3   OH275229   1.666   0.886  15.424  0.2423  0.1829 -0.5154
17913TIP3    H175230   1.745   0.907  15.475 -0.8049 -1.4965  2.0210
17913TIP3    H275231   1.599   0.947  15.457 -0.1385 -0.0250 -0.8878
17914TIP3   OH275232   6.029   1.611   1.037 -0.3021  0.2098 -0.2443
17914TIP3    H175233   5.992   1.644   1.119  2.5285  3.1427  0.0368
17914TIP3    H275234   6.002   1.673   0.970  2.9887  1.9526 -0.1752
17915TIP3   OH275235   2.060   3.393  16.797  0.0760  0.4998  0.0140
17915TIP3    H175236   1.988   3.456  16.790 -0.3263  0.0557  0.1259
17915TIP3    H275237   2.119   3.432  16.863 -0.5387  0.4050  0.6290
17916TIP3   OH275238   1.951   0.146   5.912  0.5493 -0.2142  0.0984
17916TIP3    H175239   2.001   0.149   5.993 -0.5033 -1.7371  0.8651
17916TIP3    H275240   1.956   0.054   5.884 -0.0090  0.0578 -0.9754
17917TIP3   OH275241   5.284   5.220  17.175 -0.2336  0.2094  0.2457
17917TIP3    H175242   5.331   5.156  17.228  0.0330 -0.9677 -1.3535
17917TIP3    H275243   5.192   5.194  17.184 -0.1678 -0.1313 -0.0459
17918TIP3   OH275244   6.282   4.301  16.990 -0.2130  0.0643  0.5012
17918TIP3    H175245   6.195   4.289  16.952 -0.3721  1.1179  0.4912
17918TIP3    H275246   6.265   4.329  17.080 -0.0078  2.8502 -0.2236
17919TIP3   OH275247   6.515   0.676   3.658 -0.4112 -0.1401  0.1456
17919TIP3    H175248   6.522   0.585   3.631 -1.6959 -1.0409  2.5337
17919TIP3    H275249   6.566   0.680   3.740  0.1434  1.4568 -0.2418
17920TIP3   OH275250   0.146   6.702   0.710  0.4134 -0.3013  0.4024
17920TIP3    H175251   0.069   6.738   0.755 -0.4671 -0.7068 -0.7412
17920TIP3    H275252   0.119   6.693   0.619  1.3543 -1.7841  0.2404
17921TIP3   OH275253   3.133   3.347  16.805  0.0294 -0.3427  0.4428
17921TIP3    H175254   3.218   3.304  16.816  0.1891 -0.1359  0.0472
17921TIP3    H275255   3.090   3.297  16.735  0.4726  0.5114 -0.4615
17922TIP3   OH275256   1.618   0.604  15.478 -0.2252 -0.0007 -0.3143
17922TIP3    H175257   1.603   0.590  15.571  1.5091 -0.0374 -0.0080
17922TIP3    H275258   1.619   0.699  15.468  3.7364  0.2024  0.5489
17923TIP3   OH275259   0.465   6.425  13.233 -0.2558  0.2967 -0.6769
17923TIP3    H175260   0.542   6.467  13.271 -0.3958  0.8330 -0.9736
17923TIP3    H275261   0.496   6.386  13.152 -0.6142  1.8961 -1.6226
17924TIP3   OH275262   1.718   0.709  17.405 -0.0263 -0.1310 -0.5412
17924TIP3    H175263   1.664   0.778  17.443  0.9669  0.4785 -0.1865
17924TIP3    H275264   1.808   0.742  17.414  0.6022 -2.0299  0.8817
17925TIP3   OH275265   5.432   0.272   4.708 -0.7023  0.3570  0.0494
17925TIP3    H175266   5.421   0.366   4.720  1.4227  0.6173  0.4611
17925TIP3    H275267   5.481   0.264   4.626  0.3012 -0.2798  0.6834
17926TIP3   OH275268   4.574   6.285   4.203  0.1741  0.4348 -0.4026
17926TIP3    H175269   4.567   6.369   4.158 -0.1818  2.0974  2.5004
17926TIP3    H275270   4.667   6.276   4.225  0.2655 -0.1045 -0.9932
17927TIP3   OH275271   3.104   3.946  14.594 -0.2984  0.0898  0.2612
17927TIP3    H175272   3.152   3.931  14.676 -0.5779  2.2778  0.9034
17927TIP3    H275273   3.111   4.040  14.580  1.1694 -0.3884 -3.1740
17928TIP3   OH275274   5.785   2.446  13.752 -0.3859 -0.2244 -0.0400
17928TIP3    H175275   5.770   2.448  13.657 -0.1268 -0.5433 -0.0865
17928TIP3    H275276   5.871   2.407  13.762 -0.4794 -0.3334  0.3378
17929TIP3   OH275277   6.359   5.046  14.523 -0.2761 -0.3451  0.9522
17929TIP3    H175278   6.403   5.084  14.599 -0.5401 -0.7198  1.3009
17929TIP3    H275279   6.278   5.097  14.513  0.9730  1.4506 -0.7127
17930TIP3   OH275280   2.409   0.087  12.167 -0.2121 -0.2991  0.1977
17930TIP3    H175281   2.321   0.109  12.198 -0.7135 -0.6062 -0.9527
17930TIP3    H275282   2.396   0.057  12.077  0.8720 -1.9095  0.5346
17931TIP3   OH275283   5.132   2.232  11.934 -0.0749 -0.7245  0.1115
17931TIP3    H175284   5.139   2.326  11.918  0.2875 -0.6168  0.8340
17931TIP3    H275285   5.096   2.226  12.022 -1.2279 -1.2825 -0.3784
17932TIP3   OH275286   4.311   2.872  17.192  0.6178  0.1446  0.3673
17932TIP3    H175287   4.271   2.802  17.244  0.2768  0.4523  0.5210
17932TIP3    H275288   4.357   2.926  17.256  1.4773 -0.3264  0.1694
17933TIP3   OH275289   1.276   3.430   5.486 -0.4243 -0.0384 -0.3113
17933TIP3    H175290   1.275   3.395   5.575  0.2934  0.6513 -0.0172
17933TIP3    H275291   1.187   3.418   5.455 -0.2927 -1.8492 -0.1324
17934TIP3   OH275292   2.978   1.163   0.219 -0.2846 -0.4565  0.1066
17934TIP3    H175293   3.004   1.203   0.302  0.8541  0.6440 -0.7443
17934TIP3    H275294   3.031   1.207   0.153 -2.0247 -0.4333 -1.3722
17935TIP3   OH275295   5.795   3.548   3.335  0.0545 -0.6847 -0.1264
17935TIP3    H175296   5.820   3.460   3.310  0.6218 -1.4082  2.6011
17935TIP3    H275297   5.842   3.605   3.274 -0.9171 -2.2305 -2.4066
17936TIP3   OH275298   0.632   5.687  15.925  0.7502 -0.2978  0.1383
17936TIP3    H175299   0.723   5.671  15.949  0.7465 -0.3340  0.1286
17936TIP3    H275300   0.630   5.779  15.898  0.2971  0.3804  2.3419
17937TIP3   OH275301   5.535   5.029  13.424  0.1024 -0.3051 -0.4253
17937TIP3    H175302   5.507   4.940  13.403 -0.7097 -0.2062  0.1819
17937TIP3    H275303   5.479   5.055  13.497  1.3332  0.1649  0.3852
17938TIP3   OH275304   2.152   5.448   1.462  0.2405  0.5960 -0.3421
17938TIP3    H175305   2.215   5.513   1.433  0.1341  0.0017 -2.0421
17938TIP3    H275306   2.110   5.417   1.381 -0.3965 -0.8672  0.4943
17939TIP3   OH275307   5.093   6.251  15.106 -0.1622 -0.3746 -0.1929
17939TIP3    H175308   5.056   6.248  15.194 -0.8701 -1.1536 -0.4964
17939TIP3    H275309   5.016   6.249  15.048  0.2304  1.1326 -0.8404
17940TIP3   OH275310   3.716   5.294   3.856 -0.1294  0.1206 -0.2645
17940TIP3    H175311   3.749   5.240   3.927  0.7564  0.6505 -0.2656
17940TIP3    H275312   3.622   5.300   3.872 -0.1456 -0.9013  0.0763
17941TIP3   OH275313   1.848   1.384  11.107  0.4141 -0.3461 -0.1527
17941TIP3    H175314   1.854   1.339  11.023 -1.7176  0.4030 -0.7855
17941TIP3    H275315   1.835   1.476  11.084 -0.5312 -0.1780  0.9479
17942TIP3   OH275316   2.594   0.672   5.571 -0.0470 -0.5310  0.0479
17942TIP3    H175317   2.529   0.694   5.638  1.5978 -2.1442  2.3577
17942TIP3    H275318   2.613   0.579   5.586  1.6300 -0.5117 -1.5583
17943TIP3   OH275319   3.907   3.792  13.113  0.4710  0.1618  0.7574
17943TIP3    H175320   3.880   3.816  13.201  1.6749  0.5716  1.0356
17943TIP3    H275321   3.863   3.856  13.056  1.5041  1.3688  1.2680
17944TIP3   OH275322   5.727   3.189  15.550 -0.0653  0.3083  0.4851
17944TIP3    H175323   5.788   3.259  15.576 -1.2978  1.4533  0.4277
17944TIP3    H275324   5.748   3.172  15.459 -0.5176  1.4837  0.1370
17945TIP3   OH275325   3.321   0.331   4.549 -0.1124 -0.8743 -0.2905
17945TIP3    H175326   3.240   0.289   4.577  0.9682 -1.7581  1.7408
17945TIP3    H275327   3.355   0.373   4.628  1.0318  0.1458 -1.2769
17946TIP3   OH275328   2.235   1.642  14.882 -0.1205 -0.6053 -0.1650
17946TIP3    H175329   2.243   1.665  14.975  0.2601  0.3678 -0.4259
17946TIP3    H275330   2.242   1.726  14.836  0.5515 -1.1658 -1.1184
17947TIP3   OH275331   1.145   6.028   1.870 -0.4194 -0.7918 -0.1818
17947TIP3    H175332   1.201   5.979   1.809  0.2044 -0.6410  0.2542
17947TIP3    H275333   1.063   6.041   1.822 -0.4909 -1.9884 -0.4294
17948TIP3   OH275334   0.720   3.318  12.233 -0.0236 -0.1327 -0.0772
17948TIP3    H175335   0.641   3.367  12.213 -0.5470 -0.7839  0.3525
17948TIP3    H275336   0.701   3.229  12.205  0.3741 -0.4002  0.4773
17949TIP3   OH275337   1.603   0.072   3.001  0.0844 -0.5981  0.2703
17949TIP3    H175338   1.551   0.099   3.076 -1.8704  0.9753 -1.5229
17949TIP3    H275339   1.665   0.143   2.988  0.1114 -0.6476  0.1230
17950TIP3   OH275340   1.569   4.225  11.407 -0.0451 -0.3573 -0.4960
17950TIP3    H175341   1.497   4.168  11.435  0.2585 -1.1504 -1.2869
17950TIP3    H275342   1.560   4.303  11.461  0.5197 -1.8100  1.8297
17951TIP3   OH275343   1.913   4.684   1.719 -0.1091  0.1579  0.1212
17951TIP3    H175344   1.915   4.597   1.679 -0.0784 -0.6656  1.8607
17951TIP3    H275345   1.825   4.717   1.700 -1.0955 -1.3977  1.7250
17952TIP3   OH275346   4.208   4.501  10.500 -0.3036 -0.0212 -0.1565
17952TIP3    H175347   4.150   4.425  10.510  0.1647 -0.2454  0.9525
17952TIP3    H275348   4.157   4.574  10.534  0.0522 -0.2167  0.8096
17953TIP3   OH275349   5.262   1.270  10.940 -0.0331  0.4656 -0.1965
17953TIP3    H175350   5.354   1.248  10.954 -0.1034  1.0164  1.2926
17953TIP3    H275351   5.254   1.282  10.845  1.2050 -0.5213 -0.4470
17954TIP3   OH275352   4.590   6.343  17.012  0.6232 -0.0130  0.1766
17954TIP3    H175353   4.538   6.337  16.932 -0.5748 -0.6614  0.9841
17954TIP3    H275354   4.645   6.421  16.999  0.4857 -0.1239 -1.2773
17955TIP3   OH275355   0.479   6.557  14.663  0.2678 -0.0715  0.3275
17955TIP3    H175356   0.450   6.584  14.750  1.5983 -1.4146  1.2464
17955TIP3    H275357   0.566   6.595  14.654  0.0122  0.3168 -0.5581
17956TIP3   OH275358   6.578   6.544   1.438  0.4752 -0.2070  0.2204
17956TIP3    H175359   6.639   6.520   1.508 -0.0207 -1.9072  0.1135
17956TIP3    H275360   6.587   6.639   1.429  2.7153 -0.3404  0.5605
17957TIP3   OH275361   6.425   2.653   1.449 -0.4025  0.1397 -0.3906
17957TIP3    H175362   6.517   2.654   1.475 -0.5510  0.9810  0.1291
17957TIP3    H275363   6.378   2.696   1.521 -1.2670 -0.6986 -0.4298
17958TIP3   OH275364   5.655   0.252   5.903  0.1748  0.0089 -0.0733
17958TIP3    H175365   5.606   0.204   5.970  1.4151 -0.3022  0.6455
17958TIP3    H275366   5.588   0.283   5.842 -0.9864  0.2673  1.2795
17959TIP3   OH275367   4.712   6.437  15.856  0.0331  0.2046  0.1553
17959TIP3    H175368   4.731   6.415  15.948  0.3720  0.4290  0.1391
17959TIP3    H275369   4.797   6.432  15.812 -0.3608 -1.6428 -0.5204
17960TIP3   OH275370   0.665   2.995   3.219  0.1432  0.3892  0.3430
17960TIP3    H175371   0.717   3.007   3.139 -0.9880  1.5848 -0.2482
17960TIP3    H275372   0.730   2.984   3.288  1.1460 -0.7641 -0.7418
17961TIP3   OH275373   2.809   1.080  14.047  0.5214  0.3702 -0.3024
17961TIP3    H175374   2.757   1.013  14.003 -0.8774  1.5065 -0.4509
17961TIP3    H275375   2.813   1.053  14.138  0.0496  0.0336 -0.3792
17962TIP3   OH275376   4.586   0.133   3.237 -0.5430  0.4463  0.0344
17962TIP3    H175377   4.571   0.089   3.321  1.3389 -0.3089  0.0163
17962TIP3    H275378   4.601   0.061   3.175  1.2601  1.0260 -0.2644
17963TIP3   OH275379   0.741   1.681   2.208 -0.3470  0.1352 -0.3670
17963TIP3    H175380   0.668   1.643   2.256  0.8002 -2.1009 -0.2359
17963TIP3    H275381   0.800   1.714   2.277  0.3015 -1.1320 -0.2887
17964TIP3   OH275382   3.639   6.036  11.812  0.0827  0.0017  0.4637
17964TIP3    H175383   3.579   6.035  11.737  0.2120 -2.6040  0.3113
17964TIP3    H275384   3.705   6.101  11.789  0.2627 -0.8865 -1.8460
17965TIP3   OH275385   0.471   4.558   5.166  0.0990  0.0282 -0.1704
17965TIP3    H175386   0.418   4.608   5.104 -0.3236 -0.8647 -0.5378
17965TIP3    H275387   0.443   4.467   5.155  0.0179 -0.1601  1.3232
17966TIP3   OH275388   0.702   0.276   1.139  0.2640 -0.0345  0.1754
17966TIP3    H175389   0.677   0.349   1.196 -0.7740  0.0816 -0.4068
17966TIP3    H275390   0.712   0.317   1.052 -1.1281 -0.7098 -0.3224
17967TIP3   OH275391   1.115   0.149   1.246 -0.4815  0.0788  0.0102
17967TIP3    H175392   1.134   0.241   1.232 -0.8036  0.2443  0.6237
17967TIP3    H275393   1.044   0.129   1.185 -0.2145  0.1571 -0.3292
17968TIP3   OH275394   4.562   6.258  11.050  0.5139 -0.1452  0.1582
17968TIP3    H175395   4.551   6.348  11.019  2.3394  0.1044  0.1826
17968TIP3    H275396   4.621   6.264  11.124  2.8698 -1.5833 -1.4587
17969TIP3   OH275397   3.831   6.760  16.527 -0.0517 -0.3382 -0.0585
17969TIP3    H175398   3.880   6.682  16.500 -1.4620 -2.3471  2.6297
17969TIP3    H275399   3.897   6.829  16.533  1.6384 -1.8064 -0.6879
17970TIP3   OH275400   5.051   4.800   3.286  0.0567 -0.1525 -0.4338
17970TIP3    H175401   5.143   4.826   3.292  1.3308 -4.1627  0.5041
17970TIP3    H275402   5.042   4.764   3.198 -0.1228 -1.2091  0.0002
17971TIP3   OH275403   1.685   6.676   4.892  0.7749  0.3371 -0.1265
17971TIP3    H175404   1.595   6.707   4.887  0.9287  0.6581 -0.9950
17971TIP3    H275405   1.730   6.721   4.821  0.9680 -2.0167 -1.6126
17972TIP3   OH275406   5.982   3.943   4.014  0.4157 -0.5543  0.3190
17972TIP3    H175407   5.898   3.897   4.018 -0.0544 -0.1207 -2.5344
17972TIP3    H275408   5.963   4.031   4.044 -0.6169  0.0142 -1.8025
17973TIP3   OH275409   5.899   4.479   5.068 -0.1490 -0.3471  0.0852
17973TIP3    H175410   5.991   4.454   5.054 -0.2871 -0.5632 -0.4601
17973TIP3    H275411   5.875   4.526   4.988 -1.2687 -2.5125 -0.9353
17974TIP3   OH275412   5.587   4.360  16.596 -0.1755  0.5048  0.1696
17974TIP3    H175413   5.611   4.268  16.606  1.3583  0.9749  1.1891
17974TIP3    H275414   5.500   4.366  16.637 -0.3354 -0.4848  0.0152
17975TIP3   OH275415   0.774   1.663  16.559 -0.4031 -0.3821  0.0050
17975TIP3    H175416   0.820   1.582  16.583 -0.2299 -1.0283 -2.2792
17975TIP3    H275417   0.785   1.719  16.635  2.3358 -1.3135  0.4248
17976TIP3   OH275418   1.510   1.203  14.203 -0.1204 -0.1942 -0.3301
17976TIP3    H175419   1.506   1.295  14.179 -0.6827 -0.4983 -1.5091
17976TIP3    H275420   1.561   1.162  14.133 -0.0509 -0.8090  0.0675
17977TIP3   OH275421   3.625   0.673   2.427 -0.4058  0.1704  0.3722
17977TIP3    H175422   3.685   0.613   2.471 -1.5865 -0.9890  0.4563
17977TIP3    H275423   3.559   0.616   2.386  0.1048  1.2218 -2.1325
17978TIP3   OH275424   3.125   6.616  11.465 -0.0443 -0.1270 -0.2073
17978TIP3    H175425   3.187   6.552  11.499  0.0316  0.0004 -0.1059
17978TIP3    H275426   3.080   6.570  11.394  1.6671  0.4528 -1.7467
17979TIP3   OH275427   2.847   6.137   5.373 -0.4957  0.2812  0.2758
17979TIP3    H175428   2.806   6.068   5.425 -0.1105  0.1046  0.3472
17979TIP3    H275429   2.939   6.136   5.399 -0.1838 -0.1647 -0.7766
17980TIP3   OH275430   2.093   2.031  13.440 -0.1972 -0.3169  0.0694
17980TIP3    H175431   2.182   2.026  13.405 -0.0517  0.3536  0.3139
17980TIP3    H275432   2.046   2.085  13.377  0.3737  1.9299  1.4287
17981TIP3   OH275433   2.424   1.506  12.937  0.1349  0.4809  0.1125
17981TIP3    H175434   2.381   1.510  13.022 -0.5444  1.8931 -0.2789
17981TIP3    H275435   2.357   1.530  12.874  0.4361 -1.2047 -0.9362
17982TIP3   OH275436   5.742   3.238  13.876 -0.2741  0.0086  0.0990
17982TIP3    H175437   5.715   3.239  13.784  0.3029  0.5903 -0.0699
17982TIP3    H275438   5.676   3.185  13.920  0.0539 -1.2367 -0.8413
17983TIP3   OH275439   2.156   5.152  12.074 -0.1989 -0.1892 -0.0934
17983TIP3    H175440   2.078   5.121  12.121  0.1230 -1.0260 -0.1018
17983TIP3    H275441   2.152   5.247  12.084  0.7747 -0.3464  3.2045
17984TIP3   OH275442   0.080   4.016  15.884  0.2720  0.5966  0.1884
17984TIP3    H175443   0.070   4.065  15.802  0.0350  0.8410  0.3618
17984TIP3    H275444  -0.009   4.012  15.920  0.1483 -0.6877 -0.2368
17985TIP3   OH275445   6.374   4.609   2.062 -0.1146 -0.2151 -0.2262
17985TIP3    H175446   6.380   4.704   2.065 -0.2388 -0.2259  0.3111
17985TIP3    H275447   6.400   4.579   2.149  0.4923 -0.7028 -0.5675
17986TIP3   OH275448   6.164   0.479  13.378 -0.0538  1.0580 -0.0149
17986TIP3    H175449   6.155   0.547  13.312  0.6696  0.8987 -0.2909
17986TIP3    H275450   6.075   0.450  13.395 -0.1613 -0.4603 -2.5905
17987TIP3   OH275451   5.756   4.670  13.229  0.4766  0.1895  0.0714
17987TIP3    H175452   5.750   4.688  13.135  1.3243  3.6567  0.5416
17987TIP3    H275453   5.838   4.622  13.239 -0.2325 -1.3496 -1.0181
17988TIP3   OH275454   2.585   3.709  14.306  0.1420  0.9343 -0.2138
17988TIP3    H175455   2.512   3.649  14.322  0.4161  0.1911 -1.6102
17988TIP3    H275456   2.606   3.745  14.393 -1.4715  0.7122  0.3061
17989TIP3   OH275457   5.434   0.147  13.531  0.0828  0.4938 -0.4528
17989TIP3    H175458   5.384   0.066  13.540  3.8802 -1.9252  1.7424
17989TIP3    H275459   5.460   0.169  13.620  1.5517  2.5026 -1.2967
17990TIP3   OH275460   3.760   2.599   4.858  0.4795 -0.0302 -0.5497
17990TIP3    H175461   3.794   2.512   4.838  1.6542  0.1496  0.4869
17990TIP3    H275462   3.726   2.591   4.947 -0.8724  0.1847 -1.0268
17991TIP3   OH275463   4.474   3.895  14.012 -0.2167 -0.0566 -0.7024
17991TIP3    H175464   4.405   3.828  14.015  1.9239 -2.3619  1.2998
17991TIP3    H275465   4.439   3.967  14.065 -0.1476 -2.3421  2.7916
17992TIP3   OH275466   4.505   3.850   3.760 -0.4521  0.2862  0.3718
17992TIP3    H175467   4.550   3.933   3.739 -0.0539  0.1291  0.5838
17992TIP3    H275468   4.561   3.810   3.827 -1.9549  1.0222  2.1427
17993TIP3   OH275469   5.403   0.922  13.498 -0.2954  0.0465  0.0851
17993TIP3    H175470   5.430   1.007  13.465 -0.4337  0.2304  0.4402
17993TIP3    H275471   5.382   0.937  13.590  0.6206 -0.5637  0.4111
17994TIP3   OH275472   5.208   3.355  16.846  0.1007  0.2226 -0.1075
17994TIP3    H175473   5.134   3.307  16.884 -1.3812  1.1572 -1.6995
17994TIP3    H275474   5.277   3.290  16.839 -0.8093 -0.8828  0.7263
17995TIP3   OH275475   0.641   0.703  14.996  0.0448 -0.5397  0.0265
17995TIP3    H175476   0.689   0.730  15.074 -1.5700  3.2783 -0.0822
17995TIP3    H275477   0.564   0.656  15.031  0.5069 -0.9042  0.5735
17996TIP3   OH275478   3.741   0.237   2.110  0.8419  0.0410 -0.3856
17996TIP3    H175479   3.746   0.322   2.155  0.4426  0.1396 -0.5247
17996TIP3    H275480   3.722   0.174   2.179  0.1135  0.2086 -0.4269
17997TIP3   OH275481   3.009   6.395  15.821  0.5907 -0.2058 -0.2635
17997TIP3    H175482   2.968   6.313  15.850 -1.8264  1.0786  0.2526
17997TIP3    H275483   3.052   6.373  15.739 -0.0482 -1.9912 -0.1640
17998TIP3   OH275484   1.408   2.444   6.411  0.2087  0.1493  0.2854
17998TIP3    H175485   1.380   2.524   6.455 -0.4677 -0.9327  1.9482
17998TIP3    H275486   1.504   2.449   6.409  0.1398  2.0009 -1.7204
17999TIP3   OH275487   5.735   3.008   3.766 -0.5896  0.5094  0.2084
17999TIP3    H175488   5.700   3.078   3.821 -1.1383  0.5175 -0.1453
17999TIP3    H275489   5.681   2.932   3.787 -0.2967  0.3077  0.2459
18000TIP3   OH275490   3.792   4.419   2.373  0.5675  0.7003  0.0680
18000TIP3    H175491   3.852   4.491   2.355 -0.5072  1.4113 -0.8688
18000TIP3    H275492   3.775   4.424   2.467  0.5510  1.6522  0.0296
18001TIP3   OH275493   3.935   0.212   3.094  0.1579  0.5048 -0.3890
18001TIP3    H175494   3.854   0.198   3.143 -1.7445 -0.0056 -3.3624
18001TIP3    H275495   3.914   0.285   3.035  0.9147 -1.1589 -2.9105
18002TIP3   OH275496   0.080   2.766   6.402  0.2771 -1.0388 -0.6145
18002TIP3    H175497   0.165   2.798   6.432 -0.7565 -0.7980  2.3434
18002TIP3    H275498   0.085   2.671   6.412 -0.5303 -0.8845  1.9838
18003TIP3   OH275499   3.816   3.348  11.433  0.0025  0.2584 -0.0769
18003TIP3    H175500   3.746   3.342  11.498 -1.0298  0.0611 -1.1651
18003TIP3    H275501   3.868   3.423  11.461 -0.7976  0.5724  0.6175
18004TIP3   OH275502   0.169   5.312   4.344 -0.2888  0.0012  0.6107
18004TIP3    H175503   0.098   5.357   4.390  0.7276  1.1114  1.1510
18004TIP3    H275504   0.162   5.344   4.254 -0.7426 -0.2454  0.5530
18005TIP3   OH275505   6.334   4.359  13.360  0.4134 -0.4065 -0.0462
18005TIP3    H175506   6.303   4.300  13.429 -0.4798 -1.2896 -1.1573
18005TIP3    H275507   6.377   4.301  13.297 -0.7961  0.0607 -1.3373
18006TIP3   OH275508   2.817   6.725  15.207  0.1250  0.4862 -0.7188
18006TIP3    H175509   2.887   6.741  15.270 -0.7827  2.9528 -0.2264
18006TIP3    H275510   2.819   6.800  15.148 -0.5529 -0.6089 -2.2373
18007TIP3   OH275511   0.137   3.934  13.683  0.1714 -0.0127 -0.0521
18007TIP3    H175512   0.221   3.889  13.672  0.3814  0.6434 -1.2640
18007TIP3    H275513   0.158   4.012  13.734  0.0189 -0.6060  0.9543
18008TIP3   OH275514   1.141   5.119  14.893 -0.0085  0.2583 -0.6668
18008TIP3    H175515   1.187   5.110  14.810  1.1949  0.2106 -0.0142
18008TIP3    H275516   1.192   5.067  14.955  0.7217  2.5011  0.7204
18009TIP3   OH275517   3.663   6.640  14.889 -0.2762  0.0239  0.2202
18009TIP3    H175518   3.689   6.573  14.826 -0.3985  0.4562 -0.2926
18009TIP3    H275519   3.743   6.688  14.908 -0.2271 -0.1420  0.4478
18010TIP3   OH275520   1.431   5.786   2.223  0.5899 -0.5907 -0.2327
18010TIP3    H175521   1.494   5.743   2.165 -1.2983 -1.6128 -1.6582
18010TIP3    H275522   1.362   5.816   2.165 -1.3086 -1.4791  1.4243
18011TIP3   OH275523   3.789   1.174  14.007 -0.2819 -0.2470 -0.5983
18011TIP3    H175524   3.844   1.180  13.929  1.3855 -0.0062  0.5301
18011TIP3    H275525   3.845   1.130  14.072 -1.8563 -1.0672  0.2593
18012TIP3   OH275526   3.083   6.020  17.389 -0.5612 -0.6822 -0.3195
18012TIP3    H175527   3.074   6.107  17.428 -0.6315 -1.1360  0.6987
18012TIP3    H275528   3.015   5.968  17.430  0.6198 -1.6882  0.4285
18013TIP3   OH275529   6.330   4.740   4.513  0.3279 -0.8398 -0.6960
18013TIP3    H175530   6.389   4.816   4.506  0.7531 -1.1030 -0.0994
18013TIP3    H275531   6.314   4.715   4.422 -1.0094  0.8527 -0.9803
18014TIP3   OH275532   5.981   0.766   4.102 -0.0771  0.4824 -0.5486
18014TIP3    H175533   5.892   0.802   4.105 -1.5804 -2.9005 -0.4132
18014TIP3    H275534   5.994   0.729   4.189  1.0942  0.1118 -0.8689
18015TIP3   OH275535   1.665   3.914  12.503 -0.2763  0.7115  0.3058
18015TIP3    H175536   1.731   3.915  12.573  0.2611  1.1518 -0.2029
18015TIP3    H275537   1.636   3.823  12.499 -0.3380  0.6868  1.1240
18016TIP3   OH275538   3.478   0.320   0.068  0.0195  0.1602  0.7352
18016TIP3    H175539   3.444   0.238   0.101  0.1522 -0.0938  0.2617
18016TIP3    H275540   3.571   0.318   0.090  0.1531 -0.1063  0.1820
18017TIP3   OH275541   2.535   4.744  16.364  0.0541 -0.3373 -0.0073
18017TIP3    H175542   2.568   4.829  16.393  0.1290 -0.6488  0.8623
18017TIP3    H275543   2.614   4.689  16.360 -0.1395 -0.6711  0.5817
18018TIP3   OH275544   5.894   6.564   0.181  0.3309 -0.2807  0.2718
18018TIP3    H175545   5.930   6.485   0.221 -1.7811 -0.6805  1.5548
18018TIP3    H275546   5.964   6.628   0.185  1.2170 -1.3014  1.7006
18019TIP3   OH275547   4.961   3.502  12.362  0.1957 -0.7708  0.2532
18019TIP3    H175548   5.008   3.583  12.382  1.4823 -1.6240  0.7873
18019TIP3    H275549   4.873   3.531  12.338  0.3839  0.7375  1.2254
18020TIP3   OH275550   4.154   3.732  12.129 -0.0338  0.0742 -0.3208
18020TIP3    H175551   4.198   3.711  12.212  0.4655  0.9671 -0.3408
18020TIP3    H275552   4.127   3.824  12.140 -0.2156  0.1102 -1.0432
18021TIP3   OH275553   0.537   2.513  17.099 -0.6380  0.4733  0.1291
18021TIP3    H175554   0.503   2.568  17.028 -0.5628 -0.0245 -0.2989
18021TIP3    H275555   0.631   2.531  17.101 -0.5795  0.2212 -0.1475
18022TIP3   OH275556   1.240   5.171  12.543 -0.6091  0.3062  0.3803
18022TIP3    H175557   1.204   5.229  12.476 -1.4499 -0.8697 -0.2342
18022TIP3    H275558   1.163   5.128  12.581 -0.1590  0.9516  2.1378
18023TIP3   OH275559   0.252   0.716   1.278  0.2046 -0.0244 -0.0868
18023TIP3    H175560   0.264   0.630   1.239 -1.2304 -0.8711  1.2605
18023TIP3    H275561   0.315   0.719   1.350  0.0170 -0.0881  0.0810
18024TIP3   OH275562   0.573   2.015  15.374 -0.4792 -0.1727  0.2537
18024TIP3    H175563   0.504   1.956  15.345  0.0284  0.0189 -1.4534
18024TIP3    H275564   0.531   2.069  15.441 -1.3400 -1.5084  0.8455
18025TIP3   OH275565   6.049   1.593   4.230  0.5870 -0.5780  0.5964
18025TIP3    H175566   6.099   1.512   4.217  1.2921 -0.0211 -0.3218
18025TIP3    H275567   6.018   1.615   4.142  2.9461  1.7341  0.2208
18026TIP3   OH275568   0.173   1.515  12.049  0.1351 -0.2790  0.0459
18026TIP3    H175569   0.251   1.570  12.058  0.6118 -1.0827  0.9866
18026TIP3    H275570   0.113   1.549  12.116  0.3957 -0.8252  0.5671
18027TIP3   OH275571   6.370   6.541  17.184  0.0868 -0.3347  0.6102
18027TIP3    H175572   6.347   6.508  17.097 -1.0645  1.0606  0.3365
18027TIP3    H275573   6.296   6.517  17.240  0.0276  0.2519  0.7945
18028TIP3   OH275574   5.706   2.165  16.512  0.3539 -0.4676 -0.1885
18028TIP3    H175575   5.742   2.201  16.431 -2.4393  0.5857 -1.0895
18028TIP3    H275576   5.678   2.076  16.488 -0.8719 -0.0003 -0.5363
18029TIP3   OH275577   1.613   0.416   4.013 -0.2294 -0.3723  0.0761
18029TIP3    H175578   1.620   0.471   3.935 -1.8678 -0.4037 -0.1251
18029TIP3    H275579   1.579   0.332   3.981  0.0095 -0.7134  0.6975
18030TIP3   OH275580   0.581   5.549  11.743  0.1991  0.2141 -0.1681
18030TIP3    H175581   0.593   5.587  11.656 -2.0877  0.6313 -0.3881
18030TIP3    H275582   0.487   5.561  11.761  0.5814  0.0790  2.3293
18031TIP3   OH275583   2.004   2.681  14.200 -0.3944  0.9519 -0.1744
18031TIP3    H175584   2.043   2.759  14.239  2.1924  0.2634 -1.1992
18031TIP3    H275585   2.068   2.611  14.214 -1.5773 -0.4514 -1.3259
18032TIP3   OH275586   2.243   6.782  13.041 -0.6199  0.2756 -0.5689
18032TIP3    H175587   2.211   6.845  12.976  1.0973 -1.0070 -2.7663
18032TIP3    H275588   2.309   6.731  12.995  0.9305 -0.5156  2.3062
18033TIP3   OH275589   5.195   0.654   0.868 -0.1960 -0.1110  0.2970
18033TIP3    H175590   5.207   0.580   0.928  2.1854  0.7393  0.9467
18033TIP3    H275591   5.270   0.710   0.883 -1.5132  2.0792 -0.7720
18034TIP3   OH275592   5.244   4.031  14.468 -0.1227  0.0897  0.8729
18034TIP3    H175593   5.149   4.022  14.459 -0.2374  1.8320 -0.1577
18034TIP3    H275594   5.278   4.011  14.380  0.2935  1.0955  0.7923
18035TIP3   OH275595   1.834   1.544  11.447  0.4403 -0.1540  0.0912
18035TIP3    H175596   1.914   1.518  11.494  0.3971 -0.0079  0.2493
18035TIP3    H275597   1.814   1.470  11.390  1.7322  0.5347 -1.3250
18036TIP3   OH275598   0.062   2.446   3.972 -0.3337 -0.8301 -0.0982
18036TIP3    H175599   0.084   2.419   4.061 -0.4177  2.0015  0.8663
18036TIP3    H275600  -0.034   2.445   3.971 -0.4031  1.1958  0.6082
18037TIP3   OH275601   1.200   6.300   4.547 -0.1592  0.0763 -0.4730
18037TIP3    H175602   1.162   6.373   4.595 -0.1467 -1.3651  1.8794
18037TIP3    H275603   1.294   6.313   4.553 -0.0711 -1.2210  1.9088
18038TIP3   OH275604   3.780   0.793  15.960 -0.0093  0.3750 -0.1310
18038TIP3    H175605   3.874   0.808  15.955  0.0081  0.5332  0.5924
18038TIP3    H275606   3.768   0.734  16.035 -0.3150 -1.2272 -1.3957
18039TIP3   OH275607   6.484   6.221   1.287  0.0742  0.2204 -0.1441
18039TIP3    H175608   6.541   6.267   1.226 -1.6314  2.2298 -0.3402
18039TIP3    H275609   6.432   6.290   1.328  0.1770 -1.1677  2.6128
18040TIP3   OH275610   6.711   5.784  12.133 -0.5333  0.0506  0.4043
18040TIP3    H175611   6.685   5.835  12.056 -1.7315 -0.3691  0.5190
18040TIP3    H275612   6.634   5.785  12.190 -0.3694 -1.3581  0.6912
18041TIP3   OH275613   3.805   0.548  15.583 -0.1801 -0.5612  0.2751
18041TIP3    H175614   3.781   0.515  15.496 -1.3248  1.9231 -0.4360
18041TIP3    H275615   3.850   0.630  15.566 -2.8857  1.4397  2.0044
18042TIP3   OH275616   3.714   4.215  17.261  0.0336 -0.7646  0.4470
18042TIP3    H175617   3.759   4.192  17.342  1.3099 -0.1132 -0.0489
18042TIP3    H275618   3.640   4.269  17.289  1.5905  1.1437  1.1169
18043TIP3   OH275619   1.342   4.940   1.442 -0.0629 -0.1307  0.1572
18043TIP3    H175620   1.333   4.987   1.359  0.8245  1.9140  1.1605
18043TIP3    H275621   1.362   4.850   1.416 -0.6673  0.2532 -1.8345
18044TIP3   OH275622   6.120   0.346  11.478 -0.3037  0.0406 -0.6484
18044TIP3    H175623   6.107   0.261  11.437 -0.7131  0.1666 -0.7853
18044TIP3    H275624   6.031   0.376  11.500 -0.1406  0.2989 -0.3338
18045TIP3   OH275625   5.274   5.082  13.139  0.1984  0.4137  0.5555
18045TIP3    H175626   5.248   5.125  13.220 -0.4721  2.5538 -0.7103
18045TIP3    H275627   5.192   5.047  13.103  0.5878 -1.1047  1.0728
18046TIP3   OH275628   2.944   2.795  11.695  0.0559  0.1012 -0.0426
18046TIP3    H175629   2.938   2.701  11.714 -0.6112  0.0011 -0.7064
18046TIP3    H275630   2.856   2.820  11.669  0.0846  1.0693  0.7568
18047TIP3   OH275631   2.218   0.515  16.341  0.1007 -0.1667  0.3373
18047TIP3    H175632   2.246   0.597  16.382  0.3603  0.7625 -1.5961
18047TIP3    H275633   2.270   0.509  16.261 -1.1992 -1.2816 -0.4722
18048TIP3   OH275634   1.735   0.244  14.164 -0.3192  0.6569 -0.1908
18048TIP3    H175635   1.678   0.291  14.226 -1.1795 -1.4237  0.7024
18048TIP3    H275636   1.674   0.195  14.109  0.5511 -0.6915 -0.0011
18049TIP3   OH275637   0.633   5.695  12.738 -0.0606  0.0184  0.5263
18049TIP3    H175638   0.630   5.688  12.833  0.6207 -1.1706  0.4737
18049TIP3    H275639   0.579   5.623  12.706 -0.8890  0.8531  0.0089
18050TIP3   OH275640   4.325   5.704  14.461 -0.2784 -0.0958  0.2986
18050TIP3    H175641   4.337   5.679  14.369 -1.1287  0.7159 -0.0594
18050TIP3    H275642   4.235   5.676  14.481  0.0621 -0.6910  1.0386
18051TIP3   OH275643   6.294   0.924  12.760 -0.2046 -0.2594 -0.3734
18051TIP3    H175644   6.292   0.905  12.666 -0.0316 -0.1423 -0.4017
18051TIP3    H275645   6.282   1.019  12.765 -0.9925 -0.3558 -0.2379
18052TIP3   OH275646   1.491   1.603  14.926  0.1871 -0.1932  0.2743
18052TIP3    H175647   1.555   1.609  14.996  0.7171  1.2913 -0.2884
18052TIP3    H275648   1.532   1.547  14.860  1.2561  1.2855 -0.3791
18053TIP3   OH275649   3.515   0.097   3.402 -0.5601  0.7409  0.0390
18053TIP3    H175650   3.493   0.005   3.389  0.0113  0.1312  2.8037
18053TIP3    H275651   3.581   0.115   3.334  0.4012 -1.3249  0.3337
18054TIP3   OH275652   4.414   6.443   4.386 -0.6047  0.5065  0.3483
18054TIP3    H175653   4.489   6.402   4.342  0.4003  0.6388  1.8504
18054TIP3    H275654   4.452   6.516   4.435 -1.8962  1.2583  0.2667
18055TIP3   OH275655   4.319   6.188  12.837  0.0113 -0.3748  0.4029
18055TIP3    H175656   4.231   6.206  12.803  0.2494  1.4017  0.6107
18055TIP3    H275657   4.338   6.263  12.894  0.8048 -1.8188  2.1095
18056TIP3   OH275658   5.729   0.410  14.501  0.3271  0.6898  0.1697
18056TIP3    H175659   5.647   0.447  14.535 -0.8789 -0.3930 -1.3757
18056TIP3    H275660   5.750   0.465  14.425  1.8118  1.7864  1.3292
18057TIP3   OH275661   6.656   2.690  14.725  0.4223  0.0767  0.1776
18057TIP3    H175662   6.700   2.755  14.670  1.8118 -2.4055 -1.8779
18057TIP3    H275663   6.714   2.679  14.800  0.7307  0.4547 -0.0024
18058TIP3   OH275664   1.349   0.374   6.113  0.1144  0.3742 -0.9221
18058TIP3    H175665   1.427   0.332   6.148  0.0890  0.7589 -0.3886
18058TIP3    H275666   1.288   0.377   6.186 -0.5216 -0.1937 -1.4164
18059TIP3   OH275667   6.309   3.835  17.192  0.0824 -0.0738 -0.5049
18059TIP3    H175668   6.280   3.778  17.120 -0.0262  0.8724 -1.2299
18059TIP3    H275669   6.256   3.914  17.182 -0.5098 -0.2274  1.1110
18060TIP3   OH275670   1.616   1.089   0.506 -0.5406 -0.6376 -0.5426
18060TIP3    H175671   1.654   1.176   0.503 -0.1567 -0.7451  0.7457
18060TIP3    H275672   1.523   1.104   0.525 -0.3443 -0.5297  0.3523
18061TIP3   OH275673   5.710   3.746  13.384  0.3601  0.0752  0.7947
18061TIP3    H175674   5.769   3.810  13.424 -1.0522  1.2578  1.0424
18061TIP3    H275675   5.762   3.665  13.379  1.7500  0.8881  1.6584
18062TIP3   OH275676   4.822   6.009  12.230 -0.0827  0.4746 -0.0811
18062TIP3    H175677   4.894   5.966  12.183  1.7399  1.0675  2.0129
18062TIP3    H275678   4.850   6.010  12.321 -1.6291  2.9776  0.4561
18063TIP3   OH275679   3.976   0.996   2.871 -0.3999  0.0963 -0.5998
18063TIP3    H175680   3.999   0.946   2.792 -1.9606 -1.8425  0.0845
18063TIP3    H275681   4.060   1.017   2.911  0.3699 -2.5325 -0.6487
18064TIP3   OH275682   6.050   0.588   2.461 -0.3236  0.5145 -0.1552
18064TIP3    H175683   5.958   0.575   2.484  0.2216 -2.5724  0.7806
18064TIP3    H275684   6.086   0.639   2.534 -0.6664 -1.0926  1.2145
18065TIP3   OH275685   2.015   4.748  14.472  0.0882  0.3119  0.1023
18065TIP3    H175686   2.007   4.655  14.493 -0.7033  0.2555 -0.3900
18065TIP3    H275687   2.100   4.756  14.430  1.0944  0.1988  2.0371
18066TIP3   OH275688   1.062   5.364   5.945 -0.7202  0.1850 -0.0485
18066TIP3    H175689   1.057   5.414   6.027 -1.0789 -0.0543  0.0814
18066TIP3    H275690   0.972   5.363   5.913 -0.6892 -0.2350 -0.1345
18067TIP3   OH275691   0.989   3.111  16.922  0.0089  0.0647 -0.0388
18067TIP3    H175692   0.907   3.158  16.936  0.1770  0.6379 -0.9224
18067TIP3    H275693   0.991   3.093  16.828  2.3496  2.8799 -0.6804
18068TIP3   OH275694   6.598   3.505  14.270 -0.0303  0.4421  0.6460
18068TIP3    H175695   6.663   3.476  14.205  0.7690 -0.6489  1.8627
18068TIP3    H275696   6.579   3.426  14.321 -2.1901  0.7919  0.4712
18069TIP3   OH275697   6.458   1.045  15.176 -0.3436  0.1477 -0.1460
18069TIP3    H175698   6.398   1.114  15.201  0.8867  1.4342 -0.5701
18069TIP3    H275699   6.467   0.991  15.254 -1.8341  0.0569 -0.0094
18070TIP3   OH275700   0.316   4.221  13.304 -0.5214 -0.1052  0.6729
18070TIP3    H175701   0.370   4.197  13.229  1.1261  1.2218  1.3538
18070TIP3    H275702   0.228   4.230  13.269  0.0563 -0.4032 -0.9039
18071TIP3   OH275703   0.898   6.287  14.416  0.0821  0.2615 -0.4984
18071TIP3    H175704   0.891   6.215  14.478  1.7430  1.0668  0.7148
18071TIP3    H275705   0.832   6.268  14.349 -0.3444 -1.7213  0.4109
18072TIP3   OH275706   5.756   4.509   0.775 -0.2588  0.1068 -0.7375
18072TIP3    H175707   5.732   4.541   0.688 -1.3303 -1.2166 -0.9503
18072TIP3    H275708   5.746   4.585   0.832  0.5829  1.0264 -1.7768
18073TIP3   OH275709   5.073   4.901  13.474  0.4963 -0.1574  0.4278
18073TIP3    H175710   5.026   4.889  13.556  0.0695 -1.5858  0.0078
18073TIP3    H275711   5.127   4.822  13.465 -1.5348 -1.4019 -1.9758
18074TIP3   OH275712   4.484   5.902   1.364  0.1188 -0.5028 -0.1355
18074TIP3    H175713   4.448   5.882   1.277  0.6580 -0.3412 -0.4019
18074TIP3    H275714   4.487   5.997   1.368  1.3798 -0.5001 -0.5019
18075TIP3   OH275715   0.801   0.354  13.647  0.1257  0.2316 -0.2319
18075TIP3    H175716   0.706   0.348  13.638 -0.0638  1.1957  0.8353
18075TIP3    H275717   0.819   0.448  13.652  0.8313  0.0332  2.1098
18076TIP3   OH275718   4.522   3.490   1.551  0.2776  0.3227 -0.2120
18076TIP3    H175719   4.600   3.496   1.606 -0.6202  0.1831  1.1178
18076TIP3    H275720   4.500   3.581   1.531  0.7074  0.3678 -0.4906
18077TIP3   OH275721   3.036   2.516   1.714  0.2140 -0.4678  0.0985
18077TIP3    H175722   2.956   2.532   1.765  0.9897 -0.1129  1.2521
18077TIP3    H275723   3.018   2.435   1.666 -0.7958 -0.4499  0.4178
18078TIP3   OH275724   1.024   2.202   4.113 -0.4276 -0.6166 -0.5027
18078TIP3    H175725   1.050   2.265   4.181  1.5001 -3.1548  1.2777
18078TIP3    H275726   1.092   2.211   4.046 -1.0202  0.2294 -1.0111
18079TIP3   OH275727   3.065   5.312   1.033 -0.0379  0.3206 -0.0006
18079TIP3    H175728   3.054   5.399   0.996 -1.1008  0.0470 -0.3593
18079TIP3    H275729   2.975   5.281   1.049  0.3468 -0.2658  1.1558
18080TIP3   OH275730   4.669   2.709  11.366  0.1480  0.2164 -0.1307
18080TIP3    H175731   4.706   2.792  11.336 -1.5274  0.9829 -0.2475
18080TIP3    H275732   4.619   2.677  11.290  0.7912 -0.9330 -0.0944
18081TIP3   OH275733   1.701   2.696   4.167  0.4018 -0.0500  0.4215
18081TIP3    H175734   1.726   2.614   4.210  0.6857  0.0891  0.5228
18081TIP3    H275735   1.645   2.741   4.231  0.8930  0.1955  0.6791
18082TIP3   OH275736   5.270   3.419  13.276 -0.4356 -0.1426 -0.2473
18082TIP3    H175737   5.363   3.415  13.252  0.3644 -0.5934  2.5045
18082TIP3    H275738   5.235   3.492  13.226  1.5858  0.4686 -0.8610
18083TIP3   OH275739   1.486   4.664   6.117  0.5873 -0.3023  0.2451
18083TIP3    H175740   1.448   4.577   6.100  1.1973 -0.5290  0.0147
18083TIP3    H275741   1.423   4.706   6.175 -0.6476 -0.2066 -1.1026
18084TIP3   OH275742   0.871   4.222  13.735 -0.8358 -0.4733  0.1467
18084TIP3    H175743   0.964   4.235  13.717 -1.0629 -0.6571 -1.2485
18084TIP3    H275744   0.855   4.272  13.816  0.6840 -1.3063  1.0054
18085TIP3   OH275745   3.400   4.968   5.809 -0.2891 -0.1769 -0.1290
18085TIP3    H175746   3.431   5.059   5.803  0.5776 -0.4670 -0.2289
18085TIP3    H275747   3.423   4.942   5.899  1.3951 -0.9543 -0.7449
18086TIP3   OH275748   5.551   4.684   6.233 -0.1754 -0.0744  0.0232
18086TIP3    H175749   5.539   4.777   6.211 -3.0199  1.1059  4.9037
18086TIP3    H275750   5.636   4.681   6.278 -0.5075  0.4624  0.7175
18087TIP3   OH275751   3.960   4.682  15.035  0.4359 -0.0827 -0.4626
18087TIP3    H175752   3.870   4.696  15.065  0.4514  0.9374 -0.8642
18087TIP3    H275753   3.979   4.591  15.061 -0.1700  0.1631  0.9834
18088TIP3   OH275754   2.891   2.396  11.025 -0.1809  0.0261 -0.7666
18088TIP3    H175755   2.895   2.308  10.989 -0.2157 -0.0622 -0.5571
18088TIP3    H275756   2.820   2.392  11.089 -1.9515  0.8760 -2.5609
18089TIP3   OH275757   4.386   3.810  15.727  0.9990  0.0323  0.2683
18089TIP3    H175758   4.422   3.889  15.768 -2.2181  2.0008 -0.3585
18089TIP3    H275759   4.352   3.759  15.800  2.2532 -0.3635  0.6006
18090TIP3   OH275760   0.056   1.474   5.806  0.6614  0.6897 -0.3803
18090TIP3    H175761   0.040   1.396   5.753 -1.9769  1.0547 -0.2530
18090TIP3    H275762   0.111   1.443   5.878 -1.4644 -1.4911  0.4619
18091TIP3   OH275763   1.986   1.601  13.640  0.0279 -0.0653  0.3081
18091TIP3    H175764   1.960   1.509  13.649  0.4687 -0.1511  0.7914
18091TIP3    H275765   2.064   1.598  13.584  0.8241 -0.1259  1.3945
18092TIP3   OH275766   6.298   1.631   4.810 -0.5307 -0.2324 -0.0335
18092TIP3    H175767   6.239   1.576   4.862  0.1756 -2.0892 -1.1088
18092TIP3    H275768   6.265   1.624   4.721  0.2564  0.2031 -0.3678
18093TIP3   OH275769   3.564   2.361   4.210  0.4494 -0.3172 -0.0584
18093TIP3    H175770   3.656   2.383   4.223  0.2516 -0.4323  1.7121
18093TIP3    H275771   3.516   2.434   4.250 -0.2218 -0.7893  0.0144
18094TIP3   OH275772   6.198   3.653   5.484 -0.1769 -0.0699 -0.7354
18094TIP3    H175773   6.161   3.572   5.450 -2.1410  0.5760 -0.2389
18094TIP3    H275774   6.293   3.639   5.481 -0.4790 -2.7891  0.3734
18095TIP3   OH275775   2.239   2.414   3.502  0.1989 -0.1939 -0.6218
18095TIP3    H175776   2.222   2.508   3.511 -2.1370 -0.6302  0.3056
18095TIP3    H275777   2.169   2.382   3.446  1.5468 -1.2677 -1.7639
18096TIP3   OH275778   5.457   4.121   2.607  0.2331 -0.3148  0.3578
18096TIP3    H175779   5.410   4.059   2.551  0.7639 -0.1658 -0.2754
18096TIP3    H275780   5.389   4.174   2.648 -0.2749 -1.8094  1.5274
18097TIP3   OH275781   0.127   4.007  14.305  0.4103 -0.3817  0.1630
18097TIP3    H175782   0.184   3.936  14.332  1.1645  0.2787  0.3421
18097TIP3    H275783   0.151   4.080  14.361 -2.1303 -0.6671  1.8007
18098TIP3   OH275784   1.818   5.375  16.398  0.2896  0.2948 -0.6187
18098TIP3    H175785   1.773   5.295  16.426  0.8585  0.2986  0.3560
18098TIP3    H275786   1.771   5.402  16.319  0.1336 -1.0393 -1.0110
18099TIP3   OH275787   4.617   6.031  16.283 -0.2972  0.1315 -0.2670
18099TIP3    H175788   4.701   6.011  16.325 -0.5899  1.6605  1.1773
18099TIP3    H275789   4.553   5.976  16.330 -0.4565  0.9590  0.5115
18100TIP3   OH275790   4.450   4.178   0.238  0.2829  0.8828 -0.3443
18100TIP3    H175791   4.536   4.218   0.225 -0.3425  1.6957 -2.4217
18100TIP3    H275792   4.466   4.084   0.228  1.0679  0.9619  0.1522
18101TIP3   OH275793   5.886   0.069  16.251  0.2043 -0.0879  0.7664
18101TIP3    H175794   5.914   0.057  16.160  3.1221  0.5015  1.5062
18101TIP3    H275795   5.876   0.164  16.260 -0.7598 -0.1920  0.9185
18102TIP3   OH275796   3.550   2.451  12.692 -0.0105  0.2650 -0.2004
18102TIP3    H175797   3.631   2.405  12.712  0.2224  0.3244 -0.9548
18102TIP3    H275798   3.567   2.542  12.718  0.6919  0.5780 -1.6388
18103TIP3   OH275799   5.197   6.593  11.698 -0.3291 -0.1766 -0.2050
18103TIP3    H175800   5.126   6.541  11.736 -1.3717  1.2795 -0.0850
18103TIP3    H275801   5.252   6.617  11.772 -0.6309  0.0560 -0.0532
18104TIP3   OH275802   3.143   4.596  11.497  0.0309 -0.4820 -0.4145
18104TIP3    H175803   3.212   4.530  11.503 -0.4547 -1.1369 -1.5893
18104TIP3    H275804   3.173   4.667  11.552  2.0104 -0.4422 -1.4514
18105TIP3   OH275805   1.848   4.142  12.218 -0.1513 -0.2431 -0.2908
18105TIP3    H175806   1.921   4.177  12.167 -0.1032  4.2056  2.3106
18105TIP3    H275807   1.876   4.152  12.309 -3.2824 -0.1409  0.7534
18106TIP3   OH275808   2.596   0.158  14.229  0.0353  0.1570  0.5374
18106TIP3    H175809   2.556   0.071  14.229  0.3034  0.0327  0.3622
18106TIP3    H275810   2.523   0.218  14.242 -0.2830 -0.0361 -0.2815
18107TIP3   OH275811   3.311   5.571  13.568 -0.0731  0.5766  0.7230
18107TIP3    H175812   3.336   5.629  13.496 -0.9086  0.2352  0.1354
18107TIP3    H275813   3.302   5.630  13.644  1.1748  0.8792  0.6450
18108TIP3   OH275814   4.824   3.667  10.907 -0.6631  0.2541  0.2054
18108TIP3    H175815   4.857   3.706  10.826  0.8872  1.0795  1.1866
18108TIP3    H275816   4.794   3.741  10.959 -3.1288 -0.3903 -0.1862
18109TIP3   OH275817   3.871   5.438  11.598 -0.0747  0.0260 -0.1493
18109TIP3    H175818   3.948   5.387  11.574  0.5230 -0.0157  1.7024
18109TIP3    H275819   3.868   5.434  11.694 -0.3299  2.9370  0.0751
18110TIP3   OH275820   3.034   3.222   0.972 -0.5850 -0.4619  0.0155
18110TIP3    H175821   3.113   3.169   0.958 -1.9246 -2.9187  1.1068
18110TIP3    H275822   3.023   3.269   0.889  2.0226  0.0247 -0.1478
18111TIP3   OH275823   0.141   2.785  12.731  0.0265 -0.7923  0.0841
18111TIP3    H175824   0.152   2.697  12.694  1.5796 -0.6962  0.2549
18111TIP3    H275825   0.149   2.844  12.655 -0.2501 -0.7538  0.0825
18112TIP3   OH275826   6.502   0.222  14.843  0.3429 -0.7089 -0.0489
18112TIP3    H175827   6.502   0.231  14.748 -1.7826 -0.0706 -0.0473
18112TIP3    H275828   6.423   0.172  14.863  0.4703 -0.3932  1.4052
18113TIP3   OH275829   1.514   0.866   6.076 -0.0030 -0.3182 -0.2317
18113TIP3    H175830   1.602   0.874   6.039 -0.9236 -0.0864 -2.4965
18113TIP3    H275831   1.501   0.772   6.089  0.6404 -0.3366  0.3249
18114TIP3   OH275832   1.215   1.931   3.196  0.2867  0.5183 -0.1901
18114TIP3    H175833   1.211   1.904   3.287  0.3593  1.0079 -0.0412
18114TIP3    H275834   1.278   2.002   3.194 -0.8632  1.5820 -0.3406
18115TIP3   OH275835   1.282   1.499   4.862 -0.4368 -0.4349  0.3948
18115TIP3    H175836   1.255   1.591   4.859 -0.8138 -0.4959  1.3297
18115TIP3    H275837   1.367   1.501   4.906 -1.1968 -0.6508  1.9509
18116TIP3   OH275838   4.774   4.734  11.939  0.3431 -0.3227 -0.4655
18116TIP3    H175839   4.845   4.749  12.001 -2.2000 -0.0076  2.6354
18116TIP3    H275840   4.775   4.639  11.924  1.1540 -0.3707 -0.1480
18117TIP3   OH275841   1.236   0.300   3.919 -0.3774 -0.6278 -0.1247
18117TIP3    H175842   1.245   0.352   3.999  1.4034  0.2769 -0.8632
18117TIP3    H275843   1.226   0.210   3.951 -1.1162 -0.1265  1.1267
18118TIP3   OH275844   0.445   4.587  12.822  0.1170 -0.0668 -0.2045
18118TIP3    H175845   0.376   4.570  12.758  0.6537  0.5476 -0.9741
18118TIP3    H275846   0.525   4.596  12.769  1.2352 -2.9806  0.8169
18119TIP3   OH275847   1.554   4.491   3.955 -0.1561 -0.5908 -0.4540
18119TIP3    H175848   1.539   4.473   4.048  3.1295 -0.9776  0.1119
18119TIP3    H275849   1.521   4.580   3.942  0.4161 -0.0788  1.3792
18120TIP3   OH275850   1.941   6.684   5.837  0.1453  0.2191  0.3112
18120TIP3    H175851   1.874   6.617   5.824  0.6772 -0.2293 -0.1341
18120TIP3    H275852   1.993   6.652   5.910  0.7522 -0.1370 -0.2743
18121TIP3   OH275853   0.847   5.767  13.722  0.3850  0.5091 -0.2421
18121TIP3    H175854   0.844   5.696  13.786  2.4565 -0.7243 -1.4357
18121TIP3    H275855   0.842   5.847  13.775  0.0775 -0.4907  1.2867
18122TIP3   OH275856   1.781   1.899   5.379  0.2504  0.5900  0.1510
18122TIP3    H175857   1.742   1.816   5.349 -1.3535  1.2253  0.3676
18122TIP3    H275858   1.816   1.939   5.299 -2.6625  1.5736 -0.7510
18123TIP3   OH275859   2.644   1.280  14.196 -0.0580  0.3380 -0.4410
18123TIP3    H175860   2.627   1.187  14.182  0.6457  0.2868 -0.9687
18123TIP3    H275861   2.594   1.324  14.127 -0.7228  0.3796  0.0612
18124TIP3   OH275862   0.680   2.721  10.858 -0.6162 -0.1460  0.0126
18124TIP3    H175863   0.606   2.739  10.917  0.0612 -0.2233  0.9042
18124TIP3    H275864   0.753   2.703  10.916 -0.1027 -0.9790 -0.8690
18125TIP3   OH275865   2.979   1.767  17.123  0.1397 -0.6694  0.3729
18125TIP3    H175866   3.025   1.848  17.104 -1.8421  0.8208  1.4756
18125TIP3    H275867   2.918   1.790  17.193 -1.8381 -2.6122 -0.5796
18126TIP3   OH275868   0.763   1.667  15.476 -0.0597 -0.3591  0.6425
18126TIP3    H175869   0.756   1.720  15.397  3.2667 -1.7565 -0.7788
18126TIP3    H275870   0.794   1.582  15.446  0.5737 -1.2121  3.3778
18127TIP3   OH275871   6.718   3.772  14.014  0.4184  0.2967  0.0083
18127TIP3    H175872   6.801   3.767  13.966  0.9341 -2.3081  1.0251
18127TIP3    H275873   6.652   3.745  13.951  0.4819  1.1552 -0.4433
18128TIP3   OH275874   3.091   5.592  11.697  0.5944  0.1072  0.1366
18128TIP3    H175875   3.042   5.617  11.775  1.1244  0.5708  0.3331
18128TIP3    H275876   3.116   5.501  11.713  1.5688  0.4930  0.9924
18129TIP3   OH275877   4.516   6.252   2.914 -0.2007  0.3062  0.1010
18129TIP3    H175878   4.594   6.288   2.958 -0.7761  0.5188  0.9734
18129TIP3    H275879   4.480   6.325   2.865 -0.5414  0.5332  0.6876
18130TIP3   OH275880   2.988   2.317   3.380  0.6840  0.2376  0.3444
18130TIP3    H175881   2.950   2.376   3.445 -0.1217  0.4064 -0.2645
18130TIP3    H275882   2.972   2.229   3.414  2.0130  0.3336  1.3254
18131TIP3   OH275883   1.440   5.079  10.424  0.7313 -0.2602 -0.0043
18131TIP3    H175884   1.524   5.108  10.387  0.7632 -0.3893 -0.0328
18131TIP3    H275885   1.405   5.158  10.467  1.3938 -0.4721  0.9788
18132TIP3   OH275886   0.754   5.861  17.020  0.3925 -0.4346  0.0970
18132TIP3    H175887   0.830   5.896  17.067  0.1116 -0.0642  0.2803
18132TIP3    H275888   0.781   5.861  16.928  0.0074  1.3559 -0.0633
18133TIP3   OH275889   1.893   4.866  10.766  0.7123  0.1408  0.0688
18133TIP3    H175890   1.925   4.777  10.783 -0.5930 -0.6361 -1.3462
18133TIP3    H275891   1.973   4.919  10.764  1.9625 -1.5914 -2.5392
18134TIP3   OH275892   3.914   1.056   1.649 -1.0911  0.2617  0.3087
18134TIP3    H175893   3.970   0.981   1.632  0.5888  1.0397  2.0016
18134TIP3    H275894   3.942   1.123   1.587 -1.8606 -0.1384 -0.4868
18135TIP3   OH275895   0.900   0.170  11.506  0.7980 -0.1548  0.5291
18135TIP3    H175896   0.976   0.226  11.488  2.0645 -2.3794 -1.5714
18135TIP3    H275897   0.833   0.199  11.444  0.5519  0.5681  1.1095
18136TIP3   OH275898   0.849   5.958   1.502 -0.1599  0.1935  0.3176
18136TIP3    H175899   0.778   5.898   1.523 -0.1028  0.0600  0.1221
18136TIP3    H275900   0.875   5.994   1.587 -0.7899  0.6213  0.3362
18137TIP3   OH275901   0.733   2.877  12.516  0.1290  0.3281 -0.3110
18137TIP3    H175902   0.804   2.933  12.548  0.3640 -0.1371 -0.0163
18137TIP3    H275903   0.770   2.834  12.439  0.1123  0.2073 -0.2521
18138TIP3   OH275904   5.643   1.415  15.561 -0.0950 -0.5154 -0.1064
18138TIP3    H175905   5.629   1.439  15.653 -1.8636 -3.4034  0.4916
18138TIP3    H275906   5.730   1.374  15.561  0.2174  0.1303  0.1160
18139TIP3   OH275907   6.227   5.526  11.655  0.1985  0.3391  0.0884
18139TIP3    H175908   6.315   5.512  11.622  0.5334  0.3648  0.9253
18139TIP3    H275909   6.181   5.444  11.638  0.0921  0.6449 -1.1948
18140TIP3   OH275910   6.098   3.632   1.692  0.2518 -0.2419 -0.2463
18140TIP3    H175911   6.181   3.674   1.712  0.8952 -1.6515  0.2233
18140TIP3    H275912   6.040   3.703   1.666  1.1895  0.9334  0.7729
18141TIP3   OH275913   3.032   0.093   4.053 -0.3148  0.1516 -0.0722
18141TIP3    H175914   3.077   0.142   4.121 -0.2242 -1.0200  0.7458
18141TIP3    H275915   3.064   0.130   3.971 -1.4328  2.5028  0.4771
18142TIP3   OH275916   4.629   6.780   2.293  0.2931  0.1027  0.4780
18142TIP3    H175917   4.565   6.788   2.363 -0.4036  0.9034 -0.2254
18142TIP3    H275918   4.598   6.707   2.239 -0.8932  1.4151 -0.6946
18143TIP3   OH275919   4.750   2.418   5.083 -0.2340 -0.0122 -0.4121
18143TIP3    H175920   4.671   2.367   5.062  0.0262 -1.2709  1.4575
18143TIP3    H275921   4.750   2.488   5.018 -1.5357 -1.4070 -2.0390
18144TIP3   OH275922   6.746   2.038   5.005 -0.2993  0.3505  0.1075
18144TIP3    H175923   6.720   1.952   5.036  1.8045 -0.3489  0.0452
18144TIP3    H275924   6.773   2.085   5.083  0.7436  0.1351 -0.1094
18145TIP3   OH275925   4.281   1.872  16.347  0.0461  0.3223 -0.1321
18145TIP3    H175926   4.239   1.941  16.295  0.8995 -0.5293 -2.0575
18145TIP3    H275927   4.374   1.894  16.345  0.6324 -1.8814 -2.5634
18146TIP3   OH275928   6.184   2.627  15.862 -0.5710  0.1326  0.7850
18146TIP3    H175929   6.275   2.597  15.861 -0.2200  1.0648  1.9963
18146TIP3    H275930   6.140   2.573  15.796  0.5798 -1.2028  1.0566
18147TIP3   OH275931   2.801   1.671  14.386  0.1237 -0.0250 -0.3020
18147TIP3    H175932   2.858   1.630  14.451 -1.9420 -0.1135  1.5877
18147TIP3    H275933   2.734   1.605  14.368 -0.2118  0.5791 -1.3711
18148TIP3   OH275934   1.722   3.387   1.831 -0.1537 -0.2559  0.0304
18148TIP3    H175935   1.761   3.315   1.782  0.9150  0.6911 -0.5546
18148TIP3    H275936   1.633   3.395   1.795  0.3441 -0.0946 -1.2205
18149TIP3   OH275937   3.750   2.207   2.405 -0.0326  0.2344  0.0750
18149TIP3    H175938   3.773   2.206   2.498 -0.1673 -0.1411  0.1069
18149TIP3    H275939   3.792   2.129   2.369  0.5071  0.6884 -0.3036
18150TIP3   OH275940   6.583   4.727  15.645  0.1227 -0.2509 -0.0235
18150TIP3    H175941   6.558   4.736  15.737  0.8508  0.9163  0.0835
18150TIP3    H275942   6.501   4.738  15.596 -0.1152  0.1228  0.4495
18151TIP3   OH275943   2.190   0.335   0.115 -0.2389 -0.8297  0.0841
18151TIP3    H175944   2.163   0.282   0.040  0.8392 -0.4859 -0.5668
18151TIP3    H275945   2.190   0.425   0.082 -1.3810 -0.4713  0.9859
18152TIP3   OH275946   2.763   1.536  16.470  0.1265  0.3457  0.2960
18152TIP3    H175947   2.677   1.561  16.437 -1.2003 -2.6401  1.1939
18152TIP3    H275948   2.754   1.534  16.565  0.0363 -3.2010  0.3520
18153TIP3   OH275949   0.276   2.757   1.114  0.0512  0.4378  0.0301
18153TIP3    H175950   0.326   2.727   1.038  0.5556 -0.6166  0.7577
18153TIP3    H275951   0.331   2.737   1.189 -1.1577 -0.1352  0.8073
18154TIP3   OH275952   0.338   4.220   5.938 -0.6490  1.0124  0.4144
18154TIP3    H175953   0.427   4.239   5.910 -0.7592  1.7030  0.5056
18154TIP3    H275954   0.321   4.284   6.008 -0.1766 -0.9847  2.4914
18155TIP3   OH275955   2.562   3.126   3.233  0.2025 -0.1699 -0.6608
18155TIP3    H175956   2.529   3.111   3.145 -0.3513  0.6184 -0.6007
18155TIP3    H275957   2.507   3.197   3.268 -0.3903 -1.2641  0.7557
18156TIP3   OH275958   2.395   3.820  14.127  0.1911 -0.4844  0.4348
18156TIP3    H175959   2.488   3.839  14.130 -0.0726  1.2310 -0.4402
18156TIP3    H275960   2.388   3.725  14.132  2.1084 -0.7930 -1.4025
18157TIP3   OH275961   5.110   0.845   4.830  0.0744 -0.3043  0.3363
18157TIP3    H175962   5.034   0.863   4.775 -1.0560 -0.1703  1.8892
18157TIP3    H275963   5.080   0.863   4.919  1.8218 -0.6081  1.0222
18158TIP3   OH275964   1.711   3.733  12.908 -0.0165 -0.0795  0.0538
18158TIP3    H175965   1.644   3.669  12.887 -0.1579 -0.0830  0.5144
18158TIP3    H275966   1.669   3.793  12.969 -0.1496  0.9331 -0.9996
18159TIP3   OH275967   3.092   2.593   2.945  0.2507  0.4346 -0.4160
18159TIP3    H175968   3.108   2.526   3.013  3.5525 -1.2978 -2.6013
18159TIP3    H275969   3.130   2.673   2.982 -1.1687  0.4625  1.1053
18160TIP3   OH275970   2.199   0.496   4.436 -0.0858 -0.1900 -0.3448
18160TIP3    H175971   2.163   0.511   4.349  0.0259  2.3228 -0.0451
18160TIP3    H275972   2.271   0.559   4.443 -1.0206  0.7529  2.0340
18161TIP3   OH275973   5.419   1.145  11.295 -0.4096 -0.6483 -0.9444
18161TIP3    H175974   5.513   1.163  11.289 -0.5532  0.6684  0.1775
18161TIP3    H275975   5.410   1.055  11.267  1.2252 -0.8647 -0.8830
18162TIP3   OH275976   3.413   5.909  11.980  0.8832  0.2791 -0.3956
18162TIP3    H175977   3.488   5.961  12.009  0.9269 -0.2468  0.4590
18162TIP3    H275978   3.426   5.823  12.020 -1.2545  0.7600  1.5634
18163TIP3   OH275979   6.042   2.907  16.200  0.1257 -0.2420  0.3394
18163TIP3    H175980   6.106   2.968  16.163  0.3536  0.5843  2.0090
18163TIP3    H275981   6.013   2.854  16.126  1.9795  0.0564 -0.6434
18164TIP3   OH275982   2.360   6.009   0.096 -0.1769  0.1159 -0.0547
18164TIP3    H175983   2.268   6.008   0.120  0.0765 -1.4964  1.0083
18164TIP3    H275984   2.364   5.966   0.011 -0.2268 -1.5639  0.7640
18165TIP3   OH275985   6.049   4.270   0.453  0.0134  0.1937 -0.1299
18165TIP3    H175986   6.128   4.276   0.400  1.2562  3.1510  1.7833
18165TIP3    H275987   6.068   4.200   0.516  0.2967 -0.3711 -0.8264
18166TIP3   OH275988   2.199   1.405  12.389 -0.1903  0.5948 -0.5397
18166TIP3    H175989   2.285   1.378  12.358 -0.5684  0.1207 -1.2364
18166TIP3    H275990   2.215   1.456  12.468  0.8250  1.7354 -1.4580
18167TIP3   OH275991   3.422   5.802   2.905 -0.4097  0.2725 -0.3542
18167TIP3    H175992   3.336   5.836   2.927 -1.0542 -1.5430  0.1053
18167TIP3    H275993   3.418   5.785   2.811  0.3880  2.6118 -0.8879
18168TIP3   OH275994   5.272   2.801   4.398  0.2048  0.3338 -0.3092
18168TIP3    H175995   5.194   2.819   4.346  0.4671  0.7162 -0.5768
18168TIP3    H275996   5.323   2.740   4.345  0.7488  1.1821 -0.7650
18169TIP3   OH275997   2.228   3.062  11.345  0.3894 -0.1605 -0.4611
18169TIP3    H175998   2.307   3.064  11.292  0.5243 -0.7385 -0.2941
18169TIP3    H275999   2.227   3.146  11.390  2.4330 -1.1596  1.6933
18170TIP3   OH276000   4.466   0.264  13.104  0.2380 -0.1515  0.2807
18170TIP3    H176001   4.392   0.323  13.089  1.3402  0.7005 -2.5386
18170TIP3    H276002   4.426   0.180  13.126 -1.4695  0.7244  0.7412
18171TIP3   OH276003   3.241   0.912   2.796 -0.4768  0.4002 -0.2241
18171TIP3    H176004   3.242   0.977   2.725  1.0511  0.4517 -0.1781
18171TIP3    H276005   3.151   0.917   2.831 -0.8138  1.4441 -1.1626
18172TIP3   OH276006   3.788   2.328  12.786 -0.6144 -0.0637 -0.4541
18172TIP3    H176007   3.754   2.286  12.706 -1.4532 -0.9353  0.3284
18172TIP3    H276008   3.834   2.258  12.832 -1.0511  0.1495  0.3278
18173TIP3   OH276009   2.959   2.764  12.928  0.1435 -0.4738 -0.1203
18173TIP3    H176010   2.949   2.859  12.937  0.5356 -0.4207 -0.2477
18173TIP3    H276011   3.010   2.738  13.005  1.3293 -0.3669 -0.8418
18174TIP3   OH276012   0.700   0.339  17.221  0.3523 -0.2324 -0.2286
18174TIP3    H176013   0.642   0.319  17.147  0.9219 -1.8258 -0.2879
18174TIP3    H276014   0.788   0.340  17.182  0.5187  0.5354  0.1524
18175TIP3   OH276015   4.042   6.662   4.324 -0.6585 -0.1913 -0.0592
18175TIP3    H176016   3.993   6.586   4.354 -1.4048 -0.6971 -2.4428
18175TIP3    H276017   4.030   6.727   4.394 -0.7101 -1.9126  1.6150
18176TIP3   OH276018   0.517   3.223  11.495 -1.2568 -0.4920  0.1337
18176TIP3    H176019   0.541   3.138  11.457 -1.3937 -0.7674  0.6463
18176TIP3    H276020   0.523   3.285  11.422  0.3456 -0.6600  0.0816
18177TIP3   OH276021   1.417   2.618  14.679 -0.1216 -0.2137 -0.4516
18177TIP3    H176022   1.443   2.636  14.589  1.6076  1.5918  0.3265
18177TIP3    H276023   1.500   2.606  14.726 -0.9008  0.2246  1.1202
18178TIP3   OH276024   0.243   2.130   3.500  0.7025  1.0468  0.8202
18178TIP3    H176025   0.192   2.211   3.490  1.9824  1.6761 -1.0280
18178TIP3    H276026   0.282   2.115   3.414  0.5271 -1.5632  1.1149
18179TIP3   OH276027   5.359   1.843  14.912 -0.5356  0.2600  0.0518
18179TIP3    H176028   5.434   1.793  14.880  0.9739  0.5312  2.8062
18179TIP3    H276029   5.384   1.934  14.899 -1.2067  0.3497 -0.6580
18180TIP3   OH276030   4.243   0.114   4.711  1.0458  0.2618  0.2433
18180TIP3    H176031   4.232   0.154   4.798 -0.4582  1.6536 -0.5475
18180TIP3    H276032   4.227   0.185   4.649 -0.2386 -1.2207 -1.2178
18181TIP3   OH276033   1.068   6.719   4.803 -0.0030  0.0626 -0.1329
18181TIP3    H176034   1.101   6.779   4.737  0.1918  0.6265  0.4652
18181TIP3    H276035   0.980   6.750   4.823 -0.2673 -0.4271 -0.5019
18182TIP3   OH276036   4.790   3.698  14.728 -0.0541  0.1024  0.3504
18182TIP3    H176037   4.867   3.713  14.672 -0.9465 -0.4347 -1.0571
18182TIP3    H276038   4.792   3.604  14.747 -0.8552 -0.0868 -0.4540
18183TIP3   OH276039   0.519   4.451   1.568 -0.2077  0.2891 -0.1293
18183TIP3    H176040   0.463   4.529   1.575 -1.5458 -0.6933  0.5268
18183TIP3    H276041   0.480   4.400   1.497 -1.1029 -1.1046  1.2860
18184TIP3   OH276042   3.403   4.918  14.456  0.8235  0.2505  0.2805
18184TIP3    H176043   3.354   4.843  14.488  1.4419 -0.5572 -0.6077
18184TIP3    H276044   3.495   4.892  14.465  1.0232  0.3895 -1.1923
18185TIP3   OH276045   0.450   5.275  16.241 -0.1024 -0.4734 -0.0672
18185TIP3    H176046   0.407   5.341  16.186  0.3296  2.2445  2.5767
18185TIP3    H276047   0.537   5.264  16.203 -0.5872 -0.4325 -1.2180
18186TIP3   OH276048   0.646   6.495   3.795 -0.6102  0.5625 -0.2488
18186TIP3    H176049   0.586   6.567   3.772 -1.7726 -0.4500 -0.4717
18186TIP3    H276050   0.695   6.478   3.714 -1.5575 -0.0251 -0.7212
18187TIP3   OH276051   5.558   4.658  13.874 -0.0782 -0.0061 -0.2830
18187TIP3    H176052   5.647   4.679  13.847  1.1310 -1.2939  2.3494
18187TIP3    H276053   5.527   4.597  13.807  0.4880  1.4201 -1.9146
18188TIP3   OH276054   3.764   2.283   0.791 -0.3196 -0.3357  0.3180
18188TIP3    H176055   3.839   2.287   0.850 -0.0280 -1.2849  0.0223
18188TIP3    H276056   3.688   2.276   0.849 -0.3802  2.3500  0.6941
18189TIP3   OH276057   1.999   1.651   2.947  0.2734  0.3560 -0.3397
18189TIP3    H176058   2.048   1.595   2.888 -0.2204 -1.0781  0.5732
18189TIP3    H276059   1.952   1.591   3.005  0.0178  1.7002  0.9225
18190TIP3   OH276060   5.618   0.938  11.971  0.4624  0.5579  0.1408
18190TIP3    H176061   5.546   0.924  11.909 -0.2519  1.4522  0.7367
18190TIP3    H276062   5.677   0.999  11.926 -0.3846  1.7248  0.5546
18191TIP3   OH276063   3.315   4.522  15.609  0.1095 -0.2288 -0.1802
18191TIP3    H176064   3.395   4.479  15.639  0.1020  0.3123  0.6627
18191TIP3    H276065   3.306   4.598  15.667  1.9654  3.0143 -3.6607
18192TIP3   OH276066   0.754   6.609   4.069 -0.3210  0.1929  0.2821
18192TIP3    H176067   0.720   6.550   4.002  3.7253 -0.4534 -1.5385
18192TIP3    H276068   0.744   6.561   4.151 -0.4850 -1.4117 -0.6383
18193TIP3   OH276069   6.106   5.452  11.197 -0.2977 -0.1843  0.4137
18193TIP3    H176070   6.182   5.420  11.147  1.6595  2.1357  1.6949
18193TIP3    H276071   6.085   5.536  11.156 -0.9112  0.1010  1.2992
18194TIP3   OH276072   3.378   4.693   0.845 -0.8808  0.1231  0.7175
18194TIP3    H176073   3.431   4.772   0.855 -0.2294 -0.2759  0.5126
18194TIP3    H276074   3.298   4.722   0.801  0.5206  0.2513 -1.9769
18195TIP3   OH276075   5.918   1.571   2.911 -0.0741  0.3249  0.3415
18195TIP3    H176076   5.882   1.658   2.926 -2.0247 -0.4157  0.2538
18195TIP3    H276077   6.012   1.585   2.899 -0.6567  2.7504 -2.4630
18196TIP3   OH276078   5.647   1.916  15.524 -0.2058  0.3116 -0.0768
18196TIP3    H176079   5.668   2.009  15.522 -0.1183  0.2947  0.0111
18196TIP3    H276080   5.605   1.899  15.440 -2.2523  0.8948  0.7605
18197TIP3   OH276081   4.657   1.066   0.315  0.1711  0.1266  0.4042
18197TIP3    H176082   4.745   1.091   0.342 -0.5336  2.1129  1.1154
18197TIP3    H276083   4.611   1.046   0.396 -1.2617  3.6878  0.6560
18198TIP3   OH276084   2.776   1.443  12.606  0.0290  0.1238 -0.7612
18198TIP3    H176085   2.846   1.388  12.641  0.1315  1.4844  1.3349
18198TIP3    H276086   2.702   1.430  12.665 -0.1926  1.6229 -0.6663
18199TIP3   OH276087   1.577   2.370  15.349 -0.3235  0.3606  0.5446
18199TIP3    H176088   1.544   2.336  15.265 -0.4765 -1.9881  1.4821
18199TIP3    H276089   1.646   2.431  15.324 -1.5715  1.1229 -1.3250
18200TIP3   OH276090   4.796   5.196  16.765 -0.6168  0.4292 -0.3641
18200TIP3    H176091   4.841   5.202  16.681  0.7047  0.5127  0.3178
18200TIP3    H276092   4.816   5.108  16.797 -1.0278  0.4313 -0.0963
18201TIP3   OH276093   6.007   0.086  12.371  0.0686  0.1448  0.3536
18201TIP3    H176094   6.090   0.090  12.417  0.8958  1.5966 -1.1365
18201TIP3    H276095   5.963   0.168  12.395 -0.2648  0.0821 -0.0325
18202TIP3   OH276096   0.813   2.500   0.986 -0.2914  0.0835 -0.3650
18202TIP3    H176097   0.731   2.511   1.033 -0.2576 -0.3811 -0.1969
18202TIP3    H276098   0.834   2.407   0.994  0.3103  0.2186 -0.3021
18203TIP3   OH276099   2.109   2.208  13.651  0.7005  0.0060 -0.3403
18203TIP3    H176100   2.078   2.164  13.730 -0.6211 -0.5727 -1.1524
18203TIP3    H276101   2.089   2.147  13.580 -0.4826  1.5701 -1.4125
18204TIP3   OH276102   6.428   5.971   1.168 -0.0275  0.4783  0.5477
18204TIP3    H176103   6.446   6.060   1.200 -1.1649  1.7991 -2.1465
18204TIP3    H276104   6.488   5.961   1.094 -0.2835 -0.8326  0.5049
18205TIP3   OH276105   0.816   1.525   4.180 -0.1596 -0.1931  0.3904
18205TIP3    H176106   0.906   1.539   4.152 -0.3191 -0.3591 -0.2123
18205TIP3    H276107   0.824   1.467   4.256  0.2868  0.4644  0.8518
18206TIP3   OH276108   3.355   0.222   2.103  0.3079  0.1288 -0.0665
18206TIP3    H176109   3.343   0.201   2.195 -0.8323 -1.3277 -0.5105
18206TIP3    H276110   3.286   0.174   2.058  0.5030  1.2380 -1.6437
18207TIP3   OH276111   2.812   5.186   1.009  0.5393  0.2650 -0.3622
18207TIP3    H176112   2.775   5.169   1.096  0.9049 -0.6809 -0.3831
18207TIP3    H276113   2.792   5.108   0.958 -0.6912  1.2953 -1.5003
18208TIP3   OH276114   3.792   2.613  16.751 -0.4877  0.4521  0.0249
18208TIP3    H176115   3.773   2.695  16.794 -0.3764  1.9577 -2.5743
18208TIP3    H276116   3.878   2.588  16.784 -0.1646  1.8157  0.2699
18209TIP3   OH276117   5.661   1.358   4.349 -0.6527  0.3835 -0.1537
18209TIP3    H176118   5.676   1.295   4.279  0.9911  0.4346  0.1220
18209TIP3    H276119   5.595   1.418   4.313  0.6677  0.8405 -1.9599
18210TIP3   OH276120   5.445   4.773   2.298 -0.0470  0.3333  0.0749
18210TIP3    H176121   5.370   4.760   2.240  1.1634  0.0302 -1.5005
18210TIP3    H276122   5.438   4.864   2.327 -1.0280  0.2960 -0.0178
18211TIP3   OH276123   0.812   4.316   4.102 -0.2362 -0.2330  0.1658
18211TIP3    H176124   0.872   4.380   4.065 -1.6536  0.9929 -0.0788
18211TIP3    H276125   0.793   4.256   4.030 -0.1824  0.0323 -0.0694
18212TIP3   OH276126   1.495   6.434   4.067  0.4503  0.1333  0.4334
18212TIP3    H176127   1.572   6.387   4.098  0.5784  1.4135  2.1786
18212TIP3    H276128   1.421   6.383   4.098  0.4013 -2.3976 -3.1833
18213TIP3   OH276129   0.340   3.913   2.629 -0.7129  0.5866 -0.0637
18213TIP3    H176130   0.281   3.855   2.679 -1.6164 -0.0340 -1.7737
18213TIP3    H276131   0.313   3.902   2.538 -0.0581  2.7673 -0.5832
18214TIP3   OH276132   3.427   6.210   2.766  0.3772  0.6411  0.1068
18214TIP3    H176133   3.484   6.164   2.705 -0.6393 -1.8081  0.8705
18214TIP3    H276134   3.348   6.157   2.770 -0.7206  2.2688  1.3988
18215TIP3   OH276135   3.818   5.883   5.082 -0.0907 -0.4604 -0.4426
18215TIP3    H176136   3.760   5.956   5.103 -1.4550 -0.9661 -2.1678
18215TIP3    H276137   3.906   5.915   5.105 -0.9830  0.3236  2.2521
18216TIP3   OH276138   1.057   3.548   1.074  0.6535  0.7541 -0.2365
18216TIP3    H176139   1.044   3.457   1.047  2.0880  0.5840 -0.4564
18216TIP3    H276140   0.970   3.580   1.097 -0.3855  0.2701 -3.0914
18217TIP3   OH276141   3.627   3.720  12.604  0.0855  0.1696 -0.4968
18217TIP3    H176142   3.532   3.706  12.609 -0.1884  1.5992 -1.1724
18217TIP3    H276143   3.644   3.729  12.511  0.4710  2.3877 -0.2538
18218TIP3   OH276144   4.626   1.736  11.562 -0.6097 -0.3028  0.0576
18218TIP3    H176145   4.608   1.687  11.642 -1.3681  0.0777  0.1260
18218TIP3    H276146   4.590   1.823  11.578  0.1016  0.0715 -0.3306
18219TIP3   OH276147   5.797   3.133   4.849  0.3957  0.3121  0.8671
18219TIP3    H176148   5.717   3.186   4.854  0.1081 -0.1043  0.7098
18219TIP3    H276149   5.772   3.057   4.796  0.9466  0.2705  0.6630
18220TIP3   OH276150   0.197   5.315   1.489 -0.1259  0.0171  0.3486
18220TIP3    H176151   0.209   5.239   1.432  0.3527 -0.4633  1.0748
18220TIP3    H276152   0.148   5.378   1.436 -0.2023 -0.6540 -0.3849
18221TIP3   OH276153   6.399   0.380   1.981  0.2174 -0.2652 -0.2127
18221TIP3    H176154   6.343   0.418   1.913  0.5989 -2.6427 -1.9856
18221TIP3    H276155   6.340   0.324   2.032  0.5341 -1.0851 -0.7247
18222TIP3   OH276156   1.001   6.765   5.665 -0.1683  0.1306  0.0670
18222TIP3    H176157   0.938   6.738   5.599  1.9362  1.0351 -2.4702
18222TIP3    H276158   0.948   6.788   5.742 -2.6512 -1.6704 -1.0025
18223TIP3   OH276159   4.251   0.549   4.415 -0.5334  0.0131 -0.5275
18223TIP3    H176160   4.189   0.607   4.372 -0.8013 -1.5133 -2.3358
18223TIP3    H276161   4.334   0.563   4.370 -0.1758  0.2191  0.1799
18224TIP3   OH276162   6.589   0.081   1.114 -0.4471 -0.4393  0.1133
18224TIP3    H176163   6.571   0.138   1.188 -0.0958  0.2497 -0.3108
18224TIP3    H276164   6.504   0.062   1.076 -0.6788 -1.3084  1.0599
18225TIP3   OH276165   2.035   6.524  13.772 -0.0071 -0.2954 -0.1895
18225TIP3    H176166   2.035   6.457  13.840 -0.4139  1.1580  1.3156
18225TIP3    H276167   2.126   6.531  13.744  0.8095  1.2110  2.4877
18226TIP3   OH276168   4.253   3.320  13.370 -0.1133  0.3932 -0.9629
18226TIP3    H176169   4.332   3.344  13.322  0.0125 -0.7964 -1.4060
18226TIP3    H276170   4.269   3.348  13.460  1.4629 -1.1055 -0.7196
18227TIP3   OH276171   3.795   5.083  11.291  0.5034 -0.7491 -0.2080
18227TIP3    H176172   3.736   5.158  11.287  1.3820 -0.1077 -1.6127
18227TIP3    H276173   3.808   5.068  11.385 -2.1540 -1.1612  0.1793
18228TIP3   OH276174   4.897   2.448  16.823  0.1997 -0.3249  0.6119
18228TIP3    H176175   4.979   2.485  16.855 -0.2208  0.2566  1.0423
18228TIP3    H276176   4.866   2.509  16.756 -0.5301  0.1701  1.3724
18229TIP3   OH276177   2.497   5.714   0.755 -0.4576  0.0310  0.2917
18229TIP3    H176178   2.488   5.809   0.746  0.5939  0.2323  1.1910
18229TIP3    H276179   2.555   5.688   0.683  1.0107  0.4059  1.2959
18230TIP3   OH276180   1.511   4.350   5.053 -0.1059 -0.3804 -0.5897
18230TIP3    H176181   1.459   4.271   5.066 -0.3985  0.1074  1.6877
18230TIP3    H276182   1.486   4.407   5.126  2.7518  0.3637 -0.0873
18231TIP3   OH276183   1.091   5.224   0.957  0.3354 -0.3640  0.5208
18231TIP3    H176184   0.998   5.202   0.970 -0.3219  1.6666 -0.4863
18231TIP3    H276185   1.124   5.241   1.045 -0.5622  0.0912  0.7735
18232TIP3   OH276186   2.701   3.920   4.873 -0.3822  0.2377  0.4666
18232TIP3    H176187   2.769   3.964   4.924  0.3947  1.2053 -1.3169
18232TIP3    H276188   2.627   3.980   4.873 -0.8233 -0.2802  1.3865
18233TIP3   OH276189   3.282   0.896  15.547  0.5422 -0.0099  0.2935
18233TIP3    H176190   3.293   0.801  15.557  1.4556  0.0609  0.0897
18233TIP3    H276191   3.324   0.916  15.463 -0.6352  0.4261 -0.2063
18234TIP3   OH276192   3.030   1.642   2.974 -0.3345  0.3296 -0.2053
18234TIP3    H176193   3.009   1.576   2.908 -2.6241 -1.3254  1.9991
18234TIP3    H276194   2.953   1.699   2.976  0.2368  1.1041  0.2047
18235TIP3   OH276195   6.279   1.830  16.860  0.2924 -0.2877 -0.2566
18235TIP3    H176196   6.224   1.770  16.911  2.0588 -1.5168  0.3252
18235TIP3    H276197   6.266   1.915  16.901 -1.3014 -0.4750 -0.2793
18236TIP3   OH276198   1.624   5.555   0.205 -0.7597 -0.3292  0.2046
18236TIP3    H176199   1.658   5.640   0.177 -0.7910 -0.7599 -1.1962
18236TIP3    H276200   1.587   5.572   0.292  0.4217  0.7838  0.5243
18237TIP3   OH276201   5.033   0.729  16.803 -0.0807  0.2922  0.4826
18237TIP3    H176202   4.968   0.791  16.835  1.3020  1.7358  0.6213
18237TIP3    H276203   4.982   0.662  16.757 -1.7030  0.9009  1.3172
18238TIP3   OH276204   3.215   3.650  14.037 -0.1389  0.2092 -0.1267
18238TIP3    H176205   3.141   3.619  14.090  0.9642  2.1308  2.7937
18238TIP3    H276206   3.287   3.656  14.099  1.9206  0.4993 -2.4096
18239TIP3   OH276207   0.122   0.682   0.212 -1.0689 -0.5164 -0.1090
18239TIP3    H176208   0.031   0.686   0.243 -0.1820  0.6625  2.6117
18239TIP3    H276209   0.148   0.591   0.225 -1.2957 -0.4385  0.9058
18240TIP3   OH276210   6.763   4.183   6.372 -0.6120  0.6943  0.5506
18240TIP3    H176211   6.839   4.151   6.420 -0.5473 -0.4984 -0.2922
18240TIP3    H276212   6.780   4.158   6.281 -2.9385 -1.6109  0.6123
18241TIP3   OH276213   1.427   1.174   0.725 -0.5997 -1.0825 -0.1574
18241TIP3    H176214   1.363   1.107   0.702 -0.3887 -0.7316 -1.9038
18241TIP3    H276215   1.495   1.127   0.772 -0.8721 -1.9356 -0.5953
18242TIP3   OH276216   5.071   5.806  11.680 -0.7012  0.0050  0.3998
18242TIP3    H176217   5.043   5.891  11.647  0.4838  0.5464  0.7511
18242TIP3    H276218   5.024   5.742  11.626 -1.3283  0.8771 -0.1014
18243TIP3   OH276219   0.118   6.359   2.189 -0.0983  0.1427  0.1142
18243TIP3    H176220   0.154   6.283   2.142  1.0266 -0.0481  1.2468
18243TIP3    H276221   0.027   6.335   2.207  1.1645 -2.8181  3.9867
18244TIP3   OH276222   6.796   1.170  10.385  0.0798  0.2004  0.1701
18244TIP3    H176223   6.796   1.117  10.305 -0.6222 -0.0741  0.3454
18244TIP3    H276224   6.759   1.113  10.452 -0.1337  0.7118  0.4960
18245TIP3   OH276225   5.498   0.727   2.214 -0.5537  0.1920 -0.3964
18245TIP3    H176226   5.493   0.644   2.166 -1.2199 -0.2811  0.4683
18245TIP3    H276227   5.550   0.784   2.158  1.2538 -1.2929 -0.3086
18246TIP3   OH276228   5.701   0.354   2.853 -0.0036  0.0577 -0.5609
18246TIP3    H176229   5.658   0.302   2.785  2.1546  0.7100 -2.5196
18246TIP3    H276230   5.779   0.389   2.812  0.9173  1.2969  2.0058
18247TIP3   OH276231   3.583   1.605  13.524  0.3508 -0.3619  0.5374
18247TIP3    H176232   3.546   1.594  13.611 -1.8077 -0.0188 -0.2662
18247TIP3    H276233   3.668   1.561  13.528  1.1140  1.1401  3.2773
18248TIP3   OH276234   4.640   1.288   3.277 -0.2721 -0.0855 -0.2248
18248TIP3    H176235   4.689   1.349   3.221  0.8114 -1.3022 -0.6537
18248TIP3    H276236   4.668   1.201   3.248 -1.4339 -0.7869  0.6769
18249TIP3   OH276237   2.582   2.769  13.036  0.2031 -0.4276  0.0833
18249TIP3    H176238   2.591   2.861  13.009  0.8334 -0.9245 -1.4928
18249TIP3    H276239   2.581   2.720  12.954 -2.1863 -1.7017  0.7672
18250TIP3   OH276240   1.657   0.745   4.237  0.2291  0.3975  0.4391
18250TIP3    H176241   1.672   0.809   4.306  0.6755  1.0083 -0.2092
18250TIP3    H276242   1.570   0.767   4.203 -1.0294 -1.3678  2.3211
18251TIP3   OH276243   5.396   4.540  14.322 -0.4488  0.4047  0.1183
18251TIP3    H176244   5.485   4.518  14.296 -0.1184  0.9386  0.7559
18251TIP3    H276245   5.376   4.478  14.392  0.3632  1.8263  1.6917
18252TIP3   OH276246   6.765   0.756   0.520  0.1926 -0.4668 -0.1929
18252TIP3    H176247   6.792   0.677   0.566  0.6954 -0.7277 -0.9195
18252TIP3    H276248   6.838   0.817   0.530  0.6912 -0.8427 -1.3770
18253TIP3   OH276249   5.176   0.054  12.488 -0.0524 -0.4349  0.0024
18253TIP3    H176250   5.201   0.009  12.407  2.0900  1.3978 -0.4323
18253TIP3    H276251   5.259   0.078  12.530 -1.1112 -0.5508  2.3390
18254TIP3   OH276252   0.408   0.558   1.114 -0.0264 -0.3275  0.8859
18254TIP3    H176253   0.434   0.603   1.034  2.6593 -0.5333  1.5350
18254TIP3    H276254   0.396   0.467   1.088  0.4200 -0.3154  0.6267
18255TIP3   OH276255   5.956   0.093  11.355  0.2432 -0.1371 -0.1237
18255TIP3    H176256   5.949   0.022  11.291 -0.7438  0.6038 -0.8701
18255TIP3    H276257   6.035   0.073  11.405  0.4050 -1.3389 -0.8330
18256TIP3   OH276258   6.016   4.224  15.935 -0.2269  0.3464  0.0069
18256TIP3    H176259   5.965   4.181  16.005  0.3252 -2.1970 -1.0288
18256TIP3    H276260   5.958   4.292  15.902 -1.8579 -0.6131  0.7213
18257TIP3   OH276261   6.726   5.599  11.410  0.3337 -0.0565 -0.4050
18257TIP3    H176262   6.792   5.660  11.377 -0.0787  0.7216  0.1891
18257TIP3    H276263   6.757   5.573  11.497 -0.0888  0.2316 -0.1659
18258TIP3   OH276264   0.389   5.975  15.030 -0.5219 -0.9273 -0.0532
18258TIP3    H176265   0.446   5.980  14.953  0.1331  2.1019  0.5218
18258TIP3    H276266   0.306   6.011  15.001 -0.4531 -0.3158  0.4980
18259TIP3   OH276267   4.705   5.207  13.246  0.3812 -0.3517  0.1516
18259TIP3    H176268   4.740   5.167  13.166  1.1873 -2.3892  1.4403
18259TIP3    H276269   4.616   5.234  13.222  1.1893  0.6823 -1.8874
18260TIP3   OH276270   2.078   0.371   1.438 -0.3402  0.4611  0.4651
18260TIP3    H176271   2.050   0.400   1.351  3.3530  2.0946 -0.3529
18260TIP3    H276272   2.132   0.293   1.422 -0.1649  0.3759  1.3755
18261TIP3   OH276273   1.150   6.274   5.017 -0.0717  0.1738  0.4452
18261TIP3    H176274   1.219   6.269   4.951 -0.2480  1.8638  0.0894
18261TIP3    H276275   1.101   6.193   5.007  1.7347 -1.0056  0.5935
18262TIP3   OH276276   0.879   4.284  14.738 -0.7426  0.8843  0.7159
18262TIP3    H176277   0.850   4.215  14.798  1.0815  1.4326  2.3153
18262TIP3    H276278   0.825   4.360  14.762 -0.4134  0.9443  1.2696
18263TIP3   OH276279   2.388   0.388  12.706  0.3024 -0.0020 -0.1869
18263TIP3    H176280   2.372   0.477  12.738 -1.7982 -0.8023  1.1796
18263TIP3    H276281   2.347   0.386  12.619 -1.8953 -0.2914  0.8038
18264TIP3   OH276282   6.773   6.495   3.549 -0.2106  0.2352  0.4364
18264TIP3    H176283   6.701   6.510   3.488 -0.6862 -2.5036  0.2395
18264TIP3    H276284   6.747   6.419   3.601  2.1677 -0.3508  0.9149
18265TIP3   OH276285   4.088   6.570  13.044 -0.5948  0.0067  0.9322
18265TIP3    H176286   4.102   6.664  13.053  0.7054 -0.2838  2.5923
18265TIP3    H276287   4.154   6.542  12.980 -0.3509  0.1051  1.1365
18266TIP3   OH276288   3.663   6.608   5.958  0.0845  0.3737 -0.3323
18266TIP3    H176289   3.758   6.596   5.968 -0.3578 -1.7350  2.9788
18266TIP3    H276290   3.638   6.552   5.885  1.2886  0.3786 -0.7675
18267TIP3   OH276291   1.742   0.810   5.120 -0.1798 -0.7440  0.1223
18267TIP3    H176292   1.667   0.820   5.179  1.0935 -1.7804  2.0359
18267TIP3    H276293   1.799   0.884   5.142  0.1002 -0.8772 -0.1569
18268TIP3   OH276294   5.031   0.422  15.322 -0.5822 -0.5270 -0.3464
18268TIP3    H176295   5.126   0.418  15.328 -0.4941  0.3874 -0.9326
18268TIP3    H276296   5.005   0.333  15.298  0.1762 -0.6591 -0.7278
18269TIP3   OH276297   0.110   5.942  15.780  0.3825 -0.5387  0.1955
18269TIP3    H176298   0.184   5.980  15.829  0.3561 -1.2001  0.7737
18269TIP3    H276299   0.096   5.857  15.822 -1.5003  0.0752  0.9042
18270TIP3   OH276300   1.970   0.141   0.335  0.0942 -0.2004  0.0170
18270TIP3    H176301   2.008   0.118   0.420 -0.6368  0.4009  0.5181
18270TIP3    H276302   2.034   0.202   0.297  1.4194 -2.0015 -0.7753
18271TIP3   OH276303   3.935   3.863   4.005 -0.1813  0.5003  0.0148
18271TIP3    H176304   3.840   3.872   4.001 -0.1827  0.7389  0.5047
18271TIP3    H276305   3.953   3.833   4.094  0.1297 -0.5024 -0.3668
18272TIP3   OH276306   0.787   0.857   0.785  0.0173  0.4315  0.1849
18272TIP3    H176307   0.751   0.870   0.873  0.3043 -2.2925  0.8130
18272TIP3    H276308   0.710   0.852   0.728 -0.1606  2.4856  0.1633
18273TIP3   OH276309   6.307   6.344  11.628 -0.0858 -0.1849 -0.1718
18273TIP3    H176310   6.269   6.310  11.709 -0.1343  1.4031  0.5204
18273TIP3    H276311   6.400   6.355  11.648 -0.1431  0.4512 -0.2204
18274TIP3   OH276312   6.332   3.027  16.510 -0.3701 -0.2363  0.3020
18274TIP3    H176313   6.247   3.020  16.467 -0.9959 -1.1188  1.6005
18274TIP3    H276314   6.375   2.944  16.491  0.1709  0.1693 -0.2695
18275TIP3   OH276315   0.974   3.427   0.756 -0.4258 -0.3714 -0.5719
18275TIP3    H176316   0.946   3.378   0.678 -0.5904 -2.0410  0.4811
18275TIP3    H276317   1.035   3.368   0.800 -1.9832 -0.4307  1.6862
18276TIP3   OH276318   6.743   2.052   2.112 -0.1369  0.1736  0.4805
18276TIP3    H176319   6.648   2.055   2.106 -0.1347  1.1748  0.8668
18276TIP3    H276320   6.773   2.057   2.021 -0.4651 -2.2118  0.1681
18277TIP3   OH276321   2.541   1.091   0.435 -0.4304 -0.7515 -0.0995
18277TIP3    H176322   2.516   1.072   0.525 -0.8255 -0.9096 -0.2434
18277TIP3    H276323   2.634   1.066   0.430 -0.0679  0.3590  0.5890
18278TIP3   OH276324   0.637   5.333  12.394  0.0325  0.0016  0.0769
18278TIP3    H176325   0.702   5.262  12.394 -0.3573 -0.4085 -1.7526
18278TIP3    H276326   0.670   5.396  12.330 -1.3914 -0.2614 -0.9596
18279TIP3   OH276327   3.516   3.210   4.412  0.1883 -0.1434  0.3893
18279TIP3    H176328   3.537   3.157   4.488  2.2875  0.1658  0.0938
18279TIP3    H276329   3.556   3.163   4.338 -0.6914  0.2210 -0.3377
18280TIP3   OH276330   3.985   1.293  11.237  0.1477 -0.7708 -0.7001
18280TIP3    H176331   3.985   1.374  11.289  1.2947 -2.1111  1.5412
18280TIP3    H276332   3.894   1.264  11.238  0.1464 -0.7935  0.6672
18281TIP3   OH276333   4.793   0.664   2.262  0.1327  0.1727 -0.4612
18281TIP3    H176334   4.877   0.691   2.298 -1.2899  3.3417  0.8967
18281TIP3    H276335   4.747   0.623   2.335 -0.0114 -0.3647 -0.8434
18282TIP3   OH276336   0.594   3.341   0.721 -0.1417 -0.0764  0.4829
18282TIP3    H176337   0.627   3.356   0.810 -0.2941  0.3621  0.4700
18282TIP3    H276338   0.564   3.250   0.722 -0.3840  0.0026  0.9615
18283TIP3   OH276339   0.466   4.631  15.220  0.3682 -0.6081 -0.0057
18283TIP3    H176340   0.425   4.579  15.289 -0.2549  1.1620  1.0278
18283TIP3    H276341   0.516   4.698  15.267  0.9270 -0.1118 -1.2681
18284TIP3   OH276342   6.651   1.038   2.288 -0.5122  0.4331 -0.5779
18284TIP3    H176343   6.596   1.001   2.219  1.6702 -1.2562 -1.5556
18284TIP3    H276344   6.739   1.038   2.251  0.1648  3.3483  0.7818
18285TIP3   OH276345   2.028   3.558   5.809  0.3999 -0.1567 -0.1298
18285TIP3    H176346   1.963   3.603   5.863 -3.0868 -2.6543 -1.8712
18285TIP3    H276347   2.028   3.606   5.726  0.5663 -0.3356 -0.2337
18286TIP3   OH276348   4.227   0.820  16.193  0.5479  0.4647  0.1852
18286TIP3    H176349   4.239   0.790  16.283  0.4759 -0.1130  0.0038
18286TIP3    H276350   4.306   0.791  16.147  1.5054  2.4088  0.4755
18287TIP3   OH276351   4.030   2.506  16.857  0.5101  0.4208 -0.0901
18287TIP3    H176352   3.992   2.503  16.945  0.1743  1.7971 -0.1766
18287TIP3    H276353   4.082   2.425  16.851  1.0590  0.6059  1.6021
18288TIP3   OH276354   4.231   6.604   4.688  0.3588 -0.6487 -0.2626
18288TIP3    H176355   4.290   6.656   4.635  1.6398 -1.2811  0.4947
18288TIP3    H276356   4.212   6.658   4.764 -2.0823  0.5714 -1.6152
18289TIP3   OH276357   6.151   1.848  12.298  0.0535 -0.6028  0.3943
18289TIP3    H176358   6.226   1.791  12.315 -0.4935 -1.3822  0.2370
18289TIP3    H276359   6.186   1.936  12.307  0.8010 -0.9636  1.1392
18290TIP3   OH276360   5.635   3.381   0.335  0.0470 -0.0843 -0.1793
18290TIP3    H176361   5.550   3.340   0.318  0.3086 -0.4758 -0.5621
18290TIP3    H276362   5.651   3.365   0.428 -0.6380  0.6441  0.0760
18291TIP3   OH276363   2.678   2.226  11.909  0.6009 -0.0741 -0.1933
18291TIP3    H176364   2.773   2.236  11.920  0.6619  1.3636 -1.6004
18291TIP3    H276365   2.644   2.315  11.917 -0.2983 -0.1830 -2.2483
18292TIP3   OH276366   0.208   2.731  13.797  0.3117  0.5638  0.3855
18292TIP3    H176367   0.177   2.778  13.720 -0.7133 -0.7784 -0.0670
18292TIP3    H276368   0.277   2.673  13.764  0.4886  0.6276  0.6410
18293TIP3   OH276369   4.132   5.276  16.110  0.2221  0.3693 -0.1583
18293TIP3    H176370   4.083   5.203  16.073 -2.0594  1.1611  1.0975
18293TIP3    H276371   4.098   5.286  16.199  1.0380  2.4385 -0.0116
18294TIP3   OH276372   4.330   0.449   0.476 -0.2457  0.0613 -0.2843
18294TIP3    H176373   4.391   0.395   0.526  0.9470  1.4044 -0.2213
18294TIP3    H276374   4.297   0.513   0.539 -0.6048  0.2618 -0.6706
18295TIP3   OH276375   1.792   3.082   2.937 -0.2241 -0.8527  1.0649
18295TIP3    H176376   1.732   3.022   2.894 -1.8717  1.8216 -0.6988
18295TIP3    H276377   1.741   3.162   2.949  2.1190  0.5615  2.3375
18296TIP3   OH276378   1.022   3.529  12.923 -0.2725 -0.8152  0.3439
18296TIP3    H176379   0.959   3.532  12.995 -0.5212 -2.2001  0.2165
18296TIP3    H276380   1.061   3.442  12.929  0.7338 -0.4358 -0.3496
18297TIP3   OH276381   0.526   4.427  15.465  0.1535  0.1867  0.3560
18297TIP3    H176382   0.595   4.414  15.530  0.4559  1.5718  0.3360
18297TIP3    H276383   0.569   4.408  15.381  0.5508  1.0921  0.3385
18298TIP3   OH276384   5.286   1.791   1.035 -0.1095  0.0318 -0.3129
18298TIP3    H176385   5.272   1.871   0.984 -0.7366 -0.5579 -1.0944
18298TIP3    H276386   5.348   1.740   0.983  1.3853  0.6052  0.8717
18299TIP3   OH276387   5.048   2.964  13.835  0.2301 -0.3853 -0.4906
18299TIP3    H176388   5.027   3.036  13.896  0.5112 -0.7985  0.1069
18299TIP3    H276389   5.144   2.957  13.839  0.5153  1.2040 -2.8637
18300TIP3   OH276390   5.546   6.539  16.795 -0.2374  0.5687 -0.0411
18300TIP3    H176391   5.553   6.608  16.861  0.8993 -1.0360  1.6472
18300TIP3    H276392   5.634   6.534  16.757 -0.7250  1.0621 -1.2533
18301TIP3   OH276393   3.886   1.554   0.682  0.1169 -0.0936 -0.2979
18301TIP3    H176394   3.930   1.472   0.660  3.0439  1.6460 -1.6093
18301TIP3    H276395   3.842   1.580   0.601 -0.5262 -0.2025  0.0148
18302TIP3   OH276396   0.929   0.926  16.690 -0.3393 -0.4516  0.1099
18302TIP3    H176397   1.008   0.871  16.693 -1.1129 -1.5425  2.1146
18302TIP3    H276398   0.962   1.014  16.673  0.9952 -1.3298 -2.5968
18303TIP3   OH276399   2.729   1.454   1.226  0.1742  0.1791  0.4963
18303TIP3    H176400   2.649   1.408   1.248  0.4033 -0.4554  0.0344
18303TIP3    H276401   2.703   1.517   1.158  0.1510 -0.3666 -0.0099
18304TIP3   OH276402   5.118   6.570  13.249 -0.1517  0.4790  0.2146
18304TIP3    H176403   5.051   6.506  13.222 -1.7001  1.5704  1.2674
18304TIP3    H276404   5.200   6.521  13.246 -0.8258 -0.6599 -2.0557
18305TIP3   OH276405   2.102   3.542  12.136  0.6139  0.2407  0.0583
18305TIP3    H176406   2.077   3.626  12.097 -1.0107 -0.4363 -0.4569
18305TIP3    H276407   2.146   3.566  12.218  1.6996  1.6132 -0.8631
18306TIP3   OH276408   5.716   3.282   1.117  0.2678 -0.4033  0.1133
18306TIP3    H176409   5.741   3.346   1.184  0.3440 -0.5455  0.2237
18306TIP3    H276410   5.769   3.204   1.138  1.0120 -0.1269 -0.6983
18307TIP3   OH276411   1.829   4.902  15.995  0.7815  0.9867  0.3500
18307TIP3    H176412   1.814   4.994  16.019  0.6138  0.9209  0.5014
18307TIP3    H276413   1.744   4.861  16.004  0.7163  0.9554 -0.3641
18308TIP3   OH276414   2.053   3.462  11.807  0.3305 -0.7710  0.0891
18308TIP3    H176415   2.140   3.424  11.819 -0.0230 -1.4707  0.4901
18308TIP3    H276416   2.055   3.543  11.857  0.2643 -1.5461  1.3870
18309TIP3   OH276417   6.557   0.047   4.663 -0.5386 -0.1547 -0.2360
18309TIP3    H176418   6.574  -0.038   4.624  2.6862 -0.2637  1.0987
18309TIP3    H276419   6.627   0.103   4.629 -0.1174  0.8246  2.0583
18310TIP3   OH276420   1.431   0.346   0.218  0.0488  0.3151 -0.4928
18310TIP3    H176421   1.517   0.387   0.222 -0.2132  0.8438 -0.0867
18310TIP3    H276422   1.444   0.258   0.252  0.6590 -0.0250 -1.5447
18311TIP3   OH276423   5.230   3.555   3.355 -0.0619  0.9975  0.7235
18311TIP3    H176424   5.208   3.641   3.319  0.5138  0.8064 -0.1267
18311TIP3    H276425   5.316   3.566   3.395 -0.8214  1.2827  2.3833
18312TIP3   OH276426   5.456   2.210   3.087  0.0717 -0.1936 -0.0173
18312TIP3    H176427   5.459   2.291   3.137 -0.7905  0.5799 -1.1664
18312TIP3    H276428   5.422   2.235   3.001 -1.2110 -1.9176 -0.0863
18313TIP3   OH276429   0.007   2.738   0.294  0.2163  0.1121  0.1845
18313TIP3    H176430   0.070   2.800   0.332  0.8371  0.1986 -0.9303
18313TIP3    H276431  -0.049   2.791   0.238  0.0904 -0.1767  0.0309
18314TIP3   OH276432   5.120   5.175  16.227 -0.1135 -0.3998  0.3003
18314TIP3    H176433   5.148   5.131  16.147  0.5786  0.9760 -0.2532
18314TIP3    H276434   5.039   5.219  16.203  0.5148  0.6784  0.0972
18315TIP3   OH276435   1.433   0.095  12.051 -0.8641 -0.2685 -0.2413
18315TIP3    H176436   1.525   0.121  12.057 -0.5861 -0.5800 -2.3540
18315TIP3    H276437   1.386   0.175  12.029 -0.7869 -0.4825 -1.2268
18316TIP3   OH276438   2.379   1.913  15.024 -0.5185 -0.2291  0.2823
18316TIP3    H176439   2.469   1.943  15.031 -0.7289  1.1178 -1.8325
18316TIP3    H276440   2.326   1.991  15.041 -1.1553 -0.1086 -1.8371
18317TIP3   OH276441   2.426   0.788   5.789  0.2908 -0.1845 -0.4312
18317TIP3    H176442   2.458   0.874   5.817 -1.6477  0.4118  0.1082
18317TIP3    H276443   2.398   0.745   5.870 -1.5274 -0.1066 -0.9863
18318TIP3   OH276444   3.768   6.049   5.917 -0.0191  0.1372  0.4898
18318TIP3    H176445   3.690   5.996   5.899  0.0595 -0.2117  1.1591
18318TIP3    H276446   3.809   6.060   5.831 -0.0931 -0.8019  0.3192
18319TIP3   OH276447   2.705   1.356   3.590 -0.6827  0.5868 -0.4757
18319TIP3    H176448   2.791   1.326   3.562 -0.1996  1.2697  0.2394
18319TIP3    H276449   2.655   1.275   3.606 -0.2272  0.1923 -1.0369
18320TIP3   OH276450   6.161   3.234  11.320  0.3786  0.3211 -0.0882
18320TIP3    H176451   6.109   3.285  11.382 -1.9966 -1.1937 -0.7218
18320TIP3    H276452   6.213   3.299  11.274  0.2339  1.7518  1.6383
18321TIP3   OH276453   3.355   6.421   5.960 -0.3683 -0.9353 -0.4179
18321TIP3    H176454   3.335   6.328   5.961 -0.0772 -1.0154  1.3993
18321TIP3    H276455   3.314   6.456   6.039  1.2875  0.0671  0.0604
18322TIP3   OH276456   3.245   1.884   5.359  0.3894  0.1874 -0.1566
18322TIP3    H176457   3.298   1.829   5.415  1.0020  0.9491  0.0338
18322TIP3    H276458   3.263   1.974   5.388 -3.5080  0.4368  2.1726
18323TIP3   OH276459   6.472   5.152   6.107  0.0237  0.6632 -0.4101
18323TIP3    H176460   6.407   5.130   6.174 -1.1655  2.0340 -1.0438
18323TIP3    H276461   6.546   5.095   6.125 -0.7898  0.0757  1.2532
18324TIP3   OH276462   2.382   5.671   2.028 -0.1650  0.0562  0.8472
18324TIP3    H176463   2.386   5.764   2.006 -2.0730  0.8486  3.3588
18324TIP3    H276464   2.336   5.630   1.954 -0.3987  1.2977  0.2890
18325TIP3   OH276465   5.653   1.989  12.627 -0.5213 -0.4516 -0.3358
18325TIP3    H176466   5.726   2.048  12.613  0.2581 -0.3192  3.3027
18325TIP3    H276467   5.575   2.045  12.620  0.1339  0.8123  1.6931
18326TIP3   OH276468   2.722   5.364  14.012 -0.9266 -0.0098  0.4379
18326TIP3    H176469   2.787   5.303  13.978 -1.4751  0.0013 -0.6684
18326TIP3    H276470   2.774   5.436  14.049 -0.3067 -0.1232 -0.1972
18327TIP3   OH276471   4.224   4.065  11.157 -0.3692 -0.2219  0.4408
18327TIP3    H176472   4.183   4.133  11.210 -0.4996 -0.0449  0.1165
18327TIP3    H276473   4.226   4.101  11.068  1.5462  0.2498  0.6360
18328TIP3   OH276474   2.334   4.917  17.048 -0.0694  0.2363 -0.1966
18328TIP3    H176475   2.423   4.909  17.082  0.2543  0.7467 -0.9057
18328TIP3    H276476   2.287   4.842  17.086  0.6959 -0.1204  0.0596
18329TIP3   OH276477   4.453   6.771   5.758 -0.2905 -0.3305 -0.3632
18329TIP3    H176478   4.494   6.857   5.749  0.6893 -0.8116 -0.7164
18329TIP3    H276479   4.525   6.713   5.782 -0.2679 -1.6207 -3.1135
18330TIP3   OH276480   4.112   1.684   1.945 -0.0642 -0.6026 -0.3094
18330TIP3    H176481   4.199   1.723   1.955  0.2153 -1.5026  1.0672
18330TIP3    H276482   4.078   1.721   1.863  0.8145  1.2589  0.1171
18331TIP3   OH276483   4.036   0.870   5.003 -0.5316 -0.8310  0.1200
18331TIP3    H176484   4.015   0.874   4.909 -0.8892 -0.5158  0.2107
18331TIP3    H276485   4.094   0.944   5.018  0.9340 -1.8770 -0.1906
18332TIP3   OH276486   3.943   3.676  15.222 -0.2407  0.0405  0.5118
18332TIP3    H176487   3.892   3.594  15.225 -0.3724  0.1371  2.6353
18332TIP3    H276488   4.022   3.653  15.172 -1.7247 -0.4592 -1.7276
18333TIP3   OH276489   5.057   1.003  15.527 -0.8066  0.1288 -0.5619
18333TIP3    H176490   4.981   0.953  15.554 -0.1447 -0.9385 -0.6159
18333TIP3    H276491   5.037   1.029  15.437 -1.2521  0.1515 -0.4579
18334TIP3   OH276492   1.083   2.737   3.167  0.1183  0.3828  0.1399
18334TIP3    H176493   1.160   2.717   3.114  0.1103  0.8788 -0.0578
18334TIP3    H276494   1.051   2.651   3.195  0.3679  0.1411 -0.3084
18335TIP3   OH276495   0.156   0.866  15.049  0.2977 -0.6049  0.5232
18335TIP3    H176496   0.148   0.962  15.050  0.0304 -0.5854 -0.8825
18335TIP3    H276497   0.216   0.846  15.121 -0.0169  0.5781  1.1457
18336TIP3   OH276498   4.939   4.260  11.207  0.0716 -0.6109  0.0277
18336TIP3    H176499   4.857   4.298  11.239 -0.0360 -0.8186  0.0036
18336TIP3    H276500   4.981   4.226  11.286  0.3760 -0.0485  0.1082
18337TIP3   OH276501   1.222   5.086  15.533  0.5285  0.5177 -0.1307
18337TIP3    H176502   1.300   5.062  15.583  1.0072  2.9801  0.4596
18337TIP3    H276503   1.255   5.135  15.458 -0.3847  0.1193 -0.8116
18338TIP3   OH276504   5.169   1.474   2.447  0.1453 -0.3952 -0.4024
18338TIP3    H176505   5.229   1.400   2.444 -1.2180 -1.5280 -0.7055
18338TIP3    H276506   5.083   1.436   2.430 -0.4227  1.4616 -2.0455
18339TIP3   OH276507   5.205   4.944  16.329 -0.1724  0.0891 -0.0085
18339TIP3    H176508   5.193   5.037  16.310 -0.0149  0.2042  0.4517
18339TIP3    H276509   5.128   4.920  16.382  0.8211  0.4774  1.6909
18340TIP3   OH276510   2.228   1.028   5.896 -0.2496 -0.2359 -0.4647
18340TIP3    H176511   2.270   1.064   5.974 -0.3777  0.2634 -0.6229
18340TIP3    H276512   2.245   1.093   5.828  2.2959 -1.8939 -1.5971
18341TIP3   OH276513   6.735   0.245   3.635 -0.5732  0.1773  0.0791
18341TIP3    H176514   6.750   0.154   3.662 -1.9147  0.2408  1.1119
18341TIP3    H276515   6.640   0.252   3.624 -0.3442  0.9286 -2.0171
18342TIP3   OH276516   4.638   2.453   6.049  0.0926  0.5715  0.5464
18342TIP3    H176517   4.589   2.413   6.121 -0.0767  1.2816  0.8337
18342TIP3    H276518   4.691   2.521   6.091  0.1611  0.8398  0.0294
18343TIP3   OH276519   1.518   2.520   1.300  0.0191  0.5043  0.0776
18343TIP3    H176520   1.575   2.585   1.258 -0.9121  1.5305  0.3656
18343TIP3    H276521   1.476   2.568   1.371  0.2737 -0.7663  1.1042
18344TIP3   OH276522   2.270   5.286  11.586 -0.0739 -0.4716  0.5290
18344TIP3    H176523   2.320   5.281  11.505  0.5184 -2.6112  0.9775
18344TIP3    H276524   2.314   5.354  11.638  0.8405 -0.5905 -0.0813
18345TIP3   OH276525   6.749   6.279  15.378  0.3637 -0.1827 -0.1777
18345TIP3    H176526   6.814   6.224  15.336  0.4952 -0.6564  0.6393
18345TIP3    H276527   6.710   6.329  15.305  3.8164  2.5560 -0.4605
18346TIP3   OH276528   3.708   4.766   2.462  0.5996 -0.1660 -0.8487
18346TIP3    H176529   3.762   4.713   2.404 -0.4845 -0.4808 -1.6130
18346TIP3    H276530   3.762   4.843   2.482  0.6126  0.5558 -3.2488
18347TIP3   OH276531   3.520   6.469  12.511  0.5128 -0.1770  0.5171
18347TIP3    H176532   3.536   6.426  12.427  1.0933  2.2789 -0.7049
18347TIP3    H276533   3.433   6.508  12.502  0.7542  0.4636  0.8823
18348TIP3   OH276534   0.753   3.592  11.366  0.5472  0.2951  0.2491
18348TIP3    H176535   0.779   3.581  11.458 -0.7278 -0.7641  0.5005
18348TIP3    H276536   0.694   3.519  11.349 -0.3585  1.2892 -1.0029
18349TIP3   OH276537   4.466   3.463  13.831  0.5166  0.1707 -0.0599
18349TIP3    H176538   4.514   3.428  13.906  1.1013  0.2090 -0.4107
18349TIP3    H276539   4.421   3.540  13.866  0.3389 -0.1311  0.3819
18350TIP3   OH276540   1.099   5.452   2.715  0.5907  0.1297  0.5665
18350TIP3    H176541   1.128   5.415   2.631 -1.9930 -0.0038 -0.3632
18350TIP3    H276542   1.165   5.424   2.778  1.6429 -1.3655 -1.1010
18351TIP3   OH276543   5.593   5.433  11.303  0.1871  0.3938  0.2205
18351TIP3    H176544   5.599   5.528  11.306  0.7536  0.3657  0.1914
18351TIP3    H276545   5.683   5.403  11.320  0.4812 -0.0880 -1.9251
18352TIP3   OH276546   1.205   5.504  11.414 -0.1197  0.6755 -0.3876
18352TIP3    H176547   1.155   5.488  11.335 -2.0757  2.2877  0.4300
18352TIP3    H276548   1.153   5.467  11.485  0.8661  0.5614  0.3091
18353TIP3   OH276549   6.358   2.498  13.776 -0.1712 -0.2853  0.0013
18353TIP3    H176550   6.350   2.459  13.863 -1.8160 -1.1479 -0.4840
18353TIP3    H276551   6.452   2.506  13.762  0.2083 -2.5115  0.8427
18354TIP3   OH276552   1.504   5.896  11.987 -0.3214 -0.9793  0.3895
18354TIP3    H176553   1.542   5.973  11.944 -1.6912 -0.7905 -0.5528
18354TIP3    H276554   1.518   5.912  12.080 -0.0832  0.1465  0.1841
18355TIP3   OH276555   3.190   4.700   1.918  0.7856  0.6880 -0.4667
18355TIP3    H176556   3.255   4.641   1.880  0.8090 -0.5768  1.3532
18355TIP3    H276557   3.125   4.641   1.957  0.1559  1.8882  0.3644
18356TIP3   OH276558   3.623   2.436   3.544 -0.0542 -0.1017  0.1189
18356TIP3    H176559   3.630   2.393   3.458  1.6303 -0.4320  0.3868
18356TIP3    H276560   3.567   2.378   3.595 -0.6798 -0.1514 -0.6057
18357TIP3   OH276561   3.212   0.489   3.716  0.5264  0.6148  0.0698
18357TIP3    H176562   3.285   0.515   3.772 -0.4977 -2.0513  2.9274
18357TIP3    H276563   3.145   0.556   3.733  1.4315  1.7946 -0.8038
18358TIP3   OH276564   2.585   1.714  15.748  0.2277 -0.0565  0.3254
18358TIP3    H176565   2.649   1.676  15.808  1.1399  0.4321 -0.3247
18358TIP3    H276566   2.626   1.793  15.714 -0.5330  0.0237 -0.4606
18359TIP3   OH276567   3.855   5.709   4.562  0.4756 -0.6144  0.1004
18359TIP3    H176568   3.815   5.794   4.579 -1.2031 -1.4076  0.4076
18359TIP3    H276569   3.937   5.729   4.517 -0.8287  1.1130 -1.7101
18360TIP3   OH276570   6.188   1.796   5.664  0.0678  0.0997  0.3862
18360TIP3    H176571   6.278   1.778   5.693  0.1348 -1.7587 -0.8477
18360TIP3    H276572   6.189   1.776   5.571 -1.6419  0.1237  0.3416
18361TIP3   OH276573   6.432   3.171  16.707  0.1786 -0.1694  0.6669
18361TIP3    H176574   6.384   3.130  16.635 -0.7729  0.8952  0.6761
18361TIP3    H276575   6.374   3.240  16.738  2.3827  2.3582 -0.4410
18362TIP3   OH276576   3.324   2.894  12.910 -0.1645 -0.0751 -0.2399
18362TIP3    H176577   3.280   2.814  12.879  0.8907 -0.5176 -0.6230
18362TIP3    H276578   3.277   2.965  12.867  0.0769 -0.5890 -1.3779
18363TIP3   OH276579   2.288   3.489   5.870 -0.0955 -0.9700 -0.0364
18363TIP3    H176580   2.318   3.412   5.917 -0.2569 -0.6153  0.6642
18363TIP3    H276581   2.196   3.470   5.851 -0.3592 -0.6360  0.8332
18364TIP3   OH276582   3.865   4.293   5.588 -0.4801 -0.4035  0.0934
18364TIP3    H176583   3.939   4.268   5.532 -0.9578 -1.2085 -0.1960
18364TIP3    H276584   3.815   4.356   5.534 -0.7736 -0.9475 -0.2881
18365TIP3   OH276585   2.969   4.623  17.063  0.5188 -0.1012  0.5861
18365TIP3    H176586   2.986   4.713  17.035  2.7918  0.2488  2.7336
18365TIP3    H276587   3.005   4.569  16.992  0.5312  0.6852 -0.0182
18366TIP3   OH276588   4.556   2.136   0.093 -0.1737  0.1475 -0.7854
18366TIP3    H176589   4.539   2.226   0.121  2.3258 -0.2149  2.4713
18366TIP3    H276590   4.533   2.082   0.169  0.8987 -1.7144 -1.6910
18367TIP3   OH276591   0.298   6.237   0.168  0.4646 -0.5825 -0.6045
18367TIP3    H176592   0.291   6.320   0.214  0.6778  0.8749 -3.0071
18367TIP3    H276593   0.389   6.232   0.140  0.0713 -0.7292 -1.9581
18368TIP3   OH276594   5.469   5.970  14.146  0.2413 -0.5915  0.2748
18368TIP3    H176595   5.493   6.031  14.076 -1.9909 -0.1453 -0.1871
18368TIP3    H276596   5.489   5.883  14.111  0.6442 -0.2884 -0.2523
18369TIP3   OH276597   0.459   0.569  15.692  0.2301 -0.1896  0.3685
18369TIP3    H176598   0.535   0.515  15.714 -1.7545 -2.1691  2.9913
18369TIP3    H276599   0.394   0.548  15.759 -2.6026  1.5530 -1.6106
18370TIP3   OH276600   1.940   4.433   3.607  0.3970  0.0221  0.0938
18370TIP3    H176601   1.928   4.343   3.576 -1.1682  0.4542 -0.6663
18370TIP3    H276602   1.878   4.441   3.680  0.5218  0.4920  0.1494
18371TIP3   OH276603   3.719   0.067  11.515  0.0731 -0.1814  0.6870
18371TIP3    H176604   3.662   0.102  11.446 -0.8192  1.3408  2.1342
18371TIP3    H276605   3.707  -0.028  11.510  0.7448 -0.2203 -1.8104
18372TIP3   OH276606   1.443   2.671  13.117 -0.5997 -0.1629 -0.1805
18372TIP3    H176607   1.375   2.731  13.087 -0.0451  0.3236 -0.4955
18372TIP3    H276608   1.485   2.640  13.037  0.6350  0.8458  0.0234
18373TIP3   OH276609   4.263   6.683   1.656  0.6809  0.2322  0.4130
18373TIP3    H176610   4.329   6.673   1.586  0.1584  1.5821 -0.3033
18373TIP3    H276611   4.304   6.742   1.719  0.2797  0.8772  0.0861
18374TIP3   OH276612   3.151   2.014   3.340  0.1415 -0.1196 -0.0893
18374TIP3    H176613   3.095   2.050   3.409 -1.1402 -2.9940  0.5469
18374TIP3    H276614   3.221   1.970   3.388  0.6587 -0.0067 -0.7331
18375TIP3   OH276615   4.162   2.261  14.195  0.2383  0.6657 -0.0391
18375TIP3    H176616   4.186   2.241  14.104 -0.7011  0.4427 -0.2495
18375TIP3    H276617   4.137   2.354  14.193  2.9248  1.5124  0.5892
18376TIP3   OH276618   4.977   4.153  10.954  0.1525  0.4316 -0.1533
18376TIP3    H176619   5.021   4.233  10.925 -0.6490  1.1060  0.4418
18376TIP3    H276620   4.947   4.173  11.042  0.4743 -0.7535  0.2424
18377TIP3   OH276621   5.912   1.661  17.208 -0.7712  0.3066  0.5504
18377TIP3    H176622   5.850   1.734  17.217  0.2036  1.4417 -1.1887
18377TIP3    H276623   5.882   1.595  17.270 -3.2089  1.1472  0.3558
18378TIP3   OH276624   2.668   4.019  11.382 -0.4631 -0.5032 -0.4390
18378TIP3    H176625   2.682   4.111  11.361  1.4583 -0.4114  0.9568
18378TIP3    H276626   2.631   3.981  11.303 -2.4618  1.6874 -0.6448
18379TIP3   OH276627   6.172   5.483  14.930 -0.3440  0.2842 -0.2605
18379TIP3    H176628   6.096   5.461  14.877  0.0899  0.1811 -0.8391
18379TIP3    H276629   6.152   5.571  14.965 -0.6950  0.2858 -0.4615
18380TIP3   OH276630   2.626   3.759  16.490  0.1223 -0.0468 -0.7130
18380TIP3    H176631   2.594   3.684  16.541 -0.8282  0.4204 -0.6052
18380TIP3    H276632   2.580   3.834  16.525  0.2879  0.4511 -1.5208
18381TIP3   OH276633   3.370   5.464  14.058 -0.0195  0.1108 -0.3540
18381TIP3    H176634   3.442   5.513  14.098  1.4455 -3.0830  1.2992
18381TIP3    H276635   3.291   5.502  14.096  1.0406  0.9839  1.0809
18382TIP3   OH276636   6.372   1.755  15.859  0.1513  0.2845  0.0115
18382TIP3    H176637   6.342   1.763  15.769  0.2223 -0.1674 -0.0536
18382TIP3    H276638   6.317   1.817  15.908  0.0536  0.4652 -0.3259
18383TIP3   OH276639   1.941   5.380   3.519 -0.0375 -0.2480  0.0518
18383TIP3    H176640   2.020   5.327   3.516  0.1835  0.0961 -0.3925
18383TIP3    H276641   1.911   5.383   3.428 -0.4893 -0.2708  0.1979
18384TIP3   OH276642   5.407   4.231   4.447 -0.2481 -0.3394  0.4432
18384TIP3    H176643   5.431   4.296   4.514  0.1989 -0.8335  0.7729
18384TIP3    H276644   5.425   4.275   4.364  1.0873 -0.4106  0.6697
18385TIP3   OH276645   6.604   2.814   5.354  0.2962 -0.5773 -0.1276
18385TIP3    H176646   6.593   2.833   5.447 -1.5792  1.0435 -0.5965
18385TIP3    H276647   6.520   2.840   5.315  1.2369 -0.6793 -2.3425
18386TIP3   OH276648   0.732   4.954  16.178 -0.2575  0.0155  0.2801
18386TIP3    H176649   0.644   4.918  16.163  0.3358 -1.5243  0.2732
18386TIP3    H276650   0.746   5.013  16.104 -2.1324  2.0777  1.4655
18387TIP3   OH276651   0.247   0.856   3.483 -0.4752 -0.2601 -0.4279
18387TIP3    H176652   0.243   0.820   3.395 -0.2418 -2.3278  0.3509
18387TIP3    H276653   0.197   0.794   3.537 -0.2326  0.7086  0.9670
18388TIP3   OH276654   0.675   4.234   1.794  0.6328  0.0453 -0.2281
18388TIP3    H176655   0.681   4.323   1.758  0.7746  0.0597 -0.1666
18388TIP3    H276656   0.741   4.184   1.746  0.5208 -0.0380 -0.2955
18389TIP3   OH276657   6.681   5.510  17.281  0.1785 -0.0346  0.5159
18389TIP3    H176658   6.604   5.527  17.226 -1.0212  0.0487  2.1419
18389TIP3    H276659   6.723   5.434  17.242  0.0066  0.6866 -1.1433
18390TIP3   OH276660   4.717   4.614  15.861 -0.1435  1.2733 -0.5016
18390TIP3    H176661   4.805   4.584  15.835  0.4067  1.7922  0.6431
18390TIP3    H276662   4.714   4.705  15.834  0.2833  1.7002  0.7879
18391TIP3   OH276663   4.121   5.027  12.626 -0.2316  0.5106 -0.4626
18391TIP3    H176664   4.086   5.075  12.551 -2.4805  2.5540  1.6908
18391TIP3    H276665   4.199   5.076  12.651  0.9692 -0.6192 -1.8060
18392TIP3   OH276666   4.932   3.963  15.889 -0.0384  0.1481 -0.3875
18392TIP3    H176667   4.932   4.052  15.852 -1.3912  0.7214  0.8806
18392TIP3    H276668   4.882   3.971  15.970  1.3955 -1.4087  0.7172
18393TIP3   OH276669   4.763   0.174  14.936 -0.0274 -0.2208  0.1551
18393TIP3    H176670   4.821   0.099  14.950  0.6883  0.3316  0.1719
18393TIP3    H276671   4.778   0.199  14.845 -0.2437 -0.0729  0.1597
18394TIP3   OH276672   3.375   1.669   6.425  0.2666 -0.0146  0.0480
18394TIP3    H176673   3.315   1.600   6.398  0.7736  0.3968 -2.4345
18394TIP3    H276674   3.384   1.658   6.519 -2.3563 -1.1218  0.2540
18395TIP3   OH276675   5.897   6.059  12.162  0.7501 -1.0857  0.4419
18395TIP3    H176676   5.871   6.063  12.070  1.2131  2.5063  0.3298
18395TIP3    H276677   5.985   6.022  12.161  0.5180 -1.6233 -0.4981
18396TIP3   OH276678   0.194   6.071  12.804  0.0276 -0.2658 -0.5508
18396TIP3    H176679   0.140   6.104  12.876  1.3890 -0.3587  0.5404
18396TIP3    H276680   0.137   6.079  12.727 -1.6425 -0.6466  0.5846
18397TIP3   OH276681   0.530   6.226  12.556 -0.0382  0.0343 -0.1886
18397TIP3    H176682   0.605   6.177  12.524 -0.6642 -1.5431  0.6412
18397TIP3    H276683   0.549   6.317  12.533  1.0236 -0.6057 -2.0713
18398TIP3   OH276684   5.697   3.170   5.528 -0.1563  0.3467  0.5322
18398TIP3    H176685   5.669   3.180   5.619 -0.5041 -0.8787  0.5724
18398TIP3    H276686   5.744   3.087   5.525  0.0951  0.5047 -0.3487
18399TIP3   OH276687   4.173   5.901   4.787  0.3698 -0.3442 -0.6229
18399TIP3    H176688   4.202   5.976   4.840  2.5833 -1.0577 -0.7133
18399TIP3    H276689   4.238   5.896   4.717  0.2037 -2.2948 -0.6753
18400TIP3   OH276690   0.640   5.341   4.864  0.4907 -0.0619 -0.2187
18400TIP3    H176691   0.700   5.353   4.790  1.7093  0.4149  0.8244
18400TIP3    H276692   0.622   5.247   4.864 -2.9468  0.3171 -3.6664
18401TIP3   OH276693   3.274   2.661  13.494 -0.1198 -0.0761  0.2971
18401TIP3    H176694   3.356   2.644  13.448 -0.8964 -1.3501 -0.6625
18401TIP3    H276695   3.251   2.578  13.535 -0.6328  0.4297  1.0617
18402TIP3   OH276696   1.495   4.859   0.078  0.7617 -0.1852 -0.2784
18402TIP3    H176697   1.427   4.897   0.132  0.1742  0.2658 -1.3065
18402TIP3    H276698   1.577   4.891   0.115  0.3211  1.0867 -0.3779
18403TIP3   OH276699   0.171   4.932  13.925  0.3147 -0.4226 -0.1526
18403TIP3    H176700   0.124   4.855  13.895 -0.5040 -0.4667  1.1681
18403TIP3    H276701   0.171   4.992  13.850  0.8154 -1.6178 -1.1359
18404TIP3   OH276702   3.624   3.612  13.356  0.2643  0.5506 -0.0007
18404TIP3    H176703   3.639   3.567  13.273  1.6842  0.2863  0.3816
18404TIP3    H276704   3.534   3.588  13.380  0.0575  0.1234 -1.1345
18405TIP3   OH276705   2.416   5.900  15.109  0.0230  0.0121 -0.6314
18405TIP3    H176706   2.348   5.968  15.108 -0.5263 -0.5241  0.0826
18405TIP3    H276707   2.404   5.853  15.026  0.7256  1.0671 -1.3734
18406TIP3   OH276708   0.625   3.637   3.050 -0.1557  0.0139  0.1728
18406TIP3    H176709   0.578   3.572   3.102 -0.9810  1.3963  1.2289
18406TIP3    H276710   0.609   3.611   2.959 -1.0165 -0.8647  0.5575
18407TIP3   OH276711   1.893   4.988   4.242 -0.4648 -0.1155  0.8260
18407TIP3    H176712   1.898   5.083   4.231  1.7305 -0.2540  0.2255
18407TIP3    H276713   1.845   4.957   4.165 -0.7187  0.4450  0.7568
18408TIP3   OH276714   4.823   2.332   3.618 -0.3705  0.3313  0.9716
18408TIP3    H176715   4.848   2.316   3.709  2.3685 -1.7767  0.0026
18408TIP3    H276716   4.903   2.363   3.576 -1.0444 -0.5373 -1.0814
18409TIP3   OH276717   2.362   3.618  12.971  0.3514 -0.0531  0.3178
18409TIP3    H176718   2.397   3.591  12.886 -0.5551 -0.0758 -0.0497
18409TIP3    H276719   2.339   3.710  12.960  0.1454 -0.0808  0.5173
18410TIP3   OH276720   0.327   2.093  16.758  0.1085 -0.3432  0.2721
18410TIP3    H176721   0.363   2.165  16.810 -2.0137  0.0488  1.3177
18410TIP3    H276722   0.370   2.100  16.673  1.5927  0.7437  1.0709
18411TIP3   OH276723   6.739   2.649  15.965  0.1494  0.3545 -0.2826
18411TIP3    H176724   6.808   2.588  15.988 -0.3194 -0.0015  0.2012
18411TIP3    H276725   6.684   2.654  16.044  0.7579  2.1976  0.0860
18412TIP3   OH276726   0.725   5.468   3.916  0.1288 -0.4965  0.1019
18412TIP3    H176727   0.711   5.543   3.859  0.4578 -0.5893 -0.1038
18412TIP3    H276728   0.765   5.402   3.859 -0.3791 -0.9142  0.2214
18413TIP3   OH276729   0.779   0.646  17.295 -0.0459  0.1143  0.1541
18413TIP3    H176730   0.871   0.622  17.309 -0.1268  0.1377  0.7405
18413TIP3    H276731   0.730   0.579  17.343 -0.3112  0.6270  0.5987
18414TIP3   OH276732   3.573   4.616  15.956  0.1154  0.0343  0.7332
18414TIP3    H176733   3.668   4.601  15.959 -0.1032 -2.4242 -1.0310
18414TIP3    H276734   3.556   4.645  15.867 -0.7857  0.8441  1.1480
18415TIP3   OH276735   4.693   4.447   6.201  0.0186 -0.3020 -0.4868
18415TIP3    H176736   4.642   4.437   6.281  1.7359 -0.1422  0.6607
18415TIP3    H276737   4.714   4.540   6.197  2.6354 -0.7633  0.6524
18416TIP3   OH276738   0.923   3.114   1.581  0.6055 -0.1548 -0.2091
18416TIP3    H176739   0.923   3.027   1.540  2.2262 -0.3642  0.1727
18416TIP3    H276740   0.878   3.170   1.518  0.8448 -0.9740 -1.1323
18417TIP3   OH276741   6.000   2.162  13.590  0.5554  0.0760 -0.6204
18417TIP3    H176742   6.086   2.123  13.606  1.0283  2.2460  3.6133
18417TIP3    H276743   6.018   2.256  13.584 -1.4910  0.6202  0.7981
18418TIP3   OH276744   6.330   2.354  14.257  0.4041  0.4310  0.5205
18418TIP3    H176745   6.396   2.383  14.194  0.1613  0.3216  0.2138
18418TIP3    H276746   6.366   2.274  14.294 -0.4208 -0.7659 -1.1067
18419TIP3   OH276747   6.090   6.220   3.866  0.2579  0.2669 -0.0002
18419TIP3    H176748   6.115   6.164   3.939  1.8822 -0.0118 -0.7257
18419TIP3    H276749   6.074   6.160   3.793 -0.9231  0.5727 -0.0228
18420TIP3   OH276750   4.420   6.131   0.041 -0.2580 -0.4129  0.1045
18420TIP3    H176751   4.507   6.091   0.033 -1.1552 -3.1049  2.3497
18420TIP3    H276752   4.386   6.133  -0.048  1.4429 -0.8501 -0.5930
18421TIP3   OH276753   0.052   2.395  14.539 -0.2586  0.0577 -0.1141
18421TIP3    H176754   0.082   2.425  14.453 -0.2863  1.4989  0.3473
18421TIP3    H276755  -0.018   2.332  14.519 -1.2179  1.3872 -1.1600
18422TIP3   OH276756   1.838   0.948   1.326 -0.4402  0.0151 -0.4161
18422TIP3    H176757   1.818   1.029   1.373 -0.8541  0.4403 -1.3023
18422TIP3    H276758   1.795   0.879   1.377  0.7270  0.2234  0.8773
18423TIP3   OH276759   1.631   6.546  14.153 -0.7168  0.6052 -0.0434
18423TIP3    H176760   1.539   6.533  14.129 -0.8330 -0.3336  0.8427
18423TIP3    H276761   1.678   6.546  14.070 -1.4591  0.6390 -0.4705
18424TIP3   OH276762   4.878   3.418   0.454 -0.1807 -0.0974  0.2146
18424TIP3    H176763   4.860   3.453   0.367 -1.3568  0.8440  0.7985
18424TIP3    H276764   4.794   3.422   0.499  0.3446 -0.8293  1.3117
18425TIP3   OH276765   5.790   2.617  13.305 -0.2125  0.7807 -0.5101
18425TIP3    H176766   5.798   2.685  13.372 -1.2006  1.9669 -1.5382
18425TIP3    H276767   5.879   2.602  13.275 -0.0729  2.3344 -0.9287
18426TIP3   OH276768   0.818   2.331  11.837 -0.4583  0.0136  0.4844
18426TIP3    H176769   0.865   2.251  11.816  1.3618  1.3289 -0.8158
18426TIP3    H276770   0.842   2.350  11.928  0.7622  0.1124  0.1617
18427TIP3   OH276771   1.670   1.275  16.692 -0.2083  0.3633 -0.4228
18427TIP3    H176772   1.734   1.204  16.680 -0.0528  0.4142  0.0506
18427TIP3    H276773   1.724   1.353  16.707 -0.3748  0.6603 -1.3289
18428TIP3   OH276774   0.792   4.791   0.527  0.2695  0.2914  0.7463
18428TIP3    H176775   0.727   4.748   0.582  1.3541 -1.7322  0.5676
18428TIP3    H276776   0.792   4.740   0.446 -0.5285  2.5558 -0.7645
18429TIP3   OH276777   0.280   4.388  15.034  0.0797 -0.6401 -0.0988
18429TIP3    H176778   0.217   4.441  15.083 -2.4093 -2.4326 -1.1380
18429TIP3    H276779   0.310   4.322  15.097 -0.2956 -0.7162  0.0053
18430TIP3   OH276780   5.971   5.303  15.862 -0.6261  0.4463 -0.3424
18430TIP3    H176781   5.985   5.303  15.957 -0.9656  2.2539 -0.2612
18430TIP3    H276782   5.966   5.210  15.839  1.5494 -0.0976  1.0624
18431TIP3   OH276783   6.201   0.651   4.717  0.7810 -0.5830  0.6520
18431TIP3    H176784   6.124   0.594   4.706  2.7699 -3.3355 -0.2265
18431TIP3    H276785   6.190   0.719   4.651 -0.1552 -1.8864 -0.6099
18432TIP3   OH276786   0.888   3.505   2.225 -0.2615 -0.3921 -0.9640
18432TIP3    H176787   0.974   3.463   2.224 -0.1479 -0.1801 -2.1714
18432TIP3    H276788   0.826   3.434   2.240  0.1630 -0.4168  0.8771
18433TIP3   OH276789   4.069   6.725   4.914  0.1397  0.7665  1.1191
18433TIP3    H176790   3.990   6.731   4.859  2.2003  1.5187 -2.0525
18433TIP3    H276791   4.087   6.815   4.940  1.6241  1.1278 -0.9248
18434TIP3   OH276792   0.499   2.395   1.582 -0.3375 -0.4391  0.0186
18434TIP3    H176793   0.485   2.346   1.501 -2.1394  0.3394 -0.1809
18434TIP3    H276794   0.446   2.474   1.572  0.9530  0.6195  1.1547
18435TIP3   OH276795   6.402   3.521   2.258 -0.0605  0.4711 -0.1668
18435TIP3    H176796   6.393   3.489   2.347  1.2817 -2.0771 -0.8385
18435TIP3    H276797   6.473   3.585   2.262 -0.3590  0.7549  0.6569
18436TIP3   OH276798   2.803   5.162   0.432  0.2739  0.1685  0.0892
18436TIP3    H176799   2.791   5.081   0.382  0.5068  0.5838 -0.6496
18436TIP3    H276800   2.887   5.197   0.402 -0.1527  1.0465 -0.1041
18437TIP3   OH276801   2.167   6.643   0.145 -0.5393 -0.4652  0.3969
18437TIP3    H176802   2.136   6.652   0.235 -1.4071 -2.7380  0.3706
18437TIP3    H276803   2.097   6.596   0.100  1.2420 -2.2468 -0.6505
18438TIP3   OH276804   5.073   0.896   0.947  0.9046 -0.1095  0.2030
18438TIP3    H176805   5.144   0.899   1.012 -0.4875  0.2493  1.7723
18438TIP3    H276806   5.091   0.817   0.896  0.8111 -1.7119  2.5059
18439TIP3   OH276807   3.261   3.691   1.118  0.2058  0.1006 -0.6130
18439TIP3    H176808   3.321   3.655   1.183  1.0451  1.3280 -0.6869
18439TIP3    H276809   3.190   3.729   1.170 -1.3493 -2.6017 -0.5436
18440TIP3   OH276810   5.719   4.221  14.931  0.4973  0.1721 -0.7131
18440TIP3    H176811   5.666   4.174  14.867 -0.8980  0.6967  0.0115
18440TIP3    H276812   5.721   4.164  15.008 -1.8565  1.5109  0.4563
18441TIP3   OH276813   5.198   6.762   5.825 -0.3376 -0.9663 -0.1366
18441TIP3    H176814   5.271   6.704   5.844 -0.2743 -0.5688  0.8965
18441TIP3    H276815   5.121   6.715   5.859 -0.0344  0.4905  2.9378
18442TIP3   OH276816   1.384   1.049   1.125 -0.7809 -0.1540 -0.1474
18442TIP3    H176817   1.382   1.125   1.183 -0.1315  0.4646 -0.8986
18442TIP3    H276818   1.475   1.020   1.127 -0.6893  0.0334 -1.0328
18443TIP3   OH276819   3.811   4.549   6.653  0.0917  0.6752  0.3575
18443TIP3    H176820   3.744   4.611   6.683 -1.4978 -0.7145 -0.1570
18443TIP3    H276821   3.768   4.463   6.658  1.8501 -0.2672 -0.0120
18444TIP3   OH276822   5.389   0.206  12.153  0.1971 -0.2259 -0.4320
18444TIP3    H176823   5.315   0.263  12.132 -0.2044 -0.4646  0.3125
18444TIP3    H276824   5.438   0.201  12.071  1.2927  2.7041 -0.0833
18445TIP3   OH276825   3.717   2.235   6.494 -0.7745 -0.0375 -0.2643
18445TIP3    H176826   3.773   2.313   6.495  0.0392 -0.5906 -1.5146
18445TIP3    H276827   3.771   2.166   6.531 -0.5954 -0.5889 -1.5206
18446TIP3   OH276828   2.986   1.370  16.132 -0.2181  0.4040 -0.3051
18446TIP3    H176829   2.991   1.466  16.136 -0.0383  0.3930 -0.2968
18446TIP3    H276830   2.918   1.353  16.066  1.7911  0.5170 -2.5199
18447TIP3   OH276831   0.851   0.727   2.414 -0.1383  0.4577 -0.3612
18447TIP3    H176832   0.765   0.769   2.403  0.4421  2.2756  1.5338
18447TIP3    H276833   0.868   0.731   2.508  1.0517 -1.9695 -0.3966
18448TIP3   OH276834   2.124   0.821   0.948 -0.2432 -0.4764 -0.7119
18448TIP3    H176835   2.172   0.891   0.903  0.8776 -1.6261 -1.3766
18448TIP3    H276836   2.111   0.854   1.037  0.4481  0.4805 -0.9496
18449TIP3   OH276837   0.440   1.046  17.046  0.3417 -0.5068  0.2059
18449TIP3    H176838   0.456   1.013  16.958 -0.7459 -1.3161  0.2928
18449TIP3    H276839   0.389   1.126  17.033 -1.3531 -1.5612  0.1250
18450TIP3   OH276840   0.713   1.226   5.476  0.1607 -0.0588  0.4857
18450TIP3    H176841   0.680   1.151   5.526  0.7944  0.7456  2.1909
18450TIP3    H276842   0.686   1.302   5.528 -0.5215  0.9186 -1.2316
18451TIP3   OH276843   2.910   5.426   4.207 -0.2230 -0.5917 -0.1860
18451TIP3    H176844   2.977   5.492   4.192 -0.6736 -0.2583 -0.7873
18451TIP3    H276845   2.843   5.471   4.258 -1.2268 -0.1204 -1.8499
18452TIP3   OH276846   3.146   0.382  13.405 -0.1905  0.3113  0.4967
18452TIP3    H176847   3.070   0.327  13.427 -1.4514  1.2587 -1.2155
18452TIP3    H276848   3.133   0.461  13.457 -1.1216  0.9929 -0.7075
18453TIP3   OH276849   4.374   4.576  12.197 -0.4252 -0.0871 -0.7028
18453TIP3    H176850   4.306   4.509  12.206  1.3975 -1.9867 -0.4999
18453TIP3    H276851   4.395   4.576  12.103 -0.2978  0.0757 -0.6752
18454TIP3   OH276852   0.655   5.434  12.947 -0.1453  0.2666 -0.3783
18454TIP3    H176853   0.645   5.374  13.021 -1.9571  0.7417 -0.1951
18454TIP3    H276854   0.710   5.504  12.981 -1.7099  0.9557  0.8696
18455TIP3   OH276855   5.625   0.013  15.908 -0.3041 -0.1283  0.1693
18455TIP3    H176856   5.600   0.104  15.925 -0.5494  0.0623 -1.1132
18455TIP3    H276857   5.555  -0.022  15.854  1.7942  0.2566 -3.1044
18456TIP3   OH276858   5.798   5.183  14.571  0.3467  0.3866 -0.1151
18456TIP3    H176859   5.854   5.139  14.507  1.0975 -0.6139  1.1788
18456TIP3    H276860   5.817   5.139  14.654  0.5673  2.6373  1.1256
18457TIP3   OH276861   3.807   2.228  16.599 -0.0345 -0.1986  0.0131
18457TIP3    H176862   3.803   2.323  16.606  1.5150 -0.0533 -0.6995
18457TIP3    H276863   3.837   2.211  16.510  0.0485 -1.3526  0.2398
18458TIP3   OH276864   3.677   2.508  14.648 -0.3293  0.2239  0.0000
18458TIP3    H176865   3.651   2.424  14.610  0.8887  0.5536 -1.7241
18458TIP3    H276866   3.725   2.486  14.727 -0.2669 -0.6824 -0.2876
18459TIP3   OH276867   0.018   5.746  14.475 -1.1404  0.0427  0.3843
18459TIP3    H176868   0.026   5.699  14.559 -0.3305  1.1128  0.9204
18459TIP3    H276869   0.059   5.831  14.491 -2.2735  0.8208 -0.6773
18460TIP3   OH276870   3.223   1.978  13.622 -0.5052 -0.4577 -0.0551
18460TIP3    H176871   3.275   2.029  13.684 -1.4202 -0.7738  1.0043
18460TIP3    H276872   3.258   2.002  13.536  0.2317  0.6280  0.5216
18461TIP3   OH276873   1.850   5.496   5.594  0.1537  0.1108 -0.6459
18461TIP3    H176874   1.902   5.483   5.673  0.6581  2.8022 -0.4200
18461TIP3    H276875   1.905   5.553   5.539 -0.8445 -0.4185 -2.2669
18462TIP3   OH276876   1.807   5.226   3.715 -0.0517 -0.0614  0.3280
18462TIP3    H176877   1.821   5.296   3.652  2.6392 -0.2877  0.5610
18462TIP3    H276878   1.868   5.246   3.787 -1.3738 -1.0495  1.7922
18463TIP3   OH276879   4.465   0.586   0.169  0.2741 -0.1216  0.1243
18463TIP3    H176880   4.464   0.499   0.128 -0.7511 -0.3401  0.5963
18463TIP3    H276881   4.545   0.627   0.135  0.1095 -0.7690 -1.0920
18464TIP3   OH276882   4.261   4.832   1.024  0.2554  0.0893  0.1129
18464TIP3    H176883   4.200   4.863   0.958 -0.3304 -1.6157 -0.2063
18464TIP3    H276884   4.222   4.856   1.108 -0.1719  0.1947 -0.1180
18465TIP3   OH276885   4.623   4.300   4.269  0.0174  0.0953  0.3491
18465TIP3    H176886   4.620   4.245   4.191  0.6323  0.2829  0.1897
18465TIP3    H276887   4.532   4.323   4.286 -0.4406 -2.0848  1.2161
18466TIP3   OH276888   5.718   5.570   0.313  0.0650  0.4138 -0.1556
18466TIP3    H176889   5.770   5.524   0.248 -1.8427 -0.9086 -0.8249
18466TIP3    H276890   5.749   5.535   0.397  0.1314 -0.4888 -0.5466
18467TIP3   OH276891   0.261   3.248   5.530  0.4074  0.0010 -0.0396
18467TIP3    H176892   0.179   3.202   5.513  0.4075 -0.0445  0.0818
18467TIP3    H276893   0.239   3.315   5.594  0.8168 -1.1889  1.4166
18468TIP3   OH276894   5.022   5.604  16.649 -0.3471  0.1455 -0.0632
18468TIP3    H176895   5.022   5.519  16.694 -0.9613 -0.2693 -0.8239
18468TIP3    H276896   4.940   5.645  16.677 -0.3923  0.1852 -0.2556
18469TIP3   OH276897   0.670   2.040   3.895 -0.5616  0.3318  0.5192
18469TIP3    H176898   0.639   2.108   3.953 -0.5695 -0.1574  1.0986
18469TIP3    H276899   0.600   2.029   3.830 -0.4026  1.1133  0.2051
18470TIP3   OH276900   5.854   4.689   3.799 -0.0584 -0.6080  0.3556
18470TIP3    H176901   5.850   4.594   3.805 -0.0380 -0.7513 -1.3406
18470TIP3    H276902   5.800   4.710   3.723  0.7345  0.6454  0.1130
18471TIP3   OH276903   5.465   1.749  16.737 -0.1544 -0.3651  0.7924
18471TIP3    H176904   5.488   1.773  16.827 -0.1025 -0.5558  0.8316
18471TIP3    H276905   5.500   1.660  16.727  1.6763  0.4109 -0.0976
18472TIP3   OH276906   3.718   6.619  14.519 -0.0380 -0.3231  0.1075
18472TIP3    H176907   3.802   6.622  14.565  1.0789  2.0740 -1.8334
18472TIP3    H276908   3.738   6.571  14.438 -0.5182  0.2939 -0.3813
18473TIP3   OH276909   0.149   5.455   6.068 -0.3190  0.2813  0.0220
18473TIP3    H176910   0.155   5.446   5.973  0.4645 -0.6664  0.1533
18473TIP3    H276911   0.161   5.366   6.101  0.9232  0.8140  1.0705
18474TIP3   OH276912   5.815   3.892  14.562 -0.0458  0.0029 -0.0275
18474TIP3    H176913   5.847   3.819  14.615  2.1618  0.5964 -0.4658
18474TIP3    H276914   5.890   3.917  14.508 -1.5794  0.8348 -1.8749
18475TIP3   OH276915   5.481   5.122  13.838 -0.1798 -0.2925  0.6449
18475TIP3    H176916   5.408   5.182  13.851 -1.1355 -1.3598  0.4024
18475TIP3    H276917   5.446   5.054  13.780  0.4301 -1.7803  1.9273
18476TIP3   OH276918   3.677   2.790   2.651  0.2247 -0.2480  0.1327
18476TIP3    H176919   3.715   2.702   2.647  1.1719  0.1576  0.0738
18476TIP3    H276920   3.718   2.837   2.579 -0.0091  0.3518  0.3856
18477TIP3   OH276921   4.093   2.479  11.176 -0.2025  0.7905 -1.3906
18477TIP3    H176922   4.054   2.400  11.139  0.6040 -0.2580 -0.0647
18477TIP3    H276923   4.176   2.489  11.131 -0.9554  1.7871 -2.6423
18478TIP3   OH276924   2.845   2.963  15.794 -0.0413  0.3540  0.0906
18478TIP3    H176925   2.892   2.994  15.871  0.5901  0.9291 -0.5155
18478TIP3    H276926   2.906   2.976  15.722  0.2008 -2.1133 -0.2478
18479TIP3   OH276927   5.818   3.118  11.412 -0.0292  0.4978  0.0036
18479TIP3    H176928   5.872   3.072  11.476  0.5036  0.2827 -0.5916
18479TIP3    H276929   5.832   3.211  11.432 -0.1747  0.4257  0.4490
18480TIP3   OH276930   6.230   1.821  13.792 -0.1529  0.8402  0.2953
18480TIP3    H176931   6.203   1.731  13.812  0.6387  0.9020  1.8621
18480TIP3    H276932   6.150   1.866  13.766 -0.7566 -0.0526  0.5875
18481TIP3   OH276933   1.587   1.514  14.003 -0.4469  0.7960 -0.2411
18481TIP3    H176934   1.630   1.493  14.086 -0.8768  0.6949 -0.0419
18481TIP3    H276935   1.628   1.456  13.939 -0.3367  0.6502 -0.0387
18482TIP3   OH276936   3.075   2.674   4.802 -0.1359  0.3297  0.3707
18482TIP3    H176937   3.110   2.671   4.891  0.2656 -0.3067  0.1950
18482TIP3    H276938   3.043   2.763   4.792  2.0340  1.1794  0.3275
18483TIP3   OH276939   2.220   0.123  11.683 -0.3882  0.2069  0.5148
18483TIP3    H176940   2.163   0.047  11.698 -1.9538  1.6860  2.8104
18483TIP3    H276941   2.164   0.186  11.638  0.1593  0.8239  0.6855
18484TIP3   OH276942   5.960   2.790   1.159 -0.1859  0.3791 -0.2852
18484TIP3    H176943   6.042   2.741   1.150 -0.8300 -0.6086 -1.0172
18484TIP3    H276944   5.899   2.727   1.198 -0.0267  1.7891  2.4428
18485TIP3   OH276945   3.012   1.500  16.720 -0.2562 -0.1322 -0.4194
18485TIP3    H176946   2.978   1.587  16.740  1.1343  0.4876 -0.6803
18485TIP3    H276947   3.071   1.479  16.792 -1.9057 -1.6731  0.6049
18486TIP3   OH276948   1.360   2.490  13.587  0.2038  0.7934  0.1559
18486TIP3    H176949   1.319   2.520  13.668 -0.6093  0.3970 -0.1044
18486TIP3    H276950   1.421   2.422  13.614 -0.6651  0.0808  0.3584
18487TIP3   OH276951   5.637   2.103  10.413  0.0027 -0.0871 -0.0767
18487TIP3    H176952   5.721   2.087  10.456 -0.2733  0.1120  0.5522
18487TIP3    H276953   5.600   2.016  10.397  0.5163 -0.1897 -0.7470
18488TIP3   OH276954   1.141   1.357  13.035  0.4827 -0.2460  0.4538
18488TIP3    H176955   1.131   1.448  13.063 -0.5778  0.2955 -1.4708
18488TIP3    H276956   1.057   1.336  12.994  1.4200 -1.3989 -0.9676
18489TIP3   OH276957   1.141   3.333  15.526 -0.3379  0.0874 -0.5601
18489TIP3    H176958   1.074   3.336  15.594  1.3729  0.6734  1.2187
18489TIP3    H276959   1.183   3.247  15.537  0.0672  0.2585 -0.7404
18490TIP3   OH276960   3.283   3.406  17.158  0.8458 -0.7419 -0.0780
18490TIP3    H176961   3.344   3.340  17.126 -1.5546 -2.7006 -1.0063
18490TIP3    H276962   3.322   3.438  17.239  3.1270 -1.7502 -0.6980
18491TIP3   OH276963   5.786   4.156  16.131  1.0160 -0.0927  0.0312
18491TIP3    H176964   5.791   4.095  16.205 -0.2812 -0.3256 -0.0465
18491TIP3    H276965   5.758   4.239  16.170  1.9939  0.2632  0.0205
18492TIP3   OH276966   0.749   4.054   4.787  0.3929 -0.2995  0.0699
18492TIP3    H176967   0.681   3.994   4.816 -0.8494  1.0060 -0.0233
18492TIP3    H276968   0.782   4.095   4.867 -0.2354  0.4029 -0.0230
18493TIP3   OH276969   3.932   2.266  10.735  0.2884  0.4840  0.6116
18493TIP3    H176970   4.009   2.274  10.679  0.9831 -1.1332  1.2733
18493TIP3    H276971   3.939   2.178  10.773 -2.2427  0.0124  0.1638
18494TIP3   OH276972   5.375   5.153   1.033  0.1401 -0.3923  0.4622
18494TIP3    H176973   5.357   5.234   0.985  0.4839 -0.3635  0.3848
18494TIP3    H276974   5.308   5.092   1.002  1.3858 -0.9090 -1.3431
18495TIP3   OH276975   6.469   3.096  17.062  0.2820  0.0833 -0.0369
18495TIP3    H176976   6.395   3.084  17.002  1.0802  0.7548 -1.1725
18495TIP3    H276977   6.454   3.183  17.101 -0.9012 -0.8467  1.7324
18496TIP3   OH276978   5.971   6.192  16.457  0.2328  0.1068  0.0050
18496TIP3    H176979   5.909   6.193  16.529 -0.3228 -1.6011 -0.4141
18496TIP3    H276980   6.035   6.260  16.479 -0.4242  0.2244  1.6363
18497TIP3   OH276981   5.756   6.605   1.928  0.0005  0.7513  0.1464
18497TIP3    H176982   5.798   6.575   1.847  0.3891  1.6761 -0.0071
18497TIP3    H276983   5.685   6.661   1.899 -0.1378  0.7321  0.4447
18498TIP3   OH276984   2.552   4.679   2.958  0.5377 -0.3261  0.6527
18498TIP3    H176985   2.464   4.712   2.937  1.4622  1.5864 -0.5490
18498TIP3    H276986   2.580   4.634   2.878  1.0473  0.0102  0.6376
18499TIP3   OH276987   5.775   6.749  12.268  0.2357 -0.3625 -0.3786
18499TIP3    H176988   5.732   6.807  12.205 -1.1987  0.5938  1.3917
18499TIP3    H276989   5.835   6.806  12.317 -0.7512 -0.4537  0.9887
18500TIP3   OH276990   2.775   2.388   2.411  0.2123  0.0118 -0.0248
18500TIP3    H176991   2.684   2.394   2.383 -0.1241 -1.3443  0.6869
18500TIP3    H276992   2.773   2.333   2.489  1.8657 -2.2276 -1.4322
18501TIP3   OH276993   0.262   0.046   1.579  0.1629 -0.0145 -0.1805
18501TIP3    H176994   0.339   0.075   1.530 -0.1244  1.2280  0.0702
18501TIP3    H276995   0.193   0.041   1.513  0.4064 -0.9696 -0.3754
18502TIP3   OH276996   6.007   0.877  11.647 -0.2330 -0.0937  0.4099
18502TIP3    H176997   5.965   0.950  11.601  1.0171 -0.6801 -1.8178
18502TIP3    H276998   6.053   0.917  11.720  0.4060  1.3732 -0.7552
18503TIP3   OH276999   3.006   3.714  13.301 -0.8648  0.3324  0.3308
18503TIP3    H177000   2.960   3.678  13.377 -1.6015 -0.5935 -0.5327
18503TIP3    H277001   3.039   3.799  13.331 -0.0394 -0.5565  2.0822
18504TIP3   OH277002   2.092   0.256   4.190 -0.2739 -0.1299  0.2900
18504TIP3    H177003   2.108   0.344   4.155  0.2323  0.0051  0.8528
18504TIP3    H277004   2.038   0.214   4.123  1.2214 -0.1107 -0.9820
18505TIP3   OH277005   5.551   3.018  14.119  0.2544 -0.0966 -0.4659
18505TIP3    H177006   5.646   3.021  14.131  0.1686 -0.7908  0.5871
18505TIP3    H277007   5.524   3.110  14.118  0.7554  0.1072  1.1101
18506TIP3   OH277008   0.157   0.483   3.982  0.1507 -0.2801 -0.8569
18506TIP3    H177009   0.162   0.408   4.041 -0.5636 -1.1533 -1.8954
18506TIP3    H277010   0.208   0.457   3.905  0.8268  0.7394 -0.7778
18507TIP3   OH277011   3.177   0.208   4.272 -0.0781  0.0171 -0.3081
18507TIP3    H177012   3.175   0.143   4.343 -0.6329 -0.7314 -1.0005
18507TIP3    H277013   3.270   0.230   4.263 -0.0186  0.2851  0.7904
18508TIP3   OH277014   4.216   2.053   0.095 -0.0015 -0.3660 -0.7841
18508TIP3    H177015   4.151   2.057   0.025 -1.7154  0.1057  0.7767
18508TIP3    H277016   4.222   2.142   0.128  0.8666 -0.5637 -0.3778
18509TIP3   OH277017   1.900   0.657   1.227  0.0577  0.0780  0.0305
18509TIP3    H177018   1.972   0.595   1.211  1.2729  1.8133 -1.6385
18509TIP3    H277019   1.943   0.735   1.263 -1.3262  0.3150  1.2568
18510TIP3   OH277020   1.301   2.270  12.341 -0.6303 -0.1883 -0.0221
18510TIP3    H177021   1.318   2.364  12.343  1.2783 -0.4686 -0.4989
18510TIP3    H277022   1.233   2.256  12.407 -0.2896  1.3983  0.7129
18511TIP3   OH277023   3.835   2.636   4.466 -0.2983  0.9204  0.1376
18511TIP3    H177024   3.768   2.582   4.508  0.8579  0.4456  1.4376
18511TIP3    H277025   3.828   2.615   4.373 -0.1062 -1.2731  0.5631
18512TIP3   OH277026   1.940   5.823   2.712  0.2001 -0.8050  0.3477
18512TIP3    H177027   1.883   5.876   2.656 -1.1174 -1.4933  0.9908
18512TIP3    H277028   1.936   5.735   2.675 -0.3834 -1.1845  1.2638
18513TIP3   OH277029   3.460   2.692   0.142  0.0016  0.3424 -0.0355
18513TIP3    H177030   3.382   2.637   0.144 -1.1767  1.9503  2.1501
18513TIP3    H277031   3.488   2.699   0.233  3.1146 -0.6436 -0.7940
18514TIP3   OH277032   3.524   1.251   0.562  0.4022  0.1778 -0.6458
18514TIP3    H177033   3.585   1.209   0.502 -0.3725  0.2381 -1.5095
18514TIP3    H277034   3.563   1.242   0.648  0.6756 -1.5120 -0.9257
18515TIP3   OH277035   4.215   3.680   1.333 -0.1797  0.8695  0.1077
18515TIP3    H177036   4.294   3.714   1.374  1.3881 -2.6691  0.3452
18515TIP3    H277037   4.150   3.679   1.403  0.3477  1.3860  0.6140
18516TIP3   OH277038   4.340   2.341   0.945 -0.4632  0.3042 -0.5039
18516TIP3    H177039   4.286   2.273   0.904  0.3251  0.0996 -1.2370
18516TIP3    H277040   4.277   2.400   0.987 -1.3074  0.4505 -1.9020
18517TIP3   OH277041   2.287   0.361   3.262 -0.3184 -0.4433 -0.4367
18517TIP3    H177042   2.229   0.286   3.255 -1.4135  0.3191  0.1572
18517TIP3    H277043   2.266   0.415   3.185 -0.0848 -0.3677 -0.4503
18518TIP3   OH277044   4.950   1.412   1.741  0.0855 -0.5825 -0.0250
18518TIP3    H177045   4.948   1.444   1.831 -0.9437  1.4383 -0.6975
18518TIP3    H277046   5.026   1.455   1.702 -0.5961  0.1123 -0.6209
18519TIP3   OH277047   5.874   1.279  15.596  0.0825  0.0940  0.1259
18519TIP3    H177048   5.933   1.216  15.636  0.5733 -0.1153 -0.9033
18519TIP3    H277049   5.929   1.355  15.576 -0.4094  0.6975  0.9414
18520TIP3   OH277050   3.844   4.731  11.157 -0.4844 -0.1399 -0.0541
18520TIP3    H177051   3.795   4.715  11.076  0.7648 -3.3024 -0.3082
18520TIP3    H277052   3.782   4.708  11.226 -1.3883  2.0953 -0.0344
18521TIP3   OH277053   3.507   3.690   5.509  0.1627 -0.4030  0.0523
18521TIP3    H177054   3.597   3.660   5.503  0.1435 -0.9033  1.7125
18521TIP3    H277055   3.514   3.783   5.529  0.3661 -0.6915  1.4287
18522TIP3   OH277056   0.524   5.904   2.717 -0.4158 -0.0684 -0.3098
18522TIP3    H177057   0.596   5.848   2.688 -0.5279 -0.3547 -0.0412
18522TIP3    H277058   0.545   5.923   2.809 -0.5428  0.0714 -0.3095
18523TIP3   OH277059   5.128   4.160   4.356  0.3890  0.3619  0.2567
18523TIP3    H177060   5.185   4.121   4.290  0.8065  0.8728  0.3040
18523TIP3    H277061   5.186   4.177   4.431 -0.0533 -0.0989  0.7120
18524TIP3   OH277062   1.317   6.748   5.535  0.1617 -0.2552  0.2056
18524TIP3    H177063   1.294   6.770   5.445  1.1667 -1.4006 -0.3636
18524TIP3    H277064   1.252   6.683   5.561 -0.9257  1.0191  0.8015
18525TIP3   OH277065   5.822   2.004   6.794 -0.2623 -0.6135 -0.0038
18525TIP3    H177066   5.850   1.920   6.828 -1.8854 -0.6656  1.3411
18525TIP3    H277067   5.734   2.016   6.830 -0.7553  0.8606 -1.5844
18526TIP3   OH277068   3.414   6.742  12.508 -0.4510  0.1445  0.0151
18526TIP3    H177069   3.356   6.737  12.432 -0.0861  1.8034 -0.3969
18526TIP3    H277070   3.470   6.818  12.492  0.5095 -0.2427  1.3369
18527TIP3   OH277071   5.555   1.173  15.230 -0.4639 -0.0922 -0.4165
18527TIP3    H177072   5.596   1.205  15.150  0.7885 -0.9155 -0.1295
18527TIP3    H277073   5.470   1.217  15.233  0.1145  1.1380 -1.3865
18528TIP3   OH277074   4.518   5.092  17.002 -0.7396  0.5722 -0.6193
18528TIP3    H177075   4.477   5.137  17.075 -1.1902  1.9519 -1.6665
18528TIP3    H277076   4.490   5.001  17.010  0.8908  0.2060  2.0495
18529TIP3   OH277077   2.245   1.754   1.732  0.4791  0.4068 -0.5760
18529TIP3    H177078   2.307   1.680   1.732  1.1995  0.9667  1.0485
18529TIP3    H277079   2.163   1.716   1.701  1.2001 -0.7401 -1.1858
18530TIP3   OH277080   4.700   0.680   5.709  0.4748 -0.3497  0.0260
18530TIP3    H177081   4.683   0.627   5.787  1.8368 -0.6607  0.1385
18530TIP3    H277082   4.694   0.770   5.739  0.9720 -0.4687  0.4983
18531TIP3   OH277083   1.050   0.253  16.017 -0.1904  0.6931  0.6391
18531TIP3    H177084   0.992   0.267  16.092 -1.6832 -0.9096 -0.1405
18531TIP3    H277085   1.085   0.165  16.030  2.9072  1.9229  1.5560
18532TIP3   OH277086   3.704   5.023  15.626  0.2556  0.5727 -0.2297
18532TIP3    H177087   3.730   5.113  15.606  2.4619 -0.0992 -0.6697
18532TIP3    H277088   3.711   4.978  15.542  0.7266 -0.3495  0.2965
18533TIP3   OH277089   2.482   2.216  17.228  0.2342 -0.1688 -0.1262
18533TIP3    H177090   2.394   2.252  17.231  0.6970  0.9655  0.4080
18533TIP3    H277091   2.521   2.252  17.149 -0.2223 -1.8165 -1.1588
18534TIP3   OH277092   3.158   0.490   2.400 -0.0915 -0.4106 -0.1679
18534TIP3    H177093   3.136   0.564   2.344 -2.4061 -1.9817 -1.5232
18534TIP3    H277094   3.228   0.444   2.352 -0.0837 -0.2125 -0.3481
18535TIP3   OH277095   5.584   4.246   1.874  0.3396  0.0426  0.2971
18535TIP3    H177096   5.573   4.271   1.966  0.2075  0.6205  0.1318
18535TIP3    H277097   5.675   4.267   1.854  0.9989 -2.0528  0.8666
18536TIP3   OH277098   5.703   5.544   3.440  0.2700 -0.1697  0.1612
18536TIP3    H177099   5.771   5.482   3.466  0.7542 -0.4168 -1.5657
18536TIP3    H277100   5.716   5.620   3.496  2.0020 -0.1973 -0.1506
18537TIP3   OH277101   6.571   2.555   2.075 -0.9099 -0.1165 -0.2535
18537TIP3    H177102   6.498   2.537   2.134 -0.8896  1.1088  0.1886
18537TIP3    H277103   6.642   2.501   2.108 -1.7794 -1.8456 -1.1070
18538TIP3   OH277104   3.912   1.726  11.150  0.5532  0.3104  0.1678
18538TIP3    H177105   3.973   1.681  11.091 -0.1501  1.1567 -1.2647
18538TIP3    H277106   3.953   1.811  11.167  0.0475  0.6619 -0.3481
18539TIP3   OH277107   5.704   3.864  15.573 -0.7282  0.0140 -0.4139
18539TIP3    H177108   5.670   3.784  15.535 -0.3003 -2.4316  3.7381
18539TIP3    H277109   5.799   3.849  15.580 -0.2361  2.0052 -1.6767
18540TIP3   OH277110   3.385   3.625   2.363 -0.1628 -0.1554  0.8453
18540TIP3    H177111   3.404   3.578   2.282 -0.8220  0.0537  0.5593
18540TIP3    H277112   3.409   3.564   2.433  2.4143  0.4016  0.5681
18541TIP3   OH277113   3.785   1.350   4.537  0.4504 -0.4047  0.1884
18541TIP3    H177114   3.730   1.367   4.613  0.4359  0.1160  0.0654
18541TIP3    H277115   3.872   1.381   4.563  0.4007 -0.0298 -0.0766
18542TIP3   OH277116   6.303   0.271   1.274 -1.0429 -0.0954 -0.2208
18542TIP3    H177117   6.254   0.210   1.220 -0.0968 -0.1593 -1.0240
18542TIP3    H277118   6.265   0.357   1.255 -2.9440 -0.4757  1.5437
18543TIP3   OH277119   3.199   6.773  14.069  0.2362  0.4588 -0.6848
18543TIP3    H177120   3.219   6.818  13.987  2.2992  1.0310  0.0586
18543TIP3    H277121   3.283   6.770  14.115 -0.8033 -0.1406  1.2667
18544TIP3   OH277122   6.220   3.661  16.995 -0.0829  0.8332  0.0677
18544TIP3    H177123   6.127   3.665  17.017  0.4924  2.4258  2.6050
18544TIP3    H277124   6.242   3.568  16.998 -2.1466  0.0260 -3.6768
18545TIP3   OH277125   5.112   0.683  15.927 -0.2597 -0.0686  0.1860
18545TIP3    H177126   5.028   0.649  15.898  0.0614 -0.8288  0.1098
18545TIP3    H277127   5.159   0.705  15.847 -0.7305  1.2503  0.2522
18546TIP3   OH277128   0.764   6.694  12.783  0.4159  0.3361  0.2703
18546TIP3    H177129   0.787   6.667  12.694  3.2203 -4.0653  1.9456
18546TIP3    H277130   0.827   6.763  12.804  1.0473  0.0469 -0.5983
18547TIP3   OH277131   6.049   6.222   3.233  0.1970 -0.0663 -0.2538
18547TIP3    H177132   5.961   6.201   3.202  0.1987 -0.1966 -0.1699
18547TIP3    H277133   6.037   6.244   3.325  0.0643  1.1157 -0.5229
18548TIP3   OH277134   0.077   6.675   1.367  0.0120  0.0383 -0.1415
18548TIP3    H177135   0.161   6.712   1.340  0.1670  0.1765  0.5039
18548TIP3    H277136   0.022   6.751   1.385  0.6253  0.0402  2.1120
18549TIP3   OH277137   0.426   3.685  13.026  0.2941 -0.2226 -0.0046
18549TIP3    H177138   0.422   3.767  12.978  1.9616 -0.4880 -0.6634
18549TIP3    H277139   0.337   3.673  13.060 -0.7891  0.3210 -2.4204
18550TIP3   OH277140   2.071   2.710  13.934 -0.6531 -0.4701 -0.0047
18550TIP3    H177141   2.109   2.628  13.902 -0.0371 -0.3507  0.3983
18550TIP3    H277142   2.044   2.691  14.023 -0.3491 -0.1923  0.1517
18551TIP3   OH277143   3.471   2.767  11.092  0.2290  0.2332 -0.6507
18551TIP3    H177144   3.554   2.775  11.139 -0.7387  1.0315  0.9818
18551TIP3    H277145   3.412   2.726  11.154 -1.1797  1.5921 -1.0345
18552TIP3   OH277146   2.474   5.281  14.069  0.2050  0.2955  0.1192
18552TIP3    H177147   2.557   5.310  14.030  2.2488 -0.6186  3.3688
18552TIP3    H277148   2.478   5.312  14.160 -3.1517  0.3223  0.3948
18553TIP3   OH277149   6.554   6.346  13.329  0.2006 -0.1723 -0.1002
18553TIP3    H177150   6.577   6.351  13.422 -2.4055 -0.9574  0.6668
18553TIP3    H277151   6.487   6.413  13.317 -1.3372 -1.7577 -0.7655
18554TIP3   OH277152   1.296   5.637   3.464 -0.1422  0.3663 -0.0355
18554TIP3    H177153   1.388   5.663   3.463  0.0167 -0.2095 -1.1070
18554TIP3    H277154   1.298   5.544   3.484 -0.4652  0.2518 -0.5358
18555TIP3   OH277155   6.458   6.002  14.370  0.0877  0.4543  0.2039
18555TIP3    H177156   6.467   6.076  14.431  0.8001 -0.5974  1.4291
18555TIP3    H277157   6.460   5.925  14.427  0.4866 -0.5598 -1.1565
18556TIP3   OH277158   2.301   1.340   5.020  0.1702 -0.7518 -0.4574
18556TIP3    H177159   2.271   1.323   4.930 -2.4558 -1.1303  0.3992
18556TIP3    H277160   2.313   1.253   5.058 -0.1811 -0.6180 -0.0289
18557TIP3   OH277161   5.831   5.067  14.981 -0.5793  0.1092 -0.0446
18557TIP3    H177162   5.854   5.037  15.069 -0.7084  1.0117  0.3063
18557TIP3    H277163   5.884   5.145  14.967  0.5205 -0.8357 -1.3604
18558TIP3   OH277164   4.804   2.792   5.307  0.2098  0.0945  0.4785
18558TIP3    H177165   4.723   2.749   5.335 -0.0909  0.2466 -0.1252
18558TIP3    H277166   4.872   2.728   5.322 -0.2411 -0.6251 -0.4659
18559TIP3   OH277167   4.436   3.751  14.469 -0.0977 -0.1337  0.9146
18559TIP3    H177168   4.463   3.673  14.420 -0.5026  1.4423 -2.0421
18559TIP3    H277169   4.515   3.778  14.516  1.7973  0.6939 -2.4168
18560TIP3   OH277170   0.783   5.070  13.377 -0.2712 -0.0066 -0.4716
18560TIP3    H177171   0.698   5.041  13.410 -0.0280  0.0968  0.2474
18560TIP3    H277172   0.806   5.005  13.310 -0.8874 -0.0674 -0.6271
18561TIP3   OH277173   0.451   2.700  11.085 -0.6830 -0.1578 -0.7327
18561TIP3    H177174   0.477   2.792  11.084 -1.1026 -0.0350 -0.5364
18561TIP3    H277175   0.412   2.685  10.999 -0.7961 -0.0980 -0.6922
18562TIP3   OH277176   2.129   3.088   5.582 -0.2045  0.3864  0.2202
18562TIP3    H177177   2.127   3.009   5.636  0.7059 -0.0879 -0.4125
18562TIP3    H277178   2.054   3.140   5.611 -1.4667 -1.2084 -0.1005
18563TIP3   OH277179   5.935   6.540   3.060  0.0664 -0.1945 -0.9904
18563TIP3    H177180   5.953   6.530   3.154 -1.0597 -1.9000 -0.9086
18563TIP3    H277181   5.866   6.607   3.057 -1.7352 -1.9108 -0.3167
18564TIP3   OH277182   5.636   0.347  15.315 -0.2288 -0.0668  0.8411
18564TIP3    H177183   5.731   0.339  15.308 -0.2686 -0.5646  0.8777
18564TIP3    H277184   5.620   0.442  15.313  0.1123  0.0083 -1.2164
18565TIP3   OH277185   3.864   6.761  15.085 -0.1139  0.3045 -0.4179
18565TIP3    H177186   3.854   6.854  15.105  0.4625  0.1888  0.5138
18565TIP3    H277187   3.828   6.717  15.162 -2.7575 -0.3420 -1.8971
18566TIP3   OH277188   6.171   5.786   5.148  0.4341 -0.2401  0.2810
18566TIP3    H177189   6.095   5.734   5.120  0.3866 -0.9935  1.7164
18566TIP3    H277190   6.150   5.875   5.120 -1.7038 -0.1454  1.8912
18567TIP3   OH277191   0.429   2.091  14.328 -0.9411 -0.0909  0.4027
18567TIP3    H177192   0.442   2.120  14.238  1.4210  0.6774  0.9203
18567TIP3    H277193   0.453   2.167  14.382 -1.3025 -0.8546  1.6947
18568TIP3   OH277194   1.961   0.485  15.607  0.5707 -0.0495 -0.0914
18568TIP3    H177195   2.019   0.516  15.677 -1.3159  1.2615  1.0218
18568TIP3    H277196   1.892   0.438  15.654 -0.9163  1.1378 -0.9822
18569TIP3   OH277197   5.369   3.969   4.592  0.1637 -0.2721  0.7339
18569TIP3    H177198   5.439   3.984   4.656  0.1146  0.0020  0.7230
18569TIP3    H277199   5.343   4.057   4.563  1.1199 -0.4194 -0.6816
18570TIP3   OH277200   5.748   2.923   1.802  0.3883  0.2054  1.0866
18570TIP3    H177201   5.748   3.012   1.839  1.6538  1.1815 -1.0488
18570TIP3    H277202   5.679   2.877   1.850 -1.2210  2.7283  1.3630
18571TIP3   OH277203   1.077   5.902  14.914  0.0506 -0.2407  0.2719
18571TIP3    H177204   1.047   5.811  14.920 -1.9704  0.3356 -0.3308
18571TIP3    H277205   1.165   5.896  14.877 -0.8808 -1.8671 -1.8566
18572TIP3   OH277206   3.648   3.971  12.703  0.5703  0.0749 -0.3090
18572TIP3    H177207   3.592   3.960  12.780  1.4022 -0.6305  0.2139
18572TIP3    H277208   3.659   3.882  12.668 -1.1600  0.5501 -2.2642
18573TIP3   OH277209   2.227   3.317   5.253 -0.8032 -0.1306 -0.5439
18573TIP3    H177210   2.142   3.296   5.292 -0.5867  1.0436  0.6105
18573TIP3    H277211   2.213   3.401   5.208  0.0545  0.7838  0.8270
18574TIP3   OH277212   4.208   1.402   5.182  0.1857 -0.4253  0.0113
18574TIP3    H177213   4.249   1.316   5.173  0.3292 -0.2921 -0.6402
18574TIP3    H277214   4.269   1.463   5.139  0.4186  0.1054  1.0509
18575TIP3   OH277215   2.718   3.003   2.897 -0.3957  0.6992 -0.1455
18575TIP3    H177216   2.683   3.044   2.818 -1.4940  2.2115  1.0732
18575TIP3    H277217   2.764   3.074   2.942 -1.4915  0.3743  1.5387
18576TIP3   OH277218   0.002   4.713   2.300 -0.3554  0.3738  0.3954
18576TIP3    H177219   0.056   4.765   2.240  0.0979 -1.3518 -0.7682
18576TIP3    H277220   0.065   4.655   2.344 -1.2478 -3.0103 -2.3265
18577TIP3   OH277221   4.061   4.709  14.122  0.7061 -0.0980 -0.9677
18577TIP3    H177222   4.072   4.802  14.101  2.5471  0.0078  0.1851
18577TIP3    H277223   4.027   4.708  14.212 -0.7418 -0.5543 -1.4990
18578TIP3   OH277224   3.770   0.960  12.791  0.2368  0.2400 -0.1194
18578TIP3    H177225   3.786   0.936  12.882  0.5314 -1.8444 -0.6505
18578TIP3    H277226   3.848   1.010  12.765  0.0314  1.0647  0.8203
18579TIP3   OH277227   1.665   4.437   5.902 -0.6886 -0.6790 -0.2891
18579TIP3    H177228   1.696   4.471   5.986  0.5111 -1.5767 -0.3481
18579TIP3    H277229   1.572   4.419   5.916 -0.5855 -0.4439  0.7297
18580TIP3   OH277230   6.382   6.605  16.452 -0.7216  0.6546  0.5476
18580TIP3    H177231   6.351   6.683  16.406 -1.6869  0.2374  0.4672
18580TIP3    H277232   6.473   6.595  16.423 -1.0814  0.8104 -0.7285
18581TIP3   OH277233   6.112   6.735   1.347 -0.7388  0.6567  0.1530
18581TIP3    H177234   6.134   6.800   1.414 -0.7773 -0.1712  0.9856
18581TIP3    H277235   6.102   6.786   1.267  1.6310  1.3986  0.2582
18582TIP3   OH277236   2.229   2.551  14.255 -0.4173  0.0965 -0.0877
18582TIP3    H177237   2.252   2.465  14.291 -1.7308 -0.3540 -0.2650
18582TIP3    H277238   2.313   2.590  14.229  0.3741 -0.4039  1.5795
18583TIP3   OH277239   4.055   6.181   3.110 -0.0723  0.1268 -0.1000
18583TIP3    H177240   4.023   6.124   3.180 -0.5816  0.6110  0.0726
18583TIP3    H277241   3.979   6.236   3.088  0.4967  0.9370 -0.0584
18584TIP3   OH277242   0.626   3.296  17.156  0.0401  0.1802  0.1054
18584TIP3    H177243   0.564   3.360  17.122  1.2356  0.3043 -2.0640
18584TIP3    H277244   0.709   3.343  17.163  0.4138 -0.5419  0.7471
18585TIP3   OH277245   5.937   0.236  15.962  0.1791 -0.2270  0.3268
18585TIP3    H177246   5.929   0.141  15.958 -0.9105 -0.1674  0.6027
18585TIP3    H277247   5.878   0.268  15.893  0.2863  0.2507  0.4542
18586TIP3   OH277248   2.435   1.631  16.069  0.6146 -0.5970 -0.6882
18586TIP3    H177249   2.354   1.680  16.059  0.4573 -0.7743 -0.3034
18586TIP3    H277250   2.501   1.697  16.091  0.4368 -0.5355 -0.3332
18587TIP3   OH277251   2.560   4.018   2.106 -0.1871  0.3077  0.2478
18587TIP3    H177252   2.493   3.951   2.123  0.4139 -0.4058 -0.1604
18587TIP3    H277253   2.600   3.991   2.024  1.1996  0.2348  0.9246
18588TIP3   OH277254   3.402   5.553  11.323  0.0314  0.1695 -0.2041
18588TIP3    H177255   3.409   5.648  11.315  0.0165  0.1397 -0.5702
18588TIP3    H277256   3.481   5.526  11.370  1.0466  0.1391 -1.8814
18589TIP3   OH277257   2.446   6.535   0.645  0.0170  0.1976 -0.4266
18589TIP3    H177258   2.439   6.479   0.722  1.8547  0.1240 -0.2788
18589TIP3    H277259   2.437   6.476   0.570 -3.5418  0.4742 -0.4069
18590TIP3   OH277260   6.659   0.080   0.523 -0.1228 -0.4141  0.3892
18590TIP3    H177261   6.742   0.111   0.487  0.3714  1.7637  3.1276
18590TIP3    H277262   6.595   0.147   0.498 -0.2319 -0.0716  1.5380
18591TIP3   OH277263   4.652   2.898   1.421  0.2704 -0.3596 -0.1715
18591TIP3    H177264   4.635   2.945   1.339  1.9966  0.3838 -0.1467
18591TIP3    H277265   4.570   2.906   1.470  0.0756  1.5713 -0.7064
18592TIP3   OH277266   3.210   3.408  16.488  0.2673  0.3051  0.0209
18592TIP3    H177267   3.271   3.429  16.417  0.1411  0.2056 -0.1187
18592TIP3    H277268   3.197   3.491  16.534  1.5119  0.0547  0.8477
18593TIP3   OH277269   1.987   5.101  13.979 -0.5994 -0.7463  0.8261
18593TIP3    H177270   1.896   5.129  13.989 -0.7343 -1.0272  0.4166
18593TIP3    H277271   2.039   5.177  14.006 -0.9393  0.6215 -2.0116
18594TIP3   OH277272   4.299   1.287   4.013  0.6325 -0.0094  0.1387
18594TIP3    H177273   4.374   1.227   4.018  0.3986 -0.5685 -1.8777
18594TIP3    H277274   4.316   1.338   3.933 -0.1787  1.2260  0.7320
18595TIP3   OH277275   2.844   0.581   2.501 -0.0820  0.1314  0.1187
18595TIP3    H177276   2.859   0.671   2.473 -1.7608 -0.0812 -1.6746
18595TIP3    H277277   2.770   0.586   2.562 -1.0914 -0.1156 -1.0340
18596TIP3   OH277278   1.527   4.704  16.171  0.8331  0.3145 -0.0831
18596TIP3    H177279   1.549   4.745  16.088 -1.9902  1.7781 -0.2382
18596TIP3    H277280   1.507   4.777  16.230 -3.2123 -0.5616 -0.0190
18597TIP3   OH277281   3.510   6.460  15.874 -0.3769  0.4804  0.3615
18597TIP3    H177282   3.432   6.450  15.928 -0.5845  0.5762  0.0844
18597TIP3    H277283   3.506   6.551  15.844  0.3373  0.7679  1.1049
18598TIP3   OH277284   5.635   2.686   4.018 -0.4695 -0.1279 -0.4190
18598TIP3    H177285   5.688   2.613   4.049 -0.5569  0.0794  0.2460
18598TIP3    H277286   5.568   2.646   3.963  0.0791 -0.4400 -0.8592
18599TIP3   OH277287   2.031   0.607  11.288  0.1155  0.0798 -0.4341
18599TIP3    H177288   2.080   0.553  11.226  0.8161 -0.1083  0.2536
18599TIP3    H277289   2.088   0.610  11.366 -0.3320  1.0459 -0.1339
18600TIP3   OH277290   2.005   3.045  12.969  0.0927  0.6960 -0.1084
18600TIP3    H177291   1.915   3.016  12.987 -0.1397  0.3482 -1.6814
18600TIP3    H277292   2.058   2.998  13.032 -0.5465 -1.3941 -1.0365
18601TIP3   OH277293   3.041   3.729  12.576 -0.0898 -0.4838  0.9461
18601TIP3    H177294   3.000   3.798  12.629  0.2578 -0.0547  0.6643
18601TIP3    H277295   3.002   3.739  12.489  0.7645  0.0897  0.6065
18602TIP3   OH277296   2.764   2.289  15.004 -0.0421 -0.6382 -0.4476
18602TIP3    H177297   2.722   2.351  15.064 -1.8873 -1.8227 -0.4379
18602TIP3    H277298   2.824   2.239  15.060 -0.8250 -0.8985  0.1748
18603TIP3   OH277299   4.935   4.961   3.711  0.8623 -0.4285 -0.1791
18603TIP3    H177300   4.865   4.915   3.758  0.6867 -1.4808 -1.3925
18603TIP3    H277301   5.016   4.917   3.740  1.0676  0.8515  1.2965
18604TIP3   OH277302   0.522   1.131  16.540 -0.3000 -0.0321 -0.0167
18604TIP3    H177303   0.615   1.149  16.549 -0.4175  1.0387 -0.7882
18604TIP3    H277304   0.479   1.214  16.561 -1.0947 -0.5421  0.4423
18605TIP3   OH277305   4.201   5.796  11.632  0.4009 -0.0030 -0.2449
18605TIP3    H177306   4.278   5.796  11.689 -0.7087 -2.4506  1.4819
18605TIP3    H277307   4.235   5.807  11.544  2.4096  1.8383  0.6928
18606TIP3   OH277308   0.059   6.723  14.770 -0.2898 -0.3960  0.2688
18606TIP3    H177309   0.067   6.812  14.804  1.8015 -0.9506  1.3785
18606TIP3    H277310   0.076   6.730  14.676 -1.0521  0.4714  0.1858
18607TIP3   OH277311   5.732   0.685   6.233  0.1196 -0.2136  0.1490
18607TIP3    H177312   5.770   0.599   6.214 -0.1975 -0.0914 -1.0840
18607TIP3    H277313   5.808   0.743   6.243  0.3862 -0.8408  2.2086
18608TIP3   OH277314   0.369   0.633  12.403  0.0305 -0.8066 -0.1310
18608TIP3    H177315   0.310   0.639  12.478  0.3927 -1.6990  0.2522
18608TIP3    H277316   0.451   0.672  12.433 -0.4162  0.6346 -0.7362
18609TIP3   OH277317   4.103   3.279  12.326 -0.4520 -0.1719 -0.2981
18609TIP3    H177318   4.157   3.323  12.260  1.0405  0.7232  1.4225
18609TIP3    H277319   4.051   3.349  12.365  1.8954  0.2618  2.4202
18610TIP3   OH277320   5.113   4.275  12.175 -0.3301  0.4321 -0.5611
18610TIP3    H177321   5.207   4.262  12.182 -0.2965  0.5542 -0.7847
18610TIP3    H277322   5.075   4.193  12.206 -0.1604  0.5279 -0.0916
18611TIP3   OH277323   2.592   1.679   0.077  0.1847 -0.3633 -0.4597
18611TIP3    H177324   2.609   1.674  -0.017  0.5399 -0.6072 -0.3861
18611TIP3    H277325   2.535   1.755   0.087 -0.6682 -0.9258 -0.9765
18612TIP3   OH277326   2.761   6.615  17.303  0.4401  0.0224 -0.0950
18612TIP3    H177327   2.687   6.611  17.364 -0.4194 -1.7566 -1.1508
18612TIP3    H277328   2.788   6.707  17.302 -1.6533  0.6870  0.4647
18613TIP3   OH277329   0.990   4.206   6.078 -0.2649  0.2072 -0.5795
18613TIP3    H177330   0.963   4.152   6.004 -1.4783  1.2800 -0.9577
18613TIP3    H277331   1.058   4.263   6.042 -0.1070  0.0146 -0.5890
18614TIP3   OH277332   2.132   4.901  15.750  0.1306 -0.0998 -0.0584
18614TIP3    H177333   2.164   4.814  15.728 -1.9937 -0.3943 -2.5663
18614TIP3    H277334   2.104   4.895  15.841  0.7442 -1.7738  0.0477
18615TIP3   OH277335   2.439   1.523  15.069 -0.6677  0.3641  0.0807
18615TIP3    H177336   2.433   1.428  15.085  0.1887  0.0914 -1.0725
18615TIP3    H277337   2.421   1.533  14.976 -0.2099  1.2771  0.0801
18616TIP3   OH277338   5.060   2.316  16.059  0.4772 -0.2091  0.3293
18616TIP3    H177339   5.087   2.407  16.077  0.1176  0.2445 -1.2577
18616TIP3    H277340   5.011   2.322  15.977  0.2511 -1.8218  0.3247
18617TIP3   OH277341   6.686   0.241  11.429  0.5044 -0.7798  0.6629
18617TIP3    H177342   6.725   0.156  11.408  1.2819 -0.7342  1.8604
18617TIP3    H277343   6.683   0.244  11.524  1.5163  0.9856  0.6858
18618TIP3   OH277344   4.391   6.794  12.807 -0.4740 -0.2612  0.1851
18618TIP3    H177345   4.395   6.861  12.876 -0.5567  0.1433 -0.1948
18618TIP3    H277346   4.469   6.810  12.754  0.7282 -1.8907  1.3586
18619TIP3   OH277347   4.623   2.657   5.452 -0.4292 -0.1160  0.0349
18619TIP3    H177348   4.561   2.680   5.521 -0.5873  0.7539 -0.3807
18619TIP3    H277349   4.612   2.563   5.439 -2.5003  0.2030 -0.8327
18620TIP3   OH277350   5.030   0.308   2.880  0.7657  0.0614  0.5231
18620TIP3    H177351   5.116   0.335   2.915  0.2939 -0.7199  2.4307
18620TIP3    H277352   5.035   0.327   2.786  2.3407  1.7959  0.8875
18621TIP3   OH277353   4.207   4.606   3.192  0.1315  0.5724  0.4060
18621TIP3    H177354   4.116   4.629   3.175  0.0613 -1.6818 -3.6753
18621TIP3    H277355   4.258   4.662   3.133  0.9730 -0.7481 -0.1822
18622TIP3   OH277356   4.556   2.718  16.361  0.3619  0.2345 -0.2093
18622TIP3    H177357   4.531   2.662  16.288 -1.3864 -0.6081  0.9574
18622TIP3    H277358   4.577   2.802  16.321 -2.9346  0.5700 -1.6050
18623TIP3   OH277359   3.084   5.428   4.906 -0.2241  0.2760 -0.1632
18623TIP3    H177360   3.014   5.364   4.891 -1.0500  0.4077  2.5502
18623TIP3    H277361   3.056   5.476   4.985  2.1618  1.4456  0.0553
18624TIP3   OH277362   3.217   3.091  14.465 -0.0796  0.3726 -0.7210
18624TIP3    H177363   3.280   3.158  14.493  2.4954 -1.5168 -1.5032
18624TIP3    H277364   3.213   3.100  14.370 -1.1035  0.5434 -0.6638
18625TIP3   OH277365   2.662   6.704  11.374  0.2136  0.3474 -0.2211
18625TIP3    H177366   2.717   6.767  11.327 -1.7519  0.1853 -2.9623
18625TIP3    H277367   2.663   6.625  11.319 -1.0245 -0.3978  0.7701
18626TIP3   OH277368   4.830   3.316   2.542 -0.0410  0.4951 -0.3457
18626TIP3    H177369   4.767   3.318   2.470 -0.3398  1.0276 -0.0782
18626TIP3    H277370   4.883   3.394   2.529 -0.6229  1.0347  0.4704
18627TIP3   OH277371   5.892   0.008  11.764 -0.0075  0.5046 -0.1111
18627TIP3    H177372   5.829  -0.055  11.800 -0.5951  0.9277 -0.3958
18627TIP3    H277373   5.969  -0.002  11.820 -1.4504  2.3109  2.4257
18628TIP3   OH277374   1.250   5.627   6.497 -0.2802 -0.5224  0.1508
18628TIP3    H177375   1.291   5.616   6.583 -1.0592  1.1932  0.7823
18628TIP3    H277376   1.158   5.604   6.511 -0.4236 -0.1739 -0.1959
18629TIP3   OH277377   6.258   4.673   5.156  0.0994  0.0426 -0.1357
18629TIP3    H177378   6.175   4.721   5.157  0.7906  1.2707  0.3795
18629TIP3    H277379   6.309   4.711   5.227  1.3337 -0.2961 -0.8047
18630TIP3   OH277380   0.737   1.405  15.932  0.2834  0.3782 -0.2428
18630TIP3    H177381   0.777   1.318  15.933 -0.9060 -0.1982 -0.5866
18630TIP3    H277382   0.694   1.410  15.846 -1.6611  0.3254  0.6648
18631TIP3   OH277383   4.401   0.934  16.690  0.1681  0.5275 -0.8562
18631TIP3    H177384   4.485   0.957  16.730  1.1151  0.3413 -2.6290
18631TIP3    H277385   4.337   0.947  16.760  1.4798  2.0673  0.1483
18632TIP3   OH277386   2.369   0.257   0.746 -0.3437 -0.3936 -0.0023
18632TIP3    H177387   2.429   0.244   0.820  0.0979 -1.1059 -0.4708
18632TIP3    H277388   2.388   0.184   0.687  0.2864  0.9121 -1.4816
18633TIP3   OH277389   6.382   0.773  15.053  0.0452  0.0080  0.3938
18633TIP3    H177390   6.437   0.834  15.102  0.8767  0.7235 -1.3261
18633TIP3    H277391   6.320   0.739  15.117  1.4457  0.4351  2.0361
18634TIP3   OH277392   1.389   5.148  12.996  0.3757  0.3352  0.6315
18634TIP3    H177393   1.357   5.230  12.958 -2.6592 -1.3926 -0.9541
18634TIP3    H277394   1.434   5.104  12.924 -0.0908 -0.3581  0.7454
18635TIP3   OH277395   5.343   2.350   4.346 -0.1473  0.2012  0.6204
18635TIP3    H177396   5.326   2.386   4.433 -0.2882 -0.0015  0.6761
18635TIP3    H277397   5.438   2.342   4.342 -0.1558 -0.0310  0.8515
18636TIP3   OH277398   6.119   4.001   3.734 -0.0485  0.3391  0.1792
18636TIP3    H177399   6.074   3.974   3.814 -2.0707  2.3793 -0.1440
18636TIP3    H277400   6.120   3.923   3.679 -1.3368 -0.3335  1.0542
18637TIP3   OH277401   1.683   3.789   5.678  0.6542  0.4306  0.4389
18637TIP3    H177402   1.730   3.866   5.710  1.6117  0.8774 -1.8984
18637TIP3    H277403   1.743   3.716   5.695 -0.1495  0.1684  2.4220
18638TIP3   OH277404   0.693   1.965   0.054 -0.0329  0.4055 -0.3015
18638TIP3    H177405   0.745   2.039   0.022 -1.3042  1.3210 -0.3421
18638TIP3    H277406   0.602   1.993   0.043 -0.5711  0.2341  2.7936
18639TIP3   OH277407   5.762   2.763  11.822 -0.0137 -0.5202 -0.3051
18639TIP3    H177408   5.741   2.720  11.739 -1.0965  0.6829 -0.6968
18639TIP3    H277409   5.850   2.796  11.811 -0.3769  0.1634 -1.2192
18640TIP3   OH277410   2.032   1.671  14.413 -0.0710 -0.4805 -0.3829
18640TIP3    H177411   2.009   1.638  14.326 -0.3330 -0.8448 -0.1821
18640TIP3    H277412   2.043   1.591  14.466 -1.5702 -0.2549  0.3321
18641TIP3   OH277413   2.001   1.513  12.039  0.0910  0.1262  0.5565
18641TIP3    H177414   2.004   1.468  12.123 -0.6155 -1.4092 -0.1921
18641TIP3    H277415   1.933   1.579  12.049 -0.4645 -0.5009  1.0006
18642TIP3   OH277416   6.322   4.135   0.618  0.4995 -0.3602 -0.0705
18642TIP3    H177417   6.306   4.229   0.615  0.9211 -0.2565  0.7387
18642TIP3    H277418   6.238   4.097   0.644  0.3548 -0.2025 -0.3010
18643TIP3   OH277419   2.578   0.467  12.095  0.3613  0.6433 -0.1705
18643TIP3    H177420   2.523   0.522  12.151 -0.1862  0.7484 -0.8026
18643TIP3    H277421   2.599   0.392  12.150 -0.2471  0.6962  0.1498
18644TIP3   OH277422   3.762   3.362   4.747 -0.6151 -0.4071 -0.0082
18644TIP3    H177423   3.672   3.332   4.760 -0.9143  0.6680  0.4796
18644TIP3    H277424   3.815   3.285   4.766 -1.4308 -1.1134 -0.4925
18645TIP3   OH277425   4.434   3.272  15.007 -0.4750 -0.5816 -0.6844
18645TIP3    H177426   4.441   3.275  14.912 -0.7735 -0.6598 -0.7113
18645TIP3    H277427   4.518   3.302  15.039 -0.0237 -1.4905 -0.9835
18646TIP3   OH277428   1.683   4.821  13.300  0.2421  0.0327 -0.2842
18646TIP3    H177429   1.665   4.915  13.308 -1.6323 -0.3827  1.2012
18646TIP3    H277430   1.758   4.806  13.356  1.7954  0.8941 -2.0185
18647TIP3   OH277431   6.669   6.550  16.442  0.0639  0.7203 -0.6821
18647TIP3    H177432   6.709   6.597  16.515  0.7663 -0.8786  0.0059
18647TIP3    H277433   6.671   6.612  16.370 -2.4131  3.0870  1.0570
18648TIP3   OH277434   1.783   1.515   3.062  0.5767 -0.3854 -0.1154
18648TIP3    H177435   1.789   1.421   3.078 -0.0513 -0.7561 -1.8399
18648TIP3    H277436   1.731   1.548   3.135  1.3170 -1.2652  0.8353
18649TIP3   OH277437   2.180   3.514   4.252 -0.5191  0.0237  0.3316
18649TIP3    H177438   2.145   3.535   4.166 -0.8351  0.4397  0.5578
18649TIP3    H277439   2.105   3.522   4.311  0.1729  2.0579  0.9988
18650TIP3   OH277440   5.008   2.561   6.219 -0.1380  0.0432  0.5185
18650TIP3    H177441   4.928   2.561   6.270 -1.1821  0.5057 -1.0339
18650TIP3    H277442   4.979   2.576   6.129  1.6408 -0.3679 -0.1725
18651TIP3   OH277443   5.495   2.210   5.143  0.1609 -0.1329  0.7887
18651TIP3    H177444   5.414   2.237   5.187 -0.2565 -1.2451  0.7548
18651TIP3    H277445   5.473   2.125   5.104  0.2046  1.1279 -2.3291
18652TIP3   OH277446   2.950   5.208   2.560  0.0248 -0.3415  0.1189
18652TIP3    H177447   2.968   5.208   2.466  0.0467 -0.9192  0.1165
18652TIP3    H277448   2.960   5.116   2.586 -1.0772 -0.3873  0.4710
18653TIP3   OH277449   0.229   5.207   4.817 -0.4377 -0.8531 -0.3147
18653TIP3    H177450   0.154   5.199   4.759 -0.3807 -0.7881 -0.3978
18653TIP3    H277451   0.290   5.139   4.789 -1.1590 -2.0069  0.8146
18654TIP3   OH277452   0.322   1.048   3.125  0.2949  0.1604 -0.4357
18654TIP3    H177453   0.380   0.973   3.113  0.3395  0.0156  0.6069
18654TIP3    H277454   0.237   1.018   3.091  0.2940 -0.3896  0.0389
18655TIP3   OH277455   3.872   4.893  13.434 -0.0608 -0.3281 -0.1876
18655TIP3    H177456   3.779   4.880  13.450 -0.0729  1.5312  1.6431
18655TIP3    H277457   3.910   4.904  13.521  1.8267 -0.7152 -0.9142
18656TIP3   OH277458   4.632   6.241   0.305 -0.5602  0.6578  0.4858
18656TIP3    H177459   4.663   6.185   0.234  0.8383 -0.1997  1.6990
18656TIP3    H277460   4.549   6.201   0.332  0.4542 -0.9933  1.3969
18657TIP3   OH277461   3.689   3.662  16.199  0.2188 -0.8106 -0.0549
18657TIP3    H177462   3.689   3.738  16.257 -2.0234 -2.0404  1.7027
18657TIP3    H277463   3.678   3.698  16.111 -2.7408  0.8890  0.9053
18658TIP3   OH277464   2.612   0.307  13.896  0.5829  0.4536 -0.1910
18658TIP3    H177465   2.576   0.237  13.841  1.9904  1.7535 -2.9552
18658TIP3    H277466   2.548   0.317  13.967 -1.4827 -1.1743 -1.7103
18659TIP3   OH277467   1.313   2.511   0.016 -0.4250 -0.2896  0.3846
18659TIP3    H177468   1.309   2.521  -0.079  0.9248  0.4535  0.3811
18659TIP3    H277469   1.310   2.601   0.050  2.6563 -0.2290  0.8263
18660TIP3   OH277470   2.622   3.358  13.375  0.1167  0.2408  0.5658
18660TIP3    H177471   2.556   3.300  13.337 -0.2131  0.7674  0.3257
18660TIP3    H277472   2.698   3.301  13.389 -0.6861 -0.6036  1.7169
18661TIP3   OH277473   2.045   2.916   1.159  0.3615 -0.9520 -0.2304
18661TIP3    H177474   2.130   2.882   1.185  0.4085 -0.9415 -0.3699
18661TIP3    H277475   2.050   3.010   1.174  0.7488 -0.7945 -1.2461
18662TIP3   OH277476   5.593   0.321  13.121  0.3676 -0.5102  0.1638
18662TIP3    H177477   5.510   0.290  13.157  0.3782 -0.5331  0.1686
18662TIP3    H277478   5.568   0.387  13.056  0.2301 -1.9589 -1.3231
18663TIP3   OH277479   2.447   6.327   5.720  0.0658 -0.2154 -0.2544
18663TIP3    H177480   2.476   6.418   5.709 -0.0785  0.0822  1.4502
18663TIP3    H277481   2.443   6.315   5.815 -0.2595 -1.9082 -0.4485
18664TIP3   OH277482   0.849   2.790   4.142 -0.8783 -0.5354  0.1376
18664TIP3    H177483   0.825   2.749   4.059 -0.7109 -2.3780  0.9378
18664TIP3    H277484   0.785   2.757   4.204  1.6171 -2.9844  1.6596
18665TIP3   OH277485   5.949   3.589   4.119 -0.3391  0.0419  0.6368
18665TIP3    H177486   5.892   3.653   4.162 -0.5250  1.4624 -1.5619
18665TIP3    H277487   6.016   3.569   4.185 -0.6753  1.9813  1.6576
18666TIP3   OH277488   6.306   4.308   4.271  0.1870  0.2025  0.1362
18666TIP3    H177489   6.397   4.335   4.275  0.2806 -0.1270  0.2538
18666TIP3    H277490   6.265   4.348   4.348  0.6172 -1.0440  1.0497
18667TIP3   OH277491   3.364   5.908   6.593  0.1138  0.2269 -0.1358
18667TIP3    H177492   3.415   5.917   6.512 -0.7390  1.0361 -0.6086
18667TIP3    H277493   3.293   5.848   6.570  1.6058 -2.0582  0.9293
18668TIP3   OH277494   1.648   2.952   4.828  0.4326 -0.3143  0.4517
18668TIP3    H177495   1.582   2.962   4.896  0.3532  2.8239  0.0794
18668TIP3    H277496   1.730   2.938   4.875  0.2366  0.9092  1.2099
18669TIP3   OH277497   3.675   5.547   0.975 -0.5641 -0.0072 -0.4312
18669TIP3    H177498   3.587   5.511   0.961 -0.7784 -0.1694  1.1795
18669TIP3    H277499   3.666   5.603   1.052  0.7565 -0.0557 -0.2283
18670TIP3   OH277500   1.961   2.884   0.221  0.9451  0.4731  0.2467
18670TIP3    H177501   2.030   2.821   0.202  1.4386  0.6475  1.4118
18670TIP3    H277502   2.006   2.963   0.249  0.2874  0.6590  0.8248
18671TIP3   OH277503   6.408   1.216   2.615  0.5178  0.5531 -0.3697
18671TIP3    H177504   6.409   1.280   2.544  0.4106  2.0130  0.9185
18671TIP3    H277505   6.442   1.262   2.691  0.9347 -1.0730  0.4797
18672TIP3   OH277506   0.041   0.150  12.232 -0.3067  0.0934 -0.2740
18672TIP3    H177507   0.131   0.122  12.217  0.0129  1.1383 -0.3235
18672TIP3    H277508   0.012   0.097  12.307  0.2664 -0.4096 -0.4028
18673TIP3   OH277509   0.135   5.890  16.611 -0.1566 -0.1041  0.3676
18673TIP3    H177510   0.176   5.836  16.679 -0.9559 -2.2920 -0.7918
18673TIP3    H277511   0.207   5.943  16.576  0.4376  0.4087  2.2642
18674TIP3   OH277512   3.304   2.880  12.011 -0.1103  0.1500  0.1992
18674TIP3    H177513   3.329   2.957  11.958  2.7742  0.9167  2.4371
18674TIP3    H277514   3.358   2.809  11.977  0.3598  0.1793  0.8785
18675TIP3   OH277515   6.446   6.419   1.672  0.2459 -0.5827  0.7131
18675TIP3    H177516   6.386   6.345   1.660  0.4412 -0.5811 -0.3479
18675TIP3    H277517   6.421   6.482   1.604  2.7546 -1.4616 -1.1795
18676TIP3   OH277518   2.848   1.554   5.471  0.2707  0.4823  0.1704
18676TIP3    H177519   2.924   1.598   5.434 -0.1648  1.4334  0.3852
18676TIP3    H277520   2.796   1.624   5.510 -0.7832 -0.1360 -0.0817
18677TIP3   OH277521   4.535   3.887   2.190 -0.4842  0.4512 -0.2476
18677TIP3    H177522   4.489   3.887   2.274  0.4128 -0.8980  0.2760
18677TIP3    H277523   4.483   3.829   2.134 -0.0116 -0.2481  0.0213
18678TIP3   OH277524   5.740   2.151  14.823  0.2900  0.2745 -0.1432
18678TIP3    H177525   5.805   2.154  14.753  0.0165  0.8667 -0.3703
18678TIP3    H277526   5.790   2.171  14.903  0.2840  1.3786 -0.3980
18679TIP3   OH277527   1.735   4.620  15.794  0.3075  0.3067  0.6383
18679TIP3    H177528   1.692   4.684  15.851 -0.2720  0.2218  0.3089
18679TIP3    H277529   1.728   4.658  15.707 -2.2275 -1.2461  0.0452
18680TIP3   OH277530   2.931   1.652  14.912 -0.4850 -0.7506 -0.0959
18680TIP3    H177531   2.888   1.653  14.997 -0.6069 -0.5452 -0.1589
18680TIP3    H277532   2.881   1.590  14.860 -0.6823 -0.5437 -0.1558
18681TIP3   OH277533   0.173   2.814   5.612 -0.6055  0.0494 -0.2896
18681TIP3    H177534   0.161   2.888   5.671  0.4578  0.1772 -0.2232
18681TIP3    H277535   0.159   2.850   5.524 -0.8096  0.1599 -0.2130
18682TIP3   OH277536   0.173   3.644  17.027 -0.0541  0.2274 -0.2350
18682TIP3    H177537   0.175   3.561  17.074 -3.2317  0.6159  0.8280
18682TIP3    H277538   0.183   3.620  16.935  0.1709 -1.2092  0.1450
18683TIP3   OH277539   4.123   4.305   1.479 -0.1608  0.1736 -0.0008
18683TIP3    H177540   4.116   4.345   1.565 -0.8709 -0.9428  0.4769
18683TIP3    H277541   4.194   4.242   1.488 -1.2138 -1.0189  0.2284
18684TIP3   OH277542   0.328   4.323   1.406  0.4467  0.2570 -0.1320
18684TIP3    H177543   0.233   4.335   1.407  0.0033 -2.4016  2.6072
18684TIP3    H277544   0.341   4.241   1.359  1.3070  0.2319  0.1354
18685TIP3   OH277545   1.568   1.217   6.220 -0.3594  0.1683 -0.2035
18685TIP3    H177546   1.518   1.273   6.279 -1.0675 -0.2812 -0.3752
18685TIP3    H277547   1.656   1.213   6.260 -0.7849 -0.0216  0.7540
18686TIP3   OH277548   1.090   0.668   1.940 -0.5750 -0.0313 -0.0304
18686TIP3    H177549   1.115   0.575   1.941  0.2403  0.1679  1.8250
18686TIP3    H277550   1.062   0.687   2.030  0.5465  1.8326 -0.0173
18687TIP3   OH277551   4.200   6.487   5.636  0.8345  0.3569  0.2798
18687TIP3    H177552   4.243   6.448   5.712  0.6658 -1.9021 -0.7158
18687TIP3    H277553   4.146   6.557   5.673 -1.5776 -2.5130  2.7361
18688TIP3   OH277554   5.261   2.662  12.845 -0.3144 -0.3375  0.2127
18688TIP3    H177555   5.331   2.725  12.862  0.7711 -1.5884  0.6178
18688TIP3    H277556   5.281   2.629  12.757 -1.0264  0.0750 -0.1037
18689TIP3   OH277557   2.200   1.111  15.242 -0.5961 -0.3196 -0.1163
18689TIP3    H177558   2.210   1.071  15.328 -0.5707 -2.0690 -0.8956
18689TIP3    H277559   2.163   1.042  15.187 -0.8191  0.8194 -1.4701
18690TIP3   OH277560   5.766   1.299  11.588  0.2719 -0.0920  0.3221
18690TIP3    H177561   5.792   1.347  11.667  0.1013  0.0126  0.3146
18690TIP3    H277562   5.828   1.227  11.583  0.3534 -0.0352  0.4909
18691TIP3   OH277563   3.330   3.995  13.413 -0.4886 -0.7703 -0.0623
18691TIP3    H177564   3.322   3.984  13.508  0.1612 -1.4957 -0.0795
18691TIP3    H277565   3.399   3.934  13.388 -0.1379 -0.0536 -0.9020
18692TIP3   OH277566   2.160   5.280   5.705 -0.2126 -0.7149  0.1954
18692TIP3    H177567   2.089   5.267   5.767 -0.5164 -1.4005 -0.2845
18692TIP3    H277568   2.156   5.204   5.648 -0.0011 -0.0451 -0.7318
18693TIP3   OH277569   5.919   4.965  11.067 -0.3972  0.0486 -0.7626
18693TIP3    H177570   5.941   4.894  11.127  0.0704 -0.4032 -1.4681
18693TIP3    H277571   5.940   5.045  11.116  5.9522 -0.1940 -2.3168
18694TIP3   OH277572   0.804   1.850  16.111  0.1818  0.2417  0.1351
18694TIP3    H177573   0.871   1.814  16.170  0.2051  2.1086  1.3328
18694TIP3    H277574   0.834   1.939  16.093  0.1799 -0.2481 -2.7853
18695TIP3   OH277575   3.522   2.314   5.312 -0.3785  0.2132 -0.1830
18695TIP3    H177576   3.519   2.283   5.222 -1.2736 -0.3722  0.0451
18695TIP3    H277577   3.560   2.402   5.305  1.9547 -0.7552 -0.8548
18696TIP3   OH277578   6.787   4.837  11.799  0.1796  0.1524 -0.4276
18696TIP3    H177579   6.848   4.829  11.725 -0.3881  0.5996 -0.9532
18696TIP3    H277580   6.738   4.755  11.799 -0.7852  0.6960 -1.4405
18697TIP3   OH277581   4.161   1.791  15.123 -0.0344 -0.1797 -0.4793
18697TIP3    H177582   4.201   1.866  15.080  0.9441 -0.0136  0.6686
18697TIP3    H277583   4.233   1.731  15.140 -0.2458  0.0431  1.4683
18698TIP3   OH277584   3.145   0.185  13.754  0.0232  0.4890 -0.0262
18698TIP3    H177585   3.114   0.101  13.719 -2.9307  0.8007  1.5013
18698TIP3    H277586   3.199   0.161  13.830  0.0874 -0.0350 -0.2336
18699TIP3   OH277587   0.176   4.956   2.208  0.6160  0.0727  0.1188
18699TIP3    H177588   0.139   5.034   2.249  2.4609  1.5544 -0.8404
18699TIP3    H277589   0.258   4.941   2.255  1.0738 -0.2600 -0.7583
18700TIP3   OH277590   5.605   3.875   0.494 -0.1538  0.3143  0.4903
18700TIP3    H177591   5.558   3.793   0.480  2.7123 -1.3672 -0.0310
18700TIP3    H277592   5.548   3.942   0.457 -1.7342 -1.6761 -0.8795
18701TIP3   OH277593   4.757   2.498  13.266 -0.0807 -0.2878  0.2799
18701TIP3    H177594   4.672   2.486  13.225  0.0238  0.0066 -0.0262
18701TIP3    H277595   4.779   2.590  13.251  0.4338 -0.4373  0.0685
18702TIP3   OH277596   5.148   0.250   0.004 -0.0084  0.2751  0.1933
18702TIP3    H177597   5.138   0.342  -0.020 -0.6660  0.1494 -0.0171
18702TIP3    H277598   5.062   0.211  -0.011  0.0990 -0.2411  0.8802
18703TIP3   OH277599   5.660   3.347  12.661 -0.2438  0.3563  0.9956
18703TIP3    H177600   5.708   3.402  12.599 -1.3372  0.5315  0.2778
18703TIP3    H277601   5.702   3.364  12.746  0.0847  1.5330  0.6138
18704TIP3   OH277602   5.006   5.736  14.635 -1.1178 -0.7059 -0.5318
18704TIP3    H177603   4.952   5.800  14.587 -0.1359  0.8729  0.3804
18704TIP3    H277604   4.949   5.706  14.706 -0.7910  1.1048  0.5497
18705TIP3   OH277605   1.257   6.553  13.889  0.5112  0.3424  0.1983
18705TIP3    H177606   1.331   6.613  13.905  1.0101 -0.2491  0.1465
18705TIP3    H277607   1.239   6.562  13.796  1.4471 -0.5372 -0.0914
18706TIP3   OH277608   0.701   0.960   1.005  0.2816 -0.5811  0.5220
18706TIP3    H177609   0.727   1.044   1.043  0.4185 -1.3715  2.2900
18706TIP3    H277610   0.625   0.933   1.056 -0.3576 -1.1062 -0.6645
18707TIP3   OH277611   4.794   1.554   2.149  0.2042 -0.2476 -0.0837
18707TIP3    H177612   4.863   1.552   2.083 -0.9089  2.1035 -1.4522
18707TIP3    H277613   4.834   1.515   2.227  1.6834 -2.7887 -1.9734
18708TIP3   OH277614   0.694   3.475  11.600  0.2483 -0.2372 -0.4108
18708TIP3    H177615   0.719   3.440  11.685  0.9622  0.8986 -0.1371
18708TIP3    H277616   0.653   3.401  11.555  0.4940 -1.0415  0.6472
18709TIP3   OH277617   3.427   1.816  16.736 -0.0367 -0.5209  0.0390
18709TIP3    H177618   3.470   1.900  16.750 -0.4295 -0.6143  2.1738
18709TIP3    H277619   3.351   1.837  16.682  0.9764  0.1246 -1.1891
18710TIP3   OH277620   0.340   1.288  16.319  0.3700  0.2576 -0.0557
18710TIP3    H177621   0.325   1.374  16.357  1.5250  0.5395 -0.1940
18710TIP3    H277622   0.415   1.300  16.261  0.8966 -0.9509  0.3406
18711TIP3   OH277623   4.780   1.054   4.169 -0.2921 -0.4063 -0.0940
18711TIP3    H177624   4.827   1.017   4.244  2.0587  0.4590 -1.0589
18711TIP3    H277625   4.716   1.113   4.207 -0.1219 -1.0602  1.2579
18712TIP3   OH277626   2.315   4.839  11.310  0.0974 -0.1778 -0.4054
18712TIP3    H177627   2.330   4.904  11.241  0.3779 -0.5451 -0.6920
18712TIP3    H277628   2.356   4.878  11.388 -4.0810  2.4099  0.8241
18713TIP3   OH277629   4.879   0.099   2.146  0.4492 -0.2301  0.0267
18713TIP3    H177630   4.938   0.043   2.096  0.4787 -0.2909  0.1290
18713TIP3    H277631   4.797   0.049   2.151  0.5565 -0.3763  0.3374
18714TIP3   OH277632   2.996   4.904   4.403 -0.8015 -0.2672  0.3061
18714TIP3    H177633   3.037   4.955   4.473  1.0235  0.6538 -1.3427
18714TIP3    H277634   2.951   4.969   4.349 -2.1211 -0.9583  0.5286
18715TIP3   OH277635   3.705   6.048   1.811 -0.1611 -0.2097 -0.3150
18715TIP3    H177636   3.683   6.064   1.903  0.8282  0.6816 -0.2189
18715TIP3    H277637   3.731   5.955   1.808  1.2175  0.1143  0.6122
18716TIP3   OH277638   0.981   4.862  16.251  0.1806  0.4217 -0.1129
18716TIP3    H177639   0.890   4.886  16.235  0.0237  1.8923  2.3555
18716TIP3    H277640   0.979   4.816  16.335  1.6987  0.3822 -0.0676
18717TIP3   OH277641   2.988   6.031  14.600 -0.0325 -0.0310  0.1834
18717TIP3    H177642   3.082   6.047  14.613  0.4061 -2.0294 -0.2892
18717TIP3    H277643   2.971   6.062  14.511  0.4756 -0.8258 -0.1971
18718TIP3   OH277644   4.943   6.767  12.123  0.4778  0.0544 -0.1625
18718TIP3    H177645   4.854   6.733  12.119  1.1061 -1.8101  0.9525
18718TIP3    H277646   4.968   6.780  12.031 -0.5842 -0.3656 -0.5212
18719TIP3   OH277647   5.172   4.365   4.831  0.3413  0.1290  0.0748
18719TIP3    H177648   5.172   4.321   4.745 -1.1426 -0.5244  0.3789
18719TIP3    H277649   5.192   4.457   4.811 -1.1685  0.2302 -1.1305
18720TIP3   OH277650   0.337   1.233  13.531  0.1992  0.1489 -0.5853
18720TIP3    H177651   0.248   1.241  13.496  0.1134 -0.0571 -0.4113
18720TIP3    H277652   0.328   1.180  13.609  0.5040 -0.0318 -0.6701
18721TIP3   OH277653   2.388   5.670   4.919  0.7376  0.2450  0.0229
18721TIP3    H177654   2.479   5.672   4.888  1.1453  1.9064  1.1828
18721TIP3    H277655   2.345   5.741   4.872 -0.1484 -0.9263 -0.9760
18722TIP3   OH277656   6.388   0.873  16.848 -0.8529 -0.5752 -0.2383
18722TIP3    H177657   6.325   0.913  16.788 -1.5349 -0.8905  0.2539
18722TIP3    H277658   6.451   0.943  16.867  0.3443 -0.9259 -2.5932
18723TIP3   OH277659   3.566   2.031  11.748  0.1033 -0.3760  0.3928
18723TIP3    H177660   3.564   2.031  11.844 -0.9046 -0.6902  0.3808
18723TIP3    H277661   3.489   2.082  11.722 -0.0573 -0.9371 -0.2526
18724TIP3   OH277662   1.428   0.711  14.949 -0.6843 -0.1049  0.0585
18724TIP3    H177663   1.478   0.632  14.927  1.1825  0.9576  0.3226
18724TIP3    H277664   1.410   0.702  15.043 -0.3467 -0.1483  0.1192
18725TIP3   OH277665   0.179   1.330   6.299  0.1064 -0.3154  0.2460
18725TIP3    H177666   0.221   1.346   6.214 -1.9142 -0.3108 -0.8159
18725TIP3    H277667   0.098   1.285   6.277 -1.1445  0.9140  2.0853
18726TIP3   OH277668   6.758   1.975  11.655 -0.0250 -0.4009 -0.5979
18726TIP3    H177669   6.810   1.941  11.728  0.9679 -0.5683 -1.3639
18726TIP3    H277670   6.775   1.914  11.583 -1.1313 -0.3392 -0.9281
18727TIP3   OH277671   0.472   0.921  16.384 -0.7368 -0.2024  0.3771
18727TIP3    H177672   0.479   1.001  16.436 -1.8898  0.7277 -0.8330
18727TIP3    H277673   0.387   0.928  16.340  0.2807 -0.7700 -1.8319
18728TIP3   OH277674   2.232   1.313  16.798 -0.0728 -0.0129 -0.2329
18728TIP3    H177675   2.222   1.315  16.702 -1.0951 -2.1681 -0.2082
18728TIP3    H277676   2.246   1.405  16.821 -0.0912  0.6113 -2.4156
18729TIP3   OH277677   1.152   2.322  17.171 -0.2455  0.1653  0.1402
18729TIP3    H177678   1.218   2.392  17.175 -0.6847  0.8807 -2.5711
18729TIP3    H277679   1.203   2.242  17.162  0.2558  0.1811  2.4072
18730TIP3   OH277680   6.234   3.066  14.150  0.2649 -0.3319 -0.2908
18730TIP3    H177681   6.265   3.069  14.240 -2.2949  0.2402  0.6410
18730TIP3    H277682   6.266   3.148  14.111  1.3042 -0.5375  0.0930
18731TIP3   OH277683   2.987   1.587  11.773 -0.2390  0.5637  0.1505
18731TIP3    H177684   2.991   1.631  11.857 -2.2565 -2.9250  2.3621
18731TIP3    H277685   2.896   1.598  11.745 -0.1235 -0.0172 -0.4911
18732TIP3   OH277686   6.163   0.432   1.593 -0.4782 -0.1088  0.2403
18732TIP3    H177687   6.184   0.486   1.669  1.6195  2.5712 -2.0365
18732TIP3    H277688   6.164   0.493   1.520 -0.9856 -2.8016 -2.1691
18733TIP3   OH277689   0.600   0.952   5.986 -0.5763  0.1323 -0.8741
18733TIP3    H177690   0.582   0.980   6.076 -0.9990  0.3504 -1.0261
18733TIP3    H277691   0.519   0.910   5.957 -0.4435  0.0701 -1.1554
18734TIP3   OH277692   3.337   2.161   4.099 -0.3164 -0.1178  0.1268
18734TIP3    H177693   3.332   2.182   4.192 -0.6475  2.3314 -0.3811
18734TIP3    H277694   3.315   2.068   4.094 -0.9802 -0.1399  2.4146
18735TIP3   OH277695   2.958   0.621   5.557  0.3585 -0.5426  0.2077
18735TIP3    H177696   2.907   0.653   5.631  1.1370 -0.4356  0.7029
18735TIP3    H277697   3.048   0.615   5.589  0.4184 -2.2789 -0.1693
18736TIP3   OH277698   5.574   4.971  15.532  0.1656 -0.8731  0.0149
18736TIP3    H177699   5.629   5.043  15.562 -0.2063 -0.1937 -0.9006
18736TIP3    H277700   5.486   4.993  15.563 -0.4493  0.4182 -2.4098
18737TIP3   OH277701   2.082   2.282   6.036 -0.1193  0.0245 -0.1284
18737TIP3    H177702   2.056   2.194   6.061 -2.5540 -0.1526 -2.7331
18737TIP3    H277703   2.049   2.338   6.107  2.2396 -1.1078  1.9921
18738TIP3   OH277704   6.521   3.470   0.960 -0.7743  0.4388  0.2451
18738TIP3    H177705   6.508   3.407   0.889 -0.7710 -1.0772  1.5204
18738TIP3    H277706   6.534   3.554   0.916  0.9269 -0.7016 -1.6078
18739TIP3   OH277707   2.858   4.100   4.028 -0.1412 -0.4311  0.3484
18739TIP3    H177708   2.857   4.049   4.109 -0.2191  0.6419  1.0401
18739TIP3    H277709   2.767   4.126   4.015 -0.2524 -1.1745 -0.4801
18740TIP3   OH277710   3.627   0.745  11.522 -0.1216 -0.0316  0.0704
18740TIP3    H177711   3.571   0.677  11.560  2.6159 -2.1970  0.5404
18740TIP3    H277712   3.668   0.703  11.447  0.5468  1.6156 -0.5233
18741TIP3   OH277713   6.149   1.757  13.075  0.0253  0.3189  0.2426
18741TIP3    H177714   6.241   1.745  13.099 -0.8949 -1.3220  3.4621
18741TIP3    H277715   6.135   1.851  13.084  1.2284  0.5090  0.3667
18742TIP3   OH277716   4.614   0.886   4.453  0.2325 -0.2945 -0.4492
18742TIP3    H177717   4.653   0.806   4.417  2.2642  0.6210 -0.4051
18742TIP3    H277718   4.689   0.941   4.476 -1.1040  1.1224  0.6944
18743TIP3   OH277719   2.644   0.032  13.755  0.2821 -0.0912 -0.2781
18743TIP3    H177720   2.700  -0.014  13.818 -0.2393  1.1512  1.1634
18743TIP3    H277721   2.627  -0.032  13.686  0.3349 -1.7608  1.1806
18744TIP3   OH277722   5.124   1.269  13.490 -0.2288 -0.1827 -0.0204
18744TIP3    H177723   5.136   1.362  13.510 -1.8812  0.0788 -0.1322
18744TIP3    H277724   5.124   1.225  13.575 -0.5688  0.0767  0.1156
18745TIP3   OH277725   2.257   1.995  14.391 -0.1482 -0.0054 -0.0933
18745TIP3    H177726   2.242   1.964  14.302 -1.7225 -0.2374  0.2064
18745TIP3    H277727   2.313   1.929  14.431 -1.1149 -1.0008 -0.3294
18746TIP3   OH277728   0.546   0.203   2.834  0.0362 -0.1049  0.3628
18746TIP3    H177729   0.608   0.257   2.883  0.7292 -0.3677 -0.1971
18746TIP3    H277730   0.544   0.120   2.882  0.3662 -0.2038  0.2116
18747TIP3   OH277731   2.348   5.277   0.330  0.1689  0.0862  0.1688
18747TIP3    H177732   2.351   5.211   0.261  0.3153  0.6837 -0.4034
18747TIP3    H277733   2.436   5.313   0.332  0.0284  0.4189  0.3244
18748TIP3   OH277734   2.275   4.346   3.157 -0.5057 -0.0708 -0.3643
18748TIP3    H177735   2.240   4.258   3.140 -1.1869  0.0994  0.1113
18748TIP3    H277736   2.267   4.357   3.252  0.0006  0.3321 -0.3626
18749TIP3   OH277737   2.709   5.196   5.407 -0.0181 -0.1112 -0.8169
18749TIP3    H177738   2.654   5.252   5.461  1.1560  0.5310 -0.2334
18749TIP3    H277739   2.722   5.246   5.326 -0.1871 -0.2028 -0.9006
18750TIP3   OH277740   0.186   4.705   5.894 -0.3613  0.4807 -0.1022
18750TIP3    H177741   0.179   4.702   5.989  0.7063 -1.6504 -0.0218
18750TIP3    H277742   0.219   4.618   5.870 -1.0522  0.7999 -2.4637
18751TIP3   OH277743   3.648   0.450  14.842 -0.0697 -0.6182  0.1361
18751TIP3    H177744   3.600   0.480  14.919 -2.3685  0.2735 -1.5146
18751TIP3    H277745   3.646   0.525  14.782  0.2117 -1.8051 -1.4227
18752TIP3   OH277746   2.078   0.601  11.824 -0.1744 -0.3160  0.0829
18752TIP3    H177747   2.026   0.612  11.744 -0.1118  1.9412  0.2832
18752TIP3    H277748   2.035   0.530  11.872 -2.0222  0.3050 -0.5824
18753TIP3   OH277749   4.284   5.841   0.077 -0.1590  0.2238 -0.0068
18753TIP3    H177750   4.269   5.932   0.101 -2.3754  0.7078 -2.6984
18753TIP3    H277751   4.302   5.843  -0.017  2.6028 -1.9390  0.3425
18754TIP3   OH277752   3.384   6.720  11.952 -0.2764 -0.5622  0.1155
18754TIP3    H177753   3.324   6.668  11.898  0.7288 -0.7513 -0.8680
18754TIP3    H277754   3.466   6.720  11.903  0.4424 -0.0441  1.2707
18755TIP3   OH277755   0.411   2.367   3.794 -0.0864  0.2233 -0.2357
18755TIP3    H177756   0.330   2.414   3.772  0.2982  2.1330  2.0062
18755TIP3    H277757   0.469   2.435   3.827  1.7821 -1.3896 -0.0417
18756TIP3   OH277758   3.930   2.120  12.912  0.2774  0.8011 -0.4578
18756TIP3    H177759   3.915   2.036  12.869 -1.6393  0.7699  0.1682
18756TIP3    H277760   4.024   2.122  12.929  0.3196 -1.4203 -0.1070
18757TIP3   OH277761   5.958   3.058  14.367  0.5034  0.0665  0.2053
18757TIP3    H177762   5.938   2.979  14.418  0.9856 -0.0416  0.2337
18757TIP3    H277763   6.039   3.091  14.406 -0.1720  1.0790  0.7738
18758TIP3   OH277764   5.766   1.628  12.858  0.3830  0.5178  0.2897
18758TIP3    H177765   5.801   1.715  12.842 -0.7921  1.2623  1.5400
18758TIP3    H277766   5.764   1.586  12.772  1.6079  1.4677 -0.2237
18759TIP3   OH277767   0.537   2.279  11.268  0.0059 -0.2082  0.1097
18759TIP3    H177768   0.556   2.195  11.310 -0.4811 -0.8278 -0.8726
18759TIP3    H277769   0.620   2.306  11.229 -0.4482 -1.7219 -2.1016
18760TIP3   OH277770   0.297   6.529   1.208 -0.1681 -0.4850  0.0370
18760TIP3    H177771   0.228   6.508   1.146 -1.9890  0.2134  1.7440
18760TIP3    H277772   0.288   6.623   1.224 -0.1201 -0.7267  1.7362
18761TIP3   OH277773   0.360   3.278   0.531  0.2167  0.0552 -0.2035
18761TIP3    H177774   0.342   3.315   0.617 -0.8788 -2.4112  0.7111
18761TIP3    H277775   0.294   3.210   0.519  0.5923  0.0310 -2.8352
18762TIP3   OH277776   0.843   6.195   0.492 -0.2358 -0.6503 -0.5756
18762TIP3    H177777   0.820   6.145   0.414  1.4888 -0.5066 -1.2254
18762TIP3    H277778   0.855   6.285   0.460  0.3497 -0.5620 -0.1367
18763TIP3   OH277779   6.335   1.695  14.832  0.1169  0.2007  0.3337
18763TIP3    H177780   6.276   1.763  14.799  0.1198 -1.0722 -2.6393
18763TIP3    H277781   6.409   1.744  14.869 -0.2830  1.8247 -0.8776
18764TIP3   OH277782   3.172   3.807   0.208 -0.4885  0.2737  0.1792
18764TIP3    H177783   3.091   3.762   0.186 -0.6511 -0.1770  1.5809
18764TIP3    H277784   3.150   3.859   0.286  0.2463  1.1346 -0.1713
18765TIP3   OH277785   5.293   5.339  11.917  0.9976 -0.6020 -0.4112
18765TIP3    H177786   5.304   5.280  11.842  0.4338  0.5564 -1.4542
18765TIP3    H277787   5.356   5.308  11.982  1.7381 -1.4562 -1.4982
18766TIP3   OH277788   1.188   4.410   0.484 -0.1207  0.8507 -0.3870
18766TIP3    H177789   1.099   4.404   0.519 -0.1007  2.2473 -0.0363
18766TIP3    H277790   1.177   4.445   0.396  0.0046 -0.4151 -0.9369
18767TIP3   OH277791   1.579   1.793   4.035 -0.0554  0.1829 -0.4219
18767TIP3    H177792   1.657   1.739   4.045  0.0101  0.1951 -0.8358
18767TIP3    H277793   1.576   1.847   4.114 -0.1820 -0.4967  0.0429
18768TIP3   OH277794   0.931   3.901   1.179 -0.2060  0.0445  0.5095
18768TIP3    H177795   1.000   3.938   1.123 -0.2838  0.8252  0.9142
18768TIP3    H277796   0.918   3.967   1.247 -0.4859 -0.6617  1.1491
18769TIP3   OH277797   4.063   2.718  11.808 -0.2078 -0.1391 -0.0465
18769TIP3    H177798   4.124   2.690  11.740  0.3768 -0.4265  0.5833
18769TIP3    H277799   4.092   2.807  11.830  0.5968 -0.6223  0.9166
18770TIP3   OH277800   2.359   5.525  12.844  0.2740 -0.3029 -0.5173
18770TIP3    H177801   2.414   5.595  12.809 -0.6711  0.9567  0.4134
18770TIP3    H277802   2.272   5.544  12.809 -0.5122  0.4744  1.7329
18771TIP3   OH277803   3.071   6.472  13.092 -0.1526 -0.1388  0.1558
18771TIP3    H177804   3.097   6.422  13.015 -0.2000  0.9847 -0.6071
18771TIP3    H277805   3.098   6.562  13.073  0.6420  0.0107  1.8281
18772TIP3   OH277806   4.294   2.205  15.722 -0.4427  0.0433  0.1888
18772TIP3    H177807   4.386   2.181  15.728 -0.4551 -1.2558 -2.7979
18772TIP3    H277808   4.247   2.130  15.760 -0.2849 -0.3695 -0.4171
18773TIP3   OH277809   3.261   6.739   0.590  0.2456 -0.0265  0.1538
18773TIP3    H177810   3.279   6.671   0.655 -0.8137 -0.7048 -0.2246
18773TIP3    H277811   3.172   6.768   0.608  0.5858  1.0815  0.1300
18774TIP3   OH277812   4.144   0.579  15.954  0.5125 -0.2048 -0.0232
18774TIP3    H177813   4.114   0.653  15.901  2.8017  1.0054  0.2796
18774TIP3    H277814   4.131   0.607  16.044  0.8870 -0.3900  0.0894
18775TIP3   OH277815   4.654   0.228  12.003 -0.3032  0.3707  0.2383
18775TIP3    H177816   4.602   0.246  12.081 -0.9893  1.3653 -0.4195
18775TIP3    H277817   4.604   0.163  11.955  0.2315 -0.4120  0.7200
18776TIP3   OH277818   6.768   2.633   3.601 -0.0238  0.3430 -0.0443
18776TIP3    H177819   6.708   2.607   3.530  0.7191 -1.4596 -0.0757
18776TIP3    H277820   6.710   2.656   3.673 -0.7755 -0.2125 -0.4507
18777TIP3   OH277821   2.565   5.047  12.200 -0.2456 -0.1850 -0.4681
18777TIP3    H177822   2.636   4.995  12.239 -1.2932 -1.8156 -0.6407
18777TIP3    H277823   2.610   5.119  12.156  1.1287  0.5673  1.9395
18778TIP3   OH277824   3.077   6.308   1.155 -0.2739 -0.0373 -0.5081
18778TIP3    H177825   2.996   6.260   1.137 -0.2321  0.3444 -1.8089
18778TIP3    H277826   3.146   6.254   1.118  0.3785 -1.3641  2.3227
18779TIP3   OH277827   2.833   4.803  16.617  0.0518  0.3850 -0.9354
18779TIP3    H177828   2.812   4.759  16.535 -2.2957 -1.1960  0.3922
18779TIP3    H277829   2.892   4.874  16.592 -0.9693  0.2749 -4.0206
18780TIP3   OH277830   1.826   0.497  14.483 -0.0054  0.7076  0.1912
18780TIP3    H177831   1.902   0.553  14.468  0.7779 -0.1331  0.8805
18780TIP3    H277832   1.781   0.537  14.558  2.3898 -1.2952  2.9084
18781TIP3   OH277833   3.167   3.303  14.684 -0.0744 -0.1567  0.4435
18781TIP3    H177834   3.234   3.339  14.742  0.6333 -1.1159  0.2429
18781TIP3    H277835   3.195   3.327  14.596 -1.2406  1.4476  0.4779
18782TIP3   OH277836   4.943   0.621   3.114  0.3673 -0.3308  0.0375
18782TIP3    H177837   4.936   0.542   3.061  0.7371 -2.2264  2.6107
18782TIP3    H277838   4.996   0.681   3.062  0.2316 -1.8306 -1.9298
18783TIP3   OH277839   1.759   1.110   6.644 -0.5713  0.0313  0.1443
18783TIP3    H177840   1.830   1.105   6.580 -0.5539  3.1516 -0.2190
18783TIP3    H277841   1.705   1.184   6.615 -1.3517  0.6617  2.9260
18784TIP3   OH277842   6.008   4.143   3.052  0.7521 -0.4285  0.5181
18784TIP3    H177843   5.949   4.183   3.116 -0.7602 -0.3599 -0.8559
18784TIP3    H277844   5.952   4.082   3.003  1.3864  0.7768 -1.8699
18785TIP3   OH277845   5.114   5.175   5.243 -0.2367  0.4353 -0.1807
18785TIP3    H177846   5.106   5.203   5.152  0.6686 -1.8905 -1.0572
18785TIP3    H277847   5.033   5.126   5.260 -0.7815  1.5549  0.5772
18786TIP3   OH277848   1.833   0.297   3.599  0.9182 -0.0622 -0.1220
18786TIP3    H177849   1.747   0.256   3.587  0.3923  1.1238 -0.4921
18786TIP3    H277850   1.852   0.339   3.515  2.1682 -0.8465 -0.2580
18787TIP3   OH277851   1.499   1.479  13.550 -0.2359  0.2876 -0.0377
18787TIP3    H177852   1.425   1.429  13.584 -2.0170  1.6496 -1.6897
18787TIP3    H277853   1.571   1.417  13.547 -1.1804 -1.0251  1.9094
18788TIP3   OH277854   1.168   6.077   2.756  0.4118 -0.4337  0.3628
18788TIP3    H177855   1.181   6.024   2.677  1.5036 -1.8140  1.4301
18788TIP3    H277856   1.128   6.158   2.723  0.2372 -1.2205 -1.5203
18789TIP3   OH277857   5.512   0.957   6.192  0.3206  0.3719 -0.6800
18789TIP3    H177858   5.603   0.955   6.222  0.6492 -1.2065 -1.6687
18789TIP3    H277859   5.462   0.986   6.268  1.5710  0.5669  0.0886
18790TIP3   OH277860   1.637   2.176   4.385 -0.1534 -0.8514 -0.2827
18790TIP3    H177861   1.644   2.109   4.453 -0.3403 -0.4594  0.1222
18790TIP3    H277862   1.546   2.171   4.355  0.1870 -1.7409 -1.2512
18791TIP3   OH277863   0.790   1.420   2.482 -0.2428 -0.5380  0.5512
18791TIP3    H177864   0.844   1.434   2.560 -0.3044  2.2528  0.1951
18791TIP3    H277865   0.853   1.397   2.413  0.2719  0.5068  0.6527
18792TIP3   OH277866   0.540   3.309  15.209  0.0917 -0.2150 -0.1673
18792TIP3    H177867   0.475   3.250  15.171 -0.9943  1.3308 -0.8484
18792TIP3    H277868   0.592   3.339  15.134 -1.4042  2.0667 -0.3886
18793TIP3   OH277869   6.353   1.262   4.997  0.4516 -0.0867  0.0834
18793TIP3    H177870   6.292   1.194   5.026  1.9097 -1.3716  0.2143
18793TIP3    H277871   6.297   1.338   4.980 -1.0710 -0.9203  1.1289
18794TIP3   OH277872   2.939   1.983   4.621  0.1516  0.4732  0.1749
18794TIP3    H177873   2.962   2.038   4.697  0.3310  1.5293 -0.6206
18794TIP3    H277874   2.845   1.997   4.610 -0.1171 -0.6293  0.9212
18795TIP3   OH277875   2.111   0.523   4.159  0.0409 -0.1994  0.1824
18795TIP3    H177876   2.139   0.566   4.079 -0.2992  1.2740  0.8251
18795TIP3    H277877   2.016   0.521   4.153 -0.0091  0.3069  0.7272
18796TIP3   OH277878   3.255   1.606   5.848 -0.1807  0.0053  0.1640
18796TIP3    H177879   3.198   1.557   5.789 -0.0124  2.1279 -1.9158
18796TIP3    H277880   3.207   1.686   5.867  1.3141  0.9930 -0.1028
18797TIP3   OH277881   3.163   4.825  11.659  0.2151  0.5481 -0.6292
18797TIP3    H177882   3.090   4.850  11.716  0.7753 -2.8003  1.8769
18797TIP3    H277883   3.240   4.864  11.700  0.5822 -1.6239  0.8912
18798TIP3   OH277884   6.151   2.151  14.152 -0.0265  0.2035 -0.2985
18798TIP3    H177885   6.184   2.230  14.195 -0.1293  0.9794 -1.6112
18798TIP3    H277886   6.229   2.110  14.114  0.1337 -0.7286  0.9510
18799TIP3   OH277887   5.346   5.377  16.935 -0.0959  0.4085 -0.1016
18799TIP3    H177888   5.433   5.390  16.895 -0.0917  1.2800  0.1665
18799TIP3    H277889   5.363   5.321  17.010  0.0145 -0.6026 -0.8543
18800TIP3   OH277890   2.252   0.874  14.206 -0.4179  0.6613 -0.1998
18800TIP3    H177891   2.196   0.867  14.129 -0.5250 -1.1634  0.0009
18800TIP3    H277892   2.239   0.792  14.253  2.0401  0.3588  0.1075
18801TIP3   OH277893   3.739   4.149   0.835  0.0800 -0.0881 -0.0975
18801TIP3    H177894   3.784   4.233   0.826  1.5847 -0.7068  1.2402
18801TIP3    H277895   3.809   4.085   0.851 -1.1541 -1.3529  0.4968
18802TIP3   OH277896   0.843   1.802   5.596 -0.0986 -0.1854 -0.6569
18802TIP3    H177897   0.848   1.730   5.533  0.6705  0.1432 -0.9851
18802TIP3    H277898   0.841   1.881   5.542  3.5551  0.3086 -0.3653
18803TIP3   OH277899   2.925   6.065   0.718  0.1102  0.9554  0.6579
18803TIP3    H177900   2.851   6.125   0.713 -0.5489  0.4021  2.7222
18803TIP3    H277901   2.978   6.086   0.641 -1.0057  2.9200  0.3502
18804TIP3   OH277902   4.991   0.608  13.336 -0.4372  0.3141  0.6045
18804TIP3    H177903   5.001   0.517  13.366  0.6596  0.1571 -0.1760
18804TIP3    H277904   5.049   0.658  13.393 -0.8395  0.4958  0.8596
18805TIP3   OH277905   4.231   1.571  16.556  0.2255 -0.3600  0.7751
18805TIP3    H177906   4.225   1.640  16.490 -1.4027 -1.6544 -0.5150
18805TIP3    H277907   4.248   1.618  16.638  0.7189  1.4231 -0.2874
18806TIP3   OH277908   6.404   6.097  13.365 -0.2571  0.2098  0.7815
18806TIP3    H177909   6.456   6.106  13.444 -0.0285  0.3868  0.6104
18806TIP3    H277910   6.414   6.180  13.319 -1.7095  0.7457  1.3581
18807TIP3   OH277911   0.409   1.629   3.854  0.1139  0.3834 -0.6516
18807TIP3    H177912   0.430   1.720   3.876  2.7459 -0.4304  0.7682
18807TIP3    H277913   0.437   1.579   3.931 -1.0718 -1.6704 -1.4630
18808TIP3   OH277914   5.480   3.082   1.138  0.6716  0.0978 -0.4252
18808TIP3    H177915   5.545   3.138   1.095  1.4939  0.7657  1.5605
18808TIP3    H277916   5.398   3.101   1.094  1.6583 -0.1905 -2.5036
18809TIP3   OH277917   5.457   6.024  15.381  0.1996  0.8520 -0.0322
18809TIP3    H177918   5.367   6.009  15.410 -0.9012  0.5159 -3.1550
18809TIP3    H277919   5.497   5.937  15.382 -0.7997  0.2899 -2.1618
18810TIP3   OH277920   2.329   1.837  13.128 -0.2689 -0.1037  0.0617
18810TIP3    H177921   2.421   1.829  13.101 -0.5523  0.4179 -1.1131
18810TIP3    H277922   2.324   1.922  13.172 -0.6373  0.9660 -1.9288
18811TIP3   OH277923   1.847   4.195  16.288 -0.0808  0.8743  0.1611
18811TIP3    H177924   1.838   4.164  16.378  1.9351  0.6306  0.3069
18811TIP3    H277925   1.881   4.120  16.240  3.7704  2.3024  0.2959
18812TIP3   OH277926   0.923   4.180  11.641 -0.3332  0.1999  0.2672
18812TIP3    H177927   0.868   4.140  11.708  0.1765  0.0650  0.6088
18812TIP3    H277928   0.883   4.154  11.558 -0.0666 -0.9509  0.4840
18813TIP3   OH277929   1.415   1.998  16.595 -0.4820 -0.2904 -0.0504
18813TIP3    H177930   1.443   1.928  16.653  0.1283 -0.4125 -0.4777
18813TIP3    H277931   1.319   1.999  16.602 -0.5353 -1.4559 -0.3608
18814TIP3   OH277932   3.880   3.124   4.781 -0.2843 -0.0792  0.0150
18814TIP3    H177933   3.975   3.130   4.781 -0.2570 -0.1993  1.8214
18814TIP3    H277934   3.860   3.046   4.833 -1.3941  0.5941  0.6426
18815TIP3   OH277935   6.234   5.547   4.475 -0.5772 -0.4171  0.6869
18815TIP3    H177936   6.214   5.627   4.523 -0.8245  0.4231 -0.7381
18815TIP3    H277937   6.176   5.551   4.398  0.0624 -1.5069  0.1332
18816TIP3   OH277938   0.012   3.428   5.685 -0.1837  0.3443 -0.0725
18816TIP3    H177939   0.100   3.418   5.722 -0.5753  0.9891  1.1115
18816TIP3    H277940  -0.032   3.346   5.706 -0.7417  1.0888  1.9777
18817TIP3   OH277941   5.747   0.194  12.716  0.3922 -0.1944  0.6974
18817TIP3    H177942   5.776   0.221  12.629 -1.5170  1.0803  0.3778
18817TIP3    H277943   5.768   0.269  12.772 -1.7907  0.6290  0.5143
18818TIP3   OH277944   5.666   4.079  14.687  0.1351 -0.2612  0.4436
18818TIP3    H177945   5.591   4.020  14.688  0.7286 -1.0931 -1.1223
18818TIP3    H277946   5.730   4.037  14.630 -0.0514  2.6200 -2.1737
18819TIP3   OH277947   2.174   1.542   2.239 -0.7768  0.2505  0.1768
18819TIP3    H177948   2.213   1.479   2.178  1.1060  1.2822  0.2474
18819TIP3    H277949   2.246   1.599   2.265 -2.6042  3.2705 -0.8555
18820TIP3   OH277950   4.478   4.567  14.875  0.3034  0.2159 -0.1028
18820TIP3    H177951   4.548   4.505  14.891 -0.2917 -0.8762 -1.5233
18820TIP3    H277952   4.479   4.581  14.780 -1.0211  0.6327 -0.0788
18821TIP3   OH277953   6.144   2.422  13.639 -0.4416  0.6031 -0.2274
18821TIP3    H177954   6.235   2.452  13.648 -0.1397  0.2777 -1.7827
18821TIP3    H277955   6.123   2.383  13.724  1.8179 -1.7414 -0.6071
18822TIP3   OH277956   1.796   2.334  11.977 -0.0583 -0.1862  0.2093
18822TIP3    H177957   1.738   2.407  11.955  0.8825  0.6344  0.3645
18822TIP3    H277958   1.876   2.352  11.927  0.3472 -0.8636  0.6050
18823TIP3   OH277959   5.079   3.611  11.661  0.6062 -0.2005 -0.1235
18823TIP3    H177960   5.052   3.684  11.606  0.4409 -0.6268 -0.6089
18823TIP3    H277961   4.998   3.576  11.698  0.7297  0.2135  0.5700
18824TIP3   OH277962   2.043   4.409  11.727  0.2239  0.2238 -0.1256
18824TIP3    H177963   1.954   4.418  11.763 -0.0750  1.5601 -1.0870
18824TIP3    H277964   2.053   4.315  11.711 -1.0865  0.0633 -0.1526
18825TIP3   OH277965   6.233   0.739  11.580  0.1425  0.4281  0.7376
18825TIP3    H177966   6.154   0.792  11.592  1.1313  1.9014  1.1214
18825TIP3    H277967   6.253   0.746  11.487  0.7508  1.5144  0.9267
18826TIP3   OH277968   3.963   4.456  14.083  0.2535  0.3454 -0.1900
18826TIP3    H177969   4.022   4.530  14.081 -0.6856  1.0949 -1.3114
18826TIP3    H277970   3.876   4.494  14.096 -0.0700 -0.6956  1.0133
18827TIP3   OH277971   1.652   6.109  11.879 -0.2795  0.3636 -0.0736
18827TIP3    H177972   1.728   6.105  11.821 -0.3860 -0.2937 -0.1702
18827TIP3    H277973   1.682   6.158  11.955  1.0586 -2.0834  1.0952
18828TIP3   OH277974   6.642   1.442  11.420 -0.1864 -0.2015 -0.8512
18828TIP3    H177975   6.720   1.466  11.371 -0.1962  2.1397  0.1469
18828TIP3    H277976   6.596   1.380  11.364  2.2528 -1.4829 -1.5419
18829TIP3   OH277977   5.479   5.776   1.913  0.5355 -0.0444 -0.0050
18829TIP3    H177978   5.485   5.781   1.818  0.3691 -1.3956 -0.0947
18829TIP3    H277979   5.392   5.810   1.933 -0.1267 -1.3963 -0.4931
18830TIP3   OH277980   6.192   3.472  16.186  0.0140  0.3440  0.4086
18830TIP3    H177981   6.224   3.559  16.162 -0.9083  0.1142 -1.8595
18830TIP3    H277982   6.271   3.418  16.192  0.3873  0.3200 -2.8198
18831TIP3   OH277983   6.364   0.650   5.995  0.2350  0.0823  0.2984
18831TIP3    H177984   6.365   0.745   5.987  3.3851  0.1823  0.7038
18831TIP3    H277985   6.320   0.620   5.915  1.9051  1.8574 -1.4267
18832TIP3   OH277986   0.394   4.225  14.353  0.3468 -0.2234  1.0762
18832TIP3    H177987   0.414   4.167  14.279  1.7835  0.5665  0.8052
18832TIP3    H277988   0.310   4.265  14.329 -0.0806 -1.2690  0.7169
18833TIP3   OH277989   6.279   6.032  15.342  0.2161 -0.4950  0.1551
18833TIP3    H177990   6.205   6.074  15.385  0.8636  0.7292  0.1029
18833TIP3    H277991   6.355   6.060  15.393  0.6365 -1.9825  0.3953
18834TIP3   OH277992   0.518   1.110  11.974 -0.6383 -0.3452  0.0358
18834TIP3    H177993   0.554   1.042  11.917 -0.5839  0.0187 -0.3697
18834TIP3    H277994   0.435   1.134  11.933  0.0415  0.8899 -0.6667
18835TIP3   OH277995   2.208   2.025   0.632  0.4066  0.3618  0.2803
18835TIP3    H177996   2.194   1.931   0.625  1.3026  0.2896 -1.0983
18835TIP3    H277997   2.203   2.057   0.541  0.4443  1.5862  0.6850
18836TIP3   OH277998   2.093   0.337  11.583  0.4338 -0.1266 -0.4645
18836TIP3    H177999   2.003   0.357  11.605  1.1937  1.3353  1.5934
18836TIP3    H278000   2.134   0.422  11.566  2.2587 -0.3149  2.3607
18837TIP3   OH278001   2.614   6.098   2.756  0.3716 -0.3141 -0.0588
18837TIP3    H178002   2.675   6.046   2.704  0.1495 -1.3153  0.6395
18837TIP3    H278003   2.529   6.056   2.742  0.2184 -0.2558  0.6563
18838TIP3   OH278004   2.819   4.239   5.651  0.4809  0.1343  0.1770
18838TIP3    H178005   2.840   4.183   5.725 -1.3366  0.1035  0.7168
18838TIP3    H278006   2.894   4.232   5.593  0.8864 -1.7637  0.8825
18839TIP3   OH278007   0.280   6.591  11.213 -0.1563  0.6106 -0.6783
18839TIP3    H178008   0.305   6.676  11.249 -0.5165  0.4842 -0.1351
18839TIP3    H278009   0.203   6.610  11.158 -2.0092  0.2266  1.6557
18840TIP3   OH278010   4.966   6.705  15.268 -0.0460 -0.7272 -0.2221
18840TIP3    H178011   4.952   6.685  15.360  0.8742  3.2977  0.9583
18840TIP3    H278012   5.042   6.652  15.243  0.4697 -0.9470  1.6719
18841TIP3   OH278013   1.380   2.527   4.316  0.4625 -0.1325 -0.7678
18841TIP3    H178014   1.415   2.476   4.243 -2.2273 -2.2354 -0.7158
18841TIP3    H278015   1.337   2.602   4.274 -0.6299 -1.0568 -1.3361
18842TIP3   OH278016   0.190   2.952   5.350 -0.5143  0.0763  0.5644
18842TIP3    H178017   0.158   3.041   5.362  0.2987  0.3723  0.6335
18842TIP3    H278018   0.248   2.958   5.274 -0.8827 -0.5135  0.2315
18843TIP3   OH278019   1.788   6.657  14.527 -0.6332 -0.0920 -0.3976
18843TIP3    H178020   1.713   6.604  14.503  1.0118 -2.3353 -0.8842
18843TIP3    H278021   1.774   6.678  14.619 -2.5750  0.8932 -0.8692
18844TIP3   OH278022   6.748   3.165  12.696 -0.1632  0.0665  0.4995
18844TIP3    H178023   6.720   3.254  12.677  0.8086  0.2998  0.1045
18844TIP3    H278024   6.792   3.137  12.616 -0.0966 -0.6229  0.7729
18845TIP3   OH278025   3.375   4.847  17.358  0.3445  0.1057  0.2345
18845TIP3    H178026   3.324   4.781  17.405  0.9869  0.0594  0.8820
18845TIP3    H278027   3.348   4.838  17.267 -1.8036  0.9992  0.7346
18846TIP3   OH278028   5.530   5.288  15.742 -0.2716 -0.4891  0.3694
18846TIP3    H178029   5.437   5.273  15.756 -0.0754 -2.0223  0.2200
18846TIP3    H278030   5.536   5.323  15.653 -0.6262 -1.4992 -0.0603
18847TIP3   OH278031   4.504   6.518  11.736 -0.6106 -0.3505  0.4071
18847TIP3    H178032   4.540   6.505  11.648 -2.7131 -0.5613 -0.4811
18847TIP3    H278033   4.539   6.445  11.787 -1.1359 -1.5291 -0.8557
18848TIP3   OH278034   0.002   3.933  13.419  0.0016  0.0873  0.2043
18848TIP3    H178035   0.014   4.023  13.389 -1.7116  0.3376  0.1825
18848TIP3    H278036   0.006   3.938  13.515  0.2631  0.1258  0.1911
18849TIP3   OH278037   5.072   5.351   5.500 -0.0370 -0.0298  0.1389
18849TIP3    H178038   5.089   5.346   5.406  0.2370  0.2470  0.1713
18849TIP3    H278039   4.994   5.299   5.513  0.5547 -0.9931 -0.0809
18850TIP3   OH278040   3.320   2.881  15.644 -0.7889  0.1510 -0.3349
18850TIP3    H178041   3.373   2.855  15.569  0.6002  0.0836  0.6201
18850TIP3    H278042   3.346   2.971  15.661 -0.8915  0.0811  0.2068
18851TIP3   OH278043   0.149   1.326   2.288  0.7490  0.3168 -0.0397
18851TIP3    H178044   0.149   1.230   2.286 -3.5029  0.0190  2.0040
18851TIP3    H278045   0.189   1.348   2.372  1.6039  0.3225 -0.4485
18852TIP3   OH278046   6.758   3.399   3.348  0.1804  0.7073  0.0593
18852TIP3    H178047   6.751   3.402   3.443  2.9100  0.7077  0.3516
18852TIP3    H278048   6.672   3.371   3.318 -1.0932  1.7949  2.4295
18853TIP3   OH278049   6.353   2.153  16.942  0.6098 -0.6612 -0.0712
18853TIP3    H178050   6.418   2.203  16.892  0.0247  0.0733 -0.1151
18853TIP3    H278051   6.405   2.097  17.000  1.2805  0.2071  0.1828
18854TIP3   OH278052   4.304   2.240   4.792 -0.1558 -0.5743  0.0198
18854TIP3    H178053   4.212   2.224   4.773 -0.0803  0.0217 -0.9510
18854TIP3    H278054   4.327   2.315   4.737  0.7992 -0.4457  0.5680
18855TIP3   OH278055   0.058   4.376  16.111  0.1671 -0.2709 -0.4049
18855TIP3    H178056  -0.012   4.321  16.074 -0.6783 -0.1319  0.9054
18855TIP3    H278057   0.120   4.388  16.039  0.0814 -2.4410 -0.9131
18856TIP3   OH278058   5.018   3.772   3.461 -0.3310  0.4059  0.2984
18856TIP3    H178059   4.982   3.748   3.375 -0.3348  0.7173  0.2115
18856TIP3    H278060   4.971   3.716   3.523  0.1692 -0.3268  0.0330
18857TIP3   OH278061   5.527   5.859   2.577 -0.3845  0.1301 -0.2516
18857TIP3    H178062   5.567   5.933   2.532  1.1022  0.6155  1.6904
18857TIP3    H278063   5.476   5.898   2.647 -0.4425 -0.6403  0.1472
18858TIP3   OH278064   4.415   0.904   4.254  0.0513 -0.1727 -0.1855
18858TIP3    H178065   4.485   0.885   4.316 -0.7674  1.8058  1.4483
18858TIP3    H278066   4.448   0.979   4.204 -0.3727 -0.0945 -0.3448
18859TIP3   OH278067   2.473   4.409  15.815 -0.4700  0.1707  0.2937
18859TIP3    H178068   2.407   4.370  15.873  0.9095 -1.0264  1.1303
18859TIP3    H278069   2.462   4.363  15.732 -0.2959 -0.4794  0.6217
18860TIP3   OH278070   6.621   5.358  15.575  0.2930 -0.5955 -0.0922
18860TIP3    H178071   6.658   5.283  15.527 -0.6024 -1.3499  0.3524
18860TIP3    H278072   6.593   5.320  15.658  1.7689  0.6727  1.0410
18861TIP3   OH278073   2.219   3.981   4.096  0.5427 -0.0897 -0.3592
18861TIP3    H178074   2.263   4.065   4.105  0.8309 -0.1384 -1.2832
18861TIP3    H278075   2.139   4.000   4.046 -0.3955 -0.0421  1.0991
18862TIP3   OH278076   2.881   5.343  17.078 -0.0182 -0.8177 -0.2371
18862TIP3    H178077   2.820   5.272  17.097  1.0643 -2.2083 -1.6440
18862TIP3    H278078   2.968   5.303  17.086  0.6889  0.8022  0.5832
18863TIP3   OH278079   6.648   0.777  15.120  0.0338 -0.0575 -0.3375
18863TIP3    H178080   6.742   0.759  15.110  0.1154  0.3915 -0.3912
18863TIP3    H278081   6.640   0.817  15.207 -0.0247  0.4435 -0.5704
18864TIP3   OH278082   4.367   0.471   4.929 -0.2931 -0.6562 -0.2636
18864TIP3    H178083   4.313   0.393   4.942 -1.9380  0.3909 -0.5174
18864TIP3    H278084   4.333   0.510   4.849  1.3144 -0.3016 -0.8013
18865TIP3   OH278085   2.638   0.545   3.572 -0.0870 -0.3917 -0.1804
18865TIP3    H178086   2.629   0.516   3.662 -0.2653 -0.5349 -0.2453
18865TIP3    H278087   2.657   0.639   3.579 -1.3546 -0.1368 -0.0356
18866TIP3   OH278088   1.673   1.866  12.658 -0.6636  0.7246  0.1473
18866TIP3    H178089   1.756   1.822  12.676 -1.5189 -1.1494 -0.1662
18866TIP3    H278090   1.608   1.817  12.709 -1.5538  2.3615  0.6570
18867TIP3   OH278091   1.512   6.699   2.345  0.2004 -0.0171  0.1047
18867TIP3    H178092   1.480   6.789   2.345  1.1456  0.3363  0.7870
18867TIP3    H278093   1.433   6.645   2.341 -0.3590  0.8167 -2.3221
18868TIP3   OH278094   3.944   3.981   5.972 -0.1945  0.6638 -0.2907
18868TIP3    H178095   3.933   3.990   6.067 -0.2789 -1.7743 -0.0058
18868TIP3    H278096   4.018   3.921   5.962  0.1996  1.3559 -1.7935
18869TIP3   OH278097   3.677   3.790   5.286 -0.3889  0.0087  0.4169
18869TIP3    H178098   3.653   3.701   5.262 -0.8992  0.4182 -0.6388
18869TIP3    H278099   3.768   3.784   5.313 -0.2304 -0.7259 -0.2592
18870TIP3   OH278100   6.461   2.274   1.537  0.8055  0.0187  0.2536
18870TIP3    H178101   6.380   2.305   1.496  0.3871  0.0837  1.1018
18870TIP3    H278102   6.529   2.330   1.500  0.1813  1.4085  1.1037
18871TIP3   OH278103   2.477   5.524  11.436  0.6467  0.0187  0.3668
18871TIP3    H178104   2.469   5.435  11.400 -0.4426  0.3579 -0.2777
18871TIP3    H278105   2.452   5.514  11.528  0.6917 -0.3645  0.3421
18872TIP3   OH278106   1.780   1.432   3.448 -0.7612 -0.1149  0.1442
18872TIP3    H178107   1.849   1.410   3.510  0.8361 -0.2501 -1.5608
18872TIP3    H278108   1.701   1.390   3.482  0.6404 -2.4948  0.6501
18873TIP3   OH278109   0.505   6.479  15.237 -0.1783  0.8426  0.1037
18873TIP3    H178110   0.519   6.384  15.227  1.0929  0.9668  0.5197
18873TIP3    H278111   0.433   6.486  15.299 -0.7420  0.1455 -0.4588
18874TIP3   OH278112   6.124   4.254  16.531 -0.3059  0.3917  0.4937
18874TIP3    H178113   6.154   4.168  16.559 -1.2770 -0.4614 -0.9759
18874TIP3    H278114   6.181   4.316  16.577  2.7153 -1.0790 -0.9777
18875TIP3   OH278115   6.603   1.469   4.247 -0.5918 -0.1660 -0.0735
18875TIP3    H178116   6.686   1.517   4.243 -1.1599  0.8112 -0.5782
18875TIP3    H278117   6.580   1.455   4.155 -1.2567  0.0522  0.0609
18876TIP3   OH278118   2.455   0.383   2.646 -0.0834 -0.2169 -0.2266
18876TIP3    H178119   2.466   0.334   2.728 -0.2207  0.5816  0.2810
18876TIP3    H278120   2.361   0.377   2.628 -0.5579  1.8403  1.1464
18877TIP3   OH278121   2.409   3.564  13.462  0.5830 -0.2876  0.3988
18877TIP3    H178122   2.320   3.594  13.445  0.9904 -0.0089 -1.4142
18877TIP3    H278123   2.421   3.490  13.402  0.3559 -2.7882  3.2209
18878TIP3   OH278124   5.608   1.874  16.192  0.7077  0.2954 -0.2555
18878TIP3    H178125   5.527   1.913  16.161  1.2418  1.3750 -0.3224
18878TIP3    H278126   5.611   1.896  16.285  0.1461 -1.1261  0.1236
18879TIP3   OH278127   5.857   6.491  12.748  0.2514  0.0136 -0.2653
18879TIP3    H178128   5.885   6.575  12.713  0.0416  0.6657  1.0623
18879TIP3    H278129   5.842   6.508  12.841 -1.4263 -1.0850 -0.2987
18880TIP3   OH278130   4.337   3.668   6.627 -0.2594  0.1621 -0.2454
18880TIP3    H178131   4.243   3.654   6.638 -0.3563  0.6805 -0.3691
18880TIP3    H278132   4.351   3.662   6.532 -0.0199 -0.7668 -0.1599
18881TIP3   OH278133   0.550   0.295  14.700 -0.3355  0.6906 -0.0075
18881TIP3    H178134   0.603   0.341  14.765 -1.2000  1.8748 -0.1151
18881TIP3    H278135   0.523   0.214  14.745 -2.1089  2.1249  1.6816
18882TIP3   OH278136   1.416   4.557  16.901 -0.8080  0.2667  0.2853
18882TIP3    H178137   1.336   4.511  16.928 -0.8691 -0.8670 -1.6560
18882TIP3    H278138   1.487   4.507  16.942 -0.8916 -1.4676 -1.5214
18883TIP3   OH278139   5.149   0.619   1.337 -0.2993 -0.4514 -0.1553
18883TIP3    H178140   5.234   0.575   1.345 -0.5866 -0.8186  1.0306
18883TIP3    H278141   5.161   0.704   1.379 -0.8884 -1.0600  1.3025
18884TIP3   OH278142   2.181   1.191   1.847  0.4098  0.2941 -0.5673
18884TIP3    H178143   2.131   1.110   1.843 -0.8224  1.0401 -1.1017
18884TIP3    H278144   2.221   1.198   1.760 -1.6312  1.5076 -1.4920
18885TIP3   OH278145   1.214   4.863  13.421  0.0430  0.4573 -0.3535
18885TIP3    H178146   1.137   4.913  13.447 -0.1750 -0.5015  0.9118
18885TIP3    H278147   1.234   4.895  13.333 -2.8408 -0.4634 -1.4598
18886TIP3   OH278148   4.658   0.842  16.292 -0.2798 -0.2730  0.5492
18886TIP3    H178149   4.686   0.753  16.271 -0.0975 -0.1083  0.0826
18886TIP3    H278150   4.649   0.885  16.207  1.1670  0.6268  0.8089
18887TIP3   OH278151   6.207   0.259  15.423 -0.3118 -0.4467  0.2521
18887TIP3    H178152   6.235   0.169  15.403  0.0964 -0.1479 -0.5659
18887TIP3    H278153   6.216   0.306  15.340 -2.6519 -0.1656  0.0725
18888TIP3   OH278154   0.821   5.242   2.019 -0.2985 -0.0033  0.1532
18888TIP3    H178155   0.761   5.284   1.957 -0.6495  0.8422  1.0356
18888TIP3    H278156   0.872   5.180   1.966  2.1465  3.3627 -1.8486
18889TIP3   OH278157   3.877   1.170   5.665 -0.4376  0.2550  0.2554
18889TIP3    H178158   3.845   1.204   5.749  0.0112 -0.4369  0.7131
18889TIP3    H278159   3.834   1.085   5.655  0.2091 -0.0742  0.2280
18890TIP3   OH278160   2.322   1.233  14.316  0.2030  0.7064 -0.1122
18890TIP3    H178161   2.274   1.287  14.254 -0.0043 -0.3455 -0.8979
18890TIP3    H278162   2.401   1.206  14.269  0.7603  1.0566  0.5906
18891TIP3   OH278163   2.667   5.565   4.425 -0.2846 -0.2649 -0.2272
18891TIP3    H178164   2.591   5.516   4.394 -1.0953 -0.5911  2.1250
18891TIP3    H278165   2.648   5.656   4.402 -0.3032 -0.5979 -1.6453
18892TIP3   OH278166   2.974   0.087  14.840  0.5686  0.2866 -0.6704
18892TIP3    H178167   2.905   0.040  14.887  0.0322 -1.2970 -2.8485
18892TIP3    H278168   3.055   0.048  14.871  0.2607 -0.2973 -0.5775
18893TIP3   OH278169   0.985   6.366  11.756 -0.2685 -0.9333  0.0580
18893TIP3    H178170   0.896   6.348  11.784 -0.4889  0.9361  0.6839
18893TIP3    H278171   1.024   6.280  11.740 -2.3018 -1.7644 -0.6421
18894TIP3   OH278172   3.928   3.931  17.256  0.5097 -0.4327  0.4105
18894TIP3    H178173   3.904   3.952  17.166  0.4193 -1.8552  0.0887
18894TIP3    H278174   3.907   4.010  17.305 -1.1588 -0.2632 -0.5084
18895TIP3   OH278175   3.940   5.041   5.098  0.1275 -0.5338 -0.0540
18895TIP3    H178176   3.941   5.137   5.092  0.9187 -0.6281 -3.2992
18895TIP3    H278177   3.847   5.018   5.099 -0.0703  0.2298  0.5122
18896TIP3   OH278178   0.593   4.948   3.423  0.2347 -0.0469 -0.0009
18896TIP3    H178179   0.533   5.005   3.471  0.2992  0.3639 -0.3977
18896TIP3    H278180   0.593   4.983   3.334  0.3757 -0.5906 -0.2213
18897TIP3   OH278181   3.577   3.469  10.380  0.0380  0.4076 -0.3104
18897TIP3    H178182   3.626   3.389  10.399 -3.4319 -1.1499  3.6731
18897TIP3    H278183   3.641   3.527  10.340  3.2759 -3.6065 -1.6649
18898TIP3   OH278184   6.685   4.032  12.749 -0.2319  0.0562  0.3241
18898TIP3    H178185   6.696   4.113  12.799 -2.3373  3.1174 -3.6029
18898TIP3    H278186   6.603   3.996  12.781 -0.7655  1.1230  0.2150
18899TIP3   OH278187   1.001   5.311  14.258 -0.6377  0.3579 -0.1466
18899TIP3    H178188   1.087   5.353  14.264 -0.8427  1.1737 -2.1805
18899TIP3    H278189   1.020   5.217  14.255  0.0799  0.4654  0.6697
18900TIP3   OH278190   1.113   5.562   1.044  0.1583  0.1069  1.2407
18900TIP3    H178191   1.017   5.566   1.049  0.0673 -1.9925  2.1700
18900TIP3    H278192   1.135   5.476   1.079  2.2491 -0.4944 -1.2566
18901TIP3   OH278193   5.902   0.375  15.320 -0.6238  0.0304 -0.2142
18901TIP3    H178194   5.938   0.451  15.366  0.2864  0.1899 -1.1465
18901TIP3    H278195   5.977   0.336  15.277 -1.2088 -0.9987 -0.3300
18902TIP3   OH278196   6.705   3.923   5.496  0.5447  0.1007  0.1352
18902TIP3    H178197   6.692   3.841   5.448 -0.1595 -0.0346  0.5417
18902TIP3    H278198   6.786   3.959   5.460  1.1071 -0.9923  0.2634
18903TIP3   OH278199   1.566   0.275  17.124 -0.3677 -0.1631  0.5289
18903TIP3    H178200   1.632   0.302  17.188 -2.4353  1.3864  2.1733
18903TIP3    H278201   1.582   0.330  17.048  1.0672 -0.8203  0.3208
18904TIP3   OH278202   3.618   1.027  10.628 -0.2524  0.5120  0.3152
18904TIP3    H178203   3.595   0.937  10.650 -0.9563  0.7277  0.4991
18904TIP3    H278204   3.580   1.042  10.542 -2.5379  1.4637  1.4019
18905TIP3   OH278205   1.018   1.287  15.199 -0.3394  0.2044  0.5302
18905TIP3    H178206   1.086   1.336  15.154  1.6388 -2.3814  0.4472
18905TIP3    H278207   0.986   1.224  15.134 -1.0841 -0.2090  1.2703
18906TIP3   OH278208   5.460   3.529  14.305 -0.8562 -0.3882 -0.5234
18906TIP3    H178209   5.408   3.449  14.300 -0.9720 -0.2503 -1.8957
18906TIP3    H278210   5.396   3.600  14.300 -0.9400 -0.1384  2.6435
18907TIP3   OH278211   0.141   6.175   1.719  0.5148  0.7980  0.2058
18907TIP3    H178212   0.069   6.171   1.656  0.7355  1.9246 -0.1338
18907TIP3    H278213   0.098   6.189   1.804  0.1570 -1.5179  0.4920
18908TIP3   OH278214   2.881   5.209   2.284 -0.0709  0.6734  0.5548
18908TIP3    H178215   2.807   5.242   2.234 -1.0186 -1.5207  0.4109
18908TIP3    H278216   2.955   5.265   2.257 -1.2624  1.7177 -0.6859
18909TIP3   OH278217   5.262   1.121   1.384  1.2226  0.2485  0.1653
18909TIP3    H178218   5.265   1.029   1.360  0.8464  0.4555 -0.7441
18909TIP3    H278219   5.321   1.164   1.321  1.8525  0.5623  0.9471
18910TIP3   OH278220   5.251   6.650  15.827  0.3915  0.5569  0.0133
18910TIP3    H178221   5.308   6.652  15.903  1.3812  0.9473 -0.7178
18910TIP3    H278222   5.268   6.732  15.781  1.3443 -0.5134 -1.6889
18911TIP3   OH278223   1.883   5.757   5.825  0.1335 -0.5905  0.1103
18911TIP3    H178224   1.967   5.758   5.872  1.3026 -0.5199 -1.8397
18911TIP3    H278225   1.841   5.676   5.854  1.9461 -1.8503 -0.5541
18912TIP3   OH278226   3.794   3.552   5.158 -0.7496 -0.2468  0.2580
18912TIP3    H178227   3.774   3.563   5.065  0.4530 -1.6902 -0.2175
18912TIP3    H278228   3.730   3.489   5.189  1.3653 -3.1032 -0.7127
18913TIP3   OH278229   1.361   2.197   2.373 -0.0489 -0.0731 -0.3856
18913TIP3    H178230   1.343   2.116   2.422 -0.8690 -0.0202 -0.5896
18913TIP3    H278231   1.401   2.167   2.292  1.1438 -0.1754  0.2105
18914TIP3   OH278232   3.312   2.325   1.682  0.0726 -0.5897  0.0101
18914TIP3    H178233   3.268   2.408   1.700 -0.2245 -0.8191  0.3628
18914TIP3    H278234   3.291   2.270   1.758 -0.5172 -1.2999 -0.6518
18915TIP3   OH278235   2.972   5.678  16.283  0.3372 -0.2753  0.4038
18915TIP3    H178236   3.006   5.710  16.199 -0.2292 -0.6653  0.0218
18915TIP3    H278237   3.001   5.587  16.286 -1.3172 -0.8619 -0.2974
18916TIP3   OH278238   5.609   2.730  16.840 -0.3071 -0.4348  0.4160
18916TIP3    H178239   5.682   2.788  16.819  1.3011 -2.9736 -1.4584
18916TIP3    H278240   5.564   2.716  16.757 -2.7875  0.7286  1.4502
18917TIP3   OH278241   0.449   0.109   3.967  0.2227  0.4152  0.5177
18917TIP3    H178242   0.494   0.192   3.980  0.0921  0.4027  1.0486
18917TIP3    H278243   0.443   0.071   4.054  0.5665 -0.2992  0.2373
18918TIP3   OH278244   2.123   1.751   4.808 -0.2929 -0.4457 -0.2274
18918TIP3    H178245   2.117   1.845   4.823 -0.2805 -0.5448  0.4222
18918TIP3    H278246   2.050   1.714   4.859  0.9364 -0.9580  1.2414
18919TIP3   OH278247   2.576   5.556   6.372  0.0792  0.2358 -0.2154
18919TIP3    H178248   2.548   5.587   6.286 -0.6562 -2.2038 -0.9496
18919TIP3    H278249   2.495   5.542   6.421  0.4344  0.4240  0.4439
18920TIP3   OH278250   0.208   4.675  16.430 -0.4934  0.3699  0.0440
18920TIP3    H178251   0.226   4.588  16.395 -3.3986 -0.8233  1.2219
18920TIP3    H278252   0.290   4.701  16.471  0.5898 -1.5968 -0.7046
18921TIP3   OH278253   4.601   0.104   0.856 -0.0308  0.1490 -0.5458
18921TIP3    H178254   4.556   0.135   0.778 -0.9148  1.3050  0.3765
18921TIP3    H278255   4.668   0.170   0.874 -0.2173  0.1964 -0.0051
18922TIP3   OH278256   2.931   3.265   3.385 -0.0282  0.0755 -0.0842
18922TIP3    H178257   2.984   3.206   3.438  0.2210 -0.3122 -0.7580
18922TIP3    H278258   2.846   3.268   3.430  0.1177 -0.3939  0.2312
18923TIP3   OH278259   5.924   2.230  12.161 -0.2449  0.2619 -0.6941
18923TIP3    H178260   5.924   2.289  12.086 -0.5711  1.2162  0.0419
18923TIP3    H278261   5.841   2.247  12.206  0.2926  0.2971  0.3282
18924TIP3   OH278262   0.529   1.734  15.590  0.4772  0.2759 -0.2697
18924TIP3    H178263   0.613   1.706  15.552 -0.3396 -1.1501 -1.1483
18924TIP3    H278264   0.520   1.825  15.563  0.2632 -0.4687 -3.0652
18925TIP3   OH278265   2.104   1.024  13.845  0.0659 -0.4558 -0.4633
18925TIP3    H178266   2.150   1.097  13.887  2.0973 -2.0879  0.3611
18925TIP3    H278267   2.101   1.048  13.752  0.4397  0.7938 -0.1680
18926TIP3   OH278268   0.547   4.974   5.345  0.2790  0.3043 -0.5506
18926TIP3    H178269   0.575   4.890   5.381  1.4485  0.2352 -1.5437
18926TIP3    H278270   0.626   5.009   5.303 -0.0375  2.1557  0.2939
18927TIP3   OH278271   5.332   0.724  12.123  0.1104 -0.1371 -0.3181
18927TIP3    H178272   5.362   0.639  12.090 -1.0368 -1.1666  1.1770
18927TIP3    H278273   5.408   0.761  12.168  0.4170 -0.6636 -0.3996
18928TIP3   OH278274   6.563   3.406   0.031  0.8250 -0.5166 -0.2758
18928TIP3    H178275   6.551   3.496   0.063 -0.3775 -0.8141  0.1790
18928TIP3    H278276   6.501   3.398  -0.041 -0.1277 -1.3982  0.6013
18929TIP3   OH278277   5.517   3.374   1.853  0.0211  0.0998  0.1699
18929TIP3    H178278   5.565   3.363   1.771 -1.6212 -2.2773 -0.5903
18929TIP3    H278279   5.515   3.286   1.891 -0.3286  0.9176  2.1596
18930TIP3   OH278280   0.446   2.101   1.052 -0.9844 -0.3531 -0.5623
18930TIP3    H178281   0.452   2.195   1.036  0.1341 -0.4535 -0.7801
18930TIP3    H278282   0.361   2.089   1.095 -0.9095  0.8138 -0.0655
18931TIP3   OH278283   5.203   2.662   6.002 -0.0767  0.4189 -0.1175
18931TIP3    H178284   5.259   2.606   6.056 -3.8156 -0.1214  3.7778
18931TIP3    H278285   5.212   2.749   6.041 -0.5912  0.6816 -0.5784
18932TIP3   OH278286   0.821   1.495   1.871 -0.4588  0.1868  0.3048
18932TIP3    H178287   0.834   1.585   1.900  1.0267  0.6405 -1.5667
18932TIP3    H278288   0.759   1.458   1.934 -0.7485  2.3607  1.3865
18933TIP3   OH278289   2.046   5.722   3.989  0.4043 -0.3842 -0.1955
18933TIP3    H178290   1.958   5.720   4.026  0.3223  0.2616 -0.3397
18933TIP3    H278291   2.041   5.666   3.912 -0.0564  0.1639 -0.5692
18934TIP3   OH278292   5.466   1.922   1.564  0.1456 -0.1173  0.1559
18934TIP3    H178293   5.510   1.862   1.504  1.6272  0.4238  0.6609
18934TIP3    H278294   5.428   1.866   1.631 -1.5235 -0.7284 -1.2218
18935TIP3   OH278295   0.002   3.199   5.479 -0.8216  0.0282  0.4372
18935TIP3    H178296  -0.067   3.172   5.539 -1.3495  1.9643  0.7938
18935TIP3    H278297  -0.041   3.204   5.394 -1.0984  1.0036  0.6177
18936TIP3   OH278298   2.367   3.231  13.791  0.2538  0.4963  0.1155
18936TIP3    H178299   2.388   3.324  13.787  0.2106  0.4700 -2.0320
18936TIP3    H278300   2.275   3.226  13.763  0.7006 -0.2737 -1.3337
18937TIP3   OH278301   0.833   0.659   4.198  0.4859  0.5045  0.2607
18937TIP3    H178302   0.742   0.646   4.224  0.4114  1.1507  0.3359
18937TIP3    H278303   0.864   0.731   4.253  1.1711  0.0195  0.5355
18938TIP3   OH278304   3.548   2.125  15.721  0.6288  0.0070 -0.2004
18938TIP3    H178305   3.589   2.106  15.805 -1.4705 -0.4346  0.7838
18938TIP3    H278306   3.573   2.052  15.665  0.8644 -0.4511  0.4899
18939TIP3   OH278307   3.735   3.797  13.872 -0.0099  0.2481  0.3172
18939TIP3    H178308   3.648   3.816  13.908 -0.5479 -0.6604 -0.4570
18939TIP3    H278309   3.779   3.747  13.941 -1.2725 -2.0696 -0.4534
18940TIP3   OH278310   1.905   2.010  13.022 -0.1737  0.0751  0.6908
18940TIP3    H178311   1.961   1.935  13.042  2.2782  1.5967 -0.0840
18940TIP3    H278312   1.930   2.036  12.934 -2.9001  0.2405 -0.1292
18941TIP3   OH278313   4.639   6.528   2.174 -0.3165 -0.0548  0.5557
18941TIP3    H178314   4.611   6.443   2.209  2.1871 -0.6328  1.3297
18941TIP3    H278315   4.709   6.507   2.112 -1.3887  1.3183 -1.2288
18942TIP3   OH278316   1.116   0.874   5.379 -0.2757  0.5873  0.1995
18942TIP3    H178317   1.144   0.949   5.432 -0.3195  1.7941 -1.4140
18942TIP3    H278318   1.191   0.856   5.322  0.3046 -1.5932  1.5393
18943TIP3   OH278319   0.433   3.594   2.636 -0.0115 -0.2087 -0.1587
18943TIP3    H178320   0.337   3.597   2.638 -0.0991 -1.7876  1.4191
18943TIP3    H278321   0.456   3.611   2.545 -1.6203  2.8675 -0.1133
18944TIP3   OH278322   6.345   4.623   0.686 -0.1796  0.7079 -0.6469
18944TIP3    H178323   6.429   4.590   0.654  0.4334  1.3921  0.2134
18944TIP3    H278324   6.355   4.625   0.781 -1.7388 -0.6975 -0.4027
18945TIP3   OH278325   5.107   5.565  16.361 -0.2995  0.2082  0.4121
18945TIP3    H178326   5.190   5.518  16.362  0.6074  1.7255  0.5665
18945TIP3    H278327   5.094   5.593  16.452 -0.7296  0.3791  0.2998
18946TIP3   OH278328   0.594   6.422  16.775  0.3468 -0.2411 -0.8283
18946TIP3    H178329   0.529   6.473  16.824 -0.5637 -0.9120 -1.2989
18946TIP3    H278330   0.674   6.474  16.779 -0.4667  1.0698 -1.0081
18947TIP3   OH278331   6.429   4.020  16.208  0.0223  0.4383 -0.0621
18947TIP3    H178332   6.488   4.080  16.161  0.6825  0.2777  0.5339
18947TIP3    H278333   6.483   3.943  16.226  0.8712  1.6852  3.6743
18948TIP3   OH278334   1.980   0.873   1.719  0.2517 -0.8164  0.6829
18948TIP3    H178335   1.889   0.856   1.743 -0.0517  0.8031  0.7829
18948TIP3    H278336   2.024   0.886   1.802  0.1967  0.1242  0.5722
18949TIP3   OH278337   4.018   4.793   4.701 -0.0660 -0.5911  0.0883
18949TIP3    H178338   4.024   4.741   4.781 -1.5274 -0.5060  0.2840
18949TIP3    H278339   3.956   4.745   4.646  0.7793 -0.5531 -0.9338
18950TIP3   OH278340   5.862   2.429   4.579 -0.4247 -0.3592  0.6072
18950TIP3    H178341   5.927   2.434   4.649  1.2354 -2.0348 -0.7055
18950TIP3    H278342   5.901   2.479   4.507  0.0124 -2.2866 -0.5735
18951TIP3   OH278343   6.057   6.326   3.499 -0.1851  0.4306  0.6012
18951TIP3    H178344   6.042   6.349   3.591 -0.4582  0.8423  0.4533
18951TIP3    H278345   6.120   6.391   3.468 -0.0006  0.2179  0.5287
18952TIP3   OH278346   4.424   1.550  14.715 -0.1777 -0.0285 -0.3199
18952TIP3    H178347   4.415   1.497  14.795 -1.9204  0.3516 -0.2183
18952TIP3    H278348   4.392   1.636  14.740  0.3314  0.4077 -1.1457
18953TIP3   OH278349   1.660   4.765  12.406 -0.0700 -0.5117 -0.5834
18953TIP3    H178350   1.630   4.855  12.393  0.6234 -0.4487 -1.8802
18953TIP3    H278351   1.723   4.771  12.478  1.2331  0.3631 -1.7291
18954TIP3   OH278352   4.050   3.801  16.466 -0.3957 -0.0217  0.0188
18954TIP3    H178353   4.053   3.776  16.559 -1.7720 -0.0106  0.0841
18954TIP3    H278354   4.094   3.730  16.420  0.7732  0.2250  0.7235
18955TIP3   OH278355   3.969   2.721   2.524  1.0227 -0.2497 -0.0346
18955TIP3    H178356   4.060   2.705   2.549  1.2666 -0.8156 -1.2070
18955TIP3    H278357   3.943   2.799   2.574  1.5218 -1.2039  1.7728
18956TIP3   OH278358   0.022   2.461  15.650 -0.5293 -0.2703  0.2956
18956TIP3    H178359  -0.040   2.391  15.628 -2.2047  0.6192  1.9051
18956TIP3    H278360   0.096   2.416  15.691 -1.0509 -1.2032  0.2393
18957TIP3   OH278361   4.793   3.449   1.331 -0.0132  0.4617  0.1795
18957TIP3    H178362   4.774   3.431   1.423 -2.0360 -2.8599 -0.7261
18957TIP3    H278363   4.718   3.501   1.301 -0.6596 -0.5987 -0.1090
18958TIP3   OH278364   1.410   6.667  10.956 -0.0233  0.0350  0.3176
18958TIP3    H178365   1.350   6.619  11.013  0.1270  0.3510  0.7501
18958TIP3    H278366   1.464   6.599  10.915 -1.3441 -0.3350 -0.8864
18959TIP3   OH278367   6.482   3.712  12.010 -0.2067  0.1021 -0.4341
18959TIP3    H178368   6.396   3.669  12.007 -0.0797 -0.1668 -0.2339
18959TIP3    H278369   6.462   3.803  12.034 -0.5362  0.3415 -1.5703
18960TIP3   OH278370   5.669   2.526   4.298 -0.2319 -0.6102 -0.7689
18960TIP3    H178371   5.716   2.491   4.222  0.8594 -1.9584  0.4722
18960TIP3    H278372   5.725   2.596   4.331  0.4963 -1.6114  0.1724
18961TIP3   OH278373   1.951   2.743  11.756  0.4575 -0.6747 -0.1729
18961TIP3    H178374   1.882   2.710  11.699  0.4926 -0.1438 -0.5221
18961TIP3    H278375   1.907   2.762  11.839  0.2935 -0.8671 -0.2165
18962TIP3   OH278376   1.549   4.756  13.794 -0.3519 -0.7413 -0.2693
18962TIP3    H178377   1.614   4.737  13.727  0.6224 -0.5855  0.5949
18962TIP3    H278378   1.503   4.673  13.808  0.9466 -1.3766  0.4259
18963TIP3   OH278379   6.228   5.793   0.204 -0.4457 -0.6282 -0.5418
18963TIP3    H178380   6.307   5.786   0.258 -1.0155  0.9342  0.5545
18963TIP3    H278381   6.259   5.826   0.120  0.3295 -2.1695 -0.8984
18964TIP3   OH278382   3.748   6.474   4.245 -0.9220  0.1077  0.1151
18964TIP3    H178383   3.762   6.553   4.192  0.2171 -0.1882 -0.0465
18964TIP3    H278384   3.662   6.488   4.285 -1.2525  0.9098 -0.8095
18965TIP3   OH278385   5.304   6.564   2.959  0.3419 -0.0623  0.0070
18965TIP3    H178386   5.262   6.648   2.977  0.9257 -0.1149  1.7386
18965TIP3    H278387   5.395   6.577   2.984  0.4782 -1.1482  0.1056
18966TIP3   OH278388   2.101   3.423   3.054 -0.0050  0.5062  0.3760
18966TIP3    H178389   2.159   3.499   3.058 -1.3103  1.6181 -0.6729
18966TIP3    H278390   2.017   3.455   3.089 -0.8424 -0.1541 -0.9298
18967TIP3   OH278391   0.489   5.864   0.054 -0.1523  0.0526  0.8476
18967TIP3    H178392   0.534   5.849   0.137 -0.9348 -1.2446  1.0710
18967TIP3    H278393   0.559   5.876  -0.010  0.4805 -0.3007  1.4659
18968TIP3   OH278394   5.843   1.221   0.544 -0.5523  0.6255  0.5844
18968TIP3    H178395   5.896   1.270   0.606  0.9805  1.8309 -1.5253
18968TIP3    H278396   5.770   1.279   0.523  0.5246  1.5462 -0.8712
18969TIP3   OH278397   5.691   1.712   6.205 -0.0014 -0.4961 -0.2089
18969TIP3    H178398   5.689   1.767   6.127  0.6404 -0.1684 -0.0025
18969TIP3    H278399   5.599   1.690   6.221 -0.4992  1.9343  0.6910
18970TIP3   OH278400   2.652   2.522  15.191  0.2528 -0.3516  0.2852
18970TIP3    H178401   2.701   2.601  15.215 -0.8280  1.1031 -1.8771
18970TIP3    H278402   2.561   2.547  15.202 -0.1318 -2.4385  2.5827
18971TIP3   OH278403   3.402   0.288  14.721  0.3754 -0.0359 -0.2427
18971TIP3    H178404   3.410   0.237  14.641  0.7721 -2.0113  0.9842
18971TIP3    H278405   3.491   0.295  14.755  0.3834  1.8205 -0.5375
18972TIP3   OH278406   4.443   1.447   4.635 -0.6400  0.4845 -0.4555
18972TIP3    H178407   4.426   1.538   4.661 -0.6525  1.2254 -2.8146
18972TIP3    H278408   4.539   1.440   4.636 -0.4351  1.5841 -3.2534
18973TIP3   OH278409   6.292   1.238   3.816  0.4221  0.0791 -0.3141
18973TIP3    H178410   6.231   1.165   3.817 -0.4480  0.7763  1.6034
18973TIP3    H278411   6.363   1.209   3.759  0.6005 -2.6675  1.1687
18974TIP3   OH278412   1.756   2.830  14.815  0.1642 -0.4485 -0.4956
18974TIP3    H178413   1.834   2.869  14.774  0.8863  0.3746  1.5651
18974TIP3    H278414   1.745   2.747  14.769  2.8485 -1.0442 -0.2439
18975TIP3   OH278415   3.628   4.583   6.342  0.3482  0.6697 -0.5992
18975TIP3    H178416   3.542   4.606   6.306  0.5771 -0.0328 -1.6563
18975TIP3    H278417   3.609   4.534   6.422 -0.3452 -1.1399 -1.7882
18976TIP3   OH278418   3.434   0.851   6.073 -0.0360 -0.4760 -0.0788
18976TIP3    H178419   3.354   0.874   6.122 -0.7325  0.3837 -1.5449
18976TIP3    H278420   3.503   0.851   6.139 -1.4155 -2.5432  1.4938
18977TIP3   OH278421   4.990   5.231   4.720 -0.2748  0.4846 -0.0102
18977TIP3    H178422   5.021   5.141   4.728  0.2534  0.6476 -0.1981
18977TIP3    H278423   5.063   5.279   4.682 -0.6744  0.9248 -0.2418
18978TIP3   OH278424   2.733   4.902  11.546 -0.2759  0.0507 -0.4263
18978TIP3    H178425   2.646   4.864  11.550 -0.5842  0.5867 -1.7349
18978TIP3    H278426   2.723   4.991  11.580 -0.2386  0.1163 -0.5860
18979TIP3   OH278427   0.015   4.773   1.981 -0.0998 -0.0743 -0.3992
18979TIP3    H178428  -0.061   4.716   1.985 -0.8874  0.4829 -4.3008
18979TIP3    H278429  -0.020   4.860   1.967  1.2309  0.9800  2.0126
18980TIP3   OH278430   5.654   2.304   1.434 -0.4054  0.4772 -0.5235
18980TIP3    H178431   5.641   2.240   1.504 -1.1105  1.4713  0.2817
18980TIP3    H278432   5.730   2.355   1.463  0.6580 -0.4561 -1.5440
18981TIP3   OH278433   1.264   6.181   0.587  0.1020  0.1800 -0.1309
18981TIP3    H178434   1.228   6.108   0.538 -0.3654  0.9499 -0.9754
18981TIP3    H278435   1.343   6.146   0.629  0.4948 -0.5217 -1.4100
18982TIP3   OH278436   0.006   5.325   0.735  0.0736  0.0067  0.4571
18982TIP3    H178437   0.073   5.258   0.718 -0.3712 -1.0619  2.5659
18982TIP3    H278438  -0.053   5.319   0.659  0.2312 -1.7811  0.4316
18983TIP3   OH278439   3.432   4.932  15.817  0.3424  0.0304 -0.0367
18983TIP3    H178440   3.366   4.990  15.779 -0.1243  0.2076  1.0044
18983TIP3    H278441   3.492   4.990  15.863  0.0032 -0.2793  0.8174
18984TIP3   OH278442   1.178   2.176  15.887 -0.2762 -0.2482  0.1554
18984TIP3    H178443   1.255   2.231  15.904  1.5405 -2.3232 -0.8177
18984TIP3    H278444   1.151   2.145  15.973  0.5296 -0.1988  0.4366
18985TIP3   OH278445   0.430   5.265  15.744  0.3176  0.2247  0.0441
18985TIP3    H178446   0.458   5.313  15.822 -1.0815  2.1444 -0.5391
18985TIP3    H278447   0.399   5.334  15.684 -1.7967 -1.4121 -0.8588
18986TIP3   OH278448   6.410   2.695   6.113  0.0806  0.0521 -0.3208
18986TIP3    H178449   6.459   2.612   6.113  0.7141  0.4152  0.1800
18986TIP3    H278450   6.471   2.758   6.075 -0.3224  0.3314 -0.4981
18987TIP3   OH278451   2.191   4.932  16.644 -0.1913  0.0228 -0.3034
18987TIP3    H178452   2.240   4.881  16.579 -0.6479 -1.1323  0.2421
18987TIP3    H278453   2.138   4.868  16.690 -1.7472  1.1541 -0.4479
18988TIP3   OH278454   0.549   5.635   4.714  0.2072 -0.0055  1.0416
18988TIP3    H178455   0.635   5.640   4.673 -0.1962  1.5177  0.3147
18988TIP3    H278456   0.530   5.541   4.720  1.1014 -0.3111 -0.5263
18989TIP3   OH278457   3.225   3.124   2.073 -0.0743 -0.2390 -0.3980
18989TIP3    H178458   3.237   3.040   2.030 -1.3443  0.3434 -1.9807
18989TIP3    H278459   3.309   3.143   2.114 -0.1670 -2.9129  1.2443
18990TIP3   OH278460   5.996   3.397   2.810 -0.4456 -0.0724  0.1693
18990TIP3    H178461   6.004   3.389   2.715 -1.4708  0.7249  0.0033
18990TIP3    H278462   6.087   3.403   2.841 -0.1226  2.8680 -1.0716
18991TIP3   OH278463   5.173   0.661   6.280 -0.2253 -0.6449 -0.1127
18991TIP3    H178464   5.130   0.576   6.277 -0.0752 -0.7707  0.9857
18991TIP3    H278465   5.266   0.640   6.270 -0.1279 -0.6825  0.7742
18992TIP3   OH278466   0.443   5.109   0.817 -0.0153  0.6184  0.4085
18992TIP3    H178467   0.485   5.181   0.865 -0.8127  1.2976  0.0977
18992TIP3    H278468   0.430   5.041   0.884  0.7601  0.7426  0.7020
18993TIP3   OH278469   5.486   5.384   3.481  0.1057 -0.3095  0.2920
18993TIP3    H178470   5.547   5.458   3.476  0.2514 -0.4998 -1.3780
18993TIP3    H278471   5.481   5.363   3.574  1.6700  0.4779  0.5851
18994TIP3   OH278472   6.783   4.329   0.831 -0.4031 -0.0029 -0.5271
18994TIP3    H178473   6.758   4.381   0.754 -2.1475  0.9054  0.5611
18994TIP3    H278474   6.845   4.385   0.879 -1.0228  0.4132 -0.1874
18995TIP3   OH278475   1.417   0.574   0.716 -0.2332  0.2652  0.1142
18995TIP3    H178476   1.420   0.618   0.631  0.2796 -0.5201 -0.2925
18995TIP3    H278477   1.465   0.492   0.702 -0.3179  0.0305  1.1084
18996TIP3   OH278478   5.832   6.291  15.082 -0.5108  0.0288 -0.3454
18996TIP3    H178479   5.763   6.280  15.017  1.1982  0.7604 -2.4029
18996TIP3    H278480   5.787   6.288  15.166 -2.7490 -1.4877 -1.5177
18997TIP3   OH278481   2.577   5.629  15.800  0.2050 -0.0825 -1.1965
18997TIP3    H178482   2.553   5.661  15.887 -0.9793  2.0780 -2.2322
18997TIP3    H278483   2.522   5.552  15.787 -1.6966  1.1731 -1.0477
18998TIP3   OH278484   3.568   2.520  15.286 -0.2246 -0.6453  0.3611
18998TIP3    H178485   3.522   2.604  15.295  1.2826  0.1564  0.9297
18998TIP3    H278486   3.500   2.459  15.257 -1.5357  0.5824  0.7135
18999TIP3   OH278487   6.501   2.426  11.061 -0.4900 -0.0939  0.6283
18999TIP3    H178488   6.549   2.488  11.116  0.6590  0.7971 -1.2662
18999TIP3    H278489   6.564   2.358  11.039 -0.6636  0.0252 -0.2784
19000TIP3   OH278490   2.818   3.120   6.407  0.1872 -0.4375 -0.2913
19000TIP3    H178491   2.818   3.209   6.441  0.3753 -0.3353 -0.5590
19000TIP3    H278492   2.732   3.085   6.432  0.9701 -0.9835  1.8944
19001TIP3   OH278493   3.251   6.516  11.797 -0.0189 -0.2840  0.2756
19001TIP3    H178494   3.203   6.542  11.719  0.3948 -1.8741 -0.5391
19001TIP3    H278495   3.198   6.445  11.835  0.1449  0.0011  1.0529
19002TIP3   OH278496   5.572   0.633  14.512  0.0326 -0.0249  0.4584
19002TIP3    H178497   5.488   0.588  14.513  0.3737 -0.6763  0.9533
19002TIP3    H278498   5.602   0.629  14.603 -0.8685  3.0477  0.9952
19003TIP3   OH278499   3.325   4.234  10.407  0.0575 -0.1677  0.7901
19003TIP3    H178500   3.306   4.324  10.435 -2.2967 -0.0346 -0.9490
19003TIP3    H278501   3.276   4.180  10.469  1.8209 -0.3781  2.1093
19004TIP3   OH278502   2.479   0.304  11.861 -0.0684 -0.4988  0.0174
19004TIP3    H178503   2.427   0.238  11.816 -0.2979 -0.0239 -0.4191
19004TIP3    H278504   2.414   0.362  11.902 -0.0657  1.9074 -3.0282
19005TIP3   OH278505   3.619   5.390  15.855 -0.3474  0.3708 -0.2092
19005TIP3    H178506   3.638   5.359  15.944  1.5776  1.5562 -0.1492
19005TIP3    H278507   3.524   5.400  15.853 -0.7388 -2.3131  0.7930
19006TIP3   OH278508   2.393   0.073  15.529 -0.3652 -0.0036 -0.2340
19006TIP3    H178509   2.341   0.019  15.469  0.8979 -0.9421 -0.5117
19006TIP3    H278510   2.336   0.148  15.548 -2.0393 -1.2326 -0.1157
19007TIP3   OH278511   5.778   4.906   3.145  0.4411  0.4362  0.0913
19007TIP3    H178512   5.735   4.822   3.162  2.0741 -0.7853 -1.4641
19007TIP3    H278513   5.866   4.882   3.116  0.0865  2.5005 -3.2174
19008TIP3   OH278514   2.940   6.787   5.002  0.2896  0.4946 -0.7183
19008TIP3    H178515   2.875   6.854   5.023  0.3452  0.2018  0.4472
19008TIP3    H278516   2.985   6.770   5.085  4.0056  2.8913 -1.9711
19009TIP3   OH278517   1.026   2.433   3.088  0.5222 -0.0348  0.5806
19009TIP3    H178518   1.107   2.412   3.133  1.5889 -2.6231 -2.2556
19009TIP3    H278519   1.046   2.424   2.995 -3.2505 -1.9626 -0.2314
19010TIP3   OH278520   2.197   3.373   1.943 -0.3004 -0.2241 -0.1930
19010TIP3    H178521   2.273   3.316   1.936 -0.7203 -1.0717  1.5635
19010TIP3    H278522   2.124   3.319   1.913 -0.3389  0.3096 -1.0879
19011TIP3   OH278523   4.996   0.792   6.098  0.1502 -0.3774 -0.0304
19011TIP3    H178524   5.065   0.758   6.156  0.5318 -0.2716 -0.4197
19011TIP3    H278525   4.918   0.742   6.123  0.6191 -1.2976 -0.3513
19012TIP3   OH278526   3.097   1.487  17.338 -0.3555 -0.4127 -0.1694
19012TIP3    H178527   3.167   1.516  17.279 -0.4697  0.9324  0.3252
19012TIP3    H278528   3.139   1.423  17.396  0.2731 -0.2039 -0.3891
19013TIP3   OH278529   0.473   3.078  16.740 -0.2200  0.0509  0.2243
19013TIP3    H178530   0.410   3.082  16.668  0.3380  0.7364 -0.2389
19013TIP3    H278531   0.425   3.110  16.816 -0.1255  1.6729 -0.3604
19014TIP3   OH278532   0.620   5.038   3.161 -0.0374 -0.7511  0.2229
19014TIP3    H178533   0.568   5.118   3.156 -0.7716 -1.2335  0.0613
19014TIP3    H278534   0.584   4.981   3.095 -0.7104 -1.8990  1.5314
19015TIP3   OH278535   5.760   0.132  16.832 -0.0405  0.2715 -0.4603
19015TIP3    H178536   5.765   0.108  16.739 -0.8710  0.0510 -0.4554
19015TIP3    H278537   5.672   0.106  16.859 -0.0713  1.0109  0.2027
19016TIP3   OH278538   0.249   2.249   6.337 -0.3901 -0.2401  0.0884
19016TIP3    H178539   0.295   2.280   6.415  0.6856 -0.5050 -0.4276
19016TIP3    H278540   0.274   2.157   6.329  3.2278  0.7457 -3.0238
19017TIP3   OH278541   1.077   3.156   6.226 -0.1697  0.2922 -0.2244
19017TIP3    H178542   1.043   3.099   6.158 -0.7476  0.6180 -0.2247
19017TIP3    H278543   1.057   3.111   6.308 -0.5922  0.4640 -0.2264
19018TIP3   OH278544   0.444   5.813   1.275 -0.3099 -0.4135 -0.7004
19018TIP3    H178545   0.354   5.787   1.296 -0.9675  2.7052  1.0693
19018TIP3    H278546   0.433   5.895   1.226  1.5842 -0.8283 -1.8895
19019TIP3   OH278547   3.300   2.960   5.873 -0.3598  0.3585 -0.0497
19019TIP3    H178548   3.358   2.908   5.927 -1.3912 -1.7298 -0.8245
19019TIP3    H278549   3.238   3.000   5.935 -0.1439 -0.1288  0.4851
19020TIP3   OH278550   4.706   5.310   4.747 -0.3731  0.4361  0.3333
19020TIP3    H178551   4.784   5.265   4.715 -0.6389  0.2784 -0.1089
19020TIP3    H278552   4.703   5.392   4.698 -1.8890 -0.6811 -1.6337
19021TIP3   OH278553   3.693   3.825   1.240 -0.4442 -0.3008 -0.3783
19021TIP3    H178554   3.621   3.832   1.177 -0.7343  1.0762  0.0589
19021TIP3    H278555   3.669   3.752   1.297 -0.8884 -0.6279 -0.9764
19022TIP3   OH278556   6.523   6.265  14.422  0.0168  0.4418 -0.3429
19022TIP3    H178557   6.534   6.359  14.432 -2.2207  0.6537  0.6240
19022TIP3    H278558   6.606   6.227  14.452  0.4901  2.0389  0.4375
19023TIP3   OH278559   2.063   1.204   3.932 -0.7697 -0.0325 -0.1066
19023TIP3    H178560   1.976   1.241   3.942 -0.4364  0.5940  0.5846
19023TIP3    H278561   2.117   1.276   3.901 -0.5485 -0.4912 -0.8238
19024TIP3   OH278562   3.773   5.168   4.405  0.1381  0.5664 -0.1430
19024TIP3    H178563   3.818   5.247   4.433 -0.6855  1.5999 -1.6389
19024TIP3    H278564   3.797   5.102   4.471  2.7810  1.3843 -0.1679
19025TIP3   OH278565   4.314   0.477  15.160 -0.5185  0.0312  0.0835
19025TIP3    H178566   4.222   0.474  15.131 -0.1252 -2.3223 -1.2299
19025TIP3    H278567   4.344   0.564  15.134 -1.4804 -0.3447 -2.7152
19026TIP3   OH278568   1.639   4.810  13.026 -0.5320 -0.6637 -0.2200
19026TIP3    H178569   1.556   4.765  13.010 -0.5372 -1.0979  0.9142
19026TIP3    H278570   1.654   4.799  13.120  0.2146  0.4439 -0.1945
19027TIP3   OH278571   6.782   2.027   3.242  0.2903 -0.2474  0.5591
19027TIP3    H178572   6.804   2.113   3.279  1.0251 -0.8338  1.5410
19027TIP3    H278573   6.687   2.030   3.230  0.2670  0.5855  0.8897
19028TIP3   OH278574   2.858   3.582  15.655 -0.2754  0.5127  0.0228
19028TIP3    H178575   2.948   3.613  15.661 -0.4741  0.9357  1.1962
19028TIP3    H278576   2.808   3.643  15.710 -1.2645  0.2361 -0.5354
19029TIP3   OH278577   4.520   4.850  16.720 -0.0496  0.0150  0.3132
19029TIP3    H178578   4.564   4.767  16.740 -0.5684 -0.7440 -1.4308
19029TIP3    H278579   4.433   4.840  16.759 -0.1799 -0.3653 -0.0584
19030TIP3   OH278580   2.114   3.262   0.266 -0.1080 -0.3140 -0.3660
19030TIP3    H178581   2.084   3.334   0.212 -0.8000 -1.4543 -1.5488
19030TIP3    H278582   2.038   3.237   0.319  0.5684  0.8135  1.2298
19031TIP3   OH278583   0.342   3.010  15.359 -0.1425  0.0812 -0.0425
19031TIP3    H178584   0.294   3.093  15.354 -1.3349 -0.4671  1.3624
19031TIP3    H278585   0.276   2.945  15.380  1.0510 -0.9092  0.8378
19032TIP3   OH278586   3.504   1.987  14.207 -0.5444  0.3642  0.3152
19032TIP3    H178587   3.519   1.955  14.295 -1.3712 -1.2807 -0.1120
19032TIP3    H278588   3.468   2.075  14.219 -0.0074  0.4291  1.5793
19033TIP3   OH278589   0.221   1.386   1.090 -0.0138  0.2573 -0.1252
19033TIP3    H178590   0.202   1.452   1.157  0.5380  0.3448 -0.0536
19033TIP3    H278591   0.311   1.359   1.107 -0.3105 -0.6910 -0.0045
19034TIP3   OH278592   0.521   2.515   5.022  0.2799 -0.2086 -0.1821
19034TIP3    H178593   0.547   2.459   5.095  0.2958 -0.0437 -0.0602
19034TIP3    H278594   0.457   2.463   4.973  0.7571 -0.5718 -0.4196
19035TIP3   OH278595   4.728   0.879  13.056 -0.4529 -0.0056 -0.3230
19035TIP3    H178596   4.673   0.924  13.120  0.0227  2.5692 -1.5688
19035TIP3    H278597   4.812   0.868  13.101 -0.6393  0.1718  0.0758
19036TIP3   OH278598   2.108   4.970  14.223 -0.0945  0.4918  0.1858
19036TIP3    H178599   2.057   5.017  14.288 -1.3100 -0.6240  0.0799
19036TIP3    H278600   2.064   4.989  14.140  0.7506  0.9646 -0.1647
19037TIP3   OH278601   1.336   3.315   2.473 -0.0417  0.0289 -0.1792
19037TIP3    H178602   1.358   3.224   2.496  2.9123  0.5753 -0.4922
19037TIP3    H278603   1.382   3.368   2.538  0.7233  1.3438 -1.7294
19038TIP3   OH278604   2.974   5.587   5.622  0.0837 -0.1146  0.5929
19038TIP3    H178605   3.064   5.559   5.606 -0.2066  0.2011 -1.9726
19038TIP3    H278606   2.942   5.528   5.690  2.1073 -0.4047  1.3616
19039TIP3   OH278607   4.568   1.417  13.562  0.0913 -0.2199  0.0357
19039TIP3    H178608   4.559   1.504  13.599 -2.2102 -1.1788  2.0038
19039TIP3    H278609   4.597   1.362  13.635  2.7747 -0.9683 -1.4610
19040TIP3   OH278610   3.792   2.485   5.238 -0.4448  0.5788  0.0702
19040TIP3    H178611   3.736   2.553   5.200 -1.4731 -0.7161 -0.8486
19040TIP3    H278612   3.835   2.445   5.162 -0.5777 -0.3872  0.4874
19041TIP3   OH278613   6.149   4.430  14.486  0.0959 -0.7808 -0.0889
19041TIP3    H178614   6.169   4.337  14.493  0.9132 -0.6430 -0.4136
19041TIP3    H278615   6.229   4.469  14.450 -0.8864 -0.2298 -1.8071
19042TIP3   OH278616   2.401   2.681   2.024 -0.2565  0.0573 -0.0026
19042TIP3    H178617   2.426   2.589   2.022 -0.2697  0.0672 -1.1243
19042TIP3    H278618   2.406   2.705   2.117  0.6162 -0.8257  0.1959
19043TIP3   OH278619   4.431   2.932   1.643  0.0384 -0.5199  0.1824
19043TIP3    H178620   4.374   3.005   1.618  0.2148 -0.6860 -0.7165
19043TIP3    H278621   4.475   2.963   1.723  0.9428  0.8034 -0.7860
19044TIP3   OH278622   1.622   4.877   4.397  0.3928 -0.0472  0.0205
19044TIP3    H178623   1.703   4.903   4.441  0.4782 -1.3230  0.6750
19044TIP3    H278624   1.639   4.789   4.365 -0.8591 -0.4949  0.5071
19045TIP3   OH278625   5.830   3.543   1.235 -0.2164  0.4948  0.3672
19045TIP3    H178626   5.909   3.565   1.186 -1.0120  1.2807 -0.6138
19045TIP3    H278627   5.847   3.576   1.324  0.5054  0.7640  0.1323
19046TIP3   OH278628   2.960   6.271   4.951 -0.1914 -0.5555  0.6178
19046TIP3    H178629   3.010   6.298   5.029 -0.4654  2.0726 -0.0042
19046TIP3    H278630   2.869   6.295   4.972 -0.2172  0.5097 -0.6032
19047TIP3   OH278631   3.969   5.006  14.038  0.3235 -0.0025  0.2975
19047TIP3    H178632   3.942   4.998  14.129 -1.3183 -0.5126 -0.1995
19047TIP3    H278633   3.913   5.075  14.003  2.2210  1.5533  0.0928
19048TIP3   OH278634   6.405   0.452   4.684 -0.6527  0.3876 -0.0613
19048TIP3    H178635   6.343   0.525   4.685 -0.6445  0.4058  1.4702
19048TIP3    H278636   6.360   0.381   4.728  0.3656  0.3913  1.0490
19049TIP3   OH278637   0.752   3.024   0.591  0.1731 -0.0254  0.5288
19049TIP3    H178638   0.786   2.935   0.582  2.3717  0.6149  1.6619
19049TIP3    H278639   0.741   3.035   0.686 -0.2665  0.8559  0.3808
19050TIP3   OH278640   0.583   0.670   1.701  0.5185 -0.0966 -0.0853
19050TIP3    H178641   0.552   0.599   1.644  0.7967  0.0381 -0.4052
19050TIP3    H278642   0.646   0.628   1.760 -0.0296 -0.3080  0.3635
19051TIP3   OH278643   1.106   1.252   3.885  0.1698  0.3272  0.2075
19051TIP3    H178644   1.042   1.230   3.953 -0.0014  2.1307  0.6856
19051TIP3    H278645   1.085   1.343   3.862  1.5668  0.4251 -0.7487
19052TIP3   OH278646   2.078   5.975  13.043  0.2384  0.3275  0.3289
19052TIP3    H178647   2.148   6.030  13.077  0.7980  0.1247 -0.4543
19052TIP3    H278648   1.999   6.029  13.049  1.0599  1.9686 -2.1045
19053TIP3   OH278649   6.123   5.780  14.990  0.0366 -0.7201 -0.4801
19053TIP3    H178650   6.053   5.810  14.932  0.5172  1.9511  0.2363
19053TIP3    H278651   6.200   5.776  14.933 -0.0373 -0.6791 -0.5833
19054TIP3   OH278652   6.011   0.383  11.972 -0.3606 -0.9352 -0.6464
19054TIP3    H178653   5.998   0.355  11.881  1.3296 -0.0771 -1.1810
19054TIP3    H278654   5.922   0.395  12.005 -1.0741 -3.0174 -1.5898
19055TIP3   OH278655   3.270   6.538   6.475  0.6080  0.5041  0.3393
19055TIP3    H178656   3.228   6.479   6.539  0.9092  0.4147  0.4536
19055TIP3    H278657   3.227   6.623   6.490  0.7448  0.5082  0.7311
19056TIP3   OH278658   3.622   0.708  16.693  0.1370  0.4321 -0.3108
19056TIP3    H178659   3.665   0.670  16.769 -2.6023 -0.7927  0.7638
19056TIP3    H278660   3.685   0.697  16.621  1.7641 -0.7469  1.2226
19057TIP3   OH278661   0.192   6.762   4.886 -0.1257 -0.5077  0.4408
19057TIP3    H178662   0.104   6.726   4.895  0.5226 -2.0573  1.0198
19057TIP3    H278663   0.237   6.737   4.966  0.9426 -0.0415  0.0090
19058TIP3   OH278664   3.477   0.328  15.213  0.1770 -0.2426  0.2712
19058TIP3    H178665   3.421   0.391  15.258 -0.9053 -0.3507 -0.8366
19058TIP3    H278666   3.455   0.339  15.120 -0.0694 -2.2546  0.0431
19059TIP3   OH278667   3.540   3.108   0.445  0.8564 -0.1179 -0.2750
19059TIP3    H178668   3.475   3.175   0.461 -1.4576 -2.6772  2.0921
19059TIP3    H278669   3.624   3.153   0.451 -0.5797  2.8022 -0.6605
19060TIP3   OH278670   0.486   1.023  12.251  0.5691 -0.5246  0.3515
19060TIP3    H178671   0.467   1.066  12.167 -1.6964 -0.7803  0.6789
19060TIP3    H278672   0.489   1.095  12.314 -1.8749 -0.6247  0.6748
19061TIP3   OH278673   4.306   4.337  14.513 -0.9228  0.5767 -0.3521
19061TIP3    H178674   4.260   4.278  14.453  1.0331 -1.5071  0.0239
19061TIP3    H278675   4.296   4.296  14.599  0.3247  0.8659 -0.0400
19062TIP3   OH278676   2.294   1.846   3.711 -0.1583  0.1674 -0.9773
19062TIP3    H178677   2.312   1.916   3.648  0.1315  1.3247  0.3583
19062TIP3    H278678   2.377   1.799   3.718  0.0240  0.4930 -0.9096
19063TIP3   OH278679   6.491   5.547   2.054 -0.4100 -0.3327  0.1389
19063TIP3    H178680   6.471   5.599   2.132 -0.5004  0.1585 -0.2108
19063TIP3    H278681   6.569   5.497   2.077 -0.3134 -0.0303  0.4703
19064TIP3   OH278682   6.662   6.143   6.187 -0.4116 -0.7297  0.2093
19064TIP3    H178683   6.622   6.196   6.256 -1.6775  0.2710 -1.2369
19064TIP3    H278684   6.755   6.164   6.192 -0.5782 -0.1699  1.1723
19065TIP3   OH278685   2.677   2.138   2.186  0.2623  1.0723  0.4637
19065TIP3    H178686   2.651   2.225   2.216  1.4956  2.5383 -2.3818
19065TIP3    H278687   2.771   2.134   2.201  0.0105 -0.4787  2.0080
19066TIP3   OH278688   4.931   6.680  16.811 -0.5041 -0.1440  0.7685
19066TIP3    H178689   4.977   6.757  16.844 -0.6682 -0.2529  1.2522
19066TIP3    H278690   4.979   6.655  16.732 -0.4395  0.4449  0.6127
19067TIP3   OH278691   6.735   2.182   3.775  0.5061 -0.3304  0.3871
19067TIP3    H178692   6.822   2.217   3.758  0.5925 -0.0262  1.3788
19067TIP3    H278693   6.690   2.251   3.823 -0.5561 -0.1838 -0.7645
19068TIP3   OH278694   1.502   0.176   0.520  0.2775 -0.6201 -0.0520
19068TIP3    H178695   1.556   0.114   0.569  2.7990 -0.0624 -1.9089
19068TIP3    H278696   1.522   0.157   0.428 -0.4087  1.6008 -0.7244
19069TIP3   OH278697   6.377   3.090   5.869 -0.4654  0.5618  0.0023
19069TIP3    H178698   6.459   3.101   5.917  0.7259 -3.0976 -0.8541
19069TIP3    H278699   6.327   3.028   5.922 -1.4611  0.6408 -0.8251
19070TIP3   OH278700   2.625   4.579   2.192  0.0029  0.0190  0.3480
19070TIP3    H178701   2.570   4.501   2.201 -0.6197  0.3588 -0.4059
19070TIP3    H278702   2.707   4.547   2.155 -0.0556 -0.3456  0.5302
19071TIP3   OH278703   3.512   1.862  10.988 -0.1785  0.4290 -0.3443
19071TIP3    H178704   3.501   1.953  10.960 -0.4614  0.3674 -0.4297
19071TIP3    H278705   3.484   1.810  10.913  0.0848  0.2714 -0.3330
19072TIP3   OH278706   0.671   0.459   2.998  0.1992 -0.2071 -0.3294
19072TIP3    H178707   0.748   0.403   2.988  0.3649 -0.0341  0.0002
19072TIP3    H278708   0.649   0.453   3.091 -0.4297 -0.5835 -0.4928
19073TIP3   OH278709   1.899   3.249  13.790 -0.3417 -0.6607  0.1534
19073TIP3    H178710   1.982   3.221  13.752 -0.3194  0.0289 -0.3164
19073TIP3    H278711   1.885   3.189  13.864 -0.0964 -1.6263 -0.5702
19074TIP3   OH278712   4.239   3.356   6.474 -0.1748 -0.4746  0.5581
19074TIP3    H178713   4.151   3.334   6.506 -0.1188  0.8365  1.6544
19074TIP3    H278714   4.296   3.342   6.549  0.1809  1.1406  0.6115
19075TIP3   OH278715   3.423   1.756   6.177 -0.0037 -0.2478 -0.1909
19075TIP3    H178716   3.465   1.670   6.173  0.5396 -0.0530  0.9813
19075TIP3    H278717   3.399   1.767   6.269 -1.7577  0.0762 -0.6422
19076TIP3   OH278718   4.855   3.357   4.930 -0.2058  0.0902 -0.7697
19076TIP3    H178719   4.926   3.338   4.991 -0.4721  1.3074 -0.0523
19076TIP3    H278720   4.883   3.437   4.885 -0.4905 -0.2109 -1.5044
19077TIP3   OH278721   4.699   5.755  14.160  0.0991 -0.3689 -0.4229
19077TIP3    H178722   4.606   5.738  14.144  0.2310  0.3011 -2.0568
19077TIP3    H278723   4.723   5.693  14.230 -1.8076  0.1874  0.8038
19078TIP3   OH278724   4.120   3.291  14.763  0.3439 -0.0164 -0.2222
19078TIP3    H178725   4.120   3.263  14.855  2.9483  0.7585  0.0829
19078TIP3    H278726   4.108   3.386  14.767 -1.3537 -0.1703 -0.8424
19079TIP3   OH278727   2.152   0.228  15.602  0.5294 -0.0073  0.0619
19079TIP3    H178728   2.084   0.200  15.665  1.4446 -2.0542  0.2354
19079TIP3    H278729   2.115   0.207  15.516 -0.4222  2.1166 -0.1085
19080TIP3   OH278730   5.502   5.946   0.016 -0.1837 -0.4110 -0.5770
19080TIP3    H178731   5.531   6.007   0.084 -0.6125  0.4214 -1.1220
19080TIP3    H278732   5.582   5.901  -0.012  0.7219  1.9757 -2.1830
19081TIP3   OH278733   2.290   2.901  16.210  0.3509  0.4349 -0.3619
19081TIP3    H178734   2.303   2.993  16.185  0.4386  0.3847 -0.4999
19081TIP3    H278735   2.222   2.870  16.151  0.7787  0.2279 -0.7529
19082TIP3   OH278736   3.889   5.805   3.463 -0.2172  0.3484 -0.2390
19082TIP3    H178737   3.825   5.800   3.391  0.0798  0.1334 -0.4935
19082TIP3    H278738   3.874   5.725   3.514  2.5330 -1.9235 -2.6122
19083TIP3   OH278739   5.962   2.498  16.033  0.4553 -0.1900  0.1972
19083TIP3    H178740   6.040   2.493  15.978  0.5548  0.0792  0.3100
19083TIP3    H278741   5.898   2.442  15.990 -0.4280  2.1192 -1.7289
19084TIP3   OH278742   0.564   6.011  14.815 -0.2582  0.3948  0.0045
19084TIP3    H178743   0.616   6.089  14.796 -0.4308 -0.0537 -2.6977
19084TIP3    H278744   0.524   5.989  14.731 -0.9793 -2.0519  0.9347
19085TIP3   OH278745   1.175   4.175  12.881 -0.1590  0.2086  0.5734
19085TIP3    H178746   1.102   4.196  12.939 -1.1535 -0.7331 -0.2800
19085TIP3    H278747   1.133   4.144  12.800  1.1823 -1.0842  0.3281
19086TIP3   OH278748   6.624   3.425   4.424 -0.1243  0.6305  0.2028
19086TIP3    H178749   6.678   3.481   4.370 -0.5974  0.3458 -0.5832
19086TIP3    H278750   6.629   3.339   4.382 -0.1265  0.2971  0.8737
19087TIP3   OH278751   2.989   1.266   5.503 -0.7683  0.9659 -0.0789
19087TIP3    H178752   2.974   1.183   5.457  1.9412  0.7940 -0.8472
19087TIP3    H278753   2.931   1.329   5.459 -0.8149  0.0563 -1.3933
19088TIP3   OH278754   0.789   2.384   4.013 -0.1468  0.2889 -0.3478
19088TIP3    H178755   0.851   2.313   3.995  0.9234  0.9478  0.5706
19088TIP3    H278756   0.704   2.342   4.015  0.2899 -0.6900 -1.4292
19089TIP3   OH278757   2.197   6.370   1.997 -0.1730 -0.4135  0.0266
19089TIP3    H178758   2.290   6.353   1.985  0.3542  1.3968  1.1878
19089TIP3    H278759   2.157   6.283   1.996  1.5500 -1.2425 -0.2793
19090TIP3   OH278760   1.667   3.568   3.001 -0.0699 -0.1953 -0.4502
19090TIP3    H178761   1.617   3.596   3.078  0.5860 -3.0154  1.1478
19090TIP3    H278762   1.758   3.578   3.027  0.1589 -1.2622 -0.7926
19091TIP3   OH278763   4.892   2.330   3.895 -0.7066 -0.2891  0.4055
19091TIP3    H178764   4.948   2.254   3.911 -0.7173 -0.0447  1.6892
19091TIP3    H278765   4.863   2.357   3.982 -2.2020  0.0630 -0.1756
19092TIP3   OH278766   1.168   3.421   2.293 -0.6619 -0.3092 -0.2179
19092TIP3    H178767   1.229   3.373   2.349  0.8351 -1.0129 -2.3020
19092TIP3    H278768   1.182   3.513   2.316  0.1914 -0.5484  0.2844
19093TIP3   OH278769   4.338   1.674   4.029 -0.2352 -0.4475  0.5349
19093TIP3    H178770   4.411   1.660   4.088  0.7166  2.0011  0.0696
19093TIP3    H278771   4.303   1.760   4.054  0.1000  0.6137 -2.2693
19094TIP3   OH278772   2.130   5.210   3.115 -0.5947  0.1474  0.2432
19094TIP3    H178773   2.166   5.299   3.124 -0.1353 -0.2309  2.7301
19094TIP3    H278774   2.207   5.153   3.120 -0.8552 -0.4377 -1.6052
19095TIP3   OH278775   2.135   4.908   5.197 -0.4918  0.6184 -0.8600
19095TIP3    H178776   2.072   4.968   5.156 -0.8212  1.6262  0.9955
19095TIP3    H278777   2.083   4.859   5.260  0.2351  0.0456 -0.7025
19096TIP3   OH278778   0.033   6.268   3.721 -0.1476 -0.1387 -0.2685
19096TIP3    H178779   0.101   6.226   3.773  0.4763 -0.5725 -1.4013
19096TIP3    H278780  -0.049   6.238   3.760  0.2791 -2.0718 -0.7522
19097TIP3   OH278781   5.156   4.533  12.833 -0.4443  0.2009  0.2070
19097TIP3    H178782   5.251   4.523  12.831 -0.6489 -3.1311  0.9250
19097TIP3    H278783   5.131   4.533  12.741  0.2413  1.2516  0.0052
19098TIP3   OH278784   5.455   3.445   2.793  0.6304  0.1192 -0.1244
19098TIP3    H178785   5.499   3.516   2.746  1.5036 -0.2165  0.1489
19098TIP3    H278786   5.510   3.431   2.871 -0.0277 -0.2551  0.2762
19099TIP3   OH278787   0.542   5.765   0.747 -0.2053  0.3815  0.4045
19099TIP3    H178788   0.530   5.792   0.838  0.7177  0.5563  0.4893
19099TIP3    H278789   0.467   5.709   0.728 -0.0822 -0.1682  1.4722
19100TIP3   OH278790   4.540   0.167   1.128  0.0929 -0.0218 -0.1755
19100TIP3    H178791   4.568   0.258   1.116  1.4360 -0.1210  1.8321
19100TIP3    H278792   4.539   0.131   1.039 -0.8398  2.0126 -1.0707
19101TIP3   OH278793   5.320   4.257   3.501 -0.3148 -0.2047  0.2889
19101TIP3    H178794   5.245   4.198   3.493  0.4248 -1.0521 -0.4392
19101TIP3    H278795   5.301   4.328   3.440 -0.8825 -0.0101  0.6776
19102TIP3   OH278796   2.209   1.145  11.469 -0.0544 -0.1407 -0.4730
19102TIP3    H178797   2.196   1.127  11.376 -0.3219  0.4294 -0.5478
19102TIP3    H278798   2.231   1.238  11.473  0.8782 -0.3664 -0.0469
19103TIP3   OH278799   1.201   3.004  10.818  0.4838  0.1765 -0.5378
19103TIP3    H178800   1.125   3.036  10.866  0.3177  1.4369 -1.5879
19103TIP3    H278801   1.269   3.071  10.832  1.6147 -1.1742  0.8121
19104TIP3   OH278802   6.309   0.137  16.094  0.6995  0.0289  0.2810
19104TIP3    H178803   6.308   0.042  16.086  1.3543  0.0212  0.2784
19104TIP3    H278804   6.372   0.167  16.029 -0.2961  0.5498 -0.4657
19105TIP3   OH278805   0.889   6.080  16.725 -0.5090  0.2623  0.9650
19105TIP3    H178806   0.810   6.068  16.778 -0.6986 -1.1173  0.4030
19105TIP3    H278807   0.920   6.167  16.749 -2.7972  1.3158  0.4320
19106TIP3   OH278808   0.674   6.660   2.109  0.1876  0.0628 -0.2319
19106TIP3    H178809   0.673   6.587   2.048 -0.0845  0.6890 -0.9904
19106TIP3    H278810   0.767   6.677   2.125  0.2487 -0.8211  0.4166
19107TIP3   OH278811   5.248   5.749   4.711 -0.0418  0.2535  0.4639
19107TIP3    H178812   5.304   5.693   4.657  1.1633 -0.9210  2.7781
19107TIP3    H278813   5.217   5.817   4.651  2.9245  0.2715 -1.2332
19108TIP3   OH278814   6.181   5.813  12.454  0.1813 -0.1128 -0.2432
19108TIP3    H178815   6.209   5.756  12.525  1.3129 -0.3798 -0.8898
19108TIP3    H278816   6.227   5.781  12.377 -1.4623 -0.1838 -1.2382
19109TIP3   OH278817   1.264   5.095   3.606  0.2988 -0.0957  0.4761
19109TIP3    H178818   1.285   5.002   3.605  0.1030 -0.1477 -1.4026
19109TIP3    H278819   1.169   5.099   3.607  0.2631  0.0379 -1.1193
19110TIP3   OH278820   1.355   3.674  16.459 -0.3973 -0.2084  0.2707
19110TIP3    H178821   1.369   3.620  16.537 -0.6361 -0.0613  0.4143
19110TIP3    H278822   1.442   3.708  16.437 -0.7430  2.2195  2.2432
19111TIP3   OH278823   0.081   1.960  16.822 -0.1205  0.0727 -0.3968
19111TIP3    H178824   0.052   1.989  16.908 -1.1564 -0.0506 -0.6859
19111TIP3    H278825   0.167   2.000  16.810 -0.7899  1.6667 -0.0870
19112TIP3   OH278826   0.091   4.873   4.818  0.2766 -0.0358  0.1454
19112TIP3    H178827   0.154   4.851   4.887 -0.8635  1.2368  1.6756
19112TIP3    H278828   0.141   4.866   4.737  1.6126 -1.7979  1.0555
19113TIP3   OH278829   4.812   1.870   2.447 -0.0195  0.0446  0.3734
19113TIP3    H178830   4.790   1.869   2.353  0.3352  1.4658  0.2525
19113TIP3    H278831   4.880   1.803   2.456 -1.1556 -1.2036 -0.0777
19114TIP3   OH278832   5.772   2.791  14.197 -0.8477 -0.2838 -0.2630
19114TIP3    H178833   5.771   2.716  14.257  0.1488 -0.1449 -0.0574
19114TIP3    H278834   5.791   2.753  14.112  0.2941 -0.2162 -0.0559
19115TIP3   OH278835   6.239   0.718   5.449  0.3550  0.0820 -0.3874
19115TIP3    H178836   6.301   0.646   5.442  0.2315 -0.0408 -0.2552
19115TIP3    H278837   6.239   0.760   5.363 -0.0217 -0.4504 -0.6550
19116TIP3   OH278838   4.275   0.466  12.454 -0.0399  0.1483  0.2166
19116TIP3    H178839   4.273   0.478  12.359  0.7677 -0.0643  0.1621
19116TIP3    H278840   4.184   0.456  12.480 -0.3434  1.1496 -0.4153
19117TIP3   OH278841   0.148   0.054   2.964 -0.8107  0.5371 -0.2231
19117TIP3    H178842   0.091   0.081   3.036 -2.1002 -2.3539 -0.0206
19117TIP3    H278843   0.210   0.126   2.953  0.1709  0.7126  4.5092
19118TIP3   OH278844   6.761   3.018  13.559 -0.1016  0.2882  0.1261
19118TIP3    H178845   6.745   3.022  13.653 -1.2714  0.8001 -0.0808
19118TIP3    H278846   6.674   3.008  13.520  0.3098  0.6861 -0.9238
19119TIP3   OH278847   0.345   0.759   2.885  0.3392 -1.1366  0.8454
19119TIP3    H178848   0.359   0.668   2.856  2.3413 -1.2115  1.8537
19119TIP3    H278849   0.429   0.785   2.923 -0.1154  1.2488  0.3698
19120TIP3   OH278850   2.724   4.615   3.797  0.3623  0.1702 -0.3405
19120TIP3    H178851   2.726   4.530   3.752 -0.9144  0.5028 -1.0860
19120TIP3    H278852   2.816   4.640   3.805  0.9377 -2.1028  1.5445
19121TIP3   OH278853   1.339   3.809  14.081  0.3859  0.0724  0.1104
19121TIP3    H178854   1.409   3.752  14.110  0.2836  0.1868  0.5869
19121TIP3    H278855   1.289   3.828  14.160  1.6209  2.5025  0.4120
19122TIP3   OH278856   6.727   5.879   6.094 -0.5138 -0.0964 -0.3268
19122TIP3    H178857   6.675   5.952   6.127 -1.4605  0.1168 -2.1482
19122TIP3    H278858   6.777   5.916   6.021 -0.4919 -1.1054 -0.8391
19123TIP3   OH278859   0.980   6.033   2.115 -0.0565  0.7825 -0.5792
19123TIP3    H178860   0.966   6.098   2.046 -1.4796  1.0598 -0.0693
19123TIP3    H278861   0.913   5.967   2.100  1.3331 -0.5679 -1.0425
19124TIP3   OH278862   0.984   3.482   1.497 -0.1415 -0.3096  0.1833
19124TIP3    H178863   1.008   3.504   1.588 -0.6579  1.0541  0.0149
19124TIP3    H278864   1.056   3.516   1.445 -0.6556  0.4631 -0.0379
19125TIP3   OH278865   5.796   2.263   1.985 -0.5538  0.4195 -0.4256
19125TIP3    H178866   5.891   2.260   2.000 -0.5319  0.3522 -0.5817
19125TIP3    H278867   5.784   2.340   1.929 -0.6275  0.6223 -0.1345
19126TIP3   OH278868   2.262   2.442   5.926 -0.2625 -0.2547  0.3682
19126TIP3    H178869   2.249   2.465   5.834 -0.9823  3.2858  1.2082
19126TIP3    H278870   2.197   2.373   5.943  0.7598 -1.9195 -1.9920
19127TIP3   OH278871   5.997   2.893  13.275  0.4022 -0.1690  0.8243
19127TIP3    H178872   6.038   2.963  13.224  1.7728 -0.9218  0.8372
19127TIP3    H278873   5.939   2.939  13.335 -1.1197  0.7522 -1.2273
19128TIP3   OH278874   4.134   6.264  17.121  0.8965  0.6008  0.0697
19128TIP3    H178875   4.066   6.236  17.181  0.9969  0.1114 -0.0437
19128TIP3    H278876   4.097   6.249  17.034  0.7084  1.4086  0.0023
19129TIP3   OH278877   3.301   5.814  14.564 -0.0680  0.1879 -0.3768
19129TIP3    H178878   3.360   5.741  14.545 -0.1934  0.2779 -1.1556
19129TIP3    H278879   3.268   5.796  14.652 -0.3529 -0.8822 -0.6839
19130TIP3   OH278880   5.097   3.137  14.380 -0.1651 -0.2436  0.1337
19130TIP3    H178881   5.041   3.210  14.404  1.3167  0.6775  0.9647
19130TIP3    H278882   5.064   3.107  14.295  0.1174  2.3720 -0.9828
19131TIP3   OH278883   3.167   3.503  12.467 -0.4229  0.1516 -0.4652
19131TIP3    H178884   3.148   3.590  12.503  0.6081  0.2515 -0.1254
19131TIP3    H278885   3.187   3.450  12.544  0.5326  0.0312 -0.7872
19132TIP3   OH278886   0.140   0.217  13.921  0.4031  0.1982  0.3251
19132TIP3    H178887   0.094   0.135  13.940 -1.2744  0.9640 -0.1631
19132TIP3    H278888   0.109   0.242  13.834  1.5272  0.9449  0.1173
19133TIP3   OH278889   3.219   1.275   0.083 -0.2864 -0.1824  0.0875
19133TIP3    H178890   3.311   1.291   0.105 -0.3806  0.6889 -0.1199
19133TIP3    H278891   3.222   1.235  -0.004 -0.1534  0.8980 -0.4150
19134TIP3   OH278892   0.152   1.637   3.728 -0.1002 -0.1724 -0.2857
19134TIP3    H178893   0.182   1.723   3.697  0.0999 -0.3746 -0.6638
19134TIP3    H278894   0.204   1.621   3.807  0.8761 -0.5602 -0.9839
19135TIP3   OH278895   1.215   5.827   0.794  0.1196  0.7135 -0.0164
19135TIP3    H178896   1.218   5.731   0.788  3.0300  0.8208 -1.8090
19135TIP3    H278897   1.270   5.848   0.870  2.1063  0.9948 -1.4624
19136TIP3   OH278898   0.099   2.171   2.290 -0.6364  0.2086 -0.6529
19136TIP3    H178899   0.176   2.127   2.252 -0.0283 -0.6519  1.4413
19136TIP3    H278900   0.024   2.128   2.248 -0.0214 -1.7554  0.1265
19137TIP3   OH278901   6.015   2.911  11.548 -0.2066  0.0580  0.0111
19137TIP3    H178902   6.014   2.819  11.574 -1.8502 -0.3799 -1.3489
19137TIP3    H278903   5.974   2.957  11.621 -1.9849 -0.7254 -0.4309
19138TIP3   OH278904   4.042   5.482  14.830 -0.0781 -0.1865 -0.4344
19138TIP3    H178905   4.065   5.563  14.785 -1.1082 -0.6131 -1.7896
19138TIP3    H278906   4.116   5.423  14.812  0.7993  0.5009  0.7828
19139TIP3   OH278907   1.869   3.206   1.684 -0.0864 -0.0839  0.5053
19139TIP3    H178908   1.923   3.156   1.745  1.0728  0.1094 -0.3492
19139TIP3    H278909   1.930   3.259   1.634 -1.0902  0.3762 -0.2825
19140TIP3   OH278910   0.177   4.182   4.676  0.1418 -0.5786  0.2476
19140TIP3    H178911   0.099   4.235   4.661  0.9659  0.4957 -0.3402
19140TIP3    H278912   0.196   4.143   4.591  0.7500 -0.1309  0.1731
19141TIP3   OH278913   6.244   1.975  14.845 -0.2692 -0.7928  0.0516
19141TIP3    H178914   6.219   2.067  14.837 -0.0279 -0.6789  0.5558
19141TIP3    H278915   6.329   1.977  14.889 -0.2541 -1.2555  0.0503
19142TIP3   OH278916   0.571   0.476   4.959 -0.3856 -0.0288  0.2604
19142TIP3    H178917   0.604   0.394   4.996  0.4324 -0.8353 -2.0802
19142TIP3    H278918   0.649   0.523   4.931 -0.9445  0.7004 -0.0990
19143TIP3   OH278919   1.070   2.588   5.538 -0.2147 -0.0637  0.0364
19143TIP3    H178920   1.028   2.603   5.622  1.0574  0.0591  0.6791
19143TIP3    H278921   1.076   2.493   5.531 -0.1155 -0.0713  0.2031
19144TIP3   OH278922   1.555   2.807   1.414 -0.3494  0.4886  0.2138
19144TIP3    H178923   1.637   2.842   1.382  0.3205  1.2498  2.5395
19144TIP3    H278924   1.493   2.881   1.407 -0.6514  0.1594 -0.7768
19145TIP3   OH278925   0.687   4.881  15.867 -0.0343 -0.1939  0.6894
19145TIP3    H178926   0.716   4.829  15.942 -1.6671 -0.3099  1.2651
19145TIP3    H278927   0.731   4.841  15.792  0.4604 -1.0071  1.3955
19146TIP3   OH278928   4.263   4.417  15.964 -0.0615  0.3929  0.7529
19146TIP3    H178929   4.210   4.496  15.959  1.4172  1.3414 -0.6101
19146TIP3    H278930   4.344   4.444  16.008  1.3309  0.2168 -1.5280
19147TIP3   OH278931   0.676   0.361   2.633 -0.2114 -0.4269 -0.4126
19147TIP3    H178932   0.760   0.315   2.637 -0.1175 -0.3030 -0.9399
19147TIP3    H278933   0.625   0.323   2.704  0.1598 -0.7645 -0.3234
19148TIP3   OH278934   5.830   2.421   1.614  0.1912  0.3693 -0.4880
19148TIP3    H178935   5.821   2.516   1.610 -1.8506  0.1865 -0.9344
19148TIP3    H278936   5.775   2.394   1.687  1.2102 -0.4526  0.0083
19149TIP3   OH278937   1.277   0.713   3.972  0.3467  0.1249 -0.0409
19149TIP3    H178938   1.236   0.724   3.887  0.5287 -0.1235 -0.1629
19149TIP3    H278939   1.209   0.675   4.028  0.7681 -1.4985 -0.5806
19150TIP3   OH278940   6.000   3.917  10.855 -0.5474 -0.1298 -0.3281
19150TIP3    H178941   6.082   3.960  10.881 -0.3718 -1.1405  0.8972
19150TIP3    H278942   6.024   3.862  10.781  0.3414 -1.8135  1.1295
19151TIP3   OH278943   2.508   1.013  12.833  0.4755 -0.1416 -0.6060
19151TIP3    H178944   2.538   0.945  12.772 -0.2205 -0.8100 -0.2265
19151TIP3    H278945   2.564   1.002  12.910  1.7861  1.1201 -1.3318
19152TIP3   OH278946   0.782   5.474  12.149  0.1018  0.1339  0.5341
19152TIP3    H178947   0.864   5.521  12.142  0.1126  0.1502  0.7467
19152TIP3    H278948   0.722   5.521  12.091  0.7695 -1.0830 -1.2217
19153TIP3   OH278949   1.511   1.888  16.369  0.4248 -0.8635 -0.2262
19153TIP3    H178950   1.564   1.822  16.414  1.7789 -0.2742 -0.9174
19153TIP3    H278951   1.482   1.947  16.438  3.4600  0.7151 -0.1534
19154TIP3   OH278952   4.519   5.717   5.741  0.5853  0.0595  0.7788
19154TIP3    H178953   4.531   5.627   5.710  2.0907 -0.0212  1.5348
19154TIP3    H278954   4.491   5.707   5.832  1.7305  0.3457  1.1769
19155TIP3   OH278955   6.653   6.615  15.180 -0.3422 -0.2202 -0.1877
19155TIP3    H178956   6.645   6.615  15.275  2.3950 -0.6556  0.1205
19155TIP3    H278957   6.705   6.693  15.161 -1.2754  0.1405 -1.4146
19156TIP3   OH278958   5.961   1.274  10.949  0.1530  0.1764  0.4585
19156TIP3    H178959   5.881   1.262  10.896 -0.5927 -0.3148  1.6633
19156TIP3    H278960   5.968   1.194  11.000  1.6360  0.0705  0.1278
19157TIP3   OH278961   3.391   1.668  14.086  0.5632 -0.3213 -0.1796
19157TIP3    H178962   3.411   1.751  14.042  2.8075 -1.5667 -1.7771
19157TIP3    H278963   3.305   1.643  14.052 -0.8434  1.9632  1.4569
19158TIP3   OH278964   0.263   6.623   2.874 -0.1876 -0.1952 -0.1831
19158TIP3    H178965   0.248   6.565   2.949  1.3553 -0.6862 -0.2160
19158TIP3    H278966   0.236   6.709   2.906 -0.5029 -0.5715  0.6029
19159TIP3   OH278967   5.861   2.969   0.950  0.3728 -0.5478 -0.1701
19159TIP3    H178968   5.934   2.965   0.889  1.7318 -0.5895  1.4030
19159TIP3    H278969   5.883   2.907   1.019 -0.0894  1.0118  1.4485
19160TIP3   OH278970   2.057   6.600   6.387  0.0796 -0.3414  0.1932
19160TIP3    H178971   2.047   6.674   6.327 -0.9016 -0.8784 -0.3373
19160TIP3    H278972   1.967   6.576   6.410  0.3997 -1.1889  0.5888
19161TIP3   OH278973   6.349   4.761  11.380  0.2036 -0.0975  0.2857
19161TIP3    H178974   6.391   4.833  11.426 -0.3039  0.5443 -0.2295
19161TIP3    H278975   6.298   4.803  11.311  0.8888 -1.0215 -0.8336
19162TIP3   OH278976   1.015   4.188  17.330  0.0196 -0.0717  0.4819
19162TIP3    H178977   1.040   4.100  17.360 -1.3281 -1.0234 -1.0027
19162TIP3    H278978   1.050   4.193  17.241  3.0555  2.2859  1.6363
19163TIP3   OH278979   4.818   3.403  14.704 -0.5616  0.2754  0.1632
19163TIP3    H178980   4.879   3.372  14.636  1.7490  2.1505  1.2385
19163TIP3    H278981   4.802   3.327  14.758  0.4492 -0.4066 -0.4567
19164TIP3   OH278982   1.988   1.417   2.382  0.7844 -0.5647 -0.7534
19164TIP3    H178983   1.998   1.470   2.461  1.1103  0.3670 -1.4045
19164TIP3    H278984   2.047   1.456   2.318 -0.4373 -0.4678 -1.8806
19165TIP3   OH278985   2.481   3.917  15.875 -0.4181 -0.4456  0.1783
19165TIP3    H178986   2.468   3.822  15.877  0.3115 -0.5369  1.2793
19165TIP3    H278987   2.393   3.953  15.888 -0.4696 -1.0086  1.6198
19166TIP3   OH278988   1.925   0.752  16.671  0.5547  0.2863 -0.0256
19166TIP3    H178989   1.971   0.741  16.754  0.1028 -0.7158  0.1093
19166TIP3    H278990   1.993   0.744  16.604  0.6488 -0.8662  0.1822
19167TIP3   OH278991   0.646   5.611   3.429  0.1578  0.1369 -0.6918
19167TIP3    H178992   0.617   5.688   3.379 -0.6869 -0.0558 -0.5108
19167TIP3    H278993   0.703   5.563   3.368  0.7182  0.9142 -0.7968
19168TIP3   OH278994   6.159   0.680  12.516  0.6891  0.2390  0.1344
19168TIP3    H178995   6.228   0.613  12.507  0.8473  0.4072  0.0969
19168TIP3    H278996   6.203   0.763  12.497  0.6113  0.4080  0.6738
19169TIP3   OH278997   5.745   0.598  14.297  0.4682 -0.0392 -0.4118
19169TIP3    H178998   5.679   0.621  14.363  1.7510 -0.1384  0.9343
19169TIP3    H278999   5.703   0.620  14.214 -1.6298 -0.9869  0.3314
19170TIP3   OH279000   0.691   4.720  12.354  0.1087  0.3301 -0.4069
19170TIP3    H179001   0.776   4.756  12.330  0.2851  0.4443  0.3824
19170TIP3    H279002   0.692   4.631  12.320  0.3824  0.4616 -0.7517
19171TIP3   OH279003   0.871   4.073   1.676 -0.1152 -0.1994  0.3300
19171TIP3    H179004   0.861   4.042   1.766 -0.1540  0.0609  0.4181
19171TIP3    H279005   0.960   4.051   1.651  0.2659  0.7142  0.8231
19172TIP3   OH279006   3.288   0.870  11.426 -0.6835  0.1978  0.2507
19172TIP3    H179007   3.276   0.940  11.362  1.8786  0.2991 -0.2314
19172TIP3    H279008   3.376   0.885  11.461 -0.5449 -2.0657  1.0249
19173TIP3   OH279009   0.224   6.146  16.386  0.1379  0.2553 -0.3584
19173TIP3    H179010   0.225   6.216  16.321 -2.4307  1.8957  1.1905
19173TIP3    H279011   0.281   6.178  16.457  1.5803 -0.7704 -1.0027
19174TIP3   OH279012   0.433   0.542   4.617  0.1424 -0.6907  0.9790
19174TIP3    H179013   0.427   0.446   4.620  2.2632 -0.8536  1.4335
19174TIP3    H279014   0.515   0.562   4.661 -0.8452  1.4449  1.9766
19175TIP3   OH279015   1.089   5.097  11.250 -0.6174  0.6598 -0.1465
19175TIP3    H179016   1.102   5.005  11.269 -1.1186  0.6924  0.3881
19175TIP3    H279017   1.135   5.112  11.167 -2.7247 -0.6663 -1.6291
19176TIP3   OH279018   2.685   1.961   6.129 -0.1542  0.1956 -0.1770
19176TIP3    H179019   2.681   1.897   6.200 -1.4761  0.1979 -0.2187
19176TIP3    H279020   2.778   1.970   6.110  0.1305 -0.8554  0.6075
19177TIP3   OH279021   2.235   4.600   1.610  0.5858  0.7612  0.4521
19177TIP3    H179022   2.229   4.551   1.692 -0.5699  2.9921  1.8005
19177TIP3    H279023   2.305   4.556   1.561  1.3115 -0.6686  2.6055
19178TIP3   OH279024   2.338   1.775   0.031  0.2667 -0.1816 -0.1417
19178TIP3    H179025   2.310   1.684   0.022  2.9333 -1.0107 -0.9440
19178TIP3    H279026   2.318   1.815  -0.053 -1.7735  0.3017  0.5221
19179TIP3   OH279027   4.598   5.625  14.516  0.0975 -0.2058  0.3209
19179TIP3    H179028   4.639   5.698  14.564 -0.7677  0.9985 -0.7283
19179TIP3    H279029   4.505   5.647  14.513  0.2299  0.3738 -2.8467
19180TIP3   OH279030   2.881   4.414  15.124  0.3996  0.5184 -0.0010
19180TIP3    H179031   2.893   4.496  15.173 -0.2969  0.5973  0.0577
19180TIP3    H279032   2.849   4.442  15.038 -0.1773  0.2952  0.1365
19181TIP3   OH279033   2.714   6.132  14.354  1.0611 -0.2378 -0.0525
19181TIP3    H179034   2.795   6.084  14.337 -0.4724 -2.4308 -1.7669
19181TIP3    H279035   2.655   6.067  14.392  0.1036  1.3381  1.2654
19182TIP3   OH279036   4.600   3.852   3.389 -0.0641 -0.2056 -1.1252
19182TIP3    H179037   4.676   3.891   3.433 -0.0758 -2.2409  0.8518
19182TIP3    H279038   4.527   3.908   3.415  0.3230  0.1254 -0.7225
19183TIP3   OH279039   0.694   4.496   1.251 -0.4253  0.5741 -0.3353
19183TIP3    H179040   0.603   4.468   1.242 -0.9462  2.4317 -1.3790
19183TIP3    H279041   0.693   4.562   1.320 -0.0454  1.2358 -0.9408
19184TIP3   OH279042   1.389   2.872  13.981 -0.0407  0.2537 -0.5061
19184TIP3    H179043   1.469   2.904  13.939  1.0167 -1.3279  0.2169
19184TIP3    H279044   1.332   2.949  13.985  1.9524  1.7908  0.1926
19185TIP3   OH279045   0.037   6.763   2.736 -0.3624 -0.3202  0.1934
19185TIP3    H179046   0.027   6.816   2.815  0.8334  2.2105 -1.2059
19185TIP3    H279047   0.085   6.686   2.764 -0.8836  0.0003  2.1045
19186TIP3   OH279048   6.464   5.989   6.285  0.5596 -0.2661  0.3093
19186TIP3    H179049   6.422   6.034   6.358 -1.4759  0.1546 -1.0179
19186TIP3    H279050   6.530   6.051   6.253 -1.6295  1.5424 -0.9650
19187TIP3   OH279051   5.205   3.539  17.230 -0.1819  0.6357  0.5162
19187TIP3    H179052   5.238   3.624  17.259  0.4202  0.4945  0.2631
19187TIP3    H279053   5.278   3.501  17.180  0.4580 -1.0663  2.6310
19188TIP3   OH279054   4.701   1.686   1.005 -0.1256 -0.4492  0.0312
19188TIP3    H179055   4.682   1.683   1.098  0.0876 -0.0960  0.0877
19188TIP3    H279056   4.787   1.645   0.996  0.2611  0.3409  0.1047
19189TIP3   OH279057   5.487   4.240   4.824  0.1989 -0.0027  0.2702
19189TIP3    H179058   5.405   4.201   4.854  0.2244 -0.9508 -0.8086
19189TIP3    H279059   5.553   4.173   4.841  0.0604 -1.0735 -2.7104
19190TIP3   OH279060   4.671   0.605  15.672 -0.6342  0.7022 -0.3024
19190TIP3    H179061   4.742   0.599  15.608  3.0433  0.4193  3.4103
19190TIP3    H279062   4.627   0.520  15.667  1.0273 -0.1637 -0.9640
19191TIP3   OH279063   2.081   1.162  16.372  0.6232 -0.1054  0.8105
19191TIP3    H179064   2.166   1.160  16.328  0.6712  1.2633  0.8183
19191TIP3    H279065   2.099   1.133  16.461  0.7616 -1.5557  0.3376
19192TIP3   OH279066   6.097   5.134  14.386 -0.1065  0.5232  0.0742
19192TIP3    H179067   6.069   5.133  14.294  3.3782  0.1210 -1.1299
19192TIP3    H279068   6.095   5.041  14.412  0.4501  0.4513 -0.1357
19193TIP3   OH279069   2.073   1.467   5.862 -0.1418  0.0171 -0.1079
19193TIP3    H179070   1.983   1.463   5.896 -0.7510  1.0153 -1.5144
19193TIP3    H279071   2.063   1.496   5.771  1.4395 -2.2836 -1.1069
19194TIP3   OH279072   1.985   1.862   5.566 -0.0477 -0.2015  0.1791
19194TIP3    H179073   2.026   1.948   5.551 -0.7610  0.3208  1.1114
19194TIP3    H279074   1.906   1.864   5.512 -0.0820 -0.2599  0.2277
19195TIP3   OH279075   3.521   5.077   4.299 -0.7313  0.4971 -0.4571
19195TIP3    H179076   3.606   5.123   4.300  0.4832 -1.4887 -2.5447
19195TIP3    H279077   3.506   5.053   4.390  1.1332  0.6139 -0.0765
19196TIP3   OH279078   0.900   2.234  15.030  0.1002 -0.2115  0.4988
19196TIP3    H179079   0.871   2.325  15.035 -1.8910 -0.8241  2.1899
19196TIP3    H279080   0.850   2.190  15.099  1.9524 -2.3519  0.5980
19197TIP3   OH279081   2.624   1.346   5.390  0.1265  0.4979  0.2699
19197TIP3    H179082   2.712   1.333   5.357  0.7602  0.8793  1.7538
19197TIP3    H279083   2.575   1.377   5.313  0.0341 -4.0512 -1.8188
19198TIP3   OH279084   0.615   2.184  14.724  0.5607  0.1556  0.2381
19198TIP3    H179085   0.559   2.204  14.649  1.4946 -0.8489 -0.7750
19198TIP3    H279086   0.578   2.235  14.796  2.4638  5.2211 -1.8941
19199TIP3   OH279087   0.863   3.264  16.407 -0.4899 -0.3120 -0.0409
19199TIP3    H179088   0.918   3.335  16.374 -0.4544 -0.2510  0.1515
19199TIP3    H279089   0.773   3.296  16.397 -0.5599 -0.8911 -1.4986
19200TIP3   OH279090   6.029   1.630   0.154  0.2066 -0.7287  0.5834
19200TIP3    H179091   6.066   1.573   0.087 -0.3232  0.5330 -0.8542
19200TIP3    H279092   6.058   1.592   0.237  0.9563 -2.2997 -0.3465
19201TIP3   OH279093   4.150   1.595   2.546 -0.2775 -0.4244 -0.1562
19201TIP3    H179094   4.141   1.677   2.497 -0.7624 -0.2142  0.2742
19201TIP3    H279095   4.116   1.528   2.487  0.1855 -0.3302 -0.5390
19202TIP3   OH279096   2.320   0.737  15.723 -0.2687 -0.0578 -0.5279
19202TIP3    H179097   2.312   0.793  15.799  1.0669 -1.0002  0.3593
19202TIP3    H279098   2.235   0.744  15.679 -0.8621  0.9663  0.7067
19203TIP3   OH279099   2.294   3.582   0.868 -0.0485 -0.0215 -0.3050
19203TIP3    H179100   2.326   3.563   0.780 -0.3917  1.0150 -0.6584
19203TIP3    H279101   2.265   3.673   0.865 -0.6666 -0.1646  0.7063
19204TIP3   OH279102   0.467   6.175   5.379 -0.1415  1.1097  0.1203
19204TIP3    H179103   0.539   6.231   5.350  0.2774  0.5135 -0.0025
19204TIP3    H279104   0.506   6.089   5.389 -0.2119  1.2978  2.7145
19205TIP3   OH279105   1.378   5.171   2.952  0.3628 -0.1743  0.6803
19205TIP3    H179106   1.408   5.151   2.863 -2.0226 -1.8207  0.1736
19205TIP3    H279107   1.352   5.086   2.988  0.1402  0.6409  2.5239
19206TIP3   OH279108   4.241   0.218   1.610 -0.0145  0.5799 -0.3264
19206TIP3    H179109   4.240   0.235   1.515 -1.7853  2.6149 -0.0257
19206TIP3    H279110   4.331   0.191   1.628 -0.1249 -2.1725 -2.8873
19207TIP3   OH279111   0.932   3.576  14.840  0.3645 -0.5132 -0.3019
19207TIP3    H179112   1.014   3.576  14.790  1.2462 -0.3964  1.0900
19207TIP3    H279113   0.955   3.614  14.925 -1.4516  0.8364 -0.3401
19208TIP3   OH279114   4.918   3.146  14.722  0.0304 -0.8562  0.2328
19208TIP3    H179115   5.008   3.148  14.756  0.4165  0.4801 -0.7809
19208TIP3    H279116   4.928   3.134  14.627 -0.8090  0.0441  0.0090
19209TIP3   OH279117   6.749   4.485   2.841  0.3925  0.3926 -0.1033
19209TIP3    H179118   6.820   4.442   2.792 -0.3966 -0.8159 -0.2189
19209TIP3    H279119   6.740   4.433   2.920 -0.2525  0.6566 -0.0012
19210TIP3   OH279120   4.345   4.889  14.951  0.1979 -0.1569  0.9554
19210TIP3    H179121   4.332   4.809  14.900  1.0904 -0.9122  1.8729
19210TIP3    H279122   4.378   4.952  14.887 -0.3574 -0.5634  0.2501
19211TIP3   OH279123   1.824   0.839  15.750  0.0835 -0.0228 -0.1351
19211TIP3    H179124   1.804   0.747  15.771  0.8874  0.1341  1.4791
19211TIP3    H279125   1.739   0.884  15.757 -0.1269 -0.4565  0.1963
19212TIP3   OH279126   3.157   3.711  17.281 -0.0362 -0.1831 -0.2932
19212TIP3    H179127   3.188   3.633  17.327 -0.0833 -0.5577 -0.8914
19212TIP3    H279128   3.219   3.723  17.209  0.6225  0.9790  0.4288
19213TIP3   OH279129   0.298   3.475  16.169  0.1083  0.1453 -0.8014
19213TIP3    H179130   0.275   3.384  16.186  0.9945  0.1555  0.6029
19213TIP3    H279131   0.352   3.472  16.090  0.4242 -0.5948 -0.5628
19214TIP3   OH279132   4.599   4.001  15.057 -0.5564  0.1790  0.7401
19214TIP3    H179133   4.671   3.962  15.009 -0.7170  0.5394  0.2023
19214TIP3    H279134   4.523   3.948  15.033 -1.3064  2.2871 -2.0423
19215TIP3   OH279135   4.861   0.801  15.634  0.8335  0.4044 -0.0278
19215TIP3    H179136   4.837   0.767  15.548  2.4444 -2.5646  0.5765
19215TIP3    H279137   4.792   0.771  15.692  1.6264 -0.9134  0.2883
19216TIP3   OH279138   4.701   6.474   3.835 -0.0830  0.1159 -0.3015
19216TIP3    H179139   4.606   6.460   3.831 -0.5261  2.2251  1.0817
19216TIP3    H279140   4.732   6.412   3.901 -0.7719  0.4531  0.3595
19217TIP3   OH279141   2.724   0.552   4.349 -0.2492  0.0529  0.0343
19217TIP3    H179142   2.648   0.528   4.296 -0.4870  1.3844 -0.2605
19217TIP3    H279143   2.755   0.469   4.385 -1.4974 -0.5837 -0.2946
19218TIP3   OH279144   6.069   3.420  12.203  0.3792  0.1344 -0.0400
19218TIP3    H179145   6.159   3.388  12.209  0.1449 -0.3958  0.7496
19218TIP3    H279146   6.074   3.511  12.233  0.7585  0.3180 -0.6405
19219TIP3   OH279147   4.945   2.011   5.761 -0.0302  0.4126 -0.3927
19219TIP3    H179148   4.950   2.082   5.825  1.0522  1.7608 -1.8911
19219TIP3    H279149   4.851   2.003   5.742 -0.1950  1.2327  0.0137
19220TIP3   OH279150   4.269   0.995   3.544 -0.4529 -0.1016  0.0757
19220TIP3    H179151   4.231   1.026   3.462 -1.1351  1.1036  0.8279
19220TIP3    H279152   4.345   0.943   3.517 -0.5734  0.4043 -1.3103
19221TIP3   OH279153   5.482   1.840  10.734  0.3593  0.5227 -0.2584
19221TIP3    H179154   5.411   1.818  10.795  0.8616  1.3202  0.6361
19221TIP3    H279155   5.475   1.773  10.665 -2.3993  1.6248 -1.1988
19222TIP3   OH279156   5.544   3.594  11.954 -0.2687 -0.3346  0.4931
19222TIP3    H179157   5.502   3.509  11.968 -0.5182 -0.3331 -0.2158
19222TIP3    H279158   5.574   3.592  11.863 -0.3011  0.3450  0.4616
19223TIP3   OH279159   6.424   3.062   4.980 -0.6929  0.0546  0.2263
19223TIP3    H179160   6.458   3.151   4.972 -0.7782  0.1898  1.2754
19223TIP3    H279161   6.442   3.022   4.895 -0.6367  1.0644 -0.2497
19224TIP3   OH279162   5.764   3.460   5.087 -0.0061  0.2573  0.2124
19224TIP3    H179163   5.761   3.365   5.101  1.2232  0.3545  1.3442
19224TIP3    H279164   5.696   3.495   5.145 -1.8813 -0.0160 -1.6844
19225TIP3   OH279165   0.762   3.007   6.206 -0.3656  0.0855  0.6761
19225TIP3    H179166   0.835   2.982   6.148 -1.4610  1.5678 -1.4634
19225TIP3    H279167   0.690   2.950   6.179 -1.3491  1.8542 -0.6076
19226TIP3   OH279168   0.666   0.526   3.262 -0.5312  0.0501  0.5563
19226TIP3    H179169   0.592   0.579   3.231 -0.0298 -0.9102 -2.5524
19226TIP3    H279170   0.625   0.446   3.296 -1.0210  0.4031  0.8122
19227TIP3   OH279171   1.560   4.992  16.162 -0.1344 -0.2458  0.8271
19227TIP3    H179172   1.475   5.035  16.151  0.4755  0.4969 -1.3759
19227TIP3    H279173   1.585   5.012  16.253 -2.0877 -0.1221  1.3801
19228TIP3   OH279174   5.330   2.161   0.592 -0.1315 -0.6394 -0.0642
19228TIP3    H179175   5.296   2.163   0.502  2.6641  2.4925 -1.2798
19228TIP3    H279176   5.385   2.082   0.594 -0.8625 -1.1872 -0.8146
19229TIP3   OH279177   4.513   5.274  11.291 -0.2995 -0.5627 -0.1436
19229TIP3    H179178   4.512   5.348  11.231 -1.6651 -1.5650 -1.4363
19229TIP3    H279179   4.587   5.221  11.263 -1.1194 -1.1854 -1.1832
19230TIP3   OH279180   0.161   4.746   3.408  0.7750  0.4873 -0.3282
19230TIP3    H179181   0.127   4.806   3.341  2.2194  2.3627  0.5063
19230TIP3    H279182   0.178   4.664   3.361 -1.9841  0.4061 -1.3526
19231TIP3   OH279183   2.624   2.014  16.838  0.0652 -0.0760  0.1168
19231TIP3    H179184   2.562   2.011  16.764 -0.9157 -0.6279  0.9450
19231TIP3    H279185   2.633   2.107  16.857  0.6004  0.0983 -0.9133
19232TIP3   OH279186   6.077   5.817  11.944  0.0023  0.2527 -0.3811
19232TIP3    H179187   6.027   5.741  11.974 -0.0899  0.5998  0.3589
19232TIP3    H279188   6.063   5.884  12.011  1.0007  0.5504 -0.4439
19233TIP3   OH279189   0.473   3.020  14.389 -0.4052 -0.1223  0.1888
19233TIP3    H179190   0.430   3.096  14.349 -1.4663 -0.7137  0.1660
19233TIP3    H279191   0.504   3.052  14.474  0.7875  0.8099 -0.5620
19234TIP3   OH279192   2.774   3.971   1.032 -0.3816 -0.6374 -0.1476
19234TIP3    H179193   2.836   3.976   0.959 -0.1560  1.8877  0.1187
19234TIP3    H279194   2.756   4.063   1.054 -1.1930 -1.3119  2.3415
19235TIP3   OH279195   4.831   2.320   2.019  0.0226 -0.5603 -0.0490
19235TIP3    H179196   4.833   2.324   2.115 -0.7349 -2.7105  0.1155
19235TIP3    H279197   4.865   2.233   1.999 -1.1970 -0.7063 -1.6638
19236TIP3   OH279198   1.860   1.650   2.289 -0.2209  0.1563 -0.0966
19236TIP3    H179199   1.903   1.574   2.251 -1.4524 -0.3322 -0.5885
19236TIP3    H279200   1.813   1.615   2.365 -0.6159  0.4656 -0.1977
19237TIP3   OH279201   1.965   5.092  13.056  0.1582 -0.0922  0.0225
19237TIP3    H179202   1.882   5.137  13.072 -0.0866 -1.2563  2.3352
19237TIP3    H279203   2.028   5.138  13.111  1.0560  0.6105 -1.5117
19238TIP3   OH279204   4.085   2.261   2.452 -0.4045 -0.0166 -0.0127
19238TIP3    H179205   4.134   2.321   2.510  1.3048 -0.7297 -0.6523
19238TIP3    H279206   4.059   2.189   2.509  2.5107 -1.4309 -0.2868
19239TIP3   OH279207   2.678   5.603  15.470  0.2044  0.3055  0.6686
19239TIP3    H179208   2.617   5.629  15.400  0.2724  0.0042  0.5006
19239TIP3    H279209   2.661   5.510  15.483  1.6551 -0.1342 -0.3953
19240TIP3   OH279210   3.201   4.006  17.307 -0.0186 -0.6864  0.4062
19240TIP3    H179211   3.203   3.912  17.292  0.3441 -0.7533  0.8614
19240TIP3    H279212   3.180   4.043  17.221 -1.4683 -1.2356  0.5071
19241TIP3   OH279213   0.751   5.913  14.242 -0.5722  0.0107 -0.0499
19241TIP3    H179214   0.790   5.826  14.244  0.1812  0.3178 -0.8443
19241TIP3    H279215   0.810   5.965  14.188 -0.6237  1.2109  0.9977
19242TIP3   OH279216   3.458   1.744   1.584  0.4969 -0.0819  0.1198
19242TIP3    H179217   3.392   1.764   1.517  0.1702 -0.8654  0.1911
19242TIP3    H279218   3.409   1.738   1.666  1.1409  2.6709  0.7983
19243TIP3   OH279219   0.016   3.730  17.264  0.1374 -0.4472  0.2440
19243TIP3    H179220   0.063   3.696  17.188  0.6638  0.0912  0.3255
19243TIP3    H279221  -0.073   3.698  17.253  0.1763 -0.2597 -0.6785
19244TIP3   OH279222   1.630   2.530   4.999  0.4195 -0.0635  0.1066
19244TIP3    H179223   1.602   2.608   5.047  1.8147  1.0919 -0.8658
19244TIP3    H279224   1.706   2.498   5.048 -0.4072 -1.0946  0.7463
19245TIP3   OH279225   0.583   5.019   4.977  0.5302 -0.1724 -0.0222
19245TIP3    H179226   0.658   5.013   5.036  0.0961 -0.4242  0.5100
19245TIP3    H279227   0.607   4.962   4.903 -0.1117 -2.1852  1.2411
19246TIP3   OH279228   6.205   2.681   4.349  0.7353  0.8980  0.1040
19246TIP3    H179229   6.143   2.742   4.309 -1.7142 -1.0862  0.5759
19246TIP3    H279230   6.288   2.699   4.306 -0.4799  2.7073 -1.6734
19247TIP3   OH279231   6.721   0.496   0.724  0.4535  0.2171  0.4363
19247TIP3    H179232   6.680   0.415   0.754  1.5644 -1.5826 -2.4623
19247TIP3    H279233   6.692   0.562   0.786 -3.6036 -1.6241  0.8033
19248TIP3   OH279234   0.297   2.731  13.324  0.3272  0.0212  0.2784
19248TIP3    H179235   0.226   2.705  13.264  0.6262 -1.1646  0.4017
19248TIP3    H279236   0.345   2.799  13.276 -0.0904 -0.1339 -0.3802
19249TIP3   OH279237   1.812   4.090  16.870  0.2389  0.9155  0.7983
19249TIP3    H179238   1.879   4.048  16.924 -0.0668 -0.3350  0.2208
19249TIP3    H279239   1.730   4.053  16.900  0.0337  0.4809 -0.2719
19250TIP3   OH279240   2.696   0.371  10.505 -0.1363 -0.2241  0.5459
19250TIP3    H179241   2.777   0.324  10.481 -1.2819 -1.8397 -0.3271
19250TIP3    H279242   2.698   0.450  10.451 -0.2116 -1.3555 -1.1930
19251TIP3   OH279243   5.876   0.098  17.092  0.5573 -0.3271  0.1466
19251TIP3    H179244   5.848   0.129  17.006 -0.9837 -1.7755  0.0911
19251TIP3    H279245   5.810   0.132  17.152 -0.7128 -2.6934  0.1864
19252TIP3   OH279246   5.877   5.939   2.690 -0.1635  0.3736 -0.0484
19252TIP3    H179247   5.786   5.970   2.698  0.1399  1.7449 -1.3514
19252TIP3    H279248   5.876   5.852   2.729 -1.7898  0.8047  0.9850
19253TIP3   OH279249   4.579   3.549   5.668 -0.5982 -0.0013  0.2231
19253TIP3    H179250   4.564   3.477   5.605 -2.8477  0.4928  0.0797
19253TIP3    H279251   4.515   3.533   5.738 -1.5231  2.0732 -0.0559
19254TIP3   OH279252   6.546   3.198   0.221 -0.2882 -0.6063 -0.4230
19254TIP3    H179253   6.637   3.173   0.240 -0.1367  0.5901  0.5870
19254TIP3    H279254   6.553   3.270   0.158 -0.5509 -0.6391 -0.4921
19255TIP3   OH279255   5.344   0.184  13.845 -0.5798 -0.0473 -0.0404
19255TIP3    H179256   5.375   0.244  13.913 -2.6297 -1.1559  2.0202
19255TIP3    H279257   5.369   0.097  13.877 -0.7595 -0.5335 -1.1974
19256TIP3   OH279258   2.496   6.661   0.007 -0.3590  0.2121  0.0066
19256TIP3    H179259   2.455   6.662  -0.079 -0.1435 -1.6465 -0.1461
19256TIP3    H279260   2.479   6.573   0.041  2.0118 -0.0689  0.6484
19257TIP3   OH279261   5.477   5.706  15.090 -0.3746 -0.3685  0.0242
19257TIP3    H179262   5.402   5.765  15.099 -0.9790 -1.0975 -0.1200
19257TIP3    H279263   5.493   5.701  14.996 -0.4795 -0.6284  0.0205
19258TIP3   OH279264   5.571   3.363  15.357 -0.1501 -0.3485 -0.2840
19258TIP3    H179265   5.602   3.353  15.447 -0.3242 -4.2248 -0.5024
19258TIP3    H279266   5.646   3.401  15.310  0.5898 -0.0042  1.1223
19259TIP3   OH279267   6.236   5.847  11.418 -0.0400  0.3556 -0.0973
19259TIP3    H179268   6.302   5.778  11.409  0.0643  0.4397  0.0174
19259TIP3    H279269   6.254   5.906  11.345  0.1015  0.4521  0.0146
19260TIP3   OH279270   5.790   0.565  16.268 -0.1987  0.6287  0.4555
19260TIP3    H179271   5.751   0.646  16.302 -1.0194 -0.0487  1.1672
19260TIP3    H279272   5.873   0.558  16.314 -0.2764  0.8939  0.6384
19261TIP3   OH279273   5.987   6.133   1.233  0.7834 -0.6425  0.7328
19261TIP3    H179274   5.927   6.206   1.214 -0.0429 -1.3893  0.4322
19261TIP3    H279275   6.051   6.136   1.162 -0.1468 -1.1442 -0.1508
19262TIP3   OH279276   0.191   5.287   5.588  0.8862 -0.3680  0.8513
19262TIP3    H179277   0.141   5.275   5.508  0.9683 -1.0239  0.8908
19262TIP3    H279278   0.230   5.374   5.579 -0.1998  0.1213  0.7963
19263TIP3   OH279279   4.586   2.488  12.959 -0.0465  0.5442 -0.1368
19263TIP3    H179280   4.622   2.574  12.979 -0.6258  0.6183  0.6487
19263TIP3    H279281   4.498   2.506  12.926 -0.7389  0.2081  1.4332
19264TIP3   OH279282   1.777   4.969   2.018  0.3918  0.0767 -0.1628
19264TIP3    H179283   1.703   4.928   2.062  1.2970 -0.6928  0.6959
19264TIP3    H279284   1.826   5.012   2.088  0.3401  1.2740 -0.8276
19265TIP3   OH279285   4.049   3.564   2.507  0.4168 -0.0359 -0.0586
19265TIP3    H179286   4.020   3.534   2.593  1.0083  1.7586  0.8152
19265TIP3    H279287   4.011   3.652   2.498  0.5171 -0.1192 -1.5636
19266TIP3   OH279288   5.823   0.194   0.918  0.8973 -0.3696  0.2292
19266TIP3    H179289   5.803   0.280   0.881 -1.7840  0.0064  2.2574
19266TIP3    H279290   5.780   0.133   0.859 -2.1538  0.1407  1.7428
19267TIP3   OH279291   3.732   0.767   4.877 -0.0106  0.1220  0.8855
19267TIP3    H179292   3.731   0.825   4.953  1.1148  1.7498 -0.2702
19267TIP3    H279293   3.744   0.826   4.802 -2.1692 -1.2828 -0.7027
19268TIP3   OH279294   0.859   0.920   6.239 -0.0304  0.2377  0.5236
19268TIP3    H179295   0.830   0.870   6.315 -1.6602  1.6434  0.8876
19268TIP3    H279296   0.939   0.876   6.210 -1.1355 -2.2611  1.0607
19269TIP3   OH279297   3.218   1.751   5.103  0.0127  0.3979  0.1621
19269TIP3    H179298   3.214   1.656   5.091  0.2472  0.4470 -0.3459
19269TIP3    H279299   3.223   1.764   5.197  0.9944 -0.1338  0.1895
19270TIP3   OH279300   0.751   3.311   1.449 -0.4106  0.7461 -0.0398
19270TIP3    H179301   0.830   3.362   1.469 -0.4783  1.0468 -0.5307
19270TIP3    H279302   0.684   3.347   1.507 -0.0340  0.0600  0.8428
19271TIP3   OH279303   4.453   5.282   0.641 -0.2844  0.4330  0.5249
19271TIP3    H179304   4.511   5.206   0.641 -1.0360 -0.1565  1.1060
19271TIP3    H279305   4.489   5.339   0.573  0.0571 -0.6222 -0.2225
19272TIP3   OH279306   6.167   1.762   4.401  0.0256  0.2178 -0.2144
19272TIP3    H179307   6.144   1.683   4.352  1.4730 -1.3019  1.3908
19272TIP3    H279308   6.152   1.738   4.492  1.7354  1.3187  0.4066
19273TIP3   OH279309   2.074   4.443  15.709 -0.0286  0.2123  0.1340
19273TIP3    H179310   2.116   4.529  15.705 -1.4294  0.9024 -0.7193
19273TIP3    H279311   2.063   4.425  15.802  3.3827 -0.6800  0.4809
19274TIP3   OH279312   6.717   4.079   0.527 -0.1262  0.5496 -0.4446
19274TIP3    H179313   6.626   4.080   0.497 -0.7594  2.9851  1.3056
19274TIP3    H279314   6.711   4.063   0.621  1.2977  0.3684 -0.3644
19275TIP3   OH279315   4.885   4.004  16.548  0.2138  0.3425 -0.3575
19275TIP3    H179316   4.891   4.061  16.624  1.9493  0.1002 -0.2778
19275TIP3    H279317   4.926   4.053  16.477 -2.0706  0.8846 -1.3892
19276TIP3   OH279318   2.424   5.299  14.996  0.3657 -0.3779 -0.0325
19276TIP3    H179319   2.449   5.319  15.086 -0.3607 -1.8747  0.5186
19276TIP3    H279320   2.332   5.323  14.991  0.2285 -0.9348 -0.1815
19277TIP3   OH279321   1.491   1.349   3.316 -0.0828 -0.2942 -0.3024
19277TIP3    H179322   1.438   1.401   3.257 -0.9894  0.1062  0.8241
19277TIP3    H279323   1.486   1.395   3.400 -2.0709 -2.8628  1.1313
19278TIP3   OH279324   4.930   1.071  10.777 -0.1654  0.2997  0.1898
19278TIP3    H179325   4.871   1.147  10.773 -1.1406 -0.4427  0.3098
19278TIP3    H279326   4.901   1.022  10.853  0.5020 -0.1713  0.1481
19279TIP3   OH279327   2.105   4.232  10.876 -0.3942 -0.9137  0.2077
19279TIP3    H179328   2.138   4.227  10.786  1.5865 -1.8866  0.9161
19279TIP3    H279329   2.067   4.319  10.883 -0.8506 -0.9232 -1.6472
19280TIP3   OH279330   3.607   0.245   2.867 -0.9537  0.1613  0.4487
19280TIP3    H179331   3.550   0.262   2.943 -0.9285 -0.0266  0.5099
19280TIP3    H279332   3.680   0.305   2.879 -0.7219 -0.1894  0.8202
19281TIP3   OH279333   6.473   4.295  14.653  0.1236  0.2114  0.6366
19281TIP3    H179334   6.546   4.257  14.702  0.2513 -0.3756  0.0082
19281TIP3    H279335   6.400   4.294  14.714  0.6171  0.7463  1.2533
19282TIP3   OH279336   0.423   4.109  14.062  0.4621 -0.1767 -0.5195
19282TIP3    H179337   0.517   4.095  14.071  0.1551 -1.1818  1.7041
19282TIP3    H279338   0.412   4.204  14.067  1.1615 -0.1754  1.8805
19283TIP3   OH279339   3.266   4.402  14.205  1.0882 -0.0884 -0.7209
19283TIP3    H179340   3.252   4.484  14.253  0.1213 -0.3832 -0.4758
19283TIP3    H279341   3.179   4.380  14.170  1.7217  0.0604 -2.5179
19284TIP3   OH279342   6.588   2.528   0.278 -0.7801  0.4648  0.1423
19284TIP3    H179343   6.655   2.596   0.272 -0.7956  0.4019 -0.9362
19284TIP3    H279344   6.638   2.446   0.273 -0.8465  0.4082  0.4182
19285TIP3   OH279345   6.380   3.456  14.904  0.0469 -0.0035 -0.1437
19285TIP3    H179346   6.412   3.476  14.816  2.1100  0.6455  0.7029
19285TIP3    H279347   6.307   3.395  14.890  1.5570 -1.4543 -2.2024
19286TIP3   OH279348   6.014   3.641   3.861 -1.0341 -0.2019 -0.2396
19286TIP3    H179349   5.932   3.690   3.849 -1.0684 -0.0486  0.5323
19286TIP3    H279350   6.003   3.599   3.947  0.3841  1.2131  0.7013
19287TIP3   OH279351   1.921   2.186   4.479 -0.0563 -0.2542 -0.3731
19287TIP3    H179352   1.983   2.179   4.407 -0.3920 -0.8009 -0.6139
19287TIP3    H279353   1.836   2.168   4.440 -0.1795 -1.1174  0.2607
19288TIP3   OH279354   2.508   1.437   0.208  0.1392 -0.3232 -0.0467
19288TIP3    H179355   2.556   1.515   0.180  1.0416 -0.2171  1.7088
19288TIP3    H279356   2.575   1.368   0.215 -0.6041 -1.2297 -1.3156
19289TIP3   OH279357   2.088   0.940   1.973 -0.3437 -0.2197  0.4867
19289TIP3    H179358   2.170   0.891   1.977  0.2272  0.5190 -1.1896
19289TIP3    H279359   2.101   1.015   2.032  0.1591 -0.1610  0.3065
19290TIP3   OH279360   3.685   5.974  14.276 -0.7909  0.0215 -0.3730
19290TIP3    H179361   3.602   5.975  14.228 -0.2080 -1.2265 -1.4756
19290TIP3    H279362   3.751   5.996  14.210 -0.0993 -0.4525  0.1556
19291TIP3   OH279363   0.552   0.044  15.854 -0.2999 -0.0007 -0.3206
19291TIP3    H179364   0.561  -0.050  15.840  0.2736 -0.2826  1.6873
19291TIP3    H279365   0.630   0.082  15.814 -0.4660 -0.3564 -1.0110
19292TIP3   OH279366   5.492   6.177   6.663  0.4917 -0.0125 -0.4439
19292TIP3    H179367   5.459   6.172   6.752  2.2726 -0.6138  0.2284
19292TIP3    H279368   5.516   6.087   6.641 -0.6038 -0.0059 -1.8362
19293TIP3   OH279369   1.715   0.597  14.720 -0.5114  0.6369  0.2783
19293TIP3    H179370   1.653   0.541  14.767 -2.0975  3.5565  2.0153
19293TIP3    H279371   1.800   0.577  14.758 -0.8678 -1.1731  0.1886
19294TIP3   OH279372   1.548   0.672   6.783  0.3374 -0.3390  0.6054
19294TIP3    H179373   1.548   0.767   6.770  1.1388 -0.5231 -1.0104
19294TIP3    H279374   1.486   0.658   6.854 -3.5993  1.0280 -2.1714
19295TIP3   OH279375   2.415   0.123   6.438  0.2998  0.0721 -1.0457
19295TIP3    H179376   2.391   0.034   6.464 -0.5839 -0.0167 -2.1135
19295TIP3    H279377   2.510   0.127   6.451 -0.0636  0.2604  2.8044
19296TIP3   OH279378   3.756   5.052   2.971  0.1144  0.6304 -0.2959
19296TIP3    H179379   3.831   5.037   2.913 -1.6475 -1.6560 -2.2036
19296TIP3    H279380   3.746   5.147   2.973  2.5376  0.9575 -0.6175
19297TIP3   OH279381   0.182   4.015  12.411  0.3432 -0.2233 -0.9880
19297TIP3    H179382   0.167   3.952  12.341  0.8782 -0.1208 -1.2043
19297TIP3    H279383   0.213   3.962  12.484  2.8676 -0.0604 -1.8144
19298TIP3   OH279384   1.947   1.239   5.738  0.0275  0.6945  0.1877
19298TIP3    H179385   2.036   1.255   5.770 -1.0806  3.8719  2.2180
19298TIP3    H279386   1.894   1.238   5.818 -1.9312  0.2751 -1.0668
19299TIP3   OH279387   2.732   6.571  14.161 -0.1257 -0.4102  0.2496
19299TIP3    H179388   2.741   6.476  14.170 -0.6175 -0.5635 -0.7199
19299TIP3    H279389   2.643   6.590  14.190 -0.1635 -0.2998  0.0627
19300TIP3   OH279390   3.947   5.945  16.387 -0.1522  0.6908 -0.2883
19300TIP3    H179391   3.907   6.023  16.426 -0.4406  1.0431 -1.2551
19300TIP3    H279392   3.894   5.928  16.309  0.0485 -0.3516 -0.2090
19301TIP3   OH279393   3.521   4.712  15.701  0.2767 -0.2923 -0.4112
19301TIP3    H179394   3.492   4.801  15.718 -1.3472 -0.7140 -0.8432
19301TIP3    H279395   3.528   4.706  15.606  1.1187 -0.4101 -0.3478
19302TIP3   OH279396   3.134   1.292   4.781  0.1280 -0.4065 -0.0568
19302TIP3    H179397   3.152   1.381   4.752 -1.6294  0.0337  0.0934
19302TIP3    H279398   3.173   1.236   4.713 -0.8968  0.5382 -1.4912
19303TIP3   OH279399   6.422   6.563   0.100  0.2773 -0.2301  0.0439
19303TIP3    H179400   6.393   6.631   0.041  0.3674 -1.3916 -1.3969
19303TIP3    H279401   6.495   6.602   0.149 -0.1345  0.9100 -0.2383
19304TIP3   OH279402   4.838   6.679  14.024  0.2951  0.2143  0.7174
19304TIP3    H179403   4.837   6.620  13.948 -0.4558 -0.9921  1.6311
19304TIP3    H279404   4.831   6.766  13.986 -1.7800 -0.4340 -0.5537
19305TIP3   OH279405   5.921   0.946  16.559  0.0405  0.4037 -0.1077
19305TIP3    H179406   5.860   1.020  16.554  0.9593  1.4347  2.3616
19305TIP3    H279407   5.969   0.949  16.477 -0.6686  1.9046 -0.5030
19306TIP3   OH279408   1.796   4.989   1.069  0.1462 -0.0603  0.1809
19306TIP3    H179409   1.821   4.973   0.978 -0.3739 -0.9192  0.1829
19306TIP3    H279410   1.710   4.950   1.078  1.0090 -1.7952  1.5715
19307TIP3   OH279411   6.535   4.117  11.814  0.0446 -0.8624  0.4106
19307TIP3    H179412   6.585   4.041  11.783  1.4911 -1.3031  3.4645
19307TIP3    H279413   6.529   4.105  11.909 -2.2807  1.3835  0.6622
19308TIP3   OH279414   1.280   5.391   3.639 -0.3418 -0.3843  0.5753
19308TIP3    H179415   1.345   5.327   3.669  1.5733  0.9552 -0.4954
19308TIP3    H279416   1.197   5.357   3.671  0.6855 -2.9590  0.7543
19309TIP3   OH279417   0.342   4.172   2.941 -0.0122 -0.2333  0.2223
19309TIP3    H179418   0.409   4.125   2.892  0.4152  1.7384 -1.2299
19309TIP3    H279419   0.259   4.141   2.906  0.2566 -0.1008 -0.5402
19310TIP3   OH279420   6.542   0.727   1.366 -0.0746  0.0975  0.2373
19310TIP3    H179421   6.601   0.712   1.440  0.0673 -1.8986 -0.2307
19310TIP3    H279422   6.600   0.723   1.289 -0.6604 -0.9437 -0.1632
19311TIP3   OH279423   2.283   1.341  15.880  0.5635 -0.9941  0.4505
19311TIP3    H179424   2.338   1.376  15.810  1.9622 -0.2397  1.8503
19311TIP3    H279425   2.272   1.249  15.859  2.7697 -1.2714  0.3366
19312TIP3   OH279426   4.306   2.581  15.436 -0.1465 -0.5690 -0.2584
19312TIP3    H179427   4.283   2.559  15.527 -3.4716 -0.4252 -0.9470
19312TIP3    H279428   4.340   2.500  15.400  0.1730 -0.9336  0.8054
19313TIP3   OH279429   4.478   0.630   1.601  0.2589 -0.2572 -0.3676
19313TIP3    H179430   4.505   0.616   1.511  0.1126 -0.6094 -0.3595
19313TIP3    H279431   4.558   0.650   1.648  0.2004  1.0123 -0.7785
19314TIP3   OH279432   3.640   0.021   6.428  0.1945 -0.1526  0.0394
19314TIP3    H179433   3.596  -0.035   6.493 -0.9995 -1.1544 -1.5484
19314TIP3    H279434   3.733   0.012   6.448 -0.1345 -0.4781  1.5606
19315TIP3   OH279435   3.370   5.014   5.519  0.6176  0.1736 -0.2710
19315TIP3    H179436   3.456   5.052   5.501  0.4045  1.5451  1.2735
19315TIP3    H279437   3.363   5.018   5.615 -1.8045  1.6429 -0.4348
19316TIP3   OH279438   0.344   0.923   5.884 -0.3458  0.1833  0.0388
19316TIP3    H179439   0.257   0.921   5.845 -1.1412 -2.5258  1.6677
19316TIP3    H279440   0.336   0.983   5.958 -0.9587 -0.3526  0.4136
19317TIP3   OH279441   5.675   2.668  12.084  0.3242  0.2003 -0.4366
19317TIP3    H179442   5.689   2.677  11.990 -2.5481  0.7434 -0.8859
19317TIP3    H279443   5.680   2.573  12.100  0.7449  0.0992 -1.1331
19318TIP3   OH279444   4.619   4.831   1.877 -0.1891 -0.0249  0.3521
19318TIP3    H179445   4.536   4.790   1.904 -0.1353  0.3637  1.1369
19318TIP3    H279446   4.678   4.757   1.863 -1.3313 -0.4827 -2.6952
19319TIP3   OH279447   4.698   6.701   6.020  0.1789 -0.2558  0.0986
19319TIP3    H179448   4.609   6.702   6.056 -0.2574  1.0809 -0.9300
19319TIP3    H279449   4.752   6.742   6.087 -0.3033  0.5484  0.0046
19320TIP3   OH279450   5.261   0.735  14.434  0.1553 -0.1450  0.0180
19320TIP3    H179451   5.188   0.673  14.436  0.2142 -0.2064  0.3120
19320TIP3    H279452   5.229   0.810  14.484  1.1030 -1.0768  2.1492
19321TIP3   OH279453   0.010   3.397   0.441  0.2572 -0.1241 -0.0382
19321TIP3    H179454   0.043   3.412   0.352  0.6678 -1.1926 -0.0849
19321TIP3    H279455  -0.082   3.374   0.428 -0.0837  1.1507 -0.0483
19322TIP3   OH279456   1.989   2.013   4.688  0.0101  0.1552 -0.1077
19322TIP3    H179457   1.949   2.068   4.620  0.7057  0.7490 -0.0548
19322TIP3    H279458   2.056   1.963   4.642 -1.0525 -1.1484 -0.2747
19323TIP3   OH279459   5.704   0.575   1.909 -0.5933 -0.0896  0.3118
19323TIP3    H179460   5.640   0.546   1.845 -0.3134 -0.4047  0.1739
19323TIP3    H279461   5.761   0.499   1.922 -2.3455 -1.1152  3.1132
19324TIP3   OH279462   3.263   2.898   3.778  0.8538  0.3411  0.1346
19324TIP3    H179463   3.287   2.817   3.823  0.2136 -0.5424 -1.0746
19324TIP3    H279464   3.240   2.871   3.690 -0.4377  1.7036  0.0171
19325TIP3   OH279465   4.309   3.802   2.065  0.0663  0.0657 -0.3238
19325TIP3    H179466   4.274   3.805   2.154  0.6213  0.2440 -0.1068
19325TIP3    H279467   4.232   3.805   2.009 -0.2866 -0.0212  0.1526
19326TIP3   OH279468   6.231   0.114   1.926  0.4061 -0.1661 -0.2503
19326TIP3    H179469   6.237   0.157   2.012 -0.0817 -0.8151  0.1144
19326TIP3    H279470   6.138   0.111   1.907  0.4257 -1.1324 -0.2339
19327TIP3   OH279471   0.212   1.120  14.776  0.5281 -0.2475 -0.0561
19327TIP3    H179472   0.164   1.126  14.694  2.1299  1.3905 -0.9398
19327TIP3    H279473   0.283   1.058  14.758  1.2167  0.5413 -0.1117
19328TIP3   OH279474   3.584   6.588   2.660  0.4798  0.0865 -0.2061
19328TIP3    H179475   3.661   6.532   2.652  0.5586 -0.6334  3.5809
19328TIP3    H279476   3.616   6.668   2.701 -0.2003  1.6475 -2.5140
19329TIP3   OH279477   5.918   4.615  16.976 -0.3539  0.7363  0.3796
19329TIP3    H179478   5.893   4.586  17.063 -0.2841  0.0142  0.1652
19329TIP3    H279479   5.849   4.582  16.918  0.0374  0.4722  0.0538
19330TIP3   OH279480   2.649   0.192  16.453  0.8887 -0.4778  0.4954
19330TIP3    H179481   2.558   0.223  16.456  0.2420 -1.7368 -2.2840
19330TIP3    H279482   2.643   0.099  16.474  1.6137 -0.4508  0.8236
19331TIP3   OH279483   5.798   1.446  13.965  0.1766  0.5541  0.6947
19331TIP3    H179484   5.745   1.377  14.004  1.3332  0.0592  1.4248
19331TIP3    H279485   5.737   1.519  13.953 -1.3787 -0.9410 -1.2342
19332TIP3   OH279486   0.449   5.815  15.570  0.4027 -0.0584  0.3691
19332TIP3    H179487   0.367   5.844  15.530  0.2711  0.7941  1.2440
19332TIP3    H279488   0.480   5.890  15.620  0.0783 -1.3866  2.6737
19333TIP3   OH279489   6.585   1.203  13.407 -0.6447  0.5488  0.2124
19333TIP3    H179490   6.528   1.219  13.331 -2.4563  0.4539  1.4904
19333TIP3    H279491   6.561   1.272  13.469 -0.2131 -0.2342  1.2648
19334TIP3   OH279492   2.944   1.532   4.189 -0.2271  0.4445 -0.7330
19334TIP3    H179493   2.853   1.541   4.218  0.7249  2.2828  2.1493
19334TIP3    H279494   2.996   1.565   4.262  2.8618 -1.5495 -1.8076
19335TIP3   OH279495   6.440   0.721  11.792 -0.1344  0.5137  0.1071
19335TIP3    H179496   6.511   0.706  11.730 -1.7352 -4.0643 -0.9672
19335TIP3    H279497   6.364   0.743  11.738 -1.0455 -1.4323  0.4913
19336TIP3   OH279498   0.921   6.711  13.012  0.6122  0.6278 -0.4756
19336TIP3    H179499   0.987   6.652  13.047  0.4213  0.1386 -0.9421
19336TIP3    H279500   0.882   6.664  12.939  0.1529  1.1513 -0.5750
19337TIP3   OH279501   0.547   2.714   3.415 -0.3944  0.2256  0.5753
19337TIP3    H179502   0.621   2.728   3.474  0.2518  0.5897 -0.2913
19337TIP3    H279503   0.489   2.654   3.462  0.8129 -0.6738  0.9712
19338TIP3   OH279504   0.017   4.629   3.669 -0.4162  0.0206  0.2948
19338TIP3    H179505   0.041   4.702   3.611 -0.3037  2.1477  2.8006
19338TIP3    H279506   0.100   4.584   3.686 -0.6050 -1.2762 -1.8900
19339TIP3   OH279507   6.233   5.663  16.553  0.5778 -0.2183 -0.0591
19339TIP3    H179508   6.318   5.679  16.593  0.0773 -0.6149  1.2194
19339TIP3    H279509   6.175   5.728  16.592  0.5607  1.0478 -2.0263
19340TIP3   OH279510   5.305   3.139   4.239  0.0544 -0.0718  0.2429
19340TIP3    H179511   5.339   3.212   4.187  0.9498 -1.6917 -1.5659
19340TIP3    H279512   5.346   3.062   4.201 -2.6995 -1.7772  0.4983
19341TIP3   OH279513   4.872   2.007  11.486 -0.2920 -0.0815 -0.0849
19341TIP3    H179514   4.851   2.038  11.574 -0.1483  0.7005 -0.3160
19341TIP3    H279515   4.890   1.914  11.497 -0.0441  0.0554  0.7530
19342TIP3   OH279516   5.563   4.753   0.197  0.1969 -0.2549 -0.3429
19342TIP3    H179517   5.598   4.750   0.109  0.9859 -1.3919 -0.0051
19342TIP3    H279518   5.487   4.695   0.195 -0.1886  0.2368 -0.4232
19343TIP3   OH279519   4.239   6.143  15.751  0.5113 -0.2716 -0.4737
19343TIP3    H179520   4.329   6.174  15.752 -0.1921  1.9675 -0.6396
19343TIP3    H279521   4.187   6.221  15.772 -1.3382 -1.6902  0.4744
19344TIP3   OH279522   2.128   0.504   5.764  0.6134 -0.2049 -0.6257
19344TIP3    H179523   2.145   0.594   5.736  3.2978 -0.3192  0.3033
19344TIP3    H279524   2.171   0.497   5.849 -1.6428 -1.7256  0.4811
19345TIP3   OH279525   2.305   0.829   0.191 -0.2804  0.2069 -0.3975
19345TIP3    H179526   2.293   0.748   0.240 -0.8300 -0.9710 -2.3402
19345TIP3    H279527   2.389   0.819   0.146  1.3408  2.2362  1.9289
19346TIP3   OH279528   1.935   3.854  16.544 -0.8147  0.6296 -0.6902
19346TIP3    H179529   1.968   3.856  16.634 -1.1312 -1.0349 -0.5114
19346TIP3    H279530   1.970   3.934  16.505 -0.1454  1.0733  0.7231
19347TIP3   OH279531   6.374   0.082   1.487 -0.2419 -0.2594 -0.5790
19347TIP3    H179532   6.438   0.135   1.439  0.6889  0.3897  1.3125
19347TIP3    H279533   6.295   0.136   1.489  0.4321  0.7195  0.5859
19348TIP3   OH279534   6.014   1.771  14.228 -0.1182 -0.2782 -0.3706
19348TIP3    H179535   6.019   1.695  14.170  0.6387  0.9962 -2.0622
19348TIP3    H279536   6.055   1.741  14.310 -0.3744 -1.8441 -0.7714
19349TIP3   OH279537   5.337   0.897  11.846 -0.2199  0.2230 -0.3419
19349TIP3    H179538   5.315   0.970  11.902 -1.8319 -0.1765 -0.4249
19349TIP3    H279539   5.284   0.824  11.878  1.0502 -0.8230 -0.5101
19350TIP3   OH279540   2.350   6.452  13.172  0.2931 -0.0619 -0.6148
19350TIP3    H179541   2.400   6.370  13.171 -0.5894 -0.6631  1.0116
19350TIP3    H279542   2.409   6.515  13.212  0.1658 -0.4846  0.2524
19351TIP3   OH279543   4.995   5.060   4.430  0.1792  0.4499 -0.2759
19351TIP3    H179544   4.999   5.153   4.405 -0.0294  0.0560 -1.8584
19351TIP3    H279545   4.914   5.053   4.480 -0.0176  1.0489 -0.4956
19352TIP3   OH279546   2.305   6.473   1.475  0.5172 -0.4070  0.4358
19352TIP3    H179547   2.387   6.521   1.467  0.6627 -0.7137  0.0802
19352TIP3    H279548   2.297   6.457   1.569 -0.2883  1.5980  0.7684
19353TIP3   OH279549   0.707   4.721   3.289  0.0238  0.1306 -0.2765
19353TIP3    H179550   0.644   4.787   3.318 -0.4840 -1.0252  1.4229
19353TIP3    H279551   0.791   4.767   3.287 -0.3951  0.9572  0.4046
19354TIP3   OH279552   4.678   1.518  12.093  0.4512 -0.8190  0.1552
19354TIP3    H179553   4.641   1.554  12.173 -0.8899 -1.2506 -0.2417
19354TIP3    H279554   4.617   1.448  12.068  0.3973 -0.1694 -1.6611
19355TIP3   OH279555   4.942   0.608   0.557  0.1761 -0.2964  0.1997
19355TIP3    H179556   4.871   0.567   0.508 -0.6685  1.5822 -0.2201
19355TIP3    H279557   4.898   0.657   0.626  1.0032  1.4076 -0.4394
19356TIP3   OH279558   5.397   0.784   1.451  0.4570 -0.5759  0.0023
19356TIP3    H179559   5.474   0.822   1.408  0.1055  0.9710  0.6619
19356TIP3    H279560   5.426   0.698   1.480  2.7139  0.7664  2.1835
19357TIP3   OH279561   0.003   3.444   2.125  0.5221 -0.0268 -0.3168
19357TIP3    H179562  -0.076   3.411   2.081  0.1456  1.5923 -0.9407
19357TIP3    H279563   0.067   3.374   2.115 -1.1830 -1.9610  1.3701
19358TIP3   OH279564   1.539   1.223   5.667  0.0764 -0.5410  0.4282
19358TIP3    H179565   1.600   1.232   5.593  0.4693 -0.5142  0.7532
19358TIP3    H279566   1.565   1.142   5.710 -1.3038 -1.5222 -0.5051
19359TIP3   OH279567   2.484   5.815   1.321 -0.4308 -0.2478 -0.1129
19359TIP3    H179568   2.575   5.812   1.350 -0.3321 -3.5974 -0.4182
19359TIP3    H279569   2.446   5.888   1.370  2.1263  0.5843  0.8121
19360TIP3   OH279570   1.972   1.066  14.917  0.1277 -0.1118  0.3892
19360TIP3    H179571   1.925   1.046  14.998 -1.4032  3.4237  0.5684
19360TIP3    H279572   2.064   1.068  14.942 -0.0395 -1.8671  1.3125
19361TIP3   OH279573   6.006   2.333  14.547 -0.1077 -0.4165 -0.1875
19361TIP3    H179574   5.967   2.419  14.563  2.1680  0.5097  0.7566
19361TIP3    H279575   6.097   2.352  14.524  0.1803 -2.5414 -1.0105
19362TIP3   OH279576   5.927   1.312  11.827  0.1322 -0.3543 -0.2509
19362TIP3    H179577   5.886   1.229  11.852 -0.9526  0.4127  0.5982
19362TIP3    H279578   5.943   1.356  11.910  0.1108  0.5567 -0.7256
19363TIP3   OH279579   4.164   4.636  12.624  0.5689  0.3119 -0.2164
19363TIP3    H179580   4.173   4.571  12.554  0.9325  0.4048 -0.2583
19363TIP3    H279581   4.079   4.676  12.608 -0.9103 -1.9638  1.3581
19364TIP3   OH279582   5.745   1.628   3.390 -0.1182 -0.4710  0.5178
19364TIP3    H179583   5.752   1.533   3.389  0.0648 -0.4580 -0.6337
19364TIP3    H279584   5.765   1.653   3.480  1.7995 -1.3800  0.3911
19365TIP3   OH279585   5.315   3.164   5.846  0.1631  0.0612 -0.2241
19365TIP3    H179586   5.294   3.174   5.938  0.3161  0.9292 -0.2745
19365TIP3    H279587   5.237   3.123   5.808  0.2067 -0.5591  0.3259
19366TIP3   OH279588   1.412   5.576  13.905 -0.0595 -0.0289 -0.9789
19366TIP3    H179589   1.350   5.623  13.849  0.4044 -0.3125 -1.7413
19366TIP3    H279590   1.459   5.518  13.845 -1.7713 -2.7600  0.1181
19367TIP3   OH279591   6.459   2.480   3.689 -0.0603  0.2985 -0.1083
19367TIP3    H179592   6.371   2.446   3.701 -0.3080  1.7505  3.3174
19367TIP3    H279593   6.456   2.526   3.605 -3.2001  2.0140  0.7999
19368TIP3   OH279594   0.003   2.531  17.191  0.0664 -0.0822 -0.2456
19368TIP3    H179595   0.088   2.515  17.231 -0.4950  1.2711  1.6043
19368TIP3    H279596  -0.047   2.578  17.258 -2.6444 -2.0258 -0.7134
19369TIP3   OH279597   0.047   4.961   1.559 -0.4912 -0.1947 -0.1845
19369TIP3    H179598   0.087   4.999   1.480 -0.6934  2.7814  1.0167
19369TIP3    H279599   0.121   4.939   1.615 -0.3886  0.6186  0.0170
19370TIP3   OH279600   0.215   0.385  11.562 -0.9049  0.0907 -0.2560
19370TIP3    H179601   0.228   0.424  11.649 -3.9374  0.1052  0.3015
19370TIP3    H279602   0.285   0.320  11.554  0.4443  1.2268  1.4601
19371TIP3   OH279603   3.649   3.923   4.357 -0.1704 -0.5059 -0.1523
19371TIP3    H179604   3.561   3.900   4.327 -0.0126  0.4778 -1.4653
19371TIP3    H279605   3.706   3.862   4.309 -0.1456 -1.6767  1.2858
19372TIP3   OH279606   1.204   4.471   4.058 -0.2603 -0.0756 -0.9186
19372TIP3    H179607   1.155   4.434   4.132 -0.3114  2.1087  0.2131
19372TIP3    H279608   1.274   4.521   4.099  0.3930  0.2507 -2.4022
19373TIP3   OH279609   5.648   3.045  13.683  0.4004  0.4435  0.1178
19373TIP3    H179610   5.688   2.983  13.744  0.4558  0.2320 -0.1334
19373TIP3    H279611   5.720   3.078  13.630  0.1663 -0.4338 -0.7752
19374TIP3   OH279612   4.124   3.176   3.193 -0.3854  0.5754  0.5579
19374TIP3    H179613   4.182   3.166   3.117  0.6079  1.2469  1.1989
19374TIP3    H279614   4.157   3.255   3.237 -1.1557  0.3869  1.4977
19375TIP3   OH279615   1.476   0.081   0.242 -0.2612 -0.4245 -0.1403
19375TIP3    H179616   1.571   0.078   0.232 -0.0221 -0.2290  1.7661
19375TIP3    H279617   1.452  -0.004   0.277 -0.5972  0.0126  0.7306
19376TIP3   OH279618   5.219   0.897  16.703  1.0466 -0.2135 -0.8240
19376TIP3    H179619   5.153   0.827  16.705  0.7323  0.0527  1.4886
19376TIP3    H279620   5.170   0.976  16.682  1.0119 -0.3509 -1.2605
19377TIP3   OH279621   4.097   0.080  15.247 -0.3448 -0.4297  0.0078
19377TIP3    H179622   4.060   0.168  15.244 -0.6128 -0.5190  0.4585
19377TIP3    H279623   4.026   0.026  15.281  0.1912 -0.6026  0.9049
19378TIP3   OH279624   4.828   1.401  13.093 -0.4440  0.5409 -0.1640
19378TIP3    H179625   4.900   1.409  13.156 -0.5859 -0.4412  0.1322
19378TIP3    H279626   4.833   1.311  13.062  0.8251  1.4668 -3.0249
19379TIP3   OH279627   0.304   2.596   5.436  0.0622 -0.1553 -0.2119
19379TIP3    H179628   0.239   2.616   5.368 -0.5913 -2.7372 -0.4565
19379TIP3    H279629   0.383   2.642   5.407 -0.7330  0.3541 -1.6974
19380TIP3   OH279630   0.379   6.534  10.916  0.0028  0.4352  0.7950
19380TIP3    H179631   0.349   6.590  10.988  0.9710  2.3322 -0.1928
19380TIP3    H279632   0.396   6.595  10.844  2.1936 -0.9970  0.0062
19381TIP3   OH279633   0.015   1.130   1.465 -0.1912 -0.3152  0.0388
19381TIP3    H179634   0.008   1.186   1.387  0.2392 -1.4091 -0.8243
19381TIP3    H279635  -0.002   1.188   1.538 -0.8309  0.7097 -0.8888
19382TIP3   OH279636   0.341   6.145   3.540 -0.3905 -0.0702  0.4434
19382TIP3    H179637   0.407   6.148   3.471 -1.7732  0.0808 -0.9358
19382TIP3    H279638   0.367   6.072   3.595  1.3588  0.4872  0.4130
19383TIP3   OH279639   4.782   4.226   2.985  0.1922  0.5552  0.3160
19383TIP3    H179640   4.811   4.137   3.006 -1.7196 -0.2053 -0.1265
19383TIP3    H279641   4.726   4.251   3.059 -2.3801 -0.1517 -1.2762
19384TIP3   OH279642   3.220   1.252   3.632 -0.3007  0.2881 -0.4319
19384TIP3    H179643   3.282   1.204   3.577 -0.3977 -0.3670  0.0115
19384TIP3    H279644   3.270   1.273   3.711 -0.5314  0.0931 -0.2332
19385TIP3   OH279645   4.988   0.342   2.571 -0.0753 -0.0234 -0.1113
19385TIP3    H179646   5.075   0.310   2.547  0.2563 -0.0989  1.1158
19385TIP3    H279647   4.929   0.299   2.510  0.7660  0.2183 -1.1238
19386TIP3   OH279648   3.701   0.463   4.920 -0.0843  0.0608 -0.2157
19386TIP3    H179649   3.788   0.493   4.948 -0.1823  0.5142 -0.3962
19386TIP3    H279650   3.642   0.533   4.948 -0.2303  0.3660 -1.2652
19387TIP3   OH279651   3.206   2.853   3.499 -0.7133 -0.4289 -0.0453
19387TIP3    H179652   3.264   2.908   3.446 -3.4824  1.6710 -1.1396
19387TIP3    H279653   3.168   2.792   3.435 -1.2855 -0.3661  0.2342
19388TIP3   OH279654   6.670   0.509  17.022 -0.1479  0.4668 -0.0635
19388TIP3    H179655   6.608   0.525  17.093 -0.1145 -0.8959  0.3048
19388TIP3    H279656   6.646   0.572  16.954 -1.6528  0.2482  0.2451
19389TIP3   OH279657   4.644   4.265   3.551  0.0707  0.1508 -0.1685
19389TIP3    H179658   4.682   4.352   3.544 -0.9933  0.7109  0.6613
19389TIP3    H279659   4.610   4.246   3.464  0.0417  0.6958 -0.2777
19390TIP3   OH279660   1.244   0.498  17.108  0.0784  0.5636 -0.0791
19390TIP3    H179661   1.258   0.420  17.053 -0.0926 -0.4514  1.2522
19390TIP3    H279662   1.150   0.497  17.126  0.0882  1.0464 -0.0001
19391TIP3   OH279663   0.817   1.614   5.411  0.0628  0.3323  0.0509
19391TIP3    H179664   0.832   1.523   5.435  1.8539  1.0055  1.7835
19391TIP3    H279665   0.889   1.636   5.352  1.2935  1.3022  1.7948
19392TIP3   OH279666   0.247   5.806  16.857 -0.0185  0.1798  0.0360
19392TIP3    H179667   0.332   5.844  16.877 -1.0662  3.0157 -0.4402
19392TIP3    H279668   0.233   5.741  16.926  2.7663 -0.9122 -0.2819
19393TIP3   OH279669   0.127   4.532   4.469 -0.0776  0.2799 -0.0446
19393TIP3    H179670   0.206   4.479   4.469 -0.1785  0.1304  0.2385
19393TIP3    H279671   0.081   4.507   4.389  0.6879  1.1583 -0.7867
19394TIP3   OH279672   1.703   2.537  14.855 -0.3570  0.0059 -0.2494
19394TIP3    H179673   1.720   2.445  14.875  1.7257  0.5070  0.5831
19394TIP3    H279674   1.740   2.551  14.768  0.9760  0.4150  0.3474
19395TIP3   OH279675   5.983   3.653  13.875  0.3884  0.1199  0.2390
19395TIP3    H179676   5.961   3.650  13.968  0.8968 -0.2171  0.3507
19395TIP3    H279677   5.899   3.644  13.830  0.0000  1.4664  0.6596
19396TIP3   OH279678   4.395   2.512   0.738  0.2666 -0.2297  0.4288
19396TIP3    H179679   4.487   2.535   0.726  0.6074 -0.5796  2.0592
19396TIP3    H279680   4.393   2.463   0.820 -1.3448 -0.4339  0.3082
19397TIP3   OH279681   0.288   5.868  11.860 -0.2395 -0.6550  0.0687
19397TIP3    H179682   0.325   5.910  11.937 -1.0129  0.1898 -0.0034
19397TIP3    H279683   0.345   5.895  11.788  0.4463 -1.3948  0.3216
19398TIP3   OH279684   6.249   0.410  14.924 -0.3440 -0.4495 -0.1050
19398TIP3    H179685   6.185   0.406  14.853 -0.0543 -0.8694 -0.3478
19398TIP3    H279686   6.329   0.440  14.882 -0.2185 -0.5212  0.0837
19399TIP3   OH279687   4.600   2.893  11.074  0.2267 -0.1777 -0.6075
19399TIP3    H179688   4.589   2.799  11.089  0.6258 -0.0405  0.7496
19399TIP3    H279689   4.694   2.903  11.059  0.2134  0.0190 -0.5612
19400TIP3   OH279690   0.401   3.537   6.313  0.3434  0.1450 -0.4881
19400TIP3    H179691   0.456   3.576   6.245  0.9504  1.1910  0.5645
19400TIP3    H279692   0.316   3.579   6.302  1.1041  2.2129  0.9060
19401TIP3   OH279693   4.327   0.291   2.601 -0.1109  0.1831  0.5235
19401TIP3    H179694   4.274   0.291   2.681 -0.9180  1.1259  0.0190
19401TIP3    H279695   4.291   0.363   2.549 -0.3293 -1.1049 -1.1836
19402TIP3   OH279696   1.758   4.231  13.265  0.5264  0.4878  0.2555
19402TIP3    H179697   1.682   4.238  13.207  1.1703  0.3965 -0.6209
19402TIP3    H279698   1.770   4.319  13.299  0.5764  0.7117 -0.3267
19403TIP3   OH279699   1.354   0.477   3.353 -0.0906  0.8055  0.4423
19403TIP3    H179700   1.445   0.448   3.362  0.4405  2.3670  0.3759
19403TIP3    H279701   1.359   0.555   3.298 -1.8099 -0.7431 -2.1075
19404TIP3   OH279702   5.082   4.199   3.169  0.2776  0.4436 -0.4819
19404TIP3    H179703   5.150   4.146   3.211  0.4417 -0.0398 -1.3336
19404TIP3    H279704   5.003   4.182   3.220  0.4568 -0.1847 -0.4058
19405TIP3   OH279705   0.391   0.167   6.953 -0.0605 -0.7046  0.3137
19405TIP3    H179706   0.468   0.112   6.943 -0.6882 -1.3718 -1.1213
19405TIP3    H279707   0.327   0.111   6.997 -0.1740 -0.5962  0.2884
19406TIP3   OH279708   2.674   2.036   3.840 -0.2059 -0.3662  0.9637
19406TIP3    H179709   2.761   2.012   3.810 -0.7723 -1.0795 -0.1765
19406TIP3    H279710   2.679   2.130   3.857  0.6826 -0.3377  0.5548
19407TIP3   OH279711   6.495   0.284   0.446  0.1298  0.1809  0.1332
19407TIP3    H179712   6.433   0.273   0.373  1.5413  1.3916 -1.3393
19407TIP3    H279713   6.495   0.378   0.464 -1.1631 -0.2325  2.6718
19408TIP3   OH279714   0.231   0.976  15.843 -0.0740  0.1166  0.1259
19408TIP3    H179715   0.271   1.032  15.910  2.1329  0.0733 -1.0673
19408TIP3    H279716   0.192   0.903  15.893  0.4390  0.6981  1.4285
19409TIP3   OH279717   1.831   4.528   0.089 -0.5057  0.0652  0.5927
19409TIP3    H179718   1.805   4.584   0.163  2.8050  0.0811  1.9097
19409TIP3    H279719   1.845   4.442   0.128 -0.2084 -0.3228 -0.3487
19410TIP3   OH279720   6.079   3.369  15.949 -0.2620 -0.2221 -0.1420
19410TIP3    H179721   6.097   3.393  16.040  0.5684 -0.0295 -0.3459
19410TIP3    H279722   6.166   3.356  15.910 -0.6203 -0.7561 -0.7861
19411TIP3   OH279723   0.703   3.814  13.148  0.0057 -0.3375 -0.3360
19411TIP3    H179724   0.726   3.853  13.063 -0.6206  1.3606  0.2301
19411TIP3    H279725   0.787   3.789  13.186  0.5232  1.1699 -0.4165
19412TIP3   OH279726   0.296   3.318  11.154  0.3725  0.3889  0.3193
19412TIP3    H179727   0.242   3.239  11.158  0.1222  0.5480  0.1461
19412TIP3    H279728   0.233   3.390  11.160  0.4392  0.5983 -1.0676
19413TIP3   OH279729   5.202   3.636  14.261  0.6527  0.1908 -0.2373
19413TIP3    H179730   5.211   3.571  14.192 -0.9871  0.1053 -0.4217
19413TIP3    H279731   5.118   3.678  14.243  1.9621  2.9050 -0.5636
19414TIP3   OH279732   2.654   2.873  14.199 -0.3341 -0.1984 -0.5160
19414TIP3    H179733   2.744   2.849  14.176  0.3619  3.1301 -1.8770
19414TIP3    H279734   2.662   2.952  14.252 -2.4567 -0.0679 -0.2743
19415TIP3   OH279735   0.749   6.764  11.118 -0.3792 -0.3516 -0.2236
19415TIP3    H179736   0.825   6.822  11.129  0.5028 -1.4901 -0.1740
19415TIP3    H279737   0.685   6.818  11.071  1.4145 -0.1501 -2.6226
19416TIP3   OH279738   2.216   5.476   3.178  0.6905  0.4613  0.0576
19416TIP3    H179739   2.153   5.549   3.171  0.3997  0.2379  0.3261
19416TIP3    H279740   2.245   5.478   3.269  0.8252  0.3557  0.0173
19417TIP3   OH279741   1.693   3.687  14.023 -0.2491  0.3387 -0.8016
19417TIP3    H179742   1.624   3.642  14.071  0.0117 -0.2291 -0.9577
19417TIP3    H279743   1.737   3.740  14.089 -1.5316  1.5901 -0.8959
19418TIP3   OH279744   4.047   4.801  17.155  0.2863 -0.4271 -0.3146
19418TIP3    H179745   4.048   4.750  17.074  0.1977  0.4723 -0.8813
19418TIP3    H279746   4.089   4.743  17.219 -1.4364 -1.9535 -0.4947
19419TIP3   OH279747   1.312   0.365   5.342 -0.2896 -0.5681  0.3629
19419TIP3    H179748   1.239   0.317   5.305 -0.2309 -0.9548  0.7406
19419TIP3    H279749   1.331   0.321   5.425  2.4029 -2.5090 -1.1175
19420TIP3   OH279750   2.494   6.194   4.115  0.0132  0.6582  0.2122
19420TIP3    H179751   2.528   6.247   4.186 -0.2306  0.2095  0.6780
19420TIP3    H279752   2.433   6.251   4.069  1.6742  1.6224 -0.9124
19421TIP3   OH279753   2.460   1.842   0.421 -0.2796 -0.7780  0.2877
19421TIP3    H179754   2.376   1.820   0.382 -0.8983 -0.5504  1.4507
19421TIP3    H279755   2.504   1.757   0.433 -0.1380 -0.8637 -0.7132
19422TIP3   OH279756   4.104   5.894   5.115  0.2339  0.3503 -0.4295
19422TIP3    H179757   4.145   5.974   5.083  0.5453  0.1660 -0.4927
19422TIP3    H279758   4.177   5.835   5.133  0.1390  0.7618  1.4835
19423TIP3   OH279759   0.444   2.853   5.926 -0.5001  1.2393  0.1677
19423TIP3    H179760   0.354   2.886   5.931 -0.5605  0.8669  2.3552
19423TIP3    H279761   0.463   2.820   6.014  1.1323 -0.4327 -0.7348
19424TIP3   OH279762   4.796   2.873  12.679 -0.1828  0.4298 -0.5967
19424TIP3    H179763   4.764   2.962  12.687 -1.2529  0.1926 -1.8957
19424TIP3    H279764   4.888   2.883  12.654  0.3842  1.1153  1.5494
19425TIP3   OH279765   4.730   3.793  11.507 -0.2885  0.1348 -0.7038
19425TIP3    H179766   4.711   3.852  11.580 -0.1799  0.3713 -0.8641
19425TIP3    H279767   4.709   3.706  11.540 -0.1322  0.2285 -0.3530
19426TIP3   OH279768   1.544   0.896  15.693 -0.2104 -0.5946 -0.5318
19426TIP3    H179769   1.514   0.986  15.680  0.2880 -0.4042 -0.3729
19426TIP3    H279770   1.469   0.842  15.668 -1.8254 -0.0772  2.7138
19427TIP3   OH279771   2.532   6.063  15.316  0.0005 -0.2319 -0.1550
19427TIP3    H179772   2.494   5.983  15.281 -0.2965 -0.3138  0.3391
19427TIP3    H279773   2.473   6.088  15.388 -0.4218  0.9056 -0.8585
19428TIP3   OH279774   0.577   0.885  11.390 -0.0142 -0.0756  0.2132
19428TIP3    H179775   0.598   0.852  11.477  2.0932 -0.7024 -0.4631
19428TIP3    H279776   0.577   0.980  11.399  1.2607 -0.1051  0.7087
19429TIP3   OH279777   4.861   6.322  13.513 -0.4920  0.3110  0.0089
19429TIP3    H179778   4.780   6.321  13.462 -1.3833  0.1792  1.3942
19429TIP3    H279779   4.844   6.266  13.588  0.4714  1.2336  0.9487
19430TIP3   OH279780   0.754   1.330   5.876  0.6007 -0.3296  0.2931
19430TIP3    H179781   0.795   1.244   5.868  1.5032  0.1383 -0.2667
19430TIP3    H279782   0.811   1.378   5.937  1.2776  0.5414 -0.9873
19431TIP3   OH279783   1.892   3.706   0.646  0.1395  0.6359  0.0269
19431TIP3    H179784   1.914   3.767   0.716 -1.9814 -0.7656  2.0502
19431TIP3    H279785   1.817   3.657   0.679  0.0357 -1.2078 -2.6134
19432TIP3   OH279786   1.294   2.967   1.420 -0.1964  0.2617 -0.0966
19432TIP3    H179787   1.319   3.019   1.344  0.5863  0.4592  0.2869
19432TIP3    H279788   1.199   2.979   1.428 -0.0587  1.4414 -0.1477
19433TIP3   OH279789   4.317   2.954  16.749 -0.0175 -0.3223  0.6931
19433TIP3    H179790   4.398   2.919  16.713  0.4246  0.2778  1.0760
19433TIP3    H279791   4.260   2.878  16.759 -0.5581 -0.4059 -2.2057
19434TIP3   OH279792   5.025   5.747  15.543  0.0036 -0.4206 -0.3425
19434TIP3    H179793   5.078   5.827  15.544  0.8566 -0.9711 -0.1742
19434TIP3    H279794   4.949   5.769  15.489 -1.5108  1.5769  2.3152
19435TIP3   OH279795   1.628   1.272   4.145  0.4749  0.3219  0.2430
19435TIP3    H179796   1.545   1.225   4.132  1.6858 -1.9998  0.5121
19435TIP3    H279797   1.606   1.339   4.210 -1.4232  0.4596 -0.4643
19436TIP3   OH279798   0.034   4.997  17.365 -0.3385 -0.4468  0.2462
19436TIP3    H179799  -0.016   5.034  17.292  0.0166 -0.4024  0.0210
19436TIP3    H279800   0.126   5.004  17.337 -0.1143  0.6919  1.2136
19437TIP3   OH279801   5.529   6.437   3.646  0.3176 -0.3239 -0.0398
19437TIP3    H179802   5.539   6.449   3.741  2.0073 -0.2711 -0.1999
19437TIP3    H279803   5.606   6.388   3.620 -0.0280 -0.1557 -1.4413
19438TIP3   OH279804   4.699   1.619  13.947 -0.3560 -0.0343  0.5370
19438TIP3    H179805   4.604   1.630  13.952 -0.2348  1.3139  0.3602
19438TIP3    H279806   4.735   1.704  13.974  0.8759 -1.1218  2.5496
19439TIP3   OH279807   4.068   5.216  12.836 -0.2479  0.2355  0.5217
19439TIP3    H179808   4.035   5.129  12.818 -0.1536  0.3803 -0.3858
19439TIP3    H279809   4.143   5.202  12.895 -0.5223 -0.2519  0.7543
19440TIP3   OH279810   6.313   1.458  14.317 -0.2312  0.4060  0.5398
19440TIP3    H179811   6.322   1.392  14.249 -0.6600  0.5545  0.3387
19440TIP3    H279812   6.327   1.410  14.399 -2.7354 -0.4171  0.5732
19441TIP3   OH279813   3.688   2.712  14.108 -0.2955  0.7395  0.6446
19441TIP3    H179814   3.660   2.632  14.063 -0.5134  1.1915 -0.0502
19441TIP3    H279815   3.660   2.700  14.198 -1.3716  0.5211  0.2956
19442TIP3   OH279816   4.310   1.384   6.137 -0.2320 -0.4039  0.3423
19442TIP3    H179817   4.220   1.383   6.105 -0.6998  0.1881  1.5620
19442TIP3    H279818   4.356   1.323   6.080 -1.4451 -0.8731 -0.1790
19443TIP3   OH279819   1.849   0.976   3.273 -0.4821  0.4250 -0.4973
19443TIP3    H179820   1.920   0.977   3.338 -0.3827 -0.9624 -0.5642
19443TIP3    H279821   1.893   0.983   3.189 -0.4530  0.0403 -0.5153
19444TIP3   OH279822   1.863   5.466  14.672  1.0990  0.0441  0.1798
19444TIP3    H179823   1.901   5.380  14.655  0.5897 -0.0950 -0.2742
19444TIP3    H279824   1.772   5.448  14.697  1.6469  0.2635  2.5570
19445TIP3   OH279825   1.572   1.251   4.889  0.5249 -0.3455 -0.4275
19445TIP3    H179826   1.623   1.236   4.968 -1.5699  1.9200  1.5237
19445TIP3    H279827   1.627   1.307   4.835  1.7748 -1.5011 -0.4019
19446TIP3   OH279828   4.034   4.469  16.352 -0.1691 -0.1305  0.6583
19446TIP3    H179829   4.116   4.495  16.395 -0.2142 -0.6995  1.1025
19446TIP3    H279830   4.048   4.378  16.326 -1.1189 -0.6559  1.9039
19447TIP3   OH279831   6.724   1.177  15.961 -0.3448  0.5356  0.0991
19447TIP3    H179832   6.767   1.220  16.035  0.8887 -0.5690  0.0578
19447TIP3    H279833   6.678   1.102  16.001  1.5016 -0.9137 -0.3696
19448TIP3   OH279834   1.799   1.631  15.758  0.1710 -0.7586 -0.5759
19448TIP3    H179835   1.870   1.678  15.802  0.6095 -2.5476  0.7775
19448TIP3    H279836   1.722   1.645  15.814 -0.3417  0.4391 -1.5575
19449TIP3   OH279837   1.624   5.114  15.841  0.4570  0.2628 -0.0189
19449TIP3    H179838   1.558   5.077  15.783  1.5443 -1.0045 -0.5236
19449TIP3    H279839   1.705   5.070  15.815  0.9316 -0.7141  2.7322
19450TIP3   OH279840   0.775   2.861   5.566  0.2524  0.1079  0.1466
19450TIP3    H179841   0.681   2.879   5.574 -0.0061 -1.5012  1.0882
19450TIP3    H279842   0.809   2.872   5.655  0.3333 -2.3701  0.4954
19451TIP3   OH279843   0.484   2.150   0.025  0.6288 -0.3297  0.6921
19451TIP3    H179844   0.404   2.196   0.053 -0.9625 -2.8251  0.5060
19451TIP3    H279845   0.513   2.199  -0.052 -1.2696  0.0967  0.1788
19452TIP3   OH279846   5.506   6.771   1.624 -0.6411 -0.1257 -0.4483
19452TIP3    H179847   5.421   6.808   1.601  0.4847  3.9431  0.9944
19452TIP3    H279848   5.490   6.722   1.704 -1.6808  0.5473 -0.2235
19453TIP3   OH279849   1.825   0.362   6.284  0.3007 -0.1340  0.3468
19453TIP3    H179850   1.868   0.408   6.356 -1.1665  0.4491  0.8767
19453TIP3    H279851   1.885   0.374   6.210 -0.4862  3.6966  0.1140
19454TIP3   OH279852   0.912   1.218   1.982 -0.0788  0.1252  0.5746
19454TIP3    H179853   0.880   1.262   1.903 -2.1603 -0.1819  1.1801
19454TIP3    H279854   0.994   1.177   1.955  0.0065  1.2373 -1.0113
19455TIP3   OH279855   3.181   4.359  17.401 -0.0484 -0.1690 -0.0110
19455TIP3    H179856   3.208   4.356  17.309 -2.0128  1.4337 -0.7305
19455TIP3    H279857   3.118   4.288  17.410 -0.1224 -0.1042 -0.0126
19456TIP3   OH279858   1.376   1.298   0.373 -0.0261  0.2475 -0.1279
19456TIP3    H179859   1.296   1.246   0.371 -0.4990  0.9615 -2.1350
19456TIP3    H279860   1.371   1.347   0.455 -1.7316  0.3873 -0.2881
19457TIP3   OH279861   6.029   5.614  12.624  0.4436  0.0573 -0.2842
19457TIP3    H179862   6.009   5.699  12.662 -1.8660 -0.4766 -0.1388
19457TIP3    H279863   6.044   5.556  12.699  0.6122  0.0271 -0.3398
19458TIP3   OH279864   3.756   3.605   4.884 -0.4297  0.4425 -0.1401
19458TIP3    H179865   3.766   3.676   4.820 -2.1780  0.0483 -0.9290
19458TIP3    H279866   3.773   3.525   4.834  2.0758  0.2729  0.8720
19459TIP3   OH279867   5.335   1.242  12.631 -0.2059 -0.2305  0.4020
19459TIP3    H179868   5.309   1.262  12.721 -0.0733 -0.5028  0.5011
19459TIP3    H279869   5.351   1.148  12.631 -2.6493 -0.7133 -0.5140
19460TIP3   OH279870   5.519   6.038  11.895  0.2245 -0.1623  0.3500
19460TIP3    H179871   5.452   5.979  11.860  1.2540 -0.9849 -0.2994
19460TIP3    H279872   5.492   6.126  11.866 -0.8898 -0.4054  0.6321
19461TIP3   OH279873   2.252   1.708   5.419 -0.0455 -0.0856 -0.0533
19461TIP3    H179874   2.193   1.650   5.371 -0.9231 -0.6742  1.6423
19461TIP3    H279875   2.242   1.793   5.376 -1.5963 -0.3420 -0.2756
19462TIP3   OH279876   4.524   0.755  12.661  0.3457 -0.1977 -0.8420
19462TIP3    H179877   4.589   0.815  12.699 -1.0044  1.8257 -1.5326
19462TIP3    H279878   4.566   0.721  12.582  0.8743  0.5117 -0.8797
19463TIP3   OH279879   6.415   4.606   4.920 -0.4875  0.2378  0.0823
19463TIP3    H179880   6.504   4.641   4.912 -0.4799 -0.1069 -1.6086
19463TIP3    H279881   6.391   4.624   5.011  1.5706 -0.2583  0.7909
19464TIP3   OH279882   3.466   1.251  11.794 -0.0524  0.0233  0.8179
19464TIP3    H179883   3.390   1.292  11.837 -0.9241 -1.9986  1.3460
19464TIP3    H279884   3.478   1.169  11.841  0.5093 -1.1535 -1.2425
19465TIP3   OH279885   0.525   2.968   3.871 -0.0547 -0.2223 -0.2701
19465TIP3    H179886   0.576   2.899   3.828 -2.7610 -1.9927 -0.9077
19465TIP3    H279887   0.519   3.038   3.805 -0.3511 -0.9736 -1.0605
19466TIP3   OH279888   3.312   1.882   4.450 -0.5006 -0.0217  0.5597
19466TIP3    H179889   3.389   1.851   4.402 -1.0274  0.4754 -0.6496
19466TIP3    H279890   3.342   1.891   4.540  1.5826  2.3558 -0.2438
19467TIP3   OH279891   3.985   0.909  13.626 -0.4024  0.4894 -0.0695
19467TIP3    H179892   3.944   0.846  13.685 -0.0338 -0.9270 -1.2566
19467TIP3    H279893   4.079   0.894  13.636 -0.3470 -0.8557 -2.0612
19468TIP3   OH279894   2.811   0.552  14.583 -0.5860 -0.1250 -0.1051
19468TIP3    H179895   2.867   0.626  14.608  0.4704 -0.6322 -0.8508
19468TIP3    H279896   2.832   0.483  14.647 -2.4018  0.5311  1.2962
19469TIP3   OH279897   0.811   1.448   4.798 -0.3125 -0.2522  0.1033
19469TIP3    H179898   0.727   1.467   4.756 -0.0700 -2.2014 -1.4253
19469TIP3    H279899   0.811   1.502   4.877 -2.5971  0.4825 -0.3172
19470TIP3   OH279900   1.581   3.479  16.933 -0.2634 -0.6082  0.2235
19470TIP3    H179901   1.579   3.386  16.954 -0.6870 -0.9405 -1.1709
19470TIP3    H279902   1.542   3.522  17.009 -0.3374 -1.5825  0.7527
19471TIP3   OH279903   1.177   1.319  14.147 -0.4021 -0.2154 -0.6181
19471TIP3    H179904   1.258   1.366  14.167 -1.3870  0.9632  0.7976
19471TIP3    H279905   1.141   1.364  14.071 -0.5076  0.2765 -0.2817
19472TIP3   OH279906   6.236   4.546  13.870  0.5169  0.1418  0.0434
19472TIP3    H179907   6.211   4.481  13.805  1.3497 -2.2069  1.8979
19472TIP3    H279908   6.200   4.628  13.838 -0.3897 -1.1708 -2.5564
19473TIP3   OH279909   0.368   4.475   1.143  0.0994  0.2061  0.8917
19473TIP3    H179910   0.283   4.434   1.159  0.4863 -0.2983  1.7537
19473TIP3    H279911   0.371   4.549   1.203 -0.2401  0.9955 -0.0448
19474TIP3   OH279912   2.556   1.042  14.834 -0.0828 -0.3878 -0.1931
19474TIP3    H179913   2.605   0.960  14.825 -1.0864 -0.8000 -2.5862
19474TIP3    H279914   2.474   1.026  14.789 -1.1226  1.3364  0.9811
19475TIP3   OH279915   0.925   5.659   4.046 -0.3446  0.2621  0.4600
19475TIP3    H179916   0.855   5.672   3.983  0.9771  1.2311 -0.8881
19475TIP3    H279917   1.005   5.658   3.993  0.7840  0.6762  2.0776
19476TIP3   OH279918   3.286   3.774   3.206 -0.0529 -0.9759 -0.4233
19476TIP3    H179919   3.202   3.814   3.228  1.1372 -0.4025  3.9018
19476TIP3    H279920   3.335   3.845   3.164 -0.8219 -0.5096 -0.5566
19477TIP3   OH279921   5.521   4.302   3.681 -0.0414 -0.1201 -0.1651
19477TIP3    H179922   5.445   4.332   3.632  0.0699  0.9145  0.2766
19477TIP3    H279923   5.542   4.374   3.741 -0.5871 -1.5899  1.8951
19478TIP3   OH279924   4.130   5.347   1.509  0.5566  0.8921 -0.6290
19478TIP3    H179925   4.217   5.317   1.483 -0.6487 -1.3187 -2.4789
19478TIP3    H279926   4.077   5.336   1.430 -1.8737  0.1603  1.0137
19479TIP3   OH279927   5.674   3.595   1.672 -0.5194  0.1533 -0.5602
19479TIP3    H179928   5.607   3.558   1.614  0.7142  0.2739 -2.1264
19479TIP3    H279929   5.701   3.521   1.727  0.8793 -1.0203 -2.6634
19480TIP3   OH279930   2.830   6.782   4.190  0.5297  0.0642  0.5485
19480TIP3    H179931   2.854   6.835   4.266  0.3076  0.9146  0.0432
19480TIP3    H279932   2.897   6.801   4.125 -0.2625  0.7528 -0.0942
19481TIP3   OH279933   3.082   2.745   5.449  0.2731  0.0902  0.1547
19481TIP3    H179934   3.102   2.814   5.387 -1.3354 -1.6570 -2.5265
19481TIP3    H279935   3.010   2.697   5.409  1.7612 -3.5948  1.4288
19482TIP3   OH279936   3.424   6.240   1.427 -0.0747 -0.3138  0.0917
19482TIP3    H179937   3.447   6.166   1.484  0.8355 -0.3274 -0.2800
19482TIP3    H279938   3.483   6.232   1.352 -0.0589  0.7023 -0.0222
19483TIP3   OH279939   5.615   4.320  10.569  0.3895 -0.2852  0.1580
19483TIP3    H179940   5.543   4.380  10.548  0.4656 -0.3477 -0.3031
19483TIP3    H279941   5.608   4.251  10.503  2.0020  0.6755 -1.0964
19484TIP3   OH279942   6.559   6.751   6.127  0.6794 -0.1614  0.5893
19484TIP3    H179943   6.590   6.694   6.057 -0.3526  1.0844 -0.9303
19484TIP3    H279944   6.630   6.814   6.141  0.8856 -0.4133  0.6844
19485TIP3   OH279945   6.153   2.378   3.740  0.6098  0.5374 -0.0410
19485TIP3    H179946   6.118   2.326   3.812 -0.1893 -0.7297 -1.2992
19485TIP3    H279947   6.178   2.461   3.781  1.3649 -0.5840  1.9192
19486TIP3   OH279948   6.432   6.594  13.272 -0.1126  0.2553  0.2292
19486TIP3    H179949   6.337   6.592  13.283 -0.2184  1.5152 -0.2365
19486TIP3    H279950   6.446   6.589  13.178  0.2268  0.9813  0.2306
19487TIP3   OH279951   6.381   4.004  15.857  0.2909 -0.1445 -0.1216
19487TIP3    H179952   6.341   4.042  15.778 -1.5146 -2.3162 -0.3476
19487TIP3    H279953   6.325   3.930  15.879  0.8906  0.2119  3.0878
19488TIP3   OH279954   1.106   5.821   1.629 -0.4977  0.0572 -0.4055
19488TIP3    H179955   1.039   5.890   1.629 -2.0955 -1.4280 -1.3270
19488TIP3    H279956   1.179   5.859   1.579 -0.8811  1.4545  0.0340
19489TIP3   OH279957   6.240   1.847  11.961  0.3645 -0.0902 -0.0714
19489TIP3    H179958   6.185   1.916  11.997  2.1782  1.9887 -1.0660
19489TIP3    H279959   6.178   1.782  11.927 -1.3907  0.7198  1.4103
19490TIP3   OH279960   1.557   0.761  14.582 -0.6178  0.2843  0.8806
19490TIP3    H179961   1.561   0.850  14.618 -3.2415  0.3543  1.1873
19490TIP3    H279962   1.624   0.712  14.630 -0.8349  1.5000  2.4992
19491TIP3   OH279963   2.525   5.982   2.315  0.0360  0.2703  0.5007
19491TIP3    H179964   2.614   6.008   2.339  0.9312 -3.6317  2.1138
19491TIP3    H279965   2.472   6.008   2.390  0.1929  0.6958  0.4682
19492TIP3   OH279966   1.620   3.313  14.047  0.0034 -0.5053  0.1673
19492TIP3    H179967   1.635   3.225  14.013 -1.5749 -1.6146  2.1010
19492TIP3    H279968   1.707   3.346  14.068  1.1980  0.4307 -4.8914
19493TIP3   OH279969   0.203   3.467  12.797  0.0043 -0.7916 -0.8123
19493TIP3    H179970   0.134   3.465  12.863 -0.2367 -1.6869 -1.0765
19493TIP3    H279971   0.181   3.541  12.741  0.4773  0.2914  0.3626
19494TIP3   OH279972   4.370   1.998  16.897  0.1797 -0.5381  0.2957
19494TIP3    H179973   4.299   2.050  16.935  1.2076  1.3807 -0.2827
19494TIP3    H279974   4.368   2.018  16.804  2.6821  1.2098  0.5059
19495TIP3   OH279975   4.524   2.195   2.323  0.0689  0.2198 -0.5072
19495TIP3    H179976   4.596   2.251   2.296  1.0998 -1.5402 -1.4875
19495TIP3    H279977   4.509   2.219   2.415  3.6378 -1.1348  0.5610
19496TIP3   OH279978   2.341   2.934  12.810  0.2319 -0.2143  0.6363
19496TIP3    H179979   2.293   2.853  12.830  1.2412 -0.8468  0.5651
19496TIP3    H279980   2.282   2.982  12.752 -1.2707  0.0743  2.3247
19497TIP3   OH279981   4.675   4.756   3.424 -0.5950 -0.4405 -0.5420
19497TIP3    H179982   4.620   4.834   3.433 -0.8311 -0.6282 -0.3728
19497TIP3    H279983   4.674   4.736   3.331  0.7049  0.6640 -0.8363
19498TIP3   OH279984   0.400   6.108  13.173  0.1896 -0.1966  0.1153
19498TIP3    H179985   0.431   6.184  13.123  1.5662 -0.0626  1.0810
19498TIP3    H279986   0.477   6.051  13.178 -0.4907 -1.0903  0.4118
19499TIP3   OH279987   3.550   0.700   1.416 -0.3350 -1.0079  0.2441
19499TIP3    H179988   3.507   0.656   1.489  1.0980 -1.9507  0.5605
19499TIP3    H279989   3.591   0.630   1.367 -1.4136 -0.4107 -1.6091
19500TIP3   OH279990   1.069   6.067  13.280  0.2753 -0.0918  0.0328
19500TIP3    H179991   1.000   6.094  13.341  0.2515 -0.6065  0.2417
19500TIP3    H279992   1.022   6.033  13.204  0.3057  1.2544 -0.6008
19501TIP3   OH279993   1.624   3.343  12.083  0.0940 -0.1173 -0.0293
19501TIP3    H179994   1.590   3.411  12.025  0.5023  1.0796  1.0765
19501TIP3    H279995   1.573   3.353  12.164 -1.3182 -2.5417 -0.5029
19502TIP3   OH279996   5.544   4.097   5.676 -0.1495  0.4801  0.6666
19502TIP3    H179997   5.456   4.079   5.643 -0.4621  0.1521  1.6327
19502TIP3    H279998   5.529   4.132   5.764  0.7555 -2.0916  1.9282
19503TIP3   OH279999   4.279   6.391   5.888 -0.0566  0.3016 -0.3923
19503TIP3    H180000   4.306   6.327   5.954 -0.1466  0.7188  0.0489
19503TIP3    H280001   4.206   6.437   5.928  0.3311  1.0270 -0.5167
19504TIP3   OH280002   4.792   3.255   3.560 -0.5727 -0.7428  0.1336
19504TIP3    H180003   4.854   3.287   3.494 -0.2227  1.1023  1.2953
19504TIP3    H280004   4.706   3.275   3.523 -0.3788  0.4368  0.2759
19505TIP3   OH280005   4.091   0.524   5.551 -0.0564  0.0639  0.7168
19505TIP3    H180006   4.024   0.503   5.615 -0.3606  3.5750  1.7632
19505TIP3    H280007   4.042   0.541   5.470 -0.0033 -0.9900  0.4454
19506TIP3   OH280008   6.153   0.092  12.898  0.2567 -0.2408  0.1052
19506TIP3    H180009   6.242   0.091  12.932  0.1253  0.0046  0.4582
19506TIP3    H280010   6.112   0.169  12.939 -0.1655 -0.4445  0.0734
19507TIP3   OH280011   3.946   1.369   0.466  0.2647  0.2542 -0.0721
19507TIP3    H180012   4.038   1.343   0.459  0.2966  0.5499 -0.9035
19507TIP3    H280013   3.928   1.415   0.384 -0.6698  0.0733  0.0202
19508TIP3   OH280014   0.608   3.357  16.814  0.1639  0.0786 -0.2959
19508TIP3    H180015   0.665   3.304  16.870  0.7631  1.0346  0.0361
19508TIP3    H280016   0.578   3.297  16.746  0.5454 -0.7619  0.2594
19509TIP3   OH280017   4.231   5.568   3.170  0.2352 -0.2847 -0.2193
19509TIP3    H180018   4.312   5.525   3.199 -0.4457 -1.5257 -0.0747
19509TIP3    H280019   4.255   5.660   3.159  1.4158 -0.4446  0.7857
19510TIP3   OH280020   1.155   5.162  14.048  0.1787  0.4091  0.1110
19510TIP3    H180021   1.217   5.089  14.058 -0.4058 -0.2681 -1.0495
19510TIP3    H280022   1.070   5.121  14.040 -0.3880  1.3172  1.1355
19511TIP3   OH280023   2.625   6.248   1.666  0.4036 -0.8227 -0.3404
19511TIP3    H180024   2.675   6.166   1.670 -1.3184 -1.9638 -0.8187
19511TIP3    H280025   2.688   6.314   1.637  2.0002 -1.8231  0.7016
19512TIP3   OH280026   1.458   5.392  12.105 -0.8187 -0.1321  1.1909
19512TIP3    H180027   1.368   5.423  12.099 -1.0336 -0.9773 -1.5801
19512TIP3    H280028   1.510   5.456  12.056 -0.4384 -1.1922  0.1349
19513TIP3   OH280029   5.963   0.095   2.154 -0.5662 -0.3219  0.6390
19513TIP3    H180030   5.954   0.130   2.065 -1.8424  0.4670  1.0429
19513TIP3    H280031   5.952   0.001   2.144 -1.3129 -0.1844  0.0061
19514TIP3   OH280032   0.824   6.142   0.217  0.0404 -0.1107  0.3787
19514TIP3    H180033   0.893   6.204   0.193 -0.3868  0.4962  0.7071
19514TIP3    H280034   0.839   6.067   0.160  0.6505  0.2338  0.0741
19515TIP3   OH280035   3.421   1.563  14.469 -0.1291 -0.3781  0.3294
19515TIP3    H180036   3.391   1.472  14.463  0.3838 -0.5103 -0.5697
19515TIP3    H280037   3.491   1.568  14.403 -0.9677  0.9780 -0.4980
19516TIP3   OH280038   0.762   6.136   2.757 -0.1200  0.1867  0.0091
19516TIP3    H180039   0.692   6.105   2.699  1.1601 -1.4995 -0.7329
19516TIP3    H280040   0.830   6.069   2.749  1.3381  1.4730  1.1565
19517TIP3   OH280041   4.801   5.703   5.584  0.8556 -0.5210 -0.3927
19517TIP3    H180042   4.804   5.629   5.523  2.7036 -0.0292 -0.9502
19517TIP3    H280043   4.767   5.666   5.665  1.9431 -2.0533 -0.6021
19518TIP3   OH280044   4.838   0.232  12.516  0.1927 -0.1877 -0.9141
19518TIP3    H180045   4.878   0.306  12.470 -0.5293 -0.2712 -1.6751
19518TIP3    H280046   4.807   0.174  12.447 -0.2209 -0.6832 -0.3213
19519TIP3   OH280047   2.776   4.812   5.087  0.4400 -0.6396  0.1622
19519TIP3    H180048   2.781   4.798   4.993 -0.3187  0.4708 -0.0675
19519TIP3    H280049   2.691   4.855   5.101  0.4159 -1.0357  1.3841
19520TIP3   OH280050   5.579   1.046  15.784 -0.1600 -0.0900  0.7142
19520TIP3    H180051   5.558   1.012  15.697 -0.1347  0.6634  0.4002
19520TIP3    H280052   5.590   1.141  15.770  0.3955 -0.0406  1.4335
19521TIP3   OH280053   0.754   4.719  13.861  0.8202  0.5015 -0.3442
19521TIP3    H180054   0.787   4.638  13.899  2.0076  0.7120 -0.8785
19521TIP3    H280055   0.723   4.770  13.936  1.0574 -0.0028  0.1003
19522TIP3   OH280056   3.463   3.848  14.626  0.0675 -0.5729 -0.7991
19522TIP3    H180057   3.460   3.752  14.625 -1.8643 -0.5573 -0.4673
19522TIP3    H280058   3.440   3.872  14.716 -0.6231  0.1956 -1.1598
19523TIP3   OH280059   3.323   0.785  10.809  0.0764 -0.0133 -0.2252
19523TIP3    H180060   3.380   0.709  10.817  0.4100  0.1451 -1.0124
19523TIP3    H280061   3.256   0.772  10.876 -1.1759 -2.1162 -1.7782
19524TIP3   OH280062   5.980   5.164  13.585 -0.3219  0.1326  0.2022
19524TIP3    H180063   6.021   5.182  13.500 -1.4671 -0.3055 -0.4642
19524TIP3    H280064   5.983   5.248  13.631 -1.4876  0.9073 -1.0656
19525TIP3   OH280065   1.343   1.841  17.321  0.0031  0.0912 -0.0662
19525TIP3    H180066   1.260   1.812  17.357  0.6614 -0.7845  0.7980
19525TIP3    H280067   1.388   1.884  17.394  1.1788 -1.3351  0.1093
19526TIP3   OH280068   4.712   6.135   5.113  0.4243  0.8824  0.3737
19526TIP3    H180069   4.721   6.170   5.201  0.3366  1.5388  0.1269
19526TIP3    H280070   4.788   6.169   5.065  1.4427 -0.9105  0.6442
19527TIP3   OH280071   4.790   4.400   5.959 -0.2649 -0.1502 -0.0864
19527TIP3    H180072   4.773   4.490   5.933 -0.3648  0.3612  1.6286
19527TIP3    H280073   4.769   4.397   6.052  0.0379 -1.8750 -0.0305
19528TIP3   OH280074   0.453   2.846  15.736 -0.4328  0.6969  0.1080
19528TIP3    H180075   0.464   2.754  15.713  1.2633  0.4188  1.7690
19528TIP3    H280076   0.457   2.892  15.652 -1.3617 -0.7174 -0.7566
19529TIP3   OH280077   4.165   0.351  10.772  0.2057 -0.1621  0.3418
19529TIP3    H180078   4.232   0.315  10.831  0.0833 -0.5061  0.2749
19529TIP3    H280079   4.172   0.446  10.782 -0.5277 -0.2272  1.7270
19530TIP3   OH280080   5.846   3.725   0.860 -0.0470  0.1889 -0.0579
19530TIP3    H180081   5.937   3.739   0.885  0.1065 -0.9611  0.0625
19530TIP3    H280082   5.844   3.748   0.767  0.4600 -0.1569 -0.1611
19531TIP3   OH280083   1.296   6.772   3.334 -0.0687  0.7632  0.2576
19531TIP3    H180084   1.222   6.712   3.332  0.4799  0.0855 -1.4543
19531TIP3    H280085   1.367   6.722   3.373  0.7711 -0.2561 -2.3808
19532TIP3   OH280086   2.257   6.161  14.381 -0.2335 -0.0952 -0.5259
19532TIP3    H180087   2.304   6.183  14.300  1.7249 -0.2904  0.4974
19532TIP3    H280088   2.286   6.228  14.443 -1.5782 -0.0565  0.0822
19533TIP3   OH280089   5.458   6.489  17.168  0.2777  0.0085 -0.2644
19533TIP3    H180090   5.384   6.441  17.205 -2.6103  2.3284 -2.5012
19533TIP3    H280091   5.473   6.561  17.230  1.2229 -0.8654  0.5538
19534TIP3   OH280092   4.663   1.247  16.747 -0.3748  0.0481  0.2962
19534TIP3    H180093   4.655   1.224  16.655 -1.2655  1.8948 -0.1550
19534TIP3    H280094   4.590   1.203  16.789  0.3782 -1.2858  0.2570
19535TIP3   OH280095   5.316   5.146   1.386 -0.1115 -0.4304  0.6275
19535TIP3    H180096   5.272   5.141   1.302 -0.7488  0.0206  0.9318
19535TIP3    H280097   5.409   5.150   1.364 -0.3274  1.5364 -0.1525
19536TIP3   OH280098   3.959   4.319   1.741 -0.5830  0.6536  0.1772
19536TIP3    H180099   3.912   4.309   1.824  0.8143  0.5581  1.0066
19536TIP3    H280100   4.050   4.297   1.763  0.2046  2.5577 -0.9120
19537TIP3   OH280101   4.527   3.507   1.139 -0.4037 -0.1207  0.0709
19537TIP3    H180102   4.433   3.521   1.129 -0.2742  0.4117 -0.4248
19537TIP3    H280103   4.534   3.425   1.189 -1.1123 -0.8979 -1.0609
19538TIP3   OH280104   4.695   2.763  15.218  0.5681  0.3194  0.0205
19538TIP3    H180105   4.621   2.704  15.207  0.8024  0.2366 -1.2434
19538TIP3    H280106   4.657   2.841  15.259 -0.4379  0.6612 -1.4626
19539TIP3   OH280107   0.355   6.283   2.812 -0.6169 -0.2642 -0.2671
19539TIP3    H180108   0.384   6.268   2.722 -0.5003  0.8012 -0.4227
19539TIP3    H280109   0.405   6.359   2.841 -1.4436  0.0765  0.3191
19540TIP3   OH280110   2.106   3.205   4.962  0.2126 -0.9178 -0.3626
19540TIP3    H180111   2.191   3.217   5.004 -0.3564 -1.3764  0.9795
19540TIP3    H280112   2.057   3.285   4.982  0.2934 -0.6910 -1.0546
19541TIP3   OH280113   2.752   0.256   0.703  0.2373  0.2799 -0.1409
19541TIP3    H180114   2.700   0.187   0.664 -0.3259 -0.6169  2.0555
19541TIP3    H280115   2.778   0.311   0.629 -3.1966  0.3890 -1.4269
19542TIP3   OH280116   6.020   3.766   6.370  0.7190  0.1993  0.1348
19542TIP3    H180117   6.089   3.705   6.343  0.3186  0.1863 -0.8797
19542TIP3    H280118   6.046   3.850   6.333  0.4326  0.2939  0.1477
19543TIP3   OH280119   3.750   5.590  12.162  0.0875  0.3256  0.4899
19543TIP3    H180120   3.813   5.537  12.210  0.8299  1.5415  0.8909
19543TIP3    H280121   3.804   5.649  12.108 -0.4971  3.7170  3.2780
19544TIP3   OH280122   3.737   3.827   3.412  0.1593 -0.0794  0.0924
19544TIP3    H180123   3.647   3.855   3.427  0.1265 -0.1023 -0.0591
19544TIP3    H280124   3.761   3.867   3.328  0.5537  0.5695  0.5060
19545TIP3   OH280125   6.268   1.330   0.296 -0.1667 -0.1177  0.1936
19545TIP3    H180126   6.203   1.283   0.244  1.4513 -1.3383 -0.7947
19545TIP3    H280127   6.338   1.352   0.234  0.4182  1.1239  1.2391
19546TIP3   OH280128   4.325   4.752  11.228 -0.3285  0.7248  0.0938
19546TIP3    H180129   4.260   4.798  11.175 -1.7431 -1.1088  0.1346
19546TIP3    H280130   4.407   4.799  11.212 -1.3377  2.1133 -1.2493
19547TIP3   OH280131   6.479   2.329  10.745  0.0293  0.3124  0.2982
19547TIP3    H180132   6.529   2.342  10.664 -0.3130  1.5953  0.2724
19547TIP3    H280133   6.545   2.336  10.815  0.0022  1.2834  0.2297
19548TIP3   OH280134   6.513   6.665   5.462  0.5231 -0.3104 -0.1547
19548TIP3    H180135   6.553   6.718   5.393  1.2859  0.9727  1.2181
19548TIP3    H280136   6.437   6.715   5.490 -0.9365 -1.7629 -1.3462
19549TIP3   OH280137   2.133   3.247   2.837 -0.1160  0.5164 -0.8422
19549TIP3    H180138   2.150   3.164   2.881 -0.9806  0.1291 -1.2147
19549TIP3    H280139   2.129   3.311   2.908  2.3166  0.5835 -0.6739
19550TIP3   OH280140   2.542   2.723  15.460  0.0753  0.7049  0.0620
19550TIP3    H180141   2.544   2.799  15.520  1.2621  0.3291  0.5087
19550TIP3    H280142   2.624   2.678  15.475  0.9591  1.2214 -2.7034
19551TIP3   OH280143   5.429   0.591  16.791  0.3936 -0.3104  0.1837
19551TIP3    H180144   5.411   0.670  16.740 -1.0439 -1.1630 -0.6988
19551TIP3    H280145   5.400   0.614  16.880  0.9927  0.4954  0.1859
19552TIP3   OH280146   4.949   6.785  15.916 -0.3001 -0.6106  0.3331
19552TIP3    H180147   4.891   6.776  15.991  1.3356  0.5693  1.8019
19552TIP3    H280148   5.012   6.713  15.925  1.7592  1.2638  1.9105
19553TIP3   OH280149   2.888   2.745   6.345  0.0543 -0.3448 -0.6051
19553TIP3    H180150   2.810   2.691   6.336 -1.0413  1.4901 -3.5446
19553TIP3    H280151   2.882   2.781   6.434 -1.4164 -1.6861 -0.1101
19554TIP3   OH280152   3.585   4.543  13.018  0.9474 -0.2218 -0.3994
19554TIP3    H180153   3.537   4.613  12.975  0.3353 -0.8293 -0.7172
19554TIP3    H280154   3.677   4.568  13.010  0.8608 -0.3150 -2.0690
19555TIP3   OH280155   5.846   5.458  13.689  0.4925 -0.3969  0.0362
19555TIP3    H180156   5.777   5.524  13.688 -0.0795 -0.9889  0.0602
19555TIP3    H280157   5.909   5.490  13.753  0.3003  0.2046 -0.0742
19556TIP3   OH280158   1.915   6.297  14.215  0.5280  0.0521 -0.3528
19556TIP3    H180159   1.929   6.207  14.243 -0.0000  0.2114  0.4469
19556TIP3    H280160   1.824   6.315  14.239 -0.6963 -0.4761 -3.9721
19557TIP3   OH280161   6.609   4.905   6.145  0.9207  0.0763 -0.2536
19557TIP3    H180162   6.683   4.931   6.201  0.3712  1.2305 -0.0234
19557TIP3    H280163   6.648   4.892   6.058  1.6054 -0.6789  0.1492
19558TIP3   OH280164   1.727   5.818   0.505 -0.4184 -0.6481  0.3063
19558TIP3    H180165   1.742   5.779   0.591  0.7026 -1.4172 -0.2152
19558TIP3    H280166   1.809   5.804   0.457 -0.7342  0.5000 -0.6185
19559TIP3   OH280167   5.510   5.162   5.520 -0.2177 -0.5065 -0.2828
19559TIP3    H180168   5.446   5.176   5.590 -2.8146 -0.5596 -2.5066
19559TIP3    H280169   5.458   5.152   5.441  2.6128  0.5937 -2.4625
19560TIP3   OH280170   3.101   6.446  10.661 -0.3520  0.0995 -0.2361
19560TIP3    H180171   3.185   6.412  10.693  0.6567 -1.5143 -3.9652
19560TIP3    H280172   3.037   6.382  10.692  0.0128  0.4309  1.2677
19561TIP3   OH280173   6.261   6.370  15.467  0.2145 -0.5963 -0.4233
19561TIP3    H180174   6.311   6.351  15.387  2.7120 -0.9879  1.0929
19561TIP3    H280175   6.309   6.323  15.536 -1.5928  0.0709  1.3882
19562TIP3   OH280176   0.015   1.703  16.704 -0.3100 -0.4283 -0.3655
19562TIP3    H180177   0.099   1.707  16.658 -1.7022  0.3862 -3.0275
19562TIP3    H280178   0.021   1.772  16.771  0.9036  0.0304 -0.9226
19563TIP3   OH280179   1.501   6.338  17.332 -0.4178 -0.3655  0.0030
19563TIP3    H180180   1.500   6.363  17.239 -4.2072  0.2223  0.0328
19563TIP3    H280181   1.544   6.253  17.333 -0.2765 -0.3949 -2.3190
19564TIP3   OH280182   3.269   6.456   5.132  0.0817 -0.1172  0.0255
19564TIP3    H180183   3.278   6.479   5.224 -0.2312  1.2591 -0.2525
19564TIP3    H280184   3.334   6.388   5.117  0.2779 -0.2144  1.2052
19565TIP3   OH280185   5.782   6.153  15.740 -0.4464 -0.1268  0.3515
19565TIP3    H180186   5.784   6.063  15.706  0.6233 -0.3704  1.0315
19565TIP3    H280187   5.841   6.152  15.815 -1.3961  0.8474  1.1470
19566TIP3   OH280188   2.253   1.495   1.287 -0.0026 -0.2562 -0.2856
19566TIP3    H180189   2.169   1.520   1.326  0.3056  0.5686 -0.1356
19566TIP3    H280190   2.286   1.575   1.247 -0.3830 -1.0995 -2.4235
19567TIP3   OH280191   6.006   6.577  15.768  0.4726  0.2359  0.4396
19567TIP3    H180192   5.914   6.558  15.750  0.3042  1.2266  0.2086
19567TIP3    H280193   6.050   6.492  15.759 -0.3168 -0.1312 -0.0776
19568TIP3   OH280194   4.449   0.919   2.786 -0.3388  0.3612  0.4390
19568TIP3    H180195   4.480   0.839   2.829  0.4004  0.0726 -0.5975
19568TIP3    H280196   4.425   0.891   2.698  0.1341  1.3234 -0.0053
19569TIP3   OH280197   1.070   0.561  16.654  0.0062  0.2111  0.0645
19569TIP3    H180198   1.056   0.549  16.748 -0.2616 -0.5971 -0.0725
19569TIP3    H280199   1.093   0.654  16.644 -2.3764  0.9309  0.6554
19570TIP3   OH280200   3.271   4.100   2.584 -0.6131 -0.3178 -0.3119
19570TIP3    H180201   3.242   4.051   2.507  0.6506 -0.4675 -0.7076
19570TIP3    H280202   3.194   4.153   2.609 -0.8725  0.1818 -2.0262
19571TIP3   OH280203   2.075   3.297   4.052  0.3129  0.1577  0.2073
19571TIP3    H180204   2.026   3.283   4.133  0.5050  0.2980  0.3482
19571TIP3    H280205   2.126   3.217   4.040 -1.0993 -0.6485 -0.7595
19572TIP3   OH280206   6.452   4.086  13.795 -0.2444  0.5750 -0.0088
19572TIP3    H180207   6.524   4.058  13.850  0.3992  0.2548 -0.9842
19572TIP3    H280208   6.392   4.011  13.792 -0.0670  0.4372 -0.0954
19573TIP3   OH280209   0.728   2.879  15.178  0.3876  0.1653 -0.3219
19573TIP3    H180210   0.697   2.789  15.164 -2.1234  0.4288  2.4610
19573TIP3    H280211   0.807   2.885  15.125  1.8655 -4.3196  0.9034
19574TIP3   OH280212   2.691   4.920  13.442  0.4594  0.2414 -0.1738
19574TIP3    H180213   2.780   4.882  13.440  1.0107  1.4557  0.4262
19574TIP3    H280214   2.633   4.844  13.434  1.5446 -0.5932 -0.4647
19575TIP3   OH280215   6.682   1.603  14.891  0.0912  0.1075  0.2422
19575TIP3    H180216   6.641   1.521  14.917 -0.4717  0.8980  1.9918
19575TIP3    H280217   6.627   1.637  14.821 -0.2040 -0.5362  0.1570
19576TIP3   OH280218   6.755   0.860   6.454 -0.6692 -0.1169  0.1434
19576TIP3    H180219   6.771   0.767   6.468 -0.8658  0.0380  1.5902
19576TIP3    H280220   6.827   0.889   6.399 -0.0147 -0.9083  0.5615
19577TIP3   OH280221   4.370   2.680  11.992 -0.6451 -0.4645  0.2852
19577TIP3    H180222   4.301   2.614  11.985  0.5529 -1.5673 -1.7209
19577TIP3    H280223   4.340   2.737  12.064 -4.0742 -0.3624 -1.0275
19578TIP3   OH280224   6.574   3.615   0.741  0.1500 -0.9584  0.3809
19578TIP3    H180225   6.519   3.687   0.711 -0.6098 -0.6875  2.3118
19578TIP3    H280226   6.645   3.657   0.789  0.6681 -1.4363  0.0510
19579TIP3   OH280227   5.094   2.603  15.617  0.0508 -0.0116 -0.0483
19579TIP3    H180228   5.061   2.513  15.611 -0.8777  0.0996  2.4445
19579TIP3    H280229   5.100   2.632  15.526  2.2300 -3.1984 -1.0889
19580TIP3   OH280230   4.296   6.269  15.058  0.4284 -0.5857  0.0372
19580TIP3    H180231   4.211   6.245  15.021  0.2400 -0.0509  0.1219
19580TIP3    H280232   4.317   6.353  15.019  0.2620 -0.0419  1.0709
19581TIP3   OH280233   2.262   3.084  15.711 -0.6659 -0.1719  0.2812
19581TIP3    H180234   2.248   2.998  15.749 -0.1253 -0.0029  0.8789
19581TIP3    H280235   2.264   3.069  15.616  3.4183 -1.5071  0.3908
19582TIP3   OH280236   2.612   1.084   2.972  0.2654  0.2192 -0.0872
19582TIP3    H180237   2.699   1.065   3.006 -0.3374 -0.5318  1.0864
19582TIP3    H280238   2.575   1.146   3.034  0.8397  2.5157 -1.9098
19583TIP3   OH280239   0.477   1.996   2.863  0.0322 -0.6650 -0.0765
19583TIP3    H180240   0.465   1.903   2.847  1.4693 -0.9301  0.2078
19583TIP3    H280241   0.535   1.999   2.939 -1.2582  0.4876  0.9135
19584TIP3   OH280242   0.124   3.902   4.044  0.3208  0.1223 -0.7355
19584TIP3    H180243   0.140   3.813   4.075  0.2249  0.1075 -0.7298
19584TIP3    H280244   0.177   3.957   4.103 -0.0295  0.1133 -0.4076
19585TIP3   OH280245   4.227   5.679   5.673  0.3156  0.5288 -0.0897
19585TIP3    H180246   4.289   5.607   5.683 -0.1563  0.0396 -0.6503
19585TIP3    H280247   4.148   5.649   5.718  0.5674  1.2858  0.9183
19586TIP3   OH280248   6.332   3.121  15.114 -0.9439 -0.1233 -1.1876
19586TIP3    H180249   6.403   3.062  15.137 -0.8364  0.4741  0.1143
19586TIP3    H280250   6.253   3.068  15.121 -0.8312 -0.1822 -0.2079
19587TIP3   OH280251   2.294   1.438  11.446  0.4364  0.1522 -0.4610
19587TIP3    H180252   2.316   1.531  11.445 -0.4419  0.3784 -1.7017
19587TIP3    H280253   2.373   1.395  11.478  0.3150  1.4334  1.7340
19588TIP3   OH280254   5.841   0.225   4.160 -0.5364  0.4437  0.0999
19588TIP3    H180255   5.871   0.316   4.163  0.8168 -0.0036  1.8230
19588TIP3    H280256   5.750   0.229   4.190 -0.6801  1.2828 -0.4093
19589TIP3   OH280257   6.457   5.574  12.555  0.1316  0.3551  0.0427
19589TIP3    H180258   6.390   5.516  12.520 -0.2093  0.8983 -0.2199
19589TIP3    H280259   6.540   5.528  12.541 -0.0800  0.1958 -0.7066
19590TIP3   OH280260   0.244   3.819  13.974  0.3621  0.1133  0.5314
19590TIP3    H180261   0.241   3.915  13.967 -2.1697  0.1682  1.2548
19590TIP3    H280262   0.296   3.802  14.053  1.0203  0.8835  0.2700
19591TIP3   OH280263   2.907   5.539  11.007  0.1750 -0.3356  0.1335
19591TIP3    H180264   2.946   5.461  10.968  1.0624 -1.1067  2.4057
19591TIP3    H280265   2.817   5.515  11.026 -0.5762  0.3620 -2.1118
19592TIP3   OH280266   4.162   2.654  13.278  0.3943  0.3536  0.2522
19592TIP3    H180267   4.233   2.707  13.240 -0.1301  2.0206  1.5215
19592TIP3    H280268   4.165   2.573  13.227  1.5387  1.3776 -1.4548
19593TIP3   OH280269   1.358   2.980   2.866  0.3486  0.1435 -0.2866
19593TIP3    H180270   1.419   3.012   2.933 -0.1861 -1.1719  0.8631
19593TIP3    H280271   1.344   2.888   2.887  1.7006 -0.9424 -3.3906
19594TIP3   OH280272   2.527   4.000  16.892  0.6324  0.2035  0.3671
19594TIP3    H180273   2.557   3.910  16.883 -1.3813 -0.5738  0.9743
19594TIP3    H280274   2.542   4.039  16.805 -0.7133 -1.4428 -0.6522
19595TIP3   OH280275   3.961   3.671   2.249 -0.8893 -0.4975  0.1889
19595TIP3    H180276   3.892   3.644   2.310 -1.1388 -0.0289  0.1220
19595TIP3    H280277   3.969   3.765   2.262  0.6594 -0.7247  1.1261
19596TIP3   OH280278   4.855   1.220   2.878  0.4937 -0.4583  0.1899
19596TIP3    H180279   4.912   1.279   2.829  0.1643 -0.2599  0.0384
19596TIP3    H280280   4.783   1.200   2.818 -0.2102  0.2394  0.7778
19597TIP3   OH280281   0.156   2.933   2.759  0.3474  0.3397 -0.0179
19597TIP3    H180282   0.140   3.019   2.796  0.1412  0.7694 -1.0698
19597TIP3    H280283   0.080   2.881   2.785  0.1081  0.6884 -0.0244
19598TIP3   OH280284   5.972   1.799   4.861 -0.3868  0.5323 -0.2553
19598TIP3    H180285   5.983   1.872   4.800  1.4349  0.4494 -0.0754
19598TIP3    H280286   5.927   1.732   4.810 -0.8706  1.2760 -0.8300
19599TIP3   OH280287   2.350   0.393  17.241  0.1043  0.0837  0.0243
19599TIP3    H180288   2.330   0.299  17.239 -0.1970  0.1595 -0.9330
19599TIP3    H280289   2.285   0.430  17.302  0.2720 -0.3295  0.4652
19600TIP3   OH280290   3.472   5.685  14.943  0.3893  0.6335  0.8845
19600TIP3    H180291   3.563   5.691  14.970  1.5272 -1.1714 -2.0334
19600TIP3    H280292   3.441   5.603  14.981  0.9758 -0.2543 -0.4695
19601TIP3   OH280293   2.394   4.086   2.622  0.5430 -0.6636  0.0774
19601TIP3    H180294   2.448   4.071   2.544  1.1849 -0.1631  0.4146
19601TIP3    H280295   2.335   4.157   2.597 -1.4188 -2.5423 -0.9874
19602TIP3   OH280296   0.744   1.367   3.281  0.1171  0.0456  0.2764
19602TIP3    H180297   0.686   1.341   3.353 -1.0172 -0.4444 -0.7819
19602TIP3    H280298   0.752   1.289   3.227  0.9211  0.4240 -0.1697
19603TIP3   OH280299   6.744   0.959   1.054  0.0050 -0.4222  0.1917
19603TIP3    H180300   6.805   1.024   1.089  0.4857  0.0470 -1.4193
19603TIP3    H280301   6.666   1.009   1.029  1.6229  0.3679 -4.3107
19604TIP3   OH280302   2.062   1.837   2.254  0.3153 -0.0703 -0.3282
19604TIP3    H180303   1.988   1.782   2.281  1.0418 -0.1083  1.7454
19604TIP3    H280304   2.095   1.796   2.175 -0.4977 -1.3602 -0.0245
19605TIP3   OH280305   6.402   1.438   2.472 -0.1637 -0.1562 -0.0357
19605TIP3    H180306   6.455   1.436   2.392  0.2528 -1.7936  0.2276
19605TIP3    H280307   6.320   1.479   2.446  0.3565  0.2925 -1.0351
19606TIP3   OH280308   0.849   6.193  13.397 -0.5253 -0.8361  0.2030
19606TIP3    H180309   0.805   6.279  13.394  1.9834  0.6410  1.6390
19606TIP3    H280310   0.821   6.155  13.481  0.8346  0.1440  1.1602
19607TIP3   OH280311   0.615   6.225   0.631  0.5259  0.1414  0.1170
19607TIP3    H180312   0.577   6.151   0.582 -1.3768  1.0457  0.1106
19607TIP3    H280313   0.707   6.227   0.604  0.3140 -1.4205 -0.8717
19608TIP3   OH280314   2.582   4.218   5.007  0.4095 -0.1516 -0.0769
19608TIP3    H180315   2.667   4.242   5.044  1.0690 -1.9219 -0.3311
19608TIP3    H280316   2.555   4.140   5.057  0.3237 -1.3353 -1.8566
19609TIP3   OH280317   3.105   6.692  17.063 -0.3122  0.2779 -0.3918
19609TIP3    H180318   3.095   6.755  17.135  0.3232 -1.9265  1.7501
19609TIP3    H280319   3.185   6.719  17.019 -0.2523  1.1698  0.2283
19610TIP3   OH280320   3.126   5.284  17.171 -0.2407  0.1274 -0.0887
19610TIP3    H180321   3.132   5.287  17.266 -1.1148  0.5854 -0.0462
19610TIP3    H280322   3.162   5.367  17.142  1.0043 -0.4312 -0.2256
19611TIP3   OH280323   3.544   3.806   4.632 -0.3415  0.0696 -0.3134
19611TIP3    H180324   3.633   3.805   4.595 -0.5090 -0.7728 -0.7163
19611TIP3    H280325   3.494   3.747   4.576 -1.4969  1.5360 -0.8851
19612TIP3   OH280326   4.212   5.351  12.172 -0.1830 -0.3436 -0.0767
19612TIP3    H180327   4.289   5.323  12.221 -0.9582 -1.2927  0.6401
19612TIP3    H280328   4.242   5.426  12.121  0.8313  0.2207  1.2897
19613TIP3   OH280329   1.652   3.083  14.487 -0.3730 -0.2392  0.0577
19613TIP3    H180330   1.651   3.091  14.392 -0.1655 -1.2193 -0.0430
19613TIP3    H280331   1.567   3.045  14.509 -0.7111  0.6564  0.3441
19614TIP3   OH280332   1.046   2.058  16.257  0.0565  0.1338 -0.1209
19614TIP3    H180333   1.036   1.965  16.273  0.5997  0.4039  2.1419
19614TIP3    H280334   1.139   2.070  16.241  0.0370  0.3285 -0.0949
19615TIP3   OH280335   4.466   4.195  13.040  0.2216 -0.1206 -0.0799
19615TIP3    H180336   4.457   4.274  12.987 -0.8970  0.1935  0.5426
19615TIP3    H280337   4.401   4.135  13.005  0.3409 -0.3698  0.1268
19616TIP3   OH280338   4.603   4.756   1.567 -0.2801  0.1231 -0.1870
19616TIP3    H180339   4.601   4.839   1.615 -2.1260 -1.0211  1.8884
19616TIP3    H280340   4.665   4.702   1.616 -0.9388 -0.5146 -0.0503
19617TIP3   OH280341   3.552   0.630  15.097 -0.2488  0.4738 -0.0828
19617TIP3    H180342   3.594   0.710  15.066  0.2353  0.4292  0.4346
19617TIP3    H280343   3.476   0.618  15.040 -1.7435  2.6283  1.3341
19618TIP3   OH280344   0.401   0.094  15.254  0.0854 -0.2911 -0.0824
19618TIP3    H180345   0.465   0.023  15.250  0.7023  0.1757  1.1110
19618TIP3    H280346   0.369   0.093  15.344 -1.1700 -0.1326 -0.4942
19619TIP3   OH280347   1.270   3.898  16.611  0.5120 -0.6089 -0.1889
19619TIP3    H180348   1.176   3.918  16.608  0.1926 -1.6478  1.5206
19619TIP3    H280349   1.282   3.829  16.546  0.4672  0.7036 -1.6663
19620TIP3   OH280350   6.450   4.201  11.358 -0.0797  0.4811  0.1503
19620TIP3    H180351   6.394   4.190  11.281  0.6992 -0.5255 -0.3019
19620TIP3    H280352   6.406   4.150  11.426  0.9848 -1.5770 -0.6074
19621TIP3   OH280353   5.806   3.053  17.246 -0.0149  0.4776 -0.5967
19621TIP3    H180354   5.748   3.011  17.310  2.6945 -1.4011  0.8376
19621TIP3    H280355   5.858   3.114  17.298  0.4145  0.9197 -1.5317
19622TIP3   OH280356   0.359   6.691   3.525  0.1931  0.2393  0.2941
19622TIP3    H180357   0.320   6.612   3.563  0.6991  0.3436  1.0684
19622TIP3    H280358   0.402   6.661   3.445 -0.2663 -0.1293  0.1841
19623TIP3   OH280359   1.610   0.329  12.053 -0.1314 -0.1007  0.4663
19623TIP3    H180360   1.560   0.346  11.973  1.0986  1.4800 -0.0388
19623TIP3    H280361   1.702   0.330  12.024  0.3610  0.8470  1.9241
19624TIP3   OH280362   0.517   1.685   0.480 -0.4825  0.3775 -0.4742
19624TIP3    H180363   0.573   1.649   0.411  0.5911 -0.8847  0.9833
19624TIP3    H280364   0.433   1.701   0.437  0.0737 -0.6149 -2.0061
19625TIP3   OH280365   6.385   3.274   1.983  0.7033 -0.4025  0.2117
19625TIP3    H180366   6.310   3.305   1.934  0.6534 -0.3178  0.3413
19625TIP3    H280367   6.457   3.332   1.957  0.4236  0.3521  1.0702
19626TIP3   OH280368   1.306   0.476  10.972  0.3679 -0.6956  0.3039
19626TIP3    H180369   1.340   0.409  11.032  0.5393 -0.3170  0.6344
19626TIP3    H280370   1.378   0.493  10.913  0.3095 -0.8319  0.1927
19627TIP3   OH280371   1.690   6.639   3.920 -0.1843 -0.3139  0.2085
19627TIP3    H180372   1.614   6.583   3.900 -0.3007 -0.1119  0.0857
19627TIP3    H280373   1.758   6.577   3.946 -0.4629 -0.4832  0.5530
19628TIP3   OH280374   3.433   3.168   2.236 -0.0207 -0.1924  0.3570
19628TIP3    H180375   3.521   3.202   2.255 -0.1727 -0.3882  1.4541
19628TIP3    H280376   3.437   3.075   2.259  0.0966 -0.7398 -1.6771
19629TIP3   OH280377   4.313   1.774   3.728 -0.1870  0.3619  0.0970
19629TIP3    H180378   4.307   1.832   3.653 -1.3155  0.0029 -0.0972
19629TIP3    H280379   4.391   1.805   3.776  1.6886 -0.5371 -2.1675
19630TIP3   OH280380   5.771   4.070  16.919  0.5532  0.3394 -0.0593
19630TIP3    H180381   5.700   4.128  16.945  1.7721  2.2248 -0.7452
19630TIP3    H280382   5.830   4.069  16.994  1.1408  1.0238 -0.4949
19631TIP3   OH280383   2.103   5.730   6.001  0.0950 -0.4060 -0.0209
19631TIP3    H180384   2.077   5.755   6.089  2.1646 -0.8954  0.7966
19631TIP3    H280385   2.130   5.638   6.010  1.7718 -0.0196 -0.8027
19632TIP3   OH280386   5.439   4.037   3.684 -0.4937  0.1710 -0.1019
19632TIP3    H180387   5.346   4.057   3.674 -0.3258  0.2665 -1.7038
19632TIP3    H280388   5.482   4.123   3.688 -0.4410  0.1267  0.3535
19633TIP3   OH280389   3.565   0.151  12.401 -0.1148  0.0637 -0.1901
19633TIP3    H180390   3.622   0.226  12.385 -1.4286  1.6413  2.0080
19633TIP3    H280391   3.532   0.126  12.315  1.7921  0.7757 -1.1861
19634TIP3   OH280392   4.567   6.761  12.205 -0.1046 -0.6093 -0.2609
19634TIP3    H180393   4.588   6.778  12.297  1.0352  0.3646 -0.6687
19634TIP3    H280394   4.485   6.808  12.190  0.8133  1.0707 -0.2602
19635TIP3   OH280395   4.436   5.538   4.721 -0.1056  0.5306  0.2101
19635TIP3    H180396   4.390   5.607   4.769  1.3738  0.9878  1.0592
19635TIP3    H280397   4.445   5.572   4.632  0.1426  1.2146  0.4892
19636TIP3   OH280398   2.103   5.944  12.342  0.1162 -0.2692  0.1697
19636TIP3    H180399   2.042   5.910  12.277 -1.0435  1.0867  0.4975
19636TIP3    H280400   2.066   6.028  12.368  0.1874 -1.0516  3.0806
19637TIP3   OH280401   1.416   4.304  14.983  0.2256 -0.2529 -0.6878
19637TIP3    H180402   1.395   4.328  14.893  1.6976  2.1206 -0.5013
19637TIP3    H280403   1.430   4.388  15.027 -0.2092 -1.3530  1.7106
19638TIP3   OH280404   3.503   4.410   5.734  0.5457 -0.7304  0.4035
19638TIP3    H180405   3.531   4.366   5.654  1.1919 -3.3920  2.0021
19638TIP3    H280406   3.410   4.392   5.740 -0.0752  1.5391 -0.8806
19639TIP3   OH280407   3.875   6.321  14.597 -0.0073  0.0591 -0.3498
19639TIP3    H180408   3.780   6.319  14.581  0.0745 -2.2528 -0.8448
19639TIP3    H280409   3.910   6.365  14.519 -0.6656  1.1560 -0.0515
19640TIP3   OH280410   6.665   3.423   3.612  0.3969 -0.5689 -0.3522
19640TIP3    H180411   6.580   3.380   3.614  0.4151 -0.7043 -1.7833
19640TIP3    H280412   6.691   3.428   3.704 -1.9586  1.1266  0.2924
19641TIP3   OH280413   0.973   4.481   5.982 -0.5777 -0.0392 -0.3639
19641TIP3    H180414   0.946   4.520   5.899 -1.5566  1.4676  0.6141
19641TIP3    H280415   1.050   4.428   5.960  0.6272  2.1631 -1.8512
19642TIP3   OH280416   4.996   3.312   2.824  0.0839 -0.2932 -0.5859
19642TIP3    H180417   5.003   3.392   2.877 -0.4991 -1.5266  1.4771
19642TIP3    H280418   5.061   3.323   2.755  0.5442  1.6339  0.0863
19643TIP3   OH280419   0.920   0.399  16.471 -0.1162  0.2717  0.2923
19643TIP3    H180420   0.977   0.427  16.542 -0.3330  0.7127  0.2939
19643TIP3    H280421   0.851   0.465  16.468 -0.0396  0.3262 -0.4133
19644TIP3   OH280422   2.113   5.305   1.203  0.1104  0.5202  1.1426
19644TIP3    H180423   2.182   5.258   1.249 -0.1760  0.6706  1.7385
19644TIP3    H280424   2.111   5.267   1.115 -0.6516 -1.1249  1.8413
19645TIP3   OH280425   5.110   5.611  12.463 -0.2624  0.5781 -0.3042
19645TIP3    H180426   5.154   5.682  12.509  1.0340 -0.7280  0.5549
19645TIP3    H280427   5.173   5.539  12.465 -1.1953 -0.3291 -1.9124
19646TIP3   OH280428   4.852   5.353   0.449  0.4169  0.5492 -0.0803
19646TIP3    H180429   4.830   5.289   0.516 -1.4572  1.8372  0.6098
19646TIP3    H280430   4.901   5.303   0.383 -0.2491 -1.3845  0.8152
19647TIP3   OH280431   5.571   3.015  11.711 -0.7842 -0.1111  0.2667
19647TIP3    H180432   5.495   3.017  11.653 -2.8123  0.6088  2.7837
19647TIP3    H280433   5.582   2.922  11.733 -0.8438 -0.2254 -0.1679
19648TIP3   OH280434   1.339   5.479  15.699 -0.0331  0.4027  0.0240
19648TIP3    H180435   1.405   5.462  15.766  0.3385  0.1862 -0.3868
19648TIP3    H280436   1.387   5.470  15.616 -0.4996  0.5938 -0.2691
19649TIP3   OH280437   5.384   6.677   1.322  0.0328 -0.2847 -0.0185
19649TIP3    H180438   5.304   6.626   1.313 -0.1947  0.1411 -0.4695
19649TIP3    H280439   5.453   6.612   1.337 -0.3305 -0.6790 -0.0412
19650TIP3   OH280440   5.811   2.719  12.863 -0.2628 -0.0152  0.3639
19650TIP3    H180441   5.892   2.691  12.820 -0.3789 -1.9495  1.3072
19650TIP3    H280442   5.840   2.759  12.945 -0.2364 -2.1295  1.4667
19651TIP3   OH280443   1.982   0.577  14.838 -0.2182  0.0146  0.4538
19651TIP3    H180444   1.997   0.495  14.884  0.4688  0.5302  1.1893
19651TIP3    H280445   1.982   0.644  14.907 -1.0103  0.6113 -0.0956
19652TIP3   OH280446   5.837   0.909   1.053 -0.5788  0.4201  0.0281
19652TIP3    H180447   5.860   0.973   0.986  1.6028 -0.7187 -0.3908
19652TIP3    H280448   5.761   0.947   1.097  0.7228  3.3738 -0.0610
19653TIP3   OH280449   6.472   5.655   2.308  0.0754 -0.4489 -0.0936
19653TIP3    H180450   6.529   5.631   2.380 -1.1936  0.4975  1.2966
19653TIP3    H280451   6.471   5.751   2.309  1.5119 -0.3344 -2.6149
19654TIP3   OH280452   2.561   0.534  16.550  0.3186  0.5069  0.3420
19654TIP3    H180453   2.644   0.540  16.597  0.4943 -1.1279  0.3065
19654TIP3    H280454   2.496   0.567  16.611  0.7158 -0.3596  1.2691
19655TIP3   OH280455   5.111   3.439  13.518  0.0666 -0.5286 -0.3602
19655TIP3    H180456   5.197   3.433  13.475 -1.3183  0.5152 -3.5458
19655TIP3    H280457   5.121   3.512  13.579  1.4324 -0.4252 -0.6572
19656TIP3   OH280458   3.789   3.642  12.107  0.5499  0.0846  0.1563
19656TIP3    H180459   3.873   3.686  12.124  1.0902 -0.5430 -0.7974
19656TIP3    H280460   3.812   3.550  12.097 -0.0121  0.1049 -1.7010
19657TIP3   OH280461   5.084   5.915  16.794  0.3713  0.2015  0.7609
19657TIP3    H180462   5.163   5.948  16.751 -0.4433  1.3599  0.0747
19657TIP3    H280463   5.100   5.822  16.807  0.9295 -0.0826 -1.5110
19658TIP3   OH280464   2.780   6.592  16.749 -0.4340 -0.3498 -0.2224
19658TIP3    H180465   2.717   6.520  16.744  1.6606 -2.3716  0.9266
19658TIP3    H280466   2.752   6.643  16.825 -1.1808 -0.7150 -0.2455
19659TIP3   OH280467   4.510   5.830  12.812 -0.1382 -0.2012 -0.3740
19659TIP3    H180468   4.418   5.838  12.785 -0.1178  0.6397 -0.1999
19659TIP3    H280469   4.543   5.756  12.760 -0.6176  0.1751 -1.2354
19660TIP3   OH280470   2.588   4.021  10.694 -0.9864 -0.7408  1.1570
19660TIP3    H180471   2.575   4.006  10.788 -0.6067 -1.8183  1.0532
19660TIP3    H280472   2.671   4.068  10.688 -0.9204 -0.8324  1.3542
19661TIP3   OH280473   0.687   6.282  15.465 -0.2369  0.2686 -0.4751
19661TIP3    H180474   0.642   6.241  15.391 -0.1825 -0.9830  0.1695
19661TIP3    H280475   0.768   6.233  15.474 -0.5612 -0.0738  0.8525
19662TIP3   OH280476   3.360   0.925   4.754 -0.5183 -0.0130  0.0001
19662TIP3    H180477   3.386   1.016   4.737  0.2693 -0.4887 -1.4485
19662TIP3    H280478   3.340   0.889   4.667 -0.5357 -1.3233  0.5293
19663TIP3   OH280479   0.996   5.047  12.852 -0.0981  0.0390  0.5489
19663TIP3    H180480   1.000   5.074  12.760 -0.2384  0.9541  0.8027
19663TIP3    H280481   1.052   4.970  12.857  0.0307  0.0713 -0.2729
19664TIP3   OH280482   2.098   5.644  14.299  0.0645 -0.3709  0.2420
19664TIP3    H180483   2.132   5.722  14.344 -0.7905  0.2909 -0.2200
19664TIP3    H280484   2.156   5.632  14.224  0.4012 -0.3850  0.5021
19665TIP3   OH280485   0.507   1.485   0.098 -0.3157 -0.3961 -0.3578
19665TIP3    H180486   0.602   1.485   0.081 -0.4434  0.7733 -1.2100
19665TIP3    H280487   0.492   1.407   0.152  1.4927  0.6445  1.8416
19666TIP3   OH280488   1.659   2.893   2.171 -0.1366 -0.4501  0.1384
19666TIP3    H180489   1.644   2.982   2.140 -1.0342 -0.5554  0.2403
19666TIP3    H280490   1.679   2.842   2.092  0.9885 -0.0444  0.1523
19667TIP3   OH280491   1.907   6.792   6.223 -0.4974  0.4229  0.0921
19667TIP3    H180492   1.954   6.875   6.231 -1.4719  0.9585  0.4077
19667TIP3    H280493   1.848   6.789   6.298 -0.5226 -0.5335  0.0556
19668TIP3   OH280494   4.923   1.470  12.001  0.1459 -0.0929 -0.9297
19668TIP3    H180495   4.870   1.484  12.079  1.0502 -0.3107 -0.2548
19668TIP3    H280496   4.951   1.557  11.974  1.9697 -0.1668  0.5473
19669TIP3   OH280497   5.354   0.167   1.394  0.1563 -0.0135 -0.2873
19669TIP3    H180498   5.358   0.082   1.350 -0.0509  0.4560 -1.2211
19669TIP3    H280499   5.325   0.146   1.483  2.8795 -1.2719  0.4360
19670TIP3   OH280500   3.011   2.471  15.346 -0.3678 -0.3154 -0.1956
19670TIP3    H180501   3.013   2.444  15.254 -1.4080 -0.4568 -0.1952
19670TIP3    H280502   2.943   2.416  15.385 -0.0060 -0.1816  0.6394
19671TIP3   OH280503   0.150   5.170  11.463  0.1722  0.6230  1.4619
19671TIP3    H180504   0.201   5.151  11.384 -0.0067 -0.6794  1.6423
19671TIP3    H280505   0.207   5.227  11.515  0.7397  0.5951  0.8796
19672TIP3   OH280506   0.732   3.611   0.433 -0.2058 -0.1896  0.3065
19672TIP3    H180507   0.771   3.576   0.353 -1.2318  0.2710 -0.4237
19672TIP3    H280508   0.786   3.687   0.455 -0.8763  0.6711 -0.9020
19673TIP3   OH280509   2.627   1.907  16.062  0.6934 -0.5242 -0.6161
19673TIP3    H180510   2.701   1.917  16.002  0.6821 -0.9209 -0.6988
19673TIP3    H280511   2.562   1.970  16.031  1.0106 -0.1396 -0.5161
19674TIP3   OH280512   4.416   5.023  12.041 -0.2337 -0.1900 -0.1043
19674TIP3    H180513   4.332   5.054  12.009  0.1625  1.0197 -0.0372
19674TIP3    H280514   4.403   5.011  12.135  0.0217  1.3402  0.1522
19675TIP3   OH280515   4.103   4.733   3.661 -0.0017 -0.1552 -0.3916
19675TIP3    H180516   4.088   4.639   3.672 -3.3615  0.1339 -1.2892
19675TIP3    H280517   4.116   4.766   3.750  1.9435 -1.5140 -0.1241
19676TIP3   OH280518   5.285   5.795   5.293  0.8117  0.4079  0.4948
19676TIP3    H180519   5.258   5.799   5.202  1.0627 -0.7547  0.3480
19676TIP3    H280520   5.375   5.762   5.290  0.7029  0.0291  1.1657
19677TIP3   OH280521   5.200   4.721   3.005  0.7591 -0.2212  0.2613
19677TIP3    H180522   5.235   4.640   3.042 -0.2247 -1.1073 -0.6609
19677TIP3    H280523   5.185   4.700   2.913  1.0840  1.2286 -0.1362
19678TIP3   OH280524   2.043   4.369  12.955  0.2658 -0.4561  0.0078
19678TIP3    H180525   2.057   4.337  13.044 -0.5967 -0.0311  0.3052
19678TIP3    H280526   2.045   4.464  12.963  1.2278 -0.4115 -0.6112
19679TIP3   OH280527   0.648   4.086   0.689  0.3335  0.0221  0.2297
19679TIP3    H180528   0.737   4.086   0.722  1.3258 -1.3987 -2.1627
19679TIP3    H280529   0.625   3.993   0.681 -0.8924  0.3490 -0.3570
19680TIP3   OH280530   3.682   5.018  13.798  0.2711 -0.2061 -0.6574
19680TIP3    H180531   3.753   5.012  13.734  0.0890  0.2833 -0.9177
19680TIP3    H280532   3.711   5.085  13.860  0.1773 -0.2341 -0.5842
19681TIP3   OH280533   2.806   4.244   1.608 -0.1319  0.0692 -0.1318
19681TIP3    H180534   2.777   4.302   1.678 -0.1683 -0.0774 -0.0246
19681TIP3    H280535   2.867   4.184   1.650 -1.1587 -0.8719  0.0733
19682TIP3   OH280536   3.383   0.212  12.096  0.1804 -0.2103  0.1605
19682TIP3    H180537   3.341   0.160  12.165 -2.7118  2.5537  0.7498
19682TIP3    H280538   3.349   0.176  12.015 -1.6482  0.5262  0.5491
19683TIP3   OH280539   4.937   4.199  14.812 -0.2727 -0.5681 -0.5458
19683TIP3    H180540   5.031   4.217  14.803 -0.2251  0.3232  1.2411
19683TIP3    H280541   4.917   4.139  14.740  1.5821 -0.4908 -1.1832
19684TIP3   OH280542   4.845   5.905  13.592  0.4303  0.1830 -0.0348
19684TIP3    H180543   4.806   5.933  13.674 -1.6893  0.5604 -1.1015
19684TIP3    H280544   4.920   5.851  13.618  0.7666  1.5634  2.0944
19685TIP3   OH280545   4.416   1.023   4.584 -0.2398 -0.4178 -0.1244
19685TIP3    H180546   4.365   1.059   4.512  1.0286  0.5301 -0.5786
19685TIP3    H280547   4.490   0.979   4.541 -0.6723 -1.8370  0.5161
19686TIP3   OH280548   2.853   2.598  15.796  0.8370  0.0731 -0.7298
19686TIP3    H180549   2.906   2.664  15.842 -0.5925  1.1179 -0.5316
19686TIP3    H280550   2.879   2.515  15.835  0.2637  0.8417  1.4097
19687TIP3   OH280551   4.026   6.602  14.941 -0.1874  0.3723 -0.7558
19687TIP3    H180552   4.036   6.530  15.002  2.6309  0.3058 -1.1521
19687TIP3    H280553   3.999   6.676  14.995  0.5878 -0.0910  0.2915
19688TIP3   OH280554   2.255   4.184  12.444  0.0413 -0.1877 -0.4043
19688TIP3    H180555   2.333   4.237  12.457  0.1142 -0.4822  0.4850
19688TIP3    H280556   2.289   4.096  12.423 -0.0520 -0.2461 -0.3113
19689TIP3   OH280557   3.187   0.691   1.834  0.0395 -0.0162 -0.3386
19689TIP3    H180558   3.173   0.604   1.871 -4.1959  0.4212 -0.4023
19689TIP3    H280559   3.225   0.742   1.905  0.3968 -1.3424  0.4565
19690TIP3   OH280560   4.979   2.128   1.341  0.4249 -0.1914 -0.2964
19690TIP3    H180561   5.045   2.172   1.287 -3.0295  2.9835 -2.4144
19690TIP3    H280562   4.954   2.051   1.290  1.7191 -0.8999  0.0858
19691TIP3   OH280563   5.447   1.115   3.759  0.0698 -0.2251 -0.5290
19691TIP3    H180564   5.358   1.122   3.792  0.5616  1.1734  0.5642
19691TIP3    H280565   5.448   1.030   3.713 -2.2414  0.4236 -1.9676
19692TIP3   OH280566   0.023   4.247  16.776  0.3389 -0.3134 -0.1028
19692TIP3    H180567   0.082   4.184  16.816  0.3794 -1.4211 -1.8079
19692TIP3    H280568  -0.045   4.194  16.734  0.4882  0.7263 -1.7863
19693TIP3   OH280569   2.025   0.445   6.087  0.0356  0.5492  0.0339
19693TIP3    H180570   2.114   0.425   6.115  0.3491 -0.0782 -1.3043
19693TIP3    H280571   2.033   0.526   6.037 -0.5597  1.8207  1.9120
19694TIP3   OH280572   1.275   2.010   0.351 -0.2159  0.0901  0.1987
19694TIP3    H180573   1.294   2.038   0.440  0.2142 -0.0767  0.1635
19694TIP3    H280574   1.336   2.061   0.296 -1.1211  0.9007 -0.0977
19695TIP3   OH280575   5.036   2.656   2.374 -0.7125  0.0289 -0.3916
19695TIP3    H180576   5.039   2.747   2.345  0.4322 -0.0377 -0.5490
19695TIP3    H280577   4.960   2.619   2.329 -0.7849  0.7333 -0.8619
19696TIP3   OH280578   0.639   6.563  16.475  0.1260  0.1322 -0.5820
19696TIP3    H180579   0.669   6.629  16.538  1.9468 -0.4390 -0.7801
19696TIP3    H280580   0.622   6.485  16.528 -0.7102  0.3553 -0.5143
19697TIP3   OH280581   0.415   3.905  12.870  0.1424 -0.8936  0.1039
19697TIP3    H180582   0.487   3.964  12.891 -0.4627 -0.3442  0.7324
19697TIP3    H280583   0.423   3.888  12.776  0.6939 -0.3020  0.0420
19698TIP3   OH280584   0.064   3.374  12.182  0.6821 -0.0127 -0.0508
19698TIP3    H180585  -0.024   3.370  12.220  0.0836 -1.3157 -1.4636
19698TIP3    H280586   0.122   3.352  12.255 -0.4366 -2.5627  0.2076
19699TIP3   OH280587   4.756   1.930   3.031  1.0672 -0.1553  0.1069
19699TIP3    H180588   4.680   1.884   2.995  1.2409 -0.1126 -0.3190
19699TIP3    H280589   4.807   1.861   3.074  0.5560 -0.1109  0.8086
19700TIP3   OH280590   6.273   3.527   3.827 -0.5372 -0.1933  0.4431
19700TIP3    H180591   6.184   3.555   3.848 -0.7714 -0.3051 -0.3471
19700TIP3    H280592   6.325   3.607   3.831 -0.2897 -0.4099  2.7242
19701TIP3   OH280593   3.197   2.249   4.678  0.4806 -0.0619  0.0778
19701TIP3    H180594   3.191   2.274   4.771  1.9342  0.7119 -0.0033
19701TIP3    H280595   3.289   2.225   4.667  0.2173 -0.5578 -1.0750
19702TIP3   OH280596   2.691   3.091   5.136 -0.0415 -0.1686 -0.3243
19702TIP3    H180597   2.665   3.030   5.067 -0.5650 -0.7845  0.4019
19702TIP3    H280598   2.614   3.100   5.191  1.0068 -1.5568  1.5189
19703TIP3   OH280599   2.256   4.495  16.691 -0.1319 -0.0696  0.0281
19703TIP3    H180600   2.213   4.411  16.673  0.2511 -0.4942  1.0501
19703TIP3    H280601   2.269   4.496  16.786 -0.1363  1.1579  0.0344
19704TIP3   OH280602   4.230   1.500  13.436 -0.1658 -0.3212 -0.9691
19704TIP3    H180603   4.267   1.414  13.414 -0.4391 -0.3368 -1.3787
19704TIP3    H280604   4.220   1.544  13.352  0.1721  0.2013 -0.7438
19705TIP3   OH280605   1.916   6.000  11.431  0.6193 -0.3246  0.2949
19705TIP3    H180606   1.842   6.044  11.389 -2.2153 -3.0682  2.0102
19705TIP3    H280607   1.958   5.952  11.360 -0.6164 -0.4694 -0.3619
19706TIP3   OH280608   5.911   4.530  12.844 -0.3823 -0.1657  0.3900
19706TIP3    H180609   5.993   4.485  12.865 -0.1550 -0.1433 -0.4211
19706TIP3    H280610   5.930   4.623  12.853 -0.5906 -0.1944  1.1499
19707TIP3   OH280611   3.271   4.865  17.071 -0.7628  0.2120  0.6203
19707TIP3    H180612   3.307   4.863  16.983  0.6793  1.7905  1.1084
19707TIP3    H280613   3.272   4.957  17.095  0.8779 -0.3280  3.0214
19708TIP3   OH280614   0.542   2.297  12.765 -0.1364 -0.5302  0.1530
19708TIP3    H180615   0.594   2.217  12.775  0.0691 -0.4769 -0.4200
19708TIP3    H280616   0.505   2.313  12.851  0.6326 -0.6872  0.5198
19709TIP3   OH280617   5.138   3.477   4.384  0.1466 -0.0296 -0.3648
19709TIP3    H180618   5.230   3.498   4.396 -0.1898  0.2749  2.5748
19709TIP3    H280619   5.092   3.558   4.407 -0.8772 -0.4867 -0.7320
19710TIP3   OH280620   0.959   6.321  16.905 -0.8555 -0.5458 -0.4824
19710TIP3    H180621   0.940   6.324  16.999  1.4875  4.0058  0.1091
19710TIP3    H280622   1.050   6.290  16.900  0.0228  1.8513 -0.8387
19711TIP3   OH280623   2.091   1.912   5.847 -0.9391 -0.4016 -0.3940
19711TIP3    H180624   2.131   1.835   5.807 -1.7343 -0.6760 -0.6781
19711TIP3    H280625   2.107   1.982   5.784  0.3939 -0.1532  0.1783
19712TIP3   OH280626   5.559   3.306  11.385  0.2281  0.2636  0.0578
19712TIP3    H180627   5.591   3.223  11.349  1.0780  0.9790 -0.8851
19712TIP3    H280628   5.554   3.291  11.479  1.4601 -0.5045  0.0228
19713TIP3   OH280629   2.186   0.077  16.465  0.0551 -0.0474  0.1915
19713TIP3    H180630   2.200   0.003  16.406 -3.2491 -1.3960  0.8561
19713TIP3    H280631   2.206   0.043  16.552 -0.0308  0.3068  0.3504
19714TIP3   OH280632   6.492   1.697   5.255 -0.3606 -0.3236 -0.6611
19714TIP3    H180633   6.543   1.749   5.317  0.1103 -1.5284  0.0060
19714TIP3    H280634   6.527   1.608   5.264  0.5959 -0.3263 -3.5882
19715TIP3   OH280635   5.577   2.025  13.640 -0.1363  0.3746  0.0130
19715TIP3    H180636   5.653   2.046  13.585 -0.1446 -0.6135 -0.4094
19715TIP3    H280637   5.545   1.942  13.605 -0.8492  0.3111  0.7858
19716TIP3   OH280638   2.913   6.415   0.682 -0.3366 -0.1927 -0.0229
19716TIP3    H180639   2.922   6.502   0.722  0.0514 -0.4532  0.4640
19716TIP3    H280640   2.987   6.365   0.717 -0.9172 -0.9063  0.1851
19717TIP3   OH280641   1.599   3.750  17.362  0.2638  0.0156 -0.0681
19717TIP3    H180642   1.581   3.657  17.373  1.2309 -0.3195 -1.1424
19717TIP3    H280643   1.513   3.791  17.356 -0.1843 -0.7062  1.0302
19718TIP3   OH280644   2.957   0.604  17.018 -0.2152  0.2324 -0.0696
19718TIP3    H180645   2.975   0.696  16.997 -3.0076  0.9124  0.1089
19718TIP3    H280646   3.029   0.579  17.075  0.5879  2.3555 -0.0393
19719TIP3   OH280647   2.960   5.515   6.775  0.3350  0.1463 -0.0394
19719TIP3    H180648   2.915   5.541   6.695 -0.5184  1.2484  0.7641
19719TIP3    H280649   2.941   5.422   6.784  0.2790  0.0543 -1.0040
19720TIP3   OH280650   3.104   3.322  13.030  0.3790  1.1796 -0.2064
19720TIP3    H180651   3.152   3.246  12.997  2.2846  1.2525  2.1062
19720TIP3    H280652   3.026   3.286  13.072 -0.2471  0.8020 -1.6556
19721TIP3   OH280653   6.341   0.045  16.653  0.2429 -0.1616 -1.0037
19721TIP3    H180654   6.303   0.093  16.727 -0.7838 -2.6695  0.2006
19721TIP3    H280655   6.269   0.041  16.589 -0.1709 -1.2934 -0.4877
19722TIP3   OH280656   5.348   2.174  15.476 -0.3997  0.4278 -0.5745
19722TIP3    H180657   5.372   2.213  15.392 -0.9234  0.6427 -0.6296
19722TIP3    H280658   5.382   2.236  15.541  0.4066  0.0322 -0.6083
19723TIP3   OH280659   5.552   5.290   5.076 -0.2340 -0.4491  0.0794
19723TIP3    H180660   5.576   5.302   4.984  1.0277  0.1681  0.4749
19723TIP3    H280661   5.635   5.273   5.121 -0.6740  0.4761  1.2949
19724TIP3   OH280662   2.497   0.315   4.376  0.2728 -0.0054  0.1246
19724TIP3    H180663   2.441   0.259   4.322 -1.1373  1.9059 -0.5045
19724TIP3    H280664   2.451   0.322   4.460  0.6316 -0.0877  0.3312
19725TIP3   OH280665   5.456   4.876  16.319 -0.2433 -0.0909 -0.7326
19725TIP3    H180666   5.473   4.844  16.230  0.3195  1.0903 -1.0711
19725TIP3    H280667   5.363   4.897  16.320  0.0060  1.1371 -1.4800
19726TIP3   OH280668   2.028   6.639   1.114 -0.1541  0.2731  0.0029
19726TIP3    H180669   2.047   6.712   1.174  0.4881  1.0065 -1.0462
19726TIP3    H280670   2.077   6.565   1.150 -0.1447  0.5766  0.6286
19727TIP3   OH280671   3.345   6.076  13.232  0.4789  0.1466  0.2654
19727TIP3    H180672   3.341   6.163  13.273  0.6535 -0.3567  1.4042
19727TIP3    H280673   3.388   6.021  13.298  1.8589 -0.4494 -1.0743
19728TIP3   OH280674   4.622   1.506  12.693 -0.0060  0.5571 -0.3297
19728TIP3    H180675   4.636   1.533  12.784 -1.3961  0.5196 -0.0811
19728TIP3    H280676   4.547   1.447  12.697  0.6986 -0.4543 -1.3528
19729TIP3   OH280677   1.260   4.632  10.534  0.3637 -0.0148 -0.5811
19729TIP3    H180678   1.269   4.701  10.468  1.8254  1.8312  1.4290
19729TIP3    H280679   1.347   4.626  10.574 -0.6331 -0.5395  1.6559
19730TIP3   OH280680   2.963   3.245  14.309  0.2857  0.4486  0.6878
19730TIP3    H180681   3.028   3.193  14.262  0.2147  0.8457  0.1482
19730TIP3    H280682   3.008   3.326  14.331  0.1232  0.5201  0.7557
19731TIP3   OH280683   2.458   1.339   5.753  0.6896  0.0237  0.0861
19731TIP3    H180684   2.481   1.411   5.695  0.0667  0.0849 -0.0961
19731TIP3    H280685   2.373   1.309   5.720  1.4869 -1.5908 -0.6078
19732TIP3   OH280686   3.538   1.681  14.682  0.1207 -0.5487  0.1537
19732TIP3    H180687   3.497   1.650  14.601 -0.7049  1.4706 -0.2694
19732TIP3    H280688   3.471   1.669  14.749  0.5848 -1.6497  0.4369
19733TIP3   OH280689   2.824   0.979   0.421  0.3436  0.9246 -0.7782
19733TIP3    H180690   2.847   1.036   0.348  0.1619  1.5307 -0.3716
19733TIP3    H280691   2.851   1.028   0.499 -0.1789  0.6344 -0.4061
19734TIP3   OH280692   1.725   6.749   1.424 -0.2336 -0.4528  0.6360
19734TIP3    H180693   1.733   6.792   1.339  1.4689  0.4861  1.2173
19734TIP3    H280694   1.729   6.655   1.404 -0.5964 -0.2705 -0.3604
19735TIP3   OH280695   4.982   1.215  11.877  0.4100  0.3477 -0.1103
19735TIP3    H180696   4.963   1.305  11.903  1.5139  0.4558  0.3292
19735TIP3    H280697   4.936   1.161  11.941  0.9042  0.6053  0.4632
19736TIP3   OH280698   2.487   2.012   4.009 -0.3397  0.6104 -0.3481
19736TIP3    H180699   2.516   2.098   4.041  0.7009  0.3484 -0.5502
19736TIP3    H280700   2.546   1.992   3.937 -0.4633 -0.3493 -0.1985
19737TIP3   OH280701   3.155   1.338  11.469 -0.1790 -0.1950 -0.1175
19737TIP3    H180702   3.213   1.346  11.393  1.1363  0.4370  0.9092
19737TIP3    H280703   3.088   1.406  11.456  0.3702  0.2911 -0.4272
19738TIP3   OH280704   3.876   0.020   1.262  0.2395 -0.5799 -0.2306
19738TIP3    H180705   3.899  -0.067   1.229 -0.9631 -1.5915  1.4340
19738TIP3    H280706   3.912   0.023   1.351 -1.0029  0.0214  0.2867
19739TIP3   OH280707   6.578   0.967   0.546  0.1805 -0.2536  0.4133
19739TIP3    H180708   6.574   1.029   0.473  0.0937  1.3537  1.7134
19739TIP3    H280709   6.648   0.906   0.522 -0.7629 -0.6257 -1.5964
19740TIP3   OH280710   1.026   6.415   1.718 -0.4297  0.1479  0.5989
19740TIP3    H180711   1.030   6.502   1.678  0.4894  0.8216  2.0740
19740TIP3    H280712   0.933   6.392   1.715 -0.6105  0.9446 -0.3080
19741TIP3   OH280713   6.248   4.023   4.320 -0.1838 -0.7861  0.1328
19741TIP3    H180714   6.314   4.073   4.272  0.7152 -0.1351  1.9427
19741TIP3    H280715   6.250   4.060   4.408 -2.5872 -1.1411  0.4009
19742TIP3   OH280716   4.220   5.753  11.926  0.0344 -0.4479  0.4924
19742TIP3    H180717   4.276   5.790  11.857 -2.7349  1.9771 -0.6609
19742TIP3    H280718   4.270   5.766  12.007  1.6538  0.4052 -0.5822
19743TIP3   OH280719   5.874   3.512  14.339  0.4793  0.2940 -0.7750
19743TIP3    H180720   5.828   3.583  14.384  1.2585 -0.6566  1.7097
19743TIP3    H280721   5.814   3.484  14.270 -0.6311  2.1253 -0.6079
19744TIP3   OH280722   2.282   6.165   2.761  0.0456  0.1203  0.9745
19744TIP3    H180723   2.234   6.246   2.747 -1.1979 -0.8261 -0.5739
19744TIP3    H280724   2.221   6.108   2.807  0.6702 -0.1801  1.4466
19745TIP3   OH280725   4.305   4.788   4.687 -0.3388 -0.1344  0.6694
19745TIP3    H180726   4.322   4.774   4.780  0.0934 -0.0447  0.6048
19745TIP3    H280727   4.210   4.801   4.682 -0.7737 -2.7082  0.7604
19746TIP3   OH280728   5.023   6.104   4.671 -0.4049  0.1221  0.5131
19746TIP3    H180729   4.962   6.171   4.699  0.3602  1.1292 -0.1576
19746TIP3    H280730   5.035   6.048   4.748 -0.5559  1.1301  1.2832
19747TIP3   OH280731   4.215   5.366   0.780 -0.2843  0.1613 -0.0737
19747TIP3    H180732   4.280   5.333   0.718  0.5307  0.8819  0.3843
19747TIP3    H280733   4.211   5.460   0.763 -1.3104  0.1112 -0.1762
19748TIP3   OH280734   4.873   1.960   1.644  0.0957 -0.2701  0.7778
19748TIP3    H180735   4.916   2.043   1.665  2.6647 -0.9386 -1.2544
19748TIP3    H280736   4.925   1.894   1.690 -0.8978 -0.8958  1.0312
19749TIP3   OH280737   3.331   5.790  15.771  0.2638  0.3605  0.0070
19749TIP3    H180738   3.408   5.837  15.802  0.5679  0.0978 -0.3447
19749TIP3    H280739   3.359   5.749  15.689  0.0669 -0.5594  0.3816
19750TIP3   OH280740   4.152   5.299   4.025 -0.4055 -0.6333  0.3525
19750TIP3    H180741   4.214   5.371   4.013 -1.7869  0.6838  0.7860
19750TIP3    H280742   4.075   5.325   3.975 -1.7515 -0.7535  2.2623
19751TIP3   OH280743   1.903   0.359   3.860  0.3078 -0.7457 -0.8029
19751TIP3    H180744   1.916   0.453   3.869 -1.4813 -0.6665  3.0549
19751TIP3    H280745   1.866   0.348   3.772 -1.9250  2.5396 -0.4450
19752TIP3   OH280746   0.545   2.275  17.214 -0.4797 -0.3055 -0.1729
19752TIP3    H180747   0.548   2.356  17.163 -1.7160  0.3934  0.7917
19752TIP3    H280748   0.637   2.251  17.227  0.1037  2.4743  1.8198
19753TIP3   OH280749   0.061   4.935   0.799  0.2379 -0.1407 -0.0023
19753TIP3    H180750   0.104   4.863   0.753  1.7507 -0.0328  1.1820
19753TIP3    H280751  -0.003   4.968   0.736  0.2416 -1.8345 -0.9455
19754TIP3   OH280752   4.876   5.436  16.832  0.1918  0.3025 -1.0269
19754TIP3    H180753   4.951   5.384  16.860 -0.4786  0.1569  0.6435
19754TIP3    H280754   4.813   5.372  16.799 -0.1806  0.1437 -0.0413
19755TIP3   OH280755   5.606   0.917  14.507  0.0418  0.0521 -0.3906
19755TIP3    H180756   5.529   0.970  14.484  1.1756  1.0458 -2.1920
19755TIP3    H280757   5.581   0.827  14.486 -1.0681  0.1871  0.3039
19756TIP3   OH280758   0.426   4.647   0.422 -0.0025  0.0841 -0.4423
19756TIP3    H180759   0.385   4.592   0.488  0.6486 -0.5009 -0.5121
19756TIP3    H280760   0.462   4.721   0.471 -1.5595  0.8874 -0.4396
19757TIP3   OH280761   6.643   5.182  13.724 -0.4973  0.1841 -0.5526
19757TIP3    H180762   6.686   5.194  13.809 -1.1019 -2.1104  0.1175
19757TIP3    H280763   6.710   5.210  13.660  0.8008 -0.1980  0.5863
19758TIP3   OH280764   3.904   6.077  14.467  0.4175 -0.0296  0.0908
19758TIP3    H180765   3.823   6.086  14.416 -0.0859  1.8375  1.1335
19758TIP3    H280766   3.910   6.158  14.518  3.7179  0.5768 -0.9905
19759TIP3   OH280767   6.026   0.596  17.186  0.0590 -0.1810  0.0484
19759TIP3    H180768   5.959   0.547  17.234 -0.5876 -0.4853 -1.1453
19759TIP3    H280769   6.014   0.572  17.094  1.1023  0.6010 -0.3221
19760TIP3   OH280770   4.555   5.611  15.082  0.4215 -0.2985  0.3428
19760TIP3    H180771   4.564   5.516  15.073  1.1005 -0.1510 -0.8193
19760TIP3    H280772   4.531   5.641  14.994 -1.9750  0.4045  1.1450
19761TIP3   OH280773   5.114   5.358   3.204  0.2675 -0.3989  0.6624
19761TIP3    H180774   5.183   5.304   3.166  0.2592  0.4253 -0.5761
19761TIP3    H280775   5.118   5.441   3.156 -1.1186 -0.0689  1.0495
19762TIP3   OH280776   3.212   5.151   2.030  0.1446  0.0559  0.0689
19762TIP3    H180777   3.173   5.065   2.046  1.8561 -0.8953 -0.5488
19762TIP3    H280778   3.161   5.211   2.084 -0.3861 -1.5261  1.4180
19763TIP3   OH280779   3.546   4.141   1.860  0.0155 -0.0369  0.1272
19763TIP3    H180780   3.583   4.197   1.792  2.1690 -1.5007 -0.0071
19763TIP3    H280781   3.560   4.052   1.828 -0.3708 -0.7189  1.7679
19764TIP3   OH280782   6.715   3.056   4.659  0.2840 -1.0802 -0.1814
19764TIP3    H180783   6.750   3.118   4.595 -1.9826 -0.5610 -0.9940
19764TIP3    H280784   6.779   2.984   4.660  1.2364 -0.3020 -1.7389
19765TIP3   OH280785   3.653   6.676   0.505  0.2628  0.2657  0.5547
19765TIP3    H180786   3.662   6.763   0.464 -0.6467  0.9115  1.6814
19765TIP3    H280787   3.683   6.689   0.595 -2.0709  0.0142  1.4236
19766TIP3   OH280788   5.575   1.842  12.094  0.4304  0.4130  0.3428
19766TIP3    H180789   5.589   1.748  12.090 -0.2864  0.3025  0.2480
19766TIP3    H280790   5.493   1.853  12.143  0.6847  1.0023  0.6539
19767TIP3   OH280791   2.842   4.484  14.235  0.1114  0.1783  0.2768
19767TIP3    H180792   2.909   4.441  14.180  1.7873  0.4853  1.9996
19767TIP3    H280793   2.874   4.573  14.245 -1.9864  1.1446 -1.0473
19768TIP3   OH280794   0.259   3.427  15.879  0.1328  0.0972  0.3196
19768TIP3    H180795   0.201   3.478  15.935  0.6528  0.0963  0.8661
19768TIP3    H280796   0.201   3.368  15.832 -0.4032  0.7109  0.1977
19769TIP3   OH280797   5.912   5.855  12.712 -0.6270 -0.1741 -0.3500
19769TIP3    H180798   5.874   5.838  12.799  2.2631  0.7809  1.2569
19769TIP3    H280799   5.891   5.947  12.695  1.3578  0.5656  0.8667
19770TIP3   OH280800   1.473   1.881  15.054 -0.1459  0.5306  0.1881
19770TIP3    H180801   1.522   1.956  15.089  0.4625  0.4287 -0.4164
19770TIP3    H280802   1.423   1.917  14.981 -0.3444  0.4762  0.2994
19771TIP3   OH280803   2.416   6.514  15.351  0.2544  0.1985  0.2667
19771TIP3    H180804   2.369   6.594  15.376 -2.4044 -0.7069 -1.4949
19771TIP3    H280805   2.460   6.537  15.269 -0.0829  0.0241  0.0340
19772TIP3   OH280806   1.426   6.706  13.485  0.2384 -0.2149  0.4449
19772TIP3    H180807   1.479   6.781  13.513 -1.2708  0.5703  1.3214
19772TIP3    H280808   1.458   6.634  13.540 -0.9622  0.7362  2.5178
19773TIP3   OH280809   1.847   3.418  13.378 -0.4953 -0.4650  0.0382
19773TIP3    H180810   1.801   3.470  13.444 -0.1586  0.5487 -0.5116
19773TIP3    H280811   1.841   3.470  13.298  1.5191 -0.3271 -0.0856
19774TIP3   OH280812   6.174   5.378   2.536 -0.4444 -0.0800  0.2154
19774TIP3    H180813   6.137   5.463   2.559 -1.7159 -0.6389  0.3140
19774TIP3    H280814   6.134   5.356   2.452  1.5841  0.4022 -0.9414
19775TIP3   OH280815   3.231   2.114   6.317 -0.0341 -0.3855  0.1295
19775TIP3    H180816   3.309   2.115   6.373 -0.0827  0.1109  0.1928
19775TIP3    H280817   3.177   2.043   6.353 -0.0747 -0.0585  0.7365
19776TIP3   OH280818   5.875   3.059  11.755  0.5450  0.0278 -0.1679
19776TIP3    H180819   5.887   3.075  11.848  0.5914 -0.8411 -0.0093
19776TIP3    H280820   5.799   3.000  11.751  0.5083  0.1059 -0.6801
19777TIP3   OH280821   2.902   6.706  10.688  0.0551  0.6173  0.0656
19777TIP3    H180822   2.963   6.766  10.645  1.1186 -0.1326  0.5029
19777TIP3    H280823   2.952   6.626  10.700 -0.6003  0.4144  1.6146
19778TIP3   OH280824   2.938   6.594   4.413 -0.2213 -0.0850 -0.3113
19778TIP3    H180825   2.891   6.673   4.387  0.5412  1.2682  2.0884
19778TIP3    H280826   3.025   6.625   4.439  0.2974 -1.8003  0.1292
19779TIP3   OH280827   6.732   1.183   2.510 -0.4588  0.0653  0.2533
19779TIP3    H180828   6.809   1.125   2.513  1.0769  2.0201  0.5642
19779TIP3    H280829   6.688   1.160   2.428  0.9065 -0.5498 -0.3404
19780TIP3   OH280830   0.984   5.995  14.129  0.1576  0.8481 -0.6278
19780TIP3    H180831   1.012   5.921  14.184 -0.8367  0.4526 -0.6242
19780TIP3    H280832   1.052   6.061  14.142 -0.7728  1.3826  2.3341
19781TIP3   OH280833   0.587   4.699  16.496  0.0464 -0.0387  0.1723
19781TIP3    H180834   0.574   4.607  16.521  0.8657 -0.2665 -0.2187
19781TIP3    H280835   0.588   4.699  16.400  1.9875  0.0693  0.1508
19782TIP3   OH280836   5.483   0.358  12.731 -0.4012  0.1522 -0.0347
19782TIP3    H180837   5.438   0.386  12.651  0.6790  0.4458 -0.5585
19782TIP3    H280838   5.572   0.338  12.703  0.1182  0.6600  1.1722
19783TIP3   OH280839   5.505   4.052  11.604  0.2057  0.5425  0.3493
19783TIP3    H180840   5.456   4.006  11.673 -1.1651  1.7845  0.2586
19783TIP3    H280841   5.567   4.107  11.651  0.6563 -0.0994  0.5149
19784TIP3   OH280842   0.809   5.968  12.100  0.4781  0.0863  0.9161
19784TIP3    H180843   0.746   6.016  12.154 -0.7868 -0.2419 -0.1825
19784TIP3    H280844   0.878   6.031  12.081  0.3106  0.5715  1.8583
19785TIP3   OH280845   5.590   3.697  15.362 -0.3156  0.2561  0.5141
19785TIP3    H180846   5.537   3.651  15.427  1.3283 -0.2266  1.5745
19785TIP3    H280847   5.653   3.631  15.332 -0.3562  0.7844 -0.7867
19786TIP3   OH280848   0.219   2.439  13.612  0.0437  0.1025 -0.6294
19786TIP3    H180849   0.142   2.482  13.574  0.8093  0.5525 -1.6995
19786TIP3    H280850   0.182   2.371  13.668 -1.1428  0.2089 -1.2401
19787TIP3   OH280851   5.048   5.608   0.841 -0.0293  0.1021  0.2046
19787TIP3    H180852   4.979   5.620   0.907  0.5482  0.3416  0.7831
19787TIP3    H280853   5.006   5.627   0.758 -0.2123  2.1111  0.7028
19788TIP3   OH280854   5.266   0.129   2.797  0.3381  0.4330  0.2729
19788TIP3    H180855   5.274   0.186   2.721  0.4315  1.1968  0.8432
19788TIP3    H280856   5.285   0.186   2.872 -0.1739 -0.2017  0.9006
19789TIP3   OH280857   1.601   2.815   3.433 -0.1235 -0.2231  0.5422
19789TIP3    H180858   1.570   2.862   3.511 -1.6448 -2.0601  1.1218
19789TIP3    H280859   1.613   2.725   3.462  2.8638 -0.2590 -0.5019
19790TIP3   OH280860   0.414   1.887   3.911 -0.1119 -0.3672  0.0310
19790TIP3    H180861   0.374   1.936   3.983  0.3958  0.2867 -0.1198
19790TIP3    H280862   0.413   1.948   3.837  1.4279 -0.1973  0.1114
19791TIP3   OH280863   1.801   1.590   4.036 -0.9339  0.1691 -0.1374
19791TIP3    H180864   1.886   1.624   4.009 -0.7522 -0.6040 -0.5756
19791TIP3    H280865   1.818   1.500   4.063 -1.1641  0.8055  2.3348
19792TIP3   OH280866   1.185   0.113  11.225  0.3807  0.2967  0.1841
19792TIP3    H180867   1.143   0.091  11.142 -0.6914  1.2334  0.4587
19792TIP3    H280868   1.213   0.029  11.261 -0.5514 -0.2727 -0.3933
19793TIP3   OH280869   5.041   3.507  16.138  0.7216 -0.2419  0.0158
19793TIP3    H180870   5.060   3.552  16.221 -0.4843  1.1648 -0.4279
19793TIP3    H280871   5.031   3.415  16.163  5.3988 -0.8062  0.6382
19794TIP3   OH280872   5.084   6.505   5.637 -0.3179  0.1543  0.0087
19794TIP3    H180873   5.033   6.567   5.585  2.9081  2.7728 -0.3301
19794TIP3    H280874   5.118   6.557   5.710  1.2390 -1.6279  0.6220
19795TIP3   OH280875   5.157   2.135   5.244 -0.1611  0.4100 -0.5439
19795TIP3    H180876   5.078   2.147   5.191 -1.1266 -0.7358  0.5542
19795TIP3    H280877   5.170   2.040   5.246 -0.0999  0.4263  1.1616
19796TIP3   OH280878   2.924   2.700  14.968  1.0473  0.4159 -0.4182
19796TIP3    H180879   3.010   2.741  14.964  1.2341  0.1482  0.6656
19796TIP3    H280880   2.934   2.618  14.919  1.6107  0.0499  0.2893
19797TIP3   OH280881   2.724   1.449  14.959  0.2033 -0.3222  0.1062
19797TIP3    H180882   2.646   1.486  15.000  0.6670  1.8780 -0.8518
19797TIP3    H280883   2.727   1.359  14.990 -1.6095  0.1126  1.7286
19798TIP3   OH280884   5.970   6.758  13.088  0.4093 -0.1479  0.8009
19798TIP3    H180885   6.057   6.789  13.063  0.4632 -1.3211 -0.5753
19798TIP3    H280886   5.913   6.833  13.072  1.0811  0.4863  1.2839
19799TIP3   OH280887   3.678   3.101  16.186  0.0635 -1.3291  0.3041
19799TIP3    H180888   3.607   3.157  16.153 -2.3333 -4.3618 -0.0905
19799TIP3    H280889   3.742   3.100  16.115 -0.0471  0.4030  0.1209
19800TIP3   OH280890   6.367   6.722   2.669 -0.3388 -0.0559  0.2001
19800TIP3    H180891   6.439   6.662   2.689 -0.1782 -1.1822 -3.1859
19800TIP3    H280892   6.288   6.671   2.688 -0.2437  0.1002  1.0512
19801TIP3   OH280893   1.928   5.779   4.346 -0.2355 -0.1978  1.1512
19801TIP3    H180894   1.972   5.855   4.309 -1.9539  0.7453  0.9489
19801TIP3    H280895   1.839   5.808   4.362 -0.8282 -2.0529  1.4738
19802TIP3   OH280896   4.586   0.924   0.617 -0.5290  0.0256 -0.1984
19802TIP3    H180897   4.532   0.876   0.679 -0.5205 -0.3161 -0.4548
19802TIP3    H280898   4.613   0.859   0.552 -0.6049  0.3930 -0.6059
19803TIP3   OH280899   3.379   0.065  13.872 -0.3975  0.0677  0.1187
19803TIP3    H180900   3.428   0.146  13.856  0.6765 -0.4593  0.6300
19803TIP3    H280901   3.365   0.028  13.785  1.2594 -0.4025  0.0125
19804TIP3   OH280902   3.243   3.864   4.025 -0.3279 -0.6152 -0.2144
19804TIP3    H180903   3.275   3.903   3.944  0.0197 -1.5996 -0.5520
19804TIP3    H280904   3.282   3.777   4.028 -2.4230 -1.6371 -0.3239
19805TIP3   OH280905   4.397   3.515   0.189  0.0096 -0.1705 -0.2517
19805TIP3    H180906   4.436   3.542   0.272 -1.2964 -1.4930  0.8244
19805TIP3    H280907   4.352   3.594   0.157  0.3227  0.2855  0.3954
19806TIP3   OH280908   6.267   0.809   5.203 -0.3187 -0.1639 -0.1952
19806TIP3    H180909   6.309   0.746   5.145  0.7810  1.2708 -1.0204
19806TIP3    H280910   6.174   0.805   5.181 -0.6879 -3.1354  1.3976
19807TIP3   OH280911   3.251   1.100   4.048  0.2507 -0.0180 -0.2892
19807TIP3    H180912   3.218   1.012   4.032  0.7464 -0.3069  0.2504
19807TIP3    H280913   3.202   1.130   4.125  1.0438 -0.3569  0.3674
19808TIP3   OH280914   0.899   1.624  13.771 -0.5280 -0.0871  0.1692
19808TIP3    H180915   0.942   1.707  13.794  0.0926 -0.1510 -0.7164
19808TIP3    H280916   0.806   1.647  13.764 -0.5092  0.2841  1.0525
19809TIP3   OH280917   3.421   2.064  13.437 -0.0316 -0.1552 -0.2625
19809TIP3    H180918   3.424   2.159  13.430  1.0084 -0.2310 -1.1308
19809TIP3    H280919   3.375   2.035  13.358 -0.8852 -0.3524  0.2972
19810TIP3   OH280920   5.096   0.473  11.856  0.0834  0.0772 -1.0949
19810TIP3    H180921   5.103   0.458  11.762 -0.6911  0.9782 -1.3072
19810TIP3    H280922   5.018   0.425  11.882 -0.8189  1.3898 -1.2832
19811TIP3   OH280923   2.310   4.657   1.946  0.2816 -0.6883 -0.0492
19811TIP3    H180924   2.382   4.595   1.936 -0.2494 -1.3102 -0.0971
19811TIP3    H280925   2.248   4.613   2.004  0.5901  0.4304  1.1768
19812TIP3   OH280926   4.225   1.674   1.232 -0.1210 -0.0080 -0.4441
19812TIP3    H180927   4.197   1.618   1.304 -2.2548  0.1222 -1.0891
19812TIP3    H280928   4.282   1.739   1.272 -2.9692  1.4146  1.6284
19813TIP3   OH280929   0.646   2.119   2.185 -0.0747  0.7334  0.1161
19813TIP3    H180930   0.650   2.030   2.150 -1.3168  1.2724 -1.5677
19813TIP3    H280931   0.678   2.175   2.114  1.7798  1.6026  1.5405
19814TIP3   OH280932   2.522   1.936  17.262 -0.1108 -0.0027 -0.2516
19814TIP3    H180933   2.492   1.914  17.174  1.0843  1.6520 -1.1145
19814TIP3    H280934   2.502   2.029  17.272 -3.5830 -0.7925  2.6833
19815TIP3   OH280935   0.664   1.529   1.260  0.7511  0.1365  0.3806
19815TIP3    H180936   0.601   1.483   1.205  0.2462  1.5938 -0.3342
19815TIP3    H280937   0.750   1.505   1.224  0.5750 -1.1100  0.7536
19816TIP3   OH280938   3.708   2.930  11.536 -0.1798 -0.4202 -0.7427
19816TIP3    H180939   3.754   2.980  11.469  0.8763  0.1282  0.3624
19816TIP3    H280940   3.619   2.921  11.501  0.3166 -0.1156 -2.1872
19817TIP3   OH280941   5.002   4.749  15.239 -0.1098 -0.1480  0.5427
19817TIP3    H180942   5.031   4.819  15.181  1.0808 -0.3402  0.8804
19817TIP3    H280943   5.074   4.685  15.238 -0.7903 -0.9436  0.9270
19818TIP3   OH280944   4.240   5.226   5.257  0.3131 -0.5384  0.7193
19818TIP3    H180945   4.274   5.249   5.171 -0.8044 -1.7272 -0.0776
19818TIP3    H280946   4.248   5.306   5.309 -0.4528  0.6607 -0.9488
19819TIP3   OH280947   6.353   4.536  11.166 -0.2641 -0.0660  0.2663
19819TIP3    H180948   6.352   4.450  11.123  2.7627  0.0447 -0.2610
19819TIP3    H280949   6.280   4.583  11.126 -1.0274 -1.8659 -0.5899
19820TIP3   OH280950   3.304   0.183   3.636  0.0483  0.1817  0.0473
19820TIP3    H180951   3.364   0.129   3.586  1.0395  0.2629  1.1045
19820TIP3    H280952   3.314   0.271   3.601  0.0736  0.0822 -0.1943
19821TIP3   OH280953   1.978   1.532   4.666  0.1088  0.7149 -0.3851
19821TIP3    H180954   2.009   1.622   4.680  1.9668  0.4396 -2.1789
19821TIP3    H280955   2.050   1.489   4.620 -0.2639 -2.0711  1.4360
19822TIP3   OH280956   3.483   1.015   5.034 -0.0387 -0.0071  0.0989
19822TIP3    H180957   3.574   0.995   5.056  0.0401 -0.3761 -0.5413
19822TIP3    H280958   3.458   0.947   4.971  0.4087  2.1886 -2.6272
19823TIP3   OH280959   4.785   6.359  11.769  0.0837 -0.7027  0.4635
19823TIP3    H180960   4.721   6.357  11.698  0.8207  1.6615 -0.3684
19823TIP3    H280961   4.867   6.386  11.727  1.1321 -1.5973  1.8434
19824TIP3   OH280962   4.623   3.959  16.450 -0.0075 -0.4601 -0.6856
19824TIP3    H180963   4.581   4.013  16.383 -0.6001  1.1599  0.8928
19824TIP3    H280964   4.713   3.991  16.454  0.0164 -0.5270 -0.6899
19825TIP3   OH280965   3.153   3.920   6.022  0.5903  0.0067 -0.1205
19825TIP3    H180966   3.129   4.008   5.993  0.1274 -0.8316 -2.5382
19825TIP3    H280967   3.072   3.885   6.060  0.9744  0.8278  1.5583
19826TIP3   OH280968   6.447   4.469  11.463 -0.1997  0.0881  0.3299
19826TIP3    H180969   6.404   4.429  11.538  0.2272 -0.3001  0.3731
19826TIP3    H280970   6.458   4.398  11.400  2.1181 -0.3139  1.0965
19827TIP3   OH280971   3.120   3.467  14.410  0.2113 -0.1068 -0.3293
19827TIP3    H180972   3.140   3.519  14.332  0.5512  0.7752  0.3269
19827TIP3    H280973   3.073   3.528  14.468  0.3887 -0.6076  0.3514
19828TIP3   OH280974   6.185   1.400   6.355 -0.8859 -0.7240 -0.4319
19828TIP3    H180975   6.270   1.360   6.372 -0.0794  0.9721 -0.2529
19828TIP3    H280976   6.203   1.494   6.355 -2.9022 -0.2893  0.4048
19829TIP3   OH280977   6.158   4.909   3.648  0.2533  0.2467 -0.7271
19829TIP3    H180978   6.082   4.943   3.695  1.7250  0.9682  1.2467
19829TIP3    H280979   6.165   4.965   3.571 -0.1365  1.4006  0.0416
19830TIP3   OH280980   2.410   6.196   1.818  0.2294  0.6456 -0.9512
19830TIP3    H180981   2.453   6.244   1.889 -0.4061 -0.7796  0.4707
19830TIP3    H280982   2.477   6.187   1.751  1.2589  0.9492  0.0064
19831TIP3   OH280983   3.452   0.647  15.422  0.6987  0.1234  0.0550
19831TIP3    H180984   3.446   0.618  15.513 -0.1338 -0.3465 -0.1401
19831TIP3    H280985   3.534   0.611  15.390  1.7365  1.4923  1.0237
19832TIP3   OH280986   2.245   0.979  12.854  0.0412  0.4070  1.4277
19832TIP3    H180987   2.222   1.049  12.915 -0.5269  3.1039 -1.6031
19832TIP3    H280988   2.335   0.998  12.828  0.4146 -0.9311  1.6386
19833TIP3   OH280989   5.202   2.278   3.270  0.2405  0.6263  0.3626
19833TIP3    H180990   5.217   2.367   3.239  3.4227 -0.3413 -1.2898
19833TIP3    H280991   5.178   2.230   3.191  1.1351 -0.4647  0.7326
19834TIP3   OH280992   2.282   1.199  13.038  0.2691 -0.4500  0.0336
19834TIP3    H180993   2.268   1.262  12.967  1.4204 -0.1511  0.0417
19834TIP3    H280994   2.324   1.250  13.107 -0.3980 -0.8476  0.7488
19835TIP3   OH280995   4.061   4.877  15.206  0.3669  0.1679 -0.5181
19835TIP3    H180996   4.121   4.871  15.281 -1.8219 -0.5399  1.2785
19835TIP3    H280997   4.059   4.789  15.170 -0.8319 -0.2587  0.5084
19836TIP3   OH280998   0.387   4.091   1.278  0.2521  0.1961  0.0197
19836TIP3    H180999   0.461   4.030   1.287 -0.7038 -1.0689 -0.4385
19836TIP3    H281000   0.375   4.101   1.184  0.7106  1.5242  0.0803
19837TIP3   OH281001   0.903   2.038  11.882 -0.2751 -0.1317 -0.1888
19837TIP3    H181002   0.989   1.999  11.895  0.3408  1.5785  1.3234
19837TIP3    H281003   0.841   1.972  11.913  0.4981 -1.1869 -0.8301
19838TIP3   OH281004   5.289   5.721  11.403 -0.0865 -0.9749  0.4559
19838TIP3    H181005   5.372   5.715  11.451  0.5118  0.0440 -0.4110
19838TIP3    H281006   5.253   5.807  11.427  1.1077  0.3808 -2.2059
19839TIP3   OH281007   6.624   2.575   3.368 -0.0356 -0.3871 -0.9467
19839TIP3    H181008   6.652   2.646   3.309 -1.7354  0.8098 -0.4008
19839TIP3    H281009   6.582   2.511   3.310 -0.2189 -0.0130 -1.2339
19840TIP3   OH281010   2.382   4.453   0.983  0.2388 -0.3133 -0.0719
19840TIP3    H181011   2.328   4.523   1.019 -1.7383 -0.9658 -1.5352
19840TIP3    H281012   2.366   4.378   1.041  0.7548 -0.1060  0.3405
19841TIP3   OH281013   6.722   2.578   1.118  0.3671  0.6931 -0.0053
19841TIP3    H181014   6.816   2.569   1.100  0.6156  0.5160  1.3069
19841TIP3    H281015   6.688   2.627   1.043  1.2822 -0.2567 -1.0989
19842TIP3   OH281016   3.446   4.852  11.451 -0.3901  0.4733 -0.4352
19842TIP3    H181017   3.432   4.946  11.460  3.4552  1.1285  0.4110
19842TIP3    H281018   3.476   4.840  11.361 -0.5578  0.1009 -0.4462
19843TIP3   OH281019   4.217   4.279   4.825 -0.1745 -0.0955  0.6668
19843TIP3    H181020   4.259   4.281   4.912  0.4146  0.1031  0.3807
19843TIP3    H281021   4.269   4.339   4.772  0.2536 -1.1689 -0.1729
19844TIP3   OH281022   2.526   4.911  13.139 -0.5375 -0.0117 -0.1909
19844TIP3    H181023   2.463   4.975  13.105 -1.7863 -1.2642 -0.3110
19844TIP3    H281024   2.496   4.893  13.228  1.0012  1.0471  0.5805
19845TIP3   OH281025   2.935   4.424   5.912  0.2505  0.0325  0.3062
19845TIP3    H181026   2.931   4.495   5.976 -0.3661  0.6469 -0.3839
19845TIP3    H281027   2.860   4.440   5.854 -0.7194 -1.9568  0.9075
19846TIP3   OH281028   5.663   6.149   5.502  0.2292 -0.3652 -0.1152
19846TIP3    H181029   5.595   6.113   5.559 -1.3637 -0.2356 -1.8413
19846TIP3    H281030   5.664   6.091   5.426  0.9450  0.5365 -0.8240
19847TIP3   OH281031   1.593   4.298   0.596  0.2071  0.1377 -0.0064
19847TIP3    H181032   1.518   4.270   0.544 -0.6688 -0.0247  1.3126
19847TIP3    H281033   1.576   4.390   0.617 -0.6102 -0.3778  1.8551
19848TIP3   OH281034   3.245   3.159  13.357 -0.8135 -0.1537 -0.6875
19848TIP3    H181035   3.263   3.087  13.416 -3.9456 -1.1060 -0.6987
19848TIP3    H281036   3.278   3.130  13.272  1.5383  0.2151  0.0395
19849TIP3   OH281037   5.564   2.766  17.121  0.3903  0.6407 -0.4246
19849TIP3    H181038   5.577   2.721  17.038  0.3938 -0.6728  0.2609
19849TIP3    H281039   5.580   2.699  17.187 -0.8205  1.3409  0.6165
19850TIP3   OH281040   4.739   3.510  15.323  0.1040 -0.3986  0.1794
19850TIP3    H181041   4.752   3.428  15.370 -1.1135 -0.2616  0.7890
19850TIP3    H281042   4.726   3.575  15.392 -0.6127  0.0047 -0.3296
19851TIP3   OH281043   4.088   4.275  14.249  0.4572  0.1401 -0.0807
19851TIP3    H181044   4.036   4.323  14.186  1.0042  2.2384  0.9474
19851TIP3    H281045   4.120   4.198  14.202 -3.3494 -1.2186 -0.7887
19852TIP3   OH281046   0.287   3.519   0.420  0.3958  0.3694  0.0953
19852TIP3    H181047   0.343   3.443   0.402 -0.3619  0.0272 -0.9482
19852TIP3    H281048   0.214   3.484   0.470  0.1250  0.4302 -0.2523
19853TIP3   OH281049   0.694   3.920  10.544 -0.0063 -0.1316  0.2592
19853TIP3    H181050   0.742   3.921  10.627  1.4995 -3.0932 -0.4263
19853TIP3    H281051   0.603   3.902  10.568  0.3253 -0.4243  1.3141
19854TIP3   OH281052   2.506   0.402  15.011  0.1802 -0.5004 -0.1604
19854TIP3    H181053   2.444   0.351  14.958  2.1130 -2.7343 -0.4588
19854TIP3    H281054   2.510   0.355  15.094  1.7480 -0.6380 -0.2961
19855TIP3   OH281055   0.748   6.264  13.875  0.5315  0.4630 -0.3615
19855TIP3    H181056   0.824   6.315  13.846  0.5272  0.5365 -0.2428
19855TIP3    H281057   0.678   6.328  13.883  0.6647  0.5287  0.3089
19856TIP3   OH281058   0.976   4.457  16.361 -0.6076 -0.4752  0.3187
19856TIP3    H181059   1.042   4.518  16.393 -0.7773 -0.4301  0.5892
19856TIP3    H281060   0.931   4.504  16.291 -0.9254 -0.1784  0.7148
19857TIP3   OH281061   3.127   4.615  16.096  0.3939 -0.1851 -0.0387
19857TIP3    H181062   3.178   4.556  16.152  0.8984 -1.7025 -1.9840
19857TIP3    H281063   3.191   4.677  16.062  0.6965 -1.1143 -1.2325
19858TIP3   OH281064   5.881   5.938   3.079 -0.3257  0.3804  0.1112
19858TIP3    H181065   5.895   5.871   3.012  1.6351  0.2101  0.6507
19858TIP3    H281066   5.812   5.994   3.043 -0.0393 -0.3100 -1.5849
19859TIP3   OH281067   0.513   5.594  17.409  0.0450 -0.4854  0.2613
19859TIP3    H181068   0.434   5.547  17.436  0.4367 -1.3298 -0.0140
19859TIP3    H281069   0.487   5.686  17.407 -0.4437 -0.5550  1.9122
19860TIP3   OH281070   5.511   1.394  11.117 -0.2539 -0.0528 -0.1935
19860TIP3    H181071   5.588   1.366  11.167  1.1023  0.6807 -1.7799
19860TIP3    H281072   5.505   1.331  11.045 -1.6314 -0.5517  0.3212
19861TIP3   OH281073   3.224   0.959   5.492 -0.1886 -0.1110 -0.6156
19861TIP3    H181074   3.300   0.999   5.534 -0.3670 -1.2239  0.8684
19861TIP3    H281075   3.226   0.991   5.402  1.0195  1.2733 -0.1328
19862TIP3   OH281076   6.336   4.490   0.100  0.4671 -0.2985  0.6136
19862TIP3    H181077   6.407   4.492   0.036  0.3312 -0.2642  0.4638
19862TIP3    H281078   6.268   4.546   0.063  0.2090 -0.6360  0.5731
19863TIP3   OH281079   3.611   2.101   2.137  0.0903 -0.2590  0.3609
19863TIP3    H181080   3.585   2.105   2.045  1.0003 -0.3103  0.0896
19863TIP3    H281081   3.579   2.183   2.175 -2.3885 -1.2591  0.6056
19864TIP3   OH281082   2.147   0.499   2.733 -0.1470  0.3158 -0.2366
19864TIP3    H181083   2.136   0.534   2.645 -0.2299 -0.1882 -0.4309
19864TIP3    H281084   2.061   0.464   2.756  0.7201 -2.8887 -1.4277
19865TIP3   OH281085   1.178   4.101   5.010 -0.2510 -0.4204 -0.1053
19865TIP3    H181086   1.199   4.008   5.010 -0.7955 -0.5574 -1.0968
19865TIP3    H281087   1.176   4.125   4.917 -0.7139  0.4335  0.1145
19866TIP3   OH281088   5.458   1.388   3.928  0.0939 -0.2994 -0.3827
19866TIP3    H181089   5.518   1.456   3.898  0.7642 -1.3415 -1.4901
19866TIP3    H281090   5.494   1.306   3.893 -0.6502 -1.2481  0.9616
19867TIP3   OH281091   0.012   4.557  15.750  0.2236  0.0909 -0.5507
19867TIP3    H181092  -0.031   4.521  15.673 -0.0131  2.6050 -1.7084
19867TIP3    H281093  -0.050   4.621  15.784  0.3990 -0.8294  1.6904
19868TIP3   OH281094   6.656   4.256  15.749  0.0157  0.3695 -0.4722
19868TIP3    H181095   6.570   4.266  15.708  1.3454  0.9693 -3.3786
19868TIP3    H281096   6.718   4.293  15.685  2.4259  0.2541  1.6247
19869TIP3   OH281097   4.970   1.001   4.007 -0.1195 -0.3232  0.0191
19869TIP3    H181098   4.884   1.032   4.037 -0.1212  0.4391 -0.7244
19869TIP3    H281099   5.032   1.066   4.041 -0.3000  1.7586 -3.1264
19870TIP3   OH281100   0.869   6.009   4.441 -0.4568  0.4415 -0.6057
19870TIP3    H181101   0.889   6.083   4.499 -0.4834 -0.9950  1.3588
19870TIP3    H281102   0.822   5.947   4.498 -0.6998 -0.9594 -2.2533
19871TIP3   OH281103   4.993   0.338   2.182 -0.0415  0.1207  0.0515
19871TIP3    H181104   4.912   0.389   2.180 -1.4252 -1.9881  0.0883
19871TIP3    H281105   4.965   0.247   2.187  2.3428 -0.6333  1.7405
19872TIP3   OH281106   2.124   5.211   4.167  0.3030  0.3422 -0.2522
19872TIP3    H181107   2.214   5.199   4.135 -0.3537 -0.5113 -1.8708
19872TIP3    H281108   2.117   5.305   4.183  1.5510  0.3890  0.1258
19873TIP3   OH281109   1.067   4.470  10.602  0.2023 -0.4276 -0.5236
19873TIP3    H181110   1.144   4.519  10.574  0.0010 -0.7236 -1.6588
19873TIP3    H281111   1.002   4.486  10.533 -1.2234  0.8707  1.0634
19874TIP3   OH281112   2.264   4.974   4.289  0.1302  0.4486  1.0406
19874TIP3    H181113   2.219   4.900   4.331  0.9673 -0.6963  0.0113
19874TIP3    H281114   2.194   5.036   4.270 -0.7900 -0.5736  0.9349
19875TIP3   OH281115   1.575   1.878   4.316 -1.1897 -0.0041  0.4094
19875TIP3    H181116   1.630   1.857   4.392 -0.6780  1.8068  0.5897
19875TIP3    H281117   1.487   1.853   4.343 -0.7915 -0.8471  0.9819
19876TIP3   OH281118   0.623   2.133  12.123  0.7149 -0.1036  0.6759
19876TIP3    H181119   0.555   2.186  12.163 -0.3004 -0.5524 -0.3896
19876TIP3    H281120   0.621   2.050  12.171 -0.1671 -0.4667  0.0282
19877TIP3   OH281121   1.290   3.115  15.377 -1.0295 -0.1416 -0.3030
19877TIP3    H181122   1.352   3.085  15.444 -0.9563 -0.0962 -0.3501
19877TIP3    H281123   1.334   3.189  15.336 -0.7289 -0.6591 -0.9323
19878TIP3   OH281124   2.559   4.076   6.005  0.8483  0.0761 -0.6693
19878TIP3    H181125   2.555   4.158   5.957  0.6841  1.3844  1.4500
19878TIP3    H281126   2.469   4.063   6.037  0.0166 -2.6763 -3.5577
19879TIP3   OH281127   3.315   1.077  10.837 -0.2961  0.0459  0.5304
19879TIP3    H181128   3.299   1.002  10.896 -2.1959  0.2675  0.3692
19879TIP3    H281129   3.321   1.038  10.750 -2.6128  0.0966  0.2620
19880TIP3   OH281130   6.672   1.069  14.681 -0.2803 -0.0074  0.5553
19880TIP3    H181131   6.665   1.119  14.763 -0.7344  0.1393  0.4307
19880TIP3    H281132   6.680   0.978  14.709  1.4751  0.1973  0.8129
19881TIP3   OH281133   3.022   4.171   5.462 -0.0886 -0.0177 -0.0150
19881TIP3    H181134   3.105   4.125   5.450  0.1125 -0.0381  1.2754
19881TIP3    H281135   3.038   4.260   5.429 -0.0529 -0.4597 -1.2245
19882TIP3   OH281136   4.250   3.744  14.679  0.0535  0.3248  0.0454
19882TIP3    H181137   4.177   3.786  14.632 -0.9291 -0.3666  0.8905
19882TIP3    H281138   4.315   3.725  14.611 -0.5014  1.0744 -0.7159
19883TIP3   OH281139   0.773   3.953  15.927 -0.2247  0.1827 -0.5290
19883TIP3    H181140   0.821   3.888  15.876 -0.1682  1.1218 -1.7309
19883TIP3    H281141   0.681   3.926  15.920 -0.1277 -0.2165 -0.3205
19884TIP3   OH281142   1.106   0.507  13.911 -0.6469 -0.1999  0.1418
19884TIP3    H181143   1.102   0.567  13.836  2.4285 -1.6413 -1.3717
19884TIP3    H281144   1.199   0.501  13.931 -1.2154 -1.5632  2.7381
19885TIP3   OH281145   5.430   6.228   2.274 -0.1456 -0.2922 -0.3406
19885TIP3    H181146   5.517   6.221   2.235 -0.1557  0.0221 -0.4235
19885TIP3    H281147   5.412   6.322   2.276  0.2525 -0.2252  1.3044
19886TIP3   OH281148   5.096   4.817   3.904 -0.0888  0.0110  0.3437
19886TIP3    H181149   5.052   4.732   3.904 -0.1273  0.0309  0.3534
19886TIP3    H281150   5.073   4.856   3.989  1.4248 -0.7543  1.1473
19887TIP3   OH281151   6.645   5.113   0.172 -0.0999 -0.1320 -0.0218
19887TIP3    H181152   6.657   5.044   0.106  1.6586  1.0848 -1.0662
19887TIP3    H281153   6.586   5.175   0.130  0.5002  0.3201 -0.2174
19888TIP3   OH281154   4.205   4.920  16.331 -0.3423 -0.1094  0.2189
19888TIP3    H181155   4.277   4.880  16.379  0.0027  0.1190 -0.1084
19888TIP3    H281156   4.179   4.854  16.267  0.0916  0.1038 -0.1828
19889TIP3   OH281157   3.731   2.853   5.769  0.4088 -0.1840  0.1775
19889TIP3    H181158   3.780   2.931   5.791 -0.4123  0.4729 -0.2642
19889TIP3    H281159   3.730   2.801   5.850  0.2312  0.6589  0.7276
19890TIP3   OH281160   1.629   1.960  12.981 -0.1201  0.4819 -0.3648
19890TIP3    H181161   1.598   1.973  13.070  1.1928  0.9784  0.0416
19890TIP3    H281162   1.722   1.986  12.983 -0.4114  1.8992 -2.1881
19891TIP3   OH281163   5.784   2.105   0.449  0.2269  0.1114 -0.2662
19891TIP3    H181164   5.818   2.058   0.373  2.6942  1.2971 -0.0147
19891TIP3    H281165   5.761   2.192   0.416  0.6983  0.4210  0.2008
19892TIP3   OH281166   2.248   4.368   1.773  0.0941  0.1751 -0.2156
19892TIP3    H181167   2.268   4.300   1.837  0.1638 -0.0766 -0.5023
19892TIP3    H281168   2.155   4.359   1.755 -0.3286  1.3827  1.1591
19893TIP3   OH281169   6.430   2.195   1.794 -0.2299  0.0614 -0.3422
19893TIP3    H181170   6.480   2.209   1.714 -1.0963  0.4439 -0.8337
19893TIP3    H281171   6.352   2.147   1.766 -1.2345  1.4128  0.0271
19894TIP3   OH281172   1.387   0.186  14.972  0.1151 -0.4347 -0.1430
19894TIP3    H181173   1.429   0.131  15.039 -0.0503 -0.2855  0.0854
19894TIP3    H281174   1.391   0.134  14.892  1.6710 -0.0169 -0.3754
19895TIP3   OH281175   0.956   4.676   2.602 -0.2258  0.2393  0.6916
19895TIP3    H181176   1.029   4.702   2.659  0.3813 -1.2940  0.6658
19895TIP3    H281177   0.999   4.639   2.525 -1.0297 -0.5365  0.6056
19896TIP3   OH281178   3.793   1.968  16.237 -0.5312 -0.2613  0.0497
19896TIP3    H181179   3.837   2.052  16.254 -0.5522 -0.0727 -0.8200
19896TIP3    H281180   3.741   1.953  16.316  1.2719 -0.6230  1.2344
19897TIP3   OH281181   4.009   0.310   0.158 -0.2473 -0.2134 -0.1031
19897TIP3    H181182   4.017   0.336   0.250 -1.9124  0.9625 -0.2329
19897TIP3    H281183   4.064   0.372   0.110  0.0148 -0.3426  0.0292
19898TIP3   OH281184   3.395   0.258   5.932  0.4553 -0.1215 -0.3504
19898TIP3    H181185   3.476   0.293   5.895  0.8367 -0.4048  0.2010
19898TIP3    H281186   3.329   0.324   5.914  0.9911  0.5065 -0.0391
19899TIP3   OH281187   3.166   6.001   0.892  0.4711 -0.4673  0.2385
19899TIP3    H181188   3.103   6.059   0.848 -0.2858 -0.7805  0.8850
19899TIP3    H281189   3.232   6.060   0.927  1.2079 -0.2167 -1.4660
19900TIP3   OH281190   0.477   5.719  15.134 -0.1767 -0.3688  0.5352
19900TIP3    H181191   0.481   5.805  15.092 -0.0290 -0.7573 -0.2604
19900TIP3    H281192   0.400   5.723  15.190 -0.6590  0.0006 -0.1390
19901TIP3   OH281193   3.273   0.482  15.288  0.0040  0.4053  0.1591
19901TIP3    H181194   3.306   0.548  15.348  1.6295 -0.4111  0.2211
19901TIP3    H281195   3.226   0.532  15.221 -0.1094  1.4783  1.0118
19902TIP3   OH281196   5.773   0.799  16.858  0.2595 -0.1634  0.0716
19902TIP3    H181197   5.740   0.874  16.808  1.4351 -0.0788 -0.6204
19902TIP3    H281198   5.698   0.740  16.866  0.2784 -0.6925 -2.7665
19903TIP3   OH281199   0.621   0.094   5.831 -0.1450  0.1531 -0.1211
19903TIP3    H181200   0.639   0.188   5.837 -0.2003  0.1681 -0.1865
19903TIP3    H281201   0.699   0.052   5.867 -0.0641  0.2210 -0.2189
19904TIP3   OH281202   0.339   4.598  12.216  0.1236  0.4481 -0.3302
19904TIP3    H181203   0.394   4.667  12.254  0.2516  0.9360 -1.3853
19904TIP3    H281204   0.265   4.591  12.277  0.3843  1.1302  0.0760
19905TIP3   OH281205   0.517   3.638  13.298 -0.5202  0.1283 -0.3924
19905TIP3    H181206   0.485   3.684  13.375 -0.1264  1.9363 -1.2731
19905TIP3    H281207   0.516   3.703  13.229  1.3842 -0.8097 -1.3631
19906TIP3   OH281208   5.189   1.554   5.137  0.3475  0.6560 -0.0662
19906TIP3    H181209   5.132   1.629   5.121  0.4728  0.6888 -0.3688
19906TIP3    H281210   5.241   1.546   5.057 -0.4826 -0.4790 -0.5045
19907TIP3   OH281211   1.507   1.826  17.084  0.4961  0.6794  0.4426
19907TIP3    H181212   1.460   1.823  17.167  0.6512 -1.8443  0.5107
19907TIP3    H281213   1.592   1.786  17.102  0.1636 -0.8421 -1.0923
19908TIP3   OH281214   5.904   5.054  10.630 -0.1073  0.6074 -0.3184
19908TIP3    H181215   5.877   5.145  10.616  0.8325  0.7227 -1.5267
19908TIP3    H281216   5.850   5.003  10.569 -1.7017  0.1396  1.3971
19909TIP3   OH281217   0.752   4.600  14.830 -0.3384 -0.1197  0.5739
19909TIP3    H181218   0.660   4.585  14.855 -0.5065 -2.3980 -1.0609
19909TIP3    H281219   0.792   4.640  14.907 -2.7909  1.4161  1.1603
19910TIP3   OH281220   6.504   3.491  14.640 -0.3918  0.0081 -0.3816
19910TIP3    H181221   6.469   3.572  14.603 -0.7344  1.0189  1.9641
19910TIP3    H281222   6.598   3.508  14.652 -0.5056  0.1776  0.3324
19911TIP3   OH281223   1.187   4.076  16.806  0.3311  0.1315  0.3269
19911TIP3    H181224   1.173   4.148  16.743  0.1174  0.5097  0.7944
19911TIP3    H281225   1.224   4.005  16.754  0.6474  0.6214 -0.1266
19912TIP3   OH281226   4.699   5.800  14.711  0.1446 -0.0089 -0.8130
19912TIP3    H181227   4.628   5.839  14.764 -0.4544  0.6465 -2.0578
19912TIP3    H281228   4.778   5.819  14.761 -0.1641  2.5144 -1.1586
19913TIP3   OH281229   5.949   1.620  11.442  0.1415 -0.4108  0.3120
19913TIP3    H181230   5.986   1.577  11.519 -1.1777  0.2586  1.3601
19913TIP3    H281231   5.857   1.636  11.465 -0.6985 -1.5071 -1.9605
19914TIP3   OH281232   1.794   6.353   3.366  0.1679  0.0176  0.3321
19914TIP3    H181233   1.804   6.339   3.460 -1.1914 -1.1825  0.3274
19914TIP3    H281234   1.864   6.301   3.326 -0.8038 -1.5272  0.5944
19915TIP3   OH281235   4.436   3.789   0.614  0.3650 -0.3812  0.0290
19915TIP3    H181236   4.410   3.869   0.569  2.1154 -0.2631 -0.8635
19915TIP3    H281237   4.457   3.728   0.543 -0.4118 -1.4516  0.7025
19916TIP3   OH281238   4.197   6.226  11.693 -0.2301  0.1497  0.0017
19916TIP3    H181239   4.179   6.236  11.600 -0.0717  0.4390 -0.0014
19916TIP3    H281240   4.196   6.316  11.727 -1.1093 -0.0122  0.4331
19917TIP3   OH281241   4.674   0.356   1.651  0.4879 -0.4785  0.2690
19917TIP3    H181242   4.645   0.414   1.581 -1.4641 -0.1485  1.2807
19917TIP3    H281243   4.638   0.271   1.627  1.4132 -0.7889 -0.0548
19918TIP3   OH281244   4.381   5.833  15.648 -0.2519  0.2895 -0.2357
19918TIP3    H181245   4.369   5.759  15.588 -1.5580 -1.4879  2.0841
19918TIP3    H281246   4.476   5.839  15.659 -0.0340  0.0861 -1.7282
19919TIP3   OH281247   3.493   0.627   4.473 -0.8135 -0.9688  0.5562
19919TIP3    H181248   3.564   0.650   4.412 -1.5559 -1.6849 -0.6037
19919TIP3    H281249   3.523   0.547   4.515 -0.8331 -1.1487  0.2295
19920TIP3   OH281250   5.288   1.791  15.178 -0.7714  0.0843  0.7823
19920TIP3    H181251   5.208   1.842  15.185 -0.1618  1.0470  0.8789
19920TIP3    H281252   5.311   1.794  15.085 -0.5829  0.2181  0.8340
19921TIP3   OH281253   4.029   4.384   4.164  0.0704  0.3040 -0.0738
19921TIP3    H181254   4.070   4.313   4.214  0.7391  0.4695 -0.3787
19921TIP3    H281255   4.009   4.451   4.230  0.6774  0.3946  0.0232
19922TIP3   OH281256   6.612   2.571   6.300 -0.1437 -0.0053  0.5395
19922TIP3    H181257   6.524   2.550   6.331 -0.0762  1.5922  1.9654
19922TIP3    H281258   6.667   2.564   6.377  0.6446  0.8454  0.0734
19923TIP3   OH281259   3.611   6.434   2.019  0.0995  0.0764  0.0564
19923TIP3    H181260   3.577   6.518   2.048 -1.5299 -0.4280 -0.2951
19923TIP3    H281261   3.662   6.454   1.941  1.5559  0.9762  1.1745
19924TIP3   OH281262   3.885   5.565  14.005 -0.4702  0.1450  0.1136
19924TIP3    H181263   3.903   5.641  14.061  1.8500 -1.8176  2.2794
19924TIP3    H281264   3.852   5.498  14.065 -1.6584 -0.8891 -1.5919
19925TIP3   OH281265   3.188   2.544   1.104 -0.0782  0.4064 -0.5592
19925TIP3    H181266   3.125   2.612   1.081  1.1416  0.8228 -3.0116
19925TIP3    H281267   3.141   2.462   1.089 -0.4283  0.7193 -1.2078
19926TIP3   OH281268   4.337   6.741  15.607 -0.1407 -0.2908  0.1744
19926TIP3    H181269   4.413   6.727  15.663 -0.3453 -0.7603  0.3389
19926TIP3    H281270   4.349   6.681  15.534  0.8192  1.2876 -1.0176
19927TIP3   OH281271   5.627   0.468  15.897  0.3894  0.3663  0.0067
19927TIP3    H181272   5.716   0.479  15.862  0.0239  1.5722 -0.5681
19927TIP3    H281273   5.607   0.551  15.939 -0.4060  0.0385  0.2960
19928TIP3   OH281274   3.682   2.671  15.942 -0.4736  0.7341 -0.5239
19928TIP3    H181275   3.661   2.578  15.949 -0.3703  0.7700  0.5297
19928TIP3    H281276   3.597   2.713  15.926 -0.6763  0.5455  0.0286
19929TIP3   OH281277   3.091   5.688  15.036 -0.3102 -0.2491  0.3982
19929TIP3    H181278   3.021   5.753  15.026  0.0394  0.1986  0.8321
19929TIP3    H281279   3.045   5.604  15.039 -0.6150 -0.4256 -3.6241
19930TIP3   OH281280   3.803   1.324  12.893  0.3321 -0.0393 -0.3507
19930TIP3    H181281   3.815   1.280  12.976  0.7791  0.3754 -0.1876
19930TIP3    H281282   3.827   1.259  12.827  1.4350  0.0931 -0.0993
19931TIP3   OH281283   4.700   4.732  17.224  0.2956  0.0831  0.3334
19931TIP3    H181284   4.736   4.718  17.137 -0.5518  0.7848 -0.1505
19931TIP3    H281285   4.710   4.826  17.239  0.5262 -0.0515  1.0329
19932TIP3   OH281286   2.396   0.494  15.432  0.7517  0.6907  0.0149
19932TIP3    H181287   2.312   0.490  15.385  0.2755 -0.0745  0.8905
19932TIP3    H281288   2.462   0.472  15.365  0.1830  0.5512 -0.5151
19933TIP3   OH281289   2.880   6.315   0.428 -0.3677 -0.2325  0.6226
19933TIP3    H181290   2.875   6.360   0.512 -2.6246 -0.3810  0.6444
19933TIP3    H281291   2.904   6.384   0.366  0.2938  0.0937  1.2260
19934TIP3   OH281292   0.251   6.550  14.465  0.3069 -0.1499  0.5719
19934TIP3    H181293   0.260   6.636  14.425  0.6868 -0.1168  0.7205
19934TIP3    H281294   0.319   6.548  14.533  1.0695 -0.9897 -0.1868
19935TIP3   OH281295   4.689   0.722  17.168  0.1481 -0.2571 -0.3139
19935TIP3    H181296   4.757   0.670  17.125  1.0601 -0.8583  1.7394
19935TIP3    H281297   4.706   0.812  17.139  0.5852 -0.6609 -1.3530
19936TIP3   OH281298   4.536   0.802   2.340 -0.1320  0.1986  0.1476
19936TIP3    H181299   4.591   0.726   2.359 -0.8016 -0.9280 -1.9999
19936TIP3    H281300   4.598   0.875   2.332  0.7557 -0.5138  0.3271
19937TIP3   OH281301   2.879   5.899  14.310 -0.1359  0.3342 -0.0985
19937TIP3    H181302   2.929   5.827  14.272  0.1408  1.3051 -1.6536
19937TIP3    H281303   2.788   5.879  14.288 -0.3642 -0.7667  1.6205
19938TIP3   OH281304   4.198   4.351   2.208  0.5416  0.4709  0.3344
19938TIP3    H181305   4.273   4.302   2.174 -0.4492  0.1331 -1.4955
19938TIP3    H281306   4.220   4.443   2.191 -0.4191  0.2791 -2.5358
19939TIP3   OH281307   3.901   2.711  11.570 -0.2061  0.0122  0.0527
19939TIP3    H181308   3.843   2.787  11.564 -0.8859 -0.5324 -0.3369
19939TIP3    H281309   3.941   2.718  11.657  1.3357  1.9567 -0.7378
19940TIP3   OH281310   1.508   4.709   1.643  0.2519  0.6035 -0.2863
19940TIP3    H181311   1.470   4.659   1.715  2.7666 -0.8624  0.1493
19940TIP3    H281312   1.493   4.800   1.666 -0.3374  0.1403  1.3075
19941TIP3   OH281313   2.804   1.633   5.206  0.2997  0.5527 -0.3721
19941TIP3    H181314   2.889   1.622   5.249 -0.4017 -2.0884  0.5188
19941TIP3    H281315   2.743   1.652   5.277 -0.4901 -1.6571 -0.3758
19942TIP3   OH281316   1.317   3.787   1.298 -0.5424  0.4929 -0.0738
19942TIP3    H181317   1.388   3.731   1.330 -1.5548 -0.2454  0.9723
19942TIP3    H281318   1.354   3.832   1.222  0.9564 -0.0498  0.3014
19943TIP3   OH281319   0.737   2.140  15.707 -0.1846  0.0523 -0.1672
19943TIP3    H181320   0.766   2.051  15.690 -0.7527 -0.6297  2.0997
19943TIP3    H281321   0.647   2.143  15.675 -0.0286 -0.0505 -0.6221
19944TIP3   OH281322   5.827   5.987  11.636  0.0664  0.5012  0.4267
19944TIP3    H181323   5.861   6.041  11.564 -0.3383 -0.6838 -0.7089
19944TIP3    H281324   5.891   5.916  11.644 -0.1386  0.3723  0.9141
19945TIP3   OH281325   3.174   2.474  16.546  0.2254  0.5724  0.3250
19945TIP3    H181326   3.150   2.552  16.495 -0.5180  0.5493  0.6346
19945TIP3    H281327   3.094   2.422  16.548  0.9653 -0.6511 -0.6673
19946TIP3   OH281328   5.399   2.249   0.058  0.2388 -0.0304  0.2184
19946TIP3    H181329   5.428   2.176   0.003 -1.0420 -1.1919  1.0342
19946TIP3    H281330   5.361   2.311  -0.004  2.9533  0.8737 -0.7088
19947TIP3   OH281331   6.570   2.691  10.288 -0.2190  1.1456  0.3830
19947TIP3    H181332   6.515   2.759  10.249 -0.0966  1.3846  0.6299
19947TIP3    H281333   6.508   2.631  10.330 -0.8325 -1.5376 -3.7067
19948TIP3   OH281334   0.101   1.932  10.302  0.4124  0.3736 -0.0365
19948TIP3    H181335   0.117   1.862  10.366  1.3500  0.7036  0.1153
19948TIP3    H281336   0.007   1.929  10.287  0.5745 -1.8180 -1.0788
19949TIP3   OH281337   5.585   0.623  14.058 -0.2229 -0.7871  0.0906
19949TIP3    H181338   5.557   0.715  14.055 -0.0995 -0.7629 -0.7135
19949TIP3    H281339   5.625   0.608  13.972  0.6000 -1.3315  0.5581
19950TIP3   OH281340   0.324   4.732   1.295  0.2529 -0.3419  0.1039
19950TIP3    H181341   0.381   4.722   1.371 -1.2063 -2.3699  1.0182
19950TIP3    H281342   0.244   4.685   1.318 -0.4471 -0.6032 -2.4961
19951TIP3   OH281343   1.135   2.847  17.313  0.3150 -0.3283  0.5919
19951TIP3    H181344   1.167   2.880  17.229  2.5043  0.9784  1.8227
19951TIP3    H281345   1.063   2.788  17.290 -0.3044  1.2815 -2.0729
19952TIP3   OH281346   5.260   0.298   2.523  0.6042  0.1108 -0.0889
19952TIP3    H181347   5.300   0.225   2.475 -0.6472 -0.8179  0.2358
19952TIP3    H281348   5.257   0.369   2.460 -0.1615 -0.7989 -1.1289
19953TIP3   OH281349   2.436   1.345  12.251  0.1071 -0.2098 -0.8165
19953TIP3    H181350   2.452   1.439  12.248  1.0515 -0.3589 -0.9643
19953TIP3    H281351   2.487   1.310  12.177  0.7003 -0.9525 -0.0812
19954TIP3   OH281352   3.389   4.115   3.262  0.2014 -0.0365 -0.1233
19954TIP3    H181353   3.296   4.138   3.263  0.1549 -0.0396 -1.6969
19954TIP3    H281354   3.434   4.199   3.260  0.1920 -0.0366 -0.4146
19955TIP3   OH281355   2.929   1.021  11.639 -0.4345 -0.2476 -0.6146
19955TIP3    H181356   2.886   0.986  11.561 -0.6698  0.1455 -0.6595
19955TIP3    H281357   3.012   1.056  11.607  0.2376 -1.5831 -0.4361
19956TIP3   OH281358   1.787   1.424   1.583  0.0500 -0.2585  0.2787
19956TIP3    H181359   1.850   1.449   1.515 -1.7430  0.5233 -1.1893
19956TIP3    H281360   1.705   1.464   1.555 -1.0078 -0.8359  2.3754
19957TIP3   OH281361   4.600   5.842  11.143  0.6811 -0.0645 -0.0652
19957TIP3    H181362   4.676   5.788  11.125 -0.0447 -0.2046 -3.0772
19957TIP3    H281363   4.575   5.879  11.059 -1.6881  1.2180  1.0840
19958TIP3   OH281364   1.416   2.821  16.014  0.8620 -0.6016  0.4795
19958TIP3    H181365   1.404   2.890  15.949  0.5845  0.6714  1.8357
19958TIP3    H281366   1.327   2.793  16.036  0.9894 -1.9296 -0.5811
19959TIP3   OH281367   6.254   0.385   2.875 -0.3040  0.3251  0.3527
19959TIP3    H181368   6.221   0.464   2.918  0.7244  0.3795  1.0773
19959TIP3    H281369   6.266   0.322   2.946 -2.3343 -0.9726 -0.3592
19960TIP3   OH281370   3.650   2.545   0.431  0.1480 -0.1954  0.5500
19960TIP3    H181371   3.709   2.551   0.356 -0.1819 -1.3842  0.1640
19960TIP3    H281372   3.567   2.514   0.393 -0.3941  0.3884  1.2361
19961TIP3   OH281373   1.521   6.790  15.138 -0.1233  0.3828  0.2351
19961TIP3    H181374   1.498   6.701  15.110  0.8492 -0.5998  2.2836
19961TIP3    H281375   1.504   6.790  15.232  0.9322  2.0171  0.4679
19962TIP3   OH281376   2.752   1.331  15.347 -0.3665  0.6790 -0.3604
19962TIP3    H181377   2.795   1.360  15.427  0.3768  0.2356 -0.5878
19962TIP3    H281378   2.682   1.395  15.333 -0.3909  0.8637  0.5388
19963TIP3   OH281379   4.979   1.210   3.466 -0.6383 -0.5899  0.3232
19963TIP3    H181380   4.924   1.199   3.389  0.3211  1.9730 -0.8038
19963TIP3    H281381   4.919   1.241   3.534 -1.1601 -1.0958  0.1011
19964TIP3   OH281382   4.311   0.612   0.915 -0.2944 -0.2611  0.0206
19964TIP3    H181383   4.346   0.525   0.935  1.6860  0.1479 -1.4080
19964TIP3    H281384   4.226   0.614   0.959  0.4740 -2.1705  1.7727
19965TIP3   OH281385   5.632   4.969   3.672  0.3580 -0.3416  0.1867
19965TIP3    H181386   5.673   5.030   3.733 -0.1337 -0.1543  0.3354
19965TIP3    H281387   5.640   5.011   3.586 -0.5328  0.2421  0.3696
19966TIP3   OH281388   4.988   6.483  11.981 -0.0195 -0.0028  0.0622
19966TIP3    H181389   4.926   6.527  12.040  2.3194  0.5825  2.2603
19966TIP3    H281390   5.035   6.421  12.037  1.1928 -0.6577 -1.5794
19967TIP3   OH281391   2.496   3.783  15.570 -0.0595  0.1536 -0.2831
19967TIP3    H181392   2.430   3.852  15.566 -0.4264 -0.0842  1.1076
19967TIP3    H281393   2.485   3.745  15.657 -1.2143 -3.0251 -1.6880
19968TIP3   OH281394   3.704   2.868   3.727 -0.4186 -0.1209 -0.1262
19968TIP3    H181395   3.682   2.948   3.774 -0.2796  0.3186 -0.7823
19968TIP3    H281396   3.799   2.862   3.734 -0.1284  1.0980 -2.0649
19969TIP3   OH281397   6.196   4.609  16.930 -0.3781 -0.0839 -0.0743
19969TIP3    H181398   6.101   4.599  16.923 -0.4456 -1.1970  1.6169
19969TIP3    H281399   6.216   4.582  17.020  1.3934  1.4624  0.0630
19970TIP3   OH281400   3.307   1.728   1.836  0.1179 -0.3996 -0.1133
19970TIP3    H181401   3.374   1.717   1.904  1.2256  0.6185 -0.9850
19970TIP3    H281402   3.237   1.777   1.879  0.5492 -0.2692  0.4577
19971TIP3   OH281403   0.610   4.126   2.315  0.1225  0.3670 -0.6089
19971TIP3    H181404   0.619   4.207   2.366 -1.5296  0.2284 -0.0486
19971TIP3    H281405   0.622   4.154   2.224 -2.6760  1.7178 -0.6558
19972TIP3   OH281406   4.258   0.345  14.253  0.3389 -0.1374 -0.1196
19972TIP3    H181407   4.303   0.280  14.199  1.9286  0.3163  0.5875
19972TIP3    H281408   4.308   0.425  14.241 -1.0369  0.7319 -0.2477
19973TIP3   OH281409   1.397   1.572   2.886  0.0431 -0.1503 -0.2357
19973TIP3    H181410   1.428   1.495   2.933  0.7272  0.0991 -0.2611
19973TIP3    H281411   1.379   1.541   2.798  1.5997 -0.0399 -0.6355
19974TIP3   OH281412   2.369   0.741   5.381 -0.3428  0.2670 -0.1746
19974TIP3    H181413   2.441   0.741   5.445  0.3062 -1.8584 -0.8075
19974TIP3    H281414   2.412   0.745   5.296 -0.9889 -0.4113 -0.5458
19975TIP3   OH281415   2.255   2.922   1.909  0.2201  0.5597 -0.1313
19975TIP3    H181416   2.174   2.909   1.957  1.1457 -0.3263  1.2744
19975TIP3    H281417   2.309   2.847   1.932  1.0890  0.6112 -1.8197
19976TIP3   OH281418   1.363   5.927   6.664 -0.1087 -0.1742  0.2421
19976TIP3    H181419   1.360   5.832   6.658 -1.9027 -0.1273 -0.2106
19976TIP3    H281420   1.274   5.952   6.689 -0.0047  1.4466 -0.8640
19977TIP3   OH281421   4.573   6.635  17.155  0.0703 -0.1543  0.3392
19977TIP3    H181422   4.654   6.625  17.105 -0.3274 -0.1473 -0.3163
19977TIP3    H281423   4.514   6.683  17.098 -1.3219 -2.4413 -0.3024
19978TIP3   OH281424   5.941   6.321  10.803 -0.2024  0.4323  0.2247
19978TIP3    H181425   5.998   6.391  10.835 -1.2967  1.4527  0.0250
19978TIP3    H281426   5.882   6.364  10.741  0.1765 -1.0060 -1.1932
19979TIP3   OH281427   5.550   2.854  15.765 -0.0985  0.2041  0.4968
19979TIP3    H181428   5.518   2.909  15.694  0.4504  1.2335  1.0369
19979TIP3    H281429   5.644   2.871  15.769  0.2945 -1.5951 -0.0226
19980TIP3   OH281430   2.161   4.317  13.198  0.2181 -0.1209 -0.3163
19980TIP3    H181431   2.127   4.244  13.250  2.0903  0.0740  1.3259
19980TIP3    H281432   2.253   4.326  13.227  0.2969  2.2978 -1.0961
19981TIP3   OH281433   2.676   4.369  11.647 -0.1750 -0.0439  0.0791
19981TIP3    H181434   2.732   4.333  11.715  1.5175 -1.4162 -1.9232
19981TIP3    H281435   2.615   4.298  11.626  0.6855 -0.4305 -1.2352
19982TIP3   OH281436   3.032   0.836   3.101 -0.1458  0.1363  0.5600
19982TIP3    H181437   3.036   0.746   3.067 -0.3687 -0.1715  1.3360
19982TIP3    H281438   3.104   0.842   3.163 -0.5053  0.3064  0.9610
19983TIP3   OH281439   0.738   2.502   6.544  0.2823  0.9808  0.4833
19983TIP3    H181440   0.825   2.466   6.528  0.9979  2.5619  0.5857
19983TIP3    H281441   0.706   2.457   6.622 -0.2177 -1.6405 -1.1107
19984TIP3   OH281442   2.491   5.552  16.802  0.5989 -0.1990 -0.3267
19984TIP3    H181443   2.519   5.633  16.760  1.6526  0.0082  0.7260
19984TIP3    H281444   2.572   5.506  16.823  0.0388 -1.1742 -0.2239
19985TIP3   OH281445   1.808   5.331   5.147 -0.2689 -0.1188 -0.5408
19985TIP3    H181446   1.724   5.295   5.173 -0.8385  0.7600 -1.1039
19985TIP3    H281447   1.860   5.333   5.227 -0.1774 -2.2158 -0.4909
19986TIP3   OH281448   0.144   4.139   2.014  0.2793  0.3814 -0.0768
19986TIP3    H181449   0.183   4.206   2.071 -0.0965  1.6144 -1.2253
19986TIP3    H281450   0.165   4.168   1.925  0.0039 -0.9783 -0.6091
19987TIP3   OH281451   5.766   6.334  13.293 -0.5939  0.3401  0.5198
19987TIP3    H181452   5.695   6.330  13.357  0.6839 -0.1143  1.9859
19987TIP3    H281453   5.845   6.316  13.344  0.3485 -1.5254 -1.4440
19988TIP3   OH281454   4.529   3.566  11.656  0.0822  0.6570 -0.2050
19988TIP3    H181455   4.562   3.486  11.614 -2.5586  0.0826 -1.3657
19988TIP3    H281456   4.501   3.622  11.583  0.6136  2.0886  0.6461
19989TIP3   OH281457   0.917   0.634  13.655  0.0720 -0.2673 -0.1655
19989TIP3    H181458   0.980   0.628  13.583 -0.7793  0.7417 -1.0182
19989TIP3    H281459   0.901   0.727  13.666 -1.9693 -0.5198 -0.6082
19990TIP3   OH281460   5.607   4.270   0.710 -0.0509 -0.4551 -0.5133
19990TIP3    H181461   5.672   4.254   0.641  1.7657 -0.4103  1.1189
19990TIP3    H281462   5.630   4.356   0.746 -0.1745 -1.0155  0.9703
19991TIP3   OH281463   3.027   3.231   5.757 -0.0106  0.3083 -0.2651
19991TIP3    H181464   3.075   3.171   5.814 -1.0773  0.1828  0.5387
19991TIP3    H281465   3.065   3.317   5.774 -0.7765  0.3981  1.2270
19992TIP3   OH281466   1.667   0.183  16.715  0.5536 -0.3913  0.0738
19992TIP3    H181467   1.658   0.258  16.774  0.8404  0.0603 -0.4546
19992TIP3    H281468   1.595   0.193  16.652  0.7502 -0.4159 -0.1549
19993TIP3   OH281469   2.441   2.558   3.066 -0.2831 -0.8187  0.3312
19993TIP3    H181470   2.458   2.595   3.153  1.7527  1.0614 -0.7686
19993TIP3    H281471   2.355   2.593   3.042  0.0451  0.3471  0.7867
19994TIP3   OH281472   3.382   3.102  13.998 -0.6326  0.4455  0.0215
19994TIP3    H181473   3.401   3.154  13.920 -2.3547  1.6794  0.3547
19994TIP3    H281474   3.345   3.020  13.964  2.5432 -0.9112 -0.5243
19995TIP3   OH281475   4.627   3.791   5.362  0.3690  0.9890 -0.5243
19995TIP3    H181476   4.537   3.769   5.386  0.8425  0.4184  0.8442
19995TIP3    H281477   4.622   3.880   5.326 -0.9971  0.2453 -2.2864
19996TIP3   OH281478   6.340   5.635   1.008 -0.4703  0.1774  0.0989
19996TIP3    H181479   6.400   5.598   1.073  0.5516  2.5230  0.6037
19996TIP3    H281480   6.275   5.681   1.060 -1.5898 -0.6662 -0.5113
19997TIP3   OH281481   5.448   4.702   2.579  0.8903  0.4795  0.2418
19997TIP3    H181482   5.464   4.721   2.487  0.9666  1.3395  0.4173
19997TIP3    H281483   5.531   4.725   2.622  0.9544 -0.2075  0.4841
19998TIP3   OH281484   5.841   1.101   0.305  0.0265 -0.4850 -0.0926
19998TIP3    H181485   5.839   1.120   0.398 -0.2744  1.1280 -0.3993
19998TIP3    H281486   5.930   1.124   0.278 -0.4016  0.7759 -0.5082
19999TIP3   OH281487   2.863   4.176  16.922 -0.2244  0.6672  0.3429
19999TIP3    H181488   2.868   4.195  16.829  0.5510 -0.0494  0.2228
19999TIP3    H281489   2.927   4.235  16.963  0.7787 -0.2657  0.1900
20000TIP3   OH281490   4.733   1.833  14.569  0.0719 -0.1860 -0.1274
20000TIP3    H181491   4.795   1.894  14.531 -0.7143 -0.6538 -2.3610
20000TIP3    H281492   4.678   1.806  14.495 -1.2164 -1.6368  1.2733
20001TIP3   OH281493   3.630   0.611   0.078 -0.4416  0.7820  0.2352
20001TIP3    H181494   3.634   0.614   0.174  2.4478  0.3207  0.2349
20001TIP3    H281495   3.616   0.519   0.058  3.0629  0.0915  0.3268
20002TIP3   OH281496   2.661   3.111   1.280 -0.0327 -0.9082 -0.1250
20002TIP3    H181497   2.706   3.154   1.207  0.6513 -0.4027  0.5686
20002TIP3    H281498   2.593   3.173   1.306 -1.2652 -1.7311 -1.2599
20003TIP3   OH281499   0.345   5.003  16.572 -0.0786 -0.6210  0.0125
20003TIP3    H181500   0.255   5.029  16.549  0.3120  0.0230 -0.8180
20003TIP3    H281501   0.348   5.012  16.668 -0.1582  1.9250 -0.1466
20004TIP3   OH281502   1.603   5.345  12.850  0.6483  0.0315  0.6414
20004TIP3    H181503   1.557   5.281  12.795 -1.6529  0.4369  1.9351
20004TIP3    H281504   1.696   5.329  12.834  0.1915 -3.2941  0.5199
20005TIP3   OH281505   0.674   0.537  13.186 -0.2194  0.4631 -0.0594
20005TIP3    H181506   0.634   0.603  13.131  0.3582  0.8031 -0.0870
20005TIP3    H281507   0.707   0.586  13.262 -0.2022  0.1374  0.1475
20006TIP3   OH281508   3.198   5.813  13.711  0.0884 -0.2893 -1.0925
20006TIP3    H181509   3.106   5.840  13.708  0.9074  4.1068  2.7196
20006TIP3    H281510   3.234   5.843  13.627 -1.5516 -0.5886 -1.9544
20007TIP3   OH281511   2.926   1.230  13.321  0.6279  0.1298  0.6066
20007TIP3    H181512   3.010   1.239  13.365  0.4441  1.0221  0.8028
20007TIP3    H281513   2.861   1.232  13.392  0.3160  1.8093  0.3166
20008TIP3   OH281514   6.768   0.418  13.749 -0.1966  0.2745  0.1742
20008TIP3    H181515   6.785   0.333  13.708 -1.0556  0.1089  0.1516
20008TIP3    H281516   6.730   0.472  13.680  1.2264  1.0139 -0.0838
20009TIP3   OH281517   0.635   1.985   3.082  0.0443  0.4042 -0.1427
20009TIP3    H181518   0.692   1.913   3.057  1.2495  1.7306 -1.3887
20009TIP3    H281519   0.660   2.005   3.172  0.7478  0.2242 -0.2964
20010TIP3   OH281520   5.645   6.651  11.262 -0.5557 -0.3541 -0.1496
20010TIP3    H181521   5.723   6.638  11.209 -1.0631 -0.2589 -0.9272
20010TIP3    H281522   5.581   6.589  11.228 -0.6272 -0.8789  0.9016
20011TIP3   OH281523   1.041   4.844   0.656  0.0356  0.4683  0.6790
20011TIP3    H181524   1.040   4.782   0.729  0.5076  0.3171  0.5625
20011TIP3    H281525   0.958   4.828   0.610 -0.4520  0.8581  1.4164
20012TIP3   OH281526   6.191   6.794   4.362  0.0400 -0.5869  0.2619
20012TIP3    H181527   6.227   6.863   4.417  1.2759 -1.0193  0.0303
20012TIP3    H281528   6.185   6.832   4.274  3.2389 -1.4579 -0.4909
20013TIP3   OH281529   0.193   5.635  14.095 -0.0496  0.2531  0.3952
20013TIP3    H181530   0.126   5.586  14.142  0.2616  0.3994  0.9913
20013TIP3    H281531   0.252   5.567  14.062 -2.1298 -0.2044 -2.8683
20014TIP3   OH281532   1.482   5.322  13.326  0.0896 -0.2724  0.2802
20014TIP3    H181533   1.492   5.333  13.231 -1.7997  1.2525  0.2024
20014TIP3    H281534   1.518   5.402  13.363  1.2877 -1.0819  0.9226
20015TIP3   OH281535   2.281   4.507   3.763  0.6012 -0.4914  0.2041
20015TIP3    H181536   2.227   4.543   3.693  0.3547  2.1543  1.6667
20015TIP3    H281537   2.364   4.486   3.720  0.1505  0.2127 -1.0663
20016TIP3   OH281538   5.468   2.700   4.894  0.7752 -0.1632 -0.0878
20016TIP3    H181539   5.482   2.766   4.963  0.5126 -0.5841  0.3729
20016TIP3    H281540   5.535   2.720   4.828  2.0381 -0.6899  0.9826
20017TIP3   OH281541   2.504   3.681   1.444 -0.0109  0.9678 -0.4771
20017TIP3    H181542   2.588   3.682   1.490  0.1359  2.3484 -0.7463
20017TIP3    H281543   2.528   3.678   1.351 -0.2939 -0.0487 -0.5361
20018TIP3   OH281544   4.274   3.229   0.741 -0.1329 -0.0062 -0.6337
20018TIP3    H181545   4.269   3.231   0.645  0.9695  2.0038 -0.7097
20018TIP3    H281546   4.186   3.256   0.770 -0.1584  0.4274 -1.1041
20019TIP3   OH281547   1.581   2.591  15.080 -0.0162 -0.2005  0.0690
20019TIP3    H181548   1.606   2.582  14.988  0.1090  1.7924 -0.1226
20019TIP3    H281549   1.663   2.579  15.128  0.6792  2.4025 -0.3336
20020TIP3   OH281550   3.419   2.525  15.538 -0.0521 -0.4648  0.2655
20020TIP3    H181551   3.344   2.518  15.479 -0.9554  0.8999  1.1984
20020TIP3    H281552   3.396   2.470  15.613  0.8706 -1.7836 -0.3732
20021TIP3   OH281553   0.071   1.438  10.426 -0.7479 -0.6320  0.0987
20021TIP3    H181554   0.052   1.344  10.419 -1.1265 -0.6949  1.6954
20021TIP3    H281555   0.081   1.467  10.335 -1.2953 -2.0769 -0.4503
20022TIP3   OH281556   3.550   6.107   3.903 -0.7165  0.6253 -0.0411
20022TIP3    H181557   3.583   6.175   3.963 -1.8623 -0.3914  1.8508
20022TIP3    H281558   3.496   6.154   3.840  1.3907  1.8715 -1.0150
20023TIP3   OH281559   0.652   0.804  13.352 -0.3388 -0.0999  0.1424
20023TIP3    H181560   0.735   0.852  13.361  0.5563 -1.6389  0.4223
20023TIP3    H281561   0.612   0.809  13.438 -1.0788  1.5078 -0.2419
20024TIP3   OH281562   1.257   5.447  13.466  0.4231 -0.1796  0.3032
20024TIP3    H181563   1.326   5.397  13.423  0.4348  0.2390 -0.1722
20024TIP3    H281564   1.290   5.537  13.467 -0.9933  0.4436 -1.8790
20025TIP3   OH281565   0.306   4.569   3.666  0.0430  0.2922 -0.2616
20025TIP3    H181566   0.390   4.530   3.691  0.0425  0.4044 -0.0904
20025TIP3    H281567   0.318   4.592   3.573  0.5784  1.2968  0.0366
20026TIP3   OH281568   3.809   6.694   4.099  0.2351  0.0398 -0.7075
20026TIP3    H181569   3.859   6.759   4.148 -2.7031  1.3131  0.8581
20026TIP3    H281570   3.805   6.729   4.010  1.5605  0.1675 -0.7483
20027TIP3   OH281571   3.547   3.345   2.869  0.1489  0.2430 -0.7420
20027TIP3    H181572   3.518   3.367   2.780 -0.1130  2.5582 -0.1577
20027TIP3    H281573   3.588   3.259   2.860  0.3972  0.5272 -3.1638
20028TIP3   OH281574   5.379   0.131   5.292  0.1655  0.6296  0.0817
20028TIP3    H181575   5.303   0.099   5.339  0.3389  1.6301  1.0653
20028TIP3    H281576   5.399   0.062   5.229 -0.8588 -0.1433  0.5866
20029TIP3   OH281577   1.685   4.763  15.365 -0.4741  0.0526 -0.6151
20029TIP3    H181578   1.592   4.747  15.376 -0.5370  1.4365  1.3610
20029TIP3    H281579   1.727   4.712  15.434  0.2087 -0.1659 -1.1748
20030TIP3   OH281580   0.224   5.686   1.070  0.5948 -0.1234  0.9922
20030TIP3    H181581   0.129   5.681   1.064  0.6953 -4.9589 -1.3651
20030TIP3    H281582   0.242   5.696   1.164 -2.2387 -0.7365  1.6908
20031TIP3   OH281583   1.377   6.654   4.658  0.2063 -0.0016 -0.2341
20031TIP3    H181584   1.320   6.670   4.582 -1.1631  0.8248  0.9213
20031TIP3    H281585   1.402   6.562   4.649 -0.3202 -0.0542 -1.4315
20032TIP3   OH281586   1.478   2.277  11.771 -0.4603  0.3331 -0.4145
20032TIP3    H181587   1.399   2.254  11.723 -0.6171  0.7246 -0.3500
20032TIP3    H281588   1.447   2.294  11.860 -0.3213  0.5946 -0.4159
20033TIP3   OH281589   0.052   2.744  15.662  0.4701  0.4009 -0.0865
20033TIP3    H181590   0.096   2.748  15.577 -0.5814  0.4414 -0.6379
20033TIP3    H281591   0.054   2.651  15.685  2.3329  0.5893  0.7171
20034TIP3   OH281592   4.389   1.237  13.399  0.4134  0.0274 -0.2572
20034TIP3    H181593   4.454   1.272  13.460  0.3506  2.5411 -1.5273
20034TIP3    H281594   4.440   1.198  13.328  0.5053  0.2303 -0.3013
20035TIP3   OH281595   0.975   5.166   2.907  0.1179  0.3568 -0.2180
20035TIP3    H181596   0.957   5.260   2.911 -1.2212  0.2114 -1.6989
20035TIP3    H281597   1.008   5.144   2.994  0.0481  2.1168  0.2904
20036TIP3   OH281598   1.607   3.066  12.079 -0.8824 -0.1758  0.1275
20036TIP3    H181599   1.601   3.161  12.074  2.9320  0.2310 -0.0683
20036TIP3    H281600   1.631   3.048  12.170  2.1456 -0.4706 -0.6354
20037TIP3   OH281601   5.542   0.950  17.051  0.1545 -0.7383  0.1399
20037TIP3    H181602   5.449   0.952  17.029  0.3099  2.3153 -0.6352
20037TIP3    H281603   5.546   0.966  17.145 -0.0970 -0.0761  0.0400
20038TIP3   OH281604   5.563   1.083   4.904 -0.2859 -0.7184  0.3040
20038TIP3    H181605   5.655   1.090   4.880 -0.0136 -0.3649  1.4081
20038TIP3    H281606   5.532   1.006   4.856  0.6501 -1.0157  0.1491
20039TIP3   OH281607   6.454   0.096  11.738 -0.1036  0.6507  0.2779
20039TIP3    H181608   6.400   0.017  11.732  0.9702 -0.2705  1.9310
20039TIP3    H281609   6.417   0.155  11.672 -0.7866 -1.2947 -1.1827
20040TIP3   OH281610   5.506   6.099   1.872 -0.1111 -0.0514  0.1870
20040TIP3    H181611   5.494   6.039   1.798  0.5930  0.5177 -0.4102
20040TIP3    H281612   5.601   6.104   1.883 -0.1944  0.2441  0.8325
20041TIP3   OH281613   5.857   4.402  16.558 -0.4857  0.1620  0.0931
20041TIP3    H181614   5.763   4.385  16.548 -0.3379 -1.0360  0.6060
20041TIP3    H281615   5.888   4.334  16.617  0.3406  1.7893  1.6085
20042TIP3   OH281616   2.559   3.554  16.266 -0.0673  0.2234 -0.4420
20042TIP3    H181617   2.627   3.511  16.318  1.3936  1.1042 -1.5511
20042TIP3    H281618   2.533   3.489  16.201  0.8225  0.3894 -0.9696
20043TIP3   OH281619   4.420   5.359  13.450 -0.0670  0.4946  0.0576
20043TIP3    H181620   4.337   5.356  13.402  0.6177  0.8430 -1.1967
20043TIP3    H281621   4.397   5.391  13.537 -1.3082  0.1498 -0.1265
20044TIP3   OH281622   3.993   4.413  15.133 -0.6210  0.4989 -0.7474
20044TIP3    H181623   3.992   4.388  15.226  0.2128  1.3611 -0.4930
20044TIP3    H281624   4.084   4.403  15.106 -0.2585  2.9221 -0.6931
20045TIP3   OH281625   3.326   6.525  15.144 -0.0004 -0.2808 -0.2654
20045TIP3    H181626   3.238   6.559  15.128 -0.2704 -0.4430  0.7581
20045TIP3    H281627   3.365   6.517  15.057  0.2255  2.9374 -0.5873
20046TIP3   OH281628   2.160   0.835  11.976  0.0095 -0.0646 -0.2479
20046TIP3    H181629   2.086   0.808  12.031  0.2106 -0.1293 -0.0116
20046TIP3    H281630   2.157   0.775  11.902 -0.9898  0.7694 -0.9210
20047TIP3   OH281631   5.975   2.288   3.305 -0.2681  0.4817  0.5482
20047TIP3    H181632   6.018   2.337   3.235 -0.9756 -0.5625 -0.6673
20047TIP3    H281633   5.914   2.229   3.259 -2.0161  0.9627  2.1091
20048TIP3   OH281634   5.997   3.701  14.838  0.2135 -0.3059  0.1001
20048TIP3    H181635   6.019   3.655  14.757 -1.3150 -0.4596 -0.2574
20048TIP3    H281636   6.028   3.790  14.824 -0.3908 -0.2267 -0.8270
20049TIP3   OH281637   0.408   3.571   3.497  0.1392 -0.2473 -0.6720
20049TIP3    H181638   0.457   3.492   3.473 -1.2919 -1.6496  0.8206
20049TIP3    H281639   0.329   3.568   3.443  0.0069  0.1131 -0.5001
20050TIP3   OH281640   6.289   1.124  16.743  0.5116 -0.6526  0.6598
20050TIP3    H181641   6.365   1.182  16.751 -0.6087  0.8963  0.7742
20050TIP3    H281642   6.244   1.154  16.664 -1.0714 -0.0807  1.7069
20051TIP3   OH281643   3.540   2.981  12.603 -0.2089 -0.3503  0.6473
20051TIP3    H181644   3.619   3.035  12.601 -0.7910  0.5697  1.4586
20051TIP3    H281645   3.542   2.932  12.521  0.6475  0.4631  0.1620
20052TIP3   OH281646   1.478   0.790  12.531  0.5097  0.3393 -0.2749
20052TIP3    H181647   1.574   0.793  12.526  0.5408  0.7476  0.4227
20052TIP3    H281648   1.450   0.769  12.442  1.2225  0.9084 -0.6448
20053TIP3   OH281649   1.743   6.274   3.055  0.8001 -0.1036 -0.1073
20053TIP3    H181650   1.830   6.296   3.087  0.6108  2.3096 -1.0239
20053TIP3    H281651   1.722   6.344   2.993 -0.9004 -1.8219 -1.5941
20054TIP3   OH281652   0.194   1.592  12.505  0.0599  0.1897  0.0299
20054TIP3    H181653   0.125   1.539  12.465 -1.1813  1.4641  0.3849
20054TIP3    H281654   0.188   1.570  12.599 -0.4787  0.9418  0.1818
20055TIP3   OH281655   4.741   5.230  13.566 -0.5579  0.2068 -0.0667
20055TIP3    H181656   4.786   5.146  13.577  0.9708  0.9789 -0.1046
20055TIP3    H281657   4.744   5.246  13.471  0.6791  1.0651  0.0919
20056TIP3   OH281658   6.129   6.009   2.485  0.2910 -0.4186  0.1353
20056TIP3    H181659   6.183   6.033   2.561  1.3532 -1.2787 -0.3162
20056TIP3    H281660   6.045   5.983   2.523  0.5217 -0.0260  0.9461
20057TIP3   OH281661   1.746   3.901   3.331  0.5176  0.5012  0.1850
20057TIP3    H181662   1.652   3.905   3.313  0.5611 -1.1129 -0.5847
20057TIP3    H281663   1.762   3.976   3.388 -1.6204 -0.3139  2.0362
20058TIP3   OH281664   0.950   4.804  17.101  0.0535  0.1247  0.9507
20058TIP3    H181665   1.000   4.771  17.176  1.2022 -0.9595 -0.2418
20058TIP3    H281666   0.958   4.899  17.106 -1.6704  0.2468  3.3607
20059TIP3   OH281667   2.262   2.931  12.458  0.3090  0.0429 -0.0446
20059TIP3    H181668   2.200   2.990  12.416  1.9469  0.9012 -1.3336
20059TIP3    H281669   2.233   2.843  12.433 -1.4148  0.2927  0.8834
20060TIP3   OH281670   1.157   6.623  17.136 -0.5227 -0.0798  0.3497
20060TIP3    H181671   1.187   6.653  17.050 -0.2985 -0.2338  0.3737
20060TIP3    H281672   1.130   6.703  17.181  0.0505  0.0865  0.4057
20061TIP3   OH281673   4.395   1.437  15.833  0.2443  0.3902  0.8042
20061TIP3    H181674   4.331   1.504  15.855 -0.6192  0.0137 -0.4642
20061TIP3    H281675   4.377   1.365  15.893 -0.3296  0.4080  0.6560
20062TIP3   OH281676   6.262   4.111   4.607  0.0271 -0.5855  0.3018
20062TIP3    H181677   6.219   4.093   4.690 -1.0371 -0.4216 -0.1888
20062TIP3    H281678   6.272   4.206   4.605 -0.0132 -0.5824  0.2191
20063TIP3   OH281679   6.513   5.613   3.770 -0.1897 -0.0524 -0.0615
20063TIP3    H181680   6.516   5.629   3.864 -1.3823 -1.4422  0.2396
20063TIP3    H281681   6.571   5.538   3.756  0.3929  0.4731 -0.5215
20064TIP3   OH281682   2.558   5.156   1.760  0.3174  0.3814  0.0572
20064TIP3    H181683   2.627   5.094   1.738 -0.1076  0.9141 -3.1897
20064TIP3    H281684   2.487   5.102   1.794  0.9259 -0.6002 -0.1953
20065TIP3   OH281685   0.644   1.289   1.872 -0.1578  0.4143  0.4013
20065TIP3    H181686   0.555   1.322   1.869 -0.3401 -0.0499  0.5771
20065TIP3    H281687   0.660   1.253   1.784 -0.3869 -0.1149  0.5718
20066TIP3   OH281688   4.818   0.294   6.009 -0.2477  0.5785 -0.2838
20066TIP3    H181689   4.847   0.224   5.950 -0.9983 -0.6486  0.7458
20066TIP3    H281690   4.837   0.261   6.097 -1.7602  1.1075  0.2763
20067TIP3   OH281691   3.985   6.692   5.637  0.4339 -0.1696  0.6244
20067TIP3    H181692   3.966   6.736   5.720  0.4262 -0.8004  0.9572
20067TIP3    H281693   3.963   6.757   5.570 -0.3729  0.0438  1.0886
20068TIP3   OH281694   4.012   1.450   6.966  0.0814 -0.0282 -0.5583
20068TIP3    H181695   4.076   1.379   6.967 -1.3986 -1.4584  0.7217
20068TIP3    H281696   3.985   1.458   7.058 -0.9364  1.1292 -0.9344
20069TIP3   OH281697   2.144   1.074   0.837  0.3363  0.0199  0.6900
20069TIP3    H181698   2.139   1.169   0.842  0.0358  0.0527 -0.0774
20069TIP3    H281699   2.057   1.047   0.808 -0.0345 -0.6063  2.2663
20070TIP3   OH281700   3.642   1.160  12.663 -0.4315 -0.4342 -0.3213
20070TIP3    H181701   3.693   1.092  12.705  1.8197  0.8213 -0.8762
20070TIP3    H281702   3.571   1.178  12.724  1.3152 -0.3905  1.7882
20071TIP3   OH281703   6.045   5.993  16.284  0.1655  0.2510 -0.4053
20071TIP3    H181704   5.998   6.057  16.338  1.2961  0.7603 -0.0045
20071TIP3    H281705   6.018   5.908  16.318  0.8186  0.5610  0.9564
20072TIP3   OH281706   6.714   5.145  16.687 -0.4684  0.0832  0.0535
20072TIP3    H181707   6.775   5.100  16.629  1.3602  1.4841  0.7923
20072TIP3    H281708   6.727   5.238  16.667 -2.0575  0.4586  0.5767
20073TIP3   OH281709   4.884   1.544   0.632  0.3863 -0.0639 -0.2931
20073TIP3    H181710   4.942   1.544   0.555  0.0165  0.1836 -0.5772
20073TIP3    H281711   4.939   1.577   0.703  0.0724  2.1519 -0.9936
20074TIP3   OH281712   4.216   0.512   3.908  0.1656 -0.4940 -0.3492
20074TIP3    H181713   4.309   0.521   3.932 -0.2269 -0.1043  1.1116
20074TIP3    H281714   4.203   0.418   3.896  0.7858 -0.5343 -0.7653
20075TIP3   OH281715   1.284   4.293  13.280  0.1306 -0.4051  0.6417
20075TIP3    H181716   1.362   4.291  13.224 -0.5748  0.7724 -0.4589
20075TIP3    H281717   1.229   4.222  13.247 -0.6193  0.7512 -0.7690
20076TIP3   OH281718   3.406   1.769   3.815 -0.0771  0.7128  0.2652
20076TIP3    H181719   3.499   1.754   3.831 -0.0551  0.5643  0.0127
20076TIP3    H281720   3.368   1.681   3.813 -0.2840  0.7893  0.7218
20077TIP3   OH281721   1.629   1.806   3.125  0.1170 -0.2955  0.3162
20077TIP3    H181722   1.572   1.810   3.048  0.7906  0.3362 -0.1568
20077TIP3    H281723   1.718   1.814   3.091  0.3947  0.7474  1.2170
20078TIP3   OH281724   3.044   1.746   4.718 -0.3662 -0.4452 -0.2139
20078TIP3    H181725   3.086   1.814   4.770 -0.0758 -1.1469  0.4808
20078TIP3    H281726   2.989   1.794   4.656  0.1220  0.4291  0.0174
20079TIP3   OH281727   6.637   3.853   2.618  0.9634 -0.3995  0.7747
20079TIP3    H181728   6.559   3.909   2.619  1.1999 -0.0633  0.5030
20079TIP3    H281729   6.695   3.893   2.553  0.5501 -1.7498 -0.4866
20080TIP3   OH281730   6.209   5.294   1.129  0.2029 -0.2116 -0.3025
20080TIP3    H181731   6.282   5.249   1.087 -1.0311 -2.2945 -0.3674
20080TIP3    H281732   6.136   5.283   1.069 -1.3848 -2.5113  1.8175
20081TIP3   OH281733   3.617   3.263   1.638 -0.4117 -0.3392 -0.0118
20081TIP3    H181734   3.666   3.266   1.721 -0.1343 -1.9748 -0.0881
20081TIP3    H281735   3.673   3.212   1.579 -2.0132 -1.9535 -0.2153
20082TIP3   OH281736   2.188   1.293  12.777  0.0403  0.1768  0.1544
20082TIP3    H181737   2.119   1.270  12.715 -0.3302 -0.5709  0.8276
20082TIP3    H281738   2.269   1.288  12.727 -0.4772  2.4244 -1.0203
20083TIP3   OH281739   6.246   3.098  11.052  0.2966  0.4077 -0.0416
20083TIP3    H181740   6.212   3.181  11.017 -3.3194 -0.5921  0.7663
20083TIP3    H281741   6.230   3.034  10.982 -0.4207 -0.2900  0.7501
20084TIP3   OH281742   4.932   1.095  11.207 -0.0756  0.0831  0.0123
20084TIP3    H181743   5.014   1.143  11.198  0.3533 -0.4441  0.9553
20084TIP3    H281744   4.956   1.012  11.248 -0.9625 -0.4564 -0.5205
20085TIP3   OH281745   5.550   3.354  13.255 -0.2388 -0.0320  0.1745
20085TIP3    H181746   5.627   3.398  13.292 -0.1719 -1.0601  1.2991
20085TIP3    H281747   5.565   3.261  13.272 -1.1830 -0.3455 -0.6457
20086TIP3   OH281748   0.281   4.483   0.597 -0.0670  0.0166  0.5539
20086TIP3    H181749   0.193   4.493   0.633  0.3114 -0.2714  1.6140
20086TIP3    H281750   0.328   4.431   0.663  0.6583 -0.5604 -0.3859
20087TIP3   OH281751   5.683   0.319  13.901 -0.1639  0.7282  0.2517
20087TIP3    H181752   5.724   0.328  13.987 -2.8289  0.0308  1.7499
20087TIP3    H281753   5.723   0.241  13.863  2.2349  1.9799  0.0694
20088TIP3   OH281754   2.088   2.452   6.274  0.1475  0.4629 -0.2248
20088TIP3    H181755   2.020   2.440   6.340  0.2928 -1.3747 -0.3803
20088TIP3    H281756   2.170   2.453   6.324  0.2334 -0.5908 -0.3388
20089TIP3   OH281757   1.351   0.615  15.717  0.2398 -0.2256  0.0894
20089TIP3    H181758   1.392   0.605  15.803 -0.2228  1.7741  0.6181
20089TIP3    H281759   1.257   0.619  15.736  0.0249 -1.2272 -0.6924
20090TIP3   OH281760   0.281   5.251  10.921 -0.5735  0.5374  0.4663
20090TIP3    H181761   0.366   5.295  10.914 -1.5254  2.3234 -0.5758
20090TIP3    H281762   0.217   5.322  10.922 -2.0407 -0.6755  2.7337
20091TIP3   OH281763   0.871   0.709   3.522 -0.0391  0.4820 -0.4921
20091TIP3    H181764   0.920   0.635   3.557 -1.2636 -0.4077 -0.5903
20091TIP3    H281765   0.875   0.698   3.427 -2.0326 -0.7695 -0.5099
20092TIP3   OH281766   5.477   1.987   3.721  0.5670  0.0670  0.4460
20092TIP3    H181767   5.437   1.947   3.644 -1.7297  3.4529 -0.3632
20092TIP3    H281768   5.560   2.022   3.690 -0.5468  1.8134 -0.7505
20093TIP3   OH281769   1.368   0.473  12.752 -0.4145 -0.4239 -0.1861
20093TIP3    H181770   1.427   0.400  12.740 -0.8020 -0.5359 -1.5312
20093TIP3    H281771   1.376   0.496  12.845  0.8019 -1.2113 -0.0845
20094TIP3   OH281772   1.596   0.228   6.240  0.4608 -0.1924  0.0713
20094TIP3    H181773   1.688   0.253   6.229  0.2801  0.6174  0.3038
20094TIP3    H281774   1.594   0.179   6.322  0.3959  1.4957  1.1334
20095TIP3   OH281775   5.890   0.209   0.294  0.0028 -0.0852  0.2910
20095TIP3    H181776   5.970   0.261   0.300  0.3795 -0.7650  1.5780
20095TIP3    H281777   5.853   0.210   0.382 -0.9464 -0.5026 -0.0831
20096TIP3   OH281778   3.726   0.636   3.556 -0.2109 -0.0694  0.6684
20096TIP3    H181779   3.712   0.657   3.648 -0.6245 -0.0134  0.5920
20096TIP3    H281780   3.638   0.622   3.520 -0.1010  0.5929  0.1168
20097TIP3   OH281781   6.432   2.839  15.175 -0.3672 -0.5165 -0.0167
20097TIP3    H181782   6.449   2.836  15.270  1.0617  1.0405 -0.1954
20097TIP3    H281783   6.432   2.747  15.149 -1.5889 -1.0389  1.6024
20098TIP3   OH281784   3.794   5.981  14.887  0.3252 -0.0674 -0.1945
20098TIP3    H181785   3.768   6.019  14.803 -0.0123  0.6932  0.2374
20098TIP3    H281786   3.890   5.983  14.885  0.3214  0.6662 -0.2681
20099TIP3   OH281787   4.842   1.690  16.556 -0.1581 -0.0631 -0.1776
20099TIP3    H181788   4.865   1.600  16.534 -2.7257 -0.9327  0.3612
20099TIP3    H281789   4.839   1.736  16.472  0.7034 -0.5771 -0.4981
20100TIP3   OH281790   1.341   2.219   6.287  0.0765  0.3773 -0.0895
20100TIP3    H181791   1.356   2.128   6.311  0.4095  0.4269 -0.1088
20100TIP3    H281792   1.342   2.267   6.370 -0.6678  0.2911 -0.0194
20101TIP3   OH281793   5.387   6.252   2.562  0.0887  0.4432 -0.4614
20101TIP3    H181794   5.351   6.265   2.475 -2.0626 -0.0985  0.2704
20101TIP3    H281795   5.343   6.317   2.617 -0.9001 -1.1551  0.7454
20102TIP3   OH281796   4.125   6.755  13.796  0.3214  0.2059 -0.0873
20102TIP3    H181797   4.109   6.705  13.716 -0.5859  0.7245 -0.2436
20102TIP3    H281798   4.105   6.694  13.867 -0.1004  0.1289 -0.2694
20103TIP3   OH281799   5.861   2.169  16.285 -0.8365 -0.3582  0.8708
20103TIP3    H181800   5.826   2.090  16.243  0.5872  0.3923 -1.9856
20103TIP3    H281801   5.923   2.135  16.349 -1.6211 -1.5736  1.0249
20104TIP3   OH281802   1.820   2.248   3.005 -0.3365  0.1716 -0.7857
20104TIP3    H181803   1.894   2.288   3.050 -0.9001 -0.8779  1.2076
20104TIP3    H281804   1.827   2.278   2.915  0.3357  3.1568  0.1644
20105TIP3   OH281805   5.513   0.807   0.517 -0.0168  0.0479 -0.4023
20105TIP3    H181806   5.495   0.819   0.610  1.8099  1.0682 -0.1189
20105TIP3    H281807   5.536   0.895   0.486  2.0786 -0.6811 -1.1267
20106TIP3   OH281808   1.047   0.849  10.883  0.2704  0.0335  0.1389
20106TIP3    H181809   1.073   0.938  10.905 -0.3059  0.3770 -0.5339
20106TIP3    H281810   1.017   0.854  10.792 -1.0413 -0.5612  0.5043
20107TIP3   OH281811   3.880   0.704  15.035  0.3305 -0.4140 -0.5536
20107TIP3    H181812   3.837   0.716  14.951  0.1316  1.0729 -0.2691
20107TIP3    H281813   3.928   0.786  15.049 -0.1619 -0.3678  1.0570
20108TIP3   OH281814   2.205   5.033   5.549  0.2640 -0.1261 -0.4684
20108TIP3    H181815   2.138   4.965   5.556  0.2325 -0.0994 -0.5133
20108TIP3    H281816   2.166   5.100   5.493 -0.3219  0.6706  0.8449
20109TIP3   OH281817   4.933   3.757  14.219 -0.3434 -0.1843 -0.7599
20109TIP3    H181818   4.861   3.763  14.156  0.5821  0.2956 -1.8128
20109TIP3    H281819   4.972   3.844  14.219  0.0576 -0.3598  0.0093
20110TIP3   OH281820   6.675   3.257  14.695 -0.0372  0.3865 -0.0482
20110TIP3    H181821   6.630   3.220  14.771  2.1097 -1.0010  0.6491
20110TIP3    H281822   6.708   3.341  14.726 -2.2274  1.5253 -0.6395
20111TIP3   OH281823   2.393   4.683  16.151 -0.0146  0.0987 -0.2273
20111TIP3    H181824   2.456   4.714  16.216  0.4852 -1.4016  0.0401
20111TIP3    H281825   2.437   4.610  16.107 -1.2471 -0.4389 -0.6164
20112TIP3   OH281826   4.726   2.958  16.838  0.3539  0.0368 -0.0289
20112TIP3    H181827   4.666   2.901  16.887  2.2398 -1.2901  0.8307
20112TIP3    H281828   4.725   3.040  16.887  2.2878 -1.2957  2.4665
20113TIP3   OH281829   0.882   0.025   3.673  0.1892 -0.0377  0.3730
20113TIP3    H181830   0.835   0.077   3.738  0.5088  1.3840 -0.4860
20113TIP3    H281831   0.951   0.083   3.641  0.9093 -1.1986 -0.2338
20114TIP3   OH281832   4.573   5.988  12.463 -0.3637  0.3510  0.4994
20114TIP3    H181833   4.561   6.057  12.529 -3.0154 -0.8003  1.3597
20114TIP3    H281834   4.659   5.950  12.483  0.3347  2.1851  1.1494
20115TIP3   OH281835   3.070   5.423   2.951 -0.2604 -0.2509  0.1307
20115TIP3    H181836   3.021   5.440   3.032 -0.5198  1.3193 -0.3341
20115TIP3    H281837   3.009   5.443   2.881 -0.3366 -2.4640 -0.5200
20116TIP3   OH281838   4.005   2.738  14.430 -0.0900  0.0979 -0.0235
20116TIP3    H181839   3.932   2.725  14.490 -0.1750  0.2526 -0.0935
20116TIP3    H281840   3.973   2.705  14.346  0.2891 -0.8048  0.1811
20117TIP3   OH281841   1.010   0.496   1.506  0.4241 -0.0997 -0.1285
20117TIP3    H181842   0.916   0.482   1.493  0.3472 -0.4098  0.6700
20117TIP3    H281843   1.018   0.591   1.517  0.2709 -0.0215 -0.6769
20118TIP3   OH281844   0.757   2.796   4.439 -0.1501  0.0050 -0.2139
20118TIP3    H181845   0.792   2.885   4.434  1.5448 -0.6414 -0.9240
20118TIP3    H281846   0.791   2.762   4.522 -0.9895  0.0921  0.1676
20119TIP3   OH281847   1.232   4.226  16.563 -0.0534 -0.2793  0.5634
20119TIP3    H181848   1.145   4.200  16.535 -0.1288  0.4083  0.1412
20119TIP3    H281849   1.233   4.321  16.555  0.9940 -0.3284 -0.2123
20120TIP3   OH281850   1.851   4.022  15.893 -0.3096 -0.2845  0.3578
20120TIP3    H181851   1.946   4.022  15.883 -0.3913  0.4166 -0.5270
20120TIP3    H281852   1.837   4.008  15.986  0.6891  0.5140  0.6514
20121TIP3   OH281853   0.676   3.302   2.993  0.1178 -0.2727 -0.0342
20121TIP3    H181854   0.644   3.365   2.928  1.0529  0.8047  0.5107
20121TIP3    H281855   0.597   3.269   3.036 -0.4309 -0.0507 -0.8626
20122TIP3   OH281856   2.367   6.571  16.662  1.0629 -0.1785 -0.0950
20122TIP3    H181857   2.361   6.661  16.694  1.1388  0.1394 -0.9534
20122TIP3    H281858   2.383   6.580  16.568  1.4402 -1.0860 -0.1297
20123TIP3   OH281859   1.069   6.532  16.035 -0.3107 -0.3908  0.6127
20123TIP3    H181860   1.146   6.498  16.080  0.2411  1.6010  1.3182
20123TIP3    H281861   1.052   6.471  15.964  1.9619 -0.8557  0.4235
20124TIP3   OH281862   6.245   2.795   4.786  0.0045  0.0067  0.0006
20124TIP3    H181863   6.319   2.855   4.784 -0.8523  1.0961 -2.2453
20124TIP3    H281864   6.282   2.710   4.763  0.9471 -0.0268  1.5112
20125TIP3   OH281865   2.781   5.887   0.380 -0.2421  0.0292  0.0932
20125TIP3    H181866   2.758   5.971   0.420  0.2262  0.6718 -0.9533
20125TIP3    H281867   2.708   5.868   0.321 -0.7780 -0.7638  0.9704
20126TIP3   OH281868   2.852   4.570  16.148 -0.0783  0.0846  0.0899
20126TIP3    H181869   2.785   4.537  16.088 -0.1899 -0.6591  0.6051
20126TIP3    H281870   2.934   4.549  16.105 -0.1289 -1.4312  0.6531
20127TIP3   OH281871   0.989   2.029  12.289  0.1441 -0.5453 -0.4981
20127TIP3    H181872   0.940   1.982  12.222  1.7402 -0.9228 -1.4469
20127TIP3    H281873   1.081   2.013  12.268  0.8142  2.8963 -0.8041
20128TIP3   OH281874   0.424   2.054  16.036  0.1498  0.0120  0.2336
20128TIP3    H181875   0.337   2.023  16.012 -0.7394  1.7689  1.0532
20128TIP3    H281876   0.483   2.010  15.974 -1.4026 -0.3971 -1.0167
20129TIP3   OH281877   6.344   2.709  17.306 -0.4761 -0.0007 -0.8585
20129TIP3    H181878   6.292   2.752  17.238 -1.2303 -0.9192 -0.8806
20129TIP3    H281879   6.331   2.764  17.383 -2.0829 -0.5927 -0.6766
20130TIP3   OH281880   3.338   5.493   0.492  0.2174  0.0321  0.0244
20130TIP3    H181881   3.388   5.533   0.421 -0.7933  0.2878 -0.5685
20130TIP3    H281882   3.367   5.539   0.570  0.4464  0.6094 -0.3926
20131TIP3   OH281883   4.372   1.077   5.961 -0.1683 -0.5005  0.6897
20131TIP3    H181884   4.277   1.082   5.947 -0.1389 -0.4163  0.5320
20131TIP3    H281885   4.381   1.011   6.030 -0.5074  1.1501  2.4115
20132TIP3   OH281886   1.285   6.008   1.489  0.5294 -0.4765 -0.2850
20132TIP3    H181887   1.304   6.000   1.396  1.4011  0.4778 -0.2143
20132TIP3    H281888   1.244   6.094   1.498 -0.3315 -0.9206  0.1010
20133TIP3   OH281889   0.862   3.052  11.897 -0.2857 -0.3388 -0.0785
20133TIP3    H181890   0.791   3.078  11.839  0.3366 -0.5844 -0.9718
20133TIP3    H281891   0.894   2.969  11.860 -1.0938 -1.4918  1.6926
20134TIP3   OH281892   4.210   3.010   3.696  0.5479  0.2393 -0.0763
20134TIP3    H181893   4.198   2.986   3.604 -1.5742  1.2025 -0.1029
20134TIP3    H281894   4.180   3.101   3.701  0.7751  0.2456  1.5602
20135TIP3   OH281895   4.694   4.722  11.368  0.0286  0.2643 -0.3517
20135TIP3    H181896   4.618   4.692  11.419  1.2364 -0.3452  1.2036
20135TIP3    H281897   4.658   4.779  11.301 -1.7005  0.9692  1.0997
20136TIP3   OH281898   5.564   3.207   5.759  0.1291 -0.5266  0.1178
20136TIP3    H181899   5.469   3.209   5.749  0.1611 -1.8767 -0.7785
20136TIP3    H281900   5.579   3.221   5.853 -0.6270  4.8597 -0.2717
20137TIP3   OH281901   4.668   2.067   2.554 -0.1061  0.1834  0.0750
20137TIP3    H181902   4.711   1.989   2.519 -1.6815 -0.6330 -0.1343
20137TIP3    H281903   4.580   2.038   2.577 -0.7437  1.9015 -0.0103
20138TIP3   OH281904   5.355   3.098  16.849 -0.2241 -0.3248  0.2926
20138TIP3    H181905   5.397   3.066  16.769 -0.6480 -0.9859  0.3305
20138TIP3    H281906   5.335   3.020  16.899 -1.2749 -0.0111  0.3864
20139TIP3   OH281907   3.852   5.118  11.547  0.2260 -0.8480 -0.1084
20139TIP3    H181908   3.905   5.068  11.610  1.2179  0.1565 -0.1057
20139TIP3    H281909   3.902   5.198  11.533 -0.9962 -0.1494 -0.6257
20140TIP3   OH281910   1.886   4.410  15.312 -0.6293  0.1350  0.4463
20140TIP3    H181911   1.860   4.323  15.344 -0.6928  0.0163  0.0761
20140TIP3    H281912   1.982   4.410  15.317 -0.6729  0.4542  1.5051
20141TIP3   OH281913   3.742   5.658   0.324 -0.1274 -0.2874 -0.0450
20141TIP3    H181914   3.746   5.723   0.254 -1.3003 -2.1030 -1.8915
20141TIP3    H281915   3.811   5.596   0.305  0.9808  0.3245  1.7052
20142TIP3   OH281916   0.620   3.708  16.587  0.0812 -0.2733  0.2820
20142TIP3    H181917   0.612   3.699  16.682 -0.9086  1.3821  0.3946
20142TIP3    H281918   0.573   3.632  16.552 -1.9707  0.5092  1.1453
20143TIP3   OH281919   6.762   6.413   0.813 -0.2029  0.4152  0.2852
20143TIP3    H181920   6.758   6.318   0.808 -0.6465  0.4972 -1.4100
20143TIP3    H281921   6.684   6.443   0.766 -0.6997  1.6168  1.8169
20144TIP3   OH281922   6.328   1.934  14.296  0.5503  0.0229 -0.1289
20144TIP3    H181923   6.249   1.937  14.242 -0.2200 -0.0555  0.9471
20144TIP3    H281924   6.382   1.866  14.256  2.3160  3.2306 -3.7496
20145TIP3   OH281925   6.640   2.879  17.140 -0.2847 -0.5865  0.1818
20145TIP3    H181926   6.588   2.954  17.110 -0.7835 -0.4253  1.3983
20145TIP3    H281927   6.655   2.827  17.062 -1.0257  0.1243 -0.4465
20146TIP3   OH281928   3.023   0.487  12.527 -0.3253 -0.6393 -0.1057
20146TIP3    H181929   3.059   0.557  12.472 -0.9960 -0.3138 -0.1384
20146TIP3    H281930   2.989   0.532  12.604  0.0266 -1.0282  0.2832
20147TIP3   OH281931   2.387   1.999   5.797  0.0201  0.1817 -0.4275
20147TIP3    H181932   2.386   1.904   5.789 -1.2153  0.1506 -0.0784
20147TIP3    H281933   2.371   2.031   5.709  0.0933  0.0671 -0.4829
20148TIP3   OH281934   3.121   5.628  15.510  0.0673  0.3704 -0.0791
20148TIP3    H181935   3.185   5.670  15.453  0.4190  0.1255  0.1289
20148TIP3    H281936   3.061   5.698  15.534  0.7773  0.8133  0.4451
20149TIP3   OH281937   6.764   3.930   3.313 -0.2859 -0.1552 -0.1872
20149TIP3    H181938   6.840   3.935   3.372 -0.2794  0.3740 -0.2365
20149TIP3    H281939   6.754   3.837   3.295 -0.0053 -0.2810  0.2886
20150TIP3   OH281940   6.298   0.473  15.610  0.0619 -0.5892 -0.5331
20150TIP3    H181941   6.242   0.442  15.539 -0.0804 -1.6072  0.0116
20150TIP3    H281942   6.308   0.398  15.668 -0.5561  0.4535  1.0024
20151TIP3   OH281943   2.483   5.593  13.533 -0.2869  0.1120  0.6340
20151TIP3    H181944   2.533   5.640  13.467  1.7388 -1.5119  0.9358
20151TIP3    H281945   2.454   5.513  13.490 -2.1187  0.7011  0.6762
20152TIP3   OH281946   4.104   1.331   0.845 -0.1993 -0.1324 -0.6573
20152TIP3    H181947   4.148   1.409   0.879  0.7518 -0.5092 -0.9853
20152TIP3    H281948   4.073   1.284   0.922 -0.0630  0.1594 -0.4259
20153TIP3   OH281949   0.197   0.259   4.875 -0.4968  0.3196 -0.4773
20153TIP3    H181950   0.148   0.178   4.873 -3.7628  2.1288 -0.3792
20153TIP3    H281951   0.198   0.285   4.967 -2.5104  1.9585 -0.8352
20154TIP3   OH281952   4.825   0.775  11.893 -0.4158 -0.0784 -0.0964
20154TIP3    H181953   4.812   0.824  11.812  0.0187 -0.7178 -0.5597
20154TIP3    H281954   4.919   0.755  11.895  0.1910  2.4693  2.0433
20155TIP3   OH281955   0.521   6.546  17.098 -0.0638 -0.1536  0.3528
20155TIP3    H181956   0.549   6.537  17.189  1.4062  0.8979  0.0455
20155TIP3    H281957   0.464   6.471  17.082 -0.7146 -0.1057  2.2591
20156TIP3   OH281958   5.163   2.226  15.812  0.1629  0.1239 -0.4233
20156TIP3    H181959   5.137   2.140  15.844  1.6735 -0.6350 -1.1485
20156TIP3    H281960   5.207   2.267  15.886 -1.4602  0.7399  0.2614
20157TIP3   OH281961   3.559   3.465  10.906 -0.0756  0.1768  0.1002
20157TIP3    H181962   3.468   3.491  10.892 -0.1164  0.2229  0.4478
20157TIP3    H281963   3.578   3.490  10.996 -0.2238 -1.2884  0.5688
20158TIP3   OH281964   5.393   6.094  16.050 -0.2854 -0.3498  0.2950
20158TIP3    H181965   5.447   6.122  15.975  0.9086 -0.0891  1.2128
20158TIP3    H281966   5.419   6.004  16.066  1.3631  0.3459  1.9252
20159TIP3   OH281967   0.519   0.161  16.123 -0.2179  0.3025  0.1722
20159TIP3    H181968   0.445   0.209  16.086 -0.3334  0.0256  0.0444
20159TIP3    H281969   0.555   0.112  16.049  1.6445  2.3326 -0.4003
20160TIP3   OH281970   5.567   4.519   3.851  0.0963  0.3835 -0.0265
20160TIP3    H181971   5.591   4.600   3.807  0.3618  0.4936  0.3133
20160TIP3    H281972   5.525   4.547   3.932 -2.7244  0.2283 -1.3340
20161TIP3   OH281973   6.345   3.345   5.201  0.1713 -0.1129 -0.4034
20161TIP3    H181974   6.350   3.441   5.196  0.6711 -0.0430  1.0559
20161TIP3    H281975   6.271   3.323   5.145 -0.9585  1.2690  0.4439
20162TIP3   OH281976   3.600   0.371  16.781 -0.1546 -0.2123 -0.8117
20162TIP3    H181977   3.612   0.465  16.768  0.0883 -0.3737 -1.8393
20162TIP3    H281978   3.518   0.351  16.737  0.2582 -0.6359 -1.3957
20163TIP3   OH281979   4.112   4.214  15.858 -0.2477  0.1862  0.0780
20163TIP3    H181980   4.094   4.222  15.764 -2.1712  1.6197  0.4881
20163TIP3    H281981   4.181   4.279  15.875 -1.4345  1.5399 -0.0408
20164TIP3   OH281982   2.797   0.674  12.553 -0.0146  0.7228  0.2736
20164TIP3    H181983   2.861   0.731  12.510 -1.0159  2.0234  0.4472
20164TIP3    H281984   2.784   0.601  12.491  1.1138  0.7810 -0.0569
20165TIP3   OH281985   3.475   6.693  15.722 -0.0908  0.5328 -0.4836
20165TIP3    H181986   3.469   6.789  15.730 -0.9006  0.5022 -0.6507
20165TIP3    H281987   3.385   6.662  15.734  0.1016 -0.1787 -0.8285
20166TIP3   OH281988   5.154   1.906  11.135 -0.1069  0.1409 -0.5143
20166TIP3    H181989   5.207   1.864  11.066  0.8215 -1.2571  0.9819
20166TIP3    H281990   5.068   1.919  11.094  0.9700  1.3049 -2.6002
20167TIP3   OH281991   2.692   3.988   4.411  0.1375  0.1727  0.3198
20167TIP3    H181992   2.783   3.974   4.439 -0.3396  0.2795  2.0252
20167TIP3    H281993   2.684   3.936   4.331  1.0496 -1.7974  1.4315
20168TIP3   OH281994   4.499   4.392  13.603 -0.2300  0.3549 -0.3040
20168TIP3    H181995   4.542   4.387  13.518  0.1246  0.0022 -0.1039
20168TIP3    H281996   4.542   4.465  13.647  0.5034 -0.2999  0.0808
20169TIP3   OH281997   1.443   4.698  13.351  0.1045  0.1967  0.7916
20169TIP3    H181998   1.507   4.761  13.320  0.2797 -0.8429 -1.1290
20169TIP3    H281999   1.358   4.736  13.327  0.1982 -0.1565 -0.1349
20170TIP3   OH282000   5.637   1.692   4.175 -0.8445  0.2263  0.4084
20170TIP3    H182001   5.666   1.742   4.099 -1.0209  2.3051  1.6209
20170TIP3    H282002   5.700   1.716   4.244 -1.3162 -0.7501  1.2058
20171TIP3   OH282003   3.244   0.481   3.010  0.2058 -0.1159  0.1834
20171TIP3    H182004   3.150   0.477   3.028  0.2105 -1.7334  0.0213
20171TIP3    H282005   3.250   0.465   2.916  0.6526 -0.0902  0.2073
20172TIP3   OH282006   0.213   2.243  16.463  0.8103  0.1373  0.1327
20172TIP3    H182007   0.236   2.331  16.434  1.7516 -0.6309 -1.6190
20172TIP3    H282008   0.297   2.203  16.486  0.6457 -0.9402 -1.0469
20173TIP3   OH282009   2.954   2.083   0.273  0.2841 -0.5103 -0.1418
20173TIP3    H182010   3.025   2.038   0.319 -0.5258 -0.0576  1.6453
20173TIP3    H282011   2.931   2.025   0.201  0.7953 -1.8641  0.7394
20174TIP3   OH282012   4.293   6.346   2.233  0.0925 -0.6325  0.0760
20174TIP3    H182013   4.375   6.352   2.283  0.0189 -0.6324  0.1977
20174TIP3    H282014   4.238   6.288   2.286  0.3512 -1.3886 -0.4637
20175TIP3   OH282015   1.304   2.120  16.202  0.4146 -0.2445  0.2265
20175TIP3    H182016   1.359   2.165  16.138  0.2085  0.0365  0.2403
20175TIP3    H282017   1.319   2.168  16.283 -1.6260  1.3953 -0.2631
20176TIP3   OH282018   1.103   0.272   2.784  0.4636 -0.6636  0.1567
20176TIP3    H182019   1.032   0.217   2.751 -0.1498  0.8343 -1.1683
20176TIP3    H282020   1.179   0.214   2.788 -0.2050 -1.6638 -1.0206
20177TIP3   OH282021   4.165   6.629  12.166 -0.1667  0.2881  0.6450
20177TIP3    H182022   4.079   6.629  12.125 -0.2171  1.8404  0.6649
20177TIP3    H282023   4.184   6.537  12.184 -2.1678 -0.0289  1.3720
20178TIP3   OH282024   5.320   0.965  12.676 -0.0482 -0.1416 -0.0424
20178TIP3    H182025   5.369   0.929  12.603 -0.8294 -1.2781 -0.0309
20178TIP3    H282026   5.276   0.890  12.716 -0.9644  0.6822  0.5690
20179TIP3   OH282027   4.585   4.206  16.895  0.0935  0.0787 -0.2855
20179TIP3    H182028   4.598   4.285  16.947  1.8382 -1.5446  1.9297
20179TIP3    H282029   4.673   4.177  16.872 -0.4735 -1.3745 -0.7633
20180TIP3   OH282030   5.053   5.719  13.697 -0.6472 -0.4855 -0.4840
20180TIP3    H182031   5.055   5.653  13.767 -1.2052 -0.6780 -0.6388
20180TIP3    H282032   5.135   5.707  13.650  0.6444  0.9386  1.2839
20181TIP3   OH282033   2.890   4.655  14.709  0.1066 -0.0544  0.4007
20181TIP3    H182034   2.955   4.599  14.667 -0.7621 -0.1107 -0.9379
20181TIP3    H282035   2.879   4.728  14.648 -0.4012  0.4337  1.0670
20182TIP3   OH282036   6.453   6.563  12.551  0.4326 -0.8005  0.3471
20182TIP3    H182037   6.414   6.476  12.558  1.1410 -1.0606  1.2588
20182TIP3    H282038   6.399   6.618  12.609  0.1709 -0.6941  0.0059
20183TIP3   OH282039   0.634   6.773  16.691  0.1872 -0.1115 -0.2484
20183TIP3    H182040   0.711   6.750  16.743  0.3017  1.0493  0.1217
20183TIP3    H282041   0.639   6.868  16.681 -0.7769 -0.1136 -0.9032
20184TIP3   OH282042   1.676   2.741   0.775 -0.3817  0.5153 -0.1558
20184TIP3    H182043   1.710   2.782   0.854 -0.2722 -2.3866  1.4147
20184TIP3    H282044   1.753   2.720   0.723 -0.3540  0.9011 -0.2791
20185TIP3   OH282045   4.564   3.712  15.542  0.0895 -0.1175  0.5830
20185TIP3    H182046   4.638   3.769  15.521 -0.8881  2.1630  2.8230
20185TIP3    H282047   4.533   3.742  15.627 -4.6202  0.4895 -0.9992
20186TIP3   OH282048   4.317   4.655  16.281  0.0158 -0.3303  0.1010
20186TIP3    H182049   4.375   4.710  16.334  0.5668  0.1020 -0.9160
20186TIP3    H282050   4.334   4.566  16.310 -0.3378 -0.0313  1.2522
20187TIP3   OH282051   1.667   4.336  15.631  0.5274  0.2429  0.5585
20187TIP3    H182052   1.589   4.390  15.637  0.6848  0.3909  1.3852
20187TIP3    H282053   1.735   4.395  15.598  0.5056  0.3399  0.6892
20188TIP3   OH282054   0.514   0.238  15.549  0.2569  0.0396  0.4702
20188TIP3    H182055   0.541   0.151  15.520 -2.0980 -0.5886 -0.0664
20188TIP3    H282056   0.431   0.224  15.596 -0.6381  2.0341 -0.3484
20189TIP3   OH282057   1.246   3.818  13.174  0.7408  0.3928 -0.3731
20189TIP3    H182058   1.310   3.754  13.140  0.6955 -0.7216  1.4611
20189TIP3    H282059   1.169   3.806  13.119  0.1544 -2.3800  0.8661
20190TIP3   OH282060   5.206   1.367  17.280  0.7542 -0.0050  0.0438
20190TIP3    H182061   5.130   1.375  17.221  1.0587 -0.5758 -0.4322
20190TIP3    H282062   5.189   1.287  17.330  1.6382 -0.8530 -0.9614
20191TIP3   OH282063   4.572   5.925  12.112  0.0175  0.1669  0.6212
20191TIP3    H182064   4.660   5.942  12.145  0.4936 -0.4098 -0.3001
20191TIP3    H282065   4.541   5.851  12.164  0.6988 -0.6293 -0.0547
20192TIP3   OH282066   3.582   2.590  17.310  0.2622  0.0410  0.8597
20192TIP3    H182067   3.529   2.615  17.386 -0.8029 -0.3189  0.2596
20192TIP3    H282068   3.636   2.518  17.341  0.3293  0.3382  1.4544
20193TIP3   OH282069   3.633   3.584  15.884 -0.4839 -0.2605 -0.4872
20193TIP3    H182070   3.723   3.590  15.917 -0.4437  1.2989 -0.8113
20193TIP3    H282071   3.631   3.502  15.835  0.0515 -1.5610  1.5425
20194TIP3   OH282072   3.161   2.369  13.102 -0.3127  0.4056 -0.1041
20194TIP3    H182073   3.227   2.371  13.172  0.9370 -0.7880 -1.1752
20194TIP3    H282074   3.104   2.444  13.120  0.3883  0.5456  1.7721
20195TIP3   OH282075   3.683   1.356  11.075  0.2983 -0.5301 -0.8523
20195TIP3    H182076   3.674   1.449  11.053 -1.7654 -0.8694 -1.7638
20195TIP3    H282077   3.645   1.311  11.000 -2.4785 -1.9464  1.2058
20196TIP3   OH282078   0.574   2.098   6.698 -0.0983 -0.2221  0.1621
20196TIP3    H182079   0.586   2.004   6.686  0.0240 -0.2354  0.3830
20196TIP3    H282080   0.531   2.127   6.618 -0.3503 -0.5042  0.1963
20197TIP3   OH282081   5.456   6.566  11.453  0.1726 -0.0803 -0.2907
20197TIP3    H182082   5.540   6.600  11.422 -0.0690 -0.8257 -1.8747
20197TIP3    H282083   5.479   6.497  11.515  0.8009 -1.4434 -1.9777
20198TIP3   OH282084   2.679   2.810   4.266 -0.1248 -0.3596 -0.2064
20198TIP3    H182085   2.673   2.904   4.284  0.2779 -0.7735  2.6273
20198TIP3    H282086   2.747   2.779   4.326 -1.4616 -2.7154  0.2034
20199TIP3   OH282087   0.464   0.778  13.137  0.7005 -0.0945 -0.4600
20199TIP3    H182088   0.514   0.780  13.219 -1.9310 -2.5285  1.4167
20199TIP3    H282089   0.447   0.870  13.117  1.6100  0.5997  1.6491
20200TIP3   OH282090   0.006   0.913   1.680 -0.4799  0.2267  0.0813
20200TIP3    H182091  -0.017   0.984   1.620 -0.7125  1.4399  1.5709
20200TIP3    H282092   0.075   0.948   1.735 -0.6939 -0.6399  0.9458
20201TIP3   OH282093   5.106   0.180   1.173 -0.3330  0.3475 -0.0974
20201TIP3    H182094   5.087   0.111   1.109  1.3767  0.0114 -0.2817
20201TIP3    H282095   5.111   0.260   1.121 -3.4839  0.9184  0.2556
20202TIP3   OH282096   4.326   2.526  13.763  0.9001 -0.0193 -0.6897
20202TIP3    H182097   4.296   2.435  13.765 -0.7695  0.5054  1.0834
20202TIP3    H282098   4.368   2.535  13.677 -2.1892 -1.4605 -2.5465
20203TIP3   OH282099   4.162   0.960  11.817  0.5510 -0.0767  0.1844
20203TIP3    H182100   4.085   1.016  11.805  0.8069  0.1548 -0.4076
20203TIP3    H282101   4.135   0.897  11.883  0.1616  0.5734  0.6610
20204TIP3   OH282102   6.366   3.331   4.002 -0.7527 -0.1146  0.3171
20204TIP3    H182103   6.320   3.385   3.938 -1.5501  0.4229  1.2958
20204TIP3    H282104   6.410   3.395   4.059  2.0877 -0.6197 -1.1399
20205TIP3   OH282105   6.330   1.557   5.998  0.3272 -0.3060 -0.2513
20205TIP3    H182106   6.311   1.495   5.928  1.1455 -0.5081 -0.2946
20205TIP3    H282107   6.390   1.511   6.057  0.2692  0.1387  0.1677
20206TIP3   OH282108   5.111   3.029  17.267  0.0067 -0.5069  0.3149
20206TIP3    H182109   5.099   2.935  17.254  0.5841 -0.6005  0.4605
20206TIP3    H282110   5.179   3.037  17.333  1.4713  0.0117 -1.1685
20207TIP3   OH282111   2.911   3.555   5.226 -0.3399  0.2667 -0.2119
20207TIP3    H182112   2.835   3.512   5.188 -0.7269  1.9058 -1.4054
20207TIP3    H282113   2.874   3.623   5.283  0.2417 -0.2160  0.7633
20208TIP3   OH282114   2.134   2.360   1.925  0.0002 -0.2434  0.2657
20208TIP3    H182115   2.192   2.289   1.899  0.1396 -0.5733  1.4490
20208TIP3    H282116   2.065   2.317   1.976 -0.4397  0.3419  0.1683
20209TIP3   OH282117   0.749   3.615  11.004 -0.5483 -0.2815  0.4524
20209TIP3    H182118   0.677   3.582  10.951  0.8693 -1.1671 -1.0141
20209TIP3    H282119   0.780   3.538  11.052  0.2925 -0.2429 -0.0030
20210TIP3   OH282120   5.487   6.636  13.213 -0.0945 -0.0138 -0.4272
20210TIP3    H182121   5.521   6.603  13.296  1.9169 -1.4722 -1.7735
20210TIP3    H282122   5.547   6.707  13.189  0.8332 -1.2083 -1.7843
20211TIP3   OH282123   3.977   2.467  11.430 -0.1537  0.7967  0.2757
20211TIP3    H182124   3.997   2.550  11.473  0.7266  0.6919  0.0920
20211TIP3    H282125   4.012   2.477  11.341  0.6100 -0.0171  0.4638
20212TIP3   OH282126   2.214   6.320  16.685  0.3910 -0.6051  0.0677
20212TIP3    H182127   2.168   6.359  16.611 -0.0884 -2.5663 -0.7145
20212TIP3    H282128   2.263   6.393  16.724 -2.2157  1.2651  0.0833
20213TIP3   OH282129   4.712   4.630   5.354  0.1901 -0.1837 -0.1038
20213TIP3    H182130   4.670   4.716   5.361 -5.0467 -2.1805 -1.8320
20213TIP3    H282131   4.725   4.618   5.260  2.6985 -0.6636  0.2496
20214TIP3   OH282132   2.308   3.134  17.042 -0.0013  0.2575  0.9721
20214TIP3    H182133   2.343   3.062  17.095 -0.7994 -0.5027  0.5039
20214TIP3    H282134   2.367   3.140  16.967 -0.6672 -0.8290  0.3309
20215TIP3   OH282135   0.517   2.808  16.000 -0.4742 -0.2925 -0.1332
20215TIP3    H182136   0.508   2.838  15.910 -0.6853  1.5395  0.4433
20215TIP3    H282137   0.431   2.776  16.024 -0.4838 -0.5437 -0.5158
20216TIP3   OH282138   0.229   4.790  15.111 -0.3512 -0.2944  0.4229
20216TIP3    H182139   0.252   4.789  15.018 -2.0212 -2.1347 -0.0548
20216TIP3    H282140   0.311   4.773  15.157  0.4611  0.4266 -0.7025
20217TIP3   OH282141   3.939   1.550   3.238 -0.2760 -0.1588 -0.1320
20217TIP3    H182142   3.877   1.505   3.296 -0.2228 -2.3942 -1.6874
20217TIP3    H282143   3.946   1.493   3.162  4.1068 -0.3538  0.1682
20218TIP3   OH282144   2.129   2.651   1.412 -0.1598 -0.0443 -0.3039
20218TIP3    H182145   2.173   2.703   1.345 -0.1218 -0.4443 -0.5943
20218TIP3    H282146   2.159   2.688   1.495 -1.2351  1.3270 -0.4912
20219TIP3   OH282147   1.171   3.654  13.518  0.2258  0.1667 -0.3599
20219TIP3    H182148   1.217   3.732  13.487  1.1872 -0.8164 -1.5120
20219TIP3    H282149   1.240   3.590  13.536 -0.5735 -0.6427 -0.0605
20220TIP3   OH282150   1.754   0.202  14.516  0.3984  0.0050 -0.5915
20220TIP3    H182151   1.762   0.295  14.496 -0.8394  0.8875  2.4645
20220TIP3    H282152   1.834   0.180  14.563 -0.1754  0.0807  0.4467
20221TIP3   OH282153   1.178   0.961  15.810  0.1108 -0.3714  0.4362
20221TIP3    H182154   1.267   0.960  15.844 -0.0069  1.4747  0.9389
20221TIP3    H282155   1.184   1.011  15.728 -0.5854  0.5960  0.9551
20222TIP3   OH282156   4.107   4.754  13.288 -0.1644 -0.3815  0.1528
20222TIP3    H182157   4.041   4.820  13.306  1.2529  1.0012  0.4569
20222TIP3    H282158   4.123   4.712  13.373  0.6995  0.6071  0.5011
20223TIP3   OH282159   0.942   3.990  14.741  0.0209  0.4145  0.5258
20223TIP3    H182160   0.988   4.021  14.819 -0.3715 -0.0985  0.9746
20223TIP3    H282161   0.949   3.895  14.745 -0.6937  0.3431  0.3763
20224TIP3   OH282162   4.296   2.620   5.440  0.9252  0.3617 -0.5001
20224TIP3    H182163   4.249   2.697   5.408  0.8976  0.6696  0.2612
20224TIP3    H282164   4.344   2.651   5.517 -0.6083 -0.7935  1.0058
20225TIP3   OH282165   2.692   3.393   6.395 -1.1532 -0.2403  0.0463
20225TIP3    H182166   2.634   3.334   6.444 -1.6977 -0.3953 -0.7691
20225TIP3    H282167   2.653   3.479   6.406 -0.7077 -0.1140  0.7142
20226TIP3   OH282168   0.164   5.412  15.866  0.1801  0.3799 -0.0919
20226TIP3    H182169   0.219   5.465  15.807  0.1186 -0.7562 -1.2111
20226TIP3    H282170   0.226   5.357  15.914  0.1143  0.0183 -0.4167
20227TIP3   OH282171   5.728   6.529  13.934  0.0790 -0.7255  0.2521
20227TIP3    H182172   5.673   6.535  14.012  0.3564 -1.0406  0.4762
20227TIP3    H282173   5.813   6.564  13.963 -0.0728  0.0094 -0.1626
20228TIP3   OH282174   4.950   3.236  12.877 -0.0459  0.4253 -0.7067
20228TIP3    H182175   5.013   3.221  12.807  0.3544  1.7013 -0.6480
20228TIP3    H282176   4.999   3.219  12.958 -1.1573 -3.5207 -0.6627
20229TIP3   OH282177   4.637   6.611   4.486  0.0665 -0.0131 -0.4851
20229TIP3    H182178   4.678   6.599   4.400  1.5636  0.7777  0.0715
20229TIP3    H282179   4.696   6.672   4.532  1.1056 -2.8255  2.2478
20230TIP3   OH282180   3.345   3.314   1.645  0.0702  0.3295  0.4475
20230TIP3    H182181   3.432   3.274   1.648  0.4497  1.1366  0.4161
20230TIP3    H282182   3.284   3.240   1.638  0.8349 -0.1899 -1.1061
20231TIP3   OH282183   5.378   0.588   2.957 -0.4901 -0.2565 -0.1523
20231TIP3    H182184   5.380   0.680   2.984 -0.3863 -0.5610  0.9491
20231TIP3    H282185   5.294   0.579   2.911 -1.8418 -0.2018  2.1201
20232TIP3   OH282186   2.532   4.332   5.864 -0.0255  0.2675  0.3916
20232TIP3    H182187   2.474   4.399   5.902  1.1883  2.1964 -0.9556
20232TIP3    H282188   2.611   4.380   5.840  1.2428 -1.8512  0.0802
20233TIP3   OH282189   4.633   2.593   3.509 -0.3365  0.6380  0.4962
20233TIP3    H182190   4.675   2.511   3.485 -0.0696  0.1389  2.4881
20233TIP3    H282191   4.546   2.588   3.469 -0.3478 -0.6479  0.6390
20234TIP3   OH282192   1.046   0.995  15.309 -0.0697 -0.5480  0.4465
20234TIP3    H182193   1.026   0.902  15.303 -0.8110 -0.3609 -0.0306
20234TIP3    H282194   1.142   0.999  15.308 -0.0386 -1.2701 -0.0122
20235TIP3   OH282195   1.226   2.352  11.365  0.7855 -0.3035  0.0263
20235TIP3    H182196   1.271   2.433  11.389  0.5429 -0.6379  1.7761
20235TIP3    H282197   1.167   2.334  11.439  0.0756 -1.5266 -0.7923
20236TIP3   OH282198   2.569   3.922  12.457  0.3901  0.2372  0.1910
20236TIP3    H182199   2.545   3.889  12.543 -0.2130 -4.8861 -1.6010
20236TIP3    H282200   2.486   3.941  12.414  0.5737  0.5730 -0.0228
20237TIP3   OH282201   2.644   5.553   5.030  0.2179 -0.5978  0.3126
20237TIP3    H182202   2.653   5.497   4.953  1.1187 -1.6708  1.1624
20237TIP3    H282203   2.710   5.621   5.018  0.8200 -1.1528  0.4564
20238TIP3   OH282204   3.698   3.192  16.507  0.2117 -0.0298 -0.1513
20238TIP3    H182205   3.710   3.184  16.412  0.1196 -0.0792 -0.1599
20238TIP3    H282206   3.603   3.191  16.519  0.2144  0.3058 -0.0882
20239TIP3   OH282207   3.176   0.072   1.031  0.4230 -0.0964 -0.0177
20239TIP3    H182208   3.237   0.001   1.009  0.7419  0.9724 -2.9443
20239TIP3    H282209   3.174   0.128   0.954 -2.5459  1.1917  0.8227
20240TIP3   OH282210   0.916   3.197   3.139 -0.5412  1.3955  0.5618
20240TIP3    H182211   0.858   3.261   3.097 -1.3681  0.5039  0.3102
20240TIP3    H282212   0.936   3.134   3.070  0.3859  1.4447  0.7683
20241TIP3   OH282213   6.049   5.552   0.489 -0.4954 -0.8049 -0.1095
20241TIP3    H182214   5.976   5.602   0.524 -0.4167 -0.6979 -0.0961
20241TIP3    H282215   6.062   5.585   0.400 -1.8082 -2.2699 -0.8949
20242LIG      S82216   2.775   3.628   3.986 -0.5796  0.0400 -0.4666
20242LIG     F182217   3.444   3.070   3.923 -0.1992  0.5865 -0.3787
20242LIG     F282218   3.581   3.242   4.098  0.8515 -0.1318  0.4305
20242LIG     N182219   2.938   3.718   3.725 -0.8927 -0.3423 -0.5664
20242LIG     N282220   3.617   3.397   3.479  0.4059  1.2202  0.8553
20242LIG     C182221   3.069   3.660   3.714 -0.5534 -0.2739 -0.0134
20242LIG     C282222   2.822   3.631   3.714 -0.1327  0.7025 -0.0011
20242LIG     C382223   2.928   3.806   3.846  0.7686 -0.5635  0.3937
20242LIG     C482224   3.092   3.615   3.570  0.9471  0.4380 -0.6952
20242LIG     C582225   2.805   3.537   3.831 -0.0215 -0.1549 -0.0744
20242LIG     C682226   2.923   3.716   3.967 -0.7109  0.0022  0.3094
20242LIG     C782227   3.231   3.561   3.550  0.6037  0.2632 -0.2001
20242LIG     C882228   3.655   3.268   3.538  0.6703  1.3168  0.5172
20242LIG     C982229   3.344   3.646   3.540  0.4473 -0.1777 -0.5419
20242LIG    C1082230   3.248   3.424   3.518 -0.0643  0.1159 -0.3599
20242LIG    C1182231   3.483   3.448   3.493 -0.1538 -0.0356 -0.1707
20242LIG    C1282232   3.472   3.587   3.518 -0.1218 -0.6530  0.9973
20242LIG    C1382233   3.369   3.366   3.496  0.3577  0.0063 -0.3188
20242LIG    C1482234   3.627   3.273   3.688  0.5773 -0.2884 -0.7295
20242LIG    C1582235   3.800   3.238   3.507 -0.4456 -0.4942  0.2163
20242LIG    C1682236   3.541   3.169   3.746  0.1360 -0.9483  0.1446
20242LIG    C1782237   3.691   3.361   3.773 -0.9178 -0.3241  0.0518
20242LIG    C1882238   3.526   3.169   3.881  0.3193  0.3131 -1.2574
20242LIG    C1982239   3.674   3.359   3.910  0.5419 -0.3249  0.0063
20242LIG    C2082240   3.593   3.252   3.967 -0.2641  0.3142  0.6852
20242LIG     H182241   3.074   3.574   3.785  0.7997  0.6814  1.1097
20242LIG     H282242   3.141   3.735   3.750 -1.3897  0.6920 -0.3151
20242LIG     H382243   2.828   3.578   3.617  0.6900 -0.1510  0.5040
20242LIG     H482244   2.729   3.689   3.692 -1.4977 -1.5673 -0.5163
20242LIG     H582245   2.827   3.850   3.836  0.5072 -1.2678 -0.2341
20242LIG     H682246   3.009   3.880   3.859 -0.5608  0.8216  1.0095
20242LIG     H782247   3.092   3.699   3.498  1.9556  2.9288  2.0468
20242LIG     H882248   3.013   3.544   3.536 -0.3844  2.0782 -1.1279
20242LIG     H982249   2.719   3.472   3.802  1.1495 -1.5338 -0.5555
20242LIG    H1082250   2.895   3.473   3.830  0.2127  0.1486 -1.8289
20242LIG    H1182251   3.004   3.640   3.965  0.0657  0.7779  1.1651
20242LIG    H1282252   2.942   3.779   4.056 -1.6470 -0.3709  0.7762
20242LIG    H1382253   3.592   3.193   3.486  2.3074  0.0105  0.3057
20242LIG    H1482254   3.340   3.754   3.541  2.0563 -0.0893  0.7635
20242LIG    H1582255   3.157   3.367   3.527 -0.3516  0.7142  0.6560
20242LIG    H1682256   3.694   3.462   3.467  1.7307 -0.2071  1.2033
20242LIG    H1782257   3.556   3.655   3.517 -0.3954 -0.3149  0.2153
20242LIG    H1882258   3.387   3.261   3.480 -0.0796 -0.2421  0.7523
20242LIG    H1982259   3.808   3.235   3.396 -1.0036  0.2246  0.1518
20242LIG    H2082260   3.825   3.134   3.539  1.2952  0.8621  3.7618
20242LIG    H2182261   3.875   3.316   3.530 -0.6788 -0.4578  0.8606
20242LIG    H2282262   3.475   3.101   3.695  0.2109 -1.0297  0.1553
20242LIG    H2382263   3.750   3.439   3.726 -2.2298  1.1772  0.8107
20242LIG    H2482264   3.724   3.437   3.966 -1.1129 -0.2339  1.4473
   6.79711   6.79711  17.41706
