Title
82264
    1SAPS     N    1   2.879   2.928  11.096
    1SAPS   HN1    2   2.806   2.992  11.057
    1SAPS   HN2    3   2.919   2.977  11.179
    1SAPS   HN3    4   2.947   2.901  11.022
    1SAPS   C12    5   2.817   2.807  11.143
    1SAPS  H12A    6   2.837   2.788  11.247
    1SAPS   C13    7   2.670   2.808  11.127
    1SAPS  O13A    8   2.618   2.923  11.099
    1SAPS  O13B    9   2.601   2.720  11.191
    1SAPS   C11   10   2.867   2.685  11.059
    1SAPS  H11A   11   2.836   2.702  10.954
    1SAPS  H11B   12   2.817   2.591  11.092
    1SAPS     P   13   3.072   2.525  11.060
    1SAPS   O13   14   3.217   2.544  11.032
    1SAPS   O14   15   3.026   2.455  11.185
    1SAPS   O12   16   3.007   2.667  11.059
    1SAPS   O11   17   3.009   2.447  10.941
    1SAPS    C1   18   3.064   2.467  10.806
    1SAPS    HA   19   3.118   2.563  10.796
    1SAPS    HB   20   3.131   2.384  10.775
    1SAPS    C2   21   2.947   2.485  10.705
    1SAPS    HS   22   2.891   2.581  10.715
    1SAPS   O21   23   2.859   2.372  10.702
    1SAPS   C21   24   2.752   2.388  10.774
    1SAPS   O22   25   2.731   2.480  10.854
    1SAPS   C22   26   2.653   2.285  10.721
    1SAPS   H2R   27   2.706   2.216  10.652
    1SAPS   H2S   28   2.631   2.231  10.816
    1SAPS    C3   29   3.019   2.499  10.564
    1SAPS    HX   30   3.109   2.434  10.560
    1SAPS    HY   31   3.056   2.603  10.547
    1SAPS   O31   32   2.930   2.462  10.454
    1SAPS   C31   33   2.992   2.456  10.332
    1SAPS   O32   34   3.109   2.487  10.311
    1SAPS   C32   35   2.890   2.419  10.226
    1SAPS   H2X   36   2.850   2.510  10.177
    1SAPS   H2Y   37   2.803   2.373  10.276
    1SAPS   C23   38   2.527   2.352  10.670
    1SAPS   H3R   39   2.472   2.411  10.746
    1SAPS   H3S   40   2.456   2.272  10.638
    1SAPS   C24   41   2.551   2.439  10.542
    1SAPS   H4R   42   2.610   2.379  10.470
    1SAPS   H4S   43   2.608   2.534  10.549
    1SAPS   C25   44   2.420   2.473  10.477
    1SAPS   H5R   45   2.356   2.523  10.550
    1SAPS   C26   46   2.381   2.446  10.354
    1SAPS   H6R   47   2.285   2.487  10.320
    1SAPS   C27   48   2.467   2.392  10.239
    1SAPS   H7R   49   2.572   2.428  10.241
    1SAPS   H7S   50   2.421   2.441  10.150
    1SAPS   C28   51   2.473   2.246  10.221
    1SAPS   H8R   52   2.473   2.196  10.319
    1SAPS   C29   53   2.464   2.173  10.108
    1SAPS   H9R   54   2.477   2.064  10.118
    1SAPS  C210   55   2.434   2.238   9.973
    1SAPS  H10R   56   2.526   2.290   9.939
    1SAPS  H10S   57   2.352   2.313   9.976
    1SAPS  C211   58   2.404   2.131   9.867
    1SAPS  H11R   59   2.346   2.045   9.905
    1SAPS  C212   60   2.439   2.139   9.735
    1SAPS  H12R   61   2.401   2.064   9.664
    1SAPS  C213   62   2.525   2.258   9.684
    1SAPS  H13R   63   2.506   2.349   9.745
    1SAPS  H13S   64   2.495   2.288   9.581
    1SAPS  C214   65   2.675   2.206   9.691
    1SAPS  H14R   66   2.687   2.140   9.778
    1SAPS  C215   67   2.764   2.214   9.592
    1SAPS  H15R   68   2.851   2.146   9.590
    1SAPS  C216   69   2.735   2.267   9.460
    1SAPS  H16R   70   2.832   2.282   9.408
    1SAPS  H16S   71   2.689   2.368   9.464
    1SAPS  C217   72   2.646   2.174   9.384
    1SAPS  H17R   73   2.553   2.140   9.434
    1SAPS  H17S   74   2.703   2.083   9.355
    1SAPS  C218   75   2.602   2.219   9.244
    1SAPS  H18R   76   2.682   2.242   9.171
    1SAPS  H18S   77   2.539   2.310   9.254
    1SAPS  C219   78   2.511   2.111   9.176
    1SAPS  H19R   79   2.431   2.088   9.250
    1SAPS  H19S   80   2.572   2.018   9.178
    1SAPS  C220   81   2.475   2.137   9.032
    1SAPS  H20R   82   2.402   2.219   9.013
    1SAPS  H20S   83   2.431   2.047   8.985
    1SAPS  H20T   84   2.565   2.170   8.975
    1SAPS   C33   85   2.944   2.324  10.110
    1SAPS   H3X   86   2.856   2.289  10.052
    1SAPS   H3Y   87   2.992   2.231  10.147
    1SAPS   C34   88   3.037   2.394  10.012
    1SAPS   H4X   89   3.136   2.385  10.063
    1SAPS   H4Y   90   3.011   2.501   9.996
    1SAPS   C35   91   3.052   2.316   9.880
    1SAPS   H5X   92   2.965   2.339   9.815
    1SAPS   H5Y   93   3.050   2.206   9.899
    1SAPS   C36   94   3.179   2.344   9.800
    1SAPS   H6X   95   3.202   2.260   9.731
    1SAPS   H6Y   96   3.263   2.350   9.873
    1SAPS   C37   97   3.176   2.468   9.713
    1SAPS   H7X   98   3.280   2.484   9.678
    1SAPS   H7Y   99   3.156   2.557   9.777
    1SAPS   C38  100   3.090   2.450   9.587
    1SAPS   H8X  101   2.981   2.434   9.602
    1SAPS   H8Y  102   3.129   2.360   9.534
    1SAPS   C39  103   3.097   2.569   9.490
    1SAPS   H9X  104   3.201   2.609   9.484
    1SAPS   H9Y  105   3.038   2.652   9.533
    1SAPS  C310  106   3.054   2.548   9.356
    1SAPS  H10X  107   2.946   2.521   9.351
    1SAPS  H10Y  108   3.113   2.465   9.313
    1SAPS  C311  109   3.059   2.679   9.281
    1SAPS  H11X  110   3.162   2.720   9.266
    1SAPS  H11Y  111   2.997   2.760   9.326
    1SAPS  C312  112   2.996   2.661   9.138
    1SAPS  H12X  113   2.896   2.619   9.160
    1SAPS  H12Y  114   3.057   2.587   9.081
    1SAPS  C313  115   2.976   2.791   9.050
    1SAPS  H13X  116   2.969   2.880   9.116
    1SAPS  H13Y  117   2.887   2.787   8.982
    1SAPS  C314  118   3.098   2.823   8.963
    1SAPS  H14X  119   3.079   2.762   8.873
    1SAPS  H14Y  120   3.190   2.781   9.009
    1SAPS  C315  121   3.116   2.973   8.926
    1SAPS  H15X  122   3.121   3.025   9.024
    1SAPS  H15Y  123   3.039   3.019   8.860
    1SAPS  C316  124   3.247   2.987   8.848
    1SAPS  H16X  125   3.317   2.912   8.891
    1SAPS  H16Y  126   3.298   3.086   8.850
    1SAPS  C317  127   3.241   2.947   8.697
    1SAPS  H17X  128   3.180   3.021   8.641
    1SAPS  H17Y  129   3.184   2.852   8.696
    1SAPS  C318  130   3.375   2.927   8.630
    1SAPS  H18X  131   3.442   3.015   8.632
    1SAPS  H18Y  132   3.373   2.883   8.527
    1SAPS  H18Z  133   3.431   2.856   8.695
    2SAPS     N  134   1.269   2.868  10.924
    2SAPS   HN1  135   1.261   2.972  10.928
    2SAPS   HN2  136   1.359   2.841  10.969
    2SAPS   HN3  137   1.259   2.836  10.826
    2SAPS   C12  138   1.151   2.794  10.994
    2SAPS  H12A  139   1.166   2.687  10.986
    2SAPS   C13  140   1.154   2.826  11.138
    2SAPS  O13A  141   1.238   2.909  11.188
    2SAPS  O13B  142   1.065   2.787  11.217
    2SAPS   C11  143   1.014   2.852  10.936
    2SAPS  H11A  144   1.007   2.962  10.953
    2SAPS  H11B  145   0.931   2.814  10.999
    2SAPS     P  146   0.858   2.859  10.731
    2SAPS   O13  147   0.754   2.833  10.831
    2SAPS   O14  148   0.867   3.001  10.690
    2SAPS   O12  149   1.001   2.826  10.796
    2SAPS   O11  150   0.855   2.767  10.608
    2SAPS    C1  151   0.981   2.730  10.546
    2SAPS    HA  152   1.033   2.821  10.511
    2SAPS    HB  153   1.038   2.665  10.617
    2SAPS    C2  154   0.973   2.627  10.427
    2SAPS    HS  155   1.071   2.584  10.400
    2SAPS   O21  156   0.913   2.683  10.311
    2SAPS   C21  157   1.008   2.744  10.233
    2SAPS   O22  158   1.125   2.752  10.256
    2SAPS   C22  159   0.962   2.758  10.097
    2SAPS   H2R  160   0.943   2.655  10.060
    2SAPS   H2S  161   0.858   2.797  10.098
    2SAPS    C3  162   0.885   2.507  10.472
    2SAPS    HX  163   0.785   2.554  10.479
    2SAPS    HY  164   0.911   2.471  10.574
    2SAPS   O31  165   0.894   2.397  10.375
    2SAPS   C31  166   0.996   2.315  10.390
    2SAPS   O32  167   1.090   2.334  10.467
    2SAPS   C32  168   0.993   2.198  10.299
    2SAPS   H2X  169   0.899   2.141  10.319
    2SAPS   H2Y  170   1.072   2.123  10.320
    2SAPS   C23  171   1.051   2.852  10.006
    2SAPS   H3R  172   1.155   2.812  10.011
    2SAPS   H3S  173   1.051   2.957  10.041
    2SAPS   C24  174   1.016   2.861   9.856
    2SAPS   H4R  175   1.094   2.929   9.816
    2SAPS   H4S  176   0.917   2.910   9.841
    2SAPS   C25  177   1.032   2.725   9.786
    2SAPS   H5R  178   1.022   2.636   9.850
    2SAPS   C26  179   1.079   2.710   9.660
    2SAPS   H6R  180   1.108   2.608   9.630
    2SAPS   C27  181   1.127   2.811   9.561
    2SAPS   H7R  182   1.217   2.775   9.506
    2SAPS   H7S  183   1.155   2.906   9.611
    2SAPS   C28  184   1.004   2.834   9.472
    2SAPS   H8R  185   0.921   2.881   9.527
    2SAPS   C29  186   0.999   2.802   9.340
    2SAPS   H9R  187   0.905   2.832   9.289
    2SAPS  C210  188   1.104   2.747   9.247
    2SAPS  H10R  189   1.058   2.708   9.154
    2SAPS  H10S  190   1.163   2.675   9.307
    2SAPS  C211  191   1.198   2.851   9.198
    2SAPS  H11R  192   1.204   2.943   9.258
    2SAPS  C212  193   1.268   2.848   9.082
    2SAPS  H12R  194   1.336   2.929   9.050
    2SAPS  C213  195   1.256   2.734   8.980
    2SAPS  H13R  196   1.240   2.647   9.048
    2SAPS  H13S  197   1.354   2.726   8.928
    2SAPS  C214  198   1.146   2.748   8.880
    2SAPS  H14R  199   1.048   2.763   8.926
    2SAPS  C215  200   1.146   2.731   8.748
    2SAPS  H15R  201   1.051   2.752   8.696
    2SAPS  C216  202   1.271   2.694   8.669
    2SAPS  H16R  203   1.302   2.592   8.700
    2SAPS  H16S  204   1.359   2.756   8.698
    2SAPS  C217  205   1.243   2.714   8.518
    2SAPS  H17R  206   1.339   2.713   8.463
    2SAPS  H17S  207   1.202   2.815   8.499
    2SAPS  C218  208   1.148   2.611   8.458
    2SAPS  H18R  209   1.157   2.618   8.348
    2SAPS  H18S  210   1.046   2.628   8.500
    2SAPS  C219  211   1.198   2.468   8.478
    2SAPS  H19R  212   1.171   2.435   8.580
    2SAPS  H19S  213   1.309   2.464   8.482
    2SAPS  C220  214   1.152   2.368   8.375
    2SAPS  H20R  215   1.194   2.266   8.388
    2SAPS  H20S  216   1.189   2.405   8.277
    2SAPS  H20T  217   1.042   2.370   8.362
    2SAPS   C33  218   1.003   2.244  10.155
    2SAPS   H3X  219   0.911   2.299  10.126
    2SAPS   H3Y  220   0.998   2.153  10.090
    2SAPS   C34  221   1.128   2.319  10.100
    2SAPS   H4X  222   1.219   2.257  10.082
    2SAPS   H4Y  223   1.153   2.396  10.175
    2SAPS   C35  224   1.110   2.372   9.957
    2SAPS   H5X  225   1.204   2.413   9.916
    2SAPS   H5Y  226   1.028   2.446   9.970
    2SAPS   C36  227   1.072   2.265   9.852
    2SAPS   H6X  228   0.970   2.228   9.875
    2SAPS   H6Y  229   1.144   2.181   9.864
    2SAPS   C37  230   1.077   2.305   9.706
    2SAPS   H7X  231   1.173   2.273   9.660
    2SAPS   H7Y  232   1.065   2.413   9.682
    2SAPS   C38  233   0.968   2.239   9.630
    2SAPS   H8X  234   0.869   2.285   9.652
    2SAPS   H8Y  235   0.954   2.134   9.662
    2SAPS   C39  236   0.997   2.250   9.484
    2SAPS   H9X  237   1.095   2.208   9.455
    2SAPS   H9Y  238   1.016   2.358   9.462
    2SAPS  C310  239   0.893   2.193   9.386
    2SAPS  H10X  240   0.800   2.250   9.410
    2SAPS  H10Y  241   0.878   2.085   9.405
    2SAPS  C311  242   0.923   2.209   9.235
    2SAPS  H11X  243   0.946   2.318   9.231
    2SAPS  H11Y  244   0.828   2.194   9.180
    2SAPS  C312  245   1.040   2.129   9.196
    2SAPS  H12X  246   1.007   2.024   9.184
    2SAPS  H12Y  247   1.131   2.125   9.260
    2SAPS  C313  248   1.096   2.185   9.060
    2SAPS  H13X  249   1.133   2.283   9.095
    2SAPS  H13Y  250   1.014   2.197   8.987
    2SAPS  C314  251   1.210   2.102   9.007
    2SAPS  H14X  252   1.162   2.003   8.990
    2SAPS  H14Y  253   1.288   2.083   9.084
    2SAPS  C315  254   1.261   2.160   8.872
    2SAPS  H15X  255   1.312   2.258   8.875
    2SAPS  H15Y  256   1.169   2.178   8.811
    2SAPS  C316  257   1.352   2.067   8.790
    2SAPS  H16X  258   1.303   1.967   8.785
    2SAPS  H16Y  259   1.448   2.063   8.845
    2SAPS  C317  260   1.377   2.106   8.649
    2SAPS  H17X  261   1.280   2.096   8.598
    2SAPS  H17Y  262   1.442   2.032   8.598
    2SAPS  C318  263   1.440   2.248   8.625
    2SAPS  H18X  264   1.542   2.233   8.667
    2SAPS  H18Y  265   1.381   2.333   8.665
    2SAPS  H18Z  266   1.451   2.275   8.518
    3SAPS     N  267   0.817   3.653  10.940
    3SAPS   HN1  268   0.749   3.609  10.874
    3SAPS   HN2  269   0.901   3.678  10.884
    3SAPS   HN3  270   0.837   3.583  11.014
    3SAPS   C12  271   0.754   3.776  11.003
    3SAPS  H12A  272   0.718   3.842  10.925
    3SAPS   C13  273   0.632   3.740  11.085
    3SAPS  O13A  274   0.594   3.623  11.103
    3SAPS  O13B  275   0.572   3.839  11.132
    3SAPS   C11  276   0.862   3.859  11.078
    3SAPS  H11A  277   0.873   3.806  11.176
    3SAPS  H11B  278   0.818   3.958  11.101
    3SAPS     P  279   1.023   3.978  10.917
    3SAPS   O13  280   1.081   4.078  11.008
    3SAPS   O14  281   1.110   3.931  10.803
    3SAPS   O12  282   0.982   3.857  11.006
    3SAPS   O11  283   0.889   4.033  10.870
    3SAPS    C1  284   0.815   4.009  10.742
    3SAPS    HA  285   0.811   3.902  10.714
    3SAPS    HB  286   0.712   4.045  10.762
    3SAPS    C2  287   0.885   4.088  10.629
    3SAPS    HS  288   0.989   4.047  10.622
    3SAPS   O21  289   0.875   4.232  10.674
    3SAPS   C21  290   0.984   4.301  10.652
    3SAPS   O22  291   1.090   4.263  10.605
    3SAPS   C22  292   0.954   4.440  10.707
    3SAPS   H2R  293   0.852   4.479  10.690
    3SAPS   H2S  294   0.968   4.441  10.818
    3SAPS    C3  295   0.816   4.069  10.490
    3SAPS    HX  296   0.708   4.070  10.517
    3SAPS    HY  297   0.825   3.966  10.450
    3SAPS   O31  298   0.849   4.174  10.391
    3SAPS   C31  299   0.961   4.145  10.331
    3SAPS   O32  300   1.019   4.041  10.338
    3SAPS   C32  301   1.017   4.267  10.260
    3SAPS   H2X  302   1.127   4.263  10.242
    3SAPS   H2Y  303   1.001   4.356  10.324
    3SAPS   C23  304   1.040   4.558  10.650
    3SAPS   H3R  305   1.136   4.513  10.618
    3SAPS   H3S  306   1.073   4.633  10.725
    3SAPS   C24  307   0.971   4.631  10.529
    3SAPS   H4R  308   0.868   4.655  10.562
    3SAPS   H4S  309   0.960   4.558  10.446
    3SAPS   C25  310   1.050   4.752  10.488
    3SAPS   H5R  311   1.038   4.830  10.565
    3SAPS   C26  312   1.143   4.762  10.394
    3SAPS   H6R  313   1.194   4.859  10.387
    3SAPS   C27  314   1.167   4.665  10.273
    3SAPS   H7R  315   1.098   4.579  10.288
    3SAPS   H7S  316   1.271   4.628  10.275
    3SAPS   C28  317   1.133   4.734  10.146
    3SAPS   H8R  318   1.031   4.736  10.106
    3SAPS   C29  319   1.215   4.820  10.084
    3SAPS   H9R  320   1.189   4.846   9.980
    3SAPS  C210  321   1.350   4.861  10.124
    3SAPS  H10R  322   1.426   4.808  10.063
    3SAPS  H10S  323   1.361   4.836  10.232
    3SAPS  C211  324   1.362   5.003  10.097
    3SAPS  H11R  325   1.344   5.073  10.180
    3SAPS  C212  326   1.400   5.054   9.973
    3SAPS  H12R  327   1.414   5.162   9.959
    3SAPS  C213  328   1.436   4.984   9.845
    3SAPS  H13R  329   1.355   4.986   9.769
    3SAPS  H13S  330   1.451   4.876   9.866
    3SAPS  C214  331   1.568   5.036   9.793
    3SAPS  H14R  332   1.649   5.016   9.864
    3SAPS  C215  333   1.580   5.081   9.672
    3SAPS  H15R  334   1.675   5.133   9.654
    3SAPS  C216  335   1.474   5.122   9.576
    3SAPS  H16R  336   1.377   5.148   9.624
    3SAPS  H16S  337   1.467   5.043   9.498
    3SAPS  C217  338   1.508   5.260   9.518
    3SAPS  H17R  339   1.540   5.337   9.592
    3SAPS  H17S  340   1.415   5.296   9.470
    3SAPS  C218  341   1.621   5.259   9.402
    3SAPS  H18R  342   1.606   5.175   9.330
    3SAPS  H18S  343   1.718   5.242   9.454
    3SAPS  C219  344   1.619   5.399   9.329
    3SAPS  H19R  345   1.516   5.413   9.289
    3SAPS  H19S  346   1.688   5.388   9.243
    3SAPS  C220  347   1.656   5.508   9.421
    3SAPS  H20R  348   1.722   5.474   9.503
    3SAPS  H20S  349   1.561   5.538   9.471
    3SAPS  H20T  350   1.702   5.599   9.378
    3SAPS   C33  351   0.949   4.304  10.126
    3SAPS   H3X  352   0.972   4.407  10.092
    3SAPS   H3Y  353   0.840   4.305  10.145
    3SAPS   C34  354   0.983   4.211  10.007
    3SAPS   H4X  355   0.894   4.144  10.003
    3SAPS   H4Y  356   1.073   4.148  10.025
    3SAPS   C35  357   0.999   4.289   9.873
    3SAPS   H5X  358   1.079   4.365   9.886
    3SAPS   H5Y  359   0.905   4.348   9.862
    3SAPS   C36  360   1.052   4.208   9.754
    3SAPS   H6X  361   1.029   4.099   9.760
    3SAPS   H6Y  362   1.161   4.225   9.767
    3SAPS   C37  363   1.001   4.268   9.624
    3SAPS   H7X  364   1.020   4.377   9.629
    3SAPS   H7Y  365   0.895   4.246   9.602
    3SAPS   C38  366   1.077   4.219   9.499
    3SAPS   H8X  367   1.066   4.111   9.477
    3SAPS   H8Y  368   1.185   4.219   9.525
    3SAPS   C39  369   1.049   4.299   9.372
    3SAPS   H9X  370   1.095   4.400   9.385
    3SAPS   H9Y  371   0.941   4.324   9.363
    3SAPS  C310  372   1.110   4.220   9.258
    3SAPS  H10X  373   1.041   4.134   9.246
    3SAPS  H10Y  374   1.206   4.173   9.289
    3SAPS  C311  375   1.133   4.295   9.123
    3SAPS  H11X  376   1.206   4.377   9.138
    3SAPS  H11Y  377   1.038   4.333   9.078
    3SAPS  C312  378   1.186   4.196   9.026
    3SAPS  H12X  379   1.122   4.105   9.025
    3SAPS  H12Y  380   1.289   4.162   9.049
    3SAPS  C313  381   1.212   4.251   8.888
    3SAPS  H13X  382   1.270   4.345   8.900
    3SAPS  H13Y  383   1.113   4.259   8.837
    3SAPS  C314  384   1.289   4.142   8.813
    3SAPS  H14X  385   1.251   4.039   8.832
    3SAPS  H14Y  386   1.391   4.147   8.858
    3SAPS  C315  387   1.288   4.183   8.665
    3SAPS  H15X  388   1.343   4.279   8.666
    3SAPS  H15Y  389   1.183   4.192   8.629
    3SAPS  C316  390   1.366   4.091   8.564
    3SAPS  H16X  391   1.329   3.990   8.593
    3SAPS  H16Y  392   1.473   4.086   8.593
    3SAPS  C317  393   1.348   4.109   8.415
    3SAPS  H17X  394   1.437   4.078   8.356
    3SAPS  H17Y  395   1.349   4.220   8.406
    3SAPS  C318  396   1.219   4.058   8.351
    3SAPS  H18X  397   1.131   4.074   8.417
    3SAPS  H18Y  398   1.216   3.950   8.326
    3SAPS  H18Z  399   1.199   4.119   8.260
    4SAPS     N  400   3.166   5.370  10.642
    4SAPS   HN1  401   3.071   5.401  10.670
    4SAPS   HN2  402   3.187   5.370  10.540
    4SAPS   HN3  403   3.164   5.272  10.675
    4SAPS   C12  404   3.263   5.451  10.728
    4SAPS  H12A  405   3.295   5.533  10.666
    4SAPS   C13  406   3.190   5.511  10.858
    4SAPS  O13A  407   3.081   5.457  10.900
    4SAPS  O13B  408   3.247   5.607  10.924
    4SAPS   C11  409   3.376   5.357  10.777
    4SAPS  H11A  410   3.336   5.282  10.849
    4SAPS  H11B  411   3.457   5.412  10.830
    4SAPS     P  412   3.548   5.177  10.696
    4SAPS   O13  413   3.566   5.168  10.845
    4SAPS   O14  414   3.507   5.054  10.621
    4SAPS   O12  415   3.441   5.290  10.666
    4SAPS   O11  416   3.679   5.232  10.636
    4SAPS    C1  417   3.721   5.365  10.638
    4SAPS    HA  418   3.676   5.415  10.727
    4SAPS    HB  419   3.831   5.374  10.643
    4SAPS    C2  420   3.668   5.430  10.508
    4SAPS    HS  421   3.559   5.419  10.524
    4SAPS   O21  422   3.724   5.364  10.385
    4SAPS   C21  423   3.624   5.331  10.308
    4SAPS   O22  424   3.506   5.370  10.325
    4SAPS   C22  425   3.654   5.211  10.220
    4SAPS   H2R  426   3.758   5.223  10.185
    4SAPS   H2S  427   3.651   5.117  10.279
    4SAPS    C3  428   3.683   5.581  10.504
    4SAPS    HX  429   3.793   5.593  10.513
    4SAPS    HY  430   3.633   5.619  10.595
    4SAPS   O31  431   3.623   5.638  10.380
    4SAPS   C31  432   3.499   5.687  10.379
    4SAPS   O32  433   3.421   5.679  10.475
    4SAPS   C32  434   3.464   5.759  10.244
    4SAPS   H2X  435   3.530   5.848  10.236
    4SAPS   H2Y  436   3.359   5.795  10.243
    4SAPS   C23  437   3.565   5.189  10.103
    4SAPS   H3R  438   3.525   5.277  10.048
    4SAPS   H3S  439   3.475   5.145  10.152
    4SAPS   C24  440   3.625   5.084  10.008
    4SAPS   H4R  441   3.645   4.994  10.070
    4SAPS   H4S  442   3.728   5.104   9.972
    4SAPS   C25  443   3.531   5.047   9.897
    4SAPS   H5R  444   3.429   5.038   9.938
    4SAPS   C26  445   3.559   5.055   9.764
    4SAPS   H6R  446   3.475   5.047   9.693
    4SAPS   C27  447   3.693   5.084   9.704
    4SAPS   H7R  448   3.695   5.013   9.619
    4SAPS   H7S  449   3.776   5.054   9.770
    4SAPS   C28  450   3.731   5.224   9.667
    4SAPS   H8R  451   3.744   5.292   9.753
    4SAPS   C29  452   3.745   5.271   9.539
    4SAPS   H9R  453   3.775   5.376   9.522
    4SAPS  C210  454   3.713   5.196   9.414
    4SAPS  H10R  455   3.661   5.262   9.341
    4SAPS  H10S  456   3.644   5.112   9.434
    4SAPS  C211  457   3.839   5.141   9.350
    4SAPS  H11R  458   3.928   5.135   9.415
    4SAPS  C212  459   3.852   5.089   9.227
    4SAPS  H12R  460   3.957   5.073   9.197
    4SAPS  C213  461   3.748   5.062   9.122
    4SAPS  H13R  462   3.735   5.153   9.060
    4SAPS  H13S  463   3.651   5.060   9.178
    4SAPS  C214  464   3.755   4.940   9.038
    4SAPS  H14R  465   3.847   4.931   8.978
    4SAPS  C215  466   3.679   4.829   9.051
    4SAPS  H15R  467   3.703   4.738   8.994
    4SAPS  C216  468   3.541   4.818   9.113
    4SAPS  H16R  469   3.467   4.778   9.040
    4SAPS  H16S  470   3.495   4.918   9.133
    4SAPS  C217  471   3.538   4.744   9.244
    4SAPS  H17R  472   3.588   4.645   9.244
    4SAPS  H17S  473   3.431   4.734   9.274
    4SAPS  C218  474   3.621   4.819   9.351
    4SAPS  H18R  475   3.573   4.919   9.359
    4SAPS  H18S  476   3.730   4.826   9.327
    4SAPS  C219  477   3.627   4.755   9.492
    4SAPS  H19R  478   3.539   4.792   9.548
    4SAPS  H19S  479   3.714   4.804   9.540
    4SAPS  C220  480   3.661   4.601   9.489
    4SAPS  H20R  481   3.674   4.562   9.592
    4SAPS  H20S  482   3.753   4.590   9.427
    4SAPS  H20T  483   3.573   4.545   9.450
    4SAPS   C33  484   3.484   5.676  10.119
    4SAPS   H3X  485   3.424   5.584  10.132
    4SAPS   H3Y  486   3.584   5.629  10.107
    4SAPS   C34  487   3.434   5.752   9.990
    4SAPS   H4X  488   3.491   5.848   9.994
    4SAPS   H4Y  489   3.324   5.768   9.999
    4SAPS   C35  490   3.468   5.676   9.862
    4SAPS   H5X  491   3.578   5.658   9.859
    4SAPS   H5Y  492   3.466   5.746   9.775
    4SAPS   C36  493   3.388   5.551   9.845
    4SAPS   H6X  494   3.283   5.586   9.837
    4SAPS   H6Y  495   3.390   5.472   9.923
    4SAPS   C37  496   3.423   5.485   9.711
    4SAPS   H7X  497   3.366   5.390   9.714
    4SAPS   H7Y  498   3.530   5.459   9.702
    4SAPS   C38  499   3.369   5.564   9.589
    4SAPS   H8X  500   3.421   5.662   9.584
    4SAPS   H8Y  501   3.263   5.587   9.610
    4SAPS   C39  502   3.372   5.491   9.452
    4SAPS   H9X  503   3.303   5.404   9.456
    4SAPS   H9Y  504   3.473   5.445   9.441
    4SAPS  C310  505   3.340   5.588   9.336
    4SAPS  H10X  506   3.422   5.662   9.349
    4SAPS  H10Y  507   3.243   5.641   9.351
    4SAPS  C311  508   3.331   5.511   9.205
    4SAPS  H11X  509   3.239   5.453   9.225
    4SAPS  H11Y  510   3.419   5.447   9.179
    4SAPS  C312  511   3.302   5.591   9.080
    4SAPS  H12X  512   3.277   5.515   9.003
    4SAPS  H12Y  513   3.391   5.634   9.030
    4SAPS  C313  514   3.178   5.677   9.082
    4SAPS  H13X  515   3.197   5.778   9.125
    4SAPS  H13Y  516   3.102   5.619   9.139
    4SAPS  C314  517   3.099   5.695   8.948
    4SAPS  H14X  518   3.083   5.593   8.908
    4SAPS  H14Y  519   3.159   5.759   8.879
    4SAPS  C315  520   2.960   5.752   8.966
    4SAPS  H15X  521   2.950   5.840   9.034
    4SAPS  H15Y  522   2.911   5.669   9.021
    4SAPS  C316  523   2.902   5.774   8.830
    4SAPS  H16X  524   2.873   5.672   8.797
    4SAPS  H16Y  525   2.966   5.825   8.755
    4SAPS  C317  526   2.780   5.861   8.830
    4SAPS  H17X  527   2.808   5.968   8.842
    4SAPS  H17Y  528   2.710   5.832   8.911
    4SAPS  C318  529   2.698   5.848   8.696
    4SAPS  H18X  530   2.594   5.887   8.710
    4SAPS  H18Y  531   2.682   5.741   8.673
    4SAPS  H18Z  532   2.747   5.902   8.612
    5SAPS     N  533   6.753   4.049  11.092
    5SAPS   HN1  534   6.843   4.030  11.141
    5SAPS   HN2  535   6.682   3.982  11.127
    5SAPS   HN3  536   6.772   4.035  10.991
    5SAPS   C12  537   6.725   4.189  11.125
    5SAPS  H12A  538   6.634   4.214  11.071
    5SAPS   C13  539   6.702   4.221  11.277
    5SAPS  O13A  540   6.689   4.126  11.359
    5SAPS  O13B  541   6.676   4.345  11.299
    5SAPS   C11  542   6.841   4.275  11.066
    5SAPS  H11A  543   6.925   4.276  11.138
    5SAPS  H11B  544   6.810   4.382  11.062
    5SAPS     P  545   7.023   4.244  10.886
    5SAPS   O13  546   7.113   4.136  10.938
    5SAPS   O14  547   7.019   4.261  10.740
    5SAPS   O12  548   6.874   4.227  10.943
    5SAPS   O11  549   7.069   4.376  10.948
    5SAPS    C1  550   7.208   4.411  10.966
    5SAPS    HA  551   7.216   4.504  11.026
    5SAPS    HB  552   7.271   4.335  11.016
    5SAPS    C2  553   7.289   4.444  10.836
    5SAPS    HS  554   7.382   4.493  10.871
    5SAPS   O21  555   7.215   4.540  10.749
    5SAPS   C21  556   7.204   4.665  10.786
    5SAPS   O22  557   7.235   4.717  10.893
    5SAPS   C22  558   7.130   4.742  10.669
    5SAPS   H2R  559   7.020   4.725  10.675
    5SAPS   H2S  560   7.131   4.851  10.687
    5SAPS    C3  561   7.348   4.321  10.749
    5SAPS    HX  562   7.268   4.251  10.718
    5SAPS    HY  563   7.407   4.266  10.825
    5SAPS   O31  564   7.439   4.368  10.644
    5SAPS   C31  565   7.383   4.394  10.526
    5SAPS   O32  566   7.276   4.349  10.490
    5SAPS   C32  567   7.473   4.482  10.449
    5SAPS   H2X  568   7.571   4.435  10.429
    5SAPS   H2Y  569   7.494   4.572  10.511
    5SAPS   C23  570   7.202   4.718  10.528
    5SAPS   H3R  571   7.128   4.733  10.446
    5SAPS   H3S  572   7.232   4.612  10.517
    5SAPS   C24  573   7.316   4.817  10.507
    5SAPS   H4R  574   7.388   4.770  10.436
    5SAPS   H4S  575   7.372   4.827  10.602
    5SAPS   C25  576   7.279   4.962  10.458
    5SAPS   H5R  577   7.252   5.035  10.536
    5SAPS   C26  578   7.277   5.007  10.328
    5SAPS   H6R  579   7.270   5.116  10.312
    5SAPS   C27  580   7.291   4.923  10.205
    5SAPS   H7R  581   7.353   4.832  10.222
    5SAPS   H7S  582   7.342   4.971  10.118
    5SAPS   C28  583   7.153   4.876  10.165
    5SAPS   H8R  584   7.112   4.798  10.232
    5SAPS   C29  585   7.084   4.910  10.053
    5SAPS   H9R  586   6.986   4.860  10.039
    5SAPS  C210  587   7.139   4.986   9.934
    5SAPS  H10R  588   7.222   5.052   9.967
    5SAPS  H10S  589   7.061   5.049   9.886
    5SAPS  C211  590   7.210   4.906   9.828
    5SAPS  H11R  591   7.238   4.805   9.861
    5SAPS  C212  592   7.223   4.933   9.693
    5SAPS  H12R  593   7.279   4.862   9.631
    5SAPS  C213  594   7.166   5.044   9.613
    5SAPS  H13R  595   7.092   5.109   9.664
    5SAPS  H13S  596   7.097   4.998   9.539
    5SAPS  C214  597   7.268   5.117   9.534
    5SAPS  H14R  598   7.370   5.092   9.566
    5SAPS  C215  599   7.250   5.217   9.446
    5SAPS  H15R  600   7.334   5.259   9.388
    5SAPS  C216  601   7.118   5.260   9.385
    5SAPS  H16R  602   7.090   5.346   9.450
    5SAPS  H16S  603   7.042   5.181   9.403
    5SAPS  C217  604   7.118   5.290   9.233
    5SAPS  H17R  605   7.175   5.383   9.215
    5SAPS  H17S  606   7.011   5.311   9.207
    5SAPS  C218  607   7.168   5.175   9.148
    5SAPS  H18R  608   7.275   5.159   9.172
    5SAPS  H18S  609   7.113   5.079   9.167
    5SAPS  C219  610   7.170   5.186   8.995
    5SAPS  H19R  611   7.063   5.209   8.975
    5SAPS  H19S  612   7.195   5.086   8.953
    5SAPS  C220  613   7.266   5.291   8.942
    5SAPS  H20R  614   7.269   5.377   9.012
    5SAPS  H20S  615   7.239   5.317   8.837
    5SAPS  H20T  616   7.368   5.246   8.943
    5SAPS   C33  617   7.425   4.519  10.299
    5SAPS   H3X  618   7.333   4.581  10.300
    5SAPS   H3Y  619   7.389   4.424  10.253
    5SAPS   C34  620   7.531   4.582  10.215
    5SAPS   H4X  621   7.629   4.534  10.237
    5SAPS   H4Y  622   7.551   4.688  10.245
    5SAPS   C35  623   7.503   4.569  10.060
    5SAPS   H5X  624   7.400   4.608  10.046
    5SAPS   H5Y  625   7.511   4.459  10.044
    5SAPS   C36  626   7.603   4.628   9.957
    5SAPS   H6X  627   7.701   4.575   9.958
    5SAPS   H6Y  628   7.630   4.730   9.992
    5SAPS   C37  629   7.549   4.637   9.812
    5SAPS   H7X  630   7.471   4.716   9.810
    5SAPS   H7Y  631   7.481   4.551   9.794
    5SAPS   C38  632   7.654   4.644   9.700
    5SAPS   H8X  633   7.735   4.569   9.699
    5SAPS   H8Y  634   7.704   4.741   9.719
    5SAPS   C39  635   7.585   4.637   9.561
    5SAPS   H9X  636   7.503   4.711   9.547
    5SAPS   H9Y  637   7.551   4.531   9.564
    5SAPS  C310  638   7.674   4.642   9.440
    5SAPS  H10X  639   7.735   4.550   9.436
    5SAPS  H10Y  640   7.746   4.727   9.446
    5SAPS  C311  641   7.597   4.651   9.307
    5SAPS  H11X  642   7.573   4.755   9.277
    5SAPS  H11Y  643   7.493   4.618   9.326
    5SAPS  C312  644   7.663   4.573   9.194
    5SAPS  H12X  645   7.666   4.463   9.209
    5SAPS  H12Y  646   7.763   4.619   9.182
    5SAPS  C313  647   7.582   4.591   9.062
    5SAPS  H13X  648   7.582   4.702   9.050
    5SAPS  H13Y  649   7.478   4.560   9.086
    5SAPS  C314  650   7.628   4.532   8.927
    5SAPS  H14X  651   7.546   4.555   8.856
    5SAPS  H14Y  652   7.635   4.421   8.930
    5SAPS  C315  653   7.760   4.583   8.874
    5SAPS  H15X  654   7.847   4.515   8.889
    5SAPS  H15Y  655   7.784   4.674   8.932
    5SAPS  C316  656   7.753   4.613   8.725
    5SAPS  H16X  657   7.677   4.693   8.708
    5SAPS  H16Y  658   7.741   4.529   8.654
    5SAPS  C317  659   7.872   4.699   8.678
    5SAPS  H17X  660   7.884   4.778   8.755
    5SAPS  H17Y  661   7.847   4.755   8.585
    5SAPS  C318  662   8.003   4.611   8.662
    5SAPS  H18X  663   7.969   4.524   8.602
    5SAPS  H18Y  664   8.032   4.582   8.765
    5SAPS  H18Z  665   8.080   4.666   8.604
    6SAPS     N  666   0.355   3.873  10.955
    6SAPS   HN1  667   0.412   3.868  11.041
    6SAPS   HN2  668   0.414   3.856  10.871
    6SAPS   HN3  669   0.314   3.969  10.955
    6SAPS   C12  670   0.250   3.782  10.966
    6SAPS  H12A  671   0.290   3.694  11.015
    6SAPS   C13  672   0.151   3.833  11.072
    6SAPS  O13A  673   0.179   3.935  11.148
    6SAPS  O13B  674   0.062   3.749  11.107
    6SAPS   C11  675   0.174   3.755  10.836
    6SAPS  H11A  676   0.077   3.708  10.863
    6SAPS  H11B  677   0.227   3.691  10.762
    6SAPS     P  678   0.017   3.920  10.697
    6SAPS   O13  679  -0.067   3.951  10.821
    6SAPS   O14  680   0.031   4.033  10.607
    6SAPS   O12  681   0.156   3.877  10.765
    6SAPS   O11  682  -0.039   3.791  10.620
    6SAPS    C1  683   0.033   3.711  10.526
    6SAPS    HA  684   0.131   3.754  10.498
    6SAPS    HB  685   0.057   3.615  10.577
    6SAPS    C2  686  -0.050   3.669  10.400
    6SAPS    HS  687  -0.000   3.590  10.339
    6SAPS   O21  688  -0.084   3.783  10.316
    6SAPS   C21  689   0.019   3.804  10.233
    6SAPS   O22  690   0.129   3.754  10.247
    6SAPS   C22  691  -0.032   3.883  10.116
    6SAPS   H2R  692  -0.109   3.820  10.065
    6SAPS   H2S  693  -0.092   3.970  10.148
    6SAPS    C3  694  -0.177   3.594  10.446
    6SAPS    HX  695  -0.237   3.664  10.507
    6SAPS    HY  696  -0.159   3.504  10.509
    6SAPS   O31  697  -0.248   3.553  10.327
    6SAPS   C31  698  -0.344   3.467  10.352
    6SAPS   O32  699  -0.380   3.431  10.465
    6SAPS   C32  700  -0.411   3.430  10.217
    6SAPS   H2X  701  -0.351   3.453  10.127
    6SAPS   H2Y  702  -0.501   3.496  10.220
    6SAPS   C23  703   0.083   3.926  10.022
    6SAPS   H3R  704   0.130   3.835   9.977
    6SAPS   H3S  705   0.171   3.970  10.075
    6SAPS   C24  706   0.033   4.018   9.905
    6SAPS   H4R  707  -0.018   4.105   9.951
    6SAPS   H4S  708  -0.051   3.959   9.861
    6SAPS   C25  709   0.146   4.071   9.812
    6SAPS   H5R  710   0.219   4.128   9.870
    6SAPS   C26  711   0.146   4.078   9.682
    6SAPS   H6R  712   0.235   4.114   9.628
    6SAPS   C27  713   0.038   4.020   9.597
    6SAPS   H7R  714  -0.044   4.094   9.581
    6SAPS   H7S  715  -0.004   3.927   9.642
    6SAPS   C28  716   0.083   3.969   9.463
    6SAPS   H8R  717   0.093   3.861   9.446
    6SAPS   C29  718   0.133   4.040   9.360
    6SAPS   H9R  719   0.153   3.987   9.265
    6SAPS  C210  720   0.142   4.189   9.346
    6SAPS  H10R  721   0.230   4.224   9.288
    6SAPS  H10S  722   0.161   4.238   9.444
    6SAPS  C211  723   0.021   4.267   9.293
    6SAPS  H11R  724  -0.074   4.251   9.346
    6SAPS  C212  725   0.012   4.330   9.175
    6SAPS  H12R  726  -0.083   4.376   9.144
    6SAPS  C213  727   0.114   4.355   9.070
    6SAPS  H13R  728   0.209   4.389   9.116
    6SAPS  H13S  729   0.088   4.440   9.004
    6SAPS  C214  730   0.132   4.233   8.980
    6SAPS  H14R  731   0.228   4.180   8.991
    6SAPS  C215  732   0.055   4.198   8.873
    6SAPS  H15R  733   0.081   4.107   8.818
    6SAPS  C216  734  -0.064   4.273   8.826
    6SAPS  H16R  735  -0.097   4.342   8.907
    6SAPS  H16S  736  -0.151   4.205   8.816
    6SAPS  C217  737  -0.029   4.359   8.711
    6SAPS  H17R  738  -0.006   4.292   8.626
    6SAPS  H17S  739   0.061   4.418   8.737
    6SAPS  C218  740  -0.128   4.471   8.667
    6SAPS  H18R  741  -0.149   4.536   8.754
    6SAPS  H18S  742  -0.226   4.427   8.638
    6SAPS  C219  743  -0.098   4.565   8.550
    6SAPS  H19R  744  -0.189   4.626   8.532
    6SAPS  H19S  745  -0.075   4.502   8.461
    6SAPS  C220  746   0.027   4.654   8.563
    6SAPS  H20R  747   0.117   4.599   8.528
    6SAPS  H20S  748   0.057   4.687   8.665
    6SAPS  H20T  749   0.016   4.743   8.496
    6SAPS   C33  750  -0.445   3.278  10.204
    6SAPS   H3X  751  -0.520   3.270  10.122
    6SAPS   H3Y  752  -0.497   3.242  10.295
    6SAPS   C34  753  -0.316   3.197  10.170
    6SAPS   H4X  754  -0.237   3.229  10.241
    6SAPS   H4Y  755  -0.287   3.231  10.068
    6SAPS   C35  756  -0.327   3.050  10.170
    6SAPS   H5X  757  -0.391   3.016  10.254
    6SAPS   H5Y  758  -0.228   3.002  10.175
    6SAPS   C36  759  -0.411   2.994  10.049
    6SAPS   H6X  760  -0.499   3.061  10.036
    6SAPS   H6Y  761  -0.437   2.889  10.075
    6SAPS   C37  762  -0.344   2.992   9.919
    6SAPS   H7X  763  -0.276   2.904   9.913
    6SAPS   H7Y  764  -0.275   3.079   9.914
    6SAPS   C38  765  -0.440   3.011   9.797
    6SAPS   H8X  766  -0.516   3.090   9.813
    6SAPS   H8Y  767  -0.496   2.915   9.792
    6SAPS   C39  768  -0.366   3.044   9.661
    6SAPS   H9X  769  -0.292   2.961   9.653
    6SAPS   H9Y  770  -0.308   3.138   9.661
    6SAPS  C310  771  -0.456   3.048   9.539
    6SAPS  H10X  772  -0.530   3.130   9.551
    6SAPS  H10Y  773  -0.511   2.951   9.542
    6SAPS  C311  774  -0.372   3.060   9.416
    6SAPS  H11X  775  -0.296   2.978   9.415
    6SAPS  H11Y  776  -0.308   3.151   9.417
    6SAPS  C312  777  -0.447   3.043   9.281
    6SAPS  H12X  778  -0.530   3.117   9.281
    6SAPS  H12Y  779  -0.492   2.942   9.275
    6SAPS  C313  780  -0.350   3.070   9.163
    6SAPS  H13X  781  -0.272   2.995   9.190
    6SAPS  H13Y  782  -0.316   3.176   9.164
    6SAPS  C314  783  -0.413   3.059   9.026
    6SAPS  H14X  784  -0.342   3.108   8.955
    6SAPS  H14Y  785  -0.507   3.118   9.032
    6SAPS  C315  786  -0.432   2.913   8.992
    6SAPS  H15X  787  -0.496   2.879   9.076
    6SAPS  H15Y  788  -0.334   2.862   9.006
    6SAPS  C316  789  -0.491   2.871   8.858
    6SAPS  H16X  790  -0.511   2.762   8.859
    6SAPS  H16Y  791  -0.422   2.901   8.777
    6SAPS  C317  792  -0.621   2.943   8.823
    6SAPS  H17X  793  -0.636   2.922   8.715
    6SAPS  H17Y  794  -0.607   3.053   8.827
    6SAPS  C318  795  -0.735   2.887   8.899
    6SAPS  H18X  796  -0.831   2.929   8.864
    6SAPS  H18Y  797  -0.738   2.909   9.008
    6SAPS  H18Z  798  -0.743   2.777   8.885
    7SAPS     N  799   1.805   4.732  10.691
    7SAPS   HN1  800   1.870   4.664  10.648
    7SAPS   HN2  801   1.743   4.692  10.764
    7SAPS   HN3  802   1.750   4.770  10.611
    7SAPS   C12  803   1.868   4.840  10.770
    7SAPS  H12A  804   1.797   4.908  10.814
    7SAPS   C13  805   1.947   4.781  10.889
    7SAPS  O13A  806   1.949   4.660  10.916
    7SAPS  O13B  807   2.036   4.854  10.941
    7SAPS   C11  808   1.966   4.923  10.686
    7SAPS  H11A  809   2.058   4.862  10.672
    7SAPS  H11B  810   2.017   5.007  10.738
    7SAPS     P  811   1.845   5.110  10.550
    7SAPS   O13  812   1.696   5.101  10.587
    7SAPS   O14  813   1.924   5.208  10.622
    7SAPS   O12  814   1.910   4.971  10.571
    7SAPS   O11  815   1.862   5.138  10.402
    7SAPS    C1  816   1.818   5.050  10.299
    7SAPS    HA  817   1.845   4.946  10.326
    7SAPS    HB  818   1.708   5.058  10.299
    7SAPS    C2  819   1.876   5.070  10.156
    7SAPS    HS  820   1.983   5.099  10.166
    7SAPS   O21  821   1.812   5.178  10.089
    7SAPS   C21  822   1.852   5.298  10.111
    7SAPS   O22  823   1.933   5.333  10.195
    7SAPS   C22  824   1.780   5.388  10.011
    7SAPS   H2R  825   1.769   5.339   9.912
    7SAPS   H2S  826   1.677   5.417  10.040
    7SAPS    C3  827   1.871   4.935  10.080
    7SAPS    HX  828   1.769   4.895  10.099
    7SAPS    HY  829   1.937   4.857  10.124
    7SAPS   O31  830   1.891   4.949   9.941
    7SAPS   C31  831   2.020   4.962   9.887
    7SAPS   O32  832   2.120   4.947   9.954
    7SAPS   C32  833   2.005   4.992   9.735
    7SAPS   H2X  834   1.899   4.972   9.708
    7SAPS   H2Y  835   2.075   4.921   9.684
    7SAPS   C23  836   1.858   5.521  10.006
    7SAPS   H3R  837   1.949   5.516   9.941
    7SAPS   H3S  838   1.894   5.561  10.103
    7SAPS   C24  839   1.762   5.631   9.946
    7SAPS   H4R  840   1.662   5.638   9.994
    7SAPS   H4S  841   1.730   5.596   9.846
    7SAPS   C25  842   1.838   5.762   9.933
    7SAPS   H5R  843   1.843   5.816  10.028
    7SAPS   C26  844   1.905   5.792   9.817
    7SAPS   H6R  845   1.962   5.886   9.814
    7SAPS   C27  846   1.909   5.710   9.685
    7SAPS   H7R  847   1.808   5.715   9.640
    7SAPS   H7S  848   1.928   5.601   9.697
    7SAPS   C28  849   2.016   5.766   9.594
    7SAPS   H8R  850   2.121   5.735   9.609
    7SAPS   C29  851   2.004   5.879   9.518
    7SAPS   H9R  852   2.096   5.921   9.476
    7SAPS  C210  853   1.876   5.964   9.517
    7SAPS  H10R  854   1.791   5.933   9.581
    7SAPS  H10S  855   1.841   5.956   9.412
    7SAPS  C211  856   1.922   6.101   9.550
    7SAPS  H11R  857   1.988   6.110   9.637
    7SAPS  C212  858   1.903   6.208   9.469
    7SAPS  H12R  859   1.943   6.301   9.513
    7SAPS  C213  860   1.821   6.212   9.340
    7SAPS  H13R  861   1.842   6.122   9.279
    7SAPS  H13S  862   1.839   6.306   9.283
    7SAPS  C214  863   1.670   6.209   9.373
    7SAPS  H14R  864   1.637   6.124   9.434
    7SAPS  C215  865   1.575   6.293   9.322
    7SAPS  H15R  866   1.471   6.258   9.331
    7SAPS  C216  867   1.601   6.400   9.220
    7SAPS  H16R  868   1.705   6.408   9.181
    7SAPS  H16S  869   1.603   6.498   9.273
    7SAPS  C217  870   1.511   6.377   9.094
    7SAPS  H17R  871   1.516   6.272   9.057
    7SAPS  H17S  872   1.567   6.433   9.016
    7SAPS  C218  873   1.371   6.431   9.106
    7SAPS  H18R  874   1.379   6.532   9.151
    7SAPS  H18S  875   1.307   6.356   9.158
    7SAPS  C219  876   1.299   6.447   8.969
    7SAPS  H19R  877   1.291   6.346   8.924
    7SAPS  H19S  878   1.364   6.519   8.915
    7SAPS  C220  879   1.157   6.505   8.979
    7SAPS  H20R  880   1.102   6.486   9.074
    7SAPS  H20S  881   1.101   6.489   8.885
    7SAPS  H20T  882   1.191   6.611   8.986
    7SAPS   C33  883   2.048   5.140   9.706
    7SAPS   H3X  884   2.134   5.162   9.773
    7SAPS   H3Y  885   1.961   5.201   9.739
    7SAPS   C34  886   2.079   5.173   9.556
    7SAPS   H4X  887   1.986   5.144   9.502
    7SAPS   H4Y  888   2.159   5.104   9.524
    7SAPS   C35  889   2.096   5.322   9.522
    7SAPS   H5X  890   2.203   5.345   9.544
    7SAPS   H5Y  891   2.024   5.388   9.576
    7SAPS   C36  892   2.084   5.351   9.372
    7SAPS   H6X  893   1.978   5.360   9.340
    7SAPS   H6Y  894   2.124   5.260   9.322
    7SAPS   C37  895   2.157   5.470   9.313
    7SAPS   H7X  896   2.257   5.476   9.360
    7SAPS   H7Y  897   2.104   5.563   9.346
    7SAPS   C38  898   2.136   5.479   9.161
    7SAPS   H8X  899   2.028   5.464   9.138
    7SAPS   H8Y  900   2.194   5.405   9.103
    7SAPS   C39  901   2.170   5.618   9.103
    7SAPS   H9X  902   2.144   5.608   8.995
    7SAPS   H9Y  903   2.279   5.636   9.111
    7SAPS  C310  904   2.091   5.748   9.141
    7SAPS  H10X  905   2.140   5.775   9.237
    7SAPS  H10Y  906   1.985   5.719   9.158
    7SAPS  C311  907   2.110   5.863   9.039
    7SAPS  H11X  908   2.072   5.823   8.943
    7SAPS  H11Y  909   2.218   5.887   9.026
    7SAPS  C312  910   2.036   5.986   9.083
    7SAPS  H12X  911   2.078   6.028   9.178
    7SAPS  H12Y  912   1.931   5.956   9.100
    7SAPS  C313  913   2.022   6.093   8.979
    7SAPS  H13X  914   1.974   6.185   9.018
    7SAPS  H13Y  915   1.957   6.050   8.899
    7SAPS  C314  916   2.157   6.141   8.914
    7SAPS  H14X  917   2.142   6.215   8.833
    7SAPS  H14Y  918   2.198   6.043   8.881
    7SAPS  C315  919   2.264   6.204   9.013
    7SAPS  H15X  920   2.233   6.161   9.111
    7SAPS  H15Y  921   2.249   6.313   9.025
    7SAPS  C316  922   2.409   6.158   8.977
    7SAPS  H16X  923   2.424   6.169   8.867
    7SAPS  H16Y  924   2.426   6.050   8.999
    7SAPS  C317  925   2.523   6.233   9.047
    7SAPS  H17X  926   2.509   6.232   9.157
    7SAPS  H17Y  927   2.527   6.339   9.016
    7SAPS  C318  928   2.659   6.176   8.999
    7SAPS  H18X  929   2.678   6.178   8.889
    7SAPS  H18Y  930   2.667   6.071   9.032
    7SAPS  H18Z  931   2.741   6.230   9.051
    8SAPS     N  932   6.496   6.090  11.193
    8SAPS   HN1  933   6.472   6.182  11.151
    8SAPS   HN2  934   6.525   6.111  11.291
    8SAPS   HN3  935   6.573   6.044  11.140
    8SAPS   C12  936   6.371   6.009  11.197
    8SAPS  H12A  937   6.386   5.921  11.258
    8SAPS   C13  938   6.246   6.078  11.262
    8SAPS  O13A  939   6.259   6.186  11.322
    8SAPS  O13B  940   6.144   6.008  11.282
    8SAPS   C11  941   6.344   5.962  11.053
    8SAPS  H11A  942   6.428   5.902  11.011
    8SAPS  H11B  943   6.338   6.054  10.991
    8SAPS     P  944   6.218   5.736  11.074
    8SAPS   O13  945   6.282   5.703  11.207
    8SAPS   O14  946   6.079   5.689  11.055
    8SAPS   O12  947   6.216   5.894  11.042
    8SAPS   O11  948   6.313   5.689  10.959
    8SAPS    C1  949   6.277   5.659  10.827
    8SAPS    HA  950   6.306   5.553  10.811
    8SAPS    HB  951   6.168   5.681  10.815
    8SAPS    C2  952   6.371   5.738  10.730
    8SAPS    HS  953   6.339   5.844  10.742
    8SAPS   O21  954   6.347   5.706  10.590
    8SAPS   C21  955   6.227   5.749  10.541
    8SAPS   O22  956   6.138   5.802  10.602
    8SAPS   C22  957   6.218   5.700  10.396
    8SAPS   H2R  958   6.310   5.735  10.344
    8SAPS   H2S  959   6.230   5.590  10.398
    8SAPS    C3  960   6.518   5.737  10.767
    8SAPS    HX  961   6.547   5.630  10.755
    8SAPS    HY  962   6.532   5.771  10.872
    8SAPS   O31  963   6.597   5.816  10.677
    8SAPS   C31  964   6.604   5.946  10.722
    8SAPS   O32  965   6.540   5.984  10.818
    8SAPS   C32  966   6.674   6.027  10.617
    8SAPS   H2X  967   6.666   5.976  10.519
    8SAPS   H2Y  968   6.781   6.020  10.647
    8SAPS   C23  969   6.089   5.742  10.318
    8SAPS   H3R  970   6.054   5.845  10.342
    8SAPS   H3S  971   6.003   5.683  10.356
    8SAPS   C24  972   6.101   5.731  10.166
    8SAPS   H4R  973   5.997   5.724  10.128
    8SAPS   H4S  974   6.157   5.636  10.149
    8SAPS   C25  975   6.175   5.845  10.099
    8SAPS   H5R  976   6.176   5.938  10.157
    8SAPS   C26  977   6.243   5.848   9.987
    8SAPS   H6R  978   6.282   5.946   9.957
    8SAPS   C27  979   6.282   5.736   9.893
    8SAPS   H7R  980   6.239   5.762   9.794
    8SAPS   H7S  981   6.231   5.642   9.920
    8SAPS   C28  982   6.432   5.723   9.877
    8SAPS   H8R  983   6.472   5.630   9.920
    8SAPS   C29  984   6.509   5.790   9.791
    8SAPS   H9R  985   6.604   5.742   9.765
    8SAPS  C210  986   6.463   5.897   9.693
    8SAPS  H10R  987   6.476   5.994   9.746
    8SAPS  H10S  988   6.354   5.888   9.673
    8SAPS  C211  989   6.535   5.896   9.564
    8SAPS  H11R  990   6.596   5.806   9.545
    8SAPS  C212  991   6.552   5.997   9.473
    8SAPS  H12R  992   6.617   5.988   9.384
    8SAPS  C213  993   6.493   6.136   9.472
    8SAPS  H13R  994   6.438   6.157   9.566
    8SAPS  H13S  995   6.413   6.145   9.396
    8SAPS  C214  996   6.602   6.238   9.461
    8SAPS  H14R  997   6.684   6.234   9.535
    8SAPS  C215  998   6.602   6.353   9.393
    8SAPS  H15R  999   6.695   6.411   9.382
    8SAPS  C216 1000   6.487   6.406   9.317
    8SAPS  H16R 1001   6.445   6.495   9.367
    8SAPS  H16S 1002   6.400   6.338   9.306
    8SAPS  C217 1003   6.528   6.444   9.172
    8SAPS  H17R 1004   6.582   6.361   9.122
    8SAPS  H17S 1005   6.579   6.543   9.174
    8SAPS  C218 1006   6.403   6.468   9.082
    8SAPS  H18R 1007   6.353   6.555   9.130
    8SAPS  H18S 1008   6.337   6.379   9.085
    8SAPS  C219 1009   6.439   6.502   8.939
    8SAPS  H19R 1010   6.513   6.428   8.900
    8SAPS  H19S 1011   6.492   6.598   8.956
    8SAPS  C220 1012   6.333   6.517   8.843
    8SAPS  H20R 1013   6.369   6.514   8.738
    8SAPS  H20S 1014   6.283   6.612   8.870
    8SAPS  H20T 1015   6.242   6.457   8.864
    8SAPS   C33 1016   6.630   6.171  10.603
    8SAPS   H3X 1017   6.690   6.220  10.523
    8SAPS   H3Y 1018   6.654   6.225  10.697
    8SAPS   C34 1019   6.480   6.189  10.568
    8SAPS   H4X 1020   6.419   6.137  10.646
    8SAPS   H4Y 1021   6.463   6.140  10.470
    8SAPS   C35 1022   6.427   6.332  10.565
    8SAPS   H5X 1023   6.467   6.394  10.648
    8SAPS   H5Y 1024   6.317   6.325  10.578
    8SAPS   C36 1025   6.467   6.397  10.429
    8SAPS   H6X 1026   6.426   6.333  10.348
    8SAPS   H6Y 1027   6.577   6.407  10.421
    8SAPS   C37 1028   6.402   6.533  10.416
    8SAPS   H7X 1029   6.435   6.598  10.500
    8SAPS   H7Y 1030   6.293   6.523  10.434
    8SAPS   C38 1031   6.439   6.596  10.280
    8SAPS   H8X 1032   6.421   6.513  10.208
    8SAPS   H8Y 1033   6.546   6.622  10.269
    8SAPS   C39 1034   6.356   6.722  10.269
    8SAPS   H9X 1035   6.389   6.776  10.360
    8SAPS   H9Y 1036   6.246   6.717  10.284
    8SAPS  C310 1037   6.389   6.820  10.155
    8SAPS  H10X 1038   6.336   6.915  10.178
    8SAPS  H10Y 1039   6.352   6.773  10.061
    8SAPS  C311 1040   6.543   6.857  10.139
    8SAPS  H11X 1041   6.602   6.781  10.083
    8SAPS  H11Y 1042   6.585   6.877  10.240
    8SAPS  C312 1043   6.552   6.985  10.065
    8SAPS  H12X 1044   6.520   7.068  10.132
    8SAPS  H12Y 1045   6.484   6.986   9.978
    8SAPS  C313 1046   6.695   7.028  10.025
    8SAPS  H13X 1047   6.729   6.965   9.940
    8SAPS  H13Y 1048   6.763   7.011  10.110
    8SAPS  C314 1049   6.709   7.177  10.007
    8SAPS  H14X 1050   6.705   7.221  10.108
    8SAPS  H14Y 1051   6.620   7.202   9.946
    8SAPS  C315 1052   6.831   7.228   9.927
    8SAPS  H15X 1053   6.924   7.183   9.968
    8SAPS  H15Y 1054   6.841   7.337   9.947
    8SAPS  C316 1055   6.829   7.201   9.776
    8SAPS  H16X 1056   6.736   7.155   9.737
    8SAPS  H16Y 1057   6.908   7.124   9.762
    8SAPS  C317 1058   6.874   7.322   9.692
    8SAPS  H17X 1059   6.978   7.339   9.725
    8SAPS  H17Y 1060   6.814   7.410   9.723
    8SAPS  C318 1061   6.853   7.299   9.544
    8SAPS  H18X 1062   6.743   7.285   9.533
    8SAPS  H18Y 1063   6.903   7.203   9.521
    8SAPS  H18Z 1064   6.897   7.379   9.481
    9SAPS     N 1065   2.370   2.246   6.360
    9SAPS   HN1 1066   2.311   2.330   6.348
    9SAPS   HN2 1067   2.399   2.210   6.267
    9SAPS   HN3 1068   2.313   2.179   6.416
    9SAPS   C12 1069   2.497   2.266   6.430
    9SAPS  H12A 1070   2.475   2.302   6.529
    9SAPS   C13 1071   2.584   2.147   6.461
    9SAPS  O13A 1072   2.553   2.024   6.437
    9SAPS  O13B 1073   2.700   2.170   6.509
    9SAPS   C11 1074   2.581   2.374   6.349
    9SAPS  H11A 1075   2.605   2.326   6.252
    9SAPS  H11B 1076   2.685   2.384   6.388
    9SAPS     P 1077   2.551   2.621   6.416
    9SAPS   O13 1078   2.700   2.628   6.405
    9SAPS   O14 1079   2.473   2.736   6.360
    9SAPS   O12 1080   2.502   2.490   6.332
    9SAPS   O11 1081   2.505   2.573   6.560
    9SAPS    C1 1082   2.398   2.650   6.623
    9SAPS    HA 1083   2.315   2.676   6.553
    9SAPS    HB 1084   2.343   2.585   6.695
    9SAPS    C2 1085   2.462   2.774   6.692
    9SAPS    HS 1086   2.499   2.847   6.617
    9SAPS   O21 1087   2.571   2.718   6.764
    9SAPS   C21 1088   2.666   2.804   6.791
    9SAPS   O22 1089   2.663   2.923   6.757
    9SAPS   C22 1090   2.777   2.730   6.877
    9SAPS   H2R 1091   2.738   2.629   6.900
    9SAPS   H2S 1092   2.870   2.727   6.817
    9SAPS    C3 1093   2.358   2.844   6.791
    9SAPS    HX 1094   2.270   2.852   6.724
    9SAPS    HY 1095   2.397   2.946   6.813
    9SAPS   O31 1096   2.321   2.764   6.903
    9SAPS   C31 1097   2.385   2.800   7.026
    9SAPS   O32 1098   2.458   2.896   7.037
    9SAPS   C32 1099   2.323   2.710   7.132
    9SAPS   H2X 1100   2.337   2.604   7.101
    9SAPS   H2Y 1101   2.216   2.739   7.134
    9SAPS   C23 1102   2.810   2.808   7.005
    9SAPS   H3R 1103   2.720   2.851   7.053
    9SAPS   H3S 1104   2.881   2.885   6.968
    9SAPS   C24 1105   2.879   2.723   7.115
    9SAPS   H4R 1106   2.907   2.790   7.198
    9SAPS   H4S 1107   2.969   2.675   7.071
    9SAPS   C25 1108   2.787   2.611   7.165
    9SAPS   H5R 1109   2.739   2.554   7.083
    9SAPS   C26 1110   2.765   2.575   7.292
    9SAPS   H6R 1111   2.704   2.488   7.321
    9SAPS   C27 1112   2.833   2.630   7.414
    9SAPS   H7R 1113   2.941   2.613   7.393
    9SAPS   H7S 1114   2.805   2.561   7.496
    9SAPS   C28 1115   2.802   2.764   7.481
    9SAPS   H8R 1116   2.717   2.816   7.434
    9SAPS   C29 1117   2.861   2.816   7.594
    9SAPS   H9R 1118   2.837   2.918   7.626
    9SAPS  C210 1119   2.981   2.749   7.662
    9SAPS  H10R 1120   3.074   2.804   7.637
    9SAPS  H10S 1121   3.001   2.646   7.626
    9SAPS  C211 1122   2.963   2.750   7.814
    9SAPS  H11R 1123   2.960   2.847   7.865
    9SAPS  C212 1124   2.959   2.639   7.891
    9SAPS  H12R 1125   2.951   2.656   8.000
    9SAPS  C213 1126   2.970   2.502   7.848
    9SAPS  H13R 1127   3.073   2.461   7.860
    9SAPS  H13S 1128   2.944   2.491   7.740
    9SAPS  C214 1129   2.881   2.418   7.932
    9SAPS  H14R 1130   2.772   2.422   7.915
    9SAPS  C215 1131   2.924   2.338   8.035
    9SAPS  H15R 1132   2.837   2.298   8.089
    9SAPS  C216 1133   3.059   2.322   8.100
    9SAPS  H16R 1134   3.124   2.289   8.017
    9SAPS  H16S 1135   3.055   2.246   8.181
    9SAPS  C217 1136   3.125   2.442   8.167
    9SAPS  H17R 1137   3.147   2.526   8.098
    9SAPS  H17S 1138   3.226   2.405   8.196
    9SAPS  C218 1139   3.048   2.488   8.283
    9SAPS  H18R 1140   3.041   2.399   8.349
    9SAPS  H18S 1141   2.944   2.517   8.256
    9SAPS  C219 1142   3.117   2.593   8.367
    9SAPS  H19R 1143   3.053   2.611   8.456
    9SAPS  H19S 1144   3.135   2.685   8.308
    9SAPS  C220 1145   3.256   2.549   8.430
    9SAPS  H20R 1146   3.290   2.625   8.504
    9SAPS  H20S 1147   3.330   2.551   8.346
    9SAPS  H20T 1148   3.254   2.450   8.479
    9SAPS   C33 1149   2.390   2.727   7.274
    9SAPS   H3X 1150   2.439   2.826   7.278
    9SAPS   H3Y 1151   2.479   2.664   7.296
    9SAPS   C34 1152   2.296   2.687   7.391
    9SAPS   H4X 1153   2.275   2.578   7.389
    9SAPS   H4Y 1154   2.193   2.728   7.390
    9SAPS   C35 1155   2.351   2.706   7.529
    9SAPS   H5X 1156   2.452   2.659   7.540
    9SAPS   H5Y 1157   2.288   2.658   7.607
    9SAPS   C36 1158   2.366   2.856   7.561
    9SAPS   H6X 1159   2.279   2.907   7.514
    9SAPS   H6Y 1160   2.460   2.887   7.511
    9SAPS   C37 1161   2.385   2.886   7.711
    9SAPS   H7X 1162   2.291   2.856   7.762
    9SAPS   H7Y 1163   2.391   2.997   7.709
    9SAPS   C38 1164   2.514   2.830   7.768
    9SAPS   H8X 1165   2.593   2.858   7.695
    9SAPS   H8Y 1166   2.515   2.718   7.766
    9SAPS   C39 1167   2.540   2.881   7.910
    9SAPS   H9X 1168   2.553   2.991   7.915
    9SAPS   H9Y 1169   2.631   2.834   7.953
    9SAPS  C310 1170   2.426   2.837   8.003
    9SAPS  H10X 1171   2.413   2.731   7.974
    9SAPS  H10Y 1172   2.333   2.888   7.968
    9SAPS  C311 1173   2.441   2.864   8.147
    9SAPS  H11X 1174   2.343   2.846   8.198
    9SAPS  H11Y 1175   2.476   2.967   8.171
    9SAPS  C312 1176   2.546   2.770   8.201
    9SAPS  H12X 1177   2.647   2.798   8.163
    9SAPS  H12Y 1178   2.532   2.668   8.160
    9SAPS  C313 1179   2.551   2.768   8.355
    9SAPS  H13X 1180   2.447   2.794   8.385
    9SAPS  H13Y 1181   2.621   2.842   8.399
    9SAPS  C314 1182   2.597   2.629   8.408
    9SAPS  H14X 1183   2.698   2.615   8.365
    9SAPS  H14Y 1184   2.529   2.547   8.378
    9SAPS  C315 1185   2.591   2.632   8.563
    9SAPS  H15X 1186   2.486   2.630   8.601
    9SAPS  H15Y 1187   2.639   2.725   8.599
    9SAPS  C316 1188   2.659   2.510   8.628
    9SAPS  H16X 1189   2.770   2.505   8.615
    9SAPS  H16Y 1190   2.614   2.417   8.587
    9SAPS  C317 1191   2.630   2.488   8.779
    9SAPS  H17X 1192   2.673   2.574   8.834
    9SAPS  H17Y 1193   2.687   2.397   8.809
    9SAPS  C318 1194   2.481   2.488   8.823
    9SAPS  H18X 1195   2.475   2.479   8.933
    9SAPS  H18Y 1196   2.422   2.401   8.787
    9SAPS  H18Z 1197   2.442   2.591   8.809
   10SAPS     N 1198   2.594   1.792   6.323
   10SAPS   HN1 1199   2.491   1.776   6.314
   10SAPS   HN2 1200   2.618   1.736   6.408
   10SAPS   HN3 1201   2.598   1.891   6.353
   10SAPS   C12 1202   2.670   1.747   6.203
   10SAPS  H12A 1203   2.647   1.643   6.182
   10SAPS   C13 1204   2.648   1.829   6.067
   10SAPS  O13A 1205   2.577   1.928   6.072
   10SAPS  O13B 1206   2.699   1.790   5.962
   10SAPS   C11 1207   2.818   1.738   6.230
   10SAPS  H11A 1208   2.864   1.837   6.246
   10SAPS  H11B 1209   2.868   1.708   6.135
   10SAPS     P 1210   2.875   1.693   6.479
   10SAPS   O13 1211   2.742   1.729   6.540
   10SAPS   O14 1212   2.951   1.592   6.553
   10SAPS   O12 1213   2.857   1.646   6.334
   10SAPS   O11 1214   2.961   1.828   6.461
   10SAPS    C1 1215   3.084   1.849   6.536
   10SAPS    HA 1216   3.146   1.757   6.544
   10SAPS    HB 1217   3.135   1.935   6.489
   10SAPS    C2 1218   3.056   1.907   6.682
   10SAPS    HS 1219   3.157   1.915   6.727
   10SAPS   O21 1220   2.983   1.813   6.763
   10SAPS   C21 1221   3.053   1.708   6.807
   10SAPS   O22 1222   3.172   1.701   6.802
   10SAPS   C22 1223   2.958   1.604   6.871
   10SAPS   H2R 1224   2.893   1.568   6.788
   10SAPS   H2S 1225   3.024   1.529   6.919
   10SAPS    C3 1226   2.996   2.053   6.677
   10SAPS    HX 1227   2.893   2.052   6.635
   10SAPS    HY 1228   3.076   2.103   6.618
   10SAPS   O31 1229   3.001   2.114   6.807
   10SAPS   C31 1230   2.900   2.091   6.890
   10SAPS   O32 1231   2.806   2.015   6.863
   10SAPS   C32 1232   2.911   2.175   7.016
   10SAPS   H2X 1233   2.849   2.266   7.004
   10SAPS   H2Y 1234   3.012   2.222   7.020
   10SAPS   C23 1235   2.868   1.668   6.980
   10SAPS   H3R 1236   2.801   1.588   7.020
   10SAPS   H3S 1237   2.809   1.730   6.909
   10SAPS   C24 1238   2.930   1.748   7.096
   10SAPS   H4R 1239   2.853   1.791   7.163
   10SAPS   H4S 1240   2.986   1.829   7.044
   10SAPS   C25 1241   3.038   1.681   7.172
   10SAPS   H5R 1242   3.108   1.621   7.111
   10SAPS   C26 1243   3.057   1.695   7.306
   10SAPS   H6R 1244   3.135   1.641   7.361
   10SAPS   C27 1245   2.960   1.774   7.392
   10SAPS   H7R 1246   2.855   1.737   7.389
   10SAPS   H7S 1247   2.963   1.878   7.354
   10SAPS   C28 1248   3.003   1.776   7.540
   10SAPS   H8R 1249   3.042   1.871   7.580
   10SAPS   C29 1250   2.982   1.672   7.626
   10SAPS   H9R 1251   3.012   1.682   7.731
   10SAPS  C210 1252   2.933   1.540   7.587
   10SAPS  H10R 1253   3.007   1.458   7.597
   10SAPS  H10S 1254   2.911   1.527   7.479
   10SAPS  C211 1255   2.812   1.524   7.664
   10SAPS  H11R 1256   2.734   1.589   7.623
   10SAPS  C212 1257   2.786   1.442   7.775
   10SAPS  H12R 1258   2.687   1.440   7.822
   10SAPS  C213 1259   2.877   1.345   7.838
   10SAPS  H13R 1260   2.959   1.302   7.777
   10SAPS  H13S 1261   2.809   1.260   7.859
   10SAPS  C214 1262   2.948   1.386   7.965
   10SAPS  H14R 1263   3.008   1.476   7.947
   10SAPS  C215 1264   2.959   1.318   8.078
   10SAPS  H15R 1265   3.027   1.351   8.158
   10SAPS  C216 1266   2.902   1.184   8.108
   10SAPS  H16R 1267   2.949   1.106   8.043
   10SAPS  H16S 1268   2.792   1.186   8.088
   10SAPS  C217 1269   2.927   1.140   8.258
   10SAPS  H17R 1270   2.906   1.229   8.321
   10SAPS  H17S 1271   3.034   1.119   8.280
   10SAPS  C218 1272   2.852   1.014   8.293
   10SAPS  H18R 1273   2.866   0.948   8.205
   10SAPS  H18S 1274   2.742   1.023   8.295
   10SAPS  C219 1275   2.885   0.947   8.427
   10SAPS  H19R 1276   2.994   0.928   8.426
   10SAPS  H19S 1277   2.828   0.852   8.437
   10SAPS  C220 1278   2.847   1.036   8.548
   10SAPS  H20R 1279   2.888   1.139   8.535
   10SAPS  H20S 1280   2.891   0.998   8.642
   10SAPS  H20T 1281   2.737   1.050   8.552
   10SAPS   C33 1282   2.873   2.112   7.150
   10SAPS   H3X 1283   2.945   2.037   7.190
   10SAPS   H3Y 1284   2.773   2.062   7.152
   10SAPS   C34 1285   2.882   2.218   7.262
   10SAPS   H4X 1286   2.798   2.288   7.247
   10SAPS   H4Y 1287   2.970   2.283   7.245
   10SAPS   C35 1288   2.887   2.162   7.405
   10SAPS   H5X 1289   2.938   2.063   7.405
   10SAPS   H5Y 1290   2.782   2.143   7.436
   10SAPS   C36 1291   2.952   2.251   7.514
   10SAPS   H6X 1292   2.887   2.340   7.531
   10SAPS   H6Y 1293   3.049   2.287   7.474
   10SAPS   C37 1294   2.981   2.178   7.648
   10SAPS   H7X 1295   3.025   2.244   7.726
   10SAPS   H7Y 1296   3.067   2.110   7.633
   10SAPS   C38 1297   2.864   2.092   7.704
   10SAPS   H8X 1298   2.827   2.022   7.626
   10SAPS   H8Y 1299   2.778   2.158   7.727
   10SAPS   C39 1300   2.908   2.003   7.822
   10SAPS   H9X 1301   2.934   2.078   7.900
   10SAPS   H9Y 1302   2.999   1.950   7.790
   10SAPS  C310 1303   2.799   1.898   7.861
   10SAPS  H10X 1304   2.786   1.825   7.778
   10SAPS  H10Y 1305   2.699   1.947   7.868
   10SAPS  C311 1306   2.820   1.829   7.990
   10SAPS  H11X 1307   2.847   1.906   8.066
   10SAPS  H11Y 1308   2.913   1.773   7.967
   10SAPS  C312 1309   2.709   1.743   8.046
   10SAPS  H12X 1310   2.670   1.680   7.963
   10SAPS  H12Y 1311   2.630   1.816   8.077
   10SAPS  C313 1312   2.746   1.658   8.165
   10SAPS  H13X 1313   2.789   1.566   8.120
   10SAPS  H13Y 1314   2.647   1.621   8.202
   10SAPS  C314 1315   2.821   1.730   8.275
   10SAPS  H14X 1316   2.757   1.808   8.320
   10SAPS  H14Y 1317   2.909   1.783   8.233
   10SAPS  C315 1318   2.861   1.637   8.391
   10SAPS  H15X 1319   2.951   1.584   8.353
   10SAPS  H15Y 1320   2.773   1.569   8.394
   10SAPS  C316 1321   2.883   1.710   8.523
   10SAPS  H16X 1322   2.807   1.782   8.560
   10SAPS  H16Y 1323   2.980   1.760   8.502
   10SAPS  C317 1324   2.920   1.617   8.638
   10SAPS  H17X 1325   3.005   1.560   8.595
   10SAPS  H17Y 1326   2.836   1.551   8.667
   10SAPS  C318 1327   2.959   1.699   8.765
   10SAPS  H18X 1328   3.054   1.752   8.743
   10SAPS  H18Y 1329   2.983   1.631   8.849
   10SAPS  H18Z 1330   2.875   1.770   8.783
   11SAPS     N 1331   4.354   5.234   5.770
   11SAPS   HN1 1332   4.301   5.149   5.798
   11SAPS   HN2 1333   4.292   5.292   5.709
   11SAPS   HN3 1334   4.431   5.211   5.704
   11SAPS   C12 1335   4.384   5.311   5.893
   11SAPS  H12A 1336   4.416   5.411   5.867
   11SAPS   C13 1337   4.263   5.335   5.987
   11SAPS  O13A 1338   4.145   5.314   5.950
   11SAPS  O13B 1339   4.275   5.422   6.078
   11SAPS   C11 1340   4.509   5.251   5.963
   11SAPS  H11A 1341   4.473   5.178   6.038
   11SAPS  H11B 1342   4.559   5.328   6.025
   11SAPS     P 1343   4.761   5.233   5.860
   11SAPS   O13 1344   4.855   5.114   5.860
   11SAPS   O14 1345   4.758   5.316   5.739
   11SAPS   O12 1346   4.607   5.194   5.870
   11SAPS   O11 1347   4.798   5.322   5.985
   11SAPS    C1 1348   4.884   5.272   6.088
   11SAPS    HA 1349   4.983   5.238   6.050
   11SAPS    HB 1350   4.909   5.363   6.145
   11SAPS    C2 1351   4.808   5.183   6.187
   11SAPS    HS 1352   4.776   5.091   6.135
   11SAPS   O21 1353   4.697   5.260   6.234
   11SAPS   C21 1354   4.609   5.180   6.293
   11SAPS   O22 1355   4.616   5.059   6.311
   11SAPS   C22 1356   4.508   5.270   6.356
   11SAPS   H2R 1357   4.555   5.366   6.387
   11SAPS   H2S 1358   4.430   5.309   6.286
   11SAPS    C3 1359   4.912   5.133   6.301
   11SAPS    HX 1360   5.014   5.102   6.268
   11SAPS    HY 1361   4.882   5.037   6.347
   11SAPS   O31 1362   4.924   5.239   6.396
   11SAPS   C31 1363   4.947   5.211   6.520
   11SAPS   O32 1364   4.983   5.104   6.567
   11SAPS   C32 1365   4.911   5.344   6.593
   11SAPS   H2X 1366   4.801   5.355   6.589
   11SAPS   H2Y 1367   4.962   5.421   6.531
   11SAPS   C23 1368   4.436   5.229   6.484
   11SAPS   H3R 1369   4.372   5.141   6.461
   11SAPS   H3S 1370   4.367   5.310   6.516
   11SAPS   C24 1371   4.531   5.210   6.605
   11SAPS   H4R 1372   4.466   5.242   6.689
   11SAPS   H4S 1373   4.610   5.288   6.596
   11SAPS   C25 1374   4.580   5.069   6.631
   11SAPS   H5R 1375   4.611   5.015   6.540
   11SAPS   C26 1376   4.581   5.016   6.757
   11SAPS   H6R 1377   4.613   4.913   6.773
   11SAPS   C27 1378   4.542   5.082   6.888
   11SAPS   H7R 1379   4.549   5.192   6.876
   11SAPS   H7S 1380   4.605   5.056   6.975
   11SAPS   C28 1381   4.399   5.048   6.925
   11SAPS   H8R 1382   4.334   5.042   6.836
   11SAPS   C29 1383   4.341   5.054   7.051
   11SAPS   H9R 1384   4.234   5.031   7.043
   11SAPS  C210 1385   4.417   5.070   7.176
   11SAPS  H10R 1386   4.508   5.005   7.177
   11SAPS  H10S 1387   4.344   5.031   7.250
   11SAPS  C211 1388   4.454   5.212   7.199
   11SAPS  H11R 1389   4.465   5.272   7.108
   11SAPS  C212 1390   4.486   5.272   7.309
   11SAPS  H12R 1391   4.496   5.382   7.309
   11SAPS  C213 1392   4.488   5.207   7.446
   11SAPS  H13R 1393   4.573   5.242   7.508
   11SAPS  H13S 1394   4.516   5.102   7.424
   11SAPS  C214 1395   4.357   5.198   7.519
   11SAPS  H14R 1396   4.268   5.165   7.464
   11SAPS  C215 1397   4.336   5.214   7.653
   11SAPS  H15R 1398   4.234   5.210   7.694
   11SAPS  C216 1399   4.436   5.249   7.762
   11SAPS  H16R 1400   4.403   5.337   7.822
   11SAPS  H16S 1401   4.531   5.274   7.711
   11SAPS  C217 1402   4.492   5.147   7.862
   11SAPS  H17R 1403   4.553   5.204   7.935
   11SAPS  H17S 1404   4.560   5.080   7.805
   11SAPS  C218 1405   4.390   5.074   7.953
   11SAPS  H18R 1406   4.315   5.018   7.893
   11SAPS  H18S 1407   4.325   5.147   8.005
   11SAPS  C219 1408   4.451   4.984   8.062
   11SAPS  H19R 1409   4.561   4.990   8.049
   11SAPS  H19S 1410   4.425   4.879   8.035
   11SAPS  C220 1411   4.410   5.021   8.206
   11SAPS  H20R 1412   4.448   4.955   8.287
   11SAPS  H20S 1413   4.300   5.021   8.215
   11SAPS  H20T 1414   4.430   5.127   8.231
   11SAPS   C33 1415   4.958   5.352   6.743
   11SAPS   H3X 1416   4.929   5.455   6.775
   11SAPS   H3Y 1417   5.068   5.351   6.733
   11SAPS   C34 1418   4.896   5.255   6.847
   11SAPS   H4X 1419   4.921   5.159   6.798
   11SAPS   H4Y 1420   4.788   5.276   6.863
   11SAPS   C35 1421   4.960   5.265   6.993
   11SAPS   H5X 1422   4.927   5.356   7.047
   11SAPS   H5Y 1423   5.070   5.272   6.981
   11SAPS   C36 1424   4.920   5.147   7.085
   11SAPS   H6X 1425   4.961   5.049   7.053
   11SAPS   H6Y 1426   4.809   5.137   7.083
   11SAPS   C37 1427   4.973   5.154   7.226
   11SAPS   H7X 1428   5.080   5.183   7.234
   11SAPS   H7Y 1429   4.959   5.051   7.264
   11SAPS   C38 1430   4.892   5.248   7.318
   11SAPS   H8X 1431   4.784   5.227   7.307
   11SAPS   H8Y 1432   4.897   5.356   7.292
   11SAPS   C39 1433   4.923   5.215   7.463
   11SAPS   H9X 1434   5.033   5.202   7.473
   11SAPS   H9Y 1435   4.878   5.118   7.492
   11SAPS  C310 1436   4.875   5.321   7.566
   11SAPS  H10X 1437   4.768   5.345   7.557
   11SAPS  H10Y 1438   4.927   5.419   7.557
   11SAPS  C311 1439   4.898   5.269   7.710
   11SAPS  H11X 1440   5.004   5.234   7.713
   11SAPS  H11Y 1441   4.830   5.186   7.739
   11SAPS  C312 1442   4.894   5.388   7.807
   11SAPS  H12X 1443   4.801   5.448   7.803
   11SAPS  H12Y 1444   4.965   5.460   7.763
   11SAPS  C313 1445   4.935   5.344   7.948
   11SAPS  H13X 1446   4.931   5.429   8.020
   11SAPS  H13Y 1447   5.037   5.300   7.950
   11SAPS  C314 1448   4.840   5.249   8.016
   11SAPS  H14X 1449   4.828   5.154   7.960
   11SAPS  H14Y 1450   4.737   5.291   8.018
   11SAPS  C315 1451   4.883   5.220   8.157
   11SAPS  H15X 1452   4.935   5.302   8.210
   11SAPS  H15Y 1453   4.952   5.133   8.154
   11SAPS  C316 1454   4.759   5.183   8.242
   11SAPS  H16X 1455   4.700   5.111   8.181
   11SAPS  H16Y 1456   4.711   5.279   8.269
   11SAPS  C317 1457   4.790   5.101   8.369
   11SAPS  H17X 1458   4.864   5.158   8.430
   11SAPS  H17Y 1459   4.843   5.006   8.349
   11SAPS  C318 1460   4.672   5.060   8.450
   11SAPS  H18X 1461   4.607   4.977   8.414
   11SAPS  H18Y 1462   4.599   5.141   8.467
   11SAPS  H18Z 1463   4.713   5.033   8.549
   12SAPS     N 1464   4.395   5.831   5.968
   12SAPS   HN1 1465   4.354   5.792   5.881
   12SAPS   HN2 1466   4.425   5.749   6.023
   12SAPS   HN3 1467   4.310   5.873   6.011
   12SAPS   C12 1468   4.490   5.941   5.935
   12SAPS  H12A 1469   4.593   5.915   5.918
   12SAPS   C13 1470   4.454   6.032   5.817
   12SAPS  O13A 1471   4.371   6.001   5.726
   12SAPS  O13B 1472   4.544   6.113   5.791
   12SAPS   C11 1473   4.489   6.036   6.060
   12SAPS  H11A 1474   4.572   6.099   6.022
   12SAPS  H11B 1475   4.528   5.984   6.150
   12SAPS     P 1476   4.245   6.092   6.148
   12SAPS   O13 1477   4.148   6.196   6.109
   12SAPS   O14 1478   4.206   5.951   6.117
   12SAPS   O12 1479   4.383   6.117   6.081
   12SAPS   O11 1480   4.264   6.111   6.300
   12SAPS    C1 1481   4.261   6.244   6.367
   12SAPS    HA 1482   4.189   6.311   6.317
   12SAPS    HB 1483   4.219   6.238   6.470
   12SAPS    C2 1484   4.398   6.306   6.367
   12SAPS    HS 1485   4.434   6.315   6.262
   12SAPS   O21 1486   4.492   6.219   6.429
   12SAPS   C21 1487   4.616   6.250   6.430
   12SAPS   O22 1488   4.675   6.345   6.383
   12SAPS   C22 1489   4.680   6.144   6.522
   12SAPS   H2R 1490   4.599   6.115   6.592
   12SAPS   H2S 1491   4.709   6.055   6.462
   12SAPS    C3 1492   4.397   6.453   6.433
   12SAPS    HX 1493   4.316   6.508   6.383
   12SAPS    HY 1494   4.496   6.500   6.413
   12SAPS   O31 1495   4.359   6.447   6.570
   12SAPS   C31 1496   4.450   6.468   6.656
   12SAPS   O32 1497   4.571   6.478   6.636
   12SAPS   C32 1498   4.385   6.483   6.792
   12SAPS   H2X 1499   4.349   6.382   6.823
   12SAPS   H2Y 1500   4.297   6.551   6.786
   12SAPS   C23 1501   4.800   6.192   6.613
   12SAPS   H3R 1502   4.774   6.286   6.665
   12SAPS   H3S 1503   4.883   6.221   6.545
   12SAPS   C24 1504   4.824   6.077   6.713
   12SAPS   H4R 1505   4.836   5.988   6.647
   12SAPS   H4S 1506   4.731   6.050   6.767
   12SAPS   C25 1507   4.937   6.101   6.810
   12SAPS   H5R 1508   5.035   6.075   6.768
   12SAPS   C26 1509   4.922   6.124   6.938
   12SAPS   H6R 1510   5.015   6.125   6.998
   12SAPS   C27 1511   4.789   6.152   6.998
   12SAPS   H7R 1512   4.707   6.175   6.926
   12SAPS   H7S 1513   4.800   6.246   7.056
   12SAPS   C28 1514   4.723   6.040   7.072
   12SAPS   H8R 1515   4.647   5.992   7.009
   12SAPS   C29 1516   4.747   6.004   7.194
   12SAPS   H9R 1517   4.675   5.931   7.234
   12SAPS  C210 1518   4.847   6.056   7.292
   12SAPS  H10R 1519   4.791   6.122   7.362
   12SAPS  H10S 1520   4.934   6.104   7.242
   12SAPS  C211 1521   4.888   5.939   7.380
   12SAPS  H11R 1522   4.895   5.844   7.326
   12SAPS  C212 1523   4.926   5.924   7.503
   12SAPS  H12R 1524   4.942   5.821   7.538
   12SAPS  C213 1525   4.918   6.040   7.604
   12SAPS  H13R 1526   4.861   6.012   7.695
   12SAPS  H13S 1527   4.866   6.130   7.563
   12SAPS  C214 1528   5.056   6.066   7.645
   12SAPS  H14R 1529   5.111   6.149   7.598
   12SAPS  C215 1530   5.129   5.985   7.724
   12SAPS  H15R 1531   5.229   6.022   7.754
   12SAPS  C216 1532   5.078   5.863   7.790
   12SAPS  H16R 1533   4.984   5.832   7.738
   12SAPS  H16S 1534   5.050   5.899   7.891
   12SAPS  C217 1535   5.178   5.746   7.782
   12SAPS  H17R 1536   5.188   5.698   7.682
   12SAPS  H17S 1537   5.128   5.666   7.841
   12SAPS  C218 1538   5.312   5.779   7.858
   12SAPS  H18R 1539   5.301   5.811   7.963
   12SAPS  H18S 1540   5.372   5.847   7.794
   12SAPS  C219 1541   5.399   5.655   7.902
   12SAPS  H19R 1542   5.336   5.573   7.942
   12SAPS  H19S 1543   5.476   5.691   7.974
   12SAPS  C220 1544   5.478   5.584   7.786
   12SAPS  H20R 1545   5.399   5.568   7.709
   12SAPS  H20S 1546   5.520   5.485   7.814
   12SAPS  H20T 1547   5.562   5.648   7.752
   12SAPS   C33 1548   4.487   6.533   6.905
   12SAPS   H3X 1549   4.528   6.634   6.881
   12SAPS   H3Y 1550   4.575   6.466   6.907
   12SAPS   C34 1551   4.409   6.547   7.044
   12SAPS   H4X 1552   4.354   6.450   7.052
   12SAPS   H4Y 1553   4.337   6.629   7.026
   12SAPS   C35 1554   4.506   6.579   7.155
   12SAPS   H5X 1555   4.443   6.592   7.246
   12SAPS   H5Y 1556   4.557   6.673   7.125
   12SAPS   C36 1557   4.606   6.467   7.191
   12SAPS   H6X 1558   4.686   6.465   7.113
   12SAPS   H6Y 1559   4.536   6.381   7.188
   12SAPS   C37 1560   4.665   6.470   7.332
   12SAPS   H7X 1561   4.708   6.569   7.359
   12SAPS   H7Y 1562   4.756   6.406   7.325
   12SAPS   C38 1563   4.571   6.408   7.439
   12SAPS   H8X 1564   4.525   6.309   7.416
   12SAPS   H8Y 1565   4.489   6.479   7.462
   12SAPS   C39 1566   4.636   6.388   7.566
   12SAPS   H9X 1567   4.718   6.463   7.575
   12SAPS   H9Y 1568   4.701   6.299   7.557
   12SAPS  C310 1569   4.528   6.381   7.675
   12SAPS  H10X 1570   4.438   6.321   7.653
   12SAPS  H10Y 1571   4.491   6.485   7.684
   12SAPS  C311 1572   4.592   6.337   7.810
   12SAPS  H11X 1573   4.520   6.349   7.893
   12SAPS  H11Y 1574   4.680   6.401   7.831
   12SAPS  C312 1575   4.633   6.190   7.811
   12SAPS  H12X 1576   4.707   6.172   7.730
   12SAPS  H12Y 1577   4.549   6.117   7.804
   12SAPS  C313 1578   4.709   6.151   7.937
   12SAPS  H13X 1579   4.732   6.042   7.935
   12SAPS  H13Y 1580   4.651   6.179   8.028
   12SAPS  C314 1581   4.848   6.211   7.953
   12SAPS  H14X 1582   4.833   6.313   7.996
   12SAPS  H14Y 1583   4.901   6.224   7.856
   12SAPS  C315 1584   4.934   6.140   8.057
   12SAPS  H15X 1585   4.955   6.037   8.019
   12SAPS  H15Y 1586   4.897   6.127   8.160
   12SAPS  C316 1587   5.078   6.193   8.055
   12SAPS  H16X 1588   5.094   6.294   8.100
   12SAPS  H16Y 1589   5.109   6.206   7.949
   12SAPS  C317 1590   5.180   6.089   8.117
   12SAPS  H17X 1591   5.166   5.989   8.071
   12SAPS  H17Y 1592   5.166   6.097   8.227
   12SAPS  C318 1593   5.325   6.132   8.097
   12SAPS  H18X 1594   5.349   6.101   7.993
   12SAPS  H18Y 1595   5.397   6.085   8.168
   12SAPS  H18Z 1596   5.327   6.242   8.112
   13SAPS     N 1597   4.809   3.082   6.231
   13SAPS   HN1 1598   4.740   3.160   6.236
   13SAPS   HN2 1599   4.764   2.990   6.214
   13SAPS   HN3 1600   4.860   3.076   6.321
   13SAPS   C12 1601   4.910   3.102   6.120
   13SAPS  H12A 1602   4.951   3.004   6.103
   13SAPS   C13 1603   4.866   3.152   5.983
   13SAPS  O13A 1604   4.744   3.183   5.968
   13SAPS  O13B 1605   4.946   3.163   5.887
   13SAPS   C11 1606   5.026   3.196   6.168
   13SAPS  H11A 1607   5.088   3.230   6.082
   13SAPS  H11B 1608   5.095   3.146   6.240
   13SAPS     P 1609   5.009   3.451   6.231
   13SAPS   O13 1610   5.160   3.451   6.222
   13SAPS   O14 1611   4.931   3.525   6.130
   13SAPS   O12 1612   4.966   3.304   6.240
   13SAPS   O11 1613   4.967   3.514   6.373
   13SAPS    C1 1614   4.940   3.429   6.492
   13SAPS    HA 1615   4.985   3.329   6.475
   13SAPS    HB 1616   4.997   3.470   6.578
   13SAPS    C2 1617   4.788   3.409   6.523
   13SAPS    HS 1618   4.746   3.360   6.432
   13SAPS   O21 1619   4.731   3.537   6.535
   13SAPS   C21 1620   4.599   3.548   6.551
   13SAPS   O22 1621   4.523   3.457   6.523
   13SAPS   C22 1622   4.561   3.688   6.589
   13SAPS   H2R 1623   4.640   3.759   6.556
   13SAPS   H2S 1624   4.482   3.714   6.516
   13SAPS    C3 1625   4.763   3.318   6.646
   13SAPS    HX 1626   4.782   3.215   6.607
   13SAPS    HY 1627   4.658   3.309   6.681
   13SAPS   O31 1628   4.841   3.358   6.761
   13SAPS   C31 1629   4.950   3.289   6.779
   13SAPS   O32 1630   4.977   3.187   6.722
   13SAPS   C32 1631   5.038   3.340   6.892
   13SAPS   H2X 1632   5.143   3.342   6.856
   13SAPS   H2Y 1633   5.027   3.274   6.980
   13SAPS   C23 1634   4.525   3.701   6.734
   13SAPS   H3R 1635   4.444   3.627   6.754
   13SAPS   H3S 1636   4.480   3.797   6.766
   13SAPS   C24 1637   4.644   3.673   6.833
   13SAPS   H4R 1638   4.685   3.578   6.792
   13SAPS   H4S 1639   4.602   3.656   6.934
   13SAPS   C25 1640   4.759   3.767   6.833
   13SAPS   H5R 1641   4.814   3.739   6.742
   13SAPS   C26 1642   4.795   3.853   6.933
   13SAPS   H6R 1643   4.881   3.919   6.914
   13SAPS   C27 1644   4.725   3.859   7.062
   13SAPS   H7R 1645   4.767   3.774   7.119
   13SAPS   H7S 1646   4.616   3.840   7.046
   13SAPS   C28 1647   4.753   3.990   7.138
   13SAPS   H8R 1648   4.769   4.080   7.077
   13SAPS   C29 1649   4.767   4.002   7.270
   13SAPS   H9R 1650   4.772   4.105   7.308
   13SAPS  C210 1651   4.747   3.899   7.377
   13SAPS  H10R 1652   4.839   3.882   7.437
   13SAPS  H10S 1653   4.724   3.797   7.339
   13SAPS  C211 1654   4.640   3.937   7.471
   13SAPS  H11R 1655   4.553   3.995   7.438
   13SAPS  C212 1656   4.644   3.911   7.604
   13SAPS  H12R 1657   4.570   3.940   7.679
   13SAPS  C213 1658   4.753   3.838   7.674
   13SAPS  H13R 1659   4.751   3.881   7.776
   13SAPS  H13S 1660   4.853   3.863   7.632
   13SAPS  C214 1661   4.748   3.690   7.674
   13SAPS  H14R 1662   4.838   3.650   7.624
   13SAPS  C215 1663   4.656   3.613   7.739
   13SAPS  H15R 1664   4.649   3.505   7.718
   13SAPS  C216 1665   4.551   3.660   7.837
   13SAPS  H16R 1666   4.459   3.665   7.774
   13SAPS  H16S 1667   4.566   3.767   7.865
   13SAPS  C217 1668   4.532   3.566   7.951
   13SAPS  H17R 1669   4.605   3.594   8.030
   13SAPS  H17S 1670   4.567   3.462   7.930
   13SAPS  C218 1671   4.399   3.568   8.022
   13SAPS  H18R 1672   4.354   3.669   8.027
   13SAPS  H18S 1673   4.415   3.531   8.125
   13SAPS  C219 1674   4.296   3.480   7.950
   13SAPS  H19R 1675   4.344   3.380   7.937
   13SAPS  H19S 1676   4.287   3.505   7.842
   13SAPS  C220 1677   4.159   3.460   8.019
   13SAPS  H20R 1678   4.094   3.419   7.939
   13SAPS  H20S 1679   4.115   3.554   8.059
   13SAPS  H20T 1680   4.172   3.386   8.101
   13SAPS   C33 1681   4.996   3.475   6.959
   13SAPS   H3X 1682   4.893   3.467   7.000
   13SAPS   H3Y 1683   5.003   3.542   6.871
   13SAPS   C34 1684   5.102   3.520   7.060
   13SAPS   H4X 1685   5.099   3.621   7.106
   13SAPS   H4Y 1686   5.202   3.492   7.021
   13SAPS   C35 1687   5.075   3.436   7.184
   13SAPS   H5X 1688   5.157   3.463   7.254
   13SAPS   H5Y 1689   5.062   3.327   7.171
   13SAPS   C36 1690   4.949   3.475   7.271
   13SAPS   H6X 1691   4.860   3.415   7.242
   13SAPS   H6Y 1692   4.922   3.580   7.244
   13SAPS   C37 1693   4.975   3.464   7.422
   13SAPS   H7X 1694   4.880   3.475   7.479
   13SAPS   H7Y 1695   5.034   3.555   7.450
   13SAPS   C38 1696   5.040   3.329   7.471
   13SAPS   H8X 1697   5.133   3.313   7.412
   13SAPS   H8Y 1698   4.980   3.237   7.456
   13SAPS   C39 1699   5.099   3.332   7.614
   13SAPS   H9X 1700   5.174   3.412   7.628
   13SAPS   H9Y 1701   5.155   3.236   7.617
   13SAPS  C310 1702   4.980   3.331   7.714
   13SAPS  H10X 1703   4.917   3.243   7.692
   13SAPS  H10Y 1704   4.922   3.424   7.695
   13SAPS  C311 1705   5.025   3.307   7.861
   13SAPS  H11X 1706   5.125   3.353   7.877
   13SAPS  H11Y 1707   5.031   3.197   7.878
   13SAPS  C312 1708   4.929   3.358   7.968
   13SAPS  H12X 1709   4.826   3.321   7.950
   13SAPS  H12Y 1710   4.917   3.467   7.950
   13SAPS  C313 1711   4.977   3.333   8.110
   13SAPS  H13X 1712   5.075   3.384   8.123
   13SAPS  H13Y 1713   5.000   3.227   8.132
   13SAPS  C314 1714   4.873   3.373   8.223
   13SAPS  H14X 1715   4.805   3.293   8.258
   13SAPS  H14Y 1716   4.807   3.449   8.177
   13SAPS  C315 1717   4.950   3.418   8.344
   13SAPS  H15X 1718   4.873   3.466   8.408
   13SAPS  H15Y 1719   5.033   3.488   8.320
   13SAPS  C316 1720   5.020   3.304   8.428
   13SAPS  H16X 1721   5.114   3.268   8.382
   13SAPS  H16Y 1722   4.961   3.210   8.430
   13SAPS  C317 1723   5.054   3.351   8.574
   13SAPS  H17X 1724   5.037   3.258   8.633
   13SAPS  H17Y 1725   4.971   3.415   8.609
   13SAPS  C318 1726   5.192   3.415   8.589
   13SAPS  H18X 1727   5.280   3.348   8.577
   13SAPS  H18Y 1728   5.211   3.455   8.691
   13SAPS  H18Z 1729   5.208   3.488   8.507
   14SAPS     N 1730   4.765   5.511   5.561
   14SAPS   HN1 1731   4.852   5.565   5.580
   14SAPS   HN2 1732   4.774   5.438   5.634
   14SAPS   HN3 1733   4.766   5.460   5.470
   14SAPS   C12 1734   4.647   5.596   5.591
   14SAPS  H12A 1735   4.648   5.678   5.521
   14SAPS   C13 1736   4.516   5.522   5.568
   14SAPS  O13A 1737   4.500   5.412   5.522
   14SAPS  O13B 1738   4.414   5.593   5.593
   14SAPS   C11 1739   4.656   5.662   5.722
   14SAPS  H11A 1740   4.681   5.584   5.797
   14SAPS  H11B 1741   4.562   5.710   5.754
   14SAPS     P 1742   4.872   5.757   5.830
   14SAPS   O13 1743   4.954   5.642   5.803
   14SAPS   O14 1744   4.944   5.885   5.836
   14SAPS   O12 1745   4.759   5.762   5.721
   14SAPS   O11 1746   4.789   5.735   5.960
   14SAPS    C1 1747   4.840   5.648   6.058
   14SAPS    HA 1748   4.795   5.547   6.050
   14SAPS    HB 1749   4.950   5.633   6.059
   14SAPS    C2 1750   4.815   5.704   6.202
   14SAPS    HS 1751   4.718   5.758   6.202
   14SAPS   O21 1752   4.922   5.790   6.232
   14SAPS   C21 1753   4.903   5.921   6.231
   14SAPS   O22 1754   4.802   5.969   6.192
   14SAPS   C22 1755   5.025   5.998   6.269
   14SAPS   H2R 1756   5.087   6.026   6.181
   14SAPS   H2S 1757   4.997   6.086   6.330
   14SAPS    C3 1758   4.812   5.589   6.307
   14SAPS    HX 1759   4.912   5.541   6.305
   14SAPS    HY 1760   4.748   5.505   6.271
   14SAPS   O31 1761   4.788   5.635   6.449
   14SAPS   C31 1762   4.662   5.635   6.482
   14SAPS   O32 1763   4.568   5.594   6.410
   14SAPS   C32 1764   4.648   5.692   6.622
   14SAPS   H2X 1765   4.557   5.755   6.610
   14SAPS   H2Y 1766   4.732   5.760   6.647
   14SAPS   C23 1767   5.127   5.920   6.366
   14SAPS   H3R 1768   5.196   5.873   6.293
   14SAPS   H3S 1769   5.075   5.850   6.435
   14SAPS   C24 1770   5.199   6.022   6.459
   14SAPS   H4R 1771   5.268   5.961   6.520
   14SAPS   H4S 1772   5.123   6.065   6.527
   14SAPS   C25 1773   5.268   6.142   6.396
   14SAPS   H5R 1774   5.321   6.118   6.304
   14SAPS   C26 1775   5.268   6.265   6.456
   14SAPS   H6R 1776   5.349   6.328   6.418
   14SAPS   C27 1777   5.190   6.321   6.573
   14SAPS   H7R 1778   5.252   6.313   6.665
   14SAPS   H7S 1779   5.104   6.252   6.586
   14SAPS   C28 1780   5.154   6.469   6.561
   14SAPS   H8R 1781   5.140   6.514   6.461
   14SAPS   C29 1782   5.135   6.562   6.658
   14SAPS   H9R 1783   5.084   6.654   6.626
   14SAPS  C210 1784   5.151   6.529   6.809
   14SAPS  H10R 1785   5.200   6.620   6.850
   14SAPS  H10S 1786   5.224   6.446   6.822
   14SAPS  C211 1787   5.020   6.496   6.882
   14SAPS  H11R 1788   4.948   6.477   6.801
   14SAPS  C212 1789   5.009   6.457   7.013
   14SAPS  H12R 1790   4.908   6.422   7.042
   14SAPS  C213 1791   5.118   6.461   7.117
   14SAPS  H13R 1792   5.127   6.569   7.141
   14SAPS  H13S 1793   5.218   6.430   7.079
   14SAPS  C214 1794   5.092   6.382   7.244
   14SAPS  H14R 1795   5.004   6.315   7.241
   14SAPS  C215 1796   5.154   6.405   7.358
   14SAPS  H15R 1797   5.118   6.362   7.452
   14SAPS  C216 1798   5.277   6.489   7.371
   14SAPS  H16R 1799   5.234   6.591   7.365
   14SAPS  H16S 1800   5.346   6.481   7.284
   14SAPS  C217 1801   5.341   6.461   7.502
   14SAPS  H17R 1802   5.269   6.490   7.581
   14SAPS  H17S 1803   5.431   6.525   7.518
   14SAPS  C218 1804   5.397   6.317   7.509
   14SAPS  H18R 1805   5.479   6.306   7.434
   14SAPS  H18S 1806   5.323   6.239   7.483
   14SAPS  C219 1807   5.475   6.269   7.643
   14SAPS  H19R 1808   5.394   6.233   7.710
   14SAPS  H19S 1809   5.525   6.363   7.675
   14SAPS  C220 1810   5.577   6.159   7.608
   14SAPS  H20R 1811   5.606   6.175   7.503
   14SAPS  H20S 1812   5.513   6.068   7.609
   14SAPS  H20T 1813   5.668   6.137   7.668
   14SAPS   C33 1814   4.622   5.573   6.721
   14SAPS   H3X 1815   4.711   5.506   6.726
   14SAPS   H3Y 1816   4.535   5.513   6.686
   14SAPS   C34 1817   4.606   5.621   6.863
   14SAPS   H4X 1818   4.550   5.546   6.924
   14SAPS   H4Y 1819   4.539   5.710   6.872
   14SAPS   C35 1820   4.729   5.665   6.931
   14SAPS   H5X 1821   4.773   5.754   6.882
   14SAPS   H5Y 1822   4.812   5.592   6.914
   14SAPS   C36 1823   4.710   5.684   7.083
   14SAPS   H6X 1824   4.629   5.758   7.097
   14SAPS   H6Y 1825   4.791   5.742   7.134
   14SAPS   C37 1826   4.697   5.550   7.154
   14SAPS   H7X 1827   4.782   5.486   7.122
   14SAPS   H7Y 1828   4.606   5.491   7.130
   14SAPS   C38 1829   4.703   5.579   7.302
   14SAPS   H8X 1830   4.789   5.641   7.335
   14SAPS   H8Y 1831   4.725   5.484   7.355
   14SAPS   C39 1832   4.577   5.643   7.356
   14SAPS   H9X 1833   4.490   5.605   7.298
   14SAPS   H9Y 1834   4.570   5.751   7.330
   14SAPS  C310 1835   4.545   5.623   7.503
   14SAPS  H10X 1836   4.533   5.515   7.528
   14SAPS  H10Y 1837   4.455   5.685   7.526
   14SAPS  C311 1838   4.657   5.693   7.585
   14SAPS  H11X 1839   4.672   5.795   7.545
   14SAPS  H11Y 1840   4.744   5.624   7.577
   14SAPS  C312 1841   4.619   5.696   7.730
   14SAPS  H12X 1842   4.584   5.597   7.767
   14SAPS  H12Y 1843   4.541   5.774   7.745
   14SAPS  C313 1844   4.749   5.720   7.809
   14SAPS  H13X 1845   4.779   5.827   7.797
   14SAPS  H13Y 1846   4.833   5.660   7.767
   14SAPS  C314 1847   4.730   5.713   7.961
   14SAPS  H14X 1848   4.689   5.612   7.984
   14SAPS  H14Y 1849   4.667   5.796   7.998
   14SAPS  C315 1850   4.862   5.733   8.044
   14SAPS  H15X 1851   4.922   5.813   7.995
   14SAPS  H15Y 1852   4.912   5.635   8.026
   14SAPS  C316 1853   4.838   5.765   8.192
   14SAPS  H16X 1854   4.794   5.866   8.198
   14SAPS  H16Y 1855   4.942   5.759   8.229
   14SAPS  C317 1856   4.755   5.661   8.256
   14SAPS  H17X 1857   4.779   5.567   8.203
   14SAPS  H17Y 1858   4.644   5.669   8.251
   14SAPS  C318 1859   4.779   5.647   8.405
   14SAPS  H18X 1860   4.808   5.743   8.452
   14SAPS  H18Y 1861   4.861   5.578   8.435
   14SAPS  H18Z 1862   4.686   5.616   8.456
   15SAPS     N 1863   5.151   5.468   5.786
   15SAPS   HN1 1864   5.219   5.518   5.725
   15SAPS   HN2 1865   5.067   5.529   5.783
   15SAPS   HN3 1866   5.180   5.463   5.885
   15SAPS   C12 1867   5.134   5.321   5.739
   15SAPS  H12A 1868   5.061   5.277   5.806
   15SAPS   C13 1869   5.085   5.303   5.592
   15SAPS  O13A 1870   5.090   5.403   5.517
   15SAPS  O13B 1871   5.089   5.183   5.545
   15SAPS   C11 1872   5.268   5.247   5.770
   15SAPS  H11A 1873   5.348   5.309   5.724
   15SAPS  H11B 1874   5.267   5.148   5.719
   15SAPS     P 1875   5.439   5.215   5.954
   15SAPS   O13 1876   5.474   5.084   5.897
   15SAPS   O14 1877   5.526   5.334   5.924
   15SAPS   O12 1878   5.288   5.242   5.909
   15SAPS   O11 1879   5.438   5.201   6.107
   15SAPS    C1 1880   5.311   5.188   6.168
   15SAPS    HA 1881   5.247   5.275   6.141
   15SAPS    HB 1882   5.250   5.103   6.130
   15SAPS    C2 1883   5.307   5.172   6.325
   15SAPS    HS 1884   5.202   5.191   6.355
   15SAPS   O21 1885   5.391   5.272   6.384
   15SAPS   C21 1886   5.351   5.396   6.376
   15SAPS   O22 1887   5.242   5.435   6.335
   15SAPS   C22 1888   5.461   5.498   6.408
   15SAPS   H2R 1889   5.556   5.464   6.359
   15SAPS   H2S 1890   5.443   5.596   6.358
   15SAPS    C3 1891   5.357   5.029   6.359
   15SAPS    HX 1892   5.465   5.013   6.342
   15SAPS    HY 1893   5.313   4.956   6.287
   15SAPS   O31 1894   5.322   4.999   6.497
   15SAPS   C31 1895   5.400   5.041   6.590
   15SAPS   O32 1896   5.506   5.105   6.575
   15SAPS   C32 1897   5.345   5.004   6.725
   15SAPS   H2X 1898   5.428   4.964   6.788
   15SAPS   H2Y 1899   5.271   4.921   6.721
   15SAPS   C23 1900   5.499   5.517   6.556
   15SAPS   H3R 1901   5.573   5.601   6.560
   15SAPS   H3S 1902   5.549   5.421   6.582
   15SAPS   C24 1903   5.381   5.524   6.657
   15SAPS   H4R 1904   5.421   5.532   6.760
   15SAPS   H4S 1905   5.314   5.436   6.644
   15SAPS   C25 1906   5.301   5.643   6.611
   15SAPS   H5R 1907   5.303   5.676   6.506
   15SAPS   C26 1908   5.213   5.709   6.688
   15SAPS   H6R 1909   5.166   5.801   6.651
   15SAPS   C27 1910   5.189   5.673   6.832
   15SAPS   H7R 1911   5.281   5.632   6.880
   15SAPS   H7S 1912   5.131   5.579   6.827
   15SAPS   C28 1913   5.128   5.782   6.916
   15SAPS   H8R 1914   5.020   5.772   6.936
   15SAPS   C29 1915   5.200   5.872   6.986
   15SAPS   H9R 1916   5.139   5.943   7.042
   15SAPS  C210 1917   5.348   5.893   6.982
   15SAPS  H10R 1918   5.399   5.833   6.904
   15SAPS  H10S 1919   5.394   5.861   7.078
   15SAPS  C211 1920   5.384   6.032   6.951
   15SAPS  H11R 1921   5.363   6.065   6.849
   15SAPS  C212 1922   5.441   6.115   7.036
   15SAPS  H12R 1923   5.455   6.219   7.003
   15SAPS  C213 1924   5.481   6.073   7.178
   15SAPS  H13R 1925   5.553   6.147   7.221
   15SAPS  H13S 1926   5.533   5.975   7.188
   15SAPS  C214 1927   5.359   6.072   7.274
   15SAPS  H14R 1928   5.283   6.150   7.259
   15SAPS  C215 1929   5.332   5.987   7.371
   15SAPS  H15R 1930   5.244   6.009   7.432
   15SAPS  C216 1931   5.417   5.863   7.403
   15SAPS  H16R 1932   5.420   5.842   7.512
   15SAPS  H16S 1933   5.522   5.883   7.372
   15SAPS  C217 1934   5.379   5.724   7.354
   15SAPS  H17R 1935   5.433   5.637   7.396
   15SAPS  H17S 1936   5.397   5.729   7.244
   15SAPS  C218 1937   5.225   5.684   7.365
   15SAPS  H18R 1938   5.164   5.759   7.310
   15SAPS  H18S 1939   5.198   5.700   7.472
   15SAPS  C219 1940   5.201   5.539   7.327
   15SAPS  H19R 1941   5.097   5.511   7.353
   15SAPS  H19S 1942   5.277   5.470   7.371
   15SAPS  C220 1943   5.196   5.523   7.173
   15SAPS  H20R 1944   5.101   5.568   7.137
   15SAPS  H20S 1945   5.193   5.414   7.151
   15SAPS  H20T 1946   5.280   5.576   7.123
   15SAPS   C33 1947   5.266   5.112   6.802
   15SAPS   H3X 1948   5.217   5.071   6.893
   15SAPS   H3Y 1949   5.198   5.165   6.731
   15SAPS   C34 1950   5.356   5.225   6.851
   15SAPS   H4X 1951   5.287   5.308   6.878
   15SAPS   H4Y 1952   5.415   5.273   6.770
   15SAPS   C35 1953   5.452   5.201   6.969
   15SAPS   H5X 1954   5.532   5.125   6.958
   15SAPS   H5Y 1955   5.393   5.163   7.055
   15SAPS   C36 1956   5.509   5.336   7.015
   15SAPS   H6X 1957   5.435   5.417   7.031
   15SAPS   H6Y 1958   5.573   5.368   6.930
   15SAPS   C37 1959   5.587   5.333   7.141
   15SAPS   H7X 1960   5.662   5.415   7.147
   15SAPS   H7Y 1961   5.643   5.237   7.144
   15SAPS   C38 1962   5.498   5.341   7.261
   15SAPS   H8X 1963   5.403   5.290   7.236
   15SAPS   H8Y 1964   5.476   5.450   7.271
   15SAPS   C39 1965   5.544   5.268   7.387
   15SAPS   H9X 1966   5.641   5.306   7.426
   15SAPS   H9Y 1967   5.565   5.167   7.348
   15SAPS  C310 1968   5.438   5.253   7.501
   15SAPS  H10X 1969   5.357   5.180   7.478
   15SAPS  H10Y 1970   5.388   5.352   7.511
   15SAPS  C311 1971   5.491   5.229   7.642
   15SAPS  H11X 1972   5.542   5.323   7.673
   15SAPS  H11Y 1973   5.556   5.142   7.617
   15SAPS  C312 1974   5.386   5.178   7.742
   15SAPS  H12X 1975   5.336   5.085   7.710
   15SAPS  H12Y 1976   5.301   5.249   7.753
   15SAPS  C313 1977   5.451   5.180   7.878
   15SAPS  H13X 1978   5.503   5.277   7.894
   15SAPS  H13Y 1979   5.533   5.105   7.883
   15SAPS  C314 1980   5.350   5.163   7.998
   15SAPS  H14X 1981   5.281   5.080   7.971
   15SAPS  H14Y 1982   5.289   5.253   8.020
   15SAPS  C315 1983   5.427   5.124   8.127
   15SAPS  H15X 1984   5.512   5.193   8.146
   15SAPS  H15Y 1985   5.477   5.027   8.108
   15SAPS  C316 1986   5.336   5.121   8.249
   15SAPS  H16X 1987   5.284   5.219   8.258
   15SAPS  H16Y 1988   5.409   5.102   8.331
   15SAPS  C317 1989   5.231   5.006   8.246
   15SAPS  H17X 1990   5.272   4.903   8.241
   15SAPS  H17Y 1991   5.167   5.021   8.156
   15SAPS  C318 1992   5.128   5.018   8.365
   15SAPS  H18X 1993   5.041   4.951   8.353
   15SAPS  H18Y 1994   5.095   5.124   8.371
   15SAPS  H18Z 1995   5.179   4.993   8.460
   16SAPS     N 1996   6.788   0.298   6.506
   16SAPS   HN1 1997   6.826   0.270   6.599
   16SAPS   HN2 1998   6.710   0.364   6.524
   16SAPS   HN3 1999   6.751   0.210   6.465
   16SAPS   C12 2000   6.897   0.356   6.425
   16SAPS  H12A 2001   6.956   0.275   6.384
   16SAPS   C13 2002   6.835   0.447   6.314
   16SAPS  O13A 2003   6.717   0.427   6.281
   16SAPS  O13B 2004   6.902   0.545   6.265
   16SAPS   C11 2005   6.984   0.438   6.521
   16SAPS  H11A 2006   6.923   0.519   6.568
   16SAPS  H11B 2007   7.065   0.492   6.467
   16SAPS     P 2008   7.188   0.332   6.650
   16SAPS   O13 2009   7.210   0.192   6.606
   16SAPS   O14 2010   7.269   0.438   6.586
   16SAPS   O12 2011   7.033   0.356   6.625
   16SAPS   O11 2012   7.213   0.349   6.802
   16SAPS    C1 2013   7.093   0.316   6.874
   16SAPS    HA 2014   7.013   0.389   6.848
   16SAPS    HB 2015   7.062   0.211   6.852
   16SAPS    C2 2016   7.132   0.338   7.025
   16SAPS    HS 2017   7.158   0.446   7.028
   16SAPS   O21 2018   7.237   0.246   7.066
   16SAPS   C21 2019   7.325   0.296   7.153
   16SAPS   O22 2020   7.318   0.407   7.203
   16SAPS   C22 2021   7.434   0.195   7.175
   16SAPS   H2R 2022   7.382   0.099   7.157
   16SAPS   H2S 2023   7.512   0.226   7.102
   16SAPS    C3 2024   7.005   0.312   7.119
   16SAPS    HX 2025   6.997   0.202   7.131
   16SAPS    HY 2026   6.914   0.340   7.062
   16SAPS   O31 2027   7.023   0.364   7.253
   16SAPS   C31 2028   7.006   0.497   7.266
   16SAPS   O32 2029   6.970   0.577   7.186
   16SAPS   C32 2030   7.027   0.525   7.417
   16SAPS   H2X 2031   7.034   0.635   7.430
   16SAPS   H2Y 2032   7.129   0.487   7.435
   16SAPS   C23 2033   7.502   0.202   7.314
   16SAPS   H3R 2034   7.503   0.307   7.350
   16SAPS   H3S 2035   7.607   0.171   7.296
   16SAPS   C24 2036   7.436   0.120   7.419
   16SAPS   H4R 2037   7.456   0.012   7.401
   16SAPS   H4S 2038   7.327   0.136   7.406
   16SAPS   C25 2039   7.489   0.139   7.561
   16SAPS   H5R 2040   7.597   0.123   7.571
   16SAPS   C26 2041   7.420   0.146   7.674
   16SAPS   H6R 2042   7.478   0.145   7.767
   16SAPS   C27 2043   7.273   0.160   7.689
   16SAPS   H7R 2044   7.236   0.105   7.778
   16SAPS   H7S 2045   7.217   0.101   7.612
   16SAPS   C28 2046   7.234   0.299   7.691
   16SAPS   H8R 2047   7.265   0.354   7.602
   16SAPS   C29 2048   7.170   0.371   7.787
   16SAPS   H9R 2049   7.138   0.475   7.768
   16SAPS  C210 2050   7.131   0.322   7.923
   16SAPS  H10R 2051   7.120   0.211   7.923
   16SAPS  H10S 2052   7.027   0.354   7.941
   16SAPS  C211 2053   7.237   0.349   8.032
   16SAPS  H11R 2054   7.332   0.394   7.997
   16SAPS  C212 2055   7.230   0.318   8.163
   16SAPS  H12R 2056   7.313   0.333   8.234
   16SAPS  C213 2057   7.102   0.258   8.220
   16SAPS  H13R 2058   7.134   0.223   8.321
   16SAPS  H13S 2059   7.060   0.171   8.165
   16SAPS  C214 2060   6.994   0.367   8.236
   16SAPS  H14R 2061   6.996   0.438   8.152
   16SAPS  C215 2062   6.919   0.389   8.343
   16SAPS  H15R 2063   6.849   0.472   8.328
   16SAPS  C216 2064   6.922   0.322   8.481
   16SAPS  H16R 2065   6.922   0.400   8.560
   16SAPS  H16S 2066   7.017   0.265   8.488
   16SAPS  C217 2067   6.811   0.216   8.507
   16SAPS  H17R 2068   6.845   0.126   8.452
   16SAPS  H17S 2069   6.715   0.256   8.467
   16SAPS  C218 2070   6.802   0.179   8.656
   16SAPS  H18R 2071   6.796   0.277   8.708
   16SAPS  H18S 2072   6.897   0.133   8.693
   16SAPS  C219 2073   6.686   0.096   8.693
   16SAPS  H19R 2074   6.699   0.000   8.638
   16SAPS  H19S 2075   6.588   0.136   8.659
   16SAPS  C220 2076   6.667   0.065   8.843
   16SAPS  H20R 2077   6.563   0.032   8.866
   16SAPS  H20S 2078   6.698   0.155   8.900
   16SAPS  H20T 2079   6.740  -0.014   8.872
   16SAPS   C33 2080   6.923   0.467   7.509
   16SAPS   H3X 2081   6.957   0.465   7.614
   16SAPS   H3Y 2082   6.895   0.364   7.478
   16SAPS   C34 2083   6.794   0.549   7.512
   16SAPS   H4X 2084   6.756   0.531   7.409
   16SAPS   H4Y 2085   6.831   0.654   7.523
   16SAPS   C35 2086   6.688   0.496   7.615
   16SAPS   H5X 2087   6.674   0.387   7.598
   16SAPS   H5Y 2088   6.588   0.541   7.596
   16SAPS   C36 2089   6.740   0.519   7.761
   16SAPS   H6X 2090   6.745   0.629   7.779
   16SAPS   H6Y 2091   6.834   0.464   7.779
   16SAPS   C37 2092   6.642   0.485   7.881
   16SAPS   H7X 2093   6.586   0.395   7.848
   16SAPS   H7Y 2094   6.565   0.565   7.879
   16SAPS   C38 2095   6.704   0.449   8.016
   16SAPS   H8X 2096   6.778   0.529   8.038
   16SAPS   H8Y 2097   6.770   0.360   8.008
   16SAPS   C39 2098   6.612   0.457   8.137
   16SAPS   H9X 2099   6.651   0.398   8.222
   16SAPS   H9Y 2100   6.511   0.417   8.112
   16SAPS  C310 2101   6.601   0.596   8.191
   16SAPS  H10X 2102   6.558   0.652   8.105
   16SAPS  H10Y 2103   6.691   0.655   8.219
   16SAPS  C311 2104   6.494   0.596   8.302
   16SAPS  H11X 2105   6.527   0.510   8.365
   16SAPS  H11Y 2106   6.393   0.575   8.259
   16SAPS  C312 2107   6.499   0.717   8.403
   16SAPS  H12X 2108   6.469   0.816   8.364
   16SAPS  H12Y 2109   6.605   0.730   8.433
   16SAPS  C313 2110   6.425   0.691   8.535
   16SAPS  H13X 2111   6.469   0.601   8.583
   16SAPS  H13Y 2112   6.318   0.672   8.513
   16SAPS  C314 2113   6.411   0.797   8.654
   16SAPS  H14X 2114   6.334   0.866   8.614
   16SAPS  H14Y 2115   6.503   0.856   8.675
   16SAPS  C315 2116   6.368   0.731   8.785
   16SAPS  H15X 2117   6.463   0.691   8.826
   16SAPS  H15Y 2118   6.295   0.652   8.757
   16SAPS  C316 2119   6.286   0.816   8.888
   16SAPS  H16X 2120   6.363   0.881   8.936
   16SAPS  H16Y 2121   6.229   0.755   8.961
   16SAPS  C317 2122   6.175   0.899   8.818
   16SAPS  H17X 2123   6.125   0.840   8.738
   16SAPS  H17Y 2124   6.229   0.982   8.767
   16SAPS  C318 2125   6.075   0.964   8.908
   16SAPS  H18X 2126   6.034   0.878   8.966
   16SAPS  H18Y 2127   5.990   1.009   8.852
   16SAPS  H18Z 2128   6.114   1.038   8.980
   17SAPC     N 2129   3.738   3.534  10.314
   17SAPC   C12 2130   3.822   3.414  10.355
   17SAPC  H12A 2131   3.763   3.341  10.407
   17SAPC  H12B 2132   3.894   3.436  10.433
   17SAPC   C13 2133   3.805   3.642  10.243
   17SAPC  H13A 2134   3.722   3.703  10.210
   17SAPC  H13B 2135   3.878   3.698  10.299
   17SAPC  H13C 2136   3.840   3.601  10.149
   17SAPC   C14 2137   3.643   3.480  10.208
   17SAPC  H14A 2138   3.562   3.550  10.190
   17SAPC  H14B 2139   3.688   3.466  10.111
   17SAPC  H14C 2140   3.604   3.384  10.237
   17SAPC   C15 2141   3.648   3.579  10.423
   17SAPC  H15A 2142   3.704   3.619  10.506
   17SAPC  H15B 2143   3.586   3.660  10.388
   17SAPC  H15C 2144   3.572   3.505  10.445
   17SAPC   C11 2145   3.906   3.350  10.237
   17SAPC  H11A 2146   3.968   3.427  10.186
   17SAPC  H11B 2147   3.832   3.306  10.167
   17SAPC     P 2148   4.139   3.276  10.325
   17SAPC   O13 2149   4.144   3.403  10.401
   17SAPC   O14 2150   4.192   3.155  10.388
   17SAPC   O12 2151   3.985   3.249  10.294
   17SAPC   O11 2152   4.224   3.305  10.193
   17SAPC    C1 2153   4.321   3.213  10.139
   17SAPC    HA 2154   4.416   3.268  10.121
   17SAPC    HB 2155   4.332   3.129  10.210
   17SAPC    C2 2156   4.281   3.158   9.999
   17SAPC    HS 2157   4.217   3.069  10.017
   17SAPC   O21 2158   4.393   3.126   9.924
   17SAPC   C21 2159   4.463   3.024   9.976
   17SAPC   O22 2160   4.431   2.962  10.079
   17SAPC   C22 2161   4.599   3.023   9.912
   17SAPC   H2R 2162   4.598   2.985   9.808
   17SAPC   H2S 2163   4.639   3.126   9.897
   17SAPC    C3 2164   4.194   3.266   9.926
   17SAPC    HX 2165   4.268   3.348   9.913
   17SAPC    HY 2166   4.113   3.287   9.998
   17SAPC   O31 2167   4.152   3.242   9.793
   17SAPC   C31 2168   4.046   3.166   9.782
   17SAPC   O32 2169   3.978   3.116   9.869
   17SAPC   C32 2170   4.016   3.133   9.636
   17SAPC   H2X 2171   3.913   3.169   9.612
   17SAPC   H2Y 2172   4.011   3.023   9.633
   17SAPC   C23 2173   4.699   2.946   9.993
   17SAPC   H3R 2174   4.677   2.837   9.997
   17SAPC   H3S 2175   4.702   2.987  10.096
   17SAPC   C24 2176   4.837   2.948   9.933
   17SAPC   H4R 2177   4.813   2.934   9.826
   17SAPC   H4S 2178   4.896   2.863   9.972
   17SAPC   C25 2179   4.914   3.074   9.962
   17SAPC   H5R 2180   4.912   3.117  10.063
   17SAPC   C26 2181   4.997   3.142   9.882
   17SAPC   H6R 2182   5.064   3.210   9.936
   17SAPC   C27 2183   5.037   3.106   9.742
   17SAPC   H7R 2184   4.963   3.031   9.708
   17SAPC   H7S 2185   5.134   3.052   9.734
   17SAPC   C28 2186   5.018   3.219   9.649
   17SAPC   H8R 2187   5.078   3.308   9.673
   17SAPC   C29 2188   4.957   3.226   9.529
   17SAPC   H9R 2189   4.943   3.325   9.483
   17SAPC  C210 2190   4.906   3.110   9.451
   17SAPC  H10R 2191   4.854   3.032   9.511
   17SAPC  H10S 2192   4.990   3.049   9.410
   17SAPC  C211 2193   4.822   3.155   9.333
   17SAPC  H11R 2194   4.859   3.239   9.272
   17SAPC  C212 2195   4.702   3.104   9.305
   17SAPC  H12R 2196   4.648   3.140   9.217
   17SAPC  C213 2197   4.634   2.993   9.376
   17SAPC  H13R 2198   4.700   2.911   9.409
   17SAPC  H13S 2199   4.569   2.948   9.298
   17SAPC  C214 2200   4.547   3.043   9.494
   17SAPC  H14R 2201   4.569   3.146   9.527
   17SAPC  C215 2202   4.465   2.968   9.566
   17SAPC  H15R 2203   4.403   3.008   9.647
   17SAPC  C216 2204   4.444   2.824   9.550
   17SAPC  H16R 2205   4.523   2.781   9.485
   17SAPC  H16S 2206   4.346   2.807   9.499
   17SAPC  C217 2207   4.437   2.745   9.675
   17SAPC  H17R 2208   4.514   2.766   9.753
   17SAPC  H17S 2209   4.455   2.641   9.641
   17SAPC  C218 2210   4.301   2.760   9.739
   17SAPC  H18R 2211   4.216   2.757   9.668
   17SAPC  H18S 2212   4.300   2.858   9.791
   17SAPC  C219 2213   4.286   2.654   9.843
   17SAPC  H19R 2214   4.361   2.678   9.921
   17SAPC  H19S 2215   4.312   2.554   9.801
   17SAPC  C220 2216   4.146   2.658   9.911
   17SAPC  H20R 2217   4.068   2.639   9.834
   17SAPC  H20S 2218   4.127   2.761   9.949
   17SAPC  H20T 2219   4.148   2.586   9.995
   17SAPC   C33 2220   4.120   3.174   9.529
   17SAPC   H3X 2221   4.207   3.106   9.541
   17SAPC   H3Y 2222   4.155   3.278   9.543
   17SAPC   C34 2223   4.057   3.173   9.393
   17SAPC   H4X 2224   3.958   3.221   9.396
   17SAPC   H4Y 2225   4.040   3.070   9.354
   17SAPC   C35 2226   4.151   3.241   9.281
   17SAPC   H5X 2227   4.228   3.165   9.256
   17SAPC   H5Y 2228   4.202   3.334   9.312
   17SAPC   C36 2229   4.056   3.247   9.163
   17SAPC   H6X 2230   3.968   3.309   9.188
   17SAPC   H6Y 2231   4.015   3.147   9.137
   17SAPC   C37 2232   4.129   3.301   9.042
   17SAPC   H7X 2233   4.239   3.311   9.055
   17SAPC   H7Y 2234   4.094   3.404   9.021
   17SAPC   C38 2235   4.116   3.233   8.903
   17SAPC   H8X 2236   4.162   3.308   8.835
   17SAPC   H8Y 2237   4.009   3.221   8.876
   17SAPC   C39 2238   4.193   3.101   8.891
   17SAPC   H9X 2239   4.145   3.024   8.955
   17SAPC   H9Y 2240   4.290   3.117   8.944
   17SAPC  C310 2241   4.194   3.061   8.741
   17SAPC  H10X 2242   4.260   3.140   8.700
   17SAPC  H10Y 2243   4.095   3.063   8.690
   17SAPC  C311 2244   4.268   2.928   8.723
   17SAPC  H11X 2245   4.210   2.849   8.773
   17SAPC  H11Y 2246   4.363   2.922   8.781
   17SAPC  C312 2247   4.306   2.911   8.577
   17SAPC  H12X 2248   4.396   2.851   8.555
   17SAPC  H12Y 2249   4.337   3.007   8.530
   17SAPC  C313 2250   4.196   2.853   8.482
   17SAPC  H13X 2251   4.103   2.907   8.511
   17SAPC  H13Y 2252   4.168   2.749   8.508
   17SAPC  C314 2253   4.209   2.876   8.332
   17SAPC  H14X 2254   4.294   2.942   8.303
   17SAPC  H14Y 2255   4.122   2.902   8.268
   17SAPC  C315 2256   4.247   2.743   8.267
   17SAPC  H15X 2257   4.166   2.668   8.277
   17SAPC  H15Y 2258   4.330   2.696   8.325
   17SAPC  C316 2259   4.281   2.759   8.121
   17SAPC  H16X 2260   4.355   2.842   8.117
   17SAPC  H16Y 2261   4.188   2.793   8.072
   17SAPC  C317 2262   4.328   2.637   8.040
   17SAPC  H17X 2263   4.435   2.623   8.066
   17SAPC  H17Y 2264   4.317   2.661   7.932
   17SAPC  C318 2265   4.255   2.508   8.073
   17SAPC  H18X 2266   4.256   2.428   7.996
   17SAPC  H18Y 2267   4.285   2.473   8.174
   17SAPC  H18Z 2268   4.150   2.541   8.089
   18SAPC     N 2269   5.493   3.173  10.662
   18SAPC   C12 2270   5.405   3.093  10.564
   18SAPC  H12A 2271   5.339   3.169  10.522
   18SAPC  H12B 2272   5.335   3.024  10.607
   18SAPC   C13 2273   5.562   3.282  10.585
   18SAPC  H13A 2274   5.620   3.237  10.505
   18SAPC  H13B 2275   5.492   3.354  10.547
   18SAPC  H13C 2276   5.626   3.340  10.650
   18SAPC   C14 2277   5.406   3.228  10.769
   18SAPC  H14A 2278   5.316   3.265  10.722
   18SAPC  H14B 2279   5.372   3.156  10.842
   18SAPC  H14C 2280   5.445   3.318  10.816
   18SAPC   C15 2281   5.588   3.083  10.731
   18SAPC  H15A 2282   5.536   3.008  10.788
   18SAPC  H15B 2283   5.640   3.024  10.657
   18SAPC  H15C 2284   5.660   3.126  10.799
   18SAPC   C11 2285   5.473   3.010  10.450
   18SAPC  H11A 2286   5.555   3.069  10.404
   18SAPC  H11B 2287   5.401   3.000  10.365
   18SAPC     P 2288   5.407   2.775  10.518
   18SAPC   O13 2289   5.460   2.660  10.591
   18SAPC   O14 2290   5.279   2.826  10.573
   18SAPC   O12 2291   5.514   2.885  10.503
   18SAPC   O11 2292   5.375   2.723  10.366
   18SAPC    C1 2293   5.475   2.726  10.264
   18SAPC    HA 2294   5.449   2.812  10.199
   18SAPC    HB 2295   5.575   2.750  10.306
   18SAPC    C2 2296   5.480   2.587  10.185
   18SAPC    HS 2297   5.570   2.598  10.122
   18SAPC   O21 2298   5.371   2.567  10.096
   18SAPC   C21 2299   5.352   2.651  10.001
   18SAPC   O22 2300   5.431   2.733   9.960
   18SAPC   C22 2301   5.210   2.619   9.939
   18SAPC   H2R 2302   5.200   2.509   9.937
   18SAPC   H2S 2303   5.123   2.667   9.989
   18SAPC    C3 2304   5.490   2.466  10.288
   18SAPC    HX 2305   5.403   2.474  10.356
   18SAPC    HY 2306   5.575   2.490  10.355
   18SAPC   O31 2307   5.513   2.335  10.231
   18SAPC   C31 2308   5.403   2.259  10.212
   18SAPC   O32 2309   5.293   2.302  10.238
   18SAPC   C32 2310   5.440   2.125  10.133
   18SAPC   H2X 2311   5.427   2.036  10.198
   18SAPC   H2Y 2312   5.547   2.139  10.107
   18SAPC   C23 2313   5.202   2.658   9.792
   18SAPC   H3R 2314   5.286   2.614   9.734
   18SAPC   H3S 2315   5.218   2.766   9.772
   18SAPC   C24 2316   5.069   2.619   9.724
   18SAPC   H4R 2317   4.996   2.684   9.777
   18SAPC   H4S 2318   5.042   2.516   9.757
   18SAPC   C25 2319   5.063   2.622   9.571
   18SAPC   H5R 2320   5.132   2.693   9.523
   18SAPC   C26 2321   5.005   2.530   9.490
   18SAPC   H6R 2322   5.027   2.530   9.382
   18SAPC   C27 2323   4.931   2.411   9.539
   18SAPC   H7R 2324   4.860   2.456   9.611
   18SAPC   H7S 2325   4.998   2.346   9.599
   18SAPC   C28 2326   4.864   2.319   9.442
   18SAPC   H8R 2327   4.897   2.215   9.450
   18SAPC   C29 2328   4.769   2.353   9.361
   18SAPC   H9R 2329   4.732   2.271   9.297
   18SAPC  C210 2330   4.691   2.478   9.358
   18SAPC  H10R 2331   4.653   2.500   9.255
   18SAPC  H10S 2332   4.760   2.554   9.399
   18SAPC  C211 2333   4.570   2.461   9.441
   18SAPC  H11R 2334   4.600   2.482   9.544
   18SAPC  C212 2335   4.450   2.401   9.414
   18SAPC  H12R 2336   4.372   2.417   9.490
   18SAPC  C213 2337   4.401   2.346   9.274
   18SAPC  H13R 2338   4.487   2.339   9.205
   18SAPC  H13S 2339   4.321   2.411   9.234
   18SAPC  C214 2340   4.336   2.209   9.272
   18SAPC  H14R 2341   4.303   2.165   9.367
   18SAPC  C215 2342   4.359   2.115   9.181
   18SAPC  H15R 2343   4.314   2.014   9.187
   18SAPC  C216 2344   4.440   2.127   9.050
   18SAPC  H16R 2345   4.544   2.096   9.070
   18SAPC  H16S 2346   4.430   2.222   8.992
   18SAPC  C217 2347   4.390   2.024   8.946
   18SAPC  H17R 2348   4.284   2.043   8.919
   18SAPC  H17S 2349   4.378   1.923   8.990
   18SAPC  C218 2350   4.470   2.002   8.818
   18SAPC  H18R 2351   4.579   1.982   8.831
   18SAPC  H18S 2352   4.464   2.098   8.763
   18SAPC  C219 2353   4.409   1.898   8.731
   18SAPC  H19R 2354   4.320   1.938   8.679
   18SAPC  H19S 2355   4.375   1.806   8.785
   18SAPC  C220 2356   4.490   1.853   8.608
   18SAPC  H20R 2357   4.536   1.940   8.558
   18SAPC  H20S 2358   4.422   1.800   8.538
   18SAPC  H20T 2359   4.582   1.798   8.641
   18SAPC   C33 2360   5.352   2.116  10.009
   18SAPC   H3X 2361   5.247   2.123  10.042
   18SAPC   H3Y 2362   5.362   2.014   9.966
   18SAPC   C34 2363   5.379   2.228   9.905
   18SAPC   H4X 2364   5.478   2.216   9.856
   18SAPC   H4Y 2365   5.368   2.331   9.943
   18SAPC   C35 2366   5.271   2.234   9.791
   18SAPC   H5X 2367   5.302   2.322   9.729
   18SAPC   H5Y 2368   5.175   2.256   9.842
   18SAPC   C36 2369   5.258   2.110   9.696
   18SAPC   H6X 2370   5.201   2.029   9.746
   18SAPC   H6Y 2371   5.365   2.083   9.684
   18SAPC   C37 2372   5.190   2.143   9.563
   18SAPC   H7X 2373   5.207   2.247   9.529
   18SAPC   H7Y 2374   5.081   2.130   9.584
   18SAPC   C38 2375   5.240   2.040   9.453
   18SAPC   H8X 2376   5.153   1.974   9.435
   18SAPC   H8Y 2377   5.309   1.961   9.490
   18SAPC   C39 2378   5.300   2.104   9.325
   18SAPC   H9X 2379   5.352   2.034   9.256
   18SAPC   H9Y 2380   5.374   2.181   9.356
   18SAPC  C310 2381   5.189   2.166   9.237
   18SAPC  H10X 2382   5.235   2.237   9.166
   18SAPC  H10Y 2383   5.133   2.226   9.313
   18SAPC  C311 2384   5.095   2.065   9.166
   18SAPC  H11X 2385   5.057   1.996   9.244
   18SAPC  H11Y 2386   5.138   2.016   9.076
   18SAPC  C312 2387   4.968   2.131   9.107
   18SAPC  H12X 2388   4.944   2.224   9.165
   18SAPC  H12Y 2389   4.883   2.065   9.134
   18SAPC  C313 2390   4.967   2.156   8.956
   18SAPC  H13X 2391   4.970   2.059   8.901
   18SAPC  H13Y 2392   5.065   2.199   8.927
   18SAPC  C314 2393   4.844   2.235   8.906
   18SAPC  H14X 2394   4.750   2.177   8.898
   18SAPC  H14Y 2395   4.888   2.276   8.813
   18SAPC  C315 2396   4.802   2.355   8.986
   18SAPC  H15X 2397   4.899   2.402   9.014
   18SAPC  H15Y 2398   4.742   2.332   9.076
   18SAPC  C316 2399   4.729   2.463   8.897
   18SAPC  H16X 2400   4.633   2.421   8.861
   18SAPC  H16Y 2401   4.779   2.484   8.800
   18SAPC  C317 2402   4.724   2.591   8.965
   18SAPC  H17X 2403   4.826   2.630   8.985
   18SAPC  H17Y 2404   4.675   2.572   9.062
   18SAPC  C318 2405   4.646   2.691   8.891
   18SAPC  H18X 2406   4.648   2.786   8.949
   18SAPC  H18Y 2407   4.541   2.658   8.880
   18SAPC  H18Z 2408   4.686   2.700   8.787
   19SAPC     N 2409   4.373   4.019  10.631
   19SAPC   C12 2410   4.254   4.113  10.659
   19SAPC  H12A 2411   4.266   4.187  10.581
   19SAPC  H12B 2412   4.262   4.157  10.757
   19SAPC   C13 2413   4.499   4.088  10.669
   19SAPC  H13A 2414   4.570   4.024  10.619
   19SAPC  H13B 2415   4.505   4.184  10.620
   19SAPC  H13C 2416   4.525   4.089  10.774
   19SAPC   C14 2417   4.355   3.885  10.698
   19SAPC  H14A 2418   4.338   3.904  10.803
   19SAPC  H14B 2419   4.267   3.846  10.650
   19SAPC  H14C 2420   4.430   3.808  10.693
   19SAPC   C15 2421   4.374   3.996  10.483
   19SAPC  H15A 2422   4.419   4.078  10.427
   19SAPC  H15B 2423   4.420   3.900  10.465
   19SAPC  H15C 2424   4.271   3.995  10.450
   19SAPC   C11 2425   4.113   4.054  10.651
   19SAPC  H11A 2426   4.043   4.137  10.675
   19SAPC  H11B 2427   4.104   3.975  10.728
   19SAPC     P 2428   3.953   3.938  10.481
   19SAPC   O13 2429   3.992   3.819  10.396
   19SAPC   O14 2430   3.872   3.916  10.599
   19SAPC   O12 2431   4.091   4.001  10.520
   19SAPC   O11 2432   3.878   4.042  10.390
   19SAPC    C1 2433   3.854   4.181  10.427
   19SAPC    HA 2434   3.743   4.194  10.427
   19SAPC    HB 2435   3.897   4.213  10.524
   19SAPC    C2 2436   3.920   4.274  10.320
   19SAPC    HS 2437   3.882   4.374  10.350
   19SAPC   O21 2438   3.878   4.235  10.184
   19SAPC   C21 2439   3.756   4.299  10.155
   19SAPC   O22 2440   3.699   4.379  10.227
   19SAPC   C22 2441   3.712   4.256  10.013
   19SAPC   H2R 2442   3.725   4.147  10.000
   19SAPC   H2S 2443   3.604   4.282  10.005
   19SAPC    C3 2444   4.075   4.282  10.336
   19SAPC    HX 2445   4.121   4.181  10.331
   19SAPC    HY 2446   4.108   4.319  10.435
   19SAPC   O31 2447   4.120   4.369  10.236
   19SAPC   C31 2448   4.244   4.356  10.196
   19SAPC   O32 2449   4.322   4.272  10.236
   19SAPC   C32 2450   4.278   4.451  10.080
   19SAPC   H2X 2451   4.371   4.409  10.036
   19SAPC   H2Y 2452   4.312   4.544  10.131
   19SAPC   C23 2453   3.782   4.345   9.906
   19SAPC   H3R 2454   3.891   4.323   9.917
   19SAPC   H3S 2455   3.769   4.454   9.919
   19SAPC   C24 2456   3.747   4.303   9.763
   19SAPC   H4R 2457   3.786   4.199   9.758
   19SAPC   H4S 2458   3.806   4.361   9.689
   19SAPC   C25 2459   3.603   4.314   9.721
   19SAPC   H5R 2460   3.534   4.360   9.794
   19SAPC   C26 2461   3.557   4.269   9.602
   19SAPC   H6R 2462   3.450   4.281   9.580
   19SAPC   C27 2463   3.645   4.199   9.499
   19SAPC   H7R 2464   3.670   4.094   9.526
   19SAPC   H7S 2465   3.743   4.250   9.496
   19SAPC   C28 2466   3.577   4.213   9.360
   19SAPC   H8R 2467   3.485   4.154   9.350
   19SAPC   C29 2468   3.620   4.266   9.247
   19SAPC   H9R 2469   3.558   4.242   9.160
   19SAPC  C210 2470   3.745   4.351   9.226
   19SAPC  H10R 2471   3.791   4.350   9.327
   19SAPC  H10S 2472   3.715   4.456   9.202
   19SAPC  C211 2473   3.835   4.294   9.122
   19SAPC  H11R 2474   3.873   4.192   9.140
   19SAPC  C212 2475   3.882   4.368   9.018
   19SAPC  H12R 2476   3.944   4.307   8.952
   19SAPC  C213 2477   3.851   4.512   8.979
   19SAPC  H13R 2478   3.881   4.573   9.067
   19SAPC  H13S 2479   3.740   4.523   8.971
   19SAPC  C214 2480   3.924   4.563   8.859
   19SAPC  H14R 2481   4.033   4.552   8.861
   19SAPC  C215 2482   3.872   4.628   8.755
   19SAPC  H15R 2483   3.938   4.641   8.668
   19SAPC  C216 2484   3.730   4.664   8.722
   19SAPC  H16R 2485   3.716   4.771   8.746
   19SAPC  H16S 2486   3.655   4.606   8.780
   19SAPC  C217 2487   3.690   4.654   8.569
   19SAPC  H17R 2488   3.725   4.555   8.533
   19SAPC  H17S 2489   3.755   4.731   8.521
   19SAPC  C218 2490   3.541   4.659   8.545
   19SAPC  H18R 2491   3.485   4.748   8.580
   19SAPC  H18S 2492   3.499   4.577   8.606
   19SAPC  C219 2493   3.495   4.639   8.404
   19SAPC  H19R 2494   3.405   4.576   8.402
   19SAPC  H19S 2495   3.577   4.587   8.350
   19SAPC  C220 2496   3.478   4.766   8.325
   19SAPC  H20R 2497   3.422   4.746   8.231
   19SAPC  H20S 2498   3.576   4.817   8.316
   19SAPC  H20T 2499   3.406   4.837   8.372
   19SAPC   C33 2500   4.161   4.469   9.984
   19SAPC   H3X 2501   4.078   4.510  10.045
   19SAPC   H3Y 2502   4.126   4.371   9.947
   19SAPC   C34 2503   4.189   4.568   9.861
   19SAPC   H4X 2504   4.255   4.515   9.789
   19SAPC   H4Y 2505   4.253   4.653   9.892
   19SAPC   C35 2506   4.065   4.604   9.777
   19SAPC   H5X 2507   3.992   4.673   9.825
   19SAPC   H5Y 2508   4.004   4.513   9.763
   19SAPC   C36 2509   4.112   4.667   9.645
   19SAPC   H6X 2510   4.157   4.590   9.580
   19SAPC   H6Y 2511   4.199   4.734   9.657
   19SAPC   C37 2512   3.996   4.737   9.568
   19SAPC   H7X 2513   3.952   4.816   9.632
   19SAPC   H7Y 2514   3.916   4.661   9.552
   19SAPC   C38 2515   4.042   4.787   9.435
   19SAPC   H8X 2516   4.123   4.863   9.434
   19SAPC   H8Y 2517   3.957   4.851   9.404
   19SAPC   C39 2518   4.079   4.683   9.332
   19SAPC   H9X 2519   4.000   4.605   9.324
   19SAPC   H9Y 2520   4.175   4.630   9.350
   19SAPC  C310 2521   4.074   4.750   9.194
   19SAPC  H10X 2522   3.977   4.804   9.186
   19SAPC  H10Y 2523   4.069   4.675   9.112
   19SAPC  C311 2524   4.189   4.841   9.166
   19SAPC  H11X 2525   4.281   4.785   9.194
   19SAPC  H11Y 2526   4.180   4.918   9.245
   19SAPC  C312 2527   4.191   4.880   9.020
   19SAPC  H12X 2528   4.227   4.982   8.994
   19SAPC  H12Y 2529   4.086   4.880   8.984
   19SAPC  C313 2530   4.266   4.777   8.933
   19SAPC  H13X 2531   4.232   4.672   8.946
   19SAPC  H13Y 2532   4.372   4.771   8.966
   19SAPC  C314 2533   4.272   4.823   8.786
   19SAPC  H14X 2534   4.331   4.917   8.786
   19SAPC  H14Y 2535   4.165   4.839   8.760
   19SAPC  C315 2536   4.368   4.738   8.694
   19SAPC  H15X 2537   4.342   4.630   8.699
   19SAPC  H15Y 2538   4.475   4.757   8.718
   19SAPC  C316 2539   4.364   4.782   8.542
   19SAPC  H16X 2540   4.390   4.890   8.545
   19SAPC  H16Y 2541   4.263   4.769   8.498
   19SAPC  C317 2542   4.464   4.702   8.456
   19SAPC  H17X 2543   4.563   4.738   8.494
   19SAPC  H17Y 2544   4.457   4.730   8.349
   19SAPC  C318 2545   4.446   4.551   8.468
   19SAPC  H18X 2546   4.470   4.531   8.574
   19SAPC  H18Y 2547   4.504   4.484   8.400
   19SAPC  H18Z 2548   4.338   4.531   8.455
   20SAPC     N 2549   4.616   0.838  11.092
   20SAPC   C12 2550   4.554   0.801  10.957
   20SAPC  H12A 2551   4.469   0.740  10.982
   20SAPC  H12B 2552   4.623   0.732  10.909
   20SAPC   C13 2553   4.639   0.720  11.182
   20SAPC  H13A 2554   4.671   0.749  11.282
   20SAPC  H13B 2555   4.553   0.656  11.192
   20SAPC  H13C 2556   4.711   0.653  11.139
   20SAPC   C14 2557   4.732   0.933  11.074
   20SAPC  H14A 2558   4.809   0.883  11.016
   20SAPC  H14B 2559   4.710   1.020  11.014
   20SAPC  H14C 2560   4.765   0.962  11.172
   20SAPC   C15 2561   4.513   0.908  11.174
   20SAPC  H15A 2562   4.469   0.988  11.116
   20SAPC  H15B 2563   4.433   0.844  11.208
   20SAPC  H15C 2564   4.556   0.946  11.265
   20SAPC   C11 2565   4.508   0.916  10.862
   20SAPC  H11A 2566   4.461   0.876  10.769
   20SAPC  H11B 2567   4.593   0.970  10.814
   20SAPC     P 2568   4.272   1.010  10.925
   20SAPC   O13 2569   4.232   0.874  10.931
   20SAPC   O14 2570   4.237   1.086  11.050
   20SAPC   O12 2571   4.431   1.017  10.919
   20SAPC   O11 2572   4.220   1.077  10.792
   20SAPC    C1 2573   4.310   1.142  10.705
   20SAPC    HA 2574   4.318   1.248  10.737
   20SAPC    HB 2575   4.407   1.088  10.696
   20SAPC    C2 2576   4.267   1.146  10.557
   20SAPC    HS 2577   4.336   1.211  10.499
   20SAPC   O21 2578   4.133   1.189  10.533
   20SAPC   C21 2579   4.113   1.325  10.538
   20SAPC   O22 2580   4.201   1.407  10.532
   20SAPC   C22 2581   3.968   1.359  10.546
   20SAPC   H2R 2582   3.930   1.315  10.641
   20SAPC   H2S 2583   3.962   1.470  10.554
   20SAPC    C3 2584   4.279   1.006  10.483
   20SAPC    HX 2585   4.202   0.952  10.543
   20SAPC    HY 2586   4.375   0.955  10.505
   20SAPC   O31 2587   4.264   1.014  10.340
   20SAPC   C31 2588   4.145   0.977  10.289
   20SAPC   O32 2589   4.050   0.939  10.352
   20SAPC   C32 2590   4.159   0.986  10.140
   20SAPC   H2X 2591   4.246   0.926  10.107
   20SAPC   H2Y 2592   4.178   1.091  10.109
   20SAPC   C23 2593   3.870   1.305  10.434
   20SAPC   H3R 2594   3.880   1.194  10.442
   20SAPC   H3S 2595   3.909   1.335  10.334
   20SAPC   C24 2596   3.726   1.345  10.454
   20SAPC   H4R 2597   3.702   1.340  10.562
   20SAPC   H4S 2598   3.663   1.263  10.414
   20SAPC   C25 2599   3.700   1.477  10.389
   20SAPC   H5R 2600   3.705   1.560  10.462
   20SAPC   C26 2601   3.681   1.503  10.257
   20SAPC   H6R 2602   3.660   1.607  10.228
   20SAPC   C27 2603   3.690   1.408  10.141
   20SAPC   H7R 2604   3.605   1.436  10.075
   20SAPC   H7S 2605   3.676   1.304  10.178
   20SAPC   C28 2606   3.816   1.415  10.055
   20SAPC   H8R 2607   3.906   1.435  10.115
   20SAPC   C29 2608   3.816   1.400   9.922
   20SAPC   H9R 2609   3.913   1.393   9.871
   20SAPC  C210 2610   3.699   1.356   9.841
   20SAPC  H10R 2611   3.606   1.338   9.900
   20SAPC  H10S 2612   3.725   1.253   9.809
   20SAPC  C211 2613   3.674   1.452   9.729
   20SAPC  H11R 2614   3.643   1.554   9.757
   20SAPC  C212 2615   3.693   1.433   9.598
   20SAPC  H12R 2616   3.685   1.522   9.533
   20SAPC  C213 2617   3.767   1.318   9.524
   20SAPC  H13R 2618   3.707   1.270   9.444
   20SAPC  H13S 2619   3.776   1.236   9.598
   20SAPC  C214 2620   3.903   1.371   9.484
   20SAPC  H14R 2621   3.942   1.419   9.575
   20SAPC  C215 2622   3.963   1.370   9.365
   20SAPC  H15R 2623   4.055   1.420   9.333
   20SAPC  C216 2624   3.916   1.297   9.244
   20SAPC  H16R 2625   3.860   1.204   9.271
   20SAPC  H16S 2626   4.007   1.252   9.200
   20SAPC  C217 2627   3.840   1.388   9.143
   20SAPC  H17R 2628   3.893   1.484   9.124
   20SAPC  H17S 2629   3.748   1.426   9.192
   20SAPC  C218 2630   3.806   1.322   9.015
   20SAPC  H18R 2631   3.773   1.216   9.019
   20SAPC  H18S 2632   3.899   1.314   8.954
   20SAPC  C219 2633   3.691   1.389   8.935
   20SAPC  H19R 2634   3.605   1.407   9.003
   20SAPC  H19S 2635   3.662   1.321   8.852
   20SAPC  C220 2636   3.727   1.527   8.879
   20SAPC  H20R 2637   3.778   1.510   8.782
   20SAPC  H20S 2638   3.813   1.575   8.931
   20SAPC  H20T 2639   3.634   1.586   8.865
   20SAPC   C33 2640   4.029   0.932  10.072
   20SAPC   H3X 2641   3.939   0.993  10.096
   20SAPC   H3Y 2642   4.009   0.828  10.102
   20SAPC   C34 2643   4.044   0.942   9.928
   20SAPC   H4X 2644   3.959   0.888   9.882
   20SAPC   H4Y 2645   4.132   0.883   9.896
   20SAPC   C35 2646   4.053   1.082   9.872
   20SAPC   H5X 2647   4.148   1.133   9.901
   20SAPC   H5Y 2648   3.973   1.139   9.924
   20SAPC   C36 2649   4.032   1.117   9.725
   20SAPC   H6X 2650   4.055   1.223   9.702
   20SAPC   H6Y 2651   3.927   1.085   9.704
   20SAPC   C37 2652   4.124   1.043   9.629
   20SAPC   H7X 2653   4.076   1.063   9.531
   20SAPC   H7Y 2654   4.107   0.935   9.652
   20SAPC   C38 2655   4.274   1.088   9.636
   20SAPC   H8X 2656   4.319   1.032   9.721
   20SAPC   H8Y 2657   4.294   1.197   9.647
   20SAPC   C39 2658   4.340   1.043   9.501
   20SAPC   H9X 2659   4.294   0.947   9.469
   20SAPC   H9Y 2660   4.448   1.021   9.516
   20SAPC  C310 2661   4.316   1.140   9.380
   20SAPC  H10X 2662   4.377   1.231   9.399
   20SAPC  H10Y 2663   4.210   1.170   9.368
   20SAPC  C311 2664   4.362   1.081   9.253
   20SAPC  H11X 2665   4.314   0.982   9.243
   20SAPC  H11Y 2666   4.471   1.059   9.243
   20SAPC  C312 2667   4.332   1.173   9.134
   20SAPC  H12X 2668   4.375   1.270   9.166
   20SAPC  H12Y 2669   4.222   1.186   9.135
   20SAPC  C313 2670   4.380   1.140   8.993
   20SAPC  H13X 2671   4.491   1.137   8.986
   20SAPC  H13Y 2672   4.369   1.216   8.912
   20SAPC  C314 2673   4.319   1.012   8.922
   20SAPC  H14X 2674   4.210   1.031   8.917
   20SAPC  H14Y 2675   4.343   0.920   8.980
   20SAPC  C315 2676   4.354   0.991   8.776
   20SAPC  H15X 2677   4.462   0.968   8.773
   20SAPC  H15Y 2678   4.334   1.084   8.719
   20SAPC  C316 2679   4.288   0.872   8.710
   20SAPC  H16X 2680   4.180   0.876   8.734
   20SAPC  H16Y 2681   4.327   0.778   8.754
   20SAPC  C317 2682   4.320   0.867   8.560
   20SAPC  H17X 2683   4.424   0.903   8.548
   20SAPC  H17Y 2684   4.252   0.942   8.513
   20SAPC  C318 2685   4.316   0.732   8.488
   20SAPC  H18X 2686   4.321   0.757   8.379
   20SAPC  H18Y 2687   4.226   0.672   8.510
   20SAPC  H18Z 2688   4.399   0.666   8.519
   21SAPC     N 2689   3.659   0.338  10.797
   21SAPC   C12 2690   3.791   0.268  10.823
   21SAPC  H12A 2691   3.844   0.257  10.729
   21SAPC  H12B 2692   3.766   0.168  10.854
   21SAPC   C13 2693   3.698   0.471  10.744
   21SAPC  H13A 2694   3.773   0.516  10.807
   21SAPC  H13B 2695   3.749   0.459  10.650
   21SAPC  H13C 2696   3.622   0.546  10.731
   21SAPC   C14 2697   3.581   0.250  10.707
   21SAPC  H14A 2698   3.580   0.150  10.748
   21SAPC  H14B 2699   3.485   0.295  10.690
   21SAPC  H14C 2700   3.625   0.242  10.609
   21SAPC   C15 2701   3.584   0.349  10.920
   21SAPC  H15A 2702   3.579   0.248  10.958
   21SAPC  H15B 2703   3.633   0.410  10.994
   21SAPC  H15C 2704   3.483   0.385  10.914
   21SAPC   C11 2705   3.889   0.325  10.925
   21SAPC  H11A 2706   3.962   0.245  10.950
   21SAPC  H11B 2707   3.843   0.347  11.024
   21SAPC     P 2708   4.055   0.438  10.765
   21SAPC   O13 2709   4.034   0.560  10.690
   21SAPC   O14 2710   4.189   0.427  10.827
   21SAPC   O12 2711   3.950   0.444  10.885
   21SAPC   O11 2712   4.026   0.310  10.680
   21SAPC    C1 2713   4.132   0.267  10.587
   21SAPC    HA 2714   4.237   0.293  10.615
   21SAPC    HB 2715   4.130   0.157  10.572
   21SAPC    C2 2716   4.099   0.335  10.450
   21SAPC    HS 2717   4.050   0.432  10.471
   21SAPC   O21 2718   4.017   0.244  10.370
   21SAPC   C21 2719   3.892   0.237  10.409
   21SAPC   O22 2720   3.832   0.298  10.493
   21SAPC   C22 2721   3.839   0.121  10.324
   21SAPC   H2R 2722   3.920   0.092  10.254
   21SAPC   H2S 2723   3.820   0.046  10.405
   21SAPC    C3 2724   4.225   0.375  10.371
   21SAPC    HX 2725   4.282   0.281  10.355
   21SAPC    HY 2726   4.280   0.441  10.442
   21SAPC   O31 2727   4.203   0.446  10.247
   21SAPC   C31 2728   4.191   0.383  10.131
   21SAPC   O32 2729   4.223   0.268  10.106
   21SAPC   C32 2730   4.132   0.473  10.026
   21SAPC   H2X 2731   4.192   0.561   9.995
   21SAPC   H2Y 2732   4.037   0.514  10.065
   21SAPC   C23 2733   3.714   0.163  10.248
   21SAPC   H3R 2734   3.731   0.259  10.195
   21SAPC   H3S 2735   3.625   0.178  10.312
   21SAPC   C24 2736   3.693   0.053  10.140
   21SAPC   H4R 2737   3.689  -0.048  10.187
   21SAPC   H4S 2738   3.787   0.061  10.081
   21SAPC   C25 2739   3.567   0.069  10.060
   21SAPC   H5R 2740   3.478   0.073  10.125
   21SAPC   C26 2741   3.556   0.087   9.927
   21SAPC   H6R 2742   3.455   0.105   9.885
   21SAPC   C27 2743   3.665   0.081   9.822
   21SAPC   H7R 2744   3.619   0.045   9.727
   21SAPC   H7S 2745   3.747   0.016   9.859
   21SAPC   C28 2746   3.717   0.219   9.795
   21SAPC   H8R 2747   3.747   0.278   9.883
   21SAPC   C29 2748   3.746   0.279   9.677
   21SAPC   H9R 2749   3.776   0.385   9.674
   21SAPC  C210 2750   3.741   0.221   9.542
   21SAPC  H10R 2751   3.652   0.265   9.493
   21SAPC  H10S 2752   3.708   0.116   9.532
   21SAPC  C211 2753   3.857   0.247   9.447
   21SAPC  H11R 2754   3.942   0.182   9.471
   21SAPC  C212 2755   3.853   0.320   9.335
   21SAPC  H12R 2756   3.946   0.328   9.277
   21SAPC  C213 2757   3.739   0.408   9.281
   21SAPC  H13R 2758   3.785   0.500   9.239
   21SAPC  H13S 2759   3.678   0.441   9.368
   21SAPC  C214 2760   3.646   0.337   9.190
   21SAPC  H14R 2761   3.652   0.227   9.192
   21SAPC  C215 2762   3.556   0.403   9.108
   21SAPC  H15R 2763   3.492   0.344   9.040
   21SAPC  C216 2764   3.541   0.551   9.072
   21SAPC  H16R 2765   3.600   0.622   9.133
   21SAPC  H16S 2766   3.435   0.570   9.100
   21SAPC  C217 2767   3.568   0.585   8.928
   21SAPC  H17R 2768   3.520   0.519   8.853
   21SAPC  H17S 2769   3.679   0.576   8.925
   21SAPC  C218 2770   3.539   0.730   8.911
   21SAPC  H18R 2771   3.593   0.800   8.978
   21SAPC  H18S 2772   3.429   0.728   8.926
   21SAPC  C219 2773   3.580   0.776   8.765
   21SAPC  H19R 2774   3.515   0.718   8.695
   21SAPC  H19S 2775   3.683   0.740   8.745
   21SAPC  C220 2776   3.574   0.930   8.748
   21SAPC  H20R 2777   3.630   0.960   8.657
   21SAPC  H20S 2778   3.625   0.972   8.837
   21SAPC  H20T 2779   3.466   0.954   8.735
   21SAPC   C33 2780   4.100   0.406   9.894
   21SAPC   H3X 2781   3.990   0.398   9.883
   21SAPC   H3Y 2782   4.130   0.299   9.895
   21SAPC   C34 2783   4.160   0.465   9.765
   21SAPC   H4X 2784   4.271   0.472   9.765
   21SAPC   H4Y 2785   4.132   0.572   9.760
   21SAPC   C35 2786   4.111   0.390   9.641
   21SAPC   H5X 2787   4.009   0.422   9.611
   21SAPC   H5Y 2788   4.094   0.281   9.661
   21SAPC   C36 2789   4.209   0.404   9.526
   21SAPC   H6X 2790   4.222   0.311   9.466
   21SAPC   H6Y 2791   4.310   0.414   9.572
   21SAPC   C37 2792   4.187   0.534   9.448
   21SAPC   H7X 2793   4.203   0.618   9.519
   21SAPC   H7Y 2794   4.080   0.537   9.417
   21SAPC   C38 2795   4.280   0.564   9.330
   21SAPC   H8X 2796   4.386   0.565   9.366
   21SAPC   H8Y 2797   4.250   0.661   9.286
   21SAPC   C39 2798   4.261   0.457   9.215
   21SAPC   H9X 2799   4.155   0.447   9.187
   21SAPC   H9Y 2800   4.287   0.358   9.257
   21SAPC  C310 2801   4.350   0.459   9.088
   21SAPC  H10X 2802   4.457   0.480   9.111
   21SAPC  H10Y 2803   4.326   0.545   9.022
   21SAPC  C311 2804   4.338   0.331   8.995
   21SAPC  H11X 2805   4.331   0.235   9.050
   21SAPC  H11Y 2806   4.442   0.328   8.956
   21SAPC  C312 2807   4.242   0.345   8.872
   21SAPC  H12X 2808   4.245   0.446   8.826
   21SAPC  H12Y 2809   4.135   0.336   8.901
   21SAPC  C313 2810   4.268   0.231   8.765
   21SAPC  H13X 2811   4.377   0.239   8.740
   21SAPC  H13Y 2812   4.208   0.251   8.674
   21SAPC  C314 2813   4.218   0.095   8.809
   21SAPC  H14X 2814   4.108   0.099   8.824
   21SAPC  H14Y 2815   4.254   0.068   8.911
   21SAPC  C315 2816   4.248  -0.020   8.707
   21SAPC  H15X 2817   4.359  -0.024   8.703
   21SAPC  H15Y 2818   4.213   0.034   8.617
   21SAPC  C316 2819   4.184  -0.159   8.736
   21SAPC  H16X 2820   4.076  -0.148   8.757
   21SAPC  H16Y 2821   4.232  -0.205   8.826
   21SAPC  C317 2822   4.212  -0.260   8.623
   21SAPC  H17X 2823   4.313  -0.255   8.577
   21SAPC  H17Y 2824   4.139  -0.233   8.544
   21SAPC  C318 2825   4.196  -0.399   8.669
   21SAPC  H18X 2826   4.198  -0.481   8.593
   21SAPC  H18Y 2827   4.099  -0.429   8.715
   21SAPC  H18Z 2828   4.276  -0.438   8.735
   22SAPC     N 2829   3.135   4.827  11.123
   22SAPC   C12 2830   3.162   4.709  11.031
   22SAPC  H12A 2831   3.087   4.632  11.045
   22SAPC  H12B 2832   3.254   4.664  11.066
   22SAPC   C13 2833   3.238   4.932  11.105
   22SAPC  H13A 2834   3.321   4.882  11.058
   22SAPC  H13B 2835   3.209   5.005  11.031
   22SAPC  H13C 2836   3.263   4.981  11.198
   22SAPC   C14 2837   2.998   4.890  11.082
   22SAPC  H14A 2838   2.933   4.806  11.100
   22SAPC  H14B 2839   2.970   4.968  11.151
   22SAPC  H14C 2840   2.988   4.915  10.978
   22SAPC   C15 2841   3.124   4.782  11.267
   22SAPC  H15A 2842   3.100   4.867  11.329
   22SAPC  H15B 2843   3.031   4.728  11.281
   22SAPC  H15C 2844   3.207   4.724  11.304
   22SAPC   C11 2845   3.183   4.743  10.881
   22SAPC  H11A 2846   3.269   4.813  10.882
   22SAPC  H11B 2847   3.088   4.797  10.861
   22SAPC     P 2848   3.082   4.530  10.772
   22SAPC   O13 2849   3.120   4.388  10.782
   22SAPC   O14 2850   2.959   4.579  10.846
   22SAPC   O12 2851   3.204   4.625  10.805
   22SAPC   O11 2852   3.072   4.562  10.615
   22SAPC    C1 2853   3.028   4.687  10.565
   22SAPC    HA 2854   2.922   4.711  10.588
   22SAPC    HB 2855   3.102   4.758  10.608
   22SAPC    C2 2856   3.056   4.711  10.414
   22SAPC    HS 2857   3.038   4.819  10.396
   22SAPC   O21 2858   2.979   4.622  10.343
   22SAPC   C21 2859   2.864   4.663  10.293
   22SAPC   O22 2860   2.804   4.763  10.330
   22SAPC   C22 2861   2.805   4.558  10.202
   22SAPC   H2R 2862   2.799   4.466  10.264
   22SAPC   H2S 2863   2.699   4.586  10.183
   22SAPC    C3 2864   3.201   4.686  10.378
   22SAPC    HX 2865   3.211   4.576  10.388
   22SAPC    HY 2866   3.265   4.739  10.451
   22SAPC   O31 2867   3.240   4.729  10.247
   22SAPC   C31 2868   3.267   4.631  10.157
   22SAPC   O32 2869   3.239   4.511  10.169
   22SAPC   C32 2870   3.309   4.691  10.017
   22SAPC   H2X 2871   3.413   4.729  10.028
   22SAPC   H2Y 2872   3.239   4.776   9.998
   22SAPC   C23 2873   2.885   4.519  10.070
   22SAPC   H3R 2874   2.827   4.434  10.029
   22SAPC   H3S 2875   2.983   4.484  10.110
   22SAPC   C24 2876   2.890   4.641   9.974
   22SAPC   H4R 2877   2.969   4.627   9.897
   22SAPC   H4S 2878   2.932   4.731  10.024
   22SAPC   C25 2879   2.756   4.684   9.921
   22SAPC   H5R 2880   2.675   4.667   9.994
   22SAPC   C26 2881   2.733   4.742   9.805
   22SAPC   H6R 2882   2.632   4.777   9.779
   22SAPC   C27 2883   2.834   4.792   9.706
   22SAPC   H7R 2884   2.929   4.814   9.758
   22SAPC   H7S 2885   2.789   4.885   9.665
   22SAPC   C28 2886   2.860   4.692   9.593
   22SAPC   H8R 2887   2.917   4.604   9.628
   22SAPC   C29 2888   2.830   4.707   9.466
   22SAPC   H9R 2889   2.851   4.627   9.393
   22SAPC  C210 2890   2.768   4.833   9.409
   22SAPC  H10R 2891   2.794   4.919   9.474
   22SAPC  H10S 2892   2.656   4.830   9.408
   22SAPC  C211 2893   2.807   4.872   9.268
   22SAPC  H11R 2894   2.880   4.955   9.266
   22SAPC  C212 2895   2.769   4.808   9.153
   22SAPC  H12R 2896   2.796   4.846   9.053
   22SAPC  C213 2897   2.685   4.680   9.152
   22SAPC  H13R 2898   2.581   4.697   9.118
   22SAPC  H13S 2899   2.665   4.644   9.255
   22SAPC  C214 2900   2.753   4.574   9.062
   22SAPC  H14R 2901   2.853   4.553   9.103
   22SAPC  C215 2902   2.715   4.527   8.941
   22SAPC  H15R 2903   2.774   4.444   8.898
   22SAPC  C216 2904   2.594   4.568   8.858
   22SAPC  H16R 2905   2.544   4.659   8.897
   22SAPC  H16S 2906   2.524   4.482   8.853
   22SAPC  C217 2907   2.643   4.602   8.711
   22SAPC  H17R 2908   2.552   4.602   8.648
   22SAPC  H17S 2909   2.705   4.515   8.682
   22SAPC  C218 2910   2.695   4.741   8.714
   22SAPC  H18R 2911   2.754   4.758   8.807
   22SAPC  H18S 2912   2.611   4.813   8.717
   22SAPC  C219 2913   2.800   4.775   8.604
   22SAPC  H19R 2914   2.756   4.774   8.502
   22SAPC  H19S 2915   2.887   4.706   8.599
   22SAPC  C220 2916   2.858   4.910   8.629
   22SAPC  H20R 2917   2.951   4.899   8.689
   22SAPC  H20S 2918   2.790   4.972   8.691
   22SAPC  H20T 2919   2.887   4.946   8.528
   22SAPC   C33 2920   3.304   4.585   9.906
   22SAPC   H3X 2921   3.215   4.519   9.914
   22SAPC   H3Y 2922   3.396   4.524   9.920
   22SAPC   C34 2923   3.289   4.643   9.767
   22SAPC   H4X 2924   3.358   4.730   9.758
   22SAPC   H4Y 2925   3.186   4.687   9.768
   22SAPC   C35 2926   3.318   4.546   9.651
   22SAPC   H5X 2927   3.264   4.453   9.678
   22SAPC   H5Y 2928   3.427   4.522   9.650
   22SAPC   C36 2929   3.250   4.600   9.519
   22SAPC   H6X 2930   3.300   4.699   9.506
   22SAPC   H6Y 2931   3.146   4.625   9.547
   22SAPC   C37 2932   3.267   4.506   9.396
   22SAPC   H7X 2933   3.238   4.402   9.422
   22SAPC   H7Y 2934   3.368   4.510   9.350
   22SAPC   C38 2935   3.155   4.542   9.293
   22SAPC   H8X 2936   3.154   4.650   9.269
   22SAPC   H8Y 2937   3.061   4.520   9.347
   22SAPC   C39 2938   3.160   4.464   9.166
   22SAPC   H9X 2939   3.056   4.466   9.126
   22SAPC   H9Y 2940   3.184   4.358   9.188
   22SAPC  C310 2941   3.262   4.518   9.064
   22SAPC  H10X 2942   3.364   4.501   9.104
   22SAPC  H10Y 2943   3.246   4.627   9.054
   22SAPC  C311 2944   3.255   4.452   8.925
   22SAPC  H11X 2945   3.314   4.360   8.941
   22SAPC  H11Y 2946   3.325   4.518   8.871
   22SAPC  C312 2947   3.116   4.442   8.869
   22SAPC  H12X 2948   3.072   4.544   8.879
   22SAPC  H12Y 2949   3.050   4.371   8.923
   22SAPC  C313 2950   3.124   4.400   8.718
   22SAPC  H13X 2951   3.197   4.316   8.715
   22SAPC  H13Y 2952   3.157   4.489   8.660
   22SAPC  C314 2953   2.995   4.355   8.656
   22SAPC  H14X 2954   2.912   4.428   8.661
   22SAPC  H14Y 2955   2.954   4.279   8.726
   22SAPC  C315 2956   3.006   4.273   8.524
   22SAPC  H15X 2957   3.102   4.216   8.531
   22SAPC  H15Y 2958   3.017   4.346   8.441
   22SAPC  C316 2959   2.904   4.158   8.508
   22SAPC  H16X 2960   2.929   4.072   8.573
   22SAPC  H16Y 2961   2.914   4.123   8.403
   22SAPC  C317 2962   2.764   4.203   8.530
   22SAPC  H17X 2963   2.744   4.300   8.480
   22SAPC  H17Y 2964   2.737   4.213   8.638
   22SAPC  C318 2965   2.659   4.093   8.486
   22SAPC  H18X 2966   2.648   4.089   8.375
   22SAPC  H18Y 2967   2.561   4.122   8.530
   22SAPC  H18Z 2968   2.684   3.992   8.524
   23SAPC     N 2969   4.308   6.600  10.795
   23SAPC   C12 2970   4.305   6.498  10.677
   23SAPC  H12A 2971   4.239   6.539  10.602
   23SAPC  H12B 2972   4.252   6.414  10.719
   23SAPC   C13 2973   4.170   6.650  10.817
   23SAPC  H13A 2974   4.176   6.722  10.897
   23SAPC  H13B 2975   4.143   6.705  10.728
   23SAPC  H13C 2976   4.114   6.561  10.843
   23SAPC   C14 2977   4.372   6.535  10.913
   23SAPC  H14A 2978   4.357   6.598  11.000
   23SAPC  H14B 2979   4.330   6.437  10.930
   23SAPC  H14C 2980   4.473   6.514  10.882
   23SAPC   C15 2981   4.394   6.715  10.758
   23SAPC  H15A 2982   4.492   6.672  10.744
   23SAPC  H15B 2983   4.359   6.767  10.670
   23SAPC  H15C 2984   4.403   6.782  10.842
   23SAPC   C11 2985   4.449   6.454  10.616
   23SAPC  H11A 2986   4.507   6.548  10.602
   23SAPC  H11B 2987   4.428   6.416  10.514
   23SAPC     P 2988   4.493   6.215  10.706
   23SAPC   O13 2989   4.573   6.153  10.817
   23SAPC   O14 2990   4.344   6.208  10.695
   23SAPC   O12 2991   4.521   6.363  10.697
   23SAPC   O11 2992   4.557   6.161  10.578
   23SAPC    C1 2993   4.697   6.131  10.584
   23SAPC    HA 2994   4.750   6.209  10.642
   23SAPC    HB 2995   4.726   6.029  10.619
   23SAPC    C2 2996   4.769   6.124  10.441
   23SAPC    HS 2997   4.754   6.222  10.391
   23SAPC   O21 2998   4.718   6.022  10.355
   23SAPC   C21 2999   4.606   6.047  10.292
   23SAPC   O22 3000   4.542   6.152  10.295
   23SAPC   C22 3001   4.566   5.937  10.197
   23SAPC   H2R 3002   4.653   5.898  10.140
   23SAPC   H2S 3003   4.528   5.849  10.253
   23SAPC    C3 3004   4.920   6.106  10.455
   23SAPC    HX 3005   4.937   6.006  10.498
   23SAPC    HY 3006   4.948   6.182  10.531
   23SAPC   O31 3007   4.986   6.126  10.329
   23SAPC   C31 3008   5.121   6.170  10.328
   23SAPC   O32 3009   5.167   6.224  10.425
   23SAPC   C32 3010   5.182   6.114  10.203
   23SAPC   H2X 3011   5.126   6.029  10.159
   23SAPC   H2Y 3012   5.284   6.076  10.224
   23SAPC   C23 3013   4.460   5.975  10.095
   23SAPC   H3R 3014   4.382   6.027  10.154
   23SAPC   H3S 3015   4.406   5.885  10.058
   23SAPC   C24 3016   4.519   6.056   9.981
   23SAPC   H4R 3017   4.599   5.997   9.932
   23SAPC   H4S 3018   4.564   6.148  10.024
   23SAPC   C25 3019   4.420   6.102   9.891
   23SAPC   H5R 3020   4.326   6.144   9.932
   23SAPC   C26 3021   4.414   6.076   9.755
   23SAPC   H6R 3022   4.331   6.121   9.699
   23SAPC   C27 3023   4.519   6.016   9.672
   23SAPC   H7R 3024   4.569   5.937   9.733
   23SAPC   H7S 3025   4.588   6.093   9.632
   23SAPC   C28 3026   4.445   5.944   9.555
   23SAPC   H8R 3027   4.368   5.871   9.582
   23SAPC   C29 3028   4.460   5.964   9.422
   23SAPC   H9R 3029   4.395   5.902   9.358
   23SAPC  C210 3030   4.549   6.056   9.350
   23SAPC  H10R 3031   4.587   6.001   9.261
   23SAPC  H10S 3032   4.640   6.081   9.408
   23SAPC  C211 3033   4.474   6.190   9.317
   23SAPC  H11R 3034   4.442   6.245   9.407
   23SAPC  C212 3035   4.445   6.235   9.197
   23SAPC  H12R 3036   4.390   6.329   9.185
   23SAPC  C213 3037   4.471   6.173   9.060
   23SAPC  H13R 3038   4.390   6.207   8.993
   23SAPC  H13S 3039   4.464   6.062   9.068
   23SAPC  C214 3040   4.600   6.220   9.000
   23SAPC  H14R 3041   4.678   6.219   9.078
   23SAPC  C215 3042   4.628   6.262   8.875
   23SAPC  H15R 3043   4.733   6.285   8.848
   23SAPC  C216 3044   4.534   6.253   8.756
   23SAPC  H16R 3045   4.522   6.362   8.734
   23SAPC  H16S 3046   4.435   6.206   8.775
   23SAPC  C217 3047   4.586   6.190   8.625
   23SAPC  H17R 3048   4.594   6.080   8.638
   23SAPC  H17S 3049   4.691   6.222   8.608
   23SAPC  C218 3050   4.502   6.217   8.501
   23SAPC  H18R 3051   4.519   6.323   8.471
   23SAPC  H18S 3052   4.392   6.206   8.500
   23SAPC  C219 3053   4.548   6.126   8.389
   23SAPC  H19R 3054   4.472   6.129   8.308
   23SAPC  H19S 3055   4.544   6.023   8.431
   23SAPC  C220 3056   4.691   6.168   8.328
   23SAPC  H20R 3057   4.766   6.128   8.400
   23SAPC  H20S 3058   4.697   6.277   8.313
   23SAPC  H20T 3059   4.702   6.118   8.229
   23SAPC   C33 3060   5.193   6.219  10.088
   23SAPC   H3X 3061   5.268   6.291  10.128
   23SAPC   H3Y 3062   5.090   6.257  10.075
   23SAPC   C34 3063   5.260   6.160   9.966
   23SAPC   H4X 3064   5.188   6.084   9.928
   23SAPC   H4Y 3065   5.351   6.109  10.004
   23SAPC   C35 3066   5.288   6.255   9.852
   23SAPC   H5X 3067   5.384   6.310   9.861
   23SAPC   H5Y 3068   5.205   6.327   9.835
   23SAPC   C36 3069   5.306   6.173   9.724
   23SAPC   H6X 3070   5.208   6.120   9.717
   23SAPC   H6Y 3071   5.373   6.085   9.735
   23SAPC   C37 3072   5.343   6.256   9.602
   23SAPC   H7X 3073   5.439   6.310   9.616
   23SAPC   H7Y 3074   5.277   6.344   9.587
   23SAPC   C38 3075   5.346   6.159   9.484
   23SAPC   H8X 3076   5.239   6.139   9.461
   23SAPC   H8Y 3077   5.408   6.070   9.508
   23SAPC   C39 3078   5.405   6.227   9.365
   23SAPC   H9X 3079   5.509   6.247   9.400
   23SAPC   H9Y 3080   5.363   6.324   9.331
   23SAPC  C310 3081   5.425   6.134   9.247
   23SAPC  H10X 3082   5.325   6.099   9.212
   23SAPC  H10Y 3083   5.477   6.040   9.274
   23SAPC  C311 3084   5.494   6.193   9.126
   23SAPC  H11X 3085   5.589   6.247   9.150
   23SAPC  H11Y 3086   5.423   6.266   9.083
   23SAPC  C312 3087   5.529   6.082   9.036
   23SAPC  H12X 3088   5.431   6.031   9.021
   23SAPC  H12Y 3089   5.599   6.016   9.091
   23SAPC  C313 3090   5.580   6.135   8.905
   23SAPC  H13X 3091   5.666   6.203   8.925
   23SAPC  H13Y 3092   5.491   6.173   8.851
   23SAPC  C314 3093   5.641   6.035   8.810
   23SAPC  H14X 3094   5.708   5.963   8.860
   23SAPC  H14Y 3095   5.706   6.100   8.748
   23SAPC  C315 3096   5.535   5.972   8.716
   23SAPC  H15X 3097   5.455   6.046   8.691
   23SAPC  H15Y 3098   5.473   5.897   8.770
   23SAPC  C316 3099   5.588   5.928   8.575
   23SAPC  H16X 3100   5.684   5.873   8.592
   23SAPC  H16Y 3101   5.600   6.019   8.513
   23SAPC  C317 3102   5.502   5.825   8.507
   23SAPC  H17X 3103   5.397   5.857   8.528
   23SAPC  H17Y 3104   5.514   5.726   8.556
   23SAPC  C318 3105   5.534   5.806   8.358
   23SAPC  H18X 3106   5.474   5.723   8.314
   23SAPC  H18Y 3107   5.642   5.785   8.342
   23SAPC  H18Z 3108   5.513   5.903   8.309
   24SAPC     N 3109   6.506   0.112  11.166
   24SAPC   C12 3110   6.544   0.136  11.018
   24SAPC  H12A 3111   6.463   0.184  10.965
   24SAPC  H12B 3112   6.560   0.037  10.978
   24SAPC   C13 3113   6.460   0.235  11.234
   24SAPC  H13A 3114   6.531   0.312  11.263
   24SAPC  H13B 3115   6.386   0.283  11.172
   24SAPC  H13C 3116   6.401   0.214  11.322
   24SAPC   C14 3117   6.391   0.021  11.159
   24SAPC  H14A 3118   6.313   0.060  11.095
   24SAPC  H14B 3119   6.422  -0.078  11.131
   24SAPC  H14C 3120   6.353   0.003  11.258
   24SAPC   C15 3121   6.608   0.040  11.250
   24SAPC  H15A 3122   6.620  -0.060  11.210
   24SAPC  H15B 3123   6.699   0.097  11.238
   24SAPC  H15C 3124   6.590   0.028  11.356
   24SAPC   C11 3125   6.674   0.218  10.991
   24SAPC  H11A 3126   6.647   0.316  11.036
   24SAPC  H11B 3127   6.692   0.233  10.883
   24SAPC     P 3128   6.865   0.034  10.979
   24SAPC   O13 3129   7.009   0.026  11.027
   24SAPC   O14 3130   6.777  -0.083  11.006
   24SAPC   O12 3131   6.789   0.154  11.044
   24SAPC   O11 3132   6.877   0.070  10.831
   24SAPC    C1 3133   6.787   0.013  10.735
   24SAPC    HA 3134   6.691  -0.019  10.780
   24SAPC    HB 3135   6.759   0.094  10.664
   24SAPC    C2 3136   6.839  -0.113  10.669
   24SAPC    HS 3137   6.825  -0.200  10.737
   24SAPC   O21 3138   6.976  -0.086  10.631
   24SAPC   C21 3139   7.069  -0.148  10.699
   24SAPC   O22 3140   7.049  -0.234  10.783
   24SAPC   C22 3141   7.202  -0.085  10.667
   24SAPC   H2R 3142   7.177   0.003  10.604
   24SAPC   H2S 3143   7.249  -0.042  10.758
   24SAPC    C3 3144   6.762  -0.128  10.539
   24SAPC    HX 3145   6.799  -0.047  10.473
   24SAPC    HY 3146   6.651  -0.129  10.545
   24SAPC   O31 3147   6.795  -0.262  10.486
   24SAPC   C31 3148   6.877  -0.263  10.388
   24SAPC   O32 3149   6.928  -0.164  10.335
   24SAPC   C32 3150   6.909  -0.409  10.345
   24SAPC   H2X 3151   6.829  -0.451  10.281
   24SAPC   H2Y 3152   6.904  -0.472  10.437
   24SAPC   C23 3153   7.312  -0.171  10.605
   24SAPC   H3R 3154   7.274  -0.206  10.507
   24SAPC   H3S 3155   7.335  -0.260  10.668
   24SAPC   C24 3156   7.444  -0.092  10.587
   24SAPC   H4R 3157   7.522  -0.165  10.556
   24SAPC   H4S 3158   7.474  -0.060  10.689
   24SAPC   C25 3159   7.444   0.013  10.480
   24SAPC   H5R 3160   7.422   0.109  10.528
   24SAPC   C26 3161   7.421  -0.004  10.351
   24SAPC   H6R 3162   7.422   0.084  10.285
   24SAPC   C27 3163   7.410  -0.135  10.272
   24SAPC   H7R 3164   7.343  -0.210  10.320
   24SAPC   H7S 3165   7.511  -0.181  10.265
   24SAPC   C28 3166   7.358  -0.127  10.134
   24SAPC   H8R 3167   7.251  -0.149  10.124
   24SAPC   C29 3168   7.437  -0.109  10.023
   24SAPC   H9R 3169   7.401  -0.084   9.922
   24SAPC  C210 3170   7.593  -0.099  10.018
   24SAPC  H10R 3171   7.606  -0.039  10.110
   24SAPC  H10S 3172   7.624  -0.033   9.934
   24SAPC  C211 3173   7.687  -0.213  10.017
   24SAPC  H11R 3174   7.644  -0.313  10.029
   24SAPC  C212 3175   7.821  -0.208  10.009
   24SAPC  H12R 3176   7.878  -0.302  10.007
   24SAPC  C213 3177   7.892  -0.074   9.999
   24SAPC  H13R 3178   7.833  -0.003  10.060
   24SAPC  H13S 3179   7.903  -0.031   9.898
   24SAPC  C214 3180   8.024  -0.070  10.068
   24SAPC  H14R 3181   8.112  -0.066  10.003
   24SAPC  C215 3182   8.045  -0.074  10.202
   24SAPC  H15R 3183   8.144  -0.085  10.250
   24SAPC  C216 3184   7.935  -0.082  10.302
   24SAPC  H16R 3185   7.832  -0.062  10.264
   24SAPC  H16S 3186   7.958  -0.013  10.385
   24SAPC  C217 3187   7.935  -0.216  10.377
   24SAPC  H17R 3188   8.034  -0.242  10.422
   24SAPC  H17S 3189   7.917  -0.295  10.301
   24SAPC  C218 3190   7.823  -0.234  10.483
   24SAPC  H18R 3191   7.800  -0.342  10.488
   24SAPC  H18S 3192   7.737  -0.186  10.431
   24SAPC  C219 3193   7.851  -0.181  10.625
   24SAPC  H19R 3194   7.848  -0.071  10.609
   24SAPC  H19S 3195   7.954  -0.210  10.655
   24SAPC  C220 3196   7.749  -0.216  10.737
   24SAPC  H20R 3197   7.673  -0.269  10.675
   24SAPC  H20S 3198   7.710  -0.125  10.787
   24SAPC  H20T 3199   7.789  -0.291  10.808
   24SAPC   C33 3200   7.050  -0.421  10.272
   24SAPC   H3X 3201   7.140  -0.399  10.333
   24SAPC   H3Y 3202   7.048  -0.344  10.192
   24SAPC   C34 3203   7.065  -0.554  10.203
   24SAPC   H4X 3204   6.977  -0.585  10.142
   24SAPC   H4Y 3205   7.070  -0.634  10.279
   24SAPC   C35 3206   7.181  -0.557  10.110
   24SAPC   H5X 3207   7.203  -0.661  10.077
   24SAPC   H5Y 3208   7.269  -0.520  10.166
   24SAPC   C36 3209   7.161  -0.464   9.984
   24SAPC   H6X 3210   7.124  -0.361  10.003
   24SAPC   H6Y 3211   7.097  -0.515   9.910
   24SAPC   C37 3212   7.299  -0.448   9.908
   24SAPC   H7X 3213   7.351  -0.547   9.904
   24SAPC   H7Y 3214   7.358  -0.390   9.982
   24SAPC   C38 3215   7.282  -0.369   9.776
   24SAPC   H8X 3216   7.238  -0.270   9.801
   24SAPC   H8Y 3217   7.215  -0.426   9.708
   24SAPC   C39 3218   7.421  -0.348   9.717
   24SAPC   H9X 3219   7.477  -0.442   9.734
   24SAPC   H9Y 3220   7.463  -0.265   9.778
   24SAPC  C310 3221   7.419  -0.319   9.568
   24SAPC  H10X 3222   7.361  -0.227   9.545
   24SAPC  H10Y 3223   7.369  -0.403   9.514
   24SAPC  C311 3224   7.561  -0.298   9.509
   24SAPC  H11X 3225   7.553  -0.283   9.399
   24SAPC  H11Y 3226   7.614  -0.389   9.542
   24SAPC  C312 3227   7.642  -0.178   9.565
   24SAPC  H12X 3228   7.643  -0.186   9.676
   24SAPC  H12Y 3229   7.590  -0.084   9.535
   24SAPC  C313 3230   7.789  -0.162   9.519
   24SAPC  H13X 3231   7.827  -0.084   9.588
   24SAPC  H13Y 3232   7.782  -0.117   9.417
   24SAPC  C314 3233   7.875  -0.286   9.514
   24SAPC  H14X 3234   7.976  -0.259   9.477
   24SAPC  H14Y 3235   7.827  -0.359   9.444
   24SAPC  C315 3236   7.883  -0.354   9.652
   24SAPC  H15X 3237   7.784  -0.390   9.686
   24SAPC  H15Y 3238   7.911  -0.270   9.720
   24SAPC  C316 3239   7.992  -0.464   9.665
   24SAPC  H16X 3240   8.089  -0.428   9.624
   24SAPC  H16Y 3241   7.960  -0.555   9.612
   24SAPC  C317 3242   8.024  -0.520   9.804
   24SAPC  H17X 3243   8.027  -0.437   9.877
   24SAPC  H17Y 3244   8.119  -0.577   9.808
   24SAPC  C318 3245   7.904  -0.604   9.856
   24SAPC  H18X 3246   7.919  -0.629   9.963
   24SAPC  H18Y 3247   7.904  -0.696   9.793
   24SAPC  H18Z 3248   7.801  -0.565   9.841
   25SAPC     N 3249   3.457   4.534   5.892
   25SAPC   C12 3250   3.529   4.583   6.014
   25SAPC  H12A 3251   3.507   4.523   6.100
   25SAPC  H12B 3252   3.493   4.684   6.027
   25SAPC   C13 3253   3.496   4.620   5.768
   25SAPC  H13A 3254   3.602   4.612   5.751
   25SAPC  H13B 3255   3.448   4.577   5.682
   25SAPC  H13C 3256   3.468   4.724   5.781
   25SAPC   C14 3257   3.487   4.390   5.867
   25SAPC  H14A 3258   3.594   4.378   5.857
   25SAPC  H14B 3259   3.461   4.341   5.960
   25SAPC  H14C 3260   3.422   4.352   5.790
   25SAPC   C15 3261   3.309   4.536   5.923
   25SAPC  H15A 3262   3.281   4.467   6.001
   25SAPC  H15B 3263   3.278   4.633   5.957
   25SAPC  H15C 3264   3.244   4.495   5.847
   25SAPC   C11 3265   3.686   4.590   6.002
   25SAPC  H11A 3266   3.730   4.644   6.088
   25SAPC  H11B 3267   3.707   4.656   5.915
   25SAPC     P 3268   3.751   4.352   6.095
   25SAPC   O13 3269   3.615   4.292   6.122
   25SAPC   O14 3270   3.862   4.257   6.062
   25SAPC   O12 3271   3.744   4.458   5.987
   25SAPC   O11 3272   3.778   4.440   6.225
   25SAPC    C1 3273   3.912   4.481   6.248
   25SAPC    HA 3274   3.969   4.386   6.252
   25SAPC    HB 3275   3.952   4.544   6.166
   25SAPC    C2 3276   3.937   4.549   6.389
   25SAPC    HS 3277   4.036   4.600   6.393
   25SAPC   O21 3278   3.940   4.461   6.498
   25SAPC   C21 3279   4.035   4.375   6.511
   25SAPC   O22 3280   4.135   4.360   6.441
   25SAPC   C22 3281   4.011   4.301   6.641
   25SAPC   H2R 3282   4.002   4.195   6.610
   25SAPC   H2S 3283   4.108   4.304   6.695
   25SAPC    C3 3284   3.826   4.648   6.421
   25SAPC    HX 3285   3.731   4.599   6.393
   25SAPC    HY 3286   3.837   4.734   6.351
   25SAPC   O31 3287   3.830   4.700   6.558
   25SAPC   C31 3288   3.750   4.647   6.636
   25SAPC   O32 3289   3.675   4.553   6.605
   25SAPC   C32 3290   3.753   4.708   6.775
   25SAPC   H2X 3291   3.760   4.634   6.857
   25SAPC   H2Y 3292   3.653   4.756   6.783
   25SAPC   C23 3293   3.883   4.337   6.724
   25SAPC   H3R 3294   3.794   4.308   6.665
   25SAPC   H3S 3295   3.881   4.445   6.750
   25SAPC   C24 3296   3.862   4.261   6.859
   25SAPC   H4R 3297   3.945   4.286   6.928
   25SAPC   H4S 3298   3.874   4.151   6.846
   25SAPC   C25 3299   3.724   4.281   6.924
   25SAPC   H5R 3300   3.663   4.364   6.884
   25SAPC   C26 3301   3.688   4.223   7.037
   25SAPC   H6R 3302   3.596   4.262   7.082
   25SAPC   C27 3303   3.767   4.106   7.097
   25SAPC   H7R 3304   3.851   4.065   7.037
   25SAPC   H7S 3305   3.693   4.023   7.104
   25SAPC   C28 3306   3.816   4.135   7.237
   25SAPC   H8R 3307   3.924   4.152   7.245
   25SAPC   C29 3308   3.738   4.149   7.353
   25SAPC   H9R 3309   3.784   4.188   7.445
   25SAPC  C210 3310   3.585   4.159   7.352
   25SAPC  H10R 3311   3.534   4.148   7.254
   25SAPC  H10S 3312   3.559   4.265   7.373
   25SAPC  C211 3313   3.511   4.063   7.438
   25SAPC  H11R 3314   3.564   3.968   7.459
   25SAPC  C212 3315   3.390   4.086   7.489
   25SAPC  H12R 3316   3.349   4.015   7.563
   25SAPC  C213 3317   3.309   4.213   7.485
   25SAPC  H13R 3318   3.204   4.179   7.473
   25SAPC  H13S 3319   3.345   4.266   7.394
   25SAPC  C214 3320   3.327   4.297   7.610
   25SAPC  H14R 3321   3.390   4.386   7.593
   25SAPC  C215 3322   3.268   4.271   7.729
   25SAPC  H15R 3323   3.308   4.330   7.813
   25SAPC  C216 3324   3.187   4.152   7.758
   25SAPC  H16R 3325   3.215   4.064   7.696
   25SAPC  H16S 3326   3.077   4.166   7.743
   25SAPC  C217 3327   3.206   4.086   7.897
   25SAPC  H17R 3328   3.195   4.165   7.974
   25SAPC  H17S 3329   3.305   4.037   7.900
   25SAPC  C218 3330   3.092   3.988   7.929
   25SAPC  H18R 3331   3.117   3.906   7.858
   25SAPC  H18S 3332   2.998   4.036   7.891
   25SAPC  C219 3333   3.094   3.939   8.073
   25SAPC  H19R 3334   3.195   3.902   8.100
   25SAPC  H19S 3335   3.031   3.847   8.082
   25SAPC  C220 3336   3.045   4.036   8.177
   25SAPC  H20R 3337   3.075   4.140   8.153
   25SAPC  H20S 3338   3.090   4.008   8.275
   25SAPC  H20T 3339   2.934   4.031   8.177
   25SAPC   C33 3340   3.869   4.813   6.798
   25SAPC   H3X 3341   3.853   4.895   6.725
   25SAPC   H3Y 3342   3.971   4.777   6.775
   25SAPC   C34 3343   3.867   4.874   6.937
   25SAPC   H4X 3344   3.867   4.794   7.015
   25SAPC   H4Y 3345   3.768   4.922   6.950
   25SAPC   C35 3346   3.962   4.990   6.964
   25SAPC   H5X 3347   3.948   5.065   6.883
   25SAPC   H5Y 3348   4.068   4.961   6.979
   25SAPC   C36 3349   3.927   5.067   7.096
   25SAPC   H6X 3350   3.818   5.087   7.108
   25SAPC   H6Y 3351   3.985   5.161   7.092
   25SAPC   C37 3352   3.954   4.979   7.223
   25SAPC   H7X 3353   4.056   4.935   7.230
   25SAPC   H7Y 3354   3.873   4.904   7.219
   25SAPC   C38 3355   3.922   5.068   7.343
   25SAPC   H8X 3356   3.827   5.122   7.323
   25SAPC   H8Y 3357   4.000   5.148   7.346
   25SAPC   C39 3358   3.910   4.999   7.485
   25SAPC   H9X 3359   3.811   4.948   7.482
   25SAPC   H9Y 3360   3.905   5.072   7.569
   25SAPC  C310 3361   4.023   4.907   7.523
   25SAPC  H10X 3362   4.119   4.961   7.511
   25SAPC  H10Y 3363   4.023   4.816   7.460
   25SAPC  C311 3364   4.023   4.857   7.671
   25SAPC  H11X 3365   3.949   4.774   7.676
   25SAPC  H11Y 3366   4.000   4.940   7.741
   25SAPC  C312 3367   4.164   4.812   7.714
   25SAPC  H12X 3368   4.238   4.889   7.685
   25SAPC  H12Y 3369   4.188   4.722   7.654
   25SAPC  C313 3370   4.186   4.781   7.856
   25SAPC  H13X 3371   4.162   4.867   7.921
   25SAPC  H13Y 3372   4.288   4.743   7.873
   25SAPC  C314 3373   4.086   4.672   7.908
   25SAPC  H14X 3374   4.087   4.582   7.843
   25SAPC  H14Y 3375   3.979   4.698   7.920
   25SAPC  C315 3376   4.143   4.644   8.048
   25SAPC  H15X 3377   4.172   4.745   8.082
   25SAPC  H15Y 3378   4.227   4.572   8.038
   25SAPC  C316 3379   4.042   4.589   8.140
   25SAPC  H16X 3380   4.007   4.486   8.117
   25SAPC  H16Y 3381   3.948   4.647   8.135
   25SAPC  C317 3382   4.097   4.599   8.286
   25SAPC  H17X 3383   4.130   4.704   8.300
   25SAPC  H17Y 3384   4.181   4.527   8.287
   25SAPC  C318 3385   3.998   4.566   8.394
   25SAPC  H18X 3386   4.034   4.594   8.496
   25SAPC  H18Y 3387   3.969   4.459   8.388
   25SAPC  H18Z 3388   3.900   4.616   8.379
   26SAPC     N 3389   2.826   6.482   6.468
   26SAPC   C12 3390   2.819   6.472   6.312
   26SAPC  H12A 3391   2.721   6.502   6.278
   26SAPC  H12B 3392   2.837   6.370   6.282
   26SAPC   C13 3393   2.801   6.620   6.514
   26SAPC  H13A 3394   2.705   6.664   6.492
   26SAPC  H13B 3395   2.805   6.624   6.622
   26SAPC  H13C 3396   2.879   6.678   6.466
   26SAPC   C14 3397   2.711   6.408   6.528
   26SAPC  H14A 3398   2.708   6.302   6.507
   26SAPC  H14B 3399   2.714   6.412   6.636
   26SAPC  H14C 3400   2.618   6.456   6.501
   26SAPC   C15 3401   2.954   6.427   6.521
   26SAPC  H15A 3402   2.942   6.465   6.621
   26SAPC  H15B 3403   2.951   6.319   6.509
   26SAPC  H15C 3404   3.043   6.477   6.487
   26SAPC   C11 3405   2.910   6.551   6.215
   26SAPC  H11A 3406   2.857   6.528   6.121
   26SAPC  H11B 3407   3.008   6.499   6.224
   26SAPC     P 3408   3.060   6.754   6.287
   26SAPC   O13 3409   3.153   6.703   6.183
   26SAPC   O14 3410   3.049   6.900   6.305
   26SAPC   O12 3411   2.917   6.690   6.255
   26SAPC   O11 3412   3.096   6.683   6.433
   26SAPC    C1 3413   3.221   6.605   6.446
   26SAPC    HA 3414   3.216   6.505   6.398
   26SAPC    HB 3415   3.312   6.655   6.405
   26SAPC    C2 3416   3.270   6.592   6.597
   26SAPC    HS 3417   3.380   6.576   6.600
   26SAPC   O21 3418   3.204   6.480   6.658
   26SAPC   C21 3419   3.278   6.381   6.712
   26SAPC   O22 3420   3.400   6.396   6.727
   26SAPC   C22 3421   3.195   6.264   6.751
   26SAPC   H2R 3422   3.093   6.296   6.779
   26SAPC   H2S 3423   3.191   6.202   6.659
   26SAPC    C3 3424   3.234   6.726   6.665
   26SAPC    HX 3425   3.124   6.741   6.664
   26SAPC    HY 3426   3.271   6.814   6.608
   26SAPC   O31 3427   3.274   6.737   6.802
   26SAPC   C31 3428   3.400   6.779   6.814
   26SAPC   O32 3429   3.476   6.821   6.722
   26SAPC   C32 3430   3.453   6.766   6.958
   26SAPC   H2X 3431   3.392   6.839   7.016
   26SAPC   H2Y 3432   3.562   6.790   6.965
   26SAPC   C23 3433   3.266   6.185   6.861
   26SAPC   H3R 3434   3.289   6.264   6.936
   26SAPC   H3S 3435   3.356   6.136   6.817
   26SAPC   C24 3436   3.194   6.067   6.927
   26SAPC   H4R 3437   3.263   6.009   6.992
   26SAPC   H4S 3438   3.164   5.996   6.847
   26SAPC   C25 3439   3.068   6.100   7.004
   26SAPC   H5R 3440   2.971   6.110   6.953
   26SAPC   C26 3441   3.067   6.109   7.134
   26SAPC   H6R 3442   2.971   6.119   7.188
   26SAPC   C27 3443   3.192   6.107   7.226
   26SAPC   H7R 3444   3.174   6.180   7.308
   26SAPC   H7S 3445   3.279   6.141   7.166
   26SAPC   C28 3446   3.236   5.979   7.304
   26SAPC   H8R 3447   3.215   5.880   7.261
   26SAPC   C29 3448   3.281   5.975   7.433
   26SAPC   H9R 3449   3.285   5.877   7.482
   26SAPC  C210 3450   3.293   6.090   7.533
   26SAPC  H10R 3451   3.293   6.185   7.474
   26SAPC  H10S 3452   3.392   6.094   7.583
   26SAPC  C211 3453   3.178   6.104   7.628
   26SAPC  H11R 3454   3.081   6.098   7.577
   26SAPC  C212 3455   3.180   6.140   7.753
   26SAPC  H12R 3456   3.089   6.158   7.812
   26SAPC  C213 3457   3.306   6.154   7.836
   26SAPC  H13R 3458   3.297   6.202   7.935
   26SAPC  H13S 3459   3.385   6.223   7.799
   26SAPC  C214 3460   3.391   6.024   7.857
   26SAPC  H14R 3461   3.468   6.005   7.781
   26SAPC  C215 3462   3.351   5.927   7.942
   26SAPC  H15R 3463   3.418   5.841   7.956
   26SAPC  C216 3464   3.234   5.946   8.034
   26SAPC  H16R 3465   3.141   5.912   7.985
   26SAPC  H16S 3466   3.220   6.049   8.071
   26SAPC  C217 3467   3.257   5.865   8.167
   26SAPC  H17R 3468   3.338   5.914   8.226
   26SAPC  H17S 3469   3.297   5.763   8.146
   26SAPC  C218 3470   3.133   5.844   8.245
   26SAPC  H18R 3471   3.091   5.742   8.228
   26SAPC  H18S 3472   3.057   5.912   8.202
   26SAPC  C219 3473   3.156   5.874   8.392
   26SAPC  H19R 3474   3.154   5.982   8.419
   26SAPC  H19S 3475   3.256   5.833   8.418
   26SAPC  C220 3476   3.054   5.788   8.468
   26SAPC  H20R 3477   2.952   5.803   8.426
   26SAPC  H20S 3478   3.046   5.824   8.573
   26SAPC  H20T 3479   3.083   5.682   8.453
   26SAPC   C33 3480   3.427   6.624   7.010
   26SAPC   H3X 3481   3.487   6.543   6.963
   26SAPC   H3Y 3482   3.321   6.606   6.980
   26SAPC   C34 3483   3.451   6.621   7.159
   26SAPC   H4X 3484   3.387   6.703   7.198
   26SAPC   H4Y 3485   3.557   6.650   7.174
   26SAPC   C35 3486   3.428   6.486   7.221
   26SAPC   H5X 3487   3.522   6.426   7.219
   26SAPC   H5Y 3488   3.354   6.427   7.163
   26SAPC   C36 3489   3.393   6.499   7.366
   26SAPC   H6X 3490   3.379   6.399   7.411
   26SAPC   H6Y 3491   3.291   6.541   7.375
   26SAPC   C37 3492   3.503   6.568   7.456
   26SAPC   H7X 3493   3.515   6.669   7.412
   26SAPC   H7Y 3494   3.590   6.500   7.437
   26SAPC   C38 3495   3.471   6.570   7.609
   26SAPC   H8X 3496   3.427   6.474   7.644
   26SAPC   H8Y 3497   3.384   6.636   7.632
   26SAPC   C39 3498   3.595   6.615   7.686
   26SAPC   H9X 3499   3.643   6.701   7.633
   26SAPC   H9Y 3500   3.674   6.540   7.667
   26SAPC  C310 3501   3.565   6.649   7.838
   26SAPC  H10X 3502   3.482   6.585   7.873
   26SAPC  H10Y 3503   3.529   6.754   7.833
   26SAPC  C311 3504   3.678   6.641   7.938
   26SAPC  H11X 3505   3.650   6.687   8.035
   26SAPC  H11Y 3506   3.771   6.689   7.902
   26SAPC  C312 3507   3.727   6.493   7.956
   26SAPC  H12X 3508   3.803   6.466   7.879
   26SAPC  H12Y 3509   3.636   6.429   7.957
   26SAPC  C313 3510   3.800   6.473   8.091
   26SAPC  H13X 3511   3.723   6.498   8.167
   26SAPC  H13Y 3512   3.868   6.560   8.109
   26SAPC  C314 3513   3.870   6.345   8.103
   26SAPC  H14X 3514   3.947   6.338   8.023
   26SAPC  H14Y 3515   3.791   6.271   8.079
   26SAPC  C315 3516   3.926   6.307   8.244
   26SAPC  H15X 3517   3.849   6.341   8.317
   26SAPC  H15Y 3518   4.023   6.361   8.249
   26SAPC  C316 3519   3.956   6.156   8.265
   26SAPC  H16X 3520   4.013   6.111   8.181
   26SAPC  H16Y 3521   3.863   6.095   8.269
   26SAPC  C317 3522   4.037   6.124   8.397
   26SAPC  H17X 3523   4.025   6.195   8.482
   26SAPC  H17Y 3524   4.141   6.132   8.358
   26SAPC  C318 3525   3.995   5.995   8.452
   26SAPC  H18X 3526   3.987   5.921   8.370
   26SAPC  H18Y 3527   3.901   5.988   8.511
   26SAPC  H18Z 3528   4.074   5.936   8.505
   27SAPC     N 3529   0.781   0.295   6.783
   27SAPC   C12 3530   0.783   0.154   6.837
   27SAPC  H12A 3531   0.679   0.123   6.834
   27SAPC  H12B 3532   0.814   0.159   6.940
   27SAPC   C13 3533   0.919   0.363   6.771
   27SAPC  H13A 3534   0.989   0.282   6.756
   27SAPC  H13B 3535   0.930   0.421   6.681
   27SAPC  H13C 3536   0.947   0.415   6.861
   27SAPC   C14 3537   0.720   0.300   6.645
   27SAPC  H14A 3538   0.672   0.207   6.619
   27SAPC  H14B 3539   0.646   0.378   6.634
   27SAPC  H14C 3540   0.798   0.306   6.571
   27SAPC   C15 3541   0.692   0.386   6.869
   27SAPC  H15A 3542   0.692   0.475   6.808
   27SAPC  H15B 3543   0.588   0.363   6.884
   27SAPC  H15C 3544   0.741   0.413   6.962
   27SAPC   C11 3545   0.860   0.043   6.764
   27SAPC  H11A 3546   0.819   0.035   6.661
   27SAPC  H11B 3547   0.837  -0.059   6.802
   27SAPC     P 3548   1.120   0.020   6.847
   27SAPC   O13 3549   1.229  -0.044   6.766
   27SAPC   O14 3550   1.155   0.149   6.915
   27SAPC   O12 3551   1.001   0.058   6.753
   27SAPC   O11 3552   1.074  -0.083   6.952
   27SAPC    C1 3553   1.044  -0.218   6.918
   27SAPC    HA 3554   0.954  -0.263   6.964
   27SAPC    HB 3555   1.038  -0.240   6.809
   27SAPC    C2 3556   1.154  -0.318   6.973
   27SAPC    HS 3557   1.115  -0.417   6.938
   27SAPC   O21 3558   1.161  -0.308   7.118
   27SAPC   C21 3559   1.066  -0.370   7.181
   27SAPC   O22 3560   0.967  -0.424   7.133
   27SAPC   C22 3561   1.094  -0.362   7.331
   27SAPC   H2R 3562   1.184  -0.413   7.370
   27SAPC   H2S 3563   1.104  -0.257   7.366
   27SAPC    C3 3564   1.294  -0.289   6.913
   27SAPC    HX 3565   1.323  -0.187   6.947
   27SAPC    HY 3566   1.299  -0.287   6.802
   27SAPC   O31 3567   1.394  -0.386   6.957
   27SAPC   C31 3568   1.405  -0.494   6.876
   27SAPC   O32 3569   1.332  -0.507   6.779
   27SAPC   C32 3570   1.505  -0.599   6.921
   27SAPC   H2X 3571   1.599  -0.557   6.879
   27SAPC   H2Y 3572   1.472  -0.695   6.877
   27SAPC   C23 3573   0.964  -0.421   7.409
   27SAPC   H3R 3574   0.952  -0.528   7.381
   27SAPC   H3S 3575   0.875  -0.359   7.387
   27SAPC   C24 3576   0.987  -0.422   7.564
   27SAPC   H4R 3577   0.887  -0.430   7.609
   27SAPC   H4S 3578   1.026  -0.319   7.580
   27SAPC   C25 3579   1.083  -0.529   7.612
   27SAPC   H5R 3580   1.183  -0.528   7.567
   27SAPC   C26 3581   1.054  -0.595   7.724
   27SAPC   H6R 3582   1.120  -0.672   7.767
   27SAPC   C27 3583   0.925  -0.594   7.798
   27SAPC   H7R 3584   0.903  -0.698   7.831
   27SAPC   H7S 3585   0.837  -0.587   7.730
   27SAPC   C28 3586   0.913  -0.491   7.907
   27SAPC   H8R 3587   0.892  -0.392   7.864
   27SAPC   C29 3588   0.949  -0.500   8.033
   27SAPC   H9R 3589   0.921  -0.425   8.109
   27SAPC  C210 3590   0.991  -0.626   8.096
   27SAPC  H10R 3591   1.083  -0.601   8.153
   27SAPC  H10S 3592   1.004  -0.704   8.018
   27SAPC  C211 3593   0.887  -0.668   8.198
   27SAPC  H11R 3594   0.784  -0.684   8.162
   27SAPC  C212 3595   0.903  -0.704   8.327
   27SAPC  H12R 3596   0.812  -0.719   8.387
   27SAPC  C213 3597   1.036  -0.723   8.408
   27SAPC  H13R 3598   1.057  -0.622   8.447
   27SAPC  H13S 3599   1.118  -0.746   8.336
   27SAPC  C214 3600   1.030  -0.818   8.525
   27SAPC  H14R 3601   1.089  -0.910   8.512
   27SAPC  C215 3602   0.994  -0.784   8.650
   27SAPC  H15R 3603   1.014  -0.853   8.734
   27SAPC  C216 3604   0.923  -0.660   8.687
   27SAPC  H16R 3605   0.857  -0.614   8.610
   27SAPC  H16S 3606   1.002  -0.592   8.727
   27SAPC  C217 3607   0.834  -0.681   8.803
   27SAPC  H17R 3608   0.893  -0.725   8.886
   27SAPC  H17S 3609   0.753  -0.749   8.770
   27SAPC  C218 3610   0.772  -0.555   8.856
   27SAPC  H18R 3611   0.712  -0.496   8.783
   27SAPC  H18S 3612   0.856  -0.484   8.872
   27SAPC  C219 3613   0.695  -0.559   8.989
   27SAPC  H19R 3614   0.650  -0.458   9.003
   27SAPC  H19S 3615   0.760  -0.583   9.075
   27SAPC  C220 3616   0.580  -0.658   8.997
   27SAPC  H20R 3617   0.621  -0.761   8.989
   27SAPC  H20S 3618   0.513  -0.638   8.910
   27SAPC  H20T 3619   0.526  -0.668   9.093
   27SAPC   C33 3620   1.506  -0.613   7.076
   27SAPC   H3X 3621   1.536  -0.520   7.128
   27SAPC   H3Y 3622   1.575  -0.698   7.090
   27SAPC   C34 3623   1.370  -0.663   7.132
   27SAPC   H4X 3624   1.332  -0.733   7.055
   27SAPC   H4Y 3625   1.295  -0.581   7.144
   27SAPC   C35 3626   1.388  -0.746   7.264
   27SAPC   H5X 3627   1.468  -0.822   7.253
   27SAPC   H5Y 3628   1.293  -0.802   7.279
   27SAPC   C36 3629   1.436  -0.658   7.373
   27SAPC   H6X 3630   1.383  -0.561   7.384
   27SAPC   H6Y 3631   1.543  -0.627   7.370
   27SAPC   C37 3632   1.439  -0.744   7.499
   27SAPC   H7X 3633   1.493  -0.839   7.477
   27SAPC   H7Y 3634   1.333  -0.775   7.512
   27SAPC   C38 3635   1.490  -0.669   7.620
   27SAPC   H8X 3636   1.462  -0.562   7.614
   27SAPC   H8Y 3637   1.600  -0.677   7.623
   27SAPC   C39 3638   1.439  -0.732   7.752
   27SAPC   H9X 3639   1.449  -0.840   7.731
   27SAPC   H9Y 3640   1.332  -0.706   7.771
   27SAPC  C310 3641   1.518  -0.693   7.883
   27SAPC  H10X 3642   1.629  -0.698   7.884
   27SAPC  H10Y 3643   1.476  -0.765   7.957
   27SAPC  C311 3644   1.485  -0.551   7.932
   27SAPC  H11X 3645   1.385  -0.520   7.897
   27SAPC  H11Y 3646   1.563  -0.480   7.895
   27SAPC  C312 3647   1.494  -0.532   8.080
   27SAPC  H12X 3648   1.540  -0.433   8.101
   27SAPC  H12Y 3649   1.566  -0.607   8.119
   27SAPC  C313 3650   1.360  -0.550   8.146
   27SAPC  H13X 3651   1.328  -0.655   8.162
   27SAPC  H13Y 3652   1.278  -0.498   8.093
   27SAPC  C314 3653   1.384  -0.513   8.303
   27SAPC  H14X 3654   1.295  -0.487   8.364
   27SAPC  H14Y 3655   1.447  -0.422   8.313
   27SAPC  C315 3656   1.451  -0.631   8.377
   27SAPC  H15X 3657   1.532  -0.668   8.311
   27SAPC  H15Y 3658   1.371  -0.707   8.388
   27SAPC  C316 3659   1.511  -0.593   8.515
   27SAPC  H16X 3660   1.608  -0.540   8.503
   27SAPC  H16Y 3661   1.552  -0.684   8.563
   27SAPC  C317 3662   1.408  -0.531   8.614
   27SAPC  H17X 3663   1.369  -0.441   8.562
   27SAPC  H17Y 3664   1.466  -0.485   8.698
   27SAPC  C318 3665   1.305  -0.625   8.665
   27SAPC  H18X 3666   1.352  -0.721   8.695
   27SAPC  H18Y 3667   1.236  -0.646   8.581
   27SAPC  H18Z 3668   1.239  -0.587   8.747
   28SAPC     N 3669   0.258   4.011   6.603
   28SAPC   C12 3670   0.207   3.994   6.457
   28SAPC  H12A 3671   0.287   4.021   6.390
   28SAPC  H12B 3672   0.134   4.070   6.434
   28SAPC   C13 3673   0.313   4.145   6.625
   28SAPC  H13A 3674   0.350   4.153   6.726
   28SAPC  H13B 3675   0.399   4.171   6.565
   28SAPC  H13C 3676   0.229   4.213   6.619
   28SAPC   C14 3677   0.143   3.996   6.692
   28SAPC  H14A 3678   0.172   4.009   6.795
   28SAPC  H14B 3679   0.069   4.070   6.663
   28SAPC  H14C 3680   0.092   3.901   6.687
   28SAPC   C15 3681   0.359   3.914   6.627
   28SAPC  H15A 3682   0.378   3.887   6.730
   28SAPC  H15B 3683   0.322   3.820   6.588
   28SAPC  H15C 3684   0.451   3.929   6.572
   28SAPC   C11 3685   0.144   3.857   6.410
   28SAPC  H11A 3686   0.120   3.868   6.302
   28SAPC  H11B 3687   0.046   3.834   6.458
   28SAPC     P 3688   0.212   3.623   6.342
   28SAPC   O13 3689   0.080   3.567   6.362
   28SAPC   O14 3690   0.250   3.654   6.202
   28SAPC   O12 3691   0.231   3.751   6.430
   28SAPC   O11 3692   0.318   3.524   6.391
   28SAPC    C1 3693   0.433   3.562   6.466
   28SAPC    HA 3694   0.527   3.532   6.414
   28SAPC    HB 3695   0.448   3.672   6.463
   28SAPC    C2 3696   0.428   3.500   6.601
   28SAPC    HS 3697   0.405   3.391   6.590
   28SAPC   O21 3698   0.330   3.573   6.676
   28SAPC   C21 3699   0.213   3.512   6.682
   28SAPC   O22 3700   0.188   3.400   6.653
   28SAPC   C22 3701   0.097   3.606   6.732
   28SAPC   H2R 3702   0.123   3.713   6.716
   28SAPC   H2S 3703   0.007   3.594   6.667
   28SAPC    C3 3704   0.567   3.509   6.675
   28SAPC    HX 3705   0.589   3.618   6.679
   28SAPC    HY 3706   0.646   3.473   6.606
   28SAPC   O31 3707   0.572   3.449   6.808
   28SAPC   C31 3708   0.596   3.321   6.804
   28SAPC   O32 3709   0.615   3.258   6.698
   28SAPC   C32 3710   0.591   3.267   6.943
   28SAPC   H2X 3711   0.648   3.329   7.016
   28SAPC   H2Y 3712   0.645   3.170   6.951
   28SAPC   C23 3713   0.071   3.587   6.885
   28SAPC   H3R 3714   0.149   3.642   6.942
   28SAPC   H3S 3715   0.065   3.478   6.907
   28SAPC   C24 3716  -0.072   3.641   6.920
   28SAPC   H4R 3717  -0.098   3.732   6.861
   28SAPC   H4S 3718  -0.138   3.566   6.872
   28SAPC   C25 3719  -0.109   3.677   7.060
   28SAPC   H5R 3720  -0.073   3.776   7.094
   28SAPC   C26 3721  -0.167   3.599   7.158
   28SAPC   H6R 3722  -0.179   3.624   7.265
   28SAPC   C27 3723  -0.237   3.465   7.139
   28SAPC   H7R 3724  -0.219   3.405   7.231
   28SAPC   H7S 3725  -0.183   3.407   7.061
   28SAPC   C28 3726  -0.378   3.479   7.103
   28SAPC   H8R 3727  -0.402   3.506   6.999
   28SAPC   C29 3728  -0.489   3.460   7.180
   28SAPC   H9R 3729  -0.586   3.482   7.133
   28SAPC  C210 3730  -0.498   3.448   7.327
   28SAPC  H10R 3731  -0.399   3.478   7.369
   28SAPC  H10S 3732  -0.508   3.338   7.337
   28SAPC  C211 3733  -0.615   3.529   7.382
   28SAPC  H11R 3734  -0.615   3.636   7.358
   28SAPC  C212 3735  -0.693   3.498   7.484
   28SAPC  H12R 3736  -0.790   3.548   7.495
   28SAPC  C213 3737  -0.688   3.375   7.572
   28SAPC  H13R 3738  -0.645   3.291   7.512
   28SAPC  H13S 3739  -0.792   3.343   7.592
   28SAPC  C214 3740  -0.606   3.384   7.694
   28SAPC  H14R 3741  -0.500   3.360   7.681
   28SAPC  C215 3742  -0.657   3.405   7.820
   28SAPC  H15R 3743  -0.587   3.430   7.901
   28SAPC  C216 3744  -0.795   3.420   7.876
   28SAPC  H16R 3745  -0.884   3.404   7.811
   28SAPC  H16S 3746  -0.798   3.525   7.913
   28SAPC  C217 3747  -0.800   3.321   7.993
   28SAPC  H17R 3748  -0.714   3.337   8.061
   28SAPC  H17S 3749  -0.791   3.217   7.953
   28SAPC  C218 3750  -0.927   3.329   8.074
   28SAPC  H18R 3751  -1.012   3.329   8.003
   28SAPC  H18S 3752  -0.939   3.429   8.121
   28SAPC  C219 3753  -0.933   3.225   8.183
   28SAPC  H19R 3754  -0.899   3.128   8.138
   28SAPC  H19S 3755  -1.040   3.209   8.205
   28SAPC  C220 3756  -0.853   3.255   8.307
   28SAPC  H20R 3757  -0.745   3.271   8.284
   28SAPC  H20S 3758  -0.854   3.168   8.376
   28SAPC  H20T 3759  -0.880   3.351   8.357
   28SAPC   C33 3760   0.444   3.234   6.990
   28SAPC   H3X 3761   0.445   3.133   7.036
   28SAPC   H3Y 3762   0.371   3.211   6.909
   28SAPC   C34 3763   0.381   3.341   7.091
   28SAPC   H4X 3764   0.340   3.437   7.052
   28SAPC   H4Y 3765   0.464   3.368   7.160
   28SAPC   C35 3766   0.263   3.274   7.168
   28SAPC   H5X 3767   0.281   3.179   7.223
   28SAPC   H5Y 3768   0.182   3.266   7.092
   28SAPC   C36 3769   0.223   3.370   7.284
   28SAPC   H6X 3770   0.221   3.477   7.254
   28SAPC   H6Y 3771   0.300   3.360   7.364
   28SAPC   C37 3772   0.089   3.321   7.339
   28SAPC   H7X 3773   0.068   3.214   7.320
   28SAPC   H7Y 3774   0.002   3.376   7.295
   28SAPC   C38 3775   0.069   3.349   7.487
   28SAPC   H8X 3776   0.099   3.450   7.523
   28SAPC   H8Y 3777   0.143   3.284   7.538
   28SAPC   C39 3778  -0.073   3.317   7.537
   28SAPC   H9X 3779  -0.101   3.214   7.507
   28SAPC   H9Y 3780  -0.155   3.386   7.505
   28SAPC  C310 3781  -0.064   3.327   7.688
   28SAPC  H10X 3782  -0.020   3.426   7.712
   28SAPC  H10Y 3783   0.005   3.250   7.730
   28SAPC  C311 3784  -0.195   3.295   7.769
   28SAPC  H11X 3785  -0.250   3.210   7.723
   28SAPC  H11Y 3786  -0.265   3.382   7.765
   28SAPC  C312 3787  -0.161   3.263   7.916
   28SAPC  H12X 3788  -0.109   3.356   7.951
   28SAPC  H12Y 3789  -0.072   3.196   7.918
   28SAPC  C313 3790  -0.269   3.226   8.012
   28SAPC  H13X 3791  -0.309   3.126   7.986
   28SAPC  H13Y 3792  -0.343   3.307   7.991
   28SAPC  C314 3793  -0.222   3.227   8.150
   28SAPC  H14X 3794  -0.183   3.324   8.188
   28SAPC  H14Y 3795  -0.134   3.160   8.162
   28SAPC  C315 3796  -0.325   3.182   8.257
   28SAPC  H15X 3797  -0.356   3.082   8.219
   28SAPC  H15Y 3798  -0.409   3.255   8.256
   28SAPC  C316 3799  -0.277   3.160   8.394
   28SAPC  H16X 3800  -0.228   3.255   8.424
   28SAPC  H16Y 3801  -0.197   3.083   8.391
   28SAPC  C317 3802  -0.393   3.131   8.497
   28SAPC  H17X 3803  -0.354   3.116   8.600
   28SAPC  H17Y 3804  -0.440   3.032   8.474
   28SAPC  C318 3805  -0.490   3.244   8.519
   28SAPC  H18X 3806  -0.433   3.340   8.520
   28SAPC  H18Y 3807  -0.539   3.237   8.619
   28SAPC  H18Z 3808  -0.552   3.252   8.428
   29SAPC     N 3809   2.363   0.398   6.282
   29SAPC   C12 3810   2.411   0.514   6.195
   29SAPC  H12A 3811   2.338   0.593   6.194
   29SAPC  H12B 3812   2.399   0.484   6.091
   29SAPC   C13 3813   2.352   0.446   6.424
   29SAPC  H13A 3814   2.447   0.490   6.451
   29SAPC  H13B 3815   2.270   0.513   6.443
   29SAPC  H13C 3816   2.329   0.369   6.496
   29SAPC   C14 3817   2.229   0.351   6.246
   29SAPC  H14A 3818   2.220   0.286   6.161
   29SAPC  H14B 3819   2.195   0.296   6.332
   29SAPC  H14C 3820   2.160   0.431   6.227
   29SAPC   C15 3821   2.458   0.290   6.292
   29SAPC  H15A 3822   2.488   0.257   6.193
   29SAPC  H15B 3823   2.547   0.330   6.339
   29SAPC  H15C 3824   2.427   0.214   6.362
   29SAPC   C11 3825   2.541   0.589   6.224
   29SAPC  H11A 3826   2.520   0.644   6.318
   29SAPC  H11B 3827   2.559   0.667   6.147
   29SAPC     P 3828   2.775   0.531   6.329
   29SAPC   O13 3829   2.870   0.412   6.331
   29SAPC   O14 3830   2.841   0.657   6.302
   29SAPC   O12 3831   2.658   0.507   6.230
   29SAPC   O11 3832   2.711   0.542   6.471
   29SAPC    C1 3833   2.779   0.594   6.586
   29SAPC    HA 3834   2.878   0.638   6.560
   29SAPC    HB 3835   2.708   0.673   6.618
   29SAPC    C2 3836   2.787   0.499   6.711
   29SAPC    HS 3837   2.839   0.556   6.790
   29SAPC   O21 3838   2.850   0.369   6.681
   29SAPC   C21 3839   2.977   0.380   6.671
   29SAPC   O22 3840   3.047   0.480   6.675
   29SAPC   C22 3841   3.027   0.225   6.662
   29SAPC   H2R 3842   2.984   0.191   6.566
   29SAPC   H2S 3843   3.138   0.218   6.669
   29SAPC    C3 3844   2.638   0.469   6.775
   29SAPC    HX 3845   2.558   0.436   6.705
   29SAPC    HY 3846   2.607   0.574   6.798
   29SAPC   O31 3847   2.646   0.392   6.890
   29SAPC   C31 3848   2.601   0.267   6.883
   29SAPC   O32 3849   2.568   0.217   6.776
   29SAPC   C32 3850   2.628   0.188   7.010
   29SAPC   H2X 3851   2.734   0.191   7.043
   29SAPC   H2Y 3852   2.600   0.084   6.983
   29SAPC   C23 3853   2.959   0.138   6.779
   29SAPC   H3R 3854   2.974   0.033   6.747
   29SAPC   H3S 3855   2.848   0.149   6.783
   29SAPC   C24 3856   3.031   0.159   6.915
   29SAPC   H4R 3857   3.140   0.141   6.909
   29SAPC   H4S 3858   2.998   0.072   6.976
   29SAPC   C25 3859   2.984   0.285   6.989
   29SAPC   H5R 3860   2.928   0.364   6.937
   29SAPC   C26 3861   3.020   0.311   7.113
   29SAPC   H6R 3862   2.993   0.410   7.154
   29SAPC   C27 3863   3.100   0.230   7.200
   29SAPC   H7R 3864   3.207   0.246   7.173
   29SAPC   H7S 3865   3.087   0.126   7.165
   29SAPC   C28 3866   3.075   0.229   7.346
   29SAPC   H8R 3867   2.975   0.254   7.383
   29SAPC   C29 3868   3.164   0.197   7.441
   29SAPC   H9R 3869   3.131   0.199   7.546
   29SAPC  C210 3870   3.307   0.155   7.422
   29SAPC  H10R 3871   3.374   0.229   7.373
   29SAPC  H10S 3872   3.311   0.072   7.349
   29SAPC  C211 3873   3.374   0.099   7.540
   29SAPC  H11R 3874   3.419   0.001   7.515
   29SAPC  C212 3875   3.403   0.165   7.649
   29SAPC  H12R 3876   3.450   0.106   7.729
   29SAPC  C213 3877   3.363   0.313   7.670
   29SAPC  H13R 3878   3.271   0.322   7.732
   29SAPC  H13S 3879   3.332   0.359   7.574
   29SAPC  C214 3880   3.490   0.381   7.717
   29SAPC  H14R 3881   3.549   0.426   7.635
   29SAPC  C215 3882   3.524   0.388   7.848
   29SAPC  H15R 3883   3.613   0.447   7.873
   29SAPC  C216 3884   3.453   0.332   7.967
   29SAPC  H16R 3885   3.350   0.298   7.942
   29SAPC  H16S 3886   3.439   0.410   8.045
   29SAPC  C217 3887   3.517   0.201   8.028
   29SAPC  H17R 3888   3.627   0.211   8.045
   29SAPC  H17S 3889   3.510   0.121   7.952
   29SAPC  C218 3890   3.449   0.170   8.163
   29SAPC  H18R 3891   3.339   0.162   8.144
   29SAPC  H18S 3892   3.468   0.252   8.235
   29SAPC  C219 3893   3.482   0.024   8.210
   29SAPC  H19R 3894   3.593   0.015   8.213
   29SAPC  H19S 3895   3.442  -0.053   8.141
   29SAPC  C220 3896   3.429   0.000   8.351
   29SAPC  H20R 3897   3.468   0.064   8.434
   29SAPC  H20S 3898   3.450  -0.105   8.380
   29SAPC  H20T 3899   3.319   0.011   8.351
   29SAPC   C33 3900   2.546   0.232   7.137
   29SAPC   H3X 3901   2.439   0.203   7.133
   29SAPC   H3Y 3902   2.552   0.341   7.160
   29SAPC   C34 3903   2.585   0.157   7.266
   29SAPC   H4X 3904   2.691   0.125   7.272
   29SAPC   H4Y 3905   2.525   0.063   7.266
   29SAPC   C35 3906   2.548   0.227   7.401
   29SAPC   H5X 3907   2.440   0.252   7.399
   29SAPC   H5Y 3908   2.603   0.324   7.406
   29SAPC   C36 3909   2.586   0.151   7.530
   29SAPC   H6X 3910   2.695   0.143   7.549
   29SAPC   H6Y 3911   2.537   0.051   7.522
   29SAPC   C37 3912   2.525   0.218   7.659
   29SAPC   H7X 3913   2.423   0.255   7.637
   29SAPC   H7Y 3914   2.580   0.315   7.666
   29SAPC   C38 3915   2.551   0.131   7.779
   29SAPC   H8X 3916   2.660   0.112   7.787
   29SAPC   H8Y 3917   2.501   0.033   7.764
   29SAPC   C39 3918   2.495   0.201   7.905
   29SAPC   H9X 3919   2.385   0.195   7.889
   29SAPC   H9Y 3920   2.529   0.307   7.907
   29SAPC  C310 3921   2.537   0.123   8.032
   29SAPC  H10X 3922   2.628   0.176   8.069
   29SAPC  H10Y 3923   2.579   0.024   8.003
   29SAPC  C311 3924   2.434   0.125   8.141
   29SAPC  H11X 3925   2.350   0.056   8.119
   29SAPC  H11Y 3926   2.389   0.227   8.137
   29SAPC  C312 3927   2.493   0.097   8.279
   29SAPC  H12X 3928   2.542   0.193   8.307
   29SAPC  H12Y 3929   2.560   0.010   8.264
   29SAPC  C313 3930   2.396   0.064   8.396
   29SAPC  H13X 3931   2.349  -0.033   8.368
   29SAPC  H13Y 3932   2.314   0.138   8.400
   29SAPC  C314 3933   2.440   0.048   8.541
   29SAPC  H14X 3934   2.462   0.149   8.581
   29SAPC  H14Y 3935   2.535  -0.010   8.548
   29SAPC  C315 3936   2.329  -0.014   8.634
   29SAPC  H15X 3937   2.375  -0.041   8.731
   29SAPC  H15Y 3938   2.291  -0.107   8.588
   29SAPC  C316 3939   2.209   0.070   8.673
   29SAPC  H16X 3940   2.163   0.109   8.579
   29SAPC  H16Y 3941   2.249   0.150   8.738
   29SAPC  C317 3942   2.104   0.006   8.765
   29SAPC  H17X 3943   2.156  -0.052   8.845
   29SAPC  H17Y 3944   2.063  -0.078   8.704
   29SAPC  C318 3945   2.001   0.103   8.822
   29SAPC  H18X 3946   2.042   0.181   8.889
   29SAPC  H18Y 3947   1.918   0.040   8.861
   29SAPC  H18Z 3948   1.950   0.150   8.735
   30SAPC     N 3949   3.737   0.295   6.026
   30SAPC   C12 3950   3.828   0.317   6.153
   30SAPC  H12A 3951   3.871   0.227   6.193
   30SAPC  H12B 3952   3.771   0.350   6.239
   30SAPC   C13 3953   3.631   0.187   6.062
   30SAPC  H13A 3954   3.570   0.151   5.981
   30SAPC  H13B 3955   3.677   0.102   6.111
   30SAPC  H13C 3956   3.575   0.228   6.145
   30SAPC   C14 3957   3.659   0.418   5.980
   30SAPC  H14A 3958   3.593   0.440   6.063
   30SAPC  H14B 3959   3.725   0.500   5.955
   30SAPC  H14C 3960   3.612   0.391   5.886
   30SAPC   C15 3961   3.811   0.233   5.916
   30SAPC  H15A 3962   3.832   0.131   5.945
   30SAPC  H15B 3963   3.760   0.237   5.821
   30SAPC  H15C 3964   3.906   0.286   5.918
   30SAPC   C11 3965   3.955   0.412   6.142
   30SAPC  H11A 3966   4.000   0.440   6.239
   30SAPC  H11B 3967   3.917   0.508   6.101
   30SAPC     P 3968   4.132   0.239   6.082
   30SAPC   O13 3969   4.041   0.123   6.084
   30SAPC   O14 3970   4.248   0.234   5.992
   30SAPC   O12 3971   4.043   0.370   6.037
   30SAPC   O11 3972   4.183   0.274   6.227
   30SAPC    C1 3973   4.315   0.335   6.232
   30SAPC    HA 3974   4.403   0.269   6.214
   30SAPC    HB 3975   4.319   0.421   6.163
   30SAPC    C2 3976   4.331   0.396   6.377
   30SAPC    HS 3977   4.439   0.407   6.396
   30SAPC   O21 3978   4.274   0.317   6.479
   30SAPC   C21 3979   4.315   0.193   6.499
   30SAPC   O22 3980   4.411   0.136   6.444
   30SAPC   C22 3981   4.221   0.132   6.599
   30SAPC   H2R 3982   4.164   0.204   6.661
   30SAPC   H2S 3983   4.146   0.079   6.537
   30SAPC    C3 3984   4.266   0.534   6.384
   30SAPC    HX 3985   4.163   0.514   6.348
   30SAPC    HY 3986   4.329   0.590   6.312
   30SAPC   O31 3987   4.262   0.586   6.520
   30SAPC   C31 3988   4.242   0.718   6.522
   30SAPC   O32 3989   4.232   0.790   6.424
   30SAPC   C32 3990   4.228   0.768   6.663
   30SAPC   H2X 3991   4.123   0.756   6.697
   30SAPC   H2Y 3992   4.256   0.875   6.661
   30SAPC   C23 3993   4.284   0.033   6.699
   30SAPC   H3R 3994   4.338  -0.049   6.647
   30SAPC   H3S 3995   4.202  -0.018   6.753
   30SAPC   C24 3996   4.387   0.093   6.795
   30SAPC   H4R 3997   4.469   0.124   6.728
   30SAPC   H4S 3998   4.427   0.006   6.852
   30SAPC   C25 3999   4.337   0.210   6.868
   30SAPC   H5R 4000   4.279   0.288   6.817
   30SAPC   C26 4001   4.357   0.225   7.001
   30SAPC   H6R 4002   4.315   0.319   7.040
   30SAPC   C27 4003   4.411   0.128   7.108
   30SAPC   H7R 4004   4.402   0.028   7.061
   30SAPC   H7S 4005   4.351   0.118   7.201
   30SAPC   C28 4006   4.554   0.157   7.133
   30SAPC   H8R 4007   4.616   0.168   7.043
   30SAPC   C29 4008   4.607   0.189   7.255
   30SAPC   H9R 4009   4.717   0.194   7.259
   30SAPC  C210 4010   4.545   0.175   7.397
   30SAPC  H10R 4011   4.437   0.199   7.407
   30SAPC  H10S 4012   4.603   0.245   7.461
   30SAPC  C211 4013   4.553   0.037   7.462
   30SAPC  H11R 4014   4.580  -0.052   7.403
   30SAPC  C212 4015   4.544   0.023   7.596
   30SAPC  H12R 4016   4.542  -0.079   7.635
   30SAPC  C213 4017   4.528   0.135   7.693
   30SAPC  H13R 4018   4.483   0.228   7.651
   30SAPC  H13S 4019   4.634   0.152   7.720
   30SAPC  C214 4020   4.449   0.102   7.820
   30SAPC  H14R 4021   4.349   0.146   7.836
   30SAPC  C215 4022   4.486   0.015   7.916
   30SAPC  H15R 4023   4.425   0.007   8.007
   30SAPC  C216 4024   4.607  -0.073   7.913
   30SAPC  H16R 4025   4.681  -0.031   7.841
   30SAPC  H16S 4026   4.588  -0.173   7.867
   30SAPC  C217 4027   4.666  -0.103   8.054
   30SAPC  H17R 4028   4.612  -0.183   8.108
   30SAPC  H17S 4029   4.660  -0.007   8.110
   30SAPC  C218 4030   4.815  -0.143   8.044
   30SAPC  H18R 4031   4.862  -0.079   7.966
   30SAPC  H18S 4032   4.832  -0.247   8.008
   30SAPC  C219 4033   4.892  -0.122   8.181
   30SAPC  H19R 4034   4.822  -0.147   8.263
   30SAPC  H19S 4035   4.909  -0.013   8.199
   30SAPC  C220 4036   5.021  -0.197   8.189
   30SAPC  H20R 4037   5.081  -0.176   8.280
   30SAPC  H20S 4038   5.077  -0.165   8.098
   30SAPC  H20T 4039   5.005  -0.306   8.180
   30SAPC   C33 4040   4.326   0.698   6.758
   30SAPC   H3X 4041   4.430   0.714   6.725
   30SAPC   H3Y 4042   4.299   0.590   6.764
   30SAPC   C34 4043   4.316   0.761   6.897
   30SAPC   H4X 4044   4.214   0.792   6.928
   30SAPC   H4Y 4045   4.375   0.853   6.879
   30SAPC   C35 4046   4.391   0.671   6.998
   30SAPC   H5X 4047   4.499   0.670   6.972
   30SAPC   H5Y 4048   4.341   0.572   6.991
   30SAPC   C36 4049   4.396   0.724   7.142
   30SAPC   H6X 4050   4.292   0.752   7.169
   30SAPC   H6Y 4051   4.458   0.816   7.144
   30SAPC   C37 4052   4.456   0.628   7.240
   30SAPC   H7X 4053   4.565   0.622   7.217
   30SAPC   H7Y 4054   4.416   0.527   7.219
   30SAPC   C38 4055   4.420   0.659   7.387
   30SAPC   H8X 4056   4.316   0.696   7.377
   30SAPC   H8Y 4057   4.475   0.741   7.437
   30SAPC   C39 4058   4.416   0.526   7.466
   30SAPC   H9X 4059   4.521   0.492   7.469
   30SAPC   H9Y 4060   4.357   0.445   7.417
   30SAPC  C310 4061   4.349   0.526   7.603
   30SAPC  H10X 4062   4.349   0.421   7.641
   30SAPC  H10Y 4063   4.241   0.552   7.602
   30SAPC  C311 4064   4.414   0.623   7.708
   30SAPC  H11X 4065   4.386   0.730   7.699
   30SAPC  H11Y 4066   4.524   0.615   7.703
   30SAPC  C312 4067   4.380   0.572   7.851
   30SAPC  H12X 4068   4.433   0.478   7.877
   30SAPC  H12Y 4069   4.270   0.561   7.848
   30SAPC  C313 4070   4.414   0.678   7.964
   30SAPC  H13X 4071   4.404   0.778   7.916
   30SAPC  H13Y 4072   4.514   0.669   8.012
   30SAPC  C314 4073   4.312   0.665   8.079
   30SAPC  H14X 4074   4.226   0.701   8.019
   30SAPC  H14Y 4075   4.342   0.735   8.160
   30SAPC  C315 4076   4.286   0.531   8.143
   30SAPC  H15X 4077   4.226   0.467   8.074
   30SAPC  H15Y 4078   4.217   0.539   8.230
   30SAPC  C316 4079   4.407   0.453   8.200
   30SAPC  H16X 4080   4.482   0.522   8.245
   30SAPC  H16Y 4081   4.442   0.395   8.112
   30SAPC  C317 4082   4.368   0.346   8.298
   30SAPC  H17X 4083   4.282   0.291   8.255
   30SAPC  H17Y 4084   4.337   0.403   8.388
   30SAPC  C318 4085   4.487   0.256   8.335
   30SAPC  H18X 4086   4.474   0.177   8.412
   30SAPC  H18Y 4087   4.575   0.317   8.367
   30SAPC  H18Z 4088   4.534   0.213   8.245
   31SAPC     N 4089   4.847   1.331   6.112
   31SAPC   C12 4090   4.811   1.331   6.262
   31SAPC  H12A 4091   4.782   1.232   6.293
   31SAPC  H12B 4092   4.722   1.393   6.271
   31SAPC   C13 4093   4.970   1.249   6.086
   31SAPC  H13A 4094   5.058   1.304   6.115
   31SAPC  H13B 4095   4.964   1.149   6.125
   31SAPC  H13C 4096   4.977   1.235   5.979
   31SAPC   C14 4097   4.736   1.255   6.039
   31SAPC  H14A 4098   4.762   1.244   5.935
   31SAPC  H14B 4099   4.713   1.157   6.079
   31SAPC  H14C 4100   4.642   1.306   6.051
   31SAPC   C15 4101   4.862   1.463   6.056
   31SAPC  H15A 4102   4.769   1.517   6.067
   31SAPC  H15B 4103   4.949   1.507   6.102
   31SAPC  H15C 4104   4.889   1.450   5.952
   31SAPC   C11 4105   4.915   1.383   6.366
   31SAPC  H11A 4106   4.870   1.366   6.467
   31SAPC  H11B 4107   4.922   1.494   6.361
   31SAPC     P 4108   5.100   1.196   6.406
   31SAPC   O13 4109   4.975   1.113   6.420
   31SAPC   O14 4110   5.211   1.149   6.318
   31SAPC   O12 4111   5.055   1.339   6.354
   31SAPC   O11 4112   5.161   1.220   6.549
   31SAPC    C1 4113   5.180   1.345   6.614
   31SAPC    HA 4114   5.113   1.426   6.579
   31SAPC    HB 4115   5.150   1.331   6.720
   31SAPC    C2 4116   5.330   1.392   6.592
   31SAPC    HS 4117   5.381   1.297   6.563
   31SAPC   O21 4118   5.385   1.436   6.716
   31SAPC   C21 4119   5.515   1.423   6.730
   31SAPC   O22 4120   5.595   1.369   6.658
   31SAPC   C22 4121   5.558   1.489   6.862
   31SAPC   H2R 4122   5.529   1.596   6.851
   31SAPC   H2S 4123   5.493   1.443   6.939
   31SAPC    C3 4124   5.342   1.508   6.493
   31SAPC    HX 4125   5.295   1.473   6.398
   31SAPC    HY 4126   5.450   1.520   6.470
   31SAPC   O31 4127   5.280   1.628   6.546
   31SAPC   C31 4128   5.364   1.727   6.572
   31SAPC   O32 4129   5.481   1.713   6.583
   31SAPC   C32 4130   5.286   1.862   6.584
   31SAPC   H2X 4131   5.212   1.856   6.501
   31SAPC   H2Y 4132   5.360   1.944   6.572
   31SAPC   C23 4133   5.706   1.464   6.888
   31SAPC   H3R 4134   5.747   1.514   6.798
   31SAPC   H3S 4135   5.728   1.356   6.885
   31SAPC   C24 4136   5.762   1.523   7.023
   31SAPC   H4R 4137   5.730   1.630   7.027
   31SAPC   H4S 4138   5.872   1.515   7.017
   31SAPC   C25 4139   5.711   1.440   7.144
   31SAPC   H5R 4140   5.764   1.344   7.159
   31SAPC   C26 4141   5.616   1.474   7.236
   31SAPC   H6R 4142   5.594   1.399   7.314
   31SAPC   C27 4143   5.531   1.606   7.247
   31SAPC   H7R 4144   5.486   1.606   7.146
   31SAPC   H7S 4145   5.599   1.693   7.243
   31SAPC   C28 4146   5.426   1.615   7.362
   31SAPC   H8R 4147   5.323   1.593   7.333
   31SAPC   C29 4148   5.448   1.606   7.498
   31SAPC   H9R 4149   5.364   1.598   7.569
   31SAPC  C210 4150   5.583   1.591   7.568
   31SAPC  H10R 4151   5.631   1.691   7.576
   31SAPC  H10S 4152   5.649   1.528   7.503
   31SAPC  C211 4153   5.564   1.531   7.708
   31SAPC  H11R 4154   5.563   1.601   7.793
   31SAPC  C212 4155   5.566   1.401   7.732
   31SAPC  H12R 4156   5.566   1.371   7.838
   31SAPC  C213 4157   5.560   1.289   7.624
   31SAPC  H13R 4158   5.659   1.238   7.620
   31SAPC  H13S 4159   5.549   1.329   7.521
   31SAPC  C214 4160   5.453   1.185   7.648
   31SAPC  H14R 4161   5.470   1.109   7.726
   31SAPC  C215 4162   5.340   1.179   7.582
   31SAPC  H15R 4163   5.275   1.092   7.599
   31SAPC  C216 4164   5.303   1.253   7.456
   31SAPC  H16R 4165   5.356   1.349   7.442
   31SAPC  H16S 4166   5.198   1.289   7.457
   31SAPC  C217 4167   5.300   1.166   7.331
   31SAPC  H17R 4168   5.256   1.067   7.357
   31SAPC  H17S 4169   5.403   1.143   7.296
   31SAPC  C218 4170   5.215   1.212   7.215
   31SAPC  H18R 4171   5.121   1.254   7.258
   31SAPC  H18S 4172   5.183   1.123   7.156
   31SAPC  C219 4173   5.279   1.318   7.123
   31SAPC  H19R 4174   5.375   1.271   7.092
   31SAPC  H19S 4175   5.313   1.409   7.178
   31SAPC  C220 4176   5.194   1.348   6.997
   31SAPC  H20R 4177   5.086   1.361   7.017
   31SAPC  H20S 4178   5.204   1.256   6.937
   31SAPC  H20T 4179   5.228   1.441   6.946
   31SAPC   C33 4180   5.210   1.860   6.717
   31SAPC   H3X 4181   5.134   1.780   6.706
   31SAPC   H3Y 4182   5.155   1.954   6.739
   31SAPC   C34 4183   5.306   1.830   6.834
   31SAPC   H4X 4184   5.394   1.894   6.811
   31SAPC   H4Y 4185   5.347   1.727   6.827
   31SAPC   C35 4186   5.246   1.855   6.968
   31SAPC   H5X 4187   5.153   1.913   6.947
   31SAPC   H5Y 4188   5.324   1.896   7.036
   31SAPC   C36 4189   5.192   1.723   7.025
   31SAPC   H6X 4190   5.274   1.648   7.020
   31SAPC   H6Y 4191   5.096   1.692   6.977
   31SAPC   C37 4192   5.144   1.755   7.165
   31SAPC   H7X 4193   5.075   1.841   7.152
   31SAPC   H7Y 4194   5.226   1.790   7.232
   31SAPC   C38 4195   5.062   1.641   7.226
   31SAPC   H8X 4196   5.123   1.549   7.215
   31SAPC   H8Y 4197   4.964   1.630   7.175
   31SAPC   C39 4198   5.038   1.667   7.375
   31SAPC   H9X 4199   4.983   1.762   7.391
   31SAPC   H9Y 4200   5.134   1.685   7.430
   31SAPC  C310 4201   4.972   1.556   7.456
   31SAPC  H10X 4202   5.037   1.467   7.442
   31SAPC  H10Y 4203   4.874   1.541   7.406
   31SAPC  C311 4204   4.942   1.599   7.598
   31SAPC  H11X 4205   4.895   1.698   7.617
   31SAPC  H11Y 4206   5.040   1.622   7.645
   31SAPC  C312 4207   4.864   1.488   7.675
   31SAPC  H12X 4208   4.929   1.399   7.664
   31SAPC  H12Y 4209   4.770   1.484   7.615
   31SAPC  C313 4210   4.832   1.533   7.812
   31SAPC  H13X 4211   4.783   1.633   7.812
   31SAPC  H13Y 4212   4.916   1.539   7.885
   31SAPC  C314 4213   4.738   1.432   7.888
   31SAPC  H14X 4214   4.782   1.331   7.872
   31SAPC  H14Y 4215   4.631   1.435   7.860
   31SAPC  C315 4216   4.737   1.473   8.039
   31SAPC  H15X 4217   4.704   1.579   8.042
   31SAPC  H15Y 4218   4.836   1.466   8.088
   31SAPC  C316 4219   4.630   1.399   8.129
   31SAPC  H16X 4220   4.645   1.289   8.116
   31SAPC  H16Y 4221   4.526   1.429   8.106
   31SAPC  C317 4222   4.637   1.439   8.277
   31SAPC  H17X 4223   4.636   1.550   8.278
   31SAPC  H17Y 4224   4.742   1.411   8.302
   31SAPC  C318 4225   4.523   1.372   8.356
   31SAPC  H18X 4226   4.528   1.379   8.467
   31SAPC  H18Y 4227   4.513   1.263   8.335
   31SAPC  H18Z 4228   4.435   1.426   8.314
   32SAPC     N 4229   0.043   1.786   6.109
   32SAPC   C12 4230   0.102   1.925   6.098
   32SAPC  H12A 4231   0.151   1.938   6.194
   32SAPC  H12B 4232   0.031   2.003   6.075
   32SAPC   C13 4233  -0.058   1.778   6.220
   32SAPC  H13A 4234  -0.129   1.859   6.213
   32SAPC  H13B 4235  -0.112   1.684   6.227
   32SAPC  H13C 4236  -0.019   1.788   6.319
   32SAPC   C14 4237  -0.032   1.756   5.986
   32SAPC  H14A 4238  -0.113   1.686   6.001
   32SAPC  H14B 4239  -0.086   1.844   5.952
   32SAPC  H14C 4240   0.027   1.704   5.913
   32SAPC   C15 4241   0.140   1.672   6.133
   32SAPC  H15A 4242   0.204   1.688   6.219
   32SAPC  H15B 4243   0.088   1.578   6.143
   32SAPC  H15C 4244   0.209   1.669   6.050
   32SAPC   C11 4245   0.221   1.928   5.999
   32SAPC  H11A 4246   0.232   2.030   5.957
   32SAPC  H11B 4247   0.195   1.863   5.913
   32SAPC     P 4248   0.420   1.962   6.171
   32SAPC   O13 4249   0.538   1.890   6.207
   32SAPC   O14 4250   0.447   2.098   6.120
   32SAPC   O12 4251   0.345   1.887   6.052
   32SAPC   O11 4252   0.310   1.965   6.286
   32SAPC    C1 4253   0.257   2.087   6.346
   32SAPC    HA 4254   0.221   2.151   6.262
   32SAPC    HB 4255   0.164   2.058   6.398
   32SAPC    C2 4256   0.355   2.160   6.450
   32SAPC    HS 4257   0.449   2.191   6.399
   32SAPC   O21 4258   0.382   2.065   6.556
   32SAPC   C21 4259   0.471   2.101   6.648
   32SAPC   O22 4260   0.550   2.192   6.642
   32SAPC   C22 4261   0.468   1.989   6.759
   32SAPC   H2R 4262   0.414   1.901   6.717
   32SAPC   H2S 4263   0.571   1.965   6.794
   32SAPC    C3 4264   0.305   2.297   6.506
   32SAPC    HX 4265   0.267   2.353   6.418
   32SAPC    HY 4266   0.387   2.361   6.545
   32SAPC   O31 4267   0.183   2.282   6.592
   32SAPC   C31 4268   0.196   2.344   6.711
   32SAPC   O32 4269   0.297   2.400   6.749
   32SAPC   C32 4270   0.064   2.339   6.789
   32SAPC   H2X 4271   0.094   2.276   6.876
   32SAPC   H2Y 4272  -0.011   2.282   6.729
   32SAPC   C23 4273   0.374   2.034   6.873
   32SAPC   H3R 4274   0.348   1.947   6.936
   32SAPC   H3S 4275   0.272   2.057   6.835
   32SAPC   C24 4276   0.440   2.144   6.957
   32SAPC   H4R 4277   0.360   2.183   7.023
   32SAPC   H4S 4278   0.470   2.226   6.889
   32SAPC   C25 4279   0.577   2.122   7.018
   32SAPC   H5R 4280   0.655   2.144   6.945
   32SAPC   C26 4281   0.612   2.110   7.144
   32SAPC   H6R 4282   0.715   2.103   7.182
   32SAPC   C27 4283   0.513   2.073   7.255
   32SAPC   H7R 4284   0.565   1.994   7.314
   32SAPC   H7S 4285   0.424   2.019   7.218
   32SAPC   C28 4286   0.462   2.171   7.355
   32SAPC   H8R 4287   0.373   2.229   7.325
   32SAPC   C29 4288   0.512   2.202   7.479
   32SAPC   H9R 4289   0.470   2.285   7.539
   32SAPC  C210 4290   0.618   2.129   7.552
   32SAPC  H10R 4291   0.712   2.187   7.550
   32SAPC  H10S 4292   0.653   2.036   7.502
   32SAPC  C211 4293   0.557   2.096   7.683
   32SAPC  H11R 4294   0.451   2.067   7.682
   32SAPC  C212 4295   0.611   2.109   7.811
   32SAPC  H12R 4296   0.543   2.080   7.893
   32SAPC  C213 4297   0.744   2.151   7.847
   32SAPC  H13R 4298   0.737   2.235   7.919
   32SAPC  H13S 4299   0.795   2.194   7.758
   32SAPC  C214 4300   0.832   2.034   7.886
   32SAPC  H14R 4301   0.852   1.967   7.802
   32SAPC  C215 4302   0.891   2.022   8.006
   32SAPC  H15R 4303   0.959   1.940   8.032
   32SAPC  C216 4304   0.896   2.129   8.113
   32SAPC  H16R 4305   0.921   2.225   8.064
   32SAPC  H16S 4306   0.973   2.116   8.193
   32SAPC  C217 4307   0.756   2.149   8.174
   32SAPC  H17R 4308   0.727   2.056   8.227
   32SAPC  H17S 4309   0.674   2.170   8.101
   32SAPC  C218 4310   0.746   2.263   8.281
   32SAPC  H18R 4311   0.642   2.300   8.287
   32SAPC  H18S 4312   0.807   2.350   8.247
   32SAPC  C219 4313   0.776   2.213   8.427
   32SAPC  H19R 4314   0.880   2.175   8.430
   32SAPC  H19S 4315   0.707   2.133   8.458
   32SAPC  C220 4316   0.765   2.315   8.540
   32SAPC  H20R 4317   0.828   2.405   8.527
   32SAPC  H20S 4318   0.802   2.276   8.637
   32SAPC  H20T 4319   0.658   2.340   8.557
   32SAPC   C33 4320   0.000   2.472   6.830
   32SAPC   H3X 4321   0.012   2.545   6.747
   32SAPC   H3Y 4322   0.072   2.507   6.907
   32SAPC   C34 4323  -0.150   2.469   6.880
   32SAPC   H4X 4324  -0.164   2.392   6.958
   32SAPC   H4Y 4325  -0.221   2.438   6.800
   32SAPC   C35 4326  -0.190   2.602   6.933
   32SAPC   H5X 4327  -0.179   2.684   6.858
   32SAPC   H5Y 4328  -0.133   2.625   7.025
   32SAPC   C36 4329  -0.336   2.620   6.973
   32SAPC   H6X 4330  -0.392   2.589   6.882
   32SAPC   H6Y 4331  -0.369   2.725   6.982
   32SAPC   C37 4332  -0.381   2.541   7.102
   32SAPC   H7X 4333  -0.335   2.441   7.088
   32SAPC   H7Y 4334  -0.492   2.535   7.098
   32SAPC   C38 4335  -0.342   2.605   7.232
   32SAPC   H8X 4336  -0.397   2.698   7.255
   32SAPC   H8Y 4337  -0.235   2.635   7.231
   32SAPC   C39 4338  -0.362   2.519   7.361
   32SAPC   H9X 4339  -0.289   2.434   7.360
   32SAPC   H9Y 4340  -0.464   2.474   7.360
   32SAPC  C310 4341  -0.360   2.610   7.489
   32SAPC  H10X 4342  -0.428   2.697   7.483
   32SAPC  H10Y 4343  -0.261   2.659   7.491
   32SAPC  C311 4344  -0.406   2.545   7.623
   32SAPC  H11X 4345  -0.497   2.483   7.609
   32SAPC  H11Y 4346  -0.428   2.634   7.686
   32SAPC  C312 4347  -0.300   2.469   7.699
   32SAPC  H12X 4348  -0.211   2.536   7.698
   32SAPC  H12Y 4349  -0.288   2.371   7.648
   32SAPC  C313 4350  -0.348   2.441   7.845
   32SAPC  H13X 4351  -0.449   2.395   7.838
   32SAPC  H13Y 4352  -0.342   2.541   7.894
   32SAPC  C314 4353  -0.252   2.338   7.912
   32SAPC  H14X 4354  -0.151   2.384   7.925
   32SAPC  H14Y 4355  -0.234   2.248   7.848
   32SAPC  C315 4356  -0.307   2.294   8.048
   32SAPC  H15X 4357  -0.403   2.237   8.041
   32SAPC  H15Y 4358  -0.335   2.383   8.109
   32SAPC  C316 4359  -0.192   2.212   8.113
   32SAPC  H16X 4360  -0.092   2.259   8.096
   32SAPC  H16Y 4361  -0.190   2.117   8.056
   32SAPC  C317 4362  -0.204   2.196   8.264
   32SAPC  H17X 4363  -0.206   2.297   8.313
   32SAPC  H17Y 4364  -0.115   2.139   8.297
   32SAPC  C318 4365  -0.324   2.116   8.305
   32SAPC  H18X 4366  -0.418   2.173   8.290
   32SAPC  H18Y 4367  -0.305   2.094   8.412
   32SAPC  H18Z 4368  -0.335   2.020   8.250
   33POPC     N 4369   3.908   3.025  10.688
   33POPC   C12 4370   3.883   3.113  10.560
   33POPC  H12A 4371   3.978   3.106  10.510
   33POPC  H12B 4372   3.873   3.216  10.592
   33POPC   C13 4373   3.974   2.896  10.647
   33POPC  H13A 4374   4.060   2.911  10.583
   33POPC  H13B 4375   4.013   2.836  10.728
   33POPC  H13C 4376   3.901   2.830  10.601
   33POPC   C14 4377   4.005   3.110  10.772
   33POPC  H14A 4378   4.044   3.048  10.851
   33POPC  H14B 4379   4.089   3.146  10.715
   33POPC  H14C 4380   3.945   3.192  10.810
   33POPC   C15 4381   3.791   2.995  10.771
   33POPC  H15A 4382   3.825   2.937  10.855
   33POPC  H15B 4383   3.722   2.927  10.723
   33POPC  H15C 4384   3.731   3.081  10.800
   33POPC   C11 4385   3.769   3.069  10.463
   33POPC  H11A 4386   3.789   2.961  10.449
   33POPC  H11B 4387   3.762   3.125  10.367
   33POPC     P 4388   3.564   3.199  10.553
   33POPC   O13 4389   3.659   3.297  10.611
   33POPC   O14 4390   3.447   3.170  10.635
   33POPC   O12 4391   3.641   3.063  10.531
   33POPC   O11 4392   3.517   3.244  10.405
   33POPC    C1 4393   3.463   3.144  10.325
   33POPC    HA 4394   3.540   3.068  10.301
   33POPC    HB 4395   3.382   3.092  10.380
   33POPC    C2 4396   3.380   3.184  10.196
   33POPC    HS 4397   3.325   3.091  10.169
   33POPC   O21 4398   3.469   3.228  10.092
   33POPC   C21 4399   3.519   3.121  10.028
   33POPC   O22 4400   3.491   3.003  10.050
   33POPC   C22 4401   3.619   3.170   9.922
   33POPC   H2R 4402   3.711   3.185   9.983
   33POPC   H2S 4403   3.597   3.275   9.894
   33POPC    C3 4404   3.272   3.291  10.238
   33POPC    HX 4405   3.321   3.378  10.285
   33POPC    HY 4406   3.208   3.240  10.313
   33POPC   O31 4407   3.196   3.323  10.119
   33POPC   C31 4408   3.244   3.419  10.045
   33POPC   O32 4409   3.350   3.478  10.065
   33POPC   C32 4410   3.158   3.453   9.925
   33POPC   H2X 4411   3.117   3.555   9.941
   33POPC   H2Y 4412   3.076   3.381   9.905
   33POPC   C23 4413   3.631   3.068   9.800
   33POPC   H3R 4414   3.611   2.963   9.832
   33POPC   H3S 4415   3.736   3.076   9.765
   33POPC   C24 4416   3.534   3.119   9.690
   33POPC   H4R 4417   3.575   3.220   9.669
   33POPC   H4S 4418   3.431   3.133   9.729
   33POPC   C25 4419   3.539   3.049   9.553
   33POPC   H5R 4420   3.479   2.956   9.564
   33POPC   H5S 4421   3.642   3.016   9.530
   33POPC   C26 4422   3.488   3.124   9.429
   33POPC   H6R 4423   3.557   3.209   9.416
   33POPC   H6S 4424   3.386   3.163   9.448
   33POPC   C27 4425   3.490   3.044   9.297
   33POPC   H7R 4426   3.413   2.968   9.324
   33POPC   H7S 4427   3.590   2.997   9.292
   33POPC   C28 4428   3.467   3.123   9.166
   33POPC   H8R 4429   3.377   3.186   9.187
   33POPC   H8S 4430   3.449   3.052   9.082
   33POPC   C29 4431   3.585   3.211   9.137
   33POPC   H91 4432   3.608   3.277   9.221
   33POPC  C210 4433   3.669   3.202   9.027
   33POPC  H101 4434   3.755   3.270   9.018
   33POPC  C211 4435   3.661   3.112   8.903
   33POPC  H11R 4436   3.677   3.165   8.807
   33POPC  H11S 4437   3.559   3.070   8.894
   33POPC  C212 4438   3.779   3.007   8.913
   33POPC  H12R 4439   3.776   2.945   9.005
   33POPC  H12S 4440   3.880   3.053   8.919
   33POPC  C213 4441   3.768   2.912   8.799
   33POPC  H13R 4442   3.780   2.983   8.714
   33POPC  H13S 4443   3.667   2.869   8.788
   33POPC  C214 4444   3.894   2.826   8.794
   33POPC  H14R 4445   3.980   2.876   8.844
   33POPC  H14S 4446   3.920   2.802   8.688
   33POPC  C215 4447   3.886   2.686   8.863
   33POPC  H15R 4448   3.805   2.631   8.810
   33POPC  H15S 4449   3.874   2.692   8.973
   33POPC  C216 4450   4.010   2.600   8.836
   33POPC  H16R 4451   4.098   2.661   8.867
   33POPC  H16S 4452   4.023   2.574   8.729
   33POPC  C217 4453   4.017   2.471   8.920
   33POPC  H17R 4454   3.933   2.403   8.893
   33POPC  H17S 4455   3.990   2.502   9.024
   33POPC  C218 4456   4.143   2.380   8.919
   33POPC  H18R 4457   4.177   2.359   8.815
   33POPC  H18S 4458   4.122   2.285   8.971
   33POPC  H18T 4459   4.229   2.425   8.973
   33POPC   C33 4460   3.255   3.453   9.799
   33POPC   H3X 4461   3.288   3.350   9.777
   33POPC   H3Y 4462   3.333   3.532   9.795
   33POPC   C34 4463   3.174   3.489   9.674
   33POPC   H4X 4464   3.125   3.588   9.681
   33POPC   H4Y 4465   3.089   3.419   9.656
   33POPC   C35 4466   3.245   3.492   9.534
   33POPC   H5X 4467   3.318   3.410   9.517
   33POPC   H5Y 4468   3.308   3.584   9.533
   33POPC   C36 4469   3.148   3.505   9.415
   33POPC   H6X 4470   3.148   3.611   9.382
   33POPC   H6Y 4471   3.042   3.478   9.437
   33POPC   C37 4472   3.192   3.437   9.275
   33POPC   H7X 4473   3.099   3.436   9.214
   33POPC   H7Y 4474   3.233   3.337   9.296
   33POPC   C38 4475   3.287   3.532   9.197
   33POPC   H8X 4476   3.371   3.558   9.265
   33POPC   H8Y 4477   3.237   3.629   9.177
   33POPC   C39 4478   3.346   3.490   9.066
   33POPC   H9X 4479   3.431   3.425   9.095
   33POPC   H9Y 4480   3.392   3.579   9.018
   33POPC  C310 4481   3.250   3.426   8.956
   33POPC  H10X 4482   3.171   3.500   8.929
   33POPC  H10Y 4483   3.202   3.340   9.007
   33POPC  C311 4484   3.330   3.383   8.833
   33POPC  H11X 4485   3.402   3.301   8.854
   33POPC  H11Y 4486   3.387   3.471   8.796
   33POPC  C312 4487   3.239   3.360   8.710
   33POPC  H12X 4488   3.191   3.459   8.695
   33POPC  H12Y 4489   3.176   3.270   8.729
   33POPC  C313 4490   3.309   3.366   8.570
   33POPC  H13X 4491   3.359   3.267   8.577
   33POPC  H13Y 4492   3.380   3.451   8.567
   33POPC  C314 4493   3.211   3.359   8.454
   33POPC  H14X 4494   3.177   3.459   8.420
   33POPC  H14Y 4495   3.118   3.300   8.465
   33POPC  C315 4496   3.278   3.306   8.329
   33POPC  H15X 4497   3.208   3.305   8.243
   33POPC  H15Y 4498   3.308   3.201   8.344
   33POPC  C316 4499   3.404   3.390   8.281
   33POPC  H16X 4500   3.481   3.386   8.362
   33POPC  H16Y 4501   3.383   3.498   8.267
   33POPC  H16Z 4502   3.444   3.350   8.185
   34POPC     N 4503   3.328   3.829  10.851
   34POPC   C12 4504   3.271   3.747  10.731
   34POPC  H12A 4505   3.225   3.659  10.774
   34POPC  H12B 4506   3.356   3.714  10.673
   34POPC   C13 4507   3.414   3.947  10.817
   34POPC  H13A 4508   3.367   4.018  10.751
   34POPC  H13B 4509   3.448   3.999  10.905
   34POPC  H13C 4510   3.502   3.908  10.768
   34POPC   C14 4511   3.217   3.890  10.929
   34POPC  H14A 4512   3.144   3.812  10.943
   34POPC  H14B 4513   3.261   3.930  11.019
   34POPC  H14C 4514   3.169   3.972  10.877
   34POPC   C15 4515   3.395   3.740  10.946
   34POPC  H15A 4516   3.332   3.658  10.976
   34POPC  H15B 4517   3.427   3.792  11.035
   34POPC  H15C 4518   3.486   3.697  10.906
   34POPC   C11 4519   3.165   3.818  10.649
   34POPC  H11A 4520   3.157   3.754  10.559
   34POPC  H11B 4521   3.187   3.924  10.624
   34POPC     P 4522   2.923   3.916  10.721
   34POPC   O13 4523   2.983   4.045  10.769
   34POPC   O14 4524   2.812   3.869  10.807
   34POPC   O12 4525   3.031   3.804  10.705
   34POPC   O11 4526   2.867   3.925  10.571
   34POPC    C1 4527   2.790   3.811  10.520
   34POPC    HA 4528   2.721   3.776  10.600
   34POPC    HB 4529   2.856   3.722  10.512
   34POPC    C2 4530   2.708   3.844  10.396
   34POPC    HS 4531   2.642   3.757  10.379
   34POPC   O21 4532   2.804   3.867  10.285
   34POPC   C21 4533   2.810   3.766  10.200
   34POPC   O22 4534   2.760   3.656  10.215
   34POPC   C22 4535   2.890   3.806  10.073
   34POPC   H2R 4536   2.991   3.761  10.071
   34POPC   H2S 4537   2.899   3.917  10.075
   34POPC    C3 4538   2.618   3.971  10.410
   34POPC    HX 4539   2.688   4.048  10.451
   34POPC    HY 4540   2.549   3.942  10.492
   34POPC   O31 4541   2.557   4.015  10.290
   34POPC   C31 4542   2.597   4.129  10.232
   34POPC   O32 4543   2.671   4.212  10.283
   34POPC   C32 4544   2.525   4.138  10.099
   34POPC   H2X 4545   2.420   4.108  10.118
   34POPC   H2Y 4546   2.571   4.056  10.039
   34POPC   C23 4547   2.821   3.772   9.941
   34POPC   H3R 4548   2.729   3.834   9.931
   34POPC   H3S 4549   2.791   3.666   9.956
   34POPC   C24 4550   2.907   3.803   9.823
   34POPC   H4R 4551   3.012   3.771   9.841
   34POPC   H4S 4552   2.911   3.912   9.803
   34POPC   C25 4553   2.852   3.717   9.705
   34POPC   H5R 4554   2.747   3.691   9.728
   34POPC   H5S 4555   2.910   3.623   9.703
   34POPC   C26 4556   2.866   3.786   9.574
   34POPC   H6R 4557   2.974   3.807   9.556
   34POPC   H6S 4558   2.826   3.890   9.578
   34POPC   C27 4559   2.802   3.710   9.452
   34POPC   H7R 4560   2.699   3.686   9.487
   34POPC   H7S 4561   2.868   3.621   9.445
   34POPC   C28 4562   2.795   3.784   9.315
   34POPC   H8R 4563   2.896   3.819   9.284
   34POPC   H8S 4564   2.742   3.875   9.348
   34POPC   C29 4565   2.710   3.720   9.203
   34POPC   H91 4566   2.607   3.703   9.238
   34POPC  C210 4567   2.751   3.673   9.086
   34POPC  H101 4568   2.683   3.616   9.022
   34POPC  C211 4569   2.890   3.676   9.031
   34POPC  H11R 4570   2.934   3.574   9.030
   34POPC  H11S 4571   2.958   3.730   9.100
   34POPC  C212 4572   2.884   3.728   8.889
   34POPC  H12R 4573   2.835   3.827   8.890
   34POPC  H12S 4574   2.821   3.656   8.832
   34POPC  C213 4575   3.015   3.745   8.815
   34POPC  H13R 4576   3.038   3.637   8.805
   34POPC  H13S 4577   3.089   3.808   8.868
   34POPC  C214 4578   2.966   3.800   8.680
   34POPC  H14R 4579   3.052   3.850   8.629
   34POPC  H14S 4580   2.875   3.862   8.696
   34POPC  C215 4581   2.919   3.688   8.583
   34POPC  H15R 4582   2.824   3.643   8.618
   34POPC  H15S 4583   3.003   3.617   8.564
   34POPC  C216 4584   2.876   3.743   8.444
   34POPC  H16R 4585   2.961   3.806   8.411
   34POPC  H16S 4586   2.787   3.809   8.455
   34POPC  C217 4587   2.829   3.647   8.343
   34POPC  H17R 4588   2.786   3.701   8.256
   34POPC  H17S 4589   2.746   3.587   8.386
   34POPC  C218 4590   2.935   3.544   8.299
   34POPC  H18R 4591   2.939   3.459   8.371
   34POPC  H18S 4592   3.038   3.577   8.276
   34POPC  H18T 4593   2.898   3.510   8.199
   34POPC   C33 4594   2.543   4.272  10.027
   34POPC   H3X 4595   2.649   4.267   9.993
   34POPC   H3Y 4596   2.540   4.366  10.087
   34POPC   C34 4597   2.464   4.294   9.898
   34POPC   H4X 4598   2.364   4.334   9.926
   34POPC   H4Y 4599   2.448   4.198   9.844
   34POPC   C35 4600   2.528   4.381   9.787
   34POPC   H5X 4601   2.632   4.345   9.773
   34POPC   H5Y 4602   2.515   4.486   9.821
   34POPC   C36 4603   2.447   4.391   9.657
   34POPC   H6X 4604   2.338   4.413   9.664
   34POPC   H6Y 4605   2.461   4.297   9.598
   34POPC   C37 4606   2.515   4.505   9.577
   34POPC   H7X 4607   2.626   4.504   9.574
   34POPC   H7Y 4608   2.481   4.598   9.628
   34POPC   C38 4609   2.438   4.507   9.443
   34POPC   H8X 4610   2.474   4.603   9.402
   34POPC   H8Y 4611   2.331   4.526   9.468
   34POPC   C39 4612   2.451   4.400   9.339
   34POPC   H9X 4613   2.390   4.315   9.378
   34POPC   H9Y 4614   2.551   4.358   9.311
   34POPC  C310 4615   2.382   4.462   9.216
   34POPC  H10X 4616   2.456   4.532   9.171
   34POPC  H10Y 4617   2.287   4.512   9.241
   34POPC  C311 4618   2.335   4.346   9.124
   34POPC  H11X 4619   2.249   4.298   9.176
   34POPC  H11Y 4620   2.421   4.282   9.094
   34POPC  C312 4621   2.266   4.399   8.991
   34POPC  H12X 4622   2.317   4.496   8.975
   34POPC  H12Y 4623   2.157   4.413   9.007
   34POPC  C313 4624   2.283   4.316   8.863
   34POPC  H13X 4625   2.257   4.209   8.874
   34POPC  H13Y 4626   2.391   4.322   8.840
   34POPC  C314 4627   2.187   4.372   8.758
   34POPC  H14X 4628   2.199   4.482   8.751
   34POPC  H14Y 4629   2.081   4.355   8.789
   34POPC  C315 4630   2.216   4.320   8.621
   34POPC  H15X 4631   2.317   4.345   8.582
   34POPC  H15Y 4632   2.152   4.365   8.541
   34POPC  C316 4633   2.206   4.170   8.595
   34POPC  H16X 4634   2.280   4.116   8.657
   34POPC  H16Y 4635   2.230   4.150   8.489
   34POPC  H16Z 4636   2.101   4.134   8.601
   35POPC     N 4637   2.358   1.600  11.422
   35POPC   C12 4638   2.289   1.591  11.289
   35POPC  H12A 4639   2.259   1.694  11.274
   35POPC  H12B 4640   2.201   1.530  11.298
   35POPC   C13 4641   2.283   1.686  11.511
   35POPC  H13A 4642   2.336   1.683  11.605
   35POPC  H13B 4643   2.270   1.789  11.480
   35POPC  H13C 4644   2.184   1.642  11.518
   35POPC   C14 4645   2.374   1.457  11.478
   35POPC  H14A 4646   2.445   1.451  11.560
   35POPC  H14B 4647   2.287   1.397  11.499
   35POPC  H14C 4648   2.414   1.409  11.390
   35POPC   C15 4649   2.496   1.654  11.410
   35POPC  H15A 4650   2.488   1.755  11.370
   35POPC  H15B 4651   2.550   1.597  11.336
   35POPC  H15C 4652   2.543   1.651  11.507
   35POPC   C11 4653   2.369   1.544  11.168
   35POPC  H11A 4654   2.456   1.610  11.150
   35POPC  H11B 4655   2.313   1.561  11.073
   35POPC     P 4656   2.533   1.338  11.166
   35POPC   O13 4657   2.547   1.221  11.258
   35POPC   O14 4658   2.632   1.445  11.178
   35POPC   O12 4659   2.390   1.403  11.187
   35POPC   O11 4660   2.529   1.290  11.015
   35POPC    C1 4661   2.421   1.206  10.967
   35POPC    HA 4662   2.321   1.232  11.008
   35POPC    HB 4663   2.439   1.097  10.969
   35POPC    C2 4664   2.394   1.233  10.816
   35POPC    HS 4665   2.293   1.189  10.798
   35POPC   O21 4666   2.501   1.173  10.737
   35POPC   C21 4667   2.447   1.109  10.630
   35POPC   O22 4668   2.330   1.105  10.598
   35POPC   C22 4669   2.558   1.030  10.565
   35POPC   H2R 4670   2.521   0.948  10.500
   35POPC   H2S 4671   2.627   0.985  10.640
   35POPC    C3 4672   2.387   1.393  10.783
   35POPC    HX 4673   2.485   1.433  10.816
   35POPC    HY 4674   2.316   1.435  10.857
   35POPC   O31 4675   2.359   1.413  10.642
   35POPC   C31 4676   2.229   1.403  10.612
   35POPC   O32 4677   2.142   1.377  10.692
   35POPC   C32 4678   2.211   1.408  10.467
   35POPC   H2X 4679   2.289   1.350  10.414
   35POPC   H2Y 4680   2.212   1.516  10.441
   35POPC   C23 4681   2.640   1.120  10.469
   35POPC   H3R 4682   2.713   1.066  10.406
   35POPC   H3S 4683   2.702   1.187  10.533
   35POPC   C24 4684   2.558   1.211  10.371
   35POPC   H4R 4685   2.637   1.253  10.305
   35POPC   H4S 4686   2.513   1.298  10.422
   35POPC   C25 4687   2.470   1.138  10.268
   35POPC   H5R 4688   2.383   1.095  10.322
   35POPC   H5S 4689   2.515   1.059  10.205
   35POPC   C26 4690   2.404   1.238  10.175
   35POPC   H6R 4691   2.348   1.316  10.232
   35POPC   H6S 4692   2.323   1.189  10.118
   35POPC   C27 4693   2.512   1.288  10.074
   35POPC   H7R 4694   2.602   1.223  10.075
   35POPC   H7S 4695   2.546   1.389  10.107
   35POPC   C28 4696   2.464   1.294   9.929
   35POPC   H8R 4697   2.550   1.339   9.875
   35POPC   H8S 4698   2.377   1.359   9.904
   35POPC   C29 4699   2.439   1.154   9.875
   35POPC   H91 4700   2.438   1.079   9.955
   35POPC  C210 4701   2.431   1.109   9.750
   35POPC  H101 4702   2.406   1.005   9.723
   35POPC  C211 4703   2.413   1.183   9.622
   35POPC  H11R 4704   2.378   1.288   9.635
   35POPC  H11S 4705   2.331   1.139   9.561
   35POPC  C212 4706   2.544   1.192   9.527
   35POPC  H12R 4707   2.607   1.100   9.520
   35POPC  H12S 4708   2.610   1.271   9.567
   35POPC  C213 4709   2.515   1.234   9.384
   35POPC  H13R 4710   2.472   1.336   9.384
   35POPC  H13S 4711   2.432   1.171   9.344
   35POPC  C214 4712   2.633   1.213   9.288
   35POPC  H14R 4713   2.653   1.104   9.276
   35POPC  H14S 4714   2.722   1.251   9.343
   35POPC  C215 4715   2.616   1.286   9.153
   35POPC  H15R 4716   2.613   1.396   9.168
   35POPC  H15S 4717   2.517   1.261   9.109
   35POPC  C216 4718   2.730   1.255   9.057
   35POPC  H16R 4719   2.751   1.148   9.037
   35POPC  H16S 4720   2.828   1.290   9.096
   35POPC  C217 4721   2.705   1.313   8.920
   35POPC  H17R 4722   2.753   1.413   8.926
   35POPC  H17S 4723   2.598   1.307   8.890
   35POPC  C218 4724   2.773   1.243   8.803
   35POPC  H18R 4725   2.755   1.133   8.795
   35POPC  H18S 4726   2.884   1.245   8.810
   35POPC  H18T 4727   2.734   1.278   8.705
   35POPC   C33 4728   2.074   1.352  10.426
   35POPC   H3X 4729   1.998   1.425  10.461
   35POPC   H3Y 4730   2.049   1.256  10.476
   35POPC   C34 4731   2.062   1.320  10.280
   35POPC   H4X 4732   1.964   1.271  10.261
   35POPC   H4Y 4733   2.136   1.240  10.259
   35POPC   C35 4734   2.070   1.439  10.186
   35POPC   H5X 4735   2.169   1.485  10.206
   35POPC   H5Y 4736   1.990   1.514  10.204
   35POPC   C36 4737   2.092   1.403  10.034
   35POPC   H6X 4738   2.190   1.359  10.007
   35POPC   H6Y 4739   2.086   1.499   9.977
   35POPC   C37 4740   1.981   1.301   9.993
   35POPC   H7X 4741   1.882   1.334  10.031
   35POPC   H7Y 4742   1.991   1.195  10.023
   35POPC   C38 4743   1.969   1.287   9.833
   35POPC   H8X 4744   1.960   1.395   9.806
   35POPC   H8Y 4745   1.870   1.241   9.810
   35POPC   C39 4746   2.083   1.217   9.761
   35POPC   H9X 4747   2.096   1.111   9.792
   35POPC   H9Y 4748   2.183   1.260   9.782
   35POPC  C310 4749   2.054   1.222   9.607
   35POPC  H10X 4750   1.952   1.180   9.604
   35POPC  H10Y 4751   2.119   1.148   9.556
   35POPC  C311 4752   2.075   1.360   9.536
   35POPC  H11X 4753   2.132   1.423   9.607
   35POPC  H11Y 4754   1.974   1.401   9.516
   35POPC  C312 4755   2.153   1.364   9.405
   35POPC  H12X 4756   2.089   1.327   9.322
   35POPC  H12Y 4757   2.258   1.329   9.407
   35POPC  C313 4758   2.164   1.507   9.362
   35POPC  H13X 4759   2.198   1.567   9.450
   35POPC  H13Y 4760   2.067   1.553   9.331
   35POPC  C314 4761   2.253   1.523   9.243
   35POPC  H14X 4762   2.194   1.485   9.158
   35POPC  H14Y 4763   2.351   1.477   9.265
   35POPC  C315 4764   2.278   1.673   9.206
   35POPC  H15X 4765   2.334   1.721   9.289
   35POPC  H15Y 4766   2.181   1.722   9.187
   35POPC  C316 4767   2.357   1.670   9.077
   35POPC  H16X 4768   2.289   1.640   8.994
   35POPC  H16Y 4769   2.441   1.601   9.098
   35POPC  H16Z 4770   2.399   1.770   9.053
   36POPC     N 4771   2.142   6.538  11.084
   36POPC   C12 4772   2.227   6.658  11.112
   36POPC  H12A 4773   2.186   6.724  11.186
   36POPC  H12B 4774   2.231   6.717  11.022
   36POPC   C13 4775   2.181   6.463  10.962
   36POPC  H13A 4776   2.276   6.416  10.978
   36POPC  H13B 4777   2.110   6.383  10.949
   36POPC  H13C 4778   2.179   6.525  10.873
   36POPC   C14 4779   2.141   6.439  11.195
   36POPC  H14A 4780   2.121   6.483  11.291
   36POPC  H14B 4781   2.073   6.357  11.176
   36POPC  H14C 4782   2.237   6.392  11.208
   36POPC   C15 4783   2.003   6.596  11.061
   36POPC  H15A 4784   1.970   6.627  11.159
   36POPC  H15B 4785   1.930   6.520  11.038
   36POPC  H15C 4786   1.995   6.678  10.992
   36POPC   C11 4787   2.377   6.632  11.159
   36POPC  H11A 4788   2.376   6.580  11.257
   36POPC  H11B 4789   2.423   6.732  11.172
   36POPC     P 4790   2.528   6.609  10.946
   36POPC   O13 4791   2.605   6.493  10.901
   36POPC   O14 4792   2.608   6.729  10.981
   36POPC   O12 4793   2.446   6.550  11.068
   36POPC   O11 4794   2.424   6.644  10.842
   36POPC    C1 4795   2.467   6.679  10.709
   36POPC    HA 4796   2.531   6.597  10.668
   36POPC    HB 4797   2.515   6.779  10.699
   36POPC    C2 4798   2.344   6.689  10.611
   36POPC    HS 4799   2.286   6.594  10.612
   36POPC   O21 4800   2.396   6.714  10.481
   36POPC   C21 4801   2.431   6.611  10.415
   36POPC   O22 4802   2.413   6.495  10.447
   36POPC   C22 4803   2.490   6.648  10.281
   36POPC   H2R 4804   2.553   6.738  10.294
   36POPC   H2S 4805   2.401   6.678  10.220
   36POPC    C3 4806   2.242   6.805  10.644
   36POPC    HX 4807   2.290   6.899  10.611
   36POPC    HY 4808   2.226   6.817  10.754
   36POPC   O31 4809   2.115   6.800  10.578
   36POPC   C31 4810   2.026   6.731  10.640
   36POPC   O32 4811   2.057   6.653  10.731
   36POPC   C32 4812   1.879   6.752  10.586
   36POPC   H2X 4813   1.873   6.849  10.533
   36POPC   H2Y 4814   1.819   6.763  10.678
   36POPC   C23 4815   2.571   6.533  10.215
   36POPC   H3R 4816   2.509   6.440  10.214
   36POPC   H3S 4817   2.661   6.519  10.278
   36POPC   C24 4818   2.593   6.563  10.070
   36POPC   H4R 4819   2.648   6.659  10.067
   36POPC   H4S 4820   2.502   6.569  10.007
   36POPC   C25 4821   2.675   6.451  10.007
   36POPC   H5R 4822   2.595   6.375   9.998
   36POPC   H5S 4823   2.752   6.419  10.081
   36POPC   C26 4824   2.733   6.475   9.866
   36POPC   H6R 4825   2.830   6.529   9.875
   36POPC   H6S 4826   2.658   6.536   9.811
   36POPC   C27 4827   2.771   6.352   9.793
   36POPC   H7R 4828   2.676   6.300   9.768
   36POPC   H7S 4829   2.834   6.281   9.850
   36POPC   C28 4830   2.832   6.367   9.651
   36POPC   H8R 4831   2.862   6.270   9.606
   36POPC   H8S 4832   2.933   6.413   9.658
   36POPC   C29 4833   2.749   6.452   9.566
   36POPC   H91 4834   2.687   6.528   9.615
   36POPC  C210 4835   2.737   6.440   9.432
   36POPC  H101 4836   2.660   6.499   9.381
   36POPC  C211 4837   2.829   6.364   9.343
   36POPC  H11R 4838   2.770   6.285   9.292
   36POPC  H11S 4839   2.909   6.313   9.401
   36POPC  C212 4840   2.917   6.451   9.244
   36POPC  H12R 4841   2.963   6.544   9.283
   36POPC  H12S 4842   2.839   6.488   9.175
   36POPC  C213 4843   3.017   6.373   9.157
   36POPC  H13R 4844   2.957   6.280   9.154
   36POPC  H13S 4845   3.121   6.364   9.197
   36POPC  C214 4846   3.035   6.429   9.017
   36POPC  H14R 4847   3.067   6.535   9.026
   36POPC  H14S 4848   2.943   6.427   8.955
   36POPC  C215 4849   3.138   6.349   8.929
   36POPC  H15R 4850   3.221   6.336   9.001
   36POPC  H15S 4851   3.176   6.401   8.838
   36POPC  C216 4852   3.073   6.215   8.882
   36POPC  H16R 4853   2.994   6.238   8.807
   36POPC  H16S 4854   3.020   6.164   8.965
   36POPC  C217 4855   3.181   6.111   8.830
   36POPC  H17R 4856   3.143   6.007   8.817
   36POPC  H17S 4857   3.257   6.100   8.911
   36POPC  C218 4858   3.248   6.146   8.699
   36POPC  H18R 4859   3.168   6.153   8.622
   36POPC  H18S 4860   3.322   6.067   8.674
   36POPC  H18T 4861   3.304   6.242   8.698
   36POPC   C33 4862   1.836   6.633  10.501
   36POPC   H3X 4863   1.727   6.653  10.488
   36POPC   H3Y 4864   1.850   6.537  10.554
   36POPC   C34 4865   1.902   6.609  10.366
   36POPC   H4X 4866   1.874   6.507  10.332
   36POPC   H4Y 4867   2.011   6.625  10.380
   36POPC   C35 4868   1.855   6.708  10.255
   36POPC   H5X 4869   1.886   6.808  10.294
   36POPC   H5Y 4870   1.745   6.713  10.241
   36POPC   C36 4871   1.917   6.691  10.115
   36POPC   H6X 4872   1.874   6.599  10.070
   36POPC   H6Y 4873   2.026   6.673  10.124
   36POPC   C37 4874   1.885   6.815  10.027
   36POPC   H7X 4875   1.924   6.907  10.077
   36POPC   H7Y 4876   1.777   6.841  10.014
   36POPC   C38 4877   1.944   6.807   9.889
   36POPC   H8X 4878   1.893   6.720   9.842
   36POPC   H8Y 4879   2.054   6.792   9.883
   36POPC   C39 4880   1.900   6.925   9.789
   36POPC   H9X 4881   1.942   7.026   9.807
   36POPC   H9Y 4882   1.794   6.945   9.816
   36POPC  C310 4883   1.903   6.882   9.642
   36POPC  H10X 4884   1.835   6.796   9.623
   36POPC  H10Y 4885   2.007   6.850   9.618
   36POPC  C311 4886   1.839   6.993   9.559
   36POPC  H11X 4887   1.905   7.080   9.580
   36POPC  H11Y 4888   1.740   7.012   9.605
   36POPC  C312 4889   1.822   6.969   9.407
   36POPC  H12X 4890   1.749   7.043   9.369
   36POPC  H12Y 4891   1.777   6.868   9.396
   36POPC  C313 4892   1.957   6.968   9.329
   36POPC  H13X 4893   2.042   6.925   9.387
   36POPC  H13Y 4894   1.983   7.074   9.309
   36POPC  C314 4895   1.942   6.888   9.195
   36POPC  H14X 4896   2.031   6.900   9.130
   36POPC  H14Y 4897   1.849   6.919   9.144
   36POPC  C315 4898   1.933   6.727   9.205
   36POPC  H15X 4899   1.847   6.691   9.266
   36POPC  H15Y 4900   2.026   6.676   9.238
   36POPC  C316 4901   1.904   6.658   9.068
   36POPC  H16X 4902   1.922   6.549   9.082
   36POPC  H16Y 4903   1.975   6.690   8.989
   36POPC  H16Z 4904   1.801   6.673   9.031
   37POPC     N 4905   1.323   2.597   6.464
   37POPC   C12 4906   1.343   2.583   6.619
   37POPC  H12A 4907   1.382   2.675   6.657
   37POPC  H12B 4908   1.422   2.513   6.639
   37POPC   C13 4909   1.256   2.471   6.412
   37POPC  H13A 4910   1.160   2.453   6.459
   37POPC  H13B 4911   1.243   2.466   6.305
   37POPC  H13C 4912   1.316   2.384   6.436
   37POPC   C14 4913   1.229   2.706   6.444
   37POPC  H14A 4914   1.273   2.798   6.479
   37POPC  H14B 4915   1.209   2.726   6.340
   37POPC  H14C 4916   1.135   2.690   6.495
   37POPC   C15 4917   1.454   2.617   6.392
   37POPC  H15A 4918   1.511   2.526   6.399
   37POPC  H15B 4919   1.511   2.699   6.433
   37POPC  H15C 4920   1.429   2.651   6.292
   37POPC   C11 4921   1.219   2.544   6.700
   37POPC  H11A 4922   1.136   2.616   6.684
   37POPC  H11B 4923   1.234   2.564   6.808
   37POPC     P 4924   1.216   2.284   6.751
   37POPC   O13 4925   1.366   2.291   6.752
   37POPC   O14 4926   1.155   2.171   6.680
   37POPC   O12 4927   1.167   2.413   6.682
   37POPC   O11 4928   1.163   2.296   6.897
   37POPC    C1 4929   1.032   2.285   6.943
   37POPC    HA 4930   0.999   2.180   6.930
   37POPC    HB 4931   0.966   2.355   6.886
   37POPC    C2 4932   1.016   2.312   7.100
   37POPC    HS 4933   0.906   2.321   7.100
   37POPC   O21 4934   1.109   2.413   7.146
   37POPC   C21 4935   1.107   2.531   7.082
   37POPC   O22 4936   1.042   2.570   6.990
   37POPC   C22 4937   1.224   2.613   7.139
   37POPC   H2R 4938   1.176   2.690   7.203
   37POPC   H2S 4939   1.264   2.666   7.050
   37POPC    C3 4940   1.034   2.175   7.176
   37POPC    HX 4941   1.140   2.143   7.164
   37POPC    HY 4942   0.973   2.096   7.127
   37POPC   O31 4943   1.005   2.194   7.321
   37POPC   C31 4944   1.097   2.166   7.405
   37POPC   O32 4945   1.207   2.112   7.382
   37POPC   C32 4946   1.046   2.197   7.548
   37POPC   H2X 4947   1.138   2.189   7.610
   37POPC   H2Y 4948   0.981   2.114   7.582
   37POPC   C23 4949   1.335   2.537   7.216
   37POPC   H3R 4950   1.280   2.463   7.279
   37POPC   H3S 4951   1.387   2.611   7.281
   37POPC   C24 4952   1.426   2.468   7.118
   37POPC   H4R 4953   1.490   2.551   7.080
   37POPC   H4S 4954   1.374   2.432   7.027
   37POPC   C25 4955   1.522   2.360   7.176
   37POPC   H5R 4956   1.603   2.355   7.100
   37POPC   H5S 4957   1.473   2.260   7.168
   37POPC   C26 4958   1.577   2.383   7.317
   37POPC   H6R 4959   1.590   2.489   7.348
   37POPC   H6S 4960   1.676   2.334   7.308
   37POPC   C27 4961   1.497   2.320   7.444
   37POPC   H7R 4962   1.478   2.217   7.406
   37POPC   H7S 4963   1.402   2.370   7.475
   37POPC   C28 4964   1.589   2.297   7.570
   37POPC   H8R 4965   1.666   2.221   7.546
   37POPC   H8S 4966   1.525   2.242   7.642
   37POPC   C29 4967   1.649   2.424   7.627
   37POPC   H91 4968   1.662   2.505   7.554
   37POPC  C210 4969   1.661   2.457   7.754
   37POPC  H101 4970   1.726   2.538   7.791
   37POPC  C211 4971   1.630   2.367   7.865
   37POPC  H11R 4972   1.685   2.271   7.872
   37POPC  H11S 4973   1.523   2.336   7.858
   37POPC  C212 4974   1.637   2.432   8.007
   37POPC  H12R 4975   1.594   2.535   7.997
   37POPC  H12S 4976   1.744   2.443   8.033
   37POPC  C213 4977   1.587   2.356   8.131
   37POPC  H13R 4978   1.652   2.270   8.158
   37POPC  H13S 4979   1.488   2.311   8.109
   37POPC  C214 4980   1.550   2.447   8.246
   37POPC  H14R 4981   1.509   2.379   8.324
   37POPC  H14S 4982   1.477   2.522   8.208
   37POPC  C215 4983   1.669   2.534   8.302
   37POPC  H15R 4984   1.704   2.598   8.219
   37POPC  H15S 4985   1.753   2.464   8.320
   37POPC  C216 4986   1.628   2.611   8.425
   37POPC  H16R 4987   1.556   2.551   8.486
   37POPC  H16S 4988   1.575   2.705   8.397
   37POPC  C217 4989   1.744   2.650   8.511
   37POPC  H17R 4990   1.823   2.710   8.462
   37POPC  H17S 4991   1.792   2.555   8.544
   37POPC  C218 4992   1.700   2.727   8.632
   37POPC  H18R 4993   1.778   2.747   8.708
   37POPC  H18S 4994   1.609   2.693   8.686
   37POPC  H18T 4995   1.675   2.829   8.595
   37POPC   C33 4996   0.985   2.332   7.559
   37POPC   H3X 4997   0.949   2.347   7.663
   37POPC   H3Y 4998   0.891   2.337   7.500
   37POPC   C34 4999   1.094   2.438   7.538
   37POPC   H4X 5000   1.134   2.435   7.435
   37POPC   H4Y 5001   1.176   2.413   7.608
   37POPC   C35 5002   1.036   2.579   7.566
   37POPC   H5X 5003   0.985   2.590   7.665
   37POPC   H5Y 5004   0.960   2.602   7.489
   37POPC   C36 5005   1.143   2.694   7.553
   37POPC   H6X 5006   1.211   2.685   7.466
   37POPC   H6Y 5007   1.212   2.683   7.639
   37POPC   C37 5008   1.081   2.836   7.556
   37POPC   H7X 5009   1.051   2.849   7.663
   37POPC   H7Y 5010   0.985   2.840   7.499
   37POPC   C38 5011   1.171   2.953   7.530
   37POPC   H8X 5012   1.272   2.940   7.575
   37POPC   H8Y 5013   1.139   3.048   7.578
   37POPC   C39 5014   1.189   2.975   7.375
   37POPC   H9X 5015   1.224   2.881   7.328
   37POPC   H9Y 5016   1.276   3.040   7.354
   37POPC  C310 5017   1.060   3.024   7.302
   37POPC  H10X 5018   1.017   3.110   7.358
   37POPC  H10Y 5019   0.986   2.941   7.306
   37POPC  C311 5020   1.089   3.060   7.155
   37POPC  H11X 5021   1.107   2.966   7.099
   37POPC  H11Y 5022   1.171   3.134   7.142
   37POPC  C312 5023   0.966   3.112   7.080
   37POPC  H12X 5024   0.986   3.106   6.971
   37POPC  H12Y 5025   0.926   3.210   7.114
   37POPC  C313 5026   0.848   3.012   7.087
   37POPC  H13X 5027   0.887   2.908   7.095
   37POPC  H13Y 5028   0.784   3.012   6.996
   37POPC  C314 5029   0.746   3.058   7.193
   37POPC  H14X 5030   0.705   3.160   7.181
   37POPC  H14Y 5031   0.788   3.061   7.296
   37POPC  C315 5032   0.627   2.958   7.207
   37POPC  H15X 5033   0.675   2.869   7.252
   37POPC  H15Y 5034   0.590   2.934   7.105
   37POPC  C316 5035   0.515   3.006   7.295
   37POPC  H16X 5036   0.498   2.938   7.381
   37POPC  H16Y 5037   0.416   3.016   7.246
   37POPC  H16Z 5038   0.529   3.109   7.334
   38POPC     N 5039   3.528   6.074   6.269
   38POPC   C12 5040   3.530   6.041   6.418
   38POPC  H12A 5041   3.589   6.108   6.479
   38POPC  H12B 5042   3.570   5.942   6.432
   38POPC   C13 5043   3.665   6.095   6.220
   38POPC  H13A 5044   3.697   6.197   6.237
   38POPC  H13B 5045   3.732   6.031   6.275
   38POPC  H13C 5046   3.679   6.094   6.113
   38POPC   C14 5047   3.469   5.959   6.185
   38POPC  H14A 5048   3.372   5.941   6.230
   38POPC  H14B 5049   3.475   5.975   6.079
   38POPC  H14C 5050   3.528   5.869   6.199
   38POPC   C15 5051   3.446   6.199   6.237
   38POPC  H15A 5052   3.348   6.193   6.282
   38POPC  H15B 5053   3.429   6.211   6.132
   38POPC  H15C 5054   3.495   6.288   6.272
   38POPC   C11 5055   3.391   6.041   6.500
   38POPC  H11A 5056   3.370   6.149   6.507
   38POPC  H11B 5057   3.404   6.008   6.605
   38POPC     P 5058   3.141   6.016   6.422
   38POPC   O13 5059   3.083   5.929   6.321
   38POPC   O14 5060   3.139   6.163   6.396
   38POPC   O12 5061   3.291   5.976   6.425
   38POPC   O11 5062   3.097   5.982   6.578
   38POPC    C1 5063   3.095   5.843   6.610
   38POPC    HA 5064   3.088   5.829   6.720
   38POPC    HB 5065   3.185   5.784   6.581
   38POPC    C2 5066   2.958   5.778   6.565
   38POPC    HS 5067   2.931   5.811   6.462
   38POPC   O21 5068   2.857   5.817   6.660
   38POPC   C21 5069   2.736   5.795   6.617
   38POPC   O22 5070   2.695   5.749   6.513
   38POPC   C22 5071   2.636   5.824   6.730
   38POPC   H2R 5072   2.585   5.727   6.747
   38POPC   H2S 5073   2.544   5.875   6.693
   38POPC    C3 5074   2.966   5.621   6.563
   38POPC    HX 5075   3.036   5.604   6.478
   38POPC    HY 5076   2.870   5.572   6.538
   38POPC   O31 5077   3.016   5.560   6.682
   38POPC   C31 5078   2.937   5.541   6.786
   38POPC   O32 5079   2.813   5.550   6.788
   38POPC   C32 5080   3.025   5.507   6.907
   38POPC   H2X 5081   3.125   5.556   6.900
   38POPC   H2Y 5082   3.044   5.398   6.910
   38POPC   C23 5083   2.682   5.890   6.864
   38POPC   H3R 5084   2.696   6.000   6.858
   38POPC   H3S 5085   2.782   5.848   6.889
   38POPC   C24 5086   2.577   5.868   6.971
   38POPC   H4R 5087   2.596   5.771   7.022
   38POPC   H4S 5088   2.479   5.884   6.921
   38POPC   C25 5089   2.587   5.964   7.090
   38POPC   H5R 5090   2.496   5.938   7.149
   38POPC   H5S 5091   2.574   6.072   7.069
   38POPC   C26 5092   2.712   5.927   7.180
   38POPC   H6R 5093   2.804   5.959   7.126
   38POPC   H6S 5094   2.719   5.816   7.176
   38POPC   C27 5095   2.703   5.985   7.324
   38POPC   H7R 5096   2.598   5.966   7.355
   38POPC   H7S 5097   2.720   6.094   7.327
   38POPC   C28 5098   2.790   5.929   7.430
   38POPC   H8R 5099   2.842   6.010   7.485
   38POPC   H8S 5100   2.874   5.877   7.378
   38POPC   C29 5101   2.728   5.821   7.520
   38POPC   H91 5102   2.736   5.721   7.473
   38POPC  C210 5103   2.691   5.836   7.650
   38POPC  H101 5104   2.660   5.745   7.703
   38POPC  C211 5105   2.682   5.966   7.726
   38POPC  H11R 5106   2.582   5.978   7.773
   38POPC  H11S 5107   2.698   6.055   7.662
   38POPC  C212 5108   2.790   5.967   7.834
   38POPC  H12R 5109   2.890   5.954   7.787
   38POPC  H12S 5110   2.767   5.879   7.897
   38POPC  C213 5111   2.785   6.098   7.918
   38POPC  H13R 5112   2.684   6.112   7.963
   38POPC  H13S 5113   2.823   6.186   7.863
   38POPC  C214 5114   2.876   6.079   8.042
   38POPC  H14R 5115   2.971   6.043   7.997
   38POPC  H14S 5116   2.818   6.001   8.096
   38POPC  C215 5117   2.892   6.204   8.136
   38POPC  H15R 5118   2.847   6.297   8.095
   38POPC  H15S 5119   3.002   6.215   8.148
   38POPC  C216 5120   2.840   6.165   8.280
   38POPC  H16R 5121   2.865   6.059   8.298
   38POPC  H16S 5122   2.730   6.148   8.273
   38POPC  C217 5123   2.885   6.242   8.396
   38POPC  H17R 5124   2.831   6.339   8.397
   38POPC  H17S 5125   2.993   6.259   8.373
   38POPC  C218 5126   2.866   6.163   8.526
   38POPC  H18R 5127   2.812   6.221   8.604
   38POPC  H18S 5128   2.959   6.142   8.582
   38POPC  H18T 5129   2.818   6.063   8.520
   38POPC   C33 5130   2.964   5.546   7.044
   38POPC   H3X 5131   2.878   5.476   7.056
   38POPC   H3Y 5132   2.930   5.652   7.049
   38POPC   C34 5133   3.062   5.534   7.151
   38POPC   H4X 5134   3.161   5.584   7.144
   38POPC   H4Y 5135   3.095   5.428   7.143
   38POPC   C35 5136   3.005   5.553   7.292
   38POPC   H5X 5137   2.929   5.480   7.329
   38POPC   H5Y 5138   2.946   5.646   7.305
   38POPC   C36 5139   3.123   5.556   7.396
   38POPC   H6X 5140   3.202   5.622   7.356
   38POPC   H6Y 5141   3.177   5.459   7.405
   38POPC   C37 5142   3.067   5.599   7.533
   38POPC   H7X 5143   3.017   5.515   7.585
   38POPC   H7Y 5144   2.998   5.684   7.512
   38POPC   C38 5145   3.175   5.632   7.638
   38POPC   H8X 5146   3.236   5.714   7.595
   38POPC   H8Y 5147   3.240   5.542   7.647
   38POPC   C39 5148   3.114   5.671   7.776
   38POPC   H9X 5149   3.071   5.772   7.756
   38POPC   H9Y 5150   3.195   5.690   7.849
   38POPC  C310 5151   3.016   5.571   7.840
   38POPC  H10X 5152   3.056   5.467   7.837
   38POPC  H10Y 5153   2.923   5.573   7.780
   38POPC  C311 5154   2.976   5.612   7.981
   38POPC  H11X 5155   2.920   5.707   7.972
   38POPC  H11Y 5156   3.071   5.631   8.037
   38POPC  C312 5157   2.898   5.513   8.064
   38POPC  H12X 5158   2.810   5.482   8.004
   38POPC  H12Y 5159   2.865   5.579   8.147
   38POPC  C313 5160   2.974   5.388   8.113
   38POPC  H13X 5161   3.018   5.335   8.026
   38POPC  H13Y 5162   2.897   5.327   8.166
   38POPC  C314 5163   3.081   5.422   8.219
   38POPC  H14X 5164   3.042   5.511   8.272
   38POPC  H14Y 5165   3.175   5.450   8.166
   38POPC  C315 5166   3.122   5.313   8.314
   38POPC  H15X 5167   3.166   5.225   8.262
   38POPC  H15Y 5168   3.035   5.280   8.375
   38POPC  C316 5169   3.230   5.364   8.408
   38POPC  H16X 5170   3.320   5.401   8.354
   38POPC  H16Y 5171   3.263   5.297   8.491
   38POPC  H16Z 5172   3.183   5.447   8.465
   39POPC     N 5173   6.200   3.494   5.886
   39POPC   C12 5174   6.087   3.400   5.905
   39POPC  H12A 5175   6.014   3.425   5.828
   39POPC  H12B 5176   6.037   3.409   6.000
   39POPC   C13 5177   6.308   3.468   5.983
   39POPC  H13A 5178   6.387   3.541   5.986
   39POPC  H13B 5179   6.271   3.457   6.085
   39POPC  H13C 5180   6.357   3.374   5.962
   39POPC   C14 5181   6.245   3.490   5.745
   39POPC  H14A 5182   6.157   3.500   5.683
   39POPC  H14B 5183   6.304   3.580   5.741
   39POPC  H14C 5184   6.299   3.398   5.728
   39POPC   C15 5185   6.150   3.635   5.906
   39POPC  H15A 5186   6.083   3.646   5.991
   39POPC  H15B 5187   6.079   3.653   5.827
   39POPC  H15C 5188   6.235   3.700   5.898
   39POPC   C11 5189   6.117   3.245   5.894
   39POPC  H11A 5190   6.159   3.219   5.794
   39POPC  H11B 5191   6.020   3.190   5.892
   39POPC     P 5192   6.164   3.161   6.135
   39POPC   O13 5193   6.233   3.036   6.175
   39POPC   O14 5194   6.015   3.170   6.147
   39POPC   O12 5195   6.212   3.203   5.995
   39POPC   O11 5196   6.222   3.270   6.231
   39POPC    C1 5197   6.356   3.279   6.266
   39POPC    HA 5198   6.390   3.383   6.247
   39POPC    HB 5199   6.424   3.215   6.205
   39POPC    C2 5200   6.383   3.258   6.417
   39POPC    HS 5201   6.366   3.151   6.439
   39POPC   O21 5202   6.293   3.345   6.486
   39POPC   C21 5203   6.250   3.296   6.593
   39POPC   O22 5204   6.299   3.207   6.661
   39POPC   C22 5205   6.118   3.378   6.641
   39POPC   H2R 5206   6.048   3.384   6.555
   39POPC   H2S 5207   6.154   3.480   6.668
   39POPC    C3 5208   6.531   3.299   6.450
   39POPC    HX 5209   6.557   3.403   6.420
   39POPC    HY 5210   6.600   3.231   6.394
   39POPC   O31 5211   6.555   3.297   6.588
   39POPC   C31 5212   6.597   3.192   6.648
   39POPC   O32 5213   6.626   3.090   6.588
   39POPC   C32 5214   6.609   3.199   6.799
   39POPC   H2X 5215   6.708   3.246   6.816
   39POPC   H2Y 5216   6.535   3.273   6.837
   39POPC   C23 5217   6.054   3.327   6.773
   39POPC   H3R 5218   6.135   3.318   6.849
   39POPC   H3S 5219   6.014   3.224   6.764
   39POPC   C24 5220   5.953   3.420   6.842
   39POPC   H4R 5221   5.850   3.429   6.801
   39POPC   H4S 5222   6.002   3.520   6.839
   39POPC   C25 5223   5.935   3.389   6.989
   39POPC   H5R 5224   6.036   3.380   7.033
   39POPC   H5S 5225   5.879   3.294   7.000
   39POPC   C26 5226   5.844   3.496   7.061
   39POPC   H6R 5227   5.738   3.483   7.030
   39POPC   H6S 5228   5.872   3.594   7.018
   39POPC   C27 5229   5.851   3.481   7.214
   39POPC   H7R 5230   5.834   3.582   7.257
   39POPC   H7S 5231   5.954   3.443   7.232
   39POPC   C28 5232   5.762   3.377   7.278
   39POPC   H8R 5233   5.789   3.373   7.386
   39POPC   H8S 5234   5.789   3.277   7.238
   39POPC   C29 5235   5.618   3.414   7.257
   39POPC   H91 5236   5.579   3.410   7.154
   39POPC  C210 5237   5.545   3.471   7.355
   39POPC  H101 5238   5.437   3.477   7.335
   39POPC  C211 5239   5.580   3.489   7.499
   39POPC  H11R 5240   5.528   3.578   7.540
   39POPC  H11S 5241   5.686   3.517   7.514
   39POPC  C212 5242   5.535   3.390   7.606
   39POPC  H12R 5243   5.582   3.291   7.585
   39POPC  H12S 5244   5.431   3.358   7.582
   39POPC  C213 5245   5.539   3.440   7.751
   39POPC  H13R 5246   5.482   3.535   7.760
   39POPC  H13S 5247   5.642   3.466   7.781
   39POPC  C214 5248   5.482   3.339   7.851
   39POPC  H14R 5249   5.544   3.249   7.872
   39POPC  H14S 5250   5.391   3.284   7.821
   39POPC  C215 5251   5.461   3.403   7.983
   39POPC  H15R 5252   5.396   3.494   7.985
   39POPC  H15S 5253   5.558   3.448   8.017
   39POPC  C216 5254   5.413   3.308   8.089
   39POPC  H16R 5255   5.482   3.221   8.094
   39POPC  H16S 5256   5.321   3.260   8.049
   39POPC  C217 5257   5.394   3.373   8.220
   39POPC  H17R 5258   5.312   3.326   8.279
   39POPC  H17S 5259   5.356   3.477   8.211
   39POPC  C218 5260   5.522   3.362   8.308
   39POPC  H18R 5261   5.510   3.418   8.403
   39POPC  H18S 5262   5.608   3.405   8.252
   39POPC  H18T 5263   5.543   3.255   8.327
   39POPC   C33 5264   6.568   3.079   6.879
   39POPC   H3X 5265   6.643   2.998   6.868
   39POPC   H3Y 5266   6.463   3.047   6.861
   39POPC   C34 5267   6.550   3.116   7.032
   39POPC   H4X 5268   6.474   3.197   7.037
   39POPC   H4Y 5269   6.637   3.168   7.076
   39POPC   C35 5270   6.502   3.001   7.119
   39POPC   H5X 5271   6.580   2.923   7.122
   39POPC   H5Y 5272   6.417   2.949   7.070
   39POPC   C36 5273   6.465   3.057   7.261
   39POPC   H6X 5274   6.387   3.134   7.240
   39POPC   H6Y 5275   6.560   3.097   7.302
   39POPC   C37 5276   6.423   2.963   7.376
   39POPC   H7X 5277   6.508   2.894   7.392
   39POPC   H7Y 5278   6.333   2.904   7.347
   39POPC   C38 5279   6.387   3.029   7.511
   39POPC   H8X 5280   6.303   3.101   7.507
   39POPC   H8Y 5281   6.479   3.085   7.538
   39POPC   C39 5282   6.362   2.926   7.625
   39POPC   H9X 5283   6.448   2.856   7.626
   39POPC   H9Y 5284   6.264   2.876   7.609
   39POPC  C310 5285   6.353   2.993   7.766
   39POPC  H10X 5286   6.258   3.052   7.763
   39POPC  H10Y 5287   6.442   3.054   7.790
   39POPC  C311 5288   6.357   2.895   7.885
   39POPC  H11X 5289   6.461   2.871   7.917
   39POPC  H11Y 5290   6.305   2.801   7.857
   39POPC  C312 5291   6.278   2.954   8.003
   39POPC  H12X 5292   6.172   2.976   7.976
   39POPC  H12Y 5293   6.320   3.052   8.034
   39POPC  C313 5294   6.277   2.882   8.137
   39POPC  H13X 5295   6.379   2.876   8.182
   39POPC  H13Y 5296   6.231   2.782   8.126
   39POPC  C314 5297   6.185   2.946   8.244
   39POPC  H14X 5298   6.100   2.997   8.193
   39POPC  H14Y 5299   6.251   3.019   8.296
   39POPC  C315 5300   6.130   2.856   8.355
   39POPC  H15X 5301   6.092   2.912   8.443
   39POPC  H15Y 5302   6.212   2.791   8.392
   39POPC  C316 5303   6.013   2.764   8.320
   39POPC  H16X 5304   6.047   2.679   8.257
   39POPC  H16Y 5305   5.933   2.817   8.264
   39POPC  H16Z 5306   5.977   2.723   8.417
   40POPC     N 5307   5.023   0.528   6.102
   40POPC   C12 5308   5.062   0.514   6.251
   40POPC  H12A 5309   4.976   0.483   6.309
   40POPC  H12B 5310   5.080   0.616   6.282
   40POPC   C13 5311   5.136   0.585   6.019
   40POPC  H13A 5312   5.226   0.525   6.022
   40POPC  H13B 5313   5.106   0.597   5.916
   40POPC  H13C 5314   5.156   0.685   6.055
   40POPC   C14 5315   4.998   0.392   6.039
   40POPC  H14A 5316   4.921   0.339   6.092
   40POPC  H14B 5317   4.990   0.403   5.932
   40POPC  H14C 5318   5.089   0.335   6.046
   40POPC   C15 5319   4.907   0.615   6.089
   40POPC  H15A 5320   4.924   0.718   6.115
   40POPC  H15B 5321   4.822   0.581   6.147
   40POPC  H15C 5322   4.869   0.622   5.988
   40POPC   C11 5323   5.181   0.425   6.287
   40POPC  H11A 5324   5.180   0.338   6.218
   40POPC  H11B 5325   5.172   0.385   6.391
   40POPC     P 5326   5.359   0.598   6.372
   40POPC   O13 5327   5.408   0.719   6.306
   40POPC   O14 5328   5.454   0.524   6.452
   40POPC   O12 5329   5.299   0.497   6.264
   40POPC   O11 5330   5.234   0.644   6.465
   40POPC    C1 5331   5.216   0.774   6.519
   40POPC    HA 5332   5.108   0.794   6.539
   40POPC    HB 5333   5.244   0.845   6.438
   40POPC    C2 5334   5.301   0.797   6.643
   40POPC    HS 5335   5.405   0.760   6.629
   40POPC   O21 5336   5.225   0.751   6.756
   40POPC   C21 5337   5.295   0.673   6.840
   40POPC   O22 5338   5.406   0.628   6.820
   40POPC   C22 5339   5.220   0.672   6.967
   40POPC   H2R 5340   5.250   0.598   7.044
   40POPC   H2S 5341   5.114   0.647   6.946
   40POPC    C3 5342   5.328   0.950   6.666
   40POPC    HX 5343   5.231   0.986   6.706
   40POPC    HY 5344   5.347   1.007   6.572
   40POPC   O31 5345   5.417   0.983   6.770
   40POPC   C31 5346   5.533   1.036   6.733
   40POPC   O32 5347   5.580   1.034   6.620
   40POPC   C32 5348   5.614   1.078   6.857
   40POPC   H2X 5349   5.558   1.163   6.902
   40POPC   H2Y 5350   5.712   1.115   6.818
   40POPC   C23 5351   5.221   0.805   7.045
   40POPC   H3R 5352   5.123   0.840   7.083
   40POPC   H3S 5353   5.267   0.888   6.987
   40POPC   C24 5354   5.313   0.798   7.164
   40POPC   H4R 5355   5.340   0.901   7.196
   40POPC   H4S 5356   5.410   0.743   7.159
   40POPC   C25 5357   5.234   0.741   7.289
   40POPC   H5R 5358   5.196   0.641   7.257
   40POPC   H5S 5359   5.147   0.811   7.296
   40POPC   C26 5360   5.301   0.730   7.426
   40POPC   H6R 5361   5.344   0.831   7.445
   40POPC   H6S 5362   5.387   0.661   7.429
   40POPC   C27 5363   5.210   0.696   7.540
   40POPC   H7R 5364   5.193   0.588   7.556
   40POPC   H7S 5365   5.107   0.732   7.521
   40POPC   C28 5366   5.246   0.762   7.674
   40POPC   H8R 5367   5.250   0.873   7.667
   40POPC   H8S 5368   5.354   0.739   7.684
   40POPC   C29 5369   5.155   0.725   7.789
   40POPC   H91 5370   5.051   0.760   7.792
   40POPC  C210 5371   5.199   0.638   7.884
   40POPC  H101 5372   5.126   0.617   7.964
   40POPC  C211 5373   5.332   0.579   7.895
   40POPC  H11R 5374   5.413   0.634   7.844
   40POPC  H11S 5375   5.328   0.482   7.842
   40POPC  C212 5376   5.374   0.561   8.044
   40POPC  H12R 5377   5.316   0.474   8.085
   40POPC  H12S 5378   5.341   0.643   8.111
   40POPC  C213 5379   5.524   0.534   8.069
   40POPC  H13R 5380   5.589   0.623   8.065
   40POPC  H13S 5381   5.553   0.460   7.991
   40POPC  C214 5382   5.548   0.473   8.206
   40POPC  H14R 5383   5.657   0.469   8.227
   40POPC  H14S 5384   5.506   0.370   8.205
   40POPC  C215 5385   5.483   0.546   8.320
   40POPC  H15R 5386   5.455   0.471   8.399
   40POPC  H15S 5387   5.380   0.574   8.289
   40POPC  C216 5388   5.572   0.657   8.380
   40POPC  H16R 5389   5.592   0.741   8.312
   40POPC  H16S 5390   5.672   0.619   8.409
   40POPC  C217 5391   5.505   0.718   8.501
   40POPC  H17R 5392   5.516   0.649   8.587
   40POPC  H17S 5393   5.394   0.716   8.493
   40POPC  C218 5394   5.545   0.863   8.535
   40POPC  H18R 5395   5.492   0.932   8.466
   40POPC  H18S 5396   5.652   0.892   8.525
   40POPC  H18T 5397   5.510   0.894   8.636
   40POPC   C33 5398   5.633   0.971   6.967
   40POPC   H3X 5399   5.728   0.916   6.952
   40POPC   H3Y 5400   5.545   0.904   6.975
   40POPC   C34 5401   5.646   1.026   7.115
   40POPC   H4X 5402   5.551   1.059   7.163
   40POPC   H4Y 5403   5.712   1.115   7.111
   40POPC   C35 5404   5.713   0.918   7.210
   40POPC   H5X 5405   5.811   0.885   7.171
   40POPC   H5Y 5406   5.650   0.826   7.208
   40POPC   C36 5407   5.720   0.955   7.358
   40POPC   H6X 5408   5.630   1.018   7.374
   40POPC   H6Y 5409   5.813   1.005   7.392
   40POPC   C37 5410   5.703   0.836   7.452
   40POPC   H7X 5411   5.781   0.759   7.433
   40POPC   H7Y 5412   5.605   0.787   7.430
   40POPC   C38 5413   5.708   0.878   7.599
   40POPC   H8X 5414   5.622   0.943   7.622
   40POPC   H8Y 5415   5.802   0.930   7.625
   40POPC   C39 5416   5.674   0.755   7.691
   40POPC   H9X 5417   5.738   0.675   7.649
   40POPC   H9Y 5418   5.569   0.724   7.668
   40POPC  C310 5419   5.702   0.792   7.836
   40POPC  H10X 5420   5.811   0.812   7.846
   40POPC  H10Y 5421   5.693   0.701   7.899
   40POPC  C311 5422   5.618   0.902   7.890
   40POPC  H11X 5423   5.509   0.878   7.883
   40POPC  H11Y 5424   5.630   0.990   7.823
   40POPC  C312 5425   5.648   0.945   8.038
   40POPC  H12X 5426   5.750   0.987   8.039
   40POPC  H12Y 5427   5.644   0.855   8.104
   40POPC  C313 5428   5.545   1.047   8.093
   40POPC  H13X 5429   5.438   1.020   8.100
   40POPC  H13Y 5430   5.536   1.139   8.031
   40POPC  C314 5431   5.574   1.100   8.230
   40POPC  H14X 5432   5.674   1.146   8.239
   40POPC  H14Y 5433   5.561   1.024   8.311
   40POPC  C315 5434   5.467   1.212   8.270
   40POPC  H15X 5435   5.368   1.162   8.268
   40POPC  H15Y 5436   5.453   1.287   8.189
   40POPC  C316 5437   5.494   1.264   8.404
   40POPC  H16X 5438   5.408   1.324   8.441
   40POPC  H16Y 5439   5.593   1.316   8.405
   40POPC  H16Z 5440   5.511   1.180   8.475
   41CHL1    C3 5441   4.234   3.810  10.111
   41CHL1    H3 5442   4.342   3.795  10.090
   41CHL1    O3 5443   4.229   3.756  10.244
   41CHL1   H3' 5444   4.144   3.777  10.283
   41CHL1    C4 5445   4.203   3.958  10.116
   41CHL1   H4A 5446   4.101   3.983  10.152
   41CHL1   H4B 5447   4.276   4.009  10.183
   41CHL1    C5 5448   4.220   4.026   9.978
   41CHL1    C6 5449   4.310   4.123   9.957
   41CHL1    H6 5450   4.355   4.169  10.045
   41CHL1    C7 5451   4.332   4.191   9.823
   41CHL1   H7A 5452   4.325   4.302   9.834
   41CHL1   H7B 5453   4.433   4.158   9.789
   41CHL1    C8 5454   4.229   4.153   9.715
   41CHL1    H8 5455   4.136   4.213   9.732
   41CHL1   C14 5456   4.281   4.181   9.572
   41CHL1   H14 5457   4.367   4.112   9.559
   41CHL1   C15 5458   4.339   4.324   9.530
   41CHL1  H15A 5459   4.292   4.411   9.581
   41CHL1  H15B 5460   4.445   4.310   9.558
   41CHL1   C16 5461   4.324   4.335   9.376
   41CHL1  H16A 5462   4.255   4.418   9.350
   41CHL1  H16B 5463   4.422   4.347   9.325
   41CHL1   C17 5464   4.258   4.199   9.336
   41CHL1   H17 5465   4.341   4.126   9.327
   41CHL1   C13 5466   4.179   4.144   9.456
   41CHL1   C18 5467   4.048   4.229   9.469
   41CHL1  H18A 5468   4.005   4.204   9.568
   41CHL1  H18B 5469   4.084   4.335   9.469
   41CHL1  H18C 5470   3.969   4.210   9.393
   41CHL1   C12 5471   4.141   3.996   9.459
   41CHL1  H12A 5472   4.057   3.972   9.390
   41CHL1  H12B 5473   4.232   3.935   9.441
   41CHL1   C11 5474   4.099   3.952   9.604
   41CHL1  H11A 5475   3.998   3.992   9.628
   41CHL1  H11B 5476   4.097   3.841   9.603
   41CHL1    C9 5477   4.197   4.001   9.718
   41CHL1    H9 5478   4.290   3.944   9.695
   41CHL1   C10 5479   4.151   3.955   9.860
   41CHL1   C19 5480   4.000   3.985   9.881
   41CHL1  H19A 5481   3.985   4.093   9.858
   41CHL1  H19B 5482   3.937   3.917   9.819
   41CHL1  H19C 5483   3.971   3.961   9.985
   41CHL1    C1 5484   4.182   3.805   9.871
   41CHL1   H1A 5485   4.120   3.753   9.795
   41CHL1   H1B 5486   4.292   3.787   9.866
   41CHL1    C2 5487   4.144   3.740  10.009
   41CHL1   H2A 5488   4.174   3.633  10.007
   41CHL1   H2B 5489   4.036   3.738  10.032
   41CHL1   C20 5490   4.192   4.209   9.198
   41CHL1   H20 5491   4.095   4.260   9.214
   41CHL1   C21 5492   4.182   4.074   9.132
   41CHL1  H21A 5493   4.285   4.040   9.110
   41CHL1  H21B 5494   4.116   4.089   9.044
   41CHL1  H21C 5495   4.142   3.996   9.201
   41CHL1   C22 5496   4.249   4.312   9.099
   41CHL1  H22A 5497   4.199   4.318   9.000
   41CHL1  H22B 5498   4.249   4.411   9.149
   41CHL1   C23 5499   4.391   4.278   9.041
   41CHL1  H23A 5500   4.435   4.379   9.027
   41CHL1  H23B 5501   4.458   4.225   9.113
   41CHL1   C24 5502   4.393   4.204   8.905
   41CHL1  H24A 5503   4.328   4.114   8.911
   41CHL1  H24B 5504   4.337   4.263   8.830
   41CHL1   C25 5505   4.534   4.189   8.846
   41CHL1   H25 5506   4.594   4.134   8.922
   41CHL1   C26 5507   4.522   4.110   8.715
   41CHL1  H26A 5508   4.455   4.166   8.646
   41CHL1  H26B 5509   4.622   4.100   8.667
   41CHL1  H26C 5510   4.476   4.010   8.731
   41CHL1   C27 5511   4.605   4.328   8.824
   41CHL1  H27A 5512   4.619   4.381   8.920
   41CHL1  H27B 5513   4.701   4.303   8.775
   41CHL1  H27C 5514   4.548   4.388   8.750
   42CHL1    C3 5515   3.804   3.482   9.781
   42CHL1    H3 5516   3.840   3.384   9.745
   42CHL1    O3 5517   3.791   3.479   9.920
   42CHL1   H3' 5518   3.751   3.565   9.934
   42CHL1    C4 5519   3.902   3.587   9.737
   42CHL1   H4A 5520   3.884   3.685   9.787
   42CHL1   H4B 5521   3.993   3.538   9.777
   42CHL1    C5 5522   3.908   3.602   9.585
   42CHL1    C6 5523   4.031   3.587   9.528
   42CHL1    H6 5524   4.120   3.572   9.592
   42CHL1    C7 5525   4.057   3.603   9.380
   42CHL1   H7A 5526   4.142   3.666   9.349
   42CHL1   H7B 5527   4.078   3.505   9.334
   42CHL1    C8 5528   3.933   3.664   9.308
   42CHL1    H8 5529   3.940   3.772   9.333
   42CHL1   C14 5530   3.937   3.650   9.157
   42CHL1   H14 5531   3.913   3.543   9.135
   42CHL1   C15 5532   4.061   3.692   9.074
   42CHL1  H15A 5533   4.097   3.792   9.106
   42CHL1  H15B 5534   4.149   3.624   9.072
   42CHL1   C16 5535   4.011   3.702   8.926
   42CHL1  H16A 5536   4.031   3.801   8.879
   42CHL1  H16B 5537   4.063   3.619   8.873
   42CHL1   C17 5538   3.856   3.673   8.932
   42CHL1   H17 5539   3.833   3.565   8.925
   42CHL1   C13 5540   3.823   3.712   9.081
   42CHL1   C18 5541   3.826   3.865   9.095
   42CHL1  H18A 5542   3.739   3.918   9.051
   42CHL1  H18B 5543   3.837   3.892   9.202
   42CHL1  H18C 5544   3.906   3.915   9.037
   42CHL1   C12 5545   3.698   3.637   9.128
   42CHL1  H12A 5546   3.604   3.662   9.074
   42CHL1  H12B 5547   3.715   3.528   9.114
   42CHL1   C11 5548   3.679   3.663   9.281
   42CHL1  H11A 5549   3.677   3.773   9.294
   42CHL1  H11B 5550   3.582   3.610   9.298
   42CHL1    C9 5551   3.803   3.609   9.362
   42CHL1    H9 5552   3.810   3.499   9.350
   42CHL1   C10 5553   3.774   3.624   9.512
   42CHL1   C19 5554   3.738   3.770   9.539
   42CHL1  H19A 5555   3.635   3.792   9.504
   42CHL1  H19B 5556   3.742   3.800   9.646
   42CHL1  H19C 5557   3.808   3.839   9.487
   42CHL1    C1 5558   3.672   3.517   9.562
   42CHL1   H1A 5559   3.567   3.520   9.527
   42CHL1   H1B 5560   3.710   3.417   9.532
   42CHL1    C2 5561   3.664   3.519   9.721
   42CHL1   H2A 5562   3.587   3.442   9.742
   42CHL1   H2B 5563   3.638   3.623   9.753
   42CHL1   C20 5564   3.785   3.737   8.813
   42CHL1   H20 5565   3.803   3.847   8.810
   42CHL1   C21 5566   3.629   3.732   8.826
   42CHL1  H21A 5567   3.596   3.786   8.917
   42CHL1  H21B 5568   3.595   3.627   8.839
   42CHL1  H21C 5569   3.588   3.770   8.730
   42CHL1   C22 5570   3.821   3.689   8.671
   42CHL1  H22A 5571   3.752   3.742   8.604
   42CHL1  H22B 5572   3.927   3.706   8.640
   42CHL1   C23 5573   3.804   3.531   8.659
   42CHL1  H23A 5574   3.879   3.478   8.723
   42CHL1  H23B 5575   3.699   3.504   8.684
   42CHL1   C24 5576   3.825   3.471   8.518
   42CHL1  H24A 5577   3.742   3.516   8.460
   42CHL1  H24B 5578   3.920   3.510   8.475
   42CHL1   C25 5579   3.821   3.324   8.506
   42CHL1   H25 5580   3.721   3.305   8.550
   42CHL1   C26 5581   3.817   3.281   8.355
   42CHL1  H26A 5582   3.915   3.298   8.305
   42CHL1  H26B 5583   3.793   3.173   8.342
   42CHL1  H26C 5584   3.753   3.347   8.293
   42CHL1   C27 5585   3.930   3.248   8.582
   42CHL1  H27A 5586   3.905   3.139   8.577
   42CHL1  H27B 5587   4.028   3.248   8.530
   42CHL1  H27C 5588   3.935   3.284   8.687
   43CHL1    C3 5589   4.662   3.530   9.978
   43CHL1    H3 5590   4.764   3.575   9.975
   43CHL1    O3 5591   4.637   3.492  10.112
   43CHL1   H3' 5592   4.546   3.518  10.132
   43CHL1    C4 5593   4.550   3.617   9.912
   43CHL1   H4A 5594   4.446   3.584   9.930
   43CHL1   H4B 5595   4.566   3.715   9.963
   43CHL1    C5 5596   4.558   3.639   9.763
   43CHL1    C6 5597   4.557   3.767   9.717
   43CHL1    H6 5598   4.557   3.850   9.789
   43CHL1    C7 5599   4.571   3.812   9.573
   43CHL1   H7A 5600   4.489   3.885   9.557
   43CHL1   H7B 5601   4.671   3.858   9.556
   43CHL1    C8 5602   4.538   3.688   9.487
   43CHL1    H8 5603   4.428   3.674   9.481
   43CHL1   C14 5604   4.575   3.713   9.339
   43CHL1   H14 5605   4.685   3.725   9.346
   43CHL1   C15 5606   4.527   3.846   9.279
   43CHL1  H15A 5607   4.417   3.846   9.293
   43CHL1  H15B 5608   4.575   3.939   9.319
   43CHL1   C16 5609   4.551   3.821   9.130
   43CHL1  H16A 5610   4.458   3.827   9.071
   43CHL1  H16B 5611   4.628   3.887   9.083
   43CHL1   C17 5612   4.612   3.682   9.124
   43CHL1   H17 5613   4.717   3.705   9.152
   43CHL1   C13 5614   4.550   3.599   9.239
   43CHL1   C18 5615   4.397   3.576   9.221
   43CHL1  H18A 5616   4.390   3.503   9.137
   43CHL1  H18B 5617   4.338   3.551   9.311
   43CHL1  H18C 5618   4.357   3.670   9.177
   43CHL1   C12 5619   4.624   3.469   9.283
   43CHL1  H12A 5620   4.597   3.384   9.216
   43CHL1  H12B 5621   4.730   3.500   9.286
   43CHL1   C11 5622   4.585   3.433   9.423
   43CHL1  H11A 5623   4.478   3.407   9.441
   43CHL1  H11B 5624   4.643   3.347   9.463
   43CHL1    C9 5625   4.609   3.555   9.531
   43CHL1    H9 5626   4.717   3.579   9.525
   43CHL1   C10 5627   4.578   3.513   9.681
   43CHL1   C19 5628   4.445   3.435   9.689
   43CHL1  H19A 5629   4.379   3.473   9.608
   43CHL1  H19B 5630   4.453   3.327   9.667
   43CHL1  H19C 5631   4.388   3.444   9.783
   43CHL1    C1 5632   4.690   3.435   9.748
   43CHL1   H1A 5633   4.697   3.336   9.699
   43CHL1   H1B 5634   4.789   3.481   9.726
   43CHL1    C2 5635   4.677   3.406   9.893
   43CHL1   H2A 5636   4.766   3.350   9.931
   43CHL1   H2B 5637   4.593   3.337   9.913
   43CHL1   C20 5638   4.628   3.621   8.982
   43CHL1   H20 5639   4.639   3.512   9.003
   43CHL1   C21 5640   4.760   3.674   8.916
   43CHL1  H21A 5641   4.844   3.659   8.986
   43CHL1  H21B 5642   4.759   3.781   8.888
   43CHL1  H21C 5643   4.783   3.618   8.823
   43CHL1   C22 5644   4.512   3.641   8.878
   43CHL1  H22A 5645   4.414   3.617   8.923
   43CHL1  H22B 5646   4.508   3.746   8.843
   43CHL1   C23 5647   4.523   3.549   8.759
   43CHL1  H23A 5648   4.606   3.590   8.699
   43CHL1  H23B 5649   4.534   3.440   8.779
   43CHL1   C24 5650   4.396   3.565   8.675
   43CHL1  H24A 5651   4.315   3.522   8.737
   43CHL1  H24B 5652   4.372   3.673   8.673
   43CHL1   C25 5653   4.393   3.492   8.540
   43CHL1   H25 5654   4.416   3.386   8.561
   43CHL1   C26 5655   4.250   3.497   8.481
   43CHL1  H26A 5656   4.225   3.605   8.470
   43CHL1  H26B 5657   4.247   3.452   8.380
   43CHL1  H26C 5658   4.181   3.451   8.555
   43CHL1   C27 5659   4.489   3.553   8.433
   43CHL1  H27A 5660   4.593   3.527   8.462
   43CHL1  H27B 5661   4.469   3.515   8.331
   43CHL1  H27C 5662   4.472   3.663   8.426
   44CHL1    C3 5663   4.785   4.039  10.226
   44CHL1    H3 5664   4.844   3.951  10.191
   44CHL1    O3 5665   4.757   4.041  10.369
   44CHL1   H3' 5666   4.751   3.950  10.397
   44CHL1    C4 5667   4.873   4.163  10.199
   44CHL1   H4A 5668   4.829   4.253  10.246
   44CHL1   H4B 5669   4.963   4.142  10.261
   44CHL1    C5 5670   4.894   4.186  10.052
   44CHL1    C6 5671   5.015   4.200  10.000
   44CHL1    H6 5672   5.107   4.206  10.061
   44CHL1    C7 5673   5.050   4.224   9.853
   44CHL1   H7A 5674   5.133   4.297   9.841
   44CHL1   H7B 5675   5.088   4.127   9.814
   44CHL1    C8 5676   4.930   4.250   9.762
   44CHL1    H8 5677   4.899   4.355   9.779
   44CHL1   C14 5678   4.965   4.234   9.612
   44CHL1   H14 5679   5.005   4.130   9.605
   44CHL1   C15 5680   5.071   4.326   9.548
   44CHL1  H15A 5681   5.053   4.429   9.583
   44CHL1  H15B 5682   5.173   4.287   9.566
   44CHL1   C16 5683   5.041   4.319   9.394
   44CHL1  H16A 5684   5.017   4.424   9.367
   44CHL1  H16B 5685   5.134   4.298   9.336
   44CHL1   C17 5686   4.909   4.241   9.385
   44CHL1   H17 5687   4.948   4.137   9.379
   44CHL1   C13 5688   4.847   4.254   9.522
   44CHL1   C18 5689   4.786   4.400   9.527
   44CHL1  H18A 5690   4.775   4.425   9.635
   44CHL1  H18B 5691   4.850   4.476   9.477
   44CHL1  H18C 5692   4.695   4.405   9.463
   44CHL1   C12 5693   4.741   4.145   9.562
   44CHL1  H12A 5694   4.647   4.172   9.508
   44CHL1  H12B 5695   4.787   4.048   9.532
   44CHL1   C11 5696   4.698   4.159   9.710
   44CHL1  H11A 5697   4.642   4.252   9.733
   44CHL1  H11B 5698   4.625   4.081   9.739
   44CHL1    C9 5699   4.812   4.161   9.811
   44CHL1    H9 5700   4.852   4.058   9.800
   44CHL1   C10 5701   4.771   4.183   9.966
   44CHL1   C19 5702   4.687   4.316   9.980
   44CHL1  H19A 5703   4.678   4.350  10.085
   44CHL1  H19B 5704   4.726   4.400   9.919
   44CHL1  H19C 5705   4.586   4.308   9.934
   44CHL1    C1 5706   4.683   4.060  10.003
   44CHL1   H1A 5707   4.590   4.073   9.944
   44CHL1   H1B 5708   4.734   3.969   9.966
   44CHL1    C2 5709   4.654   4.039  10.151
   44CHL1   H2A 5710   4.603   3.940  10.160
   44CHL1   H2B 5711   4.574   4.112  10.176
   44CHL1   C20 5712   4.830   4.270   9.251
   44CHL1   H20 5713   4.790   4.373   9.254
   44CHL1   C21 5714   4.729   4.159   9.234
   44CHL1  H21A 5715   4.756   4.058   9.271
   44CHL1  H21B 5716   4.696   4.151   9.128
   44CHL1  H21C 5717   4.641   4.181   9.299
   44CHL1   C22 5718   4.920   4.281   9.130
   44CHL1  H22A 5719   4.851   4.298   9.044
   44CHL1  H22B 5720   4.993   4.366   9.131
   44CHL1   C23 5721   5.007   4.159   9.099
   44CHL1  H23A 5722   5.069   4.141   9.190
   44CHL1  H23B 5723   4.933   4.078   9.082
   44CHL1   C24 5724   5.100   4.187   8.980
   44CHL1  H24A 5725   5.153   4.282   9.000
   44CHL1  H24B 5726   5.179   4.111   8.961
   44CHL1   C25 5727   5.033   4.204   8.841
   44CHL1   H25 5728   4.966   4.293   8.848
   44CHL1   C26 5729   5.137   4.228   8.729
   44CHL1  H26A 5730   5.210   4.147   8.705
   44CHL1  H26B 5731   5.082   4.257   8.637
   44CHL1  H26C 5732   5.203   4.313   8.755
   44CHL1   C27 5733   4.950   4.078   8.807
   44CHL1  H27A 5734   5.014   3.990   8.780
   44CHL1  H27B 5735   4.886   4.046   8.891
   44CHL1  H27C 5736   4.882   4.104   8.723
   45CHL1    C3 5737   1.451   2.683  10.295
   45CHL1    H3 5738   1.541   2.676  10.360
   45CHL1    O3 5739   1.340   2.683  10.390
   45CHL1   H3' 5740   1.265   2.725  10.347
   45CHL1    C4 5741   1.457   2.821  10.220
   45CHL1   H4A 5742   1.355   2.849  10.186
   45CHL1   H4B 5743   1.488   2.886  10.305
   45CHL1    C5 5744   1.550   2.826  10.096
   45CHL1    C6 5745   1.652   2.915  10.088
   45CHL1    H6 5746   1.660   2.993  10.165
   45CHL1    C7 5747   1.745   2.925   9.971
   45CHL1   H7A 5748   1.723   3.026   9.931
   45CHL1   H7B 5749   1.852   2.925  10.001
   45CHL1    C8 5750   1.717   2.818   9.858
   45CHL1    H8 5751   1.819   2.806   9.816
   45CHL1   C14 5752   1.651   2.871   9.728
   45CHL1   H14 5753   1.552   2.913   9.755
   45CHL1   C15 5754   1.740   2.980   9.661
   45CHL1  H15A 5755   1.681   3.049   9.598
   45CHL1  H15B 5756   1.793   3.042   9.737
   45CHL1   C16 5757   1.836   2.908   9.560
   45CHL1  H16A 5758   1.852   2.980   9.478
   45CHL1  H16B 5759   1.940   2.896   9.598
   45CHL1   C17 5760   1.782   2.762   9.546
   45CHL1   H17 5761   1.833   2.705   9.626
   45CHL1   C13 5762   1.635   2.769   9.611
   45CHL1   C18 5763   1.529   2.828   9.513
   45CHL1  H18A 5764   1.457   2.883   9.577
   45CHL1  H18B 5765   1.560   2.905   9.439
   45CHL1  H18C 5766   1.476   2.746   9.461
   45CHL1   C12 5767   1.586   2.627   9.668
   45CHL1  H12A 5768   1.475   2.632   9.677
   45CHL1  H12B 5769   1.600   2.548   9.591
   45CHL1   C11 5770   1.665   2.589   9.800
   45CHL1  H11A 5771   1.618   2.494   9.834
   45CHL1  H11B 5772   1.769   2.559   9.775
   45CHL1    C9 5773   1.666   2.690   9.909
   45CHL1    H9 5774   1.748   2.660   9.979
   45CHL1   C10 5775   1.539   2.701  10.007
   45CHL1   C19 5776   1.411   2.693   9.929
   45CHL1  H19A 5777   1.330   2.730   9.995
   45CHL1  H19B 5778   1.407   2.769   9.848
   45CHL1  H19C 5779   1.391   2.589   9.896
   45CHL1    C1 5780   1.555   2.577  10.105
   45CHL1   H1A 5781   1.549   2.484  10.044
   45CHL1   H1B 5782   1.657   2.581  10.149
   45CHL1    C2 5783   1.443   2.569  10.202
   45CHL1   H2A 5784   1.442   2.473  10.258
   45CHL1   H2B 5785   1.345   2.577  10.152
   45CHL1   C20 5786   1.803   2.696   9.416
   45CHL1   H20 5787   1.700   2.679   9.376
   45CHL1   C21 5788   1.846   2.551   9.444
   45CHL1  H21A 5789   1.840   2.488   9.353
   45CHL1  H21B 5790   1.779   2.524   9.528
   45CHL1  H21C 5791   1.953   2.549   9.473
   45CHL1   C22 5792   1.890   2.761   9.301
   45CHL1  H22A 5793   1.982   2.808   9.343
   45CHL1  H22B 5794   1.922   2.681   9.231
   45CHL1   C23 5795   1.809   2.861   9.215
   45CHL1  H23A 5796   1.706   2.820   9.205
   45CHL1  H23B 5797   1.795   2.953   9.276
   45CHL1   C24 5798   1.875   2.885   9.076
   45CHL1  H24A 5799   1.982   2.917   9.081
   45CHL1  H24B 5800   1.885   2.788   9.024
   45CHL1   C25 5801   1.815   2.996   8.990
   45CHL1   H25 5802   1.815   3.093   9.045
   45CHL1   C26 5803   1.900   3.019   8.860
   45CHL1  H26A 5804   1.923   2.925   8.806
   45CHL1  H26B 5805   1.860   3.095   8.790
   45CHL1  H26C 5806   2.003   3.055   8.879
   45CHL1   C27 5807   1.671   2.974   8.939
   45CHL1  H27A 5808   1.623   3.049   8.873
   45CHL1  H27B 5809   1.677   2.884   8.874
   45CHL1  H27C 5810   1.601   2.952   9.023
   46CHL1    C3 5811   4.741   0.125  10.060
   46CHL1    H3 5812   4.822   0.068  10.010
   46CHL1    O3 5813   4.772   0.149  10.202
   46CHL1   H3' 5814   4.781   0.061  10.239
   46CHL1    C4 5815   4.743   0.262   9.990
   46CHL1   H4A 5816   4.658   0.317  10.035
   46CHL1   H4B 5817   4.837   0.316  10.014
   46CHL1    C5 5818   4.721   0.260   9.837
   46CHL1    C6 5819   4.812   0.305   9.755
   46CHL1    H6 5820   4.902   0.358   9.790
   46CHL1    C7 5821   4.811   0.288   9.606
   46CHL1   H7A 5822   4.824   0.383   9.550
   46CHL1   H7B 5823   4.894   0.222   9.575
   46CHL1    C8 5824   4.683   0.215   9.551
   46CHL1    H8 5825   4.609   0.295   9.533
   46CHL1   C14 5826   4.726   0.143   9.430
   46CHL1   H14 5827   4.797   0.065   9.465
   46CHL1   C15 5828   4.804   0.213   9.318
   46CHL1  H15A 5829   4.756   0.313   9.308
   46CHL1  H15B 5830   4.913   0.221   9.338
   46CHL1   C16 5831   4.786   0.125   9.193
   46CHL1  H16A 5832   4.745   0.187   9.111
   46CHL1  H16B 5833   4.883   0.077   9.166
   46CHL1   C17 5834   4.678   0.016   9.231
   46CHL1   H17 5835   4.731  -0.078   9.255
   46CHL1   C13 5836   4.607   0.078   9.356
   46CHL1   C18 5837   4.501   0.188   9.320
   46CHL1  H18A 5838   4.447   0.213   9.414
   46CHL1  H18B 5839   4.546   0.269   9.259
   46CHL1  H18C 5840   4.411   0.148   9.269
   46CHL1   C12 5841   4.549  -0.028   9.456
   46CHL1  H12A 5842   4.454  -0.075   9.423
   46CHL1  H12B 5843   4.622  -0.111   9.466
   46CHL1   C11 5844   4.507   0.030   9.593
   46CHL1  H11A 5845   4.413   0.089   9.589
   46CHL1  H11B 5846   4.491  -0.056   9.660
   46CHL1    C9 5847   4.626   0.110   9.647
   46CHL1    H9 5848   4.707   0.036   9.670
   46CHL1   C10 5849   4.603   0.172   9.795
   46CHL1   C19 5850   4.475   0.265   9.805
   46CHL1  H19A 5851   4.469   0.341   9.725
   46CHL1  H19B 5852   4.378   0.210   9.808
   46CHL1  H19C 5853   4.477   0.316   9.904
   46CHL1    C1 5854   4.587   0.038   9.884
   46CHL1   H1A 5855   4.478   0.019   9.873
   46CHL1   H1B 5856   4.644  -0.053   9.858
   46CHL1    C2 5857   4.604   0.053  10.039
   46CHL1   H2A 5858   4.608  -0.052  10.077
   46CHL1   H2B 5859   4.521   0.118  10.075
   46CHL1   C20 5860   4.591  -0.027   9.103
   46CHL1   H20 5861   4.530   0.056   9.060
   46CHL1   C21 5862   4.488  -0.124   9.153
   46CHL1  H21A 5863   4.404  -0.078   9.209
   46CHL1  H21B 5864   4.532  -0.201   9.220
   46CHL1  H21C 5865   4.450  -0.169   9.059
   46CHL1   C22 5866   4.678  -0.096   8.998
   46CHL1  H22A 5867   4.762  -0.028   8.974
   46CHL1  H22B 5868   4.716  -0.194   9.032
   46CHL1   C23 5869   4.611  -0.123   8.864
   46CHL1  H23A 5870   4.513  -0.175   8.878
   46CHL1  H23B 5871   4.593  -0.033   8.802
   46CHL1   C24 5872   4.706  -0.196   8.768
   46CHL1  H24A 5873   4.795  -0.132   8.779
   46CHL1  H24B 5874   4.734  -0.296   8.807
   46CHL1   C25 5875   4.651  -0.207   8.622
   46CHL1   H25 5876   4.552  -0.257   8.630
   46CHL1   C26 5877   4.640  -0.082   8.536
   46CHL1  H26A 5878   4.565  -0.012   8.579
   46CHL1  H26B 5879   4.739  -0.032   8.525
   46CHL1  H26C 5880   4.594  -0.110   8.438
   46CHL1   C27 5881   4.747  -0.296   8.530
   46CHL1  H27A 5882   4.837  -0.243   8.493
   46CHL1  H27B 5883   4.785  -0.382   8.590
   46CHL1  H27C 5884   4.697  -0.319   8.434
   47CHL1    C3 5885   5.198   3.623  10.061
   47CHL1    H3 5886   5.303   3.610  10.030
   47CHL1    O3 5887   5.203   3.604  10.203
   47CHL1   H3' 5888   5.116   3.570  10.226
   47CHL1    C4 5889   5.139   3.763  10.027
   47CHL1   H4A 5890   5.033   3.772  10.056
   47CHL1   H4B 5891   5.188   3.839  10.092
   47CHL1    C5 5892   5.144   3.791   9.878
   47CHL1    C6 5893   5.222   3.888   9.825
   47CHL1    H6 5894   5.290   3.946   9.889
   47CHL1    C7 5895   5.248   3.916   9.683
   47CHL1   H7A 5896   5.243   4.023   9.654
   47CHL1   H7B 5897   5.349   3.877   9.658
   47CHL1    C8 5898   5.147   3.833   9.594
   47CHL1    H8 5899   5.059   3.898   9.573
   47CHL1   C14 5900   5.206   3.822   9.452
   47CHL1   H14 5901   5.297   3.758   9.462
   47CHL1   C15 5902   5.244   3.948   9.380
   47CHL1  H15A 5903   5.164   4.018   9.413
   47CHL1  H15B 5904   5.344   3.985   9.412
   47CHL1   C16 5905   5.253   3.906   9.234
   47CHL1  H16A 5906   5.203   3.983   9.171
   47CHL1  H16B 5907   5.360   3.904   9.201
   47CHL1   C17 5908   5.202   3.765   9.227
   47CHL1   H17 5909   5.294   3.705   9.241
   47CHL1   C13 5910   5.119   3.748   9.356
   47CHL1   C18 5911   4.981   3.826   9.341
   47CHL1  H18A 5912   4.913   3.753   9.291
   47CHL1  H18B 5913   4.925   3.846   9.435
   47CHL1  H18C 5914   4.986   3.914   9.273
   47CHL1   C12 5915   5.087   3.604   9.407
   47CHL1  H12A 5916   5.019   3.555   9.333
   47CHL1  H12B 5917   5.184   3.550   9.400
   47CHL1   C11 5918   5.027   3.608   9.547
   47CHL1  H11A 5919   4.925   3.653   9.544
   47CHL1  H11B 5920   5.016   3.505   9.586
   47CHL1    C9 5921   5.117   3.694   9.645
   47CHL1    H9 5922   5.219   3.650   9.646
   47CHL1   C10 5923   5.067   3.688   9.795
   47CHL1   C19 5924   4.921   3.738   9.800
   47CHL1  H19A 5925   4.880   3.732   9.903
   47CHL1  H19B 5926   4.914   3.844   9.767
   47CHL1  H19C 5927   4.854   3.683   9.730
   47CHL1    C1 5928   5.076   3.547   9.845
   47CHL1   H1A 5929   4.983   3.492   9.822
   47CHL1   H1B 5930   5.167   3.502   9.798
   47CHL1    C2 5931   5.094   3.526  10.004
   47CHL1   H2A 5932   5.109   3.416  10.015
   47CHL1   H2B 5933   4.997   3.535  10.056
   47CHL1   C20 5934   5.148   3.725   9.082
   47CHL1   H20 5935   5.065   3.797   9.068
   47CHL1   C21 5936   5.081   3.588   9.077
   47CHL1  H21A 5937   5.138   3.518   9.142
   47CHL1  H21B 5938   5.078   3.532   8.981
   47CHL1  H21C 5939   4.978   3.592   9.118
   47CHL1   C22 5940   5.259   3.744   8.970
   47CHL1  H22A 5941   5.204   3.741   8.873
   47CHL1  H22B 5942   5.306   3.843   8.986
   47CHL1   C23 5943   5.368   3.631   8.976
   47CHL1  H23A 5944   5.407   3.633   9.080
   47CHL1  H23B 5945   5.329   3.529   8.955
   47CHL1   C24 5946   5.477   3.662   8.873
   47CHL1  H24A 5947   5.425   3.691   8.779
   47CHL1  H24B 5948   5.536   3.748   8.912
   47CHL1   C25 5949   5.568   3.554   8.831
   47CHL1   H25 5950   5.510   3.468   8.791
   47CHL1   C26 5951   5.669   3.605   8.721
   47CHL1  H26A 5952   5.613   3.641   8.632
   47CHL1  H26B 5953   5.717   3.513   8.679
   47CHL1  H26C 5954   5.736   3.691   8.744
   47CHL1   C27 5955   5.653   3.505   8.953
   47CHL1  H27A 5956   5.723   3.425   8.923
   47CHL1  H27B 5957   5.724   3.582   8.991
   47CHL1  H27C 5958   5.584   3.470   9.033
   48CHL1    C3 5959   5.961   4.244  10.098
   48CHL1    H3 5960   5.853   4.222  10.089
   48CHL1    O3 5961   5.998   4.208  10.231
   48CHL1   H3' 5962   6.093   4.194  10.222
   48CHL1    C4 5963   6.034   4.139  10.009
   48CHL1   H4A 5964   6.141   4.148  10.037
   48CHL1   H4B 5965   5.984   4.045  10.040
   48CHL1    C5 5966   6.009   4.170   9.865
   48CHL1    C6 5967   5.953   4.082   9.785
   48CHL1    H6 5968   5.919   3.989   9.833
   48CHL1    C7 5969   5.926   4.106   9.635
   48CHL1   H7A 5970   5.952   4.011   9.583
   48CHL1   H7B 5971   5.818   4.124   9.615
   48CHL1    C8 5972   6.008   4.224   9.577
   48CHL1    H8 5973   6.113   4.189   9.575
   48CHL1   C14 5974   5.960   4.249   9.436
   48CHL1   H14 5975   5.850   4.267   9.433
   48CHL1   C15 5976   5.975   4.139   9.335
   48CHL1  H15A 5977   6.077   4.093   9.340
   48CHL1  H15B 5978   5.894   4.064   9.327
   48CHL1   C16 5979   5.979   4.213   9.197
   48CHL1  H16A 5980   6.074   4.181   9.151
   48CHL1  H16B 5981   5.894   4.175   9.136
   48CHL1   C17 5982   5.961   4.366   9.233
   48CHL1   H17 5983   5.851   4.372   9.246
   48CHL1   C13 5984   6.015   4.384   9.381
   48CHL1   C18 5985   6.172   4.374   9.375
   48CHL1  H18A 5986   6.202   4.284   9.317
   48CHL1  H18B 5987   6.211   4.457   9.311
   48CHL1  H18C 5988   6.215   4.367   9.477
   48CHL1   C12 5989   5.975   4.506   9.471
   48CHL1  H12A 5990   5.984   4.608   9.428
   48CHL1  H12B 5991   5.865   4.499   9.491
   48CHL1   C11 5992   6.028   4.486   9.616
   48CHL1  H11A 5993   6.138   4.498   9.623
   48CHL1  H11B 5994   5.989   4.567   9.681
   48CHL1    C9 5995   5.990   4.342   9.673
   48CHL1    H9 5996   5.880   4.349   9.688
   48CHL1   C10 5997   6.048   4.304   9.813
   48CHL1   C19 5998   6.197   4.326   9.825
   48CHL1  H19A 5999   6.237   4.290   9.922
   48CHL1  H19B 6000   6.252   4.274   9.744
   48CHL1  H19C 6001   6.220   4.435   9.818
   48CHL1    C1 6002   5.981   4.406   9.916
   48CHL1   H1A 6003   6.026   4.505   9.891
   48CHL1   H1B 6004   5.875   4.419   9.888
   48CHL1    C2 6005   6.009   4.377  10.062
   48CHL1   H2A 6006   5.956   4.459  10.115
   48CHL1   H2B 6007   6.116   4.395  10.085
   48CHL1   C20 6008   5.994   4.476   9.142
   48CHL1   H20 6009   6.084   4.537   9.163
   48CHL1   C21 6010   5.875   4.583   9.147
   48CHL1  H21A 6011   5.829   4.598   9.247
   48CHL1  H21B 6012   5.791   4.540   9.088
   48CHL1  H21C 6013   5.909   4.679   9.103
   48CHL1   C22 6014   6.002   4.413   8.997
   48CHL1  H22A 6015   6.079   4.333   8.995
   48CHL1  H22B 6016   5.905   4.363   8.976
   48CHL1   C23 6017   6.040   4.513   8.895
   48CHL1  H23A 6018   5.945   4.565   8.868
   48CHL1  H23B 6019   6.097   4.598   8.938
   48CHL1   C24 6020   6.107   4.451   8.771
   48CHL1  H24A 6021   6.202   4.410   8.811
   48CHL1  H24B 6022   6.043   4.371   8.727
   48CHL1   C25 6023   6.143   4.568   8.677
   48CHL1   H25 6024   6.167   4.648   8.750
   48CHL1   C26 6025   6.269   4.549   8.598
   48CHL1  H26A 6026   6.344   4.511   8.671
   48CHL1  H26B 6027   6.248   4.469   8.524
   48CHL1  H26C 6028   6.309   4.645   8.557
   48CHL1   C27 6029   6.026   4.618   8.592
   48CHL1  H27A 6030   5.992   4.543   8.517
   48CHL1  H27B 6031   5.950   4.662   8.660
   48CHL1  H27C 6032   6.057   4.708   8.535
   49CHL1    C3 6033   4.210   6.461  10.068
   49CHL1    H3 6034   4.190   6.351  10.068
   49CHL1    O3 6035   4.255   6.498  10.200
   49CHL1   H3' 6036   4.179   6.476  10.254
   49CHL1    C4 6037   4.311   6.495   9.954
   49CHL1   H4A 6038   4.349   6.598   9.973
   49CHL1   H4B 6039   4.403   6.436   9.975
   49CHL1    C5 6040   4.257   6.488   9.809
   49CHL1    C6 6041   4.302   6.409   9.712
   49CHL1    H6 6042   4.383   6.337   9.734
   49CHL1    C7 6043   4.265   6.426   9.567
   49CHL1   H7A 6044   4.364   6.441   9.519
   49CHL1   H7B 6045   4.218   6.331   9.534
   49CHL1    C8 6046   4.183   6.548   9.535
   49CHL1    H8 6047   4.250   6.636   9.537
   49CHL1   C14 6048   4.111   6.538   9.401
   49CHL1   H14 6049   4.048   6.447   9.406
   49CHL1   C15 6050   4.188   6.496   9.273
   49CHL1  H15A 6051   4.293   6.533   9.263
   49CHL1  H15B 6052   4.215   6.389   9.266
   49CHL1   C16 6053   4.098   6.539   9.152
   49CHL1  H16A 6054   4.145   6.613   9.084
   49CHL1  H16B 6055   4.076   6.452   9.087
   49CHL1   C17 6056   3.971   6.598   9.230
   49CHL1   H17 6057   3.907   6.508   9.235
   49CHL1   C13 6058   4.012   6.654   9.364
   49CHL1   C18 6059   4.088   6.790   9.343
   49CHL1  H18A 6060   4.016   6.873   9.325
   49CHL1  H18B 6061   4.159   6.822   9.422
   49CHL1  H18C 6062   4.160   6.787   9.259
   49CHL1   C12 6063   3.908   6.671   9.477
   49CHL1  H12A 6064   3.850   6.765   9.469
   49CHL1  H12B 6065   3.837   6.585   9.474
   49CHL1   C11 6066   3.972   6.691   9.617
   49CHL1  H11A 6067   4.026   6.786   9.636
   49CHL1  H11B 6068   3.886   6.687   9.687
   49CHL1    C9 6069   4.075   6.574   9.648
   49CHL1    H9 6070   4.020   6.478   9.659
   49CHL1   C10 6071   4.146   6.588   9.785
   49CHL1   C19 6072   4.198   6.736   9.803
   49CHL1  H19A 6073   4.250   6.757   9.899
   49CHL1  H19B 6074   4.260   6.768   9.717
   49CHL1  H19C 6075   4.111   6.805   9.804
   49CHL1    C1 6076   4.038   6.549   9.892
   49CHL1   H1A 6077   3.947   6.613   9.882
   49CHL1   H1B 6078   4.005   6.448   9.861
   49CHL1    C2 6079   4.085   6.550  10.042
   49CHL1   H2A 6080   4.013   6.503  10.112
   49CHL1   H2B 6081   4.102   6.653  10.078
   49CHL1   C20 6082   3.900   6.704   9.136
   49CHL1   H20 6083   3.972   6.782   9.103
   49CHL1   C21 6084   3.780   6.767   9.209
   49CHL1  H21A 6085   3.737   6.842   9.139
   49CHL1  H21B 6086   3.812   6.821   9.301
   49CHL1  H21C 6087   3.705   6.691   9.236
   49CHL1   C22 6088   3.838   6.631   9.010
   49CHL1  H22A 6089   3.921   6.572   8.965
   49CHL1  H22B 6090   3.756   6.558   9.028
   49CHL1   C23 6091   3.793   6.729   8.893
   49CHL1  H23A 6092   3.702   6.779   8.930
   49CHL1  H23B 6093   3.869   6.806   8.866
   49CHL1   C24 6094   3.764   6.631   8.772
   49CHL1  H24A 6095   3.862   6.584   8.750
   49CHL1  H24B 6096   3.691   6.551   8.797
   49CHL1   C25 6097   3.735   6.703   8.642
   49CHL1   H25 6098   3.644   6.766   8.654
   49CHL1   C26 6099   3.848   6.799   8.605
   49CHL1  H26A 6100   3.822   6.868   8.522
   49CHL1  H26B 6101   3.889   6.871   8.678
   49CHL1  H26C 6102   3.942   6.742   8.587
   49CHL1   C27 6103   3.709   6.608   8.533
   49CHL1  H27A 6104   3.624   6.544   8.565
   49CHL1  H27B 6105   3.669   6.660   8.444
   49CHL1  H27C 6106   3.799   6.547   8.513
   50CHL1    C3 6107   0.652   1.780  10.092
   50CHL1    H3 6108   0.592   1.688  10.106
   50CHL1    O3 6109   0.688   1.821  10.224
   50CHL1   H3' 6110   0.617   1.876  10.258
   50CHL1    C4 6111   0.776   1.760  10.003
   50CHL1   H4A 6112   0.830   1.856  10.017
   50CHL1   H4B 6113   0.837   1.677  10.045
   50CHL1    C5 6114   0.761   1.721   9.860
   50CHL1    C6 6115   0.811   1.609   9.807
   50CHL1    H6 6116   0.857   1.537   9.877
   50CHL1    C7 6117   0.808   1.582   9.663
   50CHL1   H7A 6118   0.912   1.563   9.629
   50CHL1   H7B 6119   0.748   1.491   9.642
   50CHL1    C8 6120   0.747   1.699   9.573
   50CHL1    H8 6121   0.830   1.771   9.553
   50CHL1   C14 6122   0.694   1.648   9.436
   50CHL1   H14 6123   0.614   1.576   9.464
   50CHL1   C15 6124   0.792   1.572   9.342
   50CHL1  H15A 6125   0.882   1.638   9.338
   50CHL1  H15B 6126   0.817   1.477   9.395
   50CHL1   C16 6127   0.723   1.565   9.206
   50CHL1  H16A 6128   0.785   1.610   9.126
   50CHL1  H16B 6129   0.676   1.468   9.180
   50CHL1   C17 6130   0.606   1.662   9.220
   50CHL1   H17 6131   0.526   1.589   9.245
   50CHL1   C13 6132   0.633   1.752   9.339
   50CHL1   C18 6133   0.736   1.859   9.301
   50CHL1  H18A 6134   0.822   1.829   9.238
   50CHL1  H18B 6135   0.693   1.938   9.235
   50CHL1  H18C 6136   0.768   1.909   9.395
   50CHL1   C12 6137   0.510   1.814   9.420
   50CHL1  H12A 6138   0.467   1.897   9.360
   50CHL1  H12B 6139   0.432   1.736   9.435
   50CHL1   C11 6140   0.556   1.875   9.555
   50CHL1  H11A 6141   0.617   1.968   9.547
   50CHL1  H11B 6142   0.458   1.904   9.598
   50CHL1    C9 6143   0.631   1.771   9.649
   50CHL1    H9 6144   0.552   1.693   9.661
   50CHL1   C10 6145   0.668   1.823   9.789
   50CHL1   C19 6146   0.734   1.965   9.777
   50CHL1  H19A 6147   0.659   2.041   9.748
   50CHL1  H19B 6148   0.783   1.999   9.870
   50CHL1  H19C 6149   0.819   1.962   9.705
   50CHL1    C1 6150   0.534   1.836   9.871
   50CHL1   H1A 6151   0.457   1.901   9.822
   50CHL1   H1B 6152   0.482   1.739   9.880
   50CHL1    C2 6153   0.551   1.878  10.022
   50CHL1   H2A 6154   0.447   1.878  10.061
   50CHL1   H2B 6155   0.597   1.978  10.036
   50CHL1   C20 6156   0.564   1.729   9.090
   50CHL1   H20 6157   0.654   1.767   9.037
   50CHL1   C21 6158   0.466   1.846   9.095
   50CHL1  H21A 6159   0.369   1.810   9.134
   50CHL1  H21B 6160   0.459   1.891   8.993
   50CHL1  H21C 6161   0.489   1.935   9.157
   50CHL1   C22 6162   0.521   1.622   8.980
   50CHL1  H22A 6163   0.537   1.676   8.884
   50CHL1  H22B 6164   0.602   1.546   8.970
   50CHL1   C23 6165   0.388   1.551   9.015
   50CHL1  H23A 6166   0.380   1.526   9.123
   50CHL1  H23B 6167   0.302   1.620   9.003
   50CHL1   C24 6168   0.373   1.417   8.938
   50CHL1  H24A 6169   0.453   1.342   8.955
   50CHL1  H24B 6170   0.284   1.375   8.990
   50CHL1   C25 6171   0.356   1.421   8.786
   50CHL1   H25 6172   0.451   1.459   8.743
   50CHL1   C26 6173   0.332   1.279   8.725
   50CHL1  H26A 6174   0.406   1.208   8.767
   50CHL1  H26B 6175   0.229   1.241   8.740
   50CHL1  H26C 6176   0.348   1.272   8.616
   50CHL1   C27 6177   0.240   1.509   8.744
   50CHL1  H27A 6178   0.141   1.460   8.760
   50CHL1  H27B 6179   0.238   1.614   8.782
   50CHL1  H27C 6180   0.260   1.521   8.635
   51CHL1    C3 6181   1.610   4.156  10.297
   51CHL1    H3 6182   1.554   4.072  10.251
   51CHL1    O3 6183   1.663   4.125  10.429
   51CHL1   H3' 6184   1.708   4.208  10.448
   51CHL1    C4 6185   1.717   4.219  10.215
   51CHL1   H4A 6186   1.757   4.310  10.265
   51CHL1   H4B 6187   1.805   4.151  10.211
   51CHL1    C5 6188   1.662   4.258  10.079
   51CHL1    C6 6189   1.714   4.215   9.970
   51CHL1    H6 6190   1.801   4.149   9.982
   51CHL1    C7 6191   1.666   4.248   9.831
   51CHL1   H7A 6192   1.754   4.276   9.770
   51CHL1   H7B 6193   1.613   4.158   9.793
   51CHL1    C8 6194   1.573   4.375   9.838
   51CHL1    H8 6195   1.646   4.455   9.862
   51CHL1   C14 6196   1.498   4.385   9.712
   51CHL1   H14 6197   1.423   4.303   9.715
   51CHL1   C15 6198   1.571   4.370   9.583
   51CHL1  H15A 6199   1.673   4.414   9.585
   51CHL1  H15B 6200   1.585   4.261   9.571
   51CHL1   C16 6201   1.485   4.442   9.471
   51CHL1  H16A 6202   1.548   4.521   9.425
   51CHL1  H16B 6203   1.441   4.381   9.389
   51CHL1   C17 6204   1.374   4.524   9.560
   51CHL1   H17 6205   1.283   4.460   9.560
   51CHL1   C13 6206   1.423   4.520   9.702
   51CHL1   C18 6207   1.534   4.627   9.726
   51CHL1  H18A 6208   1.626   4.608   9.667
   51CHL1  H18B 6209   1.491   4.720   9.683
   51CHL1  H18C 6210   1.560   4.656   9.830
   51CHL1   C12 6211   1.308   4.520   9.807
   51CHL1  H12A 6212   1.240   4.609   9.801
   51CHL1  H12B 6213   1.243   4.432   9.788
   51CHL1   C11 6214   1.364   4.493   9.950
   51CHL1  H11A 6215   1.414   4.579   9.999
   51CHL1  H11B 6216   1.278   4.466  10.015
   51CHL1    C9 6217   1.468   4.373   9.952
   51CHL1    H9 6218   1.395   4.289   9.943
   51CHL1   C10 6219   1.538   4.358  10.087
   51CHL1   C19 6220   1.609   4.496  10.134
   51CHL1  H19A 6221   1.670   4.496  10.227
   51CHL1  H19B 6222   1.683   4.545  10.067
   51CHL1  H19C 6223   1.537   4.574  10.167
   51CHL1    C1 6224   1.429   4.307  10.185
   51CHL1   H1A 6225   1.351   4.383  10.207
   51CHL1   H1B 6226   1.360   4.230  10.142
   51CHL1    C2 6227   1.494   4.263  10.319
   51CHL1   H2A 6228   1.416   4.215  10.381
   51CHL1   H2B 6229   1.524   4.357  10.370
   51CHL1   C20 6230   1.333   4.657   9.490
   51CHL1   H20 6231   1.424   4.718   9.470
   51CHL1   C21 6232   1.240   4.759   9.573
   51CHL1  H21A 6233   1.219   4.857   9.527
   51CHL1  H21B 6234   1.291   4.805   9.661
   51CHL1  H21C 6235   1.143   4.717   9.608
   51CHL1   C22 6236   1.272   4.626   9.350
   51CHL1  H22A 6237   1.332   4.555   9.290
   51CHL1  H22B 6238   1.172   4.578   9.360
   51CHL1   C23 6239   1.234   4.756   9.258
   51CHL1  H23A 6240   1.153   4.719   9.191
   51CHL1  H23B 6241   1.195   4.842   9.317
   51CHL1   C24 6242   1.343   4.780   9.164
   51CHL1  H24A 6243   1.439   4.787   9.218
   51CHL1  H24B 6244   1.357   4.706   9.082
   51CHL1   C25 6245   1.317   4.914   9.086
   51CHL1   H25 6246   1.212   4.915   9.052
   51CHL1   C26 6247   1.337   5.029   9.176
   51CHL1  H26A 6248   1.252   5.057   9.241
   51CHL1  H26B 6249   1.414   5.005   9.253
   51CHL1  H26C 6250   1.356   5.126   9.125
   51CHL1   C27 6251   1.390   4.933   8.947
   51CHL1  H27A 6252   1.501   4.929   8.949
   51CHL1  H27B 6253   1.356   4.850   8.882
   51CHL1  H27C 6254   1.364   5.028   8.896
   52CHL1    C3 6255   5.523   3.215   9.981
   52CHL1    H3 6256   5.420   3.176   9.999
   52CHL1    O3 6257   5.598   3.245  10.100
   52CHL1   H3' 6258   5.536   3.305  10.143
   52CHL1    C4 6259   5.599   3.109   9.893
   52CHL1   H4A 6260   5.697   3.160   9.879
   52CHL1   H4B 6261   5.611   3.021   9.959
   52CHL1    C5 6262   5.532   3.087   9.763
   52CHL1    C6 6263   5.486   2.966   9.729
   52CHL1    H6 6264   5.502   2.875   9.789
   52CHL1    C7 6265   5.417   2.936   9.598
   52CHL1   H7A 6266   5.460   2.839   9.564
   52CHL1   H7B 6267   5.309   2.921   9.617
   52CHL1    C8 6268   5.436   3.046   9.495
   52CHL1    H8 6269   5.534   3.027   9.446
   52CHL1   C14 6270   5.330   3.032   9.383
   52CHL1   H14 6271   5.233   3.050   9.434
   52CHL1   C15 6272   5.320   2.892   9.317
   52CHL1  H15A 6273   5.420   2.856   9.287
   52CHL1  H15B 6274   5.273   2.820   9.389
   52CHL1   C16 6275   5.241   2.917   9.189
   52CHL1  H16A 6276   5.295   2.871   9.104
   52CHL1  H16B 6277   5.143   2.866   9.200
   52CHL1   C17 6278   5.227   3.076   9.180
   52CHL1   H17 6279   5.135   3.117   9.229
   52CHL1   C13 6280   5.343   3.134   9.267
   52CHL1   C18 6281   5.476   3.118   9.178
   52CHL1  H18A 6282   5.566   3.133   9.242
   52CHL1  H18B 6283   5.476   3.015   9.138
   52CHL1  H18C 6284   5.471   3.198   9.101
   52CHL1   C12 6285   5.329   3.274   9.322
   52CHL1  H12A 6286   5.355   3.345   9.240
   52CHL1  H12B 6287   5.231   3.303   9.364
   52CHL1   C11 6288   5.431   3.292   9.441
   52CHL1  H11A 6289   5.527   3.290   9.386
   52CHL1  H11B 6290   5.408   3.388   9.493
   52CHL1    C9 6291   5.422   3.182   9.555
   52CHL1    H9 6292   5.318   3.188   9.593
   52CHL1   C10 6293   5.513   3.207   9.673
   52CHL1   C19 6294   5.657   3.245   9.619
   52CHL1  H19A 6295   5.691   3.171   9.543
   52CHL1  H19B 6296   5.656   3.338   9.558
   52CHL1  H19C 6297   5.736   3.259   9.697
   52CHL1    C1 6298   5.447   3.320   9.762
   52CHL1   H1A 6299   5.444   3.415   9.704
   52CHL1   H1B 6300   5.340   3.294   9.774
   52CHL1    C2 6301   5.509   3.342   9.903
   52CHL1   H2A 6302   5.448   3.415   9.960
   52CHL1   H2B 6303   5.611   3.386   9.895
   52CHL1   C20 6304   5.215   3.120   9.034
   52CHL1   H20 6305   5.310   3.088   8.986
   52CHL1   C21 6306   5.191   3.269   9.023
   52CHL1  H21A 6307   5.109   3.298   9.092
   52CHL1  H21B 6308   5.171   3.306   8.920
   52CHL1  H21C 6309   5.278   3.331   9.055
   52CHL1   C22 6310   5.102   3.049   8.959
   52CHL1  H22A 6311   5.117   3.068   8.851
   52CHL1  H22B 6312   5.110   2.940   8.973
   52CHL1   C23 6313   4.954   3.087   8.995
   52CHL1  H23A 6314   4.922   3.017   9.075
   52CHL1  H23B 6315   4.943   3.190   9.034
   52CHL1   C24 6316   4.869   3.071   8.873
   52CHL1  H24A 6317   4.908   3.123   8.783
   52CHL1  H24B 6318   4.870   2.966   8.837
   52CHL1   C25 6319   4.717   3.106   8.884
   52CHL1   H25 6320   4.663   3.039   8.954
   52CHL1   C26 6321   4.683   3.246   8.932
   52CHL1  H26A 6322   4.572   3.255   8.933
   52CHL1  H26B 6323   4.719   3.251   9.037
   52CHL1  H26C 6324   4.739   3.316   8.866
   52CHL1   C27 6325   4.651   3.083   8.745
   52CHL1  H27A 6326   4.713   3.141   8.674
   52CHL1  H27B 6327   4.656   2.979   8.706
   52CHL1  H27C 6328   4.544   3.114   8.750
   53CHL1    C3 6329   6.433   2.404  10.023
   53CHL1    H3 6330   6.531   2.351  10.021
   53CHL1    O3 6331   6.394   2.415  10.161
   53CHL1   H3' 6332   6.436   2.336  10.195
   53CHL1    C4 6333   6.434   2.548   9.960
   53CHL1   H4A 6334   6.336   2.594   9.987
   53CHL1   H4B 6335   6.507   2.615  10.009
   53CHL1    C5 6336   6.462   2.549   9.809
   53CHL1    C6 6337   6.553   2.631   9.761
   53CHL1    H6 6338   6.611   2.694   9.829
   53CHL1    C7 6339   6.573   2.646   9.611
   53CHL1   H7A 6340   6.594   2.745   9.566
   53CHL1   H7B 6341   6.666   2.585   9.604
   53CHL1    C8 6342   6.471   2.577   9.521
   53CHL1    H8 6343   6.380   2.640   9.513
   53CHL1   C14 6344   6.522   2.562   9.378
   53CHL1   H14 6345   6.602   2.485   9.387
   53CHL1   C15 6346   6.577   2.688   9.312
   53CHL1  H15A 6347   6.499   2.765   9.331
   53CHL1  H15B 6348   6.681   2.710   9.345
   53CHL1   C16 6349   6.585   2.634   9.169
   53CHL1  H16A 6350   6.537   2.709   9.102
   53CHL1  H16B 6351   6.687   2.624   9.125
   53CHL1   C17 6352   6.509   2.499   9.162
   53CHL1   H17 6353   6.584   2.418   9.165
   53CHL1   C13 6354   6.421   2.486   9.287
   53CHL1   C18 6355   6.284   2.559   9.280
   53CHL1  H18A 6356   6.230   2.563   9.377
   53CHL1  H18B 6357   6.306   2.667   9.264
   53CHL1  H18C 6358   6.217   2.527   9.197
   53CHL1   C12 6359   6.405   2.340   9.349
   53CHL1  H12A 6360   6.321   2.298   9.290
   53CHL1  H12B 6361   6.505   2.293   9.348
   53CHL1   C11 6362   6.359   2.333   9.498
   53CHL1  H11A 6363   6.255   2.371   9.503
   53CHL1  H11B 6364   6.390   2.236   9.543
   53CHL1    C9 6365   6.440   2.439   9.585
   53CHL1    H9 6366   6.541   2.395   9.599
   53CHL1   C10 6367   6.377   2.454   9.727
   53CHL1   C19 6368   6.228   2.503   9.721
   53CHL1  H19A 6369   6.205   2.524   9.828
   53CHL1  H19B 6370   6.222   2.604   9.673
   53CHL1  H19C 6371   6.151   2.432   9.683
   53CHL1    C1 6372   6.379   2.309   9.793
   53CHL1   H1A 6373   6.299   2.242   9.756
   53CHL1   H1B 6374   6.479   2.262   9.779
   53CHL1    C2 6375   6.343   2.313   9.942
   53CHL1   H2A 6376   6.341   2.209   9.981
   53CHL1   H2B 6377   6.246   2.364   9.957
   53CHL1   C20 6378   6.439   2.473   9.028
   53CHL1   H20 6379   6.365   2.555   9.016
   53CHL1   C21 6380   6.383   2.336   9.015
   53CHL1  H21A 6381   6.456   2.261   9.051
   53CHL1  H21B 6382   6.354   2.310   8.911
   53CHL1  H21C 6383   6.284   2.332   9.067
   53CHL1   C22 6384   6.538   2.495   8.907
   53CHL1  H22A 6385   6.584   2.596   8.917
   53CHL1  H22B 6386   6.617   2.418   8.919
   53CHL1   C23 6387   6.473   2.495   8.772
   53CHL1  H23A 6388   6.463   2.389   8.740
   53CHL1  H23B 6389   6.377   2.543   8.801
   53CHL1   C24 6390   6.539   2.583   8.661
   53CHL1  H24A 6391   6.558   2.683   8.706
   53CHL1  H24B 6392   6.647   2.558   8.650
   53CHL1   C25 6393   6.448   2.603   8.542
   53CHL1   H25 6394   6.355   2.651   8.579
   53CHL1   C26 6395   6.510   2.704   8.439
   53CHL1  H26A 6396   6.445   2.716   8.350
   53CHL1  H26B 6397   6.527   2.800   8.492
   53CHL1  H26C 6398   6.610   2.661   8.419
   53CHL1   C27 6399   6.419   2.475   8.463
   53CHL1  H27A 6400   6.507   2.440   8.404
   53CHL1  H27B 6401   6.403   2.400   8.543
   53CHL1  H27C 6402   6.322   2.485   8.411
   54CHL1    C3 6403   6.281   3.844  10.132
   54CHL1    H3 6404   6.192   3.908  10.114
   54CHL1    O3 6405   6.280   3.773  10.261
   54CHL1   H3' 6406   6.216   3.701  10.252
   54CHL1    C4 6407   6.281   3.727  10.036
   54CHL1   H4A 6408   6.370   3.661  10.049
   54CHL1   H4B 6409   6.186   3.671  10.048
   54CHL1    C5 6410   6.283   3.774   9.888
   54CHL1    C6 6411   6.178   3.739   9.806
   54CHL1    H6 6412   6.099   3.672   9.843
   54CHL1    C7 6413   6.180   3.790   9.669
   54CHL1   H7A 6414   6.116   3.728   9.603
   54CHL1   H7B 6415   6.119   3.883   9.673
   54CHL1    C8 6416   6.316   3.838   9.606
   54CHL1    H8 6417   6.376   3.745   9.596
   54CHL1   C14 6418   6.303   3.904   9.472
   54CHL1   H14 6419   6.253   4.001   9.491
   54CHL1   C15 6420   6.229   3.830   9.361
   54CHL1  H15A 6421   6.270   3.727   9.349
   54CHL1  H15B 6422   6.118   3.832   9.360
   54CHL1   C16 6423   6.268   3.894   9.231
   54CHL1  H16A 6424   6.288   3.814   9.157
   54CHL1  H16B 6425   6.181   3.947   9.187
   54CHL1   C17 6426   6.392   3.984   9.271
   54CHL1   H17 6427   6.337   4.079   9.289
   54CHL1   C13 6428   6.436   3.950   9.418
   54CHL1   C18 6429   6.541   3.829   9.410
   54CHL1  H18A 6430   6.642   3.866   9.382
   54CHL1  H18B 6431   6.548   3.767   9.501
   54CHL1  H18C 6432   6.514   3.764   9.324
   54CHL1   C12 6433   6.498   4.059   9.504
   54CHL1  H12A 6434   6.595   4.094   9.463
   54CHL1  H12B 6435   6.427   4.144   9.500
   54CHL1   C11 6436   6.513   4.007   9.644
   54CHL1  H11A 6437   6.593   3.930   9.646
   54CHL1  H11B 6438   6.556   4.072   9.723
   54CHL1    C9 6439   6.392   3.933   9.705
   54CHL1    H9 6440   6.331   4.025   9.719
   54CHL1   C10 6441   6.404   3.865   9.843
   54CHL1   C19 6442   6.532   3.771   9.833
   54CHL1  H19A 6443   6.621   3.837   9.828
   54CHL1  H19B 6444   6.540   3.709   9.925
   54CHL1  H19C 6445   6.530   3.690   9.757
   54CHL1    C1 6446   6.417   3.968   9.960
   54CHL1   H1A 6447   6.500   4.038   9.935
   54CHL1   H1B 6448   6.332   4.039   9.965
   54CHL1    C2 6449   6.413   3.921  10.105
   54CHL1   H2A 6450   6.431   4.006  10.174
   54CHL1   H2B 6451   6.503   3.856  10.117
   54CHL1   C20 6452   6.500   4.019   9.166
   54CHL1   H20 6453   6.599   4.038   9.214
   54CHL1   C21 6454   6.457   4.150   9.088
   54CHL1  H21A 6455   6.382   4.134   9.008
   54CHL1  H21B 6456   6.547   4.179   9.030
   54CHL1  H21C 6457   6.444   4.241   9.151
   54CHL1   C22 6458   6.513   3.905   9.066
   54CHL1  H22A 6459   6.502   3.799   9.098
   54CHL1  H22B 6460   6.430   3.914   8.992
   54CHL1   C23 6461   6.655   3.909   8.989
   54CHL1  H23A 6462   6.653   3.996   8.920
   54CHL1  H23B 6463   6.730   3.926   9.068
   54CHL1   C24 6464   6.674   3.771   8.913
   54CHL1  H24A 6465   6.684   3.694   8.993
   54CHL1  H24B 6466   6.579   3.742   8.863
   54CHL1   C25 6467   6.799   3.754   8.821
   54CHL1   H25 6468   6.802   3.648   8.786
   54CHL1   C26 6469   6.778   3.837   8.696
   54CHL1  H26A 6470   6.846   3.801   8.616
   54CHL1  H26B 6471   6.672   3.819   8.667
   54CHL1  H26C 6472   6.793   3.946   8.705
   54CHL1   C27 6473   6.930   3.789   8.894
   54CHL1  H27A 6474   7.013   3.724   8.860
   54CHL1  H27B 6475   6.942   3.899   8.885
   54CHL1  H27C 6476   6.912   3.783   9.004
   55CHL1    C3 6477   0.090   1.537  10.074
   55CHL1    H3 6478  -0.020   1.544  10.083
   55CHL1    O3 6479   0.150   1.527  10.202
   55CHL1   H3' 6480   0.126   1.609  10.245
   55CHL1    C4 6481   0.122   1.415   9.985
   55CHL1   H4A 6482   0.231   1.402   9.996
   55CHL1   H4B 6483   0.063   1.326  10.018
   55CHL1    C5 6484   0.089   1.448   9.839
   55CHL1    C6 6485   0.007   1.367   9.768
   55CHL1    H6 6486  -0.027   1.280   9.826
   55CHL1    C7 6487  -0.029   1.386   9.622
   55CHL1   H7A 6488  -0.018   1.288   9.572
   55CHL1   H7B 6489  -0.135   1.419   9.623
   55CHL1    C8 6490   0.060   1.487   9.553
   55CHL1    H8 6491   0.155   1.432   9.539
   55CHL1   C14 6492  -0.008   1.516   9.424
   55CHL1   H14 6493  -0.105   1.564   9.450
   55CHL1   C15 6494  -0.024   1.398   9.337
   55CHL1  H15A 6495   0.069   1.338   9.332
   55CHL1  H15B 6496  -0.104   1.325   9.363
   55CHL1   C16 6497  -0.044   1.461   9.197
   55CHL1  H16A 6498   0.023   1.411   9.124
   55CHL1  H16B 6499  -0.151   1.454   9.168
   55CHL1   C17 6500  -0.020   1.613   9.214
   55CHL1   H17 6501  -0.119   1.653   9.244
   55CHL1   C13 6502   0.068   1.622   9.343
   55CHL1   C18 6503   0.213   1.570   9.313
   55CHL1  H18A 6504   0.279   1.650   9.273
   55CHL1  H18B 6505   0.263   1.532   9.404
   55CHL1  H18C 6506   0.203   1.489   9.238
   55CHL1   C12 6507   0.067   1.758   9.423
   55CHL1  H12A 6508   0.139   1.820   9.364
   55CHL1  H12B 6509  -0.036   1.798   9.425
   55CHL1   C11 6510   0.125   1.736   9.556
   55CHL1  H11A 6511   0.235   1.722   9.555
   55CHL1  H11B 6512   0.094   1.824   9.617
   55CHL1    C9 6513   0.068   1.610   9.635
   55CHL1    H9 6514  -0.040   1.634   9.651
   55CHL1   C10 6515   0.135   1.573   9.770
   55CHL1   C19 6516   0.286   1.544   9.745
   55CHL1  H19A 6517   0.347   1.628   9.707
   55CHL1  H19B 6518   0.342   1.503   9.832
   55CHL1  H19C 6519   0.301   1.455   9.680
   55CHL1    C1 6520   0.121   1.691   9.870
   55CHL1   H1A 6521   0.179   1.776   9.827
   55CHL1   H1B 6522   0.015   1.714   9.851
   55CHL1    C2 6523   0.151   1.669  10.014
   55CHL1   H2A 6524   0.117   1.750  10.082
   55CHL1   H2B 6525   0.261   1.662  10.028
   55CHL1   C20 6526   0.021   1.685   9.081
   55CHL1   H20 6527   0.098   1.624   9.030
   55CHL1   C21 6528   0.061   1.829   9.107
   55CHL1  H21A 6529   0.075   1.879   9.009
   55CHL1  H21B 6530   0.155   1.833   9.167
   55CHL1  H21C 6531  -0.013   1.890   9.162
   55CHL1   C22 6532  -0.101   1.697   8.987
   55CHL1  H22A 6533  -0.134   1.592   8.971
   55CHL1  H22B 6534  -0.187   1.754   9.031
   55CHL1   C23 6535  -0.065   1.742   8.837
   55CHL1  H23A 6536  -0.020   1.843   8.836
   55CHL1  H23B 6537   0.014   1.669   8.811
   55CHL1   C24 6538  -0.187   1.740   8.746
   55CHL1  H24A 6539  -0.214   1.635   8.722
   55CHL1  H24B 6540  -0.271   1.794   8.795
   55CHL1   C25 6541  -0.166   1.812   8.613
   55CHL1   H25 6542  -0.253   1.791   8.548
   55CHL1   C26 6543  -0.158   1.965   8.629
   55CHL1  H26A 6544  -0.255   1.997   8.672
   55CHL1  H26B 6545  -0.076   1.997   8.697
   55CHL1  H26C 6546  -0.118   2.007   8.534
   55CHL1   C27 6547  -0.040   1.762   8.530
   55CHL1  H27A 6548  -0.039   1.653   8.510
   55CHL1  H27B 6549  -0.030   1.806   8.429
   55CHL1  H27C 6550   0.054   1.779   8.588
   56CHL1    C3 6551   4.843   6.454  10.060
   56CHL1    H3 6552   4.950   6.428  10.077
   56CHL1    O3 6553   4.771   6.485  10.177
   56CHL1   H3' 6554   4.681   6.452  10.172
   56CHL1    C4 6555   4.845   6.575   9.964
   56CHL1   H4A 6556   4.742   6.617   9.966
   56CHL1   H4B 6557   4.916   6.645  10.013
   56CHL1    C5 6558   4.881   6.544   9.816
   56CHL1    C6 6559   4.983   6.613   9.757
   56CHL1    H6 6560   5.034   6.696   9.807
   56CHL1    C7 6561   5.026   6.580   9.616
   56CHL1   H7A 6562   5.042   6.670   9.553
   56CHL1   H7B 6563   5.125   6.531   9.625
   56CHL1    C8 6564   4.937   6.482   9.531
   56CHL1    H8 6565   4.837   6.522   9.504
   56CHL1   C14 6566   5.020   6.419   9.418
   56CHL1   H14 6567   5.101   6.356   9.461
   56CHL1   C15 6568   5.090   6.513   9.324
   56CHL1  H15A 6569   5.029   6.601   9.294
   56CHL1  H15B 6570   5.189   6.542   9.364
   56CHL1   C16 6571   5.111   6.429   9.198
   56CHL1  H16A 6572   5.070   6.485   9.111
   56CHL1  H16B 6573   5.222   6.425   9.185
   56CHL1   C17 6574   5.040   6.291   9.212
   56CHL1   H17 6575   5.116   6.218   9.248
   56CHL1   C13 6576   4.940   6.322   9.324
   56CHL1   C18 6577   4.803   6.398   9.277
   56CHL1  H18A 6578   4.745   6.321   9.221
   56CHL1  H18B 6579   4.743   6.426   9.367
   56CHL1  H18C 6580   4.830   6.489   9.220
   56CHL1   C12 6581   4.902   6.204   9.410
   56CHL1  H12A 6582   4.838   6.129   9.358
   56CHL1  H12B 6583   4.987   6.134   9.429
   56CHL1   C11 6584   4.824   6.253   9.544
   56CHL1  H11A 6585   4.716   6.270   9.524
   56CHL1  H11B 6586   4.823   6.165   9.612
   56CHL1    C9 6587   4.894   6.366   9.622
   56CHL1    H9 6588   4.993   6.328   9.655
   56CHL1   C10 6589   4.820   6.420   9.752
   56CHL1   C19 6590   4.673   6.453   9.716
   56CHL1  H19A 6591   4.619   6.515   9.790
   56CHL1  H19B 6592   4.660   6.497   9.615
   56CHL1  H19C 6593   4.614   6.359   9.709
   56CHL1    C1 6594   4.818   6.306   9.859
   56CHL1   H1A 6595   4.752   6.223   9.824
   56CHL1   H1B 6596   4.915   6.254   9.872
   56CHL1    C2 6597   4.763   6.343   9.996
   56CHL1   H2A 6598   4.758   6.253  10.060
   56CHL1   H2B 6599   4.655   6.370   9.986
   56CHL1   C20 6600   4.992   6.229   9.077
   56CHL1   H20 6601   4.907   6.285   9.032
   56CHL1   C21 6602   4.955   6.084   9.113
   56CHL1  H21A 6603   5.021   6.038   9.190
   56CHL1  H21B 6604   4.962   6.018   9.024
   56CHL1  H21C 6605   4.852   6.079   9.154
   56CHL1   C22 6606   5.112   6.245   8.978
   56CHL1  H22A 6607   5.164   6.343   8.980
   56CHL1  H22B 6608   5.191   6.172   9.008
   56CHL1   C23 6609   5.069   6.232   8.837
   56CHL1  H23A 6610   5.008   6.140   8.826
   56CHL1  H23B 6611   4.998   6.317   8.827
   56CHL1   C24 6612   5.183   6.233   8.737
   56CHL1  H24A 6613   5.244   6.326   8.745
   56CHL1  H24B 6614   5.244   6.146   8.767
   56CHL1   C25 6615   5.134   6.201   8.591
   56CHL1   H25 6616   5.078   6.106   8.584
   56CHL1   C26 6617   5.047   6.303   8.531
   56CHL1  H26A 6618   5.015   6.276   8.428
   56CHL1  H26B 6619   4.950   6.300   8.585
   56CHL1  H26C 6620   5.101   6.400   8.532
   56CHL1   C27 6621   5.259   6.196   8.505
   56CHL1  H27A 6622   5.232   6.190   8.397
   56CHL1  H27B 6623   5.326   6.285   8.511
   56CHL1  H27C 6624   5.312   6.100   8.522
   57CHL1    C3 6625   0.556   2.463  10.287
   57CHL1    H3 6626   0.666   2.482  10.295
   57CHL1    O3 6627   0.513   2.426  10.421
   57CHL1   H3' 6628   0.418   2.423  10.407
   57CHL1    C4 6629   0.471   2.577  10.239
   57CHL1   H4A 6630   0.362   2.555  10.248
   57CHL1   H4B 6631   0.496   2.656  10.313
   57CHL1    C5 6632   0.503   2.612  10.098
   57CHL1    C6 6633   0.538   2.732  10.060
   57CHL1    H6 6634   0.525   2.807  10.140
   57CHL1    C7 6635   0.569   2.779   9.920
   57CHL1   H7A 6636   0.514   2.871   9.892
   57CHL1   H7B 6637   0.673   2.818   9.928
   57CHL1    C8 6638   0.547   2.673   9.816
   57CHL1    H8 6639   0.437   2.681   9.802
   57CHL1   C14 6640   0.623   2.693   9.682
   57CHL1   H14 6641   0.733   2.682   9.696
   57CHL1   C15 6642   0.600   2.838   9.618
   57CHL1  H15A 6643   0.502   2.871   9.658
   57CHL1  H15B 6644   0.677   2.911   9.650
   57CHL1   C16 6645   0.628   2.815   9.466
   57CHL1  H16A 6646   0.543   2.853   9.407
   57CHL1  H16B 6647   0.712   2.878   9.430
   57CHL1   C17 6648   0.652   2.661   9.446
   57CHL1   H17 6649   0.761   2.651   9.461
   57CHL1   C13 6650   0.579   2.593   9.571
   57CHL1   C18 6651   0.428   2.602   9.539
   57CHL1  H18A 6652   0.365   2.562   9.621
   57CHL1  H18B 6653   0.394   2.708   9.539
   57CHL1  H18C 6654   0.399   2.539   9.453
   57CHL1   C12 6655   0.623   2.454   9.623
   57CHL1  H12A 6656   0.586   2.375   9.554
   57CHL1  H12B 6657   0.732   2.444   9.641
   57CHL1   C11 6658   0.549   2.419   9.759
   57CHL1  H11A 6659   0.443   2.411   9.728
   57CHL1  H11B 6660   0.579   2.321   9.803
   57CHL1    C9 6661   0.574   2.528   9.860
   57CHL1    H9 6662   0.683   2.523   9.878
   57CHL1   C10 6663   0.512   2.501   9.995
   57CHL1   C19 6664   0.367   2.458   9.970
   57CHL1  H19A 6665   0.351   2.362   9.917
   57CHL1  H19B 6666   0.317   2.429  10.065
   57CHL1  H19C 6667   0.306   2.526   9.908
   57CHL1    C1 6668   0.593   2.380  10.063
   57CHL1   H1A 6669   0.593   2.284  10.007
   57CHL1   H1B 6670   0.696   2.415  10.082
   57CHL1    C2 6671   0.538   2.341  10.201
   57CHL1   H2A 6672   0.585   2.247  10.238
   57CHL1   H2B 6673   0.434   2.304  10.189
   57CHL1   C20 6674   0.623   2.616   9.305
   57CHL1   H20 6675   0.512   2.607   9.296
   57CHL1   C21 6676   0.676   2.478   9.277
   57CHL1  H21A 6677   0.684   2.458   9.168
   57CHL1  H21B 6678   0.613   2.397   9.320
   57CHL1  H21C 6679   0.779   2.468   9.316
   57CHL1   C22 6680   0.670   2.702   9.186
   57CHL1  H22A 6681   0.656   2.809   9.214
   57CHL1  H22B 6682   0.780   2.691   9.181
   57CHL1   C23 6683   0.603   2.678   9.051
   57CHL1  H23A 6684   0.567   2.574   9.036
   57CHL1  H23B 6685   0.513   2.743   9.046
   57CHL1   C24 6686   0.687   2.700   8.925
   57CHL1  H24A 6687   0.706   2.810   8.927
   57CHL1  H24B 6688   0.785   2.650   8.939
   57CHL1   C25 6689   0.616   2.644   8.800
   57CHL1   H25 6690   0.633   2.534   8.812
   57CHL1   C26 6691   0.470   2.688   8.772
   57CHL1  H26A 6692   0.441   2.655   8.670
   57CHL1  H26B 6693   0.394   2.663   8.849
   57CHL1  H26C 6694   0.470   2.799   8.760
   57CHL1   C27 6695   0.697   2.690   8.679
   57CHL1  H27A 6696   0.798   2.644   8.688
   57CHL1  H27B 6697   0.645   2.635   8.598
   57CHL1  H27C 6698   0.685   2.798   8.658
   58CHL1    C3 6699   3.287   1.115  10.049
   58CHL1    H3 6700   3.206   1.191  10.050
   58CHL1    O3 6701   3.325   1.113  10.183
   58CHL1   H3' 6702   3.287   1.189  10.227
   58CHL1    C4 6703   3.233   0.989   9.983
   58CHL1   H4A 6704   3.307   0.906   9.984
   58CHL1   H4B 6705   3.148   0.966  10.051
   58CHL1    C5 6706   3.200   1.006   9.839
   58CHL1    C6 6707   3.079   0.980   9.787
   58CHL1    H6 6708   2.995   0.950   9.851
   58CHL1    C7 6709   3.049   0.987   9.638
   58CHL1   H7A 6710   2.995   0.893   9.614
   58CHL1   H7B 6711   2.973   1.064   9.616
   58CHL1    C8 6712   3.173   1.001   9.542
   58CHL1    H8 6713   3.225   0.903   9.534
   58CHL1   C14 6714   3.123   1.052   9.411
   58CHL1   H14 6715   3.078   1.153   9.422
   58CHL1   C15 6716   3.012   0.968   9.344
   58CHL1  H15A 6717   3.023   0.860   9.369
   58CHL1  H15B 6718   2.916   1.008   9.384
   58CHL1   C16 6719   3.031   1.004   9.197
   58CHL1  H16A 6720   3.070   0.906   9.160
   58CHL1  H16B 6721   2.942   1.040   9.143
   58CHL1   C17 6722   3.155   1.102   9.188
   58CHL1   H17 6723   3.112   1.205   9.191
   58CHL1   C13 6724   3.234   1.074   9.314
   58CHL1   C18 6725   3.319   0.946   9.285
   58CHL1  H18A 6726   3.404   0.958   9.216
   58CHL1  H18B 6727   3.364   0.912   9.380
   58CHL1  H18C 6728   3.254   0.859   9.260
   58CHL1   C12 6729   3.325   1.198   9.371
   58CHL1  H12A 6730   3.408   1.212   9.299
   58CHL1  H12B 6731   3.251   1.279   9.388
   58CHL1   C11 6732   3.379   1.164   9.516
   58CHL1  H11A 6733   3.441   1.075   9.493
   58CHL1  H11B 6734   3.447   1.247   9.543
   58CHL1    C9 6735   3.269   1.111   9.608
   58CHL1    H9 6736   3.198   1.196   9.623
   58CHL1   C10 6737   3.314   1.068   9.751
   58CHL1   C19 6738   3.420   0.958   9.740
   58CHL1  H19A 6739   3.476   0.927   9.831
   58CHL1  H19B 6740   3.378   0.868   9.691
   58CHL1  H19C 6741   3.497   1.000   9.672
   58CHL1    C1 6742   3.374   1.189   9.818
   58CHL1   H1A 6743   3.454   1.235   9.756
   58CHL1   H1B 6744   3.290   1.262   9.831
   58CHL1    C2 6745   3.405   1.166   9.966
   58CHL1   H2A 6746   3.449   1.261  10.003
   58CHL1   H2B 6747   3.484   1.088   9.970
   58CHL1   C20 6748   3.231   1.095   9.054
   58CHL1   H20 6749   3.283   0.997   9.043
   58CHL1   C21 6750   3.340   1.194   9.041
   58CHL1  H21A 6751   3.298   1.288   9.083
   58CHL1  H21B 6752   3.367   1.207   8.934
   58CHL1  H21C 6753   3.427   1.167   9.104
   58CHL1   C22 6754   3.127   1.113   8.942
   58CHL1  H22A 6755   3.045   1.039   8.953
   58CHL1  H22B 6756   3.091   1.217   8.931
   58CHL1   C23 6757   3.178   1.099   8.800
   58CHL1  H23A 6758   3.288   1.083   8.810
   58CHL1  H23B 6759   3.144   1.006   8.749
   58CHL1   C24 6760   3.163   1.225   8.712
   58CHL1  H24A 6761   3.055   1.217   8.686
   58CHL1  H24B 6762   3.181   1.326   8.755
   58CHL1   C25 6763   3.240   1.236   8.580
   58CHL1   H25 6764   3.341   1.268   8.613
   58CHL1   C26 6765   3.264   1.098   8.519
   58CHL1  H26A 6766   3.340   1.039   8.573
   58CHL1  H26B 6767   3.169   1.041   8.511
   58CHL1  H26C 6768   3.307   1.114   8.417
   58CHL1   C27 6769   3.177   1.327   8.478
   58CHL1  H27A 6770   3.179   1.432   8.516
   58CHL1  H27B 6771   3.229   1.334   8.380
   58CHL1  H27C 6772   3.074   1.297   8.452
   59CHL1    C3 6773   2.548   0.404  10.365
   59CHL1    H3 6774   2.470   0.483  10.362
   59CHL1    O3 6775   2.591   0.393  10.500
   59CHL1   H3' 6776   2.668   0.337  10.502
   59CHL1    C4 6777   2.498   0.266  10.319
   59CHL1   H4A 6778   2.581   0.194  10.337
   59CHL1   H4B 6779   2.415   0.238  10.387
   59CHL1    C5 6780   2.464   0.264  10.171
   59CHL1    C6 6781   2.340   0.236  10.133
   59CHL1    H6 6782   2.267   0.211  10.210
   59CHL1    C7 6783   2.296   0.235   9.989
   59CHL1   H7A 6784   2.221   0.156   9.967
   59CHL1   H7B 6785   2.237   0.328   9.975
   59CHL1    C8 6786   2.411   0.224   9.891
   59CHL1    H8 6787   2.453   0.122   9.899
   59CHL1   C14 6788   2.372   0.264   9.746
   59CHL1   H14 6789   2.345   0.372   9.749
   59CHL1   C15 6790   2.244   0.193   9.682
   59CHL1  H15A 6791   2.253   0.083   9.694
   59CHL1  H15B 6792   2.158   0.240   9.734
   59CHL1   C16 6793   2.257   0.233   9.535
   59CHL1  H16A 6794   2.236   0.139   9.479
   59CHL1  H16B 6795   2.175   0.303   9.508
   59CHL1   C17 6796   2.396   0.290   9.511
   59CHL1   H17 6797   2.390   0.400   9.512
   59CHL1   C13 6798   2.476   0.250   9.644
   59CHL1   C18 6799   2.523   0.102   9.633
   59CHL1  H18A 6800   2.595   0.088   9.549
   59CHL1  H18B 6801   2.570   0.069   9.728
   59CHL1  H18C 6802   2.443   0.028   9.611
   59CHL1   C12 6803   2.582   0.352   9.694
   59CHL1  H12A 6804   2.659   0.365   9.615
   59CHL1  H12B 6805   2.545   0.457   9.690
   59CHL1   C11 6806   2.635   0.308   9.827
   59CHL1  H11A 6807   2.691   0.212   9.822
   59CHL1  H11B 6808   2.709   0.388   9.847
   59CHL1    C9 6809   2.531   0.312   9.933
   59CHL1    H9 6810   2.478   0.409   9.927
   59CHL1   C10 6811   2.581   0.308  10.078
   59CHL1   C19 6812   2.695   0.205  10.078
   59CHL1  H19A 6813   2.795   0.238  10.042
   59CHL1  H19B 6814   2.713   0.173  10.182
   59CHL1  H19C 6815   2.671   0.108  10.029
   59CHL1    C1 6816   2.631   0.445  10.130
   59CHL1   H1A 6817   2.723   0.471  10.072
   59CHL1   H1B 6818   2.553   0.521  10.108
   59CHL1    C2 6819   2.667   0.445  10.281
   59CHL1   H2A 6820   2.695   0.545  10.318
   59CHL1   H2B 6821   2.767   0.397  10.287
   59CHL1   C20 6822   2.463   0.250   9.373
   59CHL1   H20 6823   2.487   0.142   9.368
   59CHL1   C21 6824   2.602   0.327   9.357
   59CHL1  H21A 6825   2.589   0.437   9.359
   59CHL1  H21B 6826   2.650   0.316   9.258
   59CHL1  H21C 6827   2.676   0.301   9.436
   59CHL1   C22 6828   2.374   0.289   9.253
   59CHL1  H22A 6829   2.443   0.269   9.168
   59CHL1  H22B 6830   2.289   0.218   9.246
   59CHL1   C23 6831   2.330   0.435   9.241
   59CHL1  H23A 6832   2.281   0.462   9.337
   59CHL1  H23B 6833   2.419   0.502   9.239
   59CHL1   C24 6834   2.241   0.455   9.118
   59CHL1  H24A 6835   2.147   0.395   9.114
   59CHL1  H24B 6836   2.196   0.557   9.121
   59CHL1   C25 6837   2.312   0.440   8.977
   59CHL1   H25 6838   2.312   0.330   8.966
   59CHL1   C26 6839   2.229   0.507   8.869
   59CHL1  H26A 6840   2.219   0.615   8.894
   59CHL1  H26B 6841   2.276   0.477   8.773
   59CHL1  H26C 6842   2.123   0.474   8.870
   59CHL1   C27 6843   2.461   0.502   8.974
   59CHL1  H27A 6844   2.512   0.489   8.876
   59CHL1  H27B 6845   2.454   0.608   9.008
   59CHL1  H27C 6846   2.523   0.448   9.049
   60CHL1    C3 6847   1.960   6.023  10.281
   60CHL1    H3 6848   1.903   5.950  10.219
   60CHL1    O3 6849   1.937   5.986  10.418
   60CHL1   H3' 6850   1.989   6.048  10.468
   60CHL1    C4 6851   2.110   6.019  10.252
   60CHL1   H4A 6852   2.156   6.091  10.322
   60CHL1   H4B 6853   2.144   5.913  10.258
   60CHL1    C5 6854   2.142   6.062  10.107
   60CHL1    C6 6855   2.214   5.981  10.021
   60CHL1    H6 6856   2.240   5.879  10.052
   60CHL1    C7 6857   2.249   6.029   9.884
   60CHL1   H7A 6858   2.353   6.002   9.856
   60CHL1   H7B 6859   2.178   5.992   9.807
   60CHL1    C8 6860   2.255   6.182   9.876
   60CHL1    H8 6861   2.343   6.225   9.930
   60CHL1   C14 6862   2.274   6.232   9.729
   60CHL1   H14 6863   2.190   6.175   9.684
   60CHL1   C15 6864   2.392   6.182   9.646
   60CHL1  H15A 6865   2.488   6.205   9.696
   60CHL1  H15B 6866   2.394   6.072   9.626
   60CHL1   C16 6867   2.385   6.270   9.518
   60CHL1  H16A 6868   2.493   6.289   9.501
   60CHL1  H16B 6869   2.348   6.227   9.423
   60CHL1   C17 6870   2.289   6.387   9.554
   60CHL1   H17 6871   2.198   6.354   9.500
   60CHL1   C13 6872   2.259   6.382   9.705
   60CHL1   C18 6873   2.368   6.457   9.785
   60CHL1  H18A 6874   2.365   6.567   9.772
   60CHL1  H18B 6875   2.359   6.428   9.892
   60CHL1  H18C 6876   2.469   6.421   9.756
   60CHL1   C12 6877   2.119   6.417   9.751
   60CHL1  H12A 6878   2.110   6.526   9.734
   60CHL1  H12B 6879   2.046   6.367   9.683
   60CHL1   C11 6880   2.091   6.392   9.902
   60CHL1  H11A 6881   2.168   6.450   9.958
   60CHL1  H11B 6882   1.990   6.430   9.928
   60CHL1    C9 6883   2.120   6.242   9.932
   60CHL1    H9 6884   2.037   6.193   9.877
   60CHL1   C10 6885   2.101   6.206  10.078
   60CHL1   C19 6886   2.173   6.316  10.164
   60CHL1  H19A 6887   2.182   6.290  10.272
   60CHL1  H19B 6888   2.277   6.329  10.129
   60CHL1  H19C 6889   2.126   6.417  10.160
   60CHL1    C1 6890   1.946   6.201  10.121
   60CHL1   H1A 6891   1.906   6.304  10.106
   60CHL1   H1B 6892   1.894   6.132  10.051
   60CHL1    C2 6893   1.901   6.155  10.260
   60CHL1   H2A 6894   1.791   6.161  10.255
   60CHL1   H2B 6895   1.951   6.223  10.333
   60CHL1   C20 6896   2.333   6.526   9.498
   60CHL1   H20 6897   2.423   6.546   9.559
   60CHL1   C21 6898   2.223   6.626   9.526
   60CHL1  H21A 6899   2.125   6.574   9.515
   60CHL1  H21B 6900   2.223   6.719   9.467
   60CHL1  H21C 6901   2.233   6.661   9.631
   60CHL1   C22 6902   2.367   6.514   9.346
   60CHL1  H22A 6903   2.452   6.444   9.335
   60CHL1  H22B 6904   2.284   6.456   9.299
   60CHL1   C23 6905   2.399   6.646   9.281
   60CHL1  H23A 6906   2.307   6.705   9.259
   60CHL1  H23B 6907   2.466   6.713   9.339
   60CHL1   C24 6908   2.460   6.624   9.145
   60CHL1  H24A 6909   2.527   6.537   9.161
   60CHL1  H24B 6910   2.376   6.589   9.082
   60CHL1   C25 6911   2.529   6.742   9.072
   60CHL1   H25 6912   2.596   6.790   9.146
   60CHL1   C26 6913   2.612   6.688   8.955
   60CHL1  H26A 6914   2.681   6.761   8.909
   60CHL1  H26B 6915   2.678   6.602   8.979
   60CHL1  H26C 6916   2.546   6.654   8.873
   60CHL1   C27 6917   2.424   6.831   9.006
   60CHL1  H27A 6918   2.342   6.777   8.954
   60CHL1  H27B 6919   2.376   6.892   9.086
   60CHL1  H27C 6920   2.462   6.910   8.938
   61CHL1    C3 6921   5.430   5.375  10.333
   61CHL1    H3 6922   5.381   5.281  10.301
   61CHL1    O3 6923   5.376   5.416  10.459
   61CHL1   H3' 6924   5.430   5.490  10.488
   61CHL1    C4 6925   5.580   5.335  10.345
   61CHL1   H4A 6926   5.638   5.412  10.401
   61CHL1   H4B 6927   5.594   5.245  10.409
   61CHL1    C5 6928   5.645   5.310  10.209
   61CHL1    C6 6929   5.690   5.190  10.185
   61CHL1    H6 6930   5.690   5.112  10.263
   61CHL1    C7 6931   5.771   5.160  10.067
   61CHL1   H7A 6932   5.858   5.104  10.108
   61CHL1   H7B 6933   5.725   5.083  10.002
   61CHL1    C8 6934   5.808   5.289   9.983
   61CHL1    H8 6935   5.892   5.341  10.034
   61CHL1   C14 6936   5.863   5.246   9.846
   61CHL1   H14 6937   5.782   5.196   9.789
   61CHL1   C15 6938   5.990   5.158   9.845
   61CHL1  H15A 6939   6.063   5.181   9.925
   61CHL1  H15B 6940   5.978   5.048   9.838
   61CHL1   C16 6941   6.060   5.191   9.707
   61CHL1  H16A 6942   6.162   5.233   9.720
   61CHL1  H16B 6943   6.068   5.104   9.639
   61CHL1   C17 6944   5.971   5.299   9.645
   61CHL1   H17 6945   5.886   5.249   9.594
   61CHL1   C13 6946   5.900   5.371   9.760
   61CHL1   C18 6947   6.001   5.469   9.820
   61CHL1  H18A 6948   6.096   5.417   9.846
   61CHL1  H18B 6949   6.022   5.559   9.759
   61CHL1  H18C 6950   5.956   5.510   9.913
   61CHL1   C12 6951   5.773   5.446   9.728
   61CHL1  H12A 6952   5.786   5.531   9.657
   61CHL1  H12B 6953   5.695   5.379   9.687
   61CHL1   C11 6954   5.707   5.492   9.859
   61CHL1  H11A 6955   5.771   5.569   9.907
   61CHL1  H11B 6956   5.609   5.540   9.839
   61CHL1    C9 6957   5.689   5.380   9.968
   61CHL1    H9 6958   5.610   5.313   9.929
   61CHL1   C10 6959   5.637   5.425  10.110
   61CHL1   C19 6960   5.724   5.541  10.158
   61CHL1  H19A 6961   5.716   5.635  10.099
   61CHL1  H19B 6962   5.694   5.575  10.260
   61CHL1  H19C 6963   5.831   5.513  10.166
   61CHL1    C1 6964   5.493   5.468  10.100
   61CHL1   H1A 6965   5.482   5.557  10.033
   61CHL1   H1B 6966   5.434   5.384  10.059
   61CHL1    C2 6967   5.424   5.495  10.238
   61CHL1   H2A 6968   5.319   5.524  10.217
   61CHL1   H2B 6969   5.470   5.577  10.297
   61CHL1   C20 6970   6.039   5.392   9.541
   61CHL1   H20 6971   5.989   5.491   9.546
   61CHL1   C21 6972   6.011   5.335   9.396
   61CHL1  H21A 6973   6.078   5.255   9.359
   61CHL1  H21B 6974   6.001   5.418   9.322
   61CHL1  H21C 6975   5.906   5.297   9.391
   61CHL1   C22 6976   6.190   5.424   9.551
   61CHL1  H22A 6977   6.211   5.459   9.654
   61CHL1  H22B 6978   6.238   5.325   9.539
   61CHL1   C23 6979   6.250   5.531   9.456
   61CHL1  H23A 6980   6.358   5.546   9.475
   61CHL1  H23B 6981   6.244   5.479   9.358
   61CHL1   C24 6982   6.181   5.668   9.459
   61CHL1  H24A 6983   6.071   5.668   9.450
   61CHL1  H24B 6984   6.206   5.724   9.552
   61CHL1   C25 6985   6.221   5.775   9.342
   61CHL1   H25 6986   6.330   5.757   9.330
   61CHL1   C26 6987   6.151   5.735   9.215
   61CHL1  H26A 6988   6.047   5.770   9.225
   61CHL1  H26B 6989   6.201   5.791   9.134
   61CHL1  H26C 6990   6.153   5.625   9.199
   61CHL1   C27 6991   6.191   5.920   9.370
   61CHL1  H27A 6992   6.083   5.938   9.385
   61CHL1  H27B 6993   6.233   5.953   9.468
   61CHL1  H27C 6994   6.234   5.987   9.292
   62CHL1    C3 6995   0.026   2.024   9.992
   62CHL1    H3 6996   0.056   1.933   9.936
   62CHL1    O3 6997   0.002   1.999  10.125
   62CHL1   H3' 6998  -0.030   2.080  10.165
   62CHL1    C4 6999   0.134   2.141   9.971
   62CHL1   H4A 7000   0.093   2.235  10.014
   62CHL1   H4B 7001   0.227   2.114  10.025
   62CHL1    C5 7002   0.153   2.158   9.820
   62CHL1    C6 7003   0.270   2.148   9.754
   62CHL1    H6 7004   0.358   2.142   9.821
   62CHL1    C7 7005   0.297   2.178   9.610
   62CHL1   H7A 7006   0.376   2.256   9.612
   62CHL1   H7B 7007   0.333   2.084   9.563
   62CHL1    C8 7008   0.176   2.228   9.531
   62CHL1    H8 7009   0.165   2.338   9.539
   62CHL1   C14 7010   0.192   2.198   9.384
   62CHL1   H14 7011   0.198   2.087   9.384
   62CHL1   C15 7012   0.318   2.246   9.309
   62CHL1  H15A 7013   0.326   2.354   9.335
   62CHL1  H15B 7014   0.407   2.190   9.346
   62CHL1   C16 7015   0.276   2.232   9.157
   62CHL1  H16A 7016   0.287   2.335   9.116
   62CHL1  H16B 7017   0.339   2.166   9.094
   62CHL1   C17 7018   0.124   2.201   9.158
   62CHL1   H17 7019   0.112   2.091   9.150
   62CHL1   C13 7020   0.073   2.240   9.303
   62CHL1   C18 7021   0.049   2.390   9.311
   62CHL1  H18A 7022  -0.051   2.398   9.264
   62CHL1  H18B 7023   0.031   2.426   9.415
   62CHL1  H18C 7024   0.108   2.460   9.248
   62CHL1   C12 7025  -0.047   2.154   9.355
   62CHL1  H12A 7026  -0.144   2.171   9.302
   62CHL1  H12B 7027  -0.011   2.049   9.354
   62CHL1   C11 7028  -0.080   2.185   9.497
   62CHL1  H11A 7029  -0.110   2.292   9.503
   62CHL1  H11B 7030  -0.165   2.121   9.529
   62CHL1    C9 7031   0.047   2.164   9.587
   62CHL1    H9 7032   0.063   2.054   9.579
   62CHL1   C10 7033   0.023   2.187   9.738
   62CHL1   C19 7034  -0.010   2.338   9.764
   62CHL1  H19A 7035   0.047   2.417   9.710
   62CHL1  H19B 7036  -0.119   2.355   9.748
   62CHL1  H19C 7037  -0.003   2.367   9.871
   62CHL1    C1 7038  -0.093   2.093   9.781
   62CHL1   H1A 7039  -0.193   2.134   9.755
   62CHL1   H1B 7040  -0.069   1.990   9.747
   62CHL1    C2 7041  -0.107   2.069   9.933
   62CHL1   H2A 7042  -0.170   1.978   9.945
   62CHL1   H2B 7043  -0.139   2.163   9.983
   62CHL1   C20 7044   0.042   2.266   9.042
   62CHL1   H20 7045   0.005   2.365   9.076
   62CHL1   C21 7046  -0.091   2.181   9.017
   62CHL1  H21A 7047  -0.069   2.073   9.001
   62CHL1  H21B 7048  -0.145   2.225   8.931
   62CHL1  H21C 7049  -0.152   2.206   9.106
   62CHL1   C22 7050   0.128   2.283   8.915
   62CHL1  H22A 7051   0.197   2.364   8.945
   62CHL1  H22B 7052   0.194   2.196   8.894
   62CHL1   C23 7053   0.056   2.329   8.789
   62CHL1  H23A 7054  -0.008   2.253   8.739
   62CHL1  H23B 7055  -0.003   2.416   8.825
   62CHL1   C24 7056   0.154   2.395   8.687
   62CHL1  H24A 7057   0.091   2.425   8.601
   62CHL1  H24B 7058   0.196   2.483   8.739
   62CHL1   C25 7059   0.256   2.298   8.629
   62CHL1   H25 7060   0.325   2.281   8.714
   62CHL1   C26 7061   0.198   2.166   8.582
   62CHL1  H26A 7062   0.122   2.191   8.505
   62CHL1  H26B 7063   0.283   2.112   8.535
   62CHL1  H26C 7064   0.140   2.101   8.652
   62CHL1   C27 7065   0.347   2.376   8.527
   62CHL1  H27A 7066   0.397   2.459   8.581
   62CHL1  H27B 7067   0.430   2.314   8.487
   62CHL1  H27C 7068   0.285   2.400   8.438
   63CHL1    C3 7069   1.393   3.717  10.436
   63CHL1    H3 7070   1.490   3.771  10.448
   63CHL1    O3 7071   1.340   3.677  10.563
   63CHL1   H3' 7072   1.266   3.617  10.550
   63CHL1    C4 7073   1.286   3.776  10.345
   63CHL1   H4A 7074   1.200   3.706  10.350
   63CHL1   H4B 7075   1.252   3.869  10.396
   63CHL1    C5 7076   1.327   3.797  10.205
   63CHL1    C6 7077   1.317   3.918  10.153
   63CHL1    H6 7078   1.289   4.002  10.218
   63CHL1    C7 7079   1.365   3.951  10.014
   63CHL1   H7A 7080   1.297   4.018   9.957
   63CHL1   H7B 7081   1.463   4.004  10.018
   63CHL1    C8 7082   1.369   3.830   9.922
   63CHL1    H8 7083   1.265   3.798   9.903
   63CHL1   C14 7084   1.441   3.872   9.792
   63CHL1   H14 7085   1.539   3.911   9.827
   63CHL1   C15 7086   1.386   3.989   9.712
   63CHL1  H15A 7087   1.276   3.981   9.699
   63CHL1  H15B 7088   1.404   4.091   9.751
   63CHL1   C16 7089   1.450   3.970   9.578
   63CHL1  H16A 7090   1.368   3.962   9.504
   63CHL1  H16B 7091   1.526   4.045   9.546
   63CHL1   C17 7092   1.529   3.836   9.583
   63CHL1   H17 7093   1.627   3.871   9.621
   63CHL1   C13 7094   1.457   3.761   9.693
   63CHL1   C18 7095   1.321   3.702   9.644
   63CHL1  H18A 7096   1.270   3.646   9.725
   63CHL1  H18B 7097   1.256   3.784   9.605
   63CHL1  H18C 7098   1.332   3.624   9.566
   63CHL1   C12 7099   1.543   3.656   9.762
   63CHL1  H12A 7100   1.538   3.563   9.702
   63CHL1  H12B 7101   1.649   3.682   9.782
   63CHL1   C11 7102   1.494   3.603   9.910
   63CHL1  H11A 7103   1.404   3.544   9.883
   63CHL1  H11B 7104   1.568   3.537   9.960
   63CHL1    C9 7105   1.449   3.722   9.999
   63CHL1    H9 7106   1.541   3.774  10.034
   63CHL1   C10 7107   1.378   3.672  10.125
   63CHL1   C19 7108   1.261   3.579  10.103
   63CHL1  H19A 7109   1.297   3.483  10.059
   63CHL1  H19B 7110   1.226   3.537  10.200
   63CHL1  H19C 7111   1.182   3.623  10.038
   63CHL1    C1 7112   1.489   3.615  10.224
   63CHL1   H1A 7113   1.537   3.527  10.176
   63CHL1   H1B 7114   1.563   3.697  10.235
   63CHL1    C2 7115   1.437   3.583  10.366
   63CHL1   H2A 7116   1.516   3.528  10.423
   63CHL1   H2B 7117   1.355   3.508  10.360
   63CHL1   C20 7118   1.539   3.766   9.437
   63CHL1   H20 7119   1.436   3.763   9.395
   63CHL1   C21 7120   1.607   3.627   9.465
   63CHL1  H21A 7121   1.644   3.588   9.367
   63CHL1  H21B 7122   1.530   3.561   9.510
   63CHL1  H21C 7123   1.695   3.632   9.533
   63CHL1   C22 7124   1.628   3.854   9.352
   63CHL1  H22A 7125   1.585   3.956   9.343
   63CHL1  H22B 7126   1.732   3.857   9.391
   63CHL1   C23 7127   1.638   3.820   9.195
   63CHL1  H23A 7128   1.707   3.888   9.140
   63CHL1  H23B 7129   1.678   3.717   9.189
   63CHL1   C24 7130   1.506   3.846   9.121
   63CHL1  H24A 7131   1.421   3.846   9.192
   63CHL1  H24B 7132   1.501   3.949   9.080
   63CHL1   C25 7133   1.468   3.750   9.006
   63CHL1   H25 7134   1.380   3.802   8.963
   63CHL1   C26 7135   1.573   3.765   8.907
   63CHL1  H26A 7136   1.654   3.690   8.922
   63CHL1  H26B 7137   1.531   3.750   8.804
   63CHL1  H26C 7138   1.611   3.868   8.917
   63CHL1   C27 7139   1.443   3.614   9.055
   63CHL1  H27A 7140   1.369   3.596   9.136
   63CHL1  H27B 7141   1.396   3.565   8.967
   63CHL1  H27C 7142   1.537   3.559   9.077
   64CHL1    C3 7143   0.614   3.155  10.038
   64CHL1    H3 7144   0.633   3.047  10.026
   64CHL1    O3 7145   0.580   3.173  10.173
   64CHL1   H3' 7146   0.545   3.262  10.183
   64CHL1    C4 7147   0.739   3.240  10.007
   64CHL1   H4A 7148   0.705   3.341  10.037
   64CHL1   H4B 7149   0.819   3.214  10.080
   64CHL1    C5 7150   0.782   3.244   9.861
   64CHL1    C6 7151   0.907   3.204   9.826
   64CHL1    H6 7152   0.989   3.197   9.899
   64CHL1    C7 7153   0.954   3.181   9.682
   64CHL1   H7A 7154   1.050   3.233   9.660
   64CHL1   H7B 7155   0.974   3.075   9.658
   64CHL1    C8 7156   0.856   3.251   9.583
   64CHL1    H8 7157   0.869   3.362   9.584
   64CHL1   C14 7158   0.873   3.201   9.441
   64CHL1   H14 7159   0.851   3.092   9.437
   64CHL1   C15 7160   1.015   3.208   9.386
   64CHL1  H15A 7161   1.040   3.313   9.410
   64CHL1  H15B 7162   1.080   3.130   9.431
   64CHL1   C16 7163   1.006   3.189   9.228
   64CHL1  H16A 7164   1.042   3.285   9.185
   64CHL1  H16B 7165   1.064   3.102   9.191
   64CHL1   C17 7166   0.854   3.184   9.198
   64CHL1   H17 7167   0.825   3.079   9.215
   64CHL1   C13 7168   0.793   3.262   9.327
   64CHL1   C18 7169   0.818   3.418   9.310
   64CHL1  H18A 7170   0.764   3.470   9.392
   64CHL1  H18B 7171   0.924   3.450   9.312
   64CHL1  H18C 7172   0.780   3.460   9.215
   64CHL1   C12 7173   0.642   3.236   9.362
   64CHL1  H12A 7174   0.582   3.295   9.290
   64CHL1  H12B 7175   0.634   3.126   9.357
   64CHL1   C11 7176   0.608   3.269   9.507
   64CHL1  H11A 7177   0.604   3.379   9.501
   64CHL1  H11B 7178   0.506   3.231   9.528
   64CHL1    C9 7179   0.710   3.227   9.614
   64CHL1    H9 7180   0.698   3.117   9.619
   64CHL1   C10 7181   0.670   3.264   9.761
   64CHL1   C19 7182   0.634   3.412   9.757
   64CHL1  H19A 7183   0.694   3.477   9.690
   64CHL1  H19B 7184   0.531   3.415   9.714
   64CHL1  H19C 7185   0.618   3.469   9.851
   64CHL1    C1 7186   0.541   3.177   9.799
   64CHL1   H1A 7187   0.450   3.204   9.741
   64CHL1   H1B 7188   0.567   3.070   9.786
   64CHL1    C2 7189   0.498   3.199   9.947
   64CHL1   H2A 7190   0.419   3.125   9.971
   64CHL1   H2B 7191   0.460   3.301   9.967
   64CHL1   C20 7192   0.818   3.230   9.054
   64CHL1   H20 7193   0.839   3.338   9.038
   64CHL1   C21 7194   0.669   3.202   9.028
   64CHL1  H21A 7195   0.650   3.238   8.925
   64CHL1  H21B 7196   0.601   3.250   9.102
   64CHL1  H21C 7197   0.653   3.093   9.037
   64CHL1   C22 7198   0.897   3.149   8.940
   64CHL1  H22A 7199   1.006   3.138   8.955
   64CHL1  H22B 7200   0.855   3.046   8.938
   64CHL1   C23 7201   0.878   3.204   8.800
   64CHL1  H23A 7202   0.783   3.259   8.786
   64CHL1  H23B 7203   0.964   3.270   8.777
   64CHL1   C24 7204   0.898   3.097   8.691
   64CHL1  H24A 7205   1.006   3.072   8.680
   64CHL1  H24B 7206   0.839   3.007   8.719
   64CHL1   C25 7207   0.846   3.137   8.556
   64CHL1   H25 7208   0.737   3.154   8.554
   64CHL1   C26 7209   0.910   3.262   8.495
   64CHL1  H26A 7210   0.873   3.286   8.393
   64CHL1  H26B 7211   0.900   3.357   8.552
   64CHL1  H26C 7212   1.018   3.240   8.479
   64CHL1   C27 7213   0.862   3.018   8.454
   64CHL1  H27A 7214   0.792   2.936   8.478
   64CHL1  H27B 7215   0.831   3.040   8.350
   64CHL1  H27C 7216   0.966   2.981   8.446
   65CHL1    C3 7217   3.255   0.304  10.220
   65CHL1    H3 7218   3.296   0.201  10.207
   65CHL1    O3 7219   3.271   0.325  10.355
   65CHL1   H3' 7220   3.270   0.420  10.364
   65CHL1    C4 7221   3.347   0.410  10.150
   65CHL1   H4A 7222   3.316   0.514  10.175
   65CHL1   H4B 7223   3.452   0.406  10.186
   65CHL1    C5 7224   3.328   0.397   9.998
   65CHL1    C6 7225   3.432   0.378   9.914
   65CHL1    H6 7226   3.537   0.370   9.946
   65CHL1    C7 7227   3.409   0.368   9.763
   65CHL1   H7A 7228   3.492   0.418   9.710
   65CHL1   H7B 7229   3.402   0.263   9.727
   65CHL1    C8 7230   3.277   0.443   9.719
   65CHL1    H8 7231   3.309   0.548   9.738
   65CHL1   C14 7232   3.254   0.424   9.574
   65CHL1   H14 7233   3.247   0.314   9.562
   65CHL1   C15 7234   3.355   0.472   9.470
   65CHL1  H15A 7235   3.371   0.578   9.499
   65CHL1  H15B 7236   3.451   0.418   9.470
   65CHL1   C16 7237   3.288   0.478   9.333
   65CHL1  H16A 7238   3.296   0.578   9.286
   65CHL1  H16B 7239   3.335   0.394   9.277
   65CHL1   C17 7240   3.137   0.448   9.362
   65CHL1   H17 7241   3.120   0.342   9.334
   65CHL1   C13 7242   3.119   0.478   9.515
   65CHL1   C18 7243   3.109   0.634   9.545
   65CHL1  H18A 7244   3.008   0.674   9.522
   65CHL1  H18B 7245   3.125   0.661   9.651
   65CHL1  H18C 7246   3.174   0.699   9.482
   65CHL1   C12 7247   3.012   0.398   9.589
   65CHL1  H12A 7248   2.910   0.434   9.564
   65CHL1  H12B 7249   3.005   0.290   9.563
   65CHL1   C11 7250   3.021   0.422   9.741
   65CHL1  H11A 7251   3.006   0.530   9.763
   65CHL1  H11B 7252   2.937   0.375   9.796
   65CHL1    C9 7253   3.155   0.394   9.799
   65CHL1    H9 7254   3.144   0.284   9.794
   65CHL1   C10 7255   3.180   0.420   9.956
   65CHL1   C19 7256   3.138   0.569   9.984
   65CHL1  H19A 7257   3.032   0.588   9.958
   65CHL1  H19B 7258   3.159   0.600  10.089
   65CHL1  H19C 7259   3.199   0.634   9.918
   65CHL1    C1 7260   3.083   0.325  10.034
   65CHL1   H1A 7261   2.977   0.356  10.024
   65CHL1   H1B 7262   3.101   0.221  10.000
   65CHL1    C2 7263   3.107   0.325  10.183
   65CHL1   H2A 7264   3.048   0.243  10.229
   65CHL1   H2B 7265   3.075   0.424  10.222
   65CHL1   C20 7266   3.041   0.524   9.266
   65CHL1   H20 7267   3.051   0.632   9.289
   65CHL1   C21 7268   2.900   0.467   9.291
   65CHL1  H21A 7269   2.902   0.356   9.278
   65CHL1  H21B 7270   2.831   0.520   9.222
   65CHL1  H21C 7271   2.855   0.489   9.390
   65CHL1   C22 7272   3.083   0.497   9.123
   65CHL1  H22A 7273   3.190   0.503   9.094
   65CHL1  H22B 7274   3.050   0.398   9.085
   65CHL1   C23 7275   3.033   0.603   9.017
   65CHL1  H23A 7276   2.923   0.610   9.024
   65CHL1  H23B 7277   3.078   0.700   9.049
   65CHL1   C24 7278   3.088   0.578   8.877
   65CHL1  H24A 7279   3.198   0.580   8.887
   65CHL1  H24B 7280   3.061   0.478   8.836
   65CHL1   C25 7281   3.027   0.689   8.785
   65CHL1   H25 7282   3.026   0.779   8.851
   65CHL1   C26 7283   3.111   0.717   8.665
   65CHL1  H26A 7284   3.091   0.637   8.591
   65CHL1  H26B 7285   3.069   0.814   8.629
   65CHL1  H26C 7286   3.216   0.741   8.692
   65CHL1   C27 7287   2.878   0.658   8.745
   65CHL1  H27A 7288   2.842   0.758   8.712
   65CHL1  H27B 7289   2.871   0.581   8.665
   65CHL1  H27C 7290   2.811   0.628   8.829
   66CHL1    C3 7291   0.854   5.254  10.684
   66CHL1    H3 7292   0.871   5.364  10.680
   66CHL1    O3 7293   0.842   5.225  10.823
   66CHL1   H3' 7294   0.758   5.179  10.833
   66CHL1    C4 7295   0.716   5.218  10.612
   66CHL1   H4A 7296   0.693   5.116  10.649
   66CHL1   H4B 7297   0.639   5.289  10.651
   66CHL1    C5 7298   0.724   5.227  10.464
   66CHL1    C6 7299   0.649   5.309  10.393
   66CHL1    H6 7300   0.576   5.364  10.454
   66CHL1    C7 7301   0.646   5.325  10.242
   66CHL1   H7A 7302   0.543   5.313  10.202
   66CHL1   H7B 7303   0.686   5.422  10.208
   66CHL1    C8 7304   0.736   5.216  10.177
   66CHL1    H8 7305   0.684   5.117  10.179
   66CHL1   C14 7306   0.766   5.252  10.027
   66CHL1   H14 7307   0.832   5.341  10.038
   66CHL1   C15 7308   0.649   5.292   9.938
   66CHL1  H15A 7309   0.563   5.221   9.943
   66CHL1  H15B 7310   0.621   5.397   9.959
   66CHL1   C16 7311   0.710   5.294   9.795
   66CHL1  H16A 7312   0.639   5.233   9.736
   66CHL1  H16B 7313   0.724   5.394   9.749
   66CHL1   C17 7314   0.848   5.231   9.801
   66CHL1   H17 7315   0.923   5.314   9.804
   66CHL1   C13 7316   0.847   5.158   9.947
   66CHL1   C18 7317   0.769   5.031   9.928
   66CHL1  H18A 7318   0.673   5.050   9.875
   66CHL1  H18B 7319   0.833   4.949   9.889
   66CHL1  H18C 7320   0.742   4.977  10.021
   66CHL1   C12 7321   0.979   5.136  10.020
   66CHL1  H12A 7322   1.022   5.046   9.971
   66CHL1  H12B 7323   1.051   5.219  10.005
   66CHL1   C11 7324   0.957   5.097  10.169
   66CHL1  H11A 7325   0.911   4.996  10.175
   66CHL1  H11B 7326   1.060   5.084  10.209
   66CHL1    C9 7327   0.868   5.194  10.249
   66CHL1    H9 7328   0.921   5.291  10.252
   66CHL1   C10 7329   0.847   5.156  10.400
   66CHL1   C19 7330   0.823   5.003  10.406
   66CHL1  H19A 7331   0.731   4.973  10.351
   66CHL1  H19B 7332   0.908   4.938  10.375
   66CHL1  H19C 7333   0.801   4.973  10.511
   66CHL1    C1 7334   0.975   5.187  10.472
   66CHL1   H1A 7335   1.059   5.122  10.439
   66CHL1   H1B 7336   1.006   5.291  10.450
   66CHL1    C2 7337   0.967   5.173  10.622
   66CHL1   H2A 7338   1.059   5.217  10.667
   66CHL1   H2B 7339   0.959   5.063  10.639
   66CHL1   C20 7340   0.893   5.150   9.686
   66CHL1   H20 7341   0.829   5.059   9.682
   66CHL1   C21 7342   1.039   5.103   9.695
   66CHL1  H21A 7343   1.109   5.190   9.690
   66CHL1  H21B 7344   1.062   5.033   9.612
   66CHL1  H21C 7345   1.055   5.042   9.787
   66CHL1   C22 7346   0.880   5.216   9.539
   66CHL1  H22A 7347   0.783   5.269   9.538
   66CHL1  H22B 7348   0.960   5.290   9.519
   66CHL1   C23 7349   0.897   5.114   9.425
   66CHL1  H23A 7350   0.993   5.058   9.433
   66CHL1  H23B 7351   0.819   5.034   9.430
   66CHL1   C24 7352   0.889   5.174   9.287
   66CHL1  H24A 7353   0.798   5.237   9.275
   66CHL1  H24B 7354   0.983   5.230   9.272
   66CHL1   C25 7355   0.878   5.069   9.172
   66CHL1   H25 7356   0.937   4.978   9.195
   66CHL1   C26 7357   0.738   5.012   9.154
   66CHL1  H26A 7358   0.744   4.920   9.092
   66CHL1  H26B 7359   0.707   4.975   9.254
   66CHL1  H26C 7360   0.667   5.089   9.119
   66CHL1   C27 7361   0.936   5.130   9.042
   66CHL1  H27A 7362   0.933   5.055   8.960
   66CHL1  H27B 7363   0.878   5.221   9.017
   66CHL1  H27C 7364   1.044   5.155   9.046
   67CHL1    C3 7365   5.029   5.665  10.329
   67CHL1    H3 7366   5.125   5.709  10.293
   67CHL1    O3 7367   5.032   5.668  10.471
   67CHL1   H3' 7368   4.938   5.656  10.486
   67CHL1    C4 7369   4.913   5.753  10.281
   67CHL1   H4A 7370   4.817   5.714  10.321
   67CHL1   H4B 7371   4.931   5.853  10.325
   67CHL1    C5 7372   4.909   5.759  10.134
   67CHL1    C6 7373   4.920   5.871  10.066
   67CHL1    H6 7374   4.925   5.965  10.123
   67CHL1    C7 7375   4.916   5.881   9.921
   67CHL1   H7A 7376   4.846   5.956   9.878
   67CHL1   H7B 7377   5.019   5.893   9.882
   67CHL1    C8 7378   4.861   5.747   9.856
   67CHL1    H8 7379   4.750   5.749   9.869
   67CHL1   C14 7380   4.892   5.754   9.711
   67CHL1   H14 7381   5.002   5.753   9.698
   67CHL1   C15 7382   4.853   5.883   9.633
   67CHL1  H15A 7383   4.749   5.906   9.665
   67CHL1  H15B 7384   4.924   5.961   9.667
   67CHL1   C16 7385   4.865   5.837   9.489
   67CHL1  H16A 7386   4.774   5.869   9.435
   67CHL1  H16B 7387   4.955   5.879   9.439
   67CHL1   C17 7388   4.867   5.682   9.482
   67CHL1   H17 7389   4.975   5.660   9.465
   67CHL1   C13 7390   4.841   5.634   9.626
   67CHL1   C18 7391   4.685   5.629   9.639
   67CHL1  H18A 7392   4.626   5.720   9.616
   67CHL1  H18B 7393   4.642   5.555   9.568
   67CHL1  H18C 7394   4.655   5.596   9.741
   67CHL1   C12 7395   4.911   5.504   9.681
   67CHL1  H12A 7396   4.868   5.415   9.629
   67CHL1  H12B 7397   5.016   5.509   9.644
   67CHL1   C11 7398   4.896   5.498   9.834
   67CHL1  H11A 7399   4.796   5.457   9.858
   67CHL1  H11B 7400   4.956   5.417   9.879
   67CHL1    C9 7401   4.924   5.627   9.918
   67CHL1    H9 7402   5.033   5.640   9.899
   67CHL1   C10 7403   4.899   5.615  10.075
   67CHL1   C19 7404   4.761   5.556  10.101
   67CHL1  H19A 7405   4.747   5.458  10.051
   67CHL1  H19B 7406   4.743   5.537  10.209
   67CHL1  H19C 7407   4.686   5.626  10.060
   67CHL1    C1 7408   5.013   5.510  10.130
   67CHL1   H1A 7409   5.000   5.408  10.091
   67CHL1   H1B 7410   5.107   5.559  10.097
   67CHL1    C2 7411   5.019   5.514  10.289
   67CHL1   H2A 7412   5.112   5.458  10.314
   67CHL1   H2B 7413   4.931   5.461  10.329
   67CHL1   C20 7414   4.789   5.617   9.366
   67CHL1   H20 7415   4.685   5.655   9.380
   67CHL1   C21 7416   4.808   5.465   9.360
   67CHL1  H21A 7417   4.761   5.419   9.271
   67CHL1  H21B 7418   4.753   5.419   9.444
   67CHL1  H21C 7419   4.918   5.450   9.368
   67CHL1   C22 7420   4.829   5.671   9.229
   67CHL1  H22A 7421   4.868   5.775   9.239
   67CHL1  H22B 7422   4.915   5.611   9.192
   67CHL1   C23 7423   4.707   5.691   9.133
   67CHL1  H23A 7424   4.657   5.592   9.121
   67CHL1  H23B 7425   4.643   5.767   9.183
   67CHL1   C24 7426   4.755   5.724   8.990
   67CHL1  H24A 7427   4.831   5.804   8.982
   67CHL1  H24B 7428   4.807   5.629   8.964
   67CHL1   C25 7429   4.642   5.736   8.886
   67CHL1   H25 7430   4.560   5.662   8.900
   67CHL1   C26 7431   4.573   5.875   8.899
   67CHL1  H26A 7432   4.524   5.897   8.802
   67CHL1  H26B 7433   4.491   5.879   8.974
   67CHL1  H26C 7434   4.646   5.954   8.926
   67CHL1   C27 7435   4.699   5.714   8.745
   67CHL1  H27A 7436   4.726   5.607   8.731
   67CHL1  H27B 7437   4.627   5.751   8.669
   67CHL1  H27C 7438   4.799   5.763   8.736
   68CHL1    C3 7439   3.099   6.679  10.305
   68CHL1    H3 7440   3.092   6.790  10.312
   68CHL1    O3 7441   3.075   6.631  10.435
   68CHL1   H3' 7442   3.056   6.537  10.427
   68CHL1    C4 7443   2.989   6.630  10.207
   68CHL1   H4A 7444   2.993   6.519  10.209
   68CHL1   H4B 7445   2.887   6.643  10.248
   68CHL1    C5 7446   3.022   6.691  10.070
   68CHL1    C6 7447   2.932   6.759  10.002
   68CHL1    H6 7448   2.834   6.778  10.048
   68CHL1    C7 7449   2.931   6.787   9.853
   68CHL1   H7A 7450   2.844   6.742   9.802
   68CHL1   H7B 7451   2.920   6.897   9.836
   68CHL1    C8 7452   3.052   6.729   9.785
   68CHL1    H8 7453   3.038   6.620   9.771
   68CHL1   C14 7454   3.070   6.802   9.655
   68CHL1   H14 7455   3.092   6.909   9.675
   68CHL1   C15 7456   2.945   6.820   9.564
   68CHL1  H15A 7457   2.889   6.725   9.571
   68CHL1  H15B 7458   2.869   6.899   9.584
   68CHL1   C16 7459   3.016   6.827   9.427
   68CHL1  H16A 7460   2.990   6.738   9.366
   68CHL1  H16B 7461   2.979   6.917   9.374
   68CHL1   C17 7462   3.168   6.827   9.445
   68CHL1   H17 7463   3.199   6.933   9.458
   68CHL1   C13 7464   3.183   6.747   9.575
   68CHL1   C18 7465   3.167   6.598   9.536
   68CHL1  H18A 7466   3.143   6.534   9.623
   68CHL1  H18B 7467   3.087   6.580   9.460
   68CHL1  H18C 7468   3.257   6.560   9.483
   68CHL1   C12 7469   3.316   6.763   9.658
   68CHL1  H12A 7470   3.402   6.719   9.605
   68CHL1  H12B 7471   3.338   6.869   9.684
   68CHL1   C11 7472   3.300   6.682   9.793
   68CHL1  H11A 7473   3.278   6.576   9.768
   68CHL1  H11B 7474   3.396   6.704   9.844
   68CHL1    C9 7475   3.180   6.729   9.878
   68CHL1    H9 7476   3.189   6.838   9.894
   68CHL1   C10 7477   3.163   6.659  10.015
   68CHL1   C19 7478   3.185   6.506  10.002
   68CHL1  H19A 7479   3.158   6.452  10.095
   68CHL1  H19B 7480   3.108   6.471   9.929
   68CHL1  H19C 7481   3.293   6.491   9.980
   68CHL1    C1 7482   3.264   6.713  10.120
   68CHL1   H1A 7483   3.367   6.691  10.087
   68CHL1   H1B 7484   3.254   6.824  10.129
   68CHL1    C2 7485   3.240   6.645  10.259
   68CHL1   H2A 7486   3.310   6.689  10.334
   68CHL1   H2B 7487   3.245   6.534  10.260
   68CHL1   C20 7488   3.242   6.772   9.314
   68CHL1   H20 7489   3.191   6.680   9.277
   68CHL1   C21 7490   3.390   6.728   9.331
   68CHL1  H21A 7491   3.412   6.630   9.379
   68CHL1  H21B 7492   3.458   6.802   9.379
   68CHL1  H21C 7493   3.431   6.709   9.230
   68CHL1   C22 7494   3.235   6.891   9.210
   68CHL1  H22A 7495   3.134   6.933   9.191
   68CHL1  H22B 7496   3.287   6.979   9.254
   68CHL1   C23 7497   3.286   6.858   9.072
   68CHL1  H23A 7498   3.396   6.848   9.073
   68CHL1  H23B 7499   3.244   6.758   9.047
   68CHL1   C24 7500   3.261   6.968   8.970
   68CHL1  H24A 7501   3.151   6.983   8.964
   68CHL1  H24B 7502   3.306   7.065   9.002
   68CHL1   C25 7503   3.299   6.930   8.826
   68CHL1   H25 7504   3.219   6.859   8.796
   68CHL1   C26 7505   3.280   7.056   8.736
   68CHL1  H26A 7506   3.276   7.011   8.634
   68CHL1  H26B 7507   3.178   7.096   8.750
   68CHL1  H26C 7508   3.358   7.134   8.743
   68CHL1   C27 7509   3.439   6.867   8.812
   68CHL1  H27A 7510   3.441   6.778   8.878
   68CHL1  H27B 7511   3.456   6.831   8.709
   68CHL1  H27C 7512   3.521   6.937   8.842
   69CHL1    C3 7513   2.467   4.677   6.787
   69CHL1    H3 7514   2.373   4.736   6.797
   69CHL1    O3 7515   2.477   4.646   6.650
   69CHL1   H3' 7516   2.548   4.584   6.633
   69CHL1    C4 7517   2.586   4.754   6.838
   69CHL1   H4A 7518   2.678   4.696   6.820
   69CHL1   H4B 7519   2.585   4.856   6.795
   69CHL1    C5 7520   2.571   4.777   6.988
   69CHL1    C6 7521   2.569   4.899   7.047
   69CHL1    H6 7522   2.581   4.987   6.982
   69CHL1    C7 7523   2.565   4.927   7.194
   69CHL1   H7A 7524   2.637   5.009   7.216
   69CHL1   H7B 7525   2.472   4.980   7.225
   69CHL1    C8 7526   2.586   4.803   7.290
   69CHL1    H8 7527   2.697   4.795   7.285
   69CHL1   C14 7528   2.532   4.826   7.429
   69CHL1   H14 7529   2.422   4.823   7.414
   69CHL1   C15 7530   2.579   4.954   7.499
   69CHL1  H15A 7531   2.684   4.984   7.477
   69CHL1  H15B 7532   2.519   5.044   7.474
   69CHL1   C16 7533   2.532   4.922   7.643
   69CHL1  H16A 7534   2.616   4.951   7.710
   69CHL1  H16B 7535   2.433   4.965   7.671
   69CHL1   C17 7536   2.504   4.763   7.656
   69CHL1   H17 7537   2.394   4.755   7.660
   69CHL1   C13 7538   2.554   4.709   7.523
   69CHL1   C18 7539   2.706   4.679   7.540
   69CHL1  H18A 7540   2.765   4.758   7.590
   69CHL1  H18B 7541   2.721   4.593   7.608
   69CHL1  H18C 7542   2.771   4.662   7.451
   69CHL1   C12 7543   2.479   4.590   7.462
   69CHL1  H12A 7544   2.513   4.504   7.523
   69CHL1  H12B 7545   2.369   4.589   7.474
   69CHL1   C11 7546   2.527   4.558   7.325
   69CHL1  H11A 7547   2.628   4.513   7.339
   69CHL1  H11B 7548   2.470   4.469   7.290
   69CHL1    C9 7549   2.518   4.675   7.225
   69CHL1    H9 7550   2.411   4.703   7.237
   69CHL1   C10 7551   2.549   4.645   7.071
   69CHL1   C19 7552   2.683   4.574   7.069
   69CHL1  H19A 7553   2.684   4.470   7.108
   69CHL1  H19B 7554   2.712   4.560   6.962
   69CHL1  H19C 7555   2.765   4.636   7.110
   69CHL1    C1 7556   2.427   4.567   7.012
   69CHL1   H1A 7557   2.410   4.466   7.054
   69CHL1   H1B 7558   2.338   4.628   7.037
   69CHL1    C2 7559   2.444   4.548   6.863
   69CHL1   H2A 7560   2.348   4.506   6.826
   69CHL1   H2B 7561   2.528   4.478   6.841
   69CHL1   C20 7562   2.556   4.705   7.786
   69CHL1   H20 7563   2.667   4.693   7.789
   69CHL1   C21 7564   2.491   4.558   7.797
   69CHL1  H21A 7565   2.536   4.491   7.720
   69CHL1  H21B 7566   2.380   4.564   7.788
   69CHL1  H21C 7567   2.516   4.521   7.899
   69CHL1   C22 7568   2.519   4.781   7.915
   69CHL1  H22A 7569   2.560   4.884   7.912
   69CHL1  H22B 7570   2.408   4.779   7.914
   69CHL1   C23 7571   2.553   4.720   8.059
   69CHL1  H23A 7572   2.486   4.632   8.068
   69CHL1  H23B 7573   2.659   4.688   8.054
   69CHL1   C24 7574   2.511   4.826   8.160
   69CHL1  H24A 7575   2.553   4.926   8.139
   69CHL1  H24B 7576   2.403   4.849   8.166
   69CHL1   C25 7577   2.562   4.803   8.304
   69CHL1   H25 7578   2.672   4.794   8.285
   69CHL1   C26 7579   2.553   4.939   8.390
   69CHL1  H26A 7580   2.650   4.988   8.412
   69CHL1  H26B 7581   2.475   5.007   8.350
   69CHL1  H26C 7582   2.507   4.905   8.485
   69CHL1   C27 7583   2.509   4.679   8.379
   69CHL1  H27A 7584   2.406   4.689   8.419
   69CHL1  H27B 7585   2.500   4.593   8.310
   69CHL1  H27C 7586   2.587   4.645   8.451
   70CHL1    C3 7587   1.932   1.375   7.123
   70CHL1    H3 7588   1.995   1.286   7.141
   70CHL1    O3 7589   1.935   1.419   6.987
   70CHL1   H3' 7590   2.022   1.460   6.987
   70CHL1    C4 7591   1.791   1.321   7.154
   70CHL1   H4A 7592   1.716   1.386   7.105
   70CHL1   H4B 7593   1.781   1.222   7.105
   70CHL1    C5 7594   1.764   1.298   7.299
   70CHL1    C6 7595   1.701   1.182   7.352
   70CHL1    H6 7596   1.660   1.106   7.284
   70CHL1    C7 7597   1.666   1.162   7.490
   70CHL1   H7A 7598   1.555   1.152   7.486
   70CHL1   H7B 7599   1.708   1.072   7.540
   70CHL1    C8 7600   1.698   1.286   7.584
   70CHL1    H8 7601   1.605   1.347   7.589
   70CHL1   C14 7602   1.710   1.249   7.731
   70CHL1   H14 7603   1.805   1.191   7.731
   70CHL1   C15 7604   1.605   1.165   7.801
   70CHL1  H15A 7605   1.503   1.200   7.775
   70CHL1  H15B 7606   1.622   1.060   7.770
   70CHL1   C16 7607   1.647   1.183   7.948
   70CHL1  H16A 7608   1.550   1.196   8.001
   70CHL1  H16B 7609   1.688   1.092   7.997
   70CHL1   C17 7610   1.750   1.294   7.964
   70CHL1   H17 7611   1.851   1.249   7.969
   70CHL1   C13 7612   1.741   1.363   7.832
   70CHL1   C18 7613   1.625   1.466   7.843
   70CHL1  H18A 7614   1.545   1.408   7.895
   70CHL1  H18B 7615   1.669   1.555   7.891
   70CHL1  H18C 7616   1.583   1.504   7.748
   70CHL1   C12 7617   1.872   1.433   7.782
   70CHL1  H12A 7618   1.895   1.525   7.840
   70CHL1  H12B 7619   1.959   1.364   7.788
   70CHL1   C11 7620   1.860   1.471   7.638
   70CHL1  H11A 7621   1.786   1.553   7.633
   70CHL1  H11B 7622   1.961   1.511   7.616
   70CHL1    C9 7623   1.822   1.357   7.541
   70CHL1    H9 7624   1.911   1.290   7.540
   70CHL1   C10 7625   1.815   1.407   7.386
   70CHL1   C19 7626   1.709   1.517   7.372
   70CHL1  H19A 7627   1.736   1.604   7.436
   70CHL1  H19B 7628   1.713   1.546   7.265
   70CHL1  H19C 7629   1.613   1.473   7.407
   70CHL1    C1 7630   1.953   1.459   7.352
   70CHL1   H1A 7631   1.962   1.558   7.402
   70CHL1   H1B 7632   2.032   1.385   7.377
   70CHL1    C2 7633   1.978   1.490   7.205
   70CHL1   H2A 7634   2.086   1.507   7.187
   70CHL1   H2B 7635   1.916   1.578   7.177
   70CHL1   C20 7636   1.739   1.369   8.104
   70CHL1   H20 7637   1.643   1.425   8.103
   70CHL1   C21 7638   1.851   1.473   8.117
   70CHL1  H21A 7639   1.838   1.522   8.216
   70CHL1  H21B 7640   1.823   1.557   8.050
   70CHL1  H21C 7641   1.951   1.426   8.124
   70CHL1   C22 7642   1.753   1.271   8.227
   70CHL1  H22A 7643   1.692   1.179   8.215
   70CHL1  H22B 7644   1.858   1.235   8.229
   70CHL1   C23 7645   1.699   1.325   8.364
   70CHL1  H23A 7646   1.749   1.422   8.385
   70CHL1  H23B 7647   1.596   1.364   8.348
   70CHL1   C24 7648   1.706   1.225   8.483
   70CHL1  H24A 7649   1.669   1.285   8.569
   70CHL1  H24B 7650   1.637   1.140   8.464
   70CHL1   C25 7651   1.849   1.164   8.515
   70CHL1   H25 7652   1.899   1.136   8.420
   70CHL1   C26 7653   1.946   1.251   8.596
   70CHL1  H26A 7654   2.045   1.202   8.601
   70CHL1  H26B 7655   1.955   1.353   8.551
   70CHL1  H26C 7656   1.906   1.254   8.700
   70CHL1   C27 7657   1.823   1.032   8.584
   70CHL1  H27A 7658   1.920   0.981   8.603
   70CHL1  H27B 7659   1.778   1.052   8.683
   70CHL1  H27C 7660   1.747   0.983   8.518
   71CHL1    C3 7661   1.253   3.892   6.803
   71CHL1    H3 7662   1.181   3.810   6.825
   71CHL1    O3 7663   1.233   3.923   6.671
   71CHL1   H3' 7664   1.292   3.995   6.649
   71CHL1    C4 7665   1.226   4.014   6.879
   71CHL1   H4A 7666   1.295   4.097   6.856
   71CHL1   H4B 7667   1.124   4.051   6.858
   71CHL1    C5 7668   1.246   3.982   7.033
   71CHL1    C6 7669   1.142   4.003   7.120
   71CHL1    H6 7670   1.048   4.033   7.071
   71CHL1    C7 7671   1.141   3.980   7.266
   71CHL1   H7A 7672   1.101   4.070   7.316
   71CHL1   H7B 7673   1.075   3.894   7.290
   71CHL1    C8 7674   1.278   3.948   7.323
   71CHL1    H8 7675   1.323   4.049   7.332
   71CHL1   C14 7676   1.264   3.879   7.460
   71CHL1   H14 7677   1.218   3.779   7.446
   71CHL1   C15 7678   1.170   3.945   7.558
   71CHL1  H15A 7679   1.177   4.056   7.555
   71CHL1  H15B 7680   1.064   3.931   7.529
   71CHL1   C16 7681   1.218   3.891   7.699
   71CHL1  H16A 7682   1.244   3.972   7.771
   71CHL1  H16B 7683   1.146   3.819   7.745
   71CHL1   C17 7684   1.354   3.815   7.673
   71CHL1   H17 7685   1.332   3.706   7.670
   71CHL1   C13 7686   1.396   3.862   7.534
   71CHL1   C18 7687   1.457   4.003   7.549
   71CHL1  H18A 7688   1.558   4.002   7.596
   71CHL1  H18B 7689   1.474   4.053   7.452
   71CHL1  H18C 7690   1.377   4.062   7.599
   71CHL1   C12 7691   1.482   3.767   7.445
   71CHL1  H12A 7692   1.577   3.749   7.501
   71CHL1  H12B 7693   1.423   3.675   7.429
   71CHL1   C11 7694   1.506   3.822   7.302
   71CHL1  H11A 7695   1.574   3.909   7.308
   71CHL1  H11B 7696   1.557   3.740   7.247
   71CHL1    C9 7697   1.371   3.859   7.229
   71CHL1    H9 7698   1.307   3.769   7.221
   71CHL1   C10 7699   1.375   3.909   7.082
   71CHL1   C19 7700   1.494   4.014   7.080
   71CHL1  H19A 7701   1.512   4.058   6.980
   71CHL1  H19B 7702   1.473   4.089   7.159
   71CHL1  H19C 7703   1.592   3.964   7.097
   71CHL1    C1 7704   1.402   3.788   6.981
   71CHL1   H1A 7705   1.496   3.733   7.002
   71CHL1   H1B 7706   1.330   3.705   6.995
   71CHL1    C2 7707   1.391   3.833   6.826
   71CHL1   H2A 7708   1.408   3.743   6.764
   71CHL1   H2B 7709   1.474   3.906   6.813
   71CHL1   C20 7710   1.450   3.829   7.797
   71CHL1   H20 7711   1.495   3.931   7.799
   71CHL1   C21 7712   1.571   3.734   7.778
   71CHL1  H21A 7713   1.622   3.762   7.684
   71CHL1  H21B 7714   1.549   3.625   7.773
   71CHL1  H21C 7715   1.643   3.761   7.858
   71CHL1   C22 7716   1.384   3.814   7.937
   71CHL1  H22A 7717   1.467   3.815   8.011
   71CHL1  H22B 7718   1.298   3.881   7.958
   71CHL1   C23 7719   1.338   3.666   7.967
   71CHL1  H23A 7720   1.273   3.616   7.891
   71CHL1  H23B 7721   1.434   3.611   7.961
   71CHL1   C24 7722   1.272   3.647   8.106
   71CHL1  H24A 7723   1.335   3.695   8.184
   71CHL1  H24B 7724   1.178   3.704   8.091
   71CHL1   C25 7725   1.252   3.498   8.152
   71CHL1   H25 7726   1.198   3.447   8.070
   71CHL1   C26 7727   1.396   3.442   8.170
   71CHL1  H26A 7728   1.447   3.413   8.076
   71CHL1  H26B 7729   1.459   3.521   8.218
   71CHL1  H26C 7730   1.396   3.350   8.232
   71CHL1   C27 7731   1.173   3.489   8.283
   71CHL1  H27A 7732   1.230   3.535   8.366
   71CHL1  H27B 7733   1.079   3.546   8.274
   71CHL1  H27C 7734   1.159   3.383   8.313
   72CHL1    C3 7735   1.823   2.010   7.149
   72CHL1    H3 7736   1.742   2.085   7.166
   72CHL1    O3 7737   1.830   1.986   7.011
   72CHL1   H3' 7738   1.905   1.927   6.998
   72CHL1    C4 7739   1.957   2.066   7.197
   72CHL1   H4A 7740   2.047   2.008   7.169
   72CHL1   H4B 7741   1.981   2.162   7.145
   72CHL1    C5 7742   1.961   2.082   7.349
   72CHL1    C6 7743   1.984   2.201   7.401
   72CHL1    H6 7744   2.013   2.292   7.348
   72CHL1    C7 7745   1.986   2.222   7.544
   72CHL1   H7A 7746   2.080   2.276   7.568
   72CHL1   H7B 7747   1.893   2.277   7.568
   72CHL1    C8 7748   1.995   2.093   7.628
   72CHL1    H8 7749   2.100   2.058   7.624
   72CHL1   C14 7750   1.983   2.113   7.779
   72CHL1   H14 7751   1.874   2.130   7.784
   72CHL1   C15 7752   2.050   2.232   7.856
   72CHL1  H15A 7753   2.148   2.255   7.810
   72CHL1  H15B 7754   1.985   2.320   7.838
   72CHL1   C16 7755   2.057   2.199   8.002
   72CHL1  H16A 7756   2.163   2.176   8.027
   72CHL1  H16B 7757   2.014   2.275   8.070
   72CHL1   C17 7758   1.979   2.058   8.004
   72CHL1   H17 7759   1.870   2.079   8.014
   72CHL1   C13 7760   2.001   1.992   7.864
   72CHL1   C18 7761   2.148   1.944   7.845
   72CHL1  H18A 7762   2.162   1.858   7.914
   72CHL1  H18B 7763   2.174   1.907   7.743
   72CHL1  H18C 7764   2.235   2.013   7.857
   72CHL1   C12 7765   1.909   1.874   7.816
   72CHL1  H12A 7766   1.941   1.784   7.873
   72CHL1  H12B 7767   1.804   1.908   7.832
   72CHL1   C11 7768   1.917   1.850   7.664
   72CHL1  H11A 7769   2.017   1.805   7.648
   72CHL1  H11B 7770   1.833   1.780   7.644
   72CHL1    C9 7771   1.908   1.978   7.582
   72CHL1    H9 7772   1.809   2.026   7.598
   72CHL1   C10 7773   1.932   1.947   7.429
   72CHL1   C19 7774   2.052   1.853   7.404
   72CHL1  H19A 7775   2.070   1.829   7.298
   72CHL1  H19B 7776   2.148   1.879   7.453
   72CHL1  H19C 7777   2.025   1.755   7.450
   72CHL1    C1 7778   1.803   1.884   7.367
   72CHL1   H1A 7779   1.775   1.785   7.410
   72CHL1   H1B 7780   1.731   1.959   7.405
   72CHL1    C2 7781   1.805   1.874   7.213
   72CHL1   H2A 7782   1.715   1.825   7.171
   72CHL1   H2B 7783   1.885   1.804   7.178
   72CHL1   C20 7784   2.013   1.979   8.139
   72CHL1   H20 7785   2.116   1.937   8.142
   72CHL1   C21 7786   1.915   1.856   8.145
   72CHL1  H21A 7787   1.944   1.776   8.073
   72CHL1  H21B 7788   1.812   1.889   8.117
   72CHL1  H21C 7789   1.915   1.812   8.246
   72CHL1   C22 7790   1.996   2.071   8.267
   72CHL1  H22A 7791   1.969   2.176   8.241
   72CHL1  H22B 7792   1.916   2.022   8.325
   72CHL1   C23 7793   2.122   2.069   8.350
   72CHL1  H23A 7794   2.155   1.967   8.379
   72CHL1  H23B 7795   2.210   2.112   8.296
   72CHL1   C24 7796   2.110   2.147   8.485
   72CHL1  H24A 7797   2.031   2.096   8.544
   72CHL1  H24B 7798   2.202   2.130   8.546
   72CHL1   C25 7799   2.071   2.299   8.471
   72CHL1   H25 7800   1.989   2.319   8.398
   72CHL1   C26 7801   2.029   2.355   8.611
   72CHL1  H26A 7802   2.002   2.463   8.618
   72CHL1  H26B 7803   1.940   2.303   8.652
   72CHL1  H26C 7804   2.111   2.337   8.684
   72CHL1   C27 7805   2.185   2.385   8.411
   72CHL1  H27A 7806   2.281   2.359   8.460
   72CHL1  H27B 7807   2.185   2.381   8.300
   72CHL1  H27C 7808   2.160   2.492   8.430
   73CHL1    C3 7809   1.749   4.982   7.013
   73CHL1    H3 7810   1.846   4.929   7.030
   73CHL1    O3 7811   1.724   4.991   6.870
   73CHL1   H3' 7812   1.634   5.024   6.864
   73CHL1    C4 7813   1.637   4.893   7.068
   73CHL1   H4A 7814   1.546   4.949   7.038
   73CHL1   H4B 7815   1.653   4.790   7.031
   73CHL1    C5 7816   1.639   4.884   7.225
   73CHL1    C6 7817   1.651   4.762   7.279
   73CHL1    H6 7818   1.638   4.674   7.215
   73CHL1    C7 7819   1.648   4.734   7.422
   73CHL1   H7A 7820   1.573   4.655   7.445
   73CHL1   H7B 7821   1.743   4.700   7.469
   73CHL1    C8 7822   1.617   4.856   7.502
   73CHL1    H8 7823   1.508   4.875   7.494
   73CHL1   C14 7824   1.663   4.827   7.652
   73CHL1   H14 7825   1.773   4.812   7.657
   73CHL1   C15 7826   1.599   4.704   7.723
   73CHL1  H15A 7827   1.492   4.701   7.694
   73CHL1  H15B 7828   1.647   4.608   7.694
   73CHL1   C16 7829   1.606   4.742   7.871
   73CHL1  H16A 7830   1.500   4.752   7.903
   73CHL1  H16B 7831   1.657   4.664   7.931
   73CHL1   C17 7832   1.666   4.882   7.881
   73CHL1   H17 7833   1.774   4.860   7.870
   73CHL1   C13 7834   1.632   4.949   7.749
   73CHL1   C18 7835   1.484   4.985   7.755
   73CHL1  H18A 7836   1.412   4.903   7.772
   73CHL1  H18B 7837   1.462   5.076   7.816
   73CHL1  H18C 7838   1.458   5.022   7.654
   73CHL1   C12 7839   1.720   5.065   7.688
   73CHL1  H12A 7840   1.712   5.156   7.750
   73CHL1  H12B 7841   1.829   5.045   7.680
   73CHL1   C11 7842   1.674   5.100   7.546
   73CHL1  H11A 7843   1.572   5.143   7.533
   73CHL1  H11B 7844   1.742   5.182   7.515
   73CHL1    C9 7845   1.692   4.983   7.452
   73CHL1    H9 7846   1.802   4.964   7.449
   73CHL1   C10 7847   1.651   5.015   7.300
   73CHL1   C19 7848   1.512   5.083   7.294
   73CHL1  H19A 7849   1.468   5.093   7.192
   73CHL1  H19B 7850   1.427   5.040   7.350
   73CHL1  H19C 7851   1.519   5.190   7.322
   73CHL1    C1 7852   1.763   5.101   7.236
   73CHL1   H1A 7853   1.760   5.199   7.289
   73CHL1   H1B 7854   1.865   5.059   7.251
   73CHL1    C2 7855   1.747   5.122   7.084
   73CHL1   H2A 7856   1.830   5.191   7.058
   73CHL1   H2B 7857   1.651   5.171   7.060
   73CHL1   C20 7858   1.621   4.950   8.013
   73CHL1   H20 7859   1.511   4.958   8.030
   73CHL1   C21 7860   1.687   5.089   8.007
   73CHL1  H21A 7861   1.694   5.142   8.104
   73CHL1  H21B 7862   1.623   5.160   7.951
   73CHL1  H21C 7863   1.785   5.093   7.955
   73CHL1   C22 7864   1.674   4.869   8.136
   73CHL1  H22A 7865   1.677   4.759   8.120
   73CHL1  H22B 7866   1.777   4.909   8.142
   73CHL1   C23 7867   1.597   4.899   8.265
   73CHL1  H23A 7868   1.561   5.004   8.277
   73CHL1  H23B 7869   1.501   4.845   8.254
   73CHL1   C24 7870   1.669   4.850   8.387
   73CHL1  H24A 7871   1.695   4.745   8.366
   73CHL1  H24B 7872   1.760   4.911   8.405
   73CHL1   C25 7873   1.590   4.859   8.524
   73CHL1   H25 7874   1.488   4.827   8.494
   73CHL1   C26 7875   1.656   4.780   8.637
   73CHL1  H26A 7876   1.756   4.822   8.659
   73CHL1  H26B 7877   1.583   4.793   8.720
   73CHL1  H26C 7878   1.659   4.671   8.614
   73CHL1   C27 7879   1.584   5.001   8.572
   73CHL1  H27A 7880   1.570   5.063   8.481
   73CHL1  H27B 7881   1.495   5.014   8.638
   73CHL1  H27C 7882   1.672   5.030   8.633
   74CHL1    C3 7883   0.598   3.928   6.905
   74CHL1    H3 7884   0.522   4.009   6.912
   74CHL1    O3 7885   0.654   3.923   6.776
   74CHL1   H3' 7886   0.749   3.910   6.780
   74CHL1    C4 7887   0.711   3.955   7.001
   74CHL1   H4A 7888   0.790   3.879   6.980
   74CHL1   H4B 7889   0.750   4.058   6.990
   74CHL1    C5 7890   0.665   3.935   7.145
   74CHL1    C6 7891   0.672   4.032   7.236
   74CHL1    H6 7892   0.730   4.123   7.214
   74CHL1    C7 7893   0.629   4.019   7.382
   74CHL1   H7A 7894   0.716   4.031   7.450
   74CHL1   H7B 7895   0.544   4.089   7.396
   74CHL1    C8 7896   0.585   3.875   7.422
   74CHL1    H8 7897   0.676   3.812   7.435
   74CHL1   C14 7898   0.516   3.886   7.553
   74CHL1   H14 7899   0.428   3.951   7.534
   74CHL1   C15 7900   0.598   3.935   7.669
   74CHL1  H15A 7901   0.689   3.879   7.698
   74CHL1  H15B 7902   0.621   4.044   7.665
   74CHL1   C16 7903   0.498   3.909   7.785
   74CHL1  H16A 7904   0.549   3.876   7.878
   74CHL1  H16B 7905   0.439   3.999   7.810
   74CHL1   C17 7906   0.400   3.800   7.733
   74CHL1   H17 7907   0.301   3.848   7.718
   74CHL1   C13 7908   0.456   3.752   7.601
   74CHL1   C18 7909   0.568   3.654   7.620
   74CHL1  H18A 7910   0.634   3.647   7.531
   74CHL1  H18B 7911   0.637   3.684   7.702
   74CHL1  H18C 7912   0.526   3.552   7.636
   74CHL1   C12 7913   0.354   3.712   7.482
   74CHL1  H12A 7914   0.302   3.618   7.512
   74CHL1  H12B 7915   0.275   3.789   7.471
   74CHL1   C11 7916   0.422   3.691   7.347
   74CHL1  H11A 7917   0.490   3.603   7.350
   74CHL1  H11B 7918   0.348   3.671   7.266
   74CHL1    C9 7919   0.502   3.817   7.307
   74CHL1    H9 7920   0.433   3.903   7.291
   74CHL1   C10 7921   0.582   3.804   7.174
   74CHL1   C19 7922   0.686   3.690   7.183
   74CHL1  H19A 7923   0.646   3.591   7.210
   74CHL1  H19B 7924   0.729   3.682   7.081
   74CHL1  H19C 7925   0.761   3.714   7.262
   74CHL1    C1 7926   0.478   3.777   7.068
   74CHL1   H1A 7927   0.436   3.675   7.081
   74CHL1   H1B 7928   0.393   3.848   7.077
   74CHL1    C2 7929   0.541   3.786   6.925
   74CHL1   H2A 7930   0.465   3.763   6.848
   74CHL1   H2B 7931   0.622   3.711   6.917
   74CHL1   C20 7932   0.368   3.692   7.835
   74CHL1   H20 7933   0.468   3.652   7.862
   74CHL1   C21 7934   0.275   3.584   7.775
   74CHL1  H21A 7935   0.176   3.623   7.742
   74CHL1  H21B 7936   0.255   3.494   7.837
   74CHL1  H21C 7937   0.313   3.539   7.680
   74CHL1   C22 7938   0.315   3.764   7.969
   74CHL1  H22A 7939   0.398   3.827   8.008
   74CHL1  H22B 7940   0.229   3.833   7.949
   74CHL1   C23 7941   0.281   3.674   8.088
   74CHL1  H23A 7942   0.199   3.607   8.054
   74CHL1  H23B 7943   0.371   3.614   8.115
   74CHL1   C24 7944   0.234   3.756   8.209
   74CHL1  H24A 7945   0.326   3.810   8.241
   74CHL1  H24B 7946   0.153   3.828   8.189
   74CHL1   C25 7947   0.181   3.674   8.329
   74CHL1   H25 7948   0.188   3.738   8.420
   74CHL1   C26 7949   0.032   3.646   8.303
   74CHL1  H26A 7950  -0.020   3.590   8.384
   74CHL1  H26B 7951  -0.030   3.736   8.281
   74CHL1  H26C 7952   0.023   3.568   8.225
   74CHL1   C27 7953   0.256   3.538   8.351
   74CHL1  H27A 7954   0.233   3.498   8.453
   74CHL1  H27B 7955   0.229   3.473   8.266
   74CHL1  H27C 7956   0.365   3.557   8.340
   75CHL1    C3 7957   4.053   5.354   6.770
   75CHL1    H3 7958   4.009   5.261   6.813
   75CHL1    O3 7959   4.079   5.350   6.627
   75CHL1   H3' 7960   4.039   5.430   6.591
   75CHL1    C4 7961   3.966   5.474   6.805
   75CHL1   H4A 7962   4.007   5.572   6.774
   75CHL1   H4B 7963   3.872   5.454   6.751
   75CHL1    C5 7964   3.939   5.474   6.952
   75CHL1    C6 7965   3.818   5.465   7.007
   75CHL1    H6 7966   3.739   5.439   6.935
   75CHL1    C7 7967   3.794   5.490   7.155
   75CHL1   H7A 7968   3.705   5.554   7.171
   75CHL1   H7B 7969   3.764   5.390   7.195
   75CHL1    C8 7970   3.913   5.532   7.244
   75CHL1    H8 7971   3.920   5.642   7.234
   75CHL1   C14 7972   3.901   5.496   7.386
   75CHL1   H14 7973   3.912   5.385   7.391
   75CHL1   C15 7974   3.764   5.527   7.452
   75CHL1  H15A 7975   3.727   5.629   7.428
   75CHL1  H15B 7976   3.687   5.452   7.428
   75CHL1   C16 7977   3.802   5.523   7.603
   75CHL1  H16A 7978   3.769   5.614   7.658
   75CHL1  H16B 7979   3.765   5.434   7.657
   75CHL1   C17 7980   3.950   5.507   7.611
   75CHL1   H17 7981   3.976   5.399   7.614
   75CHL1   C13 7982   4.007   5.546   7.478
   75CHL1   C18 7983   4.029   5.695   7.470
   75CHL1  H18A 7984   4.068   5.730   7.372
   75CHL1  H18B 7985   3.935   5.755   7.473
   75CHL1  H18C 7986   4.100   5.746   7.539
   75CHL1   C12 7987   4.129   5.464   7.438
   75CHL1  H12A 7988   4.220   5.492   7.495
   75CHL1  H12B 7989   4.118   5.354   7.434
   75CHL1   C11 7990   4.170   5.497   7.288
   75CHL1  H11A 7991   4.200   5.603   7.276
   75CHL1  H11B 7992   4.258   5.433   7.264
   75CHL1    C9 7993   4.045   5.471   7.192
   75CHL1    H9 7994   4.033   5.361   7.196
   75CHL1   C10 7995   4.071   5.495   7.042
   75CHL1   C19 7996   4.130   5.638   7.011
   75CHL1  H19A 7997   4.132   5.666   6.904
   75CHL1  H19B 7998   4.071   5.722   7.055
   75CHL1  H19C 7999   4.235   5.644   7.048
   75CHL1    C1 8000   4.182   5.394   6.991
   75CHL1   H1A 8001   4.280   5.420   7.036
   75CHL1   H1B 8002   4.160   5.297   7.039
   75CHL1    C2 8003   4.193   5.371   6.838
   75CHL1   H2A 8004   4.259   5.284   6.814
   75CHL1   H2B 8005   4.242   5.458   6.790
   75CHL1   C20 8006   4.009   5.580   7.729
   75CHL1   H20 8007   3.992   5.689   7.717
   75CHL1   C21 8008   4.162   5.569   7.744
   75CHL1  H21A 8009   4.182   5.617   7.842
   75CHL1  H21B 8010   4.215   5.622   7.662
   75CHL1  H21C 8011   4.199   5.464   7.742
   75CHL1   C22 8012   3.948   5.551   7.865
   75CHL1  H22A 8013   4.009   5.606   7.940
   75CHL1  H22B 8014   3.841   5.577   7.879
   75CHL1   C23 8015   3.944   5.399   7.913
   75CHL1  H23A 8016   3.862   5.345   7.862
   75CHL1  H23B 8017   4.038   5.345   7.886
   75CHL1   C24 8018   3.923   5.381   8.070
   75CHL1  H24A 8019   3.987   5.453   8.123
   75CHL1  H24B 8020   3.816   5.409   8.081
   75CHL1   C25 8021   3.946   5.233   8.118
   75CHL1   H25 8022   3.895   5.172   8.040
   75CHL1   C26 8023   4.096   5.190   8.114
   75CHL1  H26A 8024   4.110   5.089   8.159
   75CHL1  H26B 8025   4.145   5.198   8.015
   75CHL1  H26C 8026   4.152   5.256   8.184
   75CHL1   C27 8027   3.887   5.207   8.254
   75CHL1  H27A 8028   3.864   5.101   8.275
   75CHL1  H27B 8029   3.970   5.223   8.327
   75CHL1  H27C 8030   3.799   5.275   8.264
   76CHL1    C3 8031   0.858   0.656   7.334
   76CHL1    H3 8032   0.748   0.665   7.351
   76CHL1    O3 8033   0.874   0.692   7.200
   76CHL1   H3' 8034   0.962   0.664   7.175
   76CHL1    C4 8035   0.930   0.754   7.430
   76CHL1   H4A 8036   1.037   0.724   7.418
   76CHL1   H4B 8037   0.918   0.861   7.402
   76CHL1    C5 8038   0.910   0.712   7.574
   76CHL1    C6 8039   0.868   0.797   7.674
   76CHL1    H6 8040   0.837   0.894   7.632
   76CHL1    C7 8041   0.844   0.773   7.820
   76CHL1   H7A 8042   0.901   0.850   7.876
   76CHL1   H7B 8043   0.736   0.780   7.843
   76CHL1    C8 8044   0.889   0.632   7.863
   76CHL1    H8 8045   1.000   0.632   7.867
   76CHL1   C14 8046   0.833   0.584   8.000
   76CHL1   H14 8047   0.723   0.582   7.980
   76CHL1   C15 8048   0.846   0.678   8.126
   76CHL1  H15A 8049   0.938   0.738   8.114
   76CHL1  H15B 8050   0.759   0.748   8.123
   76CHL1   C16 8051   0.860   0.584   8.251
   76CHL1  H16A 8052   0.962   0.582   8.293
   76CHL1  H16B 8053   0.785   0.610   8.329
   76CHL1   C17 8054   0.841   0.439   8.194
   76CHL1   H17 8055   0.731   0.424   8.191
   76CHL1   C13 8056   0.892   0.451   8.045
   76CHL1   C18 8057   1.045   0.449   8.046
   76CHL1  H18A 8058   1.084   0.349   8.074
   76CHL1  H18B 8059   1.080   0.468   7.943
   76CHL1  H18C 8060   1.097   0.529   8.103
   76CHL1   C12 8061   0.837   0.348   7.951
   76CHL1  H12A 8062   0.865   0.243   7.975
   76CHL1  H12B 8063   0.726   0.353   7.962
   76CHL1   C11 8064   0.871   0.381   7.804
   76CHL1  H11A 8065   0.978   0.353   7.797
   76CHL1  H11B 8066   0.809   0.323   7.733
   76CHL1    C9 8067   0.849   0.529   7.750
   76CHL1    H9 8068   0.739   0.540   7.737
   76CHL1   C10 8069   0.914   0.558   7.612
   76CHL1   C19 8070   1.064   0.527   7.621
   76CHL1  H19A 8071   1.097   0.421   7.632
   76CHL1  H19B 8072   1.126   0.570   7.539
   76CHL1  H19C 8073   1.110   0.575   7.710
   76CHL1    C1 8074   0.859   0.473   7.498
   76CHL1   H1A 8075   0.888   0.368   7.519
   76CHL1   H1B 8076   0.748   0.483   7.504
   76CHL1    C2 8077   0.908   0.510   7.353
   76CHL1   H2A 8078   0.864   0.435   7.284
   76CHL1   H2B 8079   1.016   0.506   7.330
   76CHL1   C20 8080   0.900   0.331   8.290
   76CHL1   H20 8081   1.009   0.317   8.271
   76CHL1   C21 8082   0.835   0.193   8.252
   76CHL1  H21A 8083   0.728   0.207   8.226
   76CHL1  H21B 8084   0.842   0.127   8.341
   76CHL1  H21C 8085   0.875   0.136   8.165
   76CHL1   C22 8086   0.892   0.364   8.444
   76CHL1  H22A 8087   0.963   0.302   8.502
   76CHL1  H22B 8088   0.931   0.468   8.451
   76CHL1   C23 8089   0.749   0.341   8.491
   76CHL1  H23A 8090   0.674   0.392   8.428
   76CHL1  H23B 8091   0.716   0.235   8.488
   76CHL1   C24 8092   0.737   0.397   8.639
   76CHL1  H24A 8093   0.781   0.337   8.721
   76CHL1  H24B 8094   0.807   0.483   8.629
   76CHL1   C25 8095   0.595   0.432   8.690
   76CHL1   H25 8096   0.529   0.343   8.679
   76CHL1   C26 8097   0.596   0.472   8.838
   76CHL1  H26A 8098   0.662   0.561   8.845
   76CHL1  H26B 8099   0.497   0.497   8.883
   76CHL1  H26C 8100   0.638   0.383   8.890
   76CHL1   C27 8101   0.515   0.549   8.615
   76CHL1  H27A 8102   0.412   0.548   8.656
   76CHL1  H27B 8103   0.565   0.641   8.652
   76CHL1  H27C 8104   0.533   0.531   8.506
   77CHL1    C3 8105   1.443   5.534   6.797
   77CHL1    H3 8106   1.408   5.429   6.807
   77CHL1    O3 8107   1.434   5.579   6.661
   77CHL1   H3' 8108   1.421   5.505   6.600
   77CHL1    C4 8109   1.357   5.627   6.883
   77CHL1   H4A 8110   1.406   5.726   6.869
   77CHL1   H4B 8111   1.255   5.619   6.840
   77CHL1    C5 8112   1.369   5.606   7.030
   77CHL1    C6 8113   1.263   5.574   7.102
   77CHL1    H6 8114   1.165   5.590   7.055
   77CHL1    C7 8115   1.269   5.542   7.248
   77CHL1   H7A 8116   1.193   5.598   7.306
   77CHL1   H7B 8117   1.254   5.432   7.251
   77CHL1    C8 8118   1.406   5.576   7.314
   77CHL1    H8 8119   1.414   5.686   7.326
   77CHL1   C14 8120   1.419   5.518   7.457
   77CHL1   H14 8121   1.397   5.410   7.443
   77CHL1   C15 8122   1.315   5.579   7.552
   77CHL1  H15A 8123   1.306   5.689   7.541
   77CHL1  H15B 8124   1.215   5.534   7.533
   77CHL1   C16 8125   1.378   5.536   7.688
   77CHL1  H16A 8126   1.395   5.616   7.764
   77CHL1  H16B 8127   1.323   5.453   7.737
   77CHL1   C17 8128   1.521   5.483   7.656
   77CHL1   H17 8129   1.513   5.373   7.644
   77CHL1   C13 8130   1.557   5.542   7.518
   77CHL1   C18 8131   1.605   5.689   7.543
   77CHL1  H18A 8132   1.636   5.741   7.450
   77CHL1  H18B 8133   1.533   5.754   7.599
   77CHL1  H18C 8134   1.699   5.690   7.602
   77CHL1   C12 8135   1.653   5.462   7.435
   77CHL1  H12A 8136   1.757   5.468   7.475
   77CHL1  H12B 8137   1.624   5.355   7.429
   77CHL1   C11 8138   1.658   5.517   7.289
   77CHL1  H11A 8139   1.712   5.614   7.285
   77CHL1  H11B 8140   1.717   5.443   7.231
   77CHL1    C9 8141   1.516   5.523   7.222
   77CHL1    H9 8142   1.493   5.416   7.206
   77CHL1   C10 8143   1.515   5.589   7.084
   77CHL1   C19 8144   1.580   5.727   7.099
   77CHL1  H19A 8145   1.526   5.795   7.169
   77CHL1  H19B 8146   1.685   5.728   7.133
   77CHL1  H19C 8147   1.589   5.760   6.994
   77CHL1    C1 8148   1.603   5.504   6.990
   77CHL1   H1A 8149   1.709   5.521   7.017
   77CHL1   H1B 8150   1.574   5.397   7.001
   77CHL1    C2 8151   1.592   5.533   6.840
   77CHL1   H2A 8152   1.648   5.453   6.787
   77CHL1   H2B 8153   1.636   5.633   6.817
   77CHL1   C20 8154   1.617   5.517   7.773
   77CHL1   H20 8155   1.640   5.625   7.785
   77CHL1   C21 8156   1.753   5.446   7.735
   77CHL1  H21A 8157   1.804   5.407   7.826
   77CHL1  H21B 8158   1.824   5.515   7.683
   77CHL1  H21C 8159   1.731   5.363   7.665
   77CHL1   C22 8160   1.553   5.450   7.905
   77CHL1  H22A 8161   1.454   5.498   7.918
   77CHL1  H22B 8162   1.528   5.343   7.887
   77CHL1   C23 8163   1.628   5.474   8.030
   77CHL1  H23A 8164   1.723   5.418   8.030
   77CHL1  H23B 8165   1.667   5.577   8.044
   77CHL1   C24 8166   1.543   5.433   8.154
   77CHL1  H24A 8167   1.461   5.505   8.172
   77CHL1  H24B 8168   1.510   5.329   8.135
   77CHL1   C25 8169   1.608   5.441   8.299
   77CHL1   H25 8170   1.524   5.423   8.369
   77CHL1   C26 8171   1.709   5.327   8.326
   77CHL1  H26A 8172   1.800   5.330   8.262
   77CHL1  H26B 8173   1.741   5.333   8.432
   77CHL1  H26C 8174   1.665   5.226   8.313
   77CHL1   C27 8175   1.667   5.582   8.317
   77CHL1  H27A 8176   1.583   5.654   8.328
   77CHL1  H27B 8177   1.722   5.586   8.413
   77CHL1  H27C 8178   1.743   5.601   8.238
   78CHL1    C3 8179   3.871   0.374   6.686
   78CHL1    H3 8180   3.896   0.266   6.670
   78CHL1    O3 8181   3.849   0.442   6.563
   78CHL1   H3' 8182   3.826   0.531   6.591
   78CHL1    C4 8183   3.738   0.392   6.769
   78CHL1   H4A 8184   3.726   0.502   6.765
   78CHL1   H4B 8185   3.648   0.353   6.717
   78CHL1    C5 8186   3.755   0.350   6.914
   78CHL1    C6 8187   3.685   0.250   6.962
   78CHL1    H6 8188   3.611   0.200   6.898
   78CHL1    C7 8189   3.700   0.204   7.107
   78CHL1   H7A 8190   3.596   0.187   7.142
   78CHL1   H7B 8191   3.755   0.108   7.110
   78CHL1    C8 8192   3.779   0.297   7.203
   78CHL1    H8 8193   3.712   0.379   7.237
   78CHL1   C14 8194   3.825   0.222   7.321
   78CHL1   H14 8195   3.909   0.153   7.299
   78CHL1   C15 8196   3.719   0.140   7.403
   78CHL1  H15A 8197   3.623   0.195   7.400
   78CHL1  H15B 8198   3.700   0.044   7.351
   78CHL1   C16 8199   3.774   0.122   7.537
   78CHL1  H16A 8200   3.698   0.156   7.611
   78CHL1  H16B 8201   3.794   0.015   7.558
   78CHL1   C17 8202   3.901   0.212   7.545
   78CHL1   H17 8203   3.983   0.138   7.531
   78CHL1   C13 8204   3.900   0.306   7.422
   78CHL1   C18 8205   3.817   0.431   7.466
   78CHL1  H18A 8206   3.708   0.422   7.479
   78CHL1  H18B 8207   3.859   0.469   7.562
   78CHL1  H18C 8208   3.831   0.515   7.395
   78CHL1   C12 8209   4.038   0.342   7.360
   78CHL1  H12A 8210   4.105   0.401   7.425
   78CHL1  H12B 8211   4.096   0.249   7.343
   78CHL1   C11 8212   4.022   0.404   7.223
   78CHL1  H11A 8213   4.005   0.512   7.239
   78CHL1  H11B 8214   4.113   0.396   7.159
   78CHL1    C9 8215   3.907   0.343   7.127
   78CHL1    H9 8216   3.961   0.250   7.098
   78CHL1   C10 8217   3.880   0.414   6.990
   78CHL1   C19 8218   3.846   0.569   7.006
   78CHL1  H19A 8219   3.930   0.614   7.063
   78CHL1  H19B 8220   3.819   0.629   6.916
   78CHL1  H19C 8221   3.761   0.578   7.077
   78CHL1    C1 8222   4.013   0.397   6.897
   78CHL1   H1A 8223   4.085   0.466   6.947
   78CHL1   H1B 8224   4.047   0.292   6.902
   78CHL1    C2 8225   3.992   0.442   6.757
   78CHL1   H2A 8226   4.083   0.416   6.700
   78CHL1   H2B 8227   3.976   0.552   6.761
   78CHL1   C20 8228   3.927   0.267   7.690
   78CHL1   H20 8229   3.851   0.342   7.718
   78CHL1   C21 8230   4.064   0.344   7.690
   78CHL1  H21A 8231   4.078   0.386   7.791
   78CHL1  H21B 8232   4.065   0.438   7.630
   78CHL1  H21C 8233   4.149   0.280   7.659
   78CHL1   C22 8234   3.918   0.161   7.810
   78CHL1  H22A 8235   3.809   0.164   7.832
   78CHL1  H22B 8236   3.940   0.057   7.775
   78CHL1   C23 8237   3.992   0.181   7.940
   78CHL1  H23A 8238   4.102   0.170   7.929
   78CHL1  H23B 8239   3.967   0.285   7.971
   78CHL1   C24 8240   3.934   0.082   8.046
   78CHL1  H24A 8241   3.827   0.109   8.053
   78CHL1  H24B 8242   3.947  -0.020   8.002
   78CHL1   C25 8243   4.018   0.097   8.179
   78CHL1   H25 8244   4.123   0.072   8.155
   78CHL1   C26 8245   4.002   0.233   8.242
   78CHL1  H26A 8246   4.075   0.302   8.194
   78CHL1  H26B 8247   3.905   0.280   8.216
   78CHL1  H26C 8248   4.008   0.236   8.352
   78CHL1   C27 8249   3.976  -0.008   8.286
   78CHL1  H27A 8250   3.992  -0.106   8.237
   78CHL1  H27B 8251   4.045  -0.004   8.373
   78CHL1  H27C 8252   3.873   0.017   8.320
   79CHL1    C3 8253   2.025   0.103   7.313
   79CHL1    H3 8254   1.995  -0.004   7.314
   79CHL1    O3 8255   2.051   0.123   7.177
   79CHL1   H3' 8256   1.988   0.068   7.130
   79CHL1    C4 8257   1.904   0.193   7.341
   79CHL1   H4A 8258   1.929   0.299   7.317
   79CHL1   H4B 8259   1.824   0.169   7.268
   79CHL1    C5 8260   1.872   0.185   7.490
   79CHL1    C6 8261   1.745   0.159   7.524
   79CHL1    H6 8262   1.675   0.153   7.440
   79CHL1    C7 8263   1.694   0.140   7.665
   79CHL1   H7A 8264   1.603   0.201   7.677
   79CHL1   H7B 8265   1.670   0.032   7.681
   79CHL1    C8 8266   1.797   0.178   7.770
   79CHL1    H8 8267   1.794   0.289   7.772
   79CHL1   C14 8268   1.767   0.109   7.900
   79CHL1   H14 8269   1.798   0.003   7.891
   79CHL1   C15 8270   1.619   0.114   7.937
   79CHL1  H15A 8271   1.585   0.217   7.916
   79CHL1  H15B 8272   1.566   0.032   7.884
   79CHL1   C16 8273   1.620   0.079   8.081
   79CHL1  H16A 8274   1.552   0.155   8.127
   79CHL1  H16B 8275   1.573  -0.019   8.104
   79CHL1   C17 8276   1.769   0.077   8.134
   79CHL1   H17 8277   1.804  -0.028   8.128
   79CHL1   C13 8278   1.847   0.158   8.024
   79CHL1   C18 8279   1.838   0.309   8.035
   79CHL1  H18A 8280   1.884   0.361   7.948
   79CHL1  H18B 8281   1.733   0.341   8.051
   79CHL1  H18C 8282   1.899   0.329   8.126
   79CHL1   C12 8283   1.998   0.115   7.992
   79CHL1  H12A 8284   2.069   0.166   8.060
   79CHL1  H12B 8285   2.002   0.006   8.011
   79CHL1   C11 8286   2.054   0.145   7.846
   79CHL1  H11A 8287   2.094   0.249   7.848
   79CHL1  H11B 8288   2.136   0.073   7.826
   79CHL1    C9 8289   1.939   0.134   7.729
   79CHL1    H9 8290   1.933   0.024   7.713
   79CHL1   C10 8291   1.988   0.190   7.596
   79CHL1   C19 8292   2.020   0.340   7.600
   79CHL1  H19A 8293   1.928   0.401   7.614
   79CHL1  H19B 8294   2.092   0.365   7.681
   79CHL1  H19C 8295   2.067   0.383   7.509
   79CHL1    C1 8296   2.107   0.110   7.549
   79CHL1   H1A 8297   2.192   0.138   7.616
   79CHL1   H1B 8298   2.086   0.002   7.565
   79CHL1    C2 8299   2.147   0.142   7.405
   79CHL1   H2A 8300   2.238   0.083   7.377
   79CHL1   H2B 8301   2.165   0.251   7.392
   79CHL1   C20 8302   1.790   0.118   8.279
   79CHL1   H20 8303   1.757   0.223   8.293
   79CHL1   C21 8304   1.941   0.102   8.313
   79CHL1  H21A 8305   2.008   0.156   8.243
   79CHL1  H21B 8306   1.975  -0.004   8.317
   79CHL1  H21C 8307   1.961   0.135   8.417
   79CHL1   C22 8308   1.690   0.043   8.372
   79CHL1  H22A 8309   1.594   0.095   8.356
   79CHL1  H22B 8310   1.683  -0.065   8.347
   79CHL1   C23 8311   1.703   0.062   8.522
   79CHL1  H23A 8312   1.810   0.044   8.547
   79CHL1  H23B 8313   1.682   0.168   8.548
   79CHL1   C24 8314   1.625  -0.035   8.608
   79CHL1  H24A 8315   1.519  -0.023   8.577
   79CHL1  H24B 8316   1.669  -0.137   8.602
   79CHL1   C25 8317   1.641   0.001   8.763
   79CHL1   H25 8318   1.748  -0.016   8.787
   79CHL1   C26 8319   1.613   0.144   8.814
   79CHL1  H26A 8320   1.505   0.168   8.805
   79CHL1  H26B 8321   1.628   0.142   8.924
   79CHL1  H26C 8322   1.680   0.219   8.766
   79CHL1   C27 8323   1.562  -0.103   8.849
   79CHL1  H27A 8324   1.586  -0.079   8.955
   79CHL1  H27B 8325   1.453  -0.102   8.830
   79CHL1  H27C 8326   1.602  -0.205   8.832
   80CHL1    C3 8327   0.436   4.593   7.152
   80CHL1    H3 8328   0.433   4.703   7.141
   80CHL1    O3 8329   0.445   4.542   7.021
   80CHL1   H3' 8330   0.502   4.604   6.975
   80CHL1    C4 8331   0.555   4.535   7.228
   80CHL1   H4A 8332   0.553   4.425   7.215
   80CHL1   H4B 8333   0.647   4.579   7.184
   80CHL1    C5 8334   0.556   4.549   7.384
   80CHL1    C6 8335   0.652   4.608   7.451
   80CHL1    H6 8336   0.740   4.646   7.396
   80CHL1    C7 8337   0.659   4.618   7.602
   80CHL1   H7A 8338   0.765   4.602   7.632
   80CHL1   H7B 8339   0.654   4.722   7.641
   80CHL1    C8 8340   0.556   4.531   7.672
   80CHL1    H8 8341   0.587   4.426   7.656
   80CHL1   C14 8342   0.546   4.564   7.817
   80CHL1   H14 8343   0.505   4.667   7.826
   80CHL1   C15 8344   0.675   4.575   7.903
   80CHL1  H15A 8345   0.746   4.491   7.886
   80CHL1  H15B 8346   0.725   4.671   7.880
   80CHL1   C16 8347   0.631   4.555   8.051
   80CHL1  H16A 8348   0.658   4.456   8.094
   80CHL1  H16B 8349   0.671   4.642   8.107
   80CHL1   C17 8350   0.475   4.542   8.045
   80CHL1   H17 8351   0.433   4.643   8.027
   80CHL1   C13 8352   0.440   4.490   7.898
   80CHL1   C18 8353   0.469   4.337   7.893
   80CHL1  H18A 8354   0.567   4.316   7.940
   80CHL1  H18B 8355   0.393   4.278   7.949
   80CHL1  H18C 8356   0.469   4.305   7.787
   80CHL1   C12 8357   0.298   4.517   7.842
   80CHL1  H12A 8358   0.225   4.451   7.895
   80CHL1  H12B 8359   0.271   4.624   7.855
   80CHL1   C11 8360   0.301   4.489   7.684
   80CHL1  H11A 8361   0.305   4.378   7.688
   80CHL1  H11B 8362   0.199   4.517   7.651
   80CHL1    C9 8363   0.425   4.553   7.605
   80CHL1    H9 8364   0.411   4.662   7.591
   80CHL1   C10 8365   0.425   4.509   7.451
   80CHL1   C19 8366   0.420   4.356   7.435
   80CHL1  H19A 8367   0.329   4.318   7.487
   80CHL1  H19B 8368   0.421   4.315   7.331
   80CHL1  H19C 8369   0.503   4.309   7.492
   80CHL1    C1 8370   0.308   4.570   7.369
   80CHL1   H1A 8371   0.216   4.539   7.422
   80CHL1   H1B 8372   0.295   4.680   7.377
   80CHL1    C2 8373   0.308   4.547   7.221
   80CHL1   H2A 8374   0.230   4.610   7.174
   80CHL1   H2B 8375   0.286   4.442   7.193
   80CHL1   C20 8376   0.400   4.481   8.163
   80CHL1   H20 8377   0.299   4.449   8.128
   80CHL1   C21 8378   0.365   4.595   8.267
   80CHL1  H21A 8379   0.304   4.560   8.353
   80CHL1  H21B 8380   0.310   4.673   8.210
   80CHL1  H21C 8381   0.454   4.647   8.308
   80CHL1   C22 8382   0.464   4.354   8.228
   80CHL1  H22A 8383   0.517   4.286   8.157
   80CHL1  H22B 8384   0.545   4.398   8.289
   80CHL1   C23 8385   0.374   4.275   8.326
   80CHL1  H23A 8386   0.336   4.349   8.400
   80CHL1  H23B 8387   0.292   4.230   8.266
   80CHL1   C24 8388   0.445   4.164   8.406
   80CHL1  H24A 8389   0.461   4.087   8.327
   80CHL1  H24B 8390   0.535   4.217   8.443
   80CHL1   C25 8391   0.367   4.101   8.518
   80CHL1   H25 8392   0.340   4.187   8.583
   80CHL1   C26 8393   0.234   4.045   8.464
   80CHL1  H26A 8394   0.256   3.955   8.402
   80CHL1  H26B 8395   0.173   4.027   8.555
   80CHL1  H26C 8396   0.179   4.118   8.402
   80CHL1   C27 8397   0.454   4.004   8.599
   80CHL1  H27A 8398   0.541   4.050   8.649
   80CHL1  H27B 8399   0.380   3.960   8.669
   80CHL1  H27C 8400   0.497   3.925   8.533
   81CHL1    C3 8401   5.052   4.645   6.853
   81CHL1    H3 8402   5.114   4.587   6.925
   81CHL1    O3 8403   5.122   4.663   6.735
   81CHL1   H3' 8404   5.069   4.721   6.680
   81CHL1    C4 8405   4.911   4.579   6.829
   81CHL1   H4A 8406   4.867   4.642   6.749
   81CHL1   H4B 8407   4.933   4.484   6.775
   81CHL1    C5 8408   4.830   4.557   6.959
   81CHL1    C6 8409   4.783   4.431   6.990
   81CHL1    H6 8410   4.805   4.350   6.919
   81CHL1    C7 8411   4.715   4.392   7.117
   81CHL1   H7A 8412   4.631   4.320   7.106
   81CHL1   H7B 8413   4.792   4.338   7.176
   81CHL1    C8 8414   4.666   4.506   7.205
   81CHL1    H8 8415   4.575   4.546   7.156
   81CHL1   C14 8416   4.639   4.464   7.351
   81CHL1   H14 8417   4.745   4.445   7.378
   81CHL1   C15 8418   4.552   4.337   7.365
   81CHL1  H15A 8419   4.456   4.339   7.309
   81CHL1  H15B 8420   4.597   4.238   7.344
   81CHL1   C16 8421   4.511   4.355   7.511
   81CHL1  H16A 8422   4.400   4.360   7.515
   81CHL1  H16B 8423   4.534   4.268   7.576
   81CHL1   C17 8424   4.571   4.489   7.566
   81CHL1   H17 8425   4.675   4.461   7.591
   81CHL1   C13 8426   4.588   4.575   7.440
   81CHL1   C18 8427   4.450   4.622   7.402
   81CHL1  H18A 8428   4.368   4.549   7.387
   81CHL1  H18B 8429   4.418   4.687   7.486
   81CHL1  H18C 8430   4.452   4.686   7.311
   81CHL1   C12 8431   4.704   4.680   7.448
   81CHL1  H12A 8432   4.667   4.765   7.510
   81CHL1  H12B 8433   4.790   4.635   7.501
   81CHL1   C11 8434   4.741   4.733   7.309
   81CHL1  H11A 8435   4.648   4.776   7.266
   81CHL1  H11B 8436   4.814   4.817   7.312
   81CHL1    C9 8437   4.768   4.619   7.201
   81CHL1    H9 8438   4.862   4.572   7.236
   81CHL1   C10 8439   4.812   4.672   7.061
   81CHL1   C19 8440   4.700   4.767   7.007
   81CHL1  H19A 8441   4.696   4.861   7.066
   81CHL1  H19B 8442   4.737   4.806   6.910
   81CHL1  H19C 8443   4.601   4.717   7.001
   81CHL1    C1 8444   4.949   4.747   7.064
   81CHL1   H1A 8445   4.934   4.838   7.125
   81CHL1   H1B 8446   5.023   4.688   7.122
   81CHL1    C2 8447   5.022   4.782   6.929
   81CHL1   H2A 8448   5.119   4.829   6.956
   81CHL1   H2B 8449   4.963   4.852   6.866
   81CHL1   C20 8450   4.501   4.536   7.696
   81CHL1   H20 8451   4.394   4.565   7.686
   81CHL1   C21 8452   4.563   4.664   7.755
   81CHL1  H21A 8453   4.534   4.759   7.705
   81CHL1  H21B 8454   4.673   4.657   7.743
   81CHL1  H21C 8455   4.537   4.673   7.863
   81CHL1   C22 8456   4.490   4.423   7.806
   81CHL1  H22A 8457   4.441   4.482   7.887
   81CHL1  H22B 8458   4.435   4.337   7.761
   81CHL1   C23 8459   4.620   4.355   7.862
   81CHL1  H23A 8460   4.672   4.304   7.779
   81CHL1  H23B 8461   4.692   4.429   7.905
   81CHL1   C24 8462   4.586   4.233   7.957
   81CHL1  H24A 8463   4.534   4.287   8.039
   81CHL1  H24B 8464   4.517   4.157   7.916
   81CHL1   C25 8465   4.706   4.154   8.015
   81CHL1   H25 8466   4.781   4.129   7.937
   81CHL1   C26 8467   4.778   4.232   8.123
   81CHL1  H26A 8468   4.831   4.310   8.063
   81CHL1  H26B 8469   4.707   4.282   8.193
   81CHL1  H26C 8470   4.849   4.164   8.175
   81CHL1   C27 8471   4.652   4.022   8.078
   81CHL1  H27A 8472   4.607   4.061   8.171
   81CHL1  H27B 8473   4.573   3.967   8.022
   81CHL1  H27C 8474   4.741   3.963   8.111
   82CHL1    C3 8475   6.089   5.626   7.133
   82CHL1    H3 8476   6.052   5.729   7.150
   82CHL1    O3 8477   6.118   5.615   6.995
   82CHL1   H3' 8478   6.040   5.649   6.951
   82CHL1    C4 8479   6.206   5.585   7.221
   82CHL1   H4A 8480   6.247   5.492   7.177
   82CHL1   H4B 8481   6.276   5.668   7.201
   82CHL1    C5 8482   6.169   5.579   7.368
   82CHL1    C6 8483   6.226   5.665   7.452
   82CHL1    H6 8484   6.308   5.735   7.427
   82CHL1    C7 8485   6.206   5.663   7.602
   82CHL1   H7A 8486   6.305   5.648   7.650
   82CHL1   H7B 8487   6.163   5.760   7.634
   82CHL1    C8 8488   6.117   5.541   7.650
   82CHL1    H8 8489   6.180   5.450   7.655
   82CHL1   C14 8490   6.052   5.580   7.780
   82CHL1   H14 8491   5.978   5.659   7.755
   82CHL1   C15 8492   6.125   5.637   7.905
   82CHL1  H15A 8493   6.226   5.593   7.903
   82CHL1  H15B 8494   6.140   5.747   7.899
   82CHL1   C16 8495   6.041   5.605   8.026
   82CHL1  H16A 8496   6.096   5.545   8.102
   82CHL1  H16B 8497   6.011   5.699   8.076
   82CHL1   C17 8498   5.923   5.529   7.976
   82CHL1   H17 8499   5.846   5.603   7.945
   82CHL1   C13 8500   5.974   5.461   7.846
   82CHL1   C18 8501   6.074   5.345   7.879
   82CHL1  H18A 8502   6.165   5.386   7.929
   82CHL1  H18B 8503   6.019   5.269   7.939
   82CHL1  H18C 8504   6.100   5.283   7.792
   82CHL1   C12 8505   5.862   5.409   7.751
   82CHL1  H12A 8506   5.826   5.309   7.786
   82CHL1  H12B 8507   5.780   5.484   7.752
   82CHL1   C11 8508   5.917   5.391   7.607
   82CHL1  H11A 8509   5.976   5.297   7.606
   82CHL1  H11B 8510   5.841   5.364   7.530
   82CHL1    C9 8511   6.005   5.511   7.552
   82CHL1    H9 8512   5.936   5.598   7.555
   82CHL1   C10 8513   6.055   5.480   7.407
   82CHL1   C19 8514   6.105   5.340   7.380
   82CHL1  H19A 8515   6.139   5.332   7.274
   82CHL1  H19B 8516   6.198   5.316   7.436
   82CHL1  H19C 8517   6.030   5.262   7.402
   82CHL1    C1 8518   5.935   5.512   7.307
   82CHL1   H1A 8519   5.857   5.433   7.316
   82CHL1   H1B 8520   5.897   5.612   7.336
   82CHL1    C2 8521   5.973   5.537   7.164
   82CHL1   H2A 8522   5.886   5.579   7.110
   82CHL1   H2B 8523   5.999   5.440   7.117
   82CHL1   C20 8524   5.857   5.440   8.087
   82CHL1   H20 8525   5.933   5.362   8.109
   82CHL1   C21 8526   5.711   5.401   8.045
   82CHL1  H21A 8527   5.668   5.333   8.122
   82CHL1  H21B 8528   5.704   5.345   7.949
   82CHL1  H21C 8529   5.646   5.489   8.029
   82CHL1   C22 8530   5.841   5.523   8.214
   82CHL1  H22A 8531   5.938   5.545   8.264
   82CHL1  H22B 8532   5.795   5.624   8.206
   82CHL1   C23 8533   5.767   5.442   8.323
   82CHL1  H23A 8534   5.658   5.452   8.303
   82CHL1  H23B 8535   5.794   5.335   8.321
   82CHL1   C24 8536   5.770   5.498   8.467
   82CHL1  H24A 8537   5.875   5.514   8.502
   82CHL1  H24B 8538   5.726   5.599   8.460
   82CHL1   C25 8539   5.692   5.412   8.573
   82CHL1   H25 8540   5.695   5.473   8.665
   82CHL1   C26 8541   5.543   5.398   8.531
   82CHL1  H26A 8542   5.508   5.497   8.494
   82CHL1  H26B 8543   5.535   5.322   8.451
   82CHL1  H26C 8544   5.478   5.369   8.616
   82CHL1   C27 8545   5.755   5.282   8.609
   82CHL1  H27A 8546   5.690   5.234   8.685
   82CHL1  H27B 8547   5.750   5.216   8.520
   82CHL1  H27C 8548   5.859   5.285   8.647
   83CHL1    C3 8549   2.374   6.440   6.950
   83CHL1    H3 8550   2.471   6.387   6.962
   83CHL1    O3 8551   2.353   6.439   6.807
   83CHL1   H3' 8552   2.258   6.451   6.795
   83CHL1    C4 8553   2.273   6.350   7.020
   83CHL1   H4A 8554   2.165   6.372   7.005
   83CHL1   H4B 8555   2.285   6.247   6.979
   83CHL1    C5 8556   2.299   6.346   7.169
   83CHL1    C6 8557   2.328   6.231   7.233
   83CHL1    H6 8558   2.341   6.140   7.172
   83CHL1    C7 8559   2.349   6.221   7.383
   83CHL1   H7A 8560   2.278   6.140   7.411
   83CHL1   H7B 8561   2.453   6.189   7.403
   83CHL1    C8 8562   2.313   6.352   7.460
   83CHL1    H8 8563   2.205   6.376   7.473
   83CHL1   C14 8564   2.387   6.350   7.589
   83CHL1   H14 8565   2.494   6.340   7.562
   83CHL1   C15 8566   2.374   6.233   7.687
   83CHL1  H15A 8567   2.269   6.202   7.705
   83CHL1  H15B 8568   2.438   6.152   7.646
   83CHL1   C16 8569   2.433   6.288   7.818
   83CHL1  H16A 8570   2.366   6.259   7.902
   83CHL1  H16B 8571   2.535   6.246   7.832
   83CHL1   C17 8572   2.445   6.445   7.804
   83CHL1   H17 8573   2.549   6.471   7.777
   83CHL1   C13 8574   2.366   6.477   7.680
   83CHL1   C18 8575   2.214   6.490   7.724
   83CHL1  H18A 8576   2.187   6.585   7.775
   83CHL1  H18B 8577   2.153   6.477   7.633
   83CHL1  H18C 8578   2.188   6.412   7.799
   83CHL1   C12 8579   2.414   6.606   7.610
   83CHL1  H12A 8580   2.372   6.700   7.650
   83CHL1  H12B 8581   2.523   6.612   7.590
   83CHL1   C11 8582   2.352   6.605   7.462
   83CHL1  H11A 8583   2.248   6.641   7.474
   83CHL1  H11B 8584   2.408   6.680   7.403
   83CHL1    C9 8585   2.362   6.478   7.380
   83CHL1    H9 8586   2.471   6.464   7.370
   83CHL1   C10 8587   2.298   6.490   7.239
   83CHL1   C19 8588   2.138   6.520   7.243
   83CHL1  H19A 8589   2.082   6.452   7.311
   83CHL1  H19B 8590   2.134   6.621   7.291
   83CHL1  H19C 8591   2.091   6.523   7.143
   83CHL1    C1 8592   2.374   6.597   7.157
   83CHL1   H1A 8593   2.333   6.698   7.178
   83CHL1   H1B 8594   2.482   6.590   7.183
   83CHL1    C2 8595   2.356   6.585   6.999
   83CHL1   H2A 8596   2.422   6.660   6.949
   83CHL1   H2B 8597   2.251   6.615   6.979
   83CHL1   C20 8598   2.408   6.507   7.944
   83CHL1   H20 8599   2.306   6.469   7.966
   83CHL1   C21 8600   2.432   6.649   7.929
   83CHL1  H21A 8601   2.428   6.707   8.023
   83CHL1  H21B 8602   2.356   6.689   7.859
   83CHL1  H21C 8603   2.533   6.662   7.883
   83CHL1   C22 8604   2.499   6.444   8.060
   83CHL1  H22A 8605   2.485   6.335   8.067
   83CHL1  H22B 8606   2.597   6.450   8.008
   83CHL1   C23 8607   2.482   6.508   8.202
   83CHL1  H23A 8608   2.527   6.610   8.201
   83CHL1  H23B 8609   2.375   6.510   8.235
   83CHL1   C24 8610   2.569   6.449   8.324
   83CHL1  H24A 8611   2.547   6.341   8.338
   83CHL1  H24B 8612   2.673   6.447   8.284
   83CHL1   C25 8613   2.560   6.529   8.456
   83CHL1   H25 8614   2.521   6.630   8.431
   83CHL1   C26 8615   2.456   6.464   8.548
   83CHL1  H26A 8616   2.440   6.530   8.637
   83CHL1  H26B 8617   2.361   6.449   8.493
   83CHL1  H26C 8618   2.501   6.368   8.580
   83CHL1   C27 8619   2.692   6.554   8.533
   83CHL1  H27A 8620   2.676   6.614   8.626
   83CHL1  H27B 8621   2.738   6.456   8.559
   83CHL1  H27C 8622   2.758   6.616   8.469
   84CHL1    C3 8623   4.252   2.772   6.884
   84CHL1    H3 8624   4.202   2.872   6.879
   84CHL1    O3 8625   4.322   2.742   6.759
   84CHL1   H3' 8626   4.265   2.679   6.712
   84CHL1    C4 8627   4.361   2.792   6.991
   84CHL1   H4A 8628   4.436   2.709   6.994
   84CHL1   H4B 8629   4.419   2.883   6.965
   84CHL1    C5 8630   4.297   2.801   7.129
   84CHL1    C6 8631   4.311   2.916   7.200
   84CHL1    H6 8632   4.369   3.002   7.163
   84CHL1    C7 8633   4.250   2.932   7.331
   84CHL1   H7A 8634   4.318   2.988   7.398
   84CHL1   H7B 8635   4.157   2.992   7.318
   84CHL1    C8 8636   4.200   2.808   7.399
   84CHL1    H8 8637   4.290   2.754   7.436
   84CHL1   C14 8638   4.107   2.850   7.513
   84CHL1   H14 8639   4.010   2.888   7.473
   84CHL1   C15 8640   4.168   2.943   7.619
   84CHL1  H15A 8641   4.274   2.915   7.639
   84CHL1  H15B 8642   4.171   3.048   7.582
   84CHL1   C16 8643   4.082   2.920   7.753
   84CHL1  H16A 8644   4.148   2.891   7.838
   84CHL1  H16B 8645   4.026   3.013   7.775
   84CHL1   C17 8646   3.976   2.806   7.709
   84CHL1   H17 8647   3.890   2.849   7.652
   84CHL1   C13 8648   4.052   2.731   7.596
   84CHL1   C18 8649   4.153   2.637   7.664
   84CHL1  H18A 8650   4.235   2.687   7.720
   84CHL1  H18B 8651   4.107   2.553   7.721
   84CHL1  H18C 8652   4.211   2.580   7.589
   84CHL1   C12 8653   3.967   2.647   7.497
   84CHL1  H12A 8654   3.919   2.565   7.554
   84CHL1  H12B 8655   3.889   2.719   7.464
   84CHL1   C11 8656   4.048   2.605   7.372
   84CHL1  H11A 8657   4.119   2.524   7.401
   84CHL1  H11B 8658   3.975   2.554   7.305
   84CHL1    C9 8659   4.120   2.724   7.301
   84CHL1    H9 8660   4.047   2.799   7.264
   84CHL1   C10 8661   4.208   2.695   7.175
   84CHL1   C19 8662   4.292   2.569   7.208
   84CHL1  H19A 8663   4.336   2.597   7.306
   84CHL1  H19B 8664   4.223   2.482   7.222
   84CHL1  H19C 8665   4.375   2.556   7.135
   84CHL1    C1 8666   4.109   2.672   7.057
   84CHL1   H1A 8667   4.028   2.599   7.079
   84CHL1   H1B 8668   4.045   2.762   7.043
   84CHL1    C2 8669   4.163   2.647   6.916
   84CHL1   H2A 8670   4.083   2.637   6.840
   84CHL1   H2B 8671   4.229   2.557   6.911
   84CHL1   C20 8672   3.930   2.723   7.837
   84CHL1   H20 8673   4.014   2.685   7.898
   84CHL1   C21 8674   3.843   2.597   7.796
   84CHL1  H21A 8675   3.787   2.552   7.881
   84CHL1  H21B 8676   3.910   2.525   7.744
   84CHL1  H21C 8677   3.765   2.641   7.730
   84CHL1   C22 8678   3.855   2.816   7.933
   84CHL1  H22A 8679   3.917   2.898   7.974
   84CHL1  H22B 8680   3.763   2.869   7.898
   84CHL1   C23 8681   3.820   2.741   8.070
   84CHL1  H23A 8682   3.726   2.685   8.050
   84CHL1  H23B 8683   3.906   2.674   8.087
   84CHL1   C24 8684   3.800   2.837   8.190
   84CHL1  H24A 8685   3.888   2.905   8.190
   84CHL1  H24B 8686   3.714   2.900   8.159
   84CHL1   C25 8687   3.770   2.772   8.327
   84CHL1   H25 8688   3.865   2.724   8.361
   84CHL1   C26 8689   3.734   2.879   8.425
   84CHL1  H26A 8690   3.812   2.958   8.432
   84CHL1  H26B 8691   3.636   2.920   8.394
   84CHL1  H26C 8692   3.718   2.838   8.527
   84CHL1   C27 8693   3.658   2.660   8.325
   84CHL1  H27A 8694   3.563   2.711   8.298
   84CHL1  H27B 8695   3.699   2.583   8.257
   84CHL1  H27C 8696   3.649   2.615   8.426
   85CHL1    C3 8697   3.768   6.630   6.727
   85CHL1    H3 8698   3.702   6.708   6.771
   85CHL1    O3 8699   3.749   6.632   6.592
   85CHL1   H3' 8700   3.799   6.558   6.559
   85CHL1    C4 8701   3.913   6.673   6.749
   85CHL1   H4A 8702   3.976   6.596   6.699
   85CHL1   H4B 8703   3.918   6.775   6.706
   85CHL1    C5 8704   3.951   6.684   6.893
   85CHL1    C6 8705   4.008   6.792   6.951
   85CHL1    H6 8706   4.023   6.882   6.890
   85CHL1    C7 8707   4.054   6.797   7.094
   85CHL1   H7A 8708   4.159   6.834   7.098
   85CHL1   H7B 8709   3.986   6.863   7.152
   85CHL1    C8 8710   4.062   6.656   7.167
   85CHL1    H8 8711   4.148   6.600   7.124
   85CHL1   C14 8712   4.070   6.668   7.320
   85CHL1   H14 8713   3.979   6.726   7.346
   85CHL1   C15 8714   4.192   6.740   7.371
   85CHL1  H15A 8715   4.281   6.685   7.335
   85CHL1  H15B 8716   4.188   6.847   7.339
   85CHL1   C16 8717   4.179   6.719   7.521
   85CHL1  H16A 8718   4.278   6.687   7.562
   85CHL1  H16B 8719   4.140   6.809   7.573
   85CHL1   C17 8720   4.078   6.598   7.539
   85CHL1   H17 8721   3.981   6.645   7.567
   85CHL1   C13 8722   4.060   6.541   7.397
   85CHL1   C18 8723   4.183   6.445   7.367
   85CHL1  H18A 8724   4.189   6.431   7.257
   85CHL1  H18B 8725   4.278   6.487   7.406
   85CHL1  H18C 8726   4.168   6.350   7.423
   85CHL1   C12 8727   3.924   6.472   7.363
   85CHL1  H12A 8728   3.929   6.371   7.410
   85CHL1  H12B 8729   3.843   6.532   7.409
   85CHL1   C11 8730   3.904   6.454   7.215
   85CHL1  H11A 8731   3.980   6.377   7.188
   85CHL1  H11B 8732   3.802   6.413   7.197
   85CHL1    C9 8733   3.934   6.574   7.123
   85CHL1    H9 8734   3.845   6.633   7.156
   85CHL1   C10 8735   3.913   6.550   6.969
   85CHL1   C19 8736   4.011   6.434   6.928
   85CHL1  H19A 8737   4.020   6.410   6.820
   85CHL1  H19B 8738   4.107   6.434   6.983
   85CHL1  H19C 8739   3.980   6.335   6.968
   85CHL1    C1 8740   3.765   6.507   6.934
   85CHL1   H1A 8741   3.746   6.409   6.984
   85CHL1   H1B 8742   3.700   6.583   6.982
   85CHL1    C2 8743   3.739   6.497   6.789
   85CHL1   H2A 8744   3.629   6.484   6.777
   85CHL1   H2B 8745   3.794   6.424   6.725
   85CHL1   C20 8746   4.109   6.511   7.656
   85CHL1   H20 8747   4.209   6.469   7.630
   85CHL1   C21 8748   4.013   6.388   7.676
   85CHL1  H21A 8749   3.913   6.422   7.642
   85CHL1  H21B 8750   4.013   6.337   7.775
   85CHL1  H21C 8751   4.061   6.319   7.603
   85CHL1   C22 8752   4.110   6.593   7.788
   85CHL1  H22A 8753   4.133   6.701   7.777
   85CHL1  H22B 8754   4.004   6.602   7.817
   85CHL1   C23 8755   4.209   6.536   7.888
   85CHL1  H23A 8756   4.187   6.428   7.901
   85CHL1  H23B 8757   4.311   6.556   7.851
   85CHL1   C24 8758   4.198   6.605   8.024
   85CHL1  H24A 8759   4.207   6.714   8.006
   85CHL1  H24B 8760   4.106   6.581   8.083
   85CHL1   C25 8761   4.311   6.562   8.133
   85CHL1   H25 8762   4.402   6.544   8.073
   85CHL1   C26 8763   4.346   6.659   8.247
   85CHL1  H26A 8764   4.322   6.758   8.203
   85CHL1  H26B 8765   4.278   6.637   8.331
   85CHL1  H26C 8766   4.452   6.650   8.280
   85CHL1   C27 8767   4.280   6.425   8.194
   85CHL1  H27A 8768   4.224   6.365   8.120
   85CHL1  H27B 8769   4.371   6.385   8.243
   85CHL1  H27C 8770   4.209   6.440   8.279
   86CHL1    C3 8771   6.123   4.418   6.985
   86CHL1    H3 8772   6.220   4.473   6.987
   86CHL1    O3 8773   6.091   4.399   6.849
   86CHL1   H3' 8774   6.141   4.466   6.802
   86CHL1    C4 8775   6.133   4.281   7.055
   86CHL1   H4A 8776   6.037   4.225   7.048
   86CHL1   H4B 8777   6.211   4.214   7.012
   86CHL1    C5 8778   6.155   4.299   7.203
   86CHL1    C6 8779   6.251   4.237   7.271
   86CHL1    H6 8780   6.327   4.171   7.226
   86CHL1    C7 8781   6.269   4.259   7.421
   86CHL1   H7A 8782   6.294   4.164   7.474
   86CHL1   H7B 8783   6.352   4.332   7.434
   86CHL1    C8 8784   6.144   4.314   7.495
   86CHL1    H8 8785   6.070   4.231   7.502
   86CHL1   C14 8786   6.180   4.352   7.641
   86CHL1   H14 8787   6.240   4.443   7.619
   86CHL1   C15 8788   6.263   4.262   7.730
   86CHL1  H15A 8789   6.227   4.157   7.718
   86CHL1  H15B 8790   6.368   4.272   7.696
   86CHL1   C16 8791   6.239   4.312   7.877
   86CHL1  H16A 8792   6.206   4.230   7.943
   86CHL1  H16B 8793   6.336   4.353   7.912
   86CHL1   C17 8794   6.134   4.426   7.858
   86CHL1   H17 8795   6.186   4.522   7.843
   86CHL1   C13 8796   6.065   4.401   7.725
   86CHL1   C18 8797   5.946   4.302   7.749
   86CHL1  H18A 8798   5.858   4.351   7.796
   86CHL1  H18B 8799   5.918   4.263   7.649
   86CHL1  H18C 8800   5.984   4.217   7.809
   86CHL1   C12 8801   6.015   4.525   7.652
   86CHL1  H12A 8802   5.921   4.555   7.703
   86CHL1  H12B 8803   6.091   4.602   7.677
   86CHL1   C11 8804   5.973   4.503   7.501
   86CHL1  H11A 8805   5.874   4.453   7.508
   86CHL1  H11B 8806   5.949   4.600   7.452
   86CHL1    C9 8807   6.091   4.434   7.423
   86CHL1    H9 8808   6.169   4.512   7.415
   86CHL1   C10 8809   6.057   4.394   7.275
   86CHL1   C19 8810   5.922   4.311   7.276
   86CHL1  H19A 8811   5.894   4.283   7.172
   86CHL1  H19B 8812   5.916   4.211   7.324
   86CHL1  H19C 8813   5.835   4.367   7.317
   86CHL1    C1 8814   6.030   4.524   7.195
   86CHL1   H1A 8815   5.938   4.576   7.229
   86CHL1   H1B 8816   6.115   4.596   7.204
   86CHL1    C2 8817   6.004   4.497   7.045
   86CHL1   H2A 8818   5.995   4.592   6.987
   86CHL1   H2B 8819   5.909   4.446   7.022
   86CHL1   C20 8820   6.047   4.439   7.988
   86CHL1   H20 8821   5.980   4.353   8.006
   86CHL1   C21 8822   5.963   4.560   7.970
   86CHL1  H21A 8823   5.937   4.594   8.073
   86CHL1  H21B 8824   5.868   4.536   7.918
   86CHL1  H21C 8825   6.020   4.639   7.916
   86CHL1   C22 8826   6.139   4.451   8.107
   86CHL1  H22A 8827   6.074   4.453   8.197
   86CHL1  H22B 8828   6.211   4.367   8.112
   86CHL1   C23 8829   6.223   4.579   8.124
   86CHL1  H23A 8830   6.280   4.598   8.030
   86CHL1  H23B 8831   6.162   4.670   8.140
   86CHL1   C24 8832   6.325   4.563   8.233
   86CHL1  H24A 8833   6.268   4.545   8.327
   86CHL1  H24B 8834   6.393   4.480   8.204
   86CHL1   C25 8835   6.428   4.675   8.261
   86CHL1   H25 8836   6.490   4.646   8.349
   86CHL1   C26 8837   6.524   4.681   8.134
   86CHL1  H26A 8838   6.466   4.705   8.042
   86CHL1  H26B 8839   6.593   4.768   8.139
   86CHL1  H26C 8840   6.592   4.595   8.117
   86CHL1   C27 8841   6.353   4.807   8.291
   86CHL1  H27A 8842   6.301   4.851   8.203
   86CHL1  H27B 8843   6.275   4.795   8.369
   86CHL1  H27C 8844   6.419   4.883   8.337
   87CHL1    C3 8845   5.909   3.014   7.088
   87CHL1    H3 8846   5.809   3.058   7.108
   87CHL1    O3 8847   5.959   3.061   6.964
   87CHL1   H3' 8848   6.044   3.022   6.943
   87CHL1    C4 8849   5.996   3.075   7.197
   87CHL1   H4A 8850   6.098   3.037   7.172
   87CHL1   H4B 8851   6.013   3.184   7.187
   87CHL1    C5 8852   5.954   3.039   7.335
   87CHL1    C6 8853   5.925   3.130   7.435
   87CHL1    H6 8854   5.946   3.233   7.403
   87CHL1    C7 8855   5.886   3.098   7.572
   87CHL1   H7A 8856   5.948   3.159   7.642
   87CHL1   H7B 8857   5.781   3.128   7.591
   87CHL1    C8 8858   5.904   2.949   7.600
   87CHL1    H8 8859   6.009   2.942   7.635
   87CHL1   C14 8860   5.824   2.917   7.725
   87CHL1   H14 8861   5.718   2.923   7.692
   87CHL1   C15 8862   5.830   3.014   7.846
   87CHL1  H15A 8863   5.933   3.049   7.866
   87CHL1  H15B 8864   5.777   3.111   7.838
   87CHL1   C16 8865   5.773   2.925   7.961
   87CHL1  H16A 8866   5.847   2.913   8.043
   87CHL1  H16B 8867   5.677   2.965   8.000
   87CHL1   C17 8868   5.736   2.787   7.902
   87CHL1   H17 8869   5.641   2.796   7.846
   87CHL1   C13 8870   5.839   2.775   7.785
   87CHL1   C18 8871   5.976   2.755   7.845
   87CHL1  H18A 8872   5.997   2.814   7.937
   87CHL1  H18B 8873   5.986   2.655   7.891
   87CHL1  H18C 8874   6.054   2.776   7.770
   87CHL1   C12 8875   5.805   2.670   7.675
   87CHL1  H12A 8876   5.844   2.571   7.708
   87CHL1  H12B 8877   5.695   2.658   7.668
   87CHL1   C11 8878   5.882   2.698   7.542
   87CHL1  H11A 8879   5.989   2.674   7.561
   87CHL1  H11B 8880   5.850   2.628   7.462
   87CHL1    C9 8881   5.871   2.849   7.491
   87CHL1    H9 8882   5.762   2.862   7.472
   87CHL1   C10 8883   5.942   2.884   7.363
   87CHL1   C19 8884   6.078   2.819   7.351
   87CHL1  H19A 8885   6.065   2.711   7.327
   87CHL1  H19B 8886   6.151   2.855   7.275
   87CHL1  H19C 8887   6.127   2.832   7.450
   87CHL1    C1 8888   5.855   2.828   7.244
   87CHL1   H1A 8889   5.852   2.717   7.252
   87CHL1   H1B 8890   5.753   2.872   7.254
   87CHL1    C2 8891   5.903   2.858   7.101
   87CHL1   H2A 8892   5.824   2.823   7.031
   87CHL1   H2B 8893   6.002   2.810   7.089
   87CHL1   C20 8894   5.711   2.670   7.998
   87CHL1   H20 8895   5.804   2.647   8.053
   87CHL1   C21 8896   5.646   2.550   7.932
   87CHL1  H21A 8897   5.727   2.507   7.870
   87CHL1  H21B 8898   5.563   2.573   7.862
   87CHL1  H21C 8899   5.604   2.478   8.005
   87CHL1   C22 8900   5.622   2.719   8.122
   87CHL1  H22A 8901   5.661   2.819   8.151
   87CHL1  H22B 8902   5.515   2.733   8.094
   87CHL1   C23 8903   5.639   2.628   8.245
   87CHL1  H23A 8904   5.621   2.528   8.202
   87CHL1  H23B 8905   5.741   2.636   8.289
   87CHL1   C24 8906   5.542   2.647   8.368
   87CHL1  H24A 8907   5.562   2.749   8.408
   87CHL1  H24B 8908   5.438   2.652   8.328
   87CHL1   C25 8909   5.568   2.551   8.485
   87CHL1   H25 8910   5.669   2.567   8.528
   87CHL1   C26 8911   5.470   2.577   8.600
   87CHL1  H26A 8912   5.369   2.592   8.556
   87CHL1  H26B 8913   5.470   2.487   8.665
   87CHL1  H26C 8914   5.496   2.673   8.651
   87CHL1   C27 8915   5.560   2.401   8.449
   87CHL1  H27A 8916   5.579   2.347   8.544
   87CHL1  H27B 8917   5.462   2.373   8.406
   87CHL1  H27C 8918   5.648   2.371   8.388
   88CHL1    C3 8919   3.866   1.152   6.940
   88CHL1    H3 8920   3.963   1.202   6.960
   88CHL1    O3 8921   3.824   1.176   6.806
   88CHL1   H3' 8922   3.828   1.272   6.799
   88CHL1    C4 8923   3.870   0.998   6.975
   88CHL1   H4A 8924   3.771   0.953   6.951
   88CHL1   H4B 8925   3.941   0.949   6.904
   88CHL1    C5 8926   3.905   0.977   7.116
   88CHL1    C6 8927   4.002   0.888   7.147
   88CHL1    H6 8928   4.057   0.840   7.065
   88CHL1    C7 8929   4.038   0.855   7.289
   88CHL1   H7A 8930   4.065   0.748   7.306
   88CHL1   H7B 8931   4.132   0.901   7.327
   88CHL1    C8 8932   3.929   0.897   7.393
   88CHL1    H8 8933   3.854   0.819   7.367
   88CHL1   C14 8934   3.980   0.883   7.537
   88CHL1   H14 8935   4.066   0.949   7.563
   88CHL1   C15 8936   4.038   0.743   7.590
   88CHL1  H15A 8937   3.969   0.672   7.540
   88CHL1  H15B 8938   4.134   0.724   7.537
   88CHL1   C16 8939   4.026   0.755   7.741
   88CHL1  H16A 8940   3.975   0.657   7.757
   88CHL1  H16B 8941   4.119   0.756   7.802
   88CHL1   C17 8942   3.949   0.885   7.773
   88CHL1   H17 8943   4.028   0.963   7.778
   88CHL1   C13 8944   3.869   0.920   7.636
   88CHL1   C18 8945   3.744   0.818   7.624
   88CHL1  H18A 8946   3.665   0.858   7.691
   88CHL1  H18B 8947   3.705   0.822   7.520
   88CHL1  H18C 8948   3.770   0.711   7.636
   88CHL1   C12 8949   3.825   1.064   7.609
   88CHL1  H12A 8950   3.735   1.087   7.670
   88CHL1  H12B 8951   3.898   1.141   7.643
   88CHL1   C11 8952   3.769   1.080   7.470
   88CHL1  H11A 8953   3.674   1.023   7.466
   88CHL1  H11B 8954   3.741   1.187   7.454
   88CHL1    C9 8955   3.876   1.038   7.365
   88CHL1    H9 8956   3.966   1.102   7.373
   88CHL1   C10 8957   3.822   1.055   7.223
   88CHL1   C19 8958   3.680   0.985   7.217
   88CHL1  H19A 8959   3.601   1.049   7.262
   88CHL1  H19B 8960   3.641   0.958   7.116
   88CHL1  H19C 8961   3.694   0.889   7.270
   88CHL1    C1 8962   3.814   1.206   7.181
   88CHL1   H1A 8963   3.734   1.254   7.241
   88CHL1   H1B 8964   3.912   1.247   7.212
   88CHL1    C2 8965   3.773   1.233   7.036
   88CHL1   H2A 8966   3.782   1.342   7.016
   88CHL1   H2B 8967   3.671   1.195   7.017
   88CHL1   C20 8968   3.872   0.887   7.907
   88CHL1   H20 8969   3.775   0.838   7.883
   88CHL1   C21 8970   3.855   1.026   7.958
   88CHL1  H21A 8971   3.954   1.062   7.995
   88CHL1  H21B 8972   3.785   1.049   8.041
   88CHL1  H21C 8973   3.810   1.085   7.876
   88CHL1   C22 8974   3.935   0.801   8.012
   88CHL1  H22A 8975   3.979   0.701   7.990
   88CHL1  H22B 8976   4.015   0.861   8.060
   88CHL1   C23 8977   3.839   0.757   8.121
   88CHL1  H23A 8978   3.793   0.852   8.156
   88CHL1  H23B 8979   3.750   0.697   8.090
   88CHL1   C24 8980   3.899   0.684   8.233
   88CHL1  H24A 8981   3.904   0.576   8.208
   88CHL1  H24B 8982   3.999   0.732   8.242
   88CHL1   C25 8983   3.831   0.710   8.365
   88CHL1   H25 8984   3.792   0.814   8.357
   88CHL1   C26 8985   3.719   0.619   8.394
   88CHL1  H26A 8986   3.663   0.590   8.302
   88CHL1  H26B 8987   3.757   0.522   8.433
   88CHL1  H26C 8988   3.642   0.659   8.464
   88CHL1   C27 8989   3.928   0.709   8.488
   88CHL1  H27A 8990   3.872   0.753   8.572
   88CHL1  H27B 8991   3.960   0.607   8.518
   88CHL1  H27C 8992   4.024   0.763   8.474
   89CHL1    C3 8993   0.138   4.096   7.052
   89CHL1    H3 8994   0.120   3.991   7.021
   89CHL1    O3 8995   0.200   4.167   6.949
   89CHL1   H3' 8996   0.133   4.186   6.883
   89CHL1    C4 8997  -0.005   4.157   7.087
   89CHL1   H4A 8998   0.007   4.264   7.116
   89CHL1   H4B 8999  -0.061   4.159   6.990
   89CHL1    C5 9000  -0.069   4.088   7.205
   89CHL1    C6 9001  -0.187   4.024   7.190
   89CHL1    H6 9002  -0.237   4.034   7.093
   89CHL1    C7 9003  -0.250   3.945   7.303
   89CHL1   H7A 9004  -0.358   3.969   7.312
   89CHL1   H7B 9005  -0.243   3.836   7.284
   89CHL1    C8 9006  -0.190   3.975   7.440
   89CHL1    H8 9007  -0.228   4.073   7.476
   89CHL1   C14 9008  -0.243   3.867   7.537
   89CHL1   H14 9009  -0.219   3.769   7.491
   89CHL1   C15 9010  -0.396   3.851   7.542
   89CHL1  H15A 9011  -0.464   3.937   7.558
   89CHL1  H15B 9012  -0.433   3.803   7.449
   89CHL1   C16 9013  -0.425   3.776   7.675
   89CHL1  H16A 9014  -0.494   3.832   7.742
   89CHL1  H16B 9015  -0.463   3.677   7.642
   89CHL1   C17 9016  -0.286   3.757   7.746
   89CHL1   H17 9017  -0.244   3.663   7.703
   89CHL1   C13 9018  -0.200   3.870   7.686
   89CHL1   C18 9019  -0.226   4.003   7.758
   89CHL1  H18A 9020  -0.337   4.012   7.763
   89CHL1  H18B 9021  -0.197   4.007   7.865
   89CHL1  H18C 9022  -0.184   4.095   7.711
   89CHL1   C12 9023  -0.047   3.849   7.673
   89CHL1  H12A 9024   0.012   3.855   7.767
   89CHL1  H12B 9025  -0.028   3.748   7.630
   89CHL1   C11 9026   0.022   3.956   7.581
   89CHL1  H11A 9027   0.015   4.056   7.631
   89CHL1  H11B 9028   0.127   3.929   7.558
   89CHL1    C9 9029  -0.041   3.973   7.440
   89CHL1    H9 9030  -0.014   3.874   7.397
   89CHL1   C10 9031   0.018   4.078   7.333
   89CHL1   C19 9032   0.029   4.206   7.415
   89CHL1  H19A 9033   0.065   4.286   7.347
   89CHL1  H19B 9034  -0.068   4.236   7.459
   89CHL1  H19C 9035   0.091   4.191   7.506
   89CHL1    C1 9036   0.160   4.029   7.296
   89CHL1   H1A 9037   0.223   4.023   7.387
   89CHL1   H1B 9038   0.158   3.923   7.263
   89CHL1    C2 9039   0.227   4.107   7.174
   89CHL1   H2A 9040   0.326   4.061   7.152
   89CHL1   H2B 9041   0.230   4.216   7.193
   89CHL1   C20 9042  -0.297   3.733   7.900
   89CHL1   H20 9043  -0.330   3.830   7.944
   89CHL1   C21 9044  -0.160   3.686   7.954
   89CHL1  H21A 9045  -0.082   3.763   7.932
   89CHL1  H21B 9046  -0.119   3.588   7.920
   89CHL1  H21C 9047  -0.153   3.687   8.065
   89CHL1   C22 9048  -0.410   3.632   7.936
   89CHL1  H22A 9049  -0.511   3.666   7.905
   89CHL1  H22B 9050  -0.379   3.544   7.877
   89CHL1   C23 9051  -0.419   3.592   8.087
   89CHL1  H23A 9052  -0.494   3.511   8.088
   89CHL1  H23B 9053  -0.324   3.552   8.129
   89CHL1   C24 9054  -0.483   3.703   8.174
   89CHL1  H24A 9055  -0.413   3.788   8.189
   89CHL1  H24B 9056  -0.578   3.736   8.127
   89CHL1   C25 9057  -0.518   3.655   8.318
   89CHL1   H25 9058  -0.558   3.744   8.372
   89CHL1   C26 9059  -0.625   3.545   8.313
   89CHL1  H26A 9060  -0.706   3.589   8.251
   89CHL1  H26B 9061  -0.578   3.448   8.285
   89CHL1  H26C 9062  -0.674   3.548   8.413
   89CHL1   C27 9063  -0.384   3.613   8.387
   89CHL1  H27A 9064  -0.407   3.590   8.493
   89CHL1  H27B 9065  -0.342   3.524   8.336
   89CHL1  H27C 9066  -0.312   3.697   8.385
   90CHL1    C3 9067   0.040   5.673   6.946
   90CHL1    H3 9068   0.021   5.569   6.980
   90CHL1    O3 9069   0.044   5.674   6.803
   90CHL1   H3' 9070  -0.045   5.693   6.772
   90CHL1    C4 9071  -0.066   5.768   6.997
   90CHL1   H4A 9072  -0.058   5.873   6.962
   90CHL1   H4B 9073  -0.166   5.750   6.952
   90CHL1    C5 9074  -0.079   5.770   7.147
   90CHL1    C6 9075  -0.190   5.729   7.211
   90CHL1    H6 9076  -0.275   5.694   7.152
   90CHL1    C7 9077  -0.213   5.735   7.362
   90CHL1   H7A 9078  -0.313   5.775   7.388
   90CHL1   H7B 9079  -0.218   5.633   7.405
   90CHL1    C8 9080  -0.099   5.819   7.433
   90CHL1    H8 9081  -0.120   5.926   7.414
   90CHL1   C14 9082  -0.097   5.778   7.578
   90CHL1   H14 9083  -0.063   5.673   7.589
   90CHL1   C15 9084  -0.232   5.790   7.649
   90CHL1  H15A 9085  -0.277   5.885   7.613
   90CHL1  H15B 9086  -0.302   5.705   7.635
   90CHL1   C16 9087  -0.193   5.798   7.799
   90CHL1  H16A 9088  -0.241   5.888   7.845
   90CHL1  H16B 9089  -0.223   5.702   7.846
   90CHL1   C17 9090  -0.035   5.798   7.805
   90CHL1   H17 9091  -0.010   5.689   7.804
   90CHL1   C13 9092   0.006   5.859   7.665
   90CHL1   C18 9093  -0.028   6.015   7.664
   90CHL1  H18A 9094  -0.137   6.035   7.674
   90CHL1  H18B 9095   0.028   6.064   7.746
   90CHL1  H18C 9096   0.004   6.056   7.567
   90CHL1   C12 9097   0.146   5.827   7.610
   90CHL1  H12A 9098   0.226   5.883   7.663
   90CHL1  H12B 9099   0.177   5.722   7.629
   90CHL1   C11 9100   0.158   5.847   7.460
   90CHL1  H11A 9101   0.157   5.958   7.453
   90CHL1  H11B 9102   0.262   5.817   7.432
   90CHL1    C9 9103   0.041   5.784   7.376
   90CHL1    H9 9104   0.043   5.674   7.391
   90CHL1   C10 9105   0.048   5.813   7.224
   90CHL1   C19 9106   0.071   5.964   7.208
   90CHL1  H19A 9107   0.071   5.992   7.100
   90CHL1  H19B 9108  -0.006   6.025   7.259
   90CHL1  H19C 9109   0.173   5.990   7.244
   90CHL1    C1 9110   0.158   5.726   7.157
   90CHL1   H1A 9111   0.255   5.750   7.204
   90CHL1   H1B 9112   0.136   5.619   7.174
   90CHL1    C2 9113   0.169   5.729   7.005
   90CHL1   H2A 9114   0.255   5.663   6.979
   90CHL1   H2B 9115   0.195   5.830   6.966
   90CHL1   C20 9116   0.028   5.860   7.928
   90CHL1   H20 9117  -0.005   5.966   7.931
   90CHL1   C21 9118   0.179   5.838   7.923
   90CHL1  H21A 9119   0.225   5.904   7.846
   90CHL1  H21B 9120   0.204   5.735   7.888
   90CHL1  H21C 9121   0.226   5.854   8.022
   90CHL1   C22 9122  -0.025   5.792   8.060
   90CHL1  H22A 9123  -0.135   5.775   8.058
   90CHL1  H22B 9124   0.020   5.691   8.064
   90CHL1   C23 9125   0.001   5.883   8.185
   90CHL1  H23A 9126   0.103   5.879   8.229
   90CHL1  H23B 9127  -0.009   5.989   8.154
   90CHL1   C24 9128  -0.095   5.852   8.308
   90CHL1  H24A 9129  -0.198   5.874   8.274
   90CHL1  H24B 9130  -0.091   5.743   8.328
   90CHL1   C25 9131  -0.061   5.932   8.434
   90CHL1   H25 9132   0.050   5.941   8.437
   90CHL1   C26 9133  -0.132   6.068   8.430
   90CHL1  H26A 9134  -0.110   6.123   8.524
   90CHL1  H26B 9135  -0.094   6.130   8.346
   90CHL1  H26C 9136  -0.242   6.059   8.423
   90CHL1   C27 9137  -0.105   5.856   8.557
   90CHL1  H27A 9138  -0.032   5.783   8.597
   90CHL1  H27B 9139  -0.124   5.932   8.636
   90CHL1  H27C 9140  -0.201   5.810   8.526
   91CHL1    C3 9141   1.384   0.239   7.188
   91CHL1    H3 9142   1.490   0.227   7.219
   91CHL1    O3 9143   1.387   0.273   7.051
   91CHL1   H3' 9144   1.308   0.228   7.020
   91CHL1    C4 9145   1.318   0.092   7.192
   91CHL1   H4A 9146   1.216   0.110   7.153
   91CHL1   H4B 9147   1.372   0.020   7.126
   91CHL1    C5 9148   1.313   0.037   7.338
   91CHL1    C6 9149   1.351  -0.088   7.369
   91CHL1    H6 9150   1.394  -0.153   7.291
   91CHL1    C7 9151   1.353  -0.138   7.508
   91CHL1   H7A 9152   1.307  -0.238   7.492
   91CHL1   H7B 9153   1.456  -0.146   7.547
   91CHL1    C8 9154   1.264  -0.061   7.611
   91CHL1    H8 9155   1.159  -0.086   7.585
   91CHL1   C14 9156   1.290  -0.095   7.758
   91CHL1   H14 9157   1.395  -0.061   7.773
   91CHL1   C15 9158   1.293  -0.245   7.794
   91CHL1  H15A 9159   1.209  -0.295   7.742
   91CHL1  H15B 9160   1.386  -0.301   7.773
   91CHL1   C16 9161   1.263  -0.246   7.940
   91CHL1  H16A 9162   1.173  -0.310   7.950
   91CHL1  H16B 9163   1.339  -0.301   7.999
   91CHL1   C17 9164   1.249  -0.094   7.986
   91CHL1   H17 9165   1.351  -0.059   8.009
   91CHL1   C13 9166   1.202  -0.019   7.854
   91CHL1   C18 9167   1.051  -0.053   7.834
   91CHL1  H18A 9168   0.990   0.006   7.906
   91CHL1  H18B 9169   1.019  -0.016   7.734
   91CHL1  H18C 9170   1.023  -0.159   7.851
   91CHL1   C12 9171   1.235   0.127   7.844
   91CHL1  H12A 9172   1.168   0.191   7.904
   91CHL1  H12B 9173   1.340   0.146   7.876
   91CHL1   C11 9174   1.208   0.173   7.696
   91CHL1  H11A 9175   1.097   0.169   7.691
   91CHL1  H11B 9176   1.239   0.280   7.696
   91CHL1    C9 9177   1.282   0.091   7.586
   91CHL1    H9 9178   1.390   0.109   7.607
   91CHL1   C10 9179   1.258   0.137   7.445
   91CHL1   C19 9180   1.105   0.151   7.416
   91CHL1  H19A 9181   1.050   0.077   7.478
   91CHL1  H19B 9182   1.078   0.253   7.448
   91CHL1  H19C 9183   1.083   0.135   7.308
   91CHL1    C1 9184   1.323   0.275   7.424
   91CHL1   H1A 9185   1.279   0.348   7.496
   91CHL1   H1B 9186   1.428   0.267   7.460
   91CHL1    C2 9187   1.315   0.331   7.283
   91CHL1   H2A 9188   1.370   0.428   7.287
   91CHL1   H2B 9189   1.215   0.371   7.256
   91CHL1   C20 9190   1.160  -0.085   8.108
   91CHL1   H20 9191   1.053  -0.103   8.083
   91CHL1   C21 9192   1.183   0.052   8.177
   91CHL1  H21A 9193   1.277   0.057   8.235
   91CHL1  H21B 9194   1.101   0.081   8.247
   91CHL1  H21C 9195   1.185   0.126   8.093
   91CHL1   C22 9196   1.188  -0.190   8.219
   91CHL1  H22A 9197   1.161  -0.288   8.174
   91CHL1  H22B 9198   1.295  -0.187   8.250
   91CHL1   C23 9199   1.107  -0.167   8.343
   91CHL1  H23A 9200   1.164  -0.089   8.398
   91CHL1  H23B 9201   1.004  -0.126   8.330
   91CHL1   C24 9202   1.089  -0.298   8.425
   91CHL1  H24A 9203   1.039  -0.378   8.365
   91CHL1  H24B 9204   1.184  -0.346   8.457
   91CHL1   C25 9205   1.015  -0.282   8.557
   91CHL1   H25 9206   1.025  -0.382   8.604
   91CHL1   C26 9207   1.076  -0.175   8.650
   91CHL1  H26A 9208   1.062  -0.076   8.600
   91CHL1  H26B 9209   1.024  -0.170   8.748
   91CHL1  H26C 9210   1.184  -0.192   8.668
   91CHL1   C27 9211   0.865  -0.251   8.528
   91CHL1  H27A 9212   0.809  -0.276   8.621
   91CHL1  H27B 9213   0.858  -0.141   8.513
   91CHL1  H27C 9214   0.832  -0.313   8.443
   92CHL1    C3 9215   4.107   2.133   6.823
   92CHL1    H3 9216   4.131   2.025   6.832
   92CHL1    O3 9217   4.131   2.184   6.690
   92CHL1   H3' 9218   4.042   2.206   6.664
   92CHL1    C4 9219   3.961   2.154   6.856
   92CHL1   H4A 9220   3.938   2.259   6.830
   92CHL1   H4B 9221   3.901   2.104   6.778
   92CHL1    C5 9222   3.934   2.113   6.991
   92CHL1    C6 9223   3.835   2.036   7.027
   92CHL1    H6 9224   3.773   1.992   6.947
   92CHL1    C7 9225   3.805   2.006   7.169
   92CHL1   H7A 9226   3.698   2.028   7.192
   92CHL1   H7B 9227   3.813   1.896   7.186
   92CHL1    C8 9228   3.894   2.081   7.278
   92CHL1    H8 9229   3.840   2.177   7.291
   92CHL1   C14 9230   3.892   2.003   7.409
   92CHL1   H14 9231   3.951   1.910   7.390
   92CHL1   C15 9232   3.755   1.956   7.462
   92CHL1  H15A 9233   3.690   2.047   7.457
   92CHL1  H15B 9234   3.732   1.863   7.405
   92CHL1   C16 9235   3.784   1.930   7.608
   92CHL1  H16A 9236   3.709   1.982   7.672
   92CHL1  H16B 9237   3.787   1.821   7.625
   92CHL1   C17 9238   3.931   1.977   7.641
   92CHL1   H17 9239   3.997   1.890   7.617
   92CHL1   C13 9240   3.962   2.081   7.527
   92CHL1   C18 9241   3.895   2.218   7.545
   92CHL1  H18A 9242   3.911   2.283   7.457
   92CHL1  H18B 9243   3.786   2.212   7.563
   92CHL1  H18C 9244   3.959   2.271   7.619
   92CHL1   C12 9245   4.107   2.098   7.480
   92CHL1  H12A 9246   4.158   2.151   7.564
   92CHL1  H12B 9247   4.161   2.002   7.463
   92CHL1   C11 9248   4.123   2.172   7.351
   92CHL1  H11A 9249   4.100   2.281   7.358
   92CHL1  H11B 9250   4.231   2.163   7.327
   92CHL1    C9 9251   4.039   2.102   7.236
   92CHL1    H9 9252   4.079   2.000   7.226
   92CHL1   C10 9253   4.041   2.169   7.096
   92CHL1   C19 9254   3.998   2.318   7.116
   92CHL1  H19A 9255   3.896   2.317   7.160
   92CHL1  H19B 9256   4.071   2.358   7.189
   92CHL1  H19C 9257   4.003   2.372   7.019
   92CHL1    C1 9258   4.190   2.171   7.057
   92CHL1   H1A 9259   4.258   2.229   7.124
   92CHL1   H1B 9260   4.222   2.064   7.057
   92CHL1    C2 9261   4.203   2.210   6.908
   92CHL1   H2A 9262   4.308   2.213   6.873
   92CHL1   H2B 9263   4.167   2.315   6.903
   92CHL1   C20 9264   3.962   2.015   7.785
   92CHL1   H20 9265   3.936   2.122   7.797
   92CHL1   C21 9266   4.115   1.992   7.811
   92CHL1  H21A 9267   4.144   1.885   7.808
   92CHL1  H21B 9268   4.142   2.023   7.914
   92CHL1  H21C 9269   4.181   2.049   7.743
   92CHL1   C22 9270   3.887   1.919   7.881
   92CHL1  H22A 9271   3.776   1.921   7.872
   92CHL1  H22B 9272   3.918   1.815   7.857
   92CHL1   C23 9273   3.931   1.933   8.029
   92CHL1  H23A 9274   4.037   1.917   8.057
   92CHL1  H23B 9275   3.910   2.039   8.053
   92CHL1   C24 9276   3.836   1.850   8.114
   92CHL1  H24A 9277   3.738   1.857   8.063
   92CHL1  H24B 9278   3.869   1.744   8.112
   92CHL1   C25 9279   3.822   1.895   8.257
   92CHL1   H25 9280   3.772   1.994   8.253
   92CHL1   C26 9281   3.742   1.795   8.344
   92CHL1  H26A 9282   3.647   1.772   8.290
   92CHL1  H26B 9283   3.803   1.703   8.340
   92CHL1  H26C 9284   3.713   1.828   8.447
   92CHL1   C27 9285   3.967   1.905   8.326
   92CHL1  H27A 9286   4.032   1.983   8.280
   92CHL1  H27B 9287   3.955   1.938   8.431
   92CHL1  H27C 9288   4.018   1.806   8.327
   93CHL1    C3 9289   2.872   6.492   6.952
   93CHL1    H3 9290   2.936   6.402   6.964
   93CHL1    O3 9291   2.829   6.503   6.818
   93CHL1   H3' 9292   2.783   6.588   6.812
   93CHL1    C4 9293   2.751   6.482   7.050
   93CHL1   H4A 9294   2.677   6.564   7.036
   93CHL1   H4B 9295   2.692   6.391   7.028
   93CHL1    C5 9296   2.786   6.483   7.196
   93CHL1    C6 9297   2.742   6.393   7.288
   93CHL1    H6 9298   2.673   6.313   7.255
   93CHL1    C7 9299   2.788   6.388   7.437
   93CHL1   H7A 9300   2.695   6.380   7.497
   93CHL1   H7B 9301   2.861   6.305   7.447
   93CHL1    C8 9302   2.850   6.522   7.481
   93CHL1    H8 9303   2.776   6.604   7.493
   93CHL1   C14 9304   2.919   6.513   7.612
   93CHL1   H14 9305   3.011   6.451   7.610
   93CHL1   C15 9306   2.838   6.455   7.729
   93CHL1  H15A 9307   2.734   6.491   7.714
   93CHL1  H15B 9308   2.847   6.344   7.737
   93CHL1   C16 9309   2.910   6.505   7.854
   93CHL1  H16A 9310   2.849   6.573   7.917
   93CHL1  H16B 9311   2.940   6.423   7.923
   93CHL1   C17 9312   3.031   6.597   7.806
   93CHL1   H17 9313   3.119   6.534   7.780
   93CHL1   C13 9314   2.978   6.645   7.669
   93CHL1   C18 9315   2.866   6.758   7.691
   93CHL1  H18A 9316   2.900   6.840   7.757
   93CHL1  H18B 9317   2.836   6.799   7.592
   93CHL1  H18C 9318   2.777   6.711   7.736
   93CHL1   C12 9319   3.085   6.685   7.565
   93CHL1  H12A 9320   3.154   6.766   7.598
   93CHL1  H12B 9321   3.159   6.602   7.555
   93CHL1   C11 9322   3.022   6.702   7.422
   93CHL1  H11A 9323   2.956   6.790   7.430
   93CHL1  H11B 9324   3.102   6.725   7.349
   93CHL1    C9 9325   2.950   6.572   7.374
   93CHL1    H9 9326   3.020   6.487   7.363
   93CHL1   C10 9327   2.886   6.597   7.236
   93CHL1   C19 9328   2.803   6.725   7.238
   93CHL1  H19A 9329   2.878   6.807   7.240
   93CHL1  H19B 9330   2.742   6.735   7.146
   93CHL1  H19C 9331   2.733   6.728   7.324
   93CHL1    C1 9332   3.001   6.602   7.126
   93CHL1   H1A 9333   3.062   6.693   7.145
   93CHL1   H1B 9334   3.070   6.515   7.132
   93CHL1    C2 9335   2.956   6.615   6.981
   93CHL1   H2A 9336   3.051   6.625   6.924
   93CHL1   H2B 9337   2.883   6.699   6.969
   93CHL1   C20 9338   3.068   6.701   7.915
   93CHL1   H20 9339   2.983   6.771   7.923
   93CHL1   C21 9340   3.187   6.786   7.865
   93CHL1  H21A 9341   3.138   6.865   7.805
   93CHL1  H21B 9342   3.262   6.722   7.814
   93CHL1  H21C 9343   3.237   6.837   7.950
   93CHL1   C22 9344   3.094   6.640   8.052
   93CHL1  H22A 9345   3.095   6.719   8.130
   93CHL1  H22B 9346   2.998   6.592   8.081
   93CHL1   C23 9347   3.213   6.546   8.062
   93CHL1  H23A 9348   3.201   6.461   7.991
   93CHL1  H23B 9349   3.305   6.596   8.027
   93CHL1   C24 9350   3.237   6.509   8.208
   93CHL1  H24A 9351   3.216   6.601   8.268
   93CHL1  H24B 9352   3.156   6.442   8.242
   93CHL1   C25 9353   3.380   6.458   8.240
   93CHL1   H25 9354   3.444   6.544   8.214
   93CHL1   C26 9355   3.393   6.430   8.393
   93CHL1  H26A 9356   3.343   6.508   8.453
   93CHL1  H26B 9357   3.327   6.342   8.412
   93CHL1  H26C 9358   3.499   6.413   8.423
   93CHL1   C27 9359   3.410   6.335   8.158
   93CHL1  H27A 9360   3.343   6.255   8.196
   93CHL1  H27B 9361   3.378   6.353   8.053
   93CHL1  H27C 9362   3.518   6.310   8.166
   94CHL1    C3 9363   4.985   2.716   6.949
   94CHL1    H3 9364   4.957   2.609   6.954
   94CHL1    O3 9365   5.026   2.747   6.820
   94CHL1   H3' 9366   5.074   2.830   6.827
   94CHL1    C4 9367   4.872   2.805   6.999
   94CHL1   H4A 9368   4.900   2.910   6.977
   94CHL1   H4B 9369   4.789   2.770   6.934
   94CHL1    C5 9370   4.840   2.774   7.147
   94CHL1    C6 9371   4.711   2.749   7.185
   94CHL1    H6 9372   4.629   2.744   7.111
   94CHL1    C7 9373   4.667   2.730   7.333
   94CHL1   H7A 9374   4.563   2.767   7.344
   94CHL1   H7B 9375   4.662   2.620   7.347
   94CHL1    C8 9376   4.774   2.774   7.436
   94CHL1    H8 9377   4.759   2.882   7.455
   94CHL1   C14 9378   4.745   2.708   7.573
   94CHL1   H14 9379   4.740   2.599   7.552
   94CHL1   C15 9380   4.612   2.742   7.640
   94CHL1  H15A 9381   4.601   2.853   7.638
   94CHL1  H15B 9382   4.528   2.700   7.582
   94CHL1   C16 9383   4.632   2.697   7.779
   94CHL1  H16A 9384   4.604   2.777   7.850
   94CHL1  H16B 9385   4.584   2.598   7.796
   94CHL1   C17 9386   4.778   2.661   7.805
   94CHL1   H17 9387   4.799   2.553   7.788
   94CHL1   C13 9388   4.851   2.733   7.684
   94CHL1   C18 9389   4.864   2.889   7.714
   94CHL1  H18A 9390   4.871   2.950   7.622
   94CHL1  H18B 9391   4.776   2.936   7.762
   94CHL1  H18C 9392   4.947   2.912   7.785
   94CHL1   C12 9393   4.985   2.671   7.636
   94CHL1  H12A 9394   5.064   2.701   7.707
   94CHL1  H12B 9395   4.980   2.560   7.636
   94CHL1   C11 9396   5.032   2.732   7.502
   94CHL1  H11A 9397   5.056   2.838   7.523
   94CHL1  H11B 9398   5.124   2.689   7.456
   94CHL1    C9 9399   4.913   2.732   7.388
   94CHL1    H9 9400   4.889   2.625   7.370
   94CHL1   C10 9401   4.955   2.776   7.246
   94CHL1   C19 9402   4.999   2.929   7.256
   94CHL1  H19A 9403   5.031   2.969   7.158
   94CHL1  H19B 9404   4.913   2.985   7.297
   94CHL1  H19C 9405   5.098   2.939   7.306
   94CHL1    C1 9406   5.070   2.685   7.184
   94CHL1   H1A 9407   5.166   2.692   7.239
   94CHL1   H1B 9408   5.046   2.577   7.177
   94CHL1    C2 9409   5.106   2.726   7.042
   94CHL1   H2A 9410   5.185   2.654   7.009
   94CHL1   H2B 9411   5.138   2.832   7.044
   94CHL1   C20 9412   4.823   2.680   7.952
   94CHL1   H20 9413   4.828   2.788   7.977
   94CHL1   C21 9414   4.963   2.623   7.973
   94CHL1  H21A 9415   4.990   2.612   8.081
   94CHL1  H21B 9416   5.040   2.689   7.927
   94CHL1  H21C 9417   4.975   2.521   7.931
   94CHL1   C22 9418   4.722   2.620   8.046
   94CHL1  H22A 9419   4.624   2.672   8.040
   94CHL1  H22B 9420   4.709   2.517   8.006
   94CHL1   C23 9421   4.758   2.617   8.195
   94CHL1  H23A 9422   4.852   2.569   8.229
   94CHL1  H23B 9423   4.765   2.723   8.225
   94CHL1   C24 9424   4.651   2.553   8.285
   94CHL1  H24A 9425   4.552   2.581   8.243
   94CHL1  H24B 9426   4.664   2.443   8.273
   94CHL1   C25 9427   4.664   2.575   8.434
   94CHL1   H25 9428   4.673   2.685   8.450
   94CHL1   C26 9429   4.543   2.515   8.509
   94CHL1  H26A 9430   4.452   2.559   8.463
   94CHL1  H26B 9431   4.532   2.405   8.510
   94CHL1  H26C 9432   4.539   2.556   8.612
   94CHL1   C27 9433   4.798   2.513   8.501
   94CHL1  H27A 9434   4.886   2.542   8.439
   94CHL1  H27B 9435   4.813   2.556   8.602
   94CHL1  H27C 9436   4.780   2.404   8.494
   95CHL1    C3 9437   4.844   1.833   6.589
   95CHL1    H3 9438   4.930   1.767   6.611
   95CHL1    O3 9439   4.853   1.875   6.452
   95CHL1   H3' 9440   4.875   1.969   6.451
   95CHL1    C4 9441   4.709   1.759   6.616
   95CHL1   H4A 9442   4.625   1.813   6.567
   95CHL1   H4B 9443   4.710   1.665   6.558
   95CHL1    C5 9444   4.679   1.728   6.760
   95CHL1    C6 9445   4.647   1.606   6.804
   95CHL1    H6 9446   4.651   1.520   6.734
   95CHL1    C7 9447   4.619   1.567   6.942
   95CHL1   H7A 9448   4.532   1.499   6.952
   95CHL1   H7B 9449   4.695   1.502   6.990
   95CHL1    C8 9450   4.583   1.692   7.030
   95CHL1    H8 9451   4.482   1.730   7.004
   95CHL1   C14 9452   4.565   1.656   7.179
   95CHL1   H14 9453   4.658   1.619   7.228
   95CHL1   C15 9454   4.465   1.546   7.212
   95CHL1  H15A 9455   4.368   1.570   7.162
   95CHL1  H15B 9456   4.490   1.444   7.176
   95CHL1   C16 9457   4.448   1.555   7.364
   95CHL1  H16A 9458   4.339   1.558   7.388
   95CHL1  H16B 9459   4.503   1.473   7.414
   95CHL1   C17 9460   4.527   1.687   7.410
   95CHL1   H17 9461   4.635   1.664   7.424
   95CHL1   C13 9462   4.536   1.770   7.279
   95CHL1   C18 9463   4.401   1.837   7.241
   95CHL1  H18A 9464   4.396   1.937   7.290
   95CHL1  H18B 9465   4.388   1.865   7.134
   95CHL1  H18C 9466   4.310   1.783   7.275
   95CHL1   C12 9467   4.661   1.868   7.268
   95CHL1  H12A 9468   4.663   1.958   7.333
   95CHL1  H12B 9469   4.751   1.809   7.295
   95CHL1   C11 9470   4.689   1.915   7.122
   95CHL1  H11A 9471   4.610   1.992   7.110
   95CHL1  H11B 9472   4.782   1.976   7.116
   95CHL1    C9 9473   4.692   1.802   7.012
   95CHL1    H9 9474   4.789   1.751   7.032
   95CHL1   C10 9475   4.691   1.848   6.862
   95CHL1   C19 9476   4.579   1.950   6.850
   95CHL1  H19A 9477   4.569   1.980   6.744
   95CHL1  H19B 9478   4.482   1.913   6.890
   95CHL1  H19C 9479   4.598   2.035   6.919
   95CHL1    C1 9480   4.837   1.912   6.829
   95CHL1   H1A 9481   4.845   2.009   6.882
   95CHL1   H1B 9482   4.913   1.835   6.856
   95CHL1    C2 9483   4.853   1.952   6.679
   95CHL1   H2A 9484   4.953   1.999   6.662
   95CHL1   H2B 9485   4.778   2.028   6.648
   95CHL1   C20 9486   4.467   1.748   7.534
   95CHL1   H20 9487   4.357   1.765   7.524
   95CHL1   C21 9488   4.523   1.891   7.548
   95CHL1  H21A 9489   4.481   1.954   7.467
   95CHL1  H21B 9490   4.634   1.895   7.554
   95CHL1  H21C 9491   4.487   1.933   7.644
   95CHL1   C22 9492   4.480   1.667   7.667
   95CHL1  H22A 9493   4.442   1.566   7.644
   95CHL1  H22B 9494   4.591   1.667   7.670
   95CHL1   C23 9495   4.414   1.734   7.792
   95CHL1  H23A 9496   4.501   1.788   7.835
   95CHL1  H23B 9497   4.345   1.813   7.756
   95CHL1   C24 9498   4.355   1.631   7.894
   95CHL1  H24A 9499   4.277   1.569   7.845
   95CHL1  H24B 9500   4.435   1.564   7.931
   95CHL1   C25 9501   4.292   1.691   8.023
   95CHL1   H25 9502   4.206   1.754   7.994
   95CHL1   C26 9503   4.258   1.585   8.118
   95CHL1  H26A 9504   4.185   1.514   8.074
   95CHL1  H26B 9505   4.343   1.525   8.156
   95CHL1  H26C 9506   4.204   1.625   8.207
   95CHL1   C27 9507   4.396   1.783   8.099
   95CHL1  H27A 9508   4.480   1.725   8.143
   95CHL1  H27B 9509   4.442   1.862   8.036
   95CHL1  H27C 9510   4.339   1.845   8.171
   96CHL1    C3 9511   4.725   1.136   6.656
   96CHL1    H3 9512   4.638   1.193   6.696
   96CHL1    O3 9513   4.724   1.151   6.516
   96CHL1   H3' 9514   4.812   1.132   6.481
   96CHL1    C4 9515   4.846   1.201   6.720
   96CHL1   H4A 9516   4.938   1.150   6.683
   96CHL1   H4B 9517   4.844   1.310   6.698
   96CHL1    C5 9518   4.832   1.172   6.869
   96CHL1    C6 9519   4.828   1.278   6.956
   96CHL1    H6 9520   4.844   1.377   6.912
   96CHL1    C7 9521   4.806   1.269   7.107
   96CHL1   H7A 9522   4.877   1.337   7.158
   96CHL1   H7B 9523   4.706   1.307   7.137
   96CHL1    C8 9524   4.833   1.128   7.158
   96CHL1    H8 9525   4.943   1.116   7.171
   96CHL1   C14 9526   4.769   1.118   7.295
   96CHL1   H14 9527   4.659   1.114   7.280
   96CHL1   C15 9528   4.783   1.238   7.398
   96CHL1  H15A 9529   4.888   1.273   7.388
   96CHL1  H15B 9530   4.711   1.320   7.377
   96CHL1   C16 9531   4.755   1.180   7.537
   96CHL1  H16A 9532   4.852   1.182   7.590
   96CHL1  H16B 9533   4.676   1.236   7.591
   96CHL1   C17 9534   4.736   1.023   7.526
   96CHL1   H17 9535   4.626   1.011   7.515
   96CHL1   C13 9536   4.796   0.989   7.381
   96CHL1   C18 9537   4.945   0.963   7.400
   96CHL1  H18A 9538   4.997   1.046   7.453
   96CHL1  H18B 9539   4.946   0.862   7.447
   96CHL1  H18C 9540   4.983   0.955   7.296
   96CHL1   C12 9541   4.729   0.880   7.292
   96CHL1  H12A 9542   4.750   0.782   7.339
   96CHL1  H12B 9543   4.619   0.894   7.294
   96CHL1   C11 9544   4.775   0.886   7.147
   96CHL1  H11A 9545   4.883   0.862   7.138
   96CHL1  H11B 9546   4.717   0.824   7.075
   96CHL1    C9 9547   4.767   1.020   7.076
   96CHL1    H9 9548   4.661   1.053   7.075
   96CHL1   C10 9549   4.801   1.027   6.922
   96CHL1   C19 9550   4.943   0.967   6.898
   96CHL1  H19A 9551   4.950   0.869   6.951
   96CHL1  H19B 9552   4.969   0.953   6.791
   96CHL1  H19C 9553   5.021   1.035   6.939
   96CHL1    C1 9554   4.683   0.966   6.838
   96CHL1   H1A 9555   4.682   0.856   6.854
   96CHL1   H1B 9556   4.588   1.011   6.874
   96CHL1    C2 9557   4.699   0.989   6.693
   96CHL1   H2A 9558   4.604   0.963   6.641
   96CHL1   H2B 9559   4.780   0.927   6.647
   96CHL1   C20 9560   4.775   0.949   7.652
   96CHL1   H20 9561   4.885   0.946   7.669
   96CHL1   C21 9562   4.717   0.804   7.639
   96CHL1  H21A 9563   4.609   0.825   7.619
   96CHL1  H21B 9564   4.722   0.757   7.740
   96CHL1  H21C 9565   4.755   0.736   7.561
   96CHL1   C22 9566   4.722   1.023   7.782
   96CHL1  H22A 9567   4.770   1.124   7.787
   96CHL1  H22B 9568   4.614   1.042   7.763
   96CHL1   C23 9569   4.750   0.945   7.915
   96CHL1  H23A 9570   4.671   0.867   7.915
   96CHL1  H23B 9571   4.853   0.903   7.909
   96CHL1   C24 9572   4.730   1.024   8.049
   96CHL1  H24A 9573   4.787   1.119   8.043
   96CHL1  H24B 9574   4.621   1.047   8.055
   96CHL1   C25 9575   4.783   0.946   8.167
   96CHL1   H25 9576   4.891   0.932   8.145
   96CHL1   C26 9577   4.770   1.022   8.299
   96CHL1  H26A 9578   4.839   1.110   8.297
   96CHL1  H26B 9579   4.664   1.049   8.315
   96CHL1  H26C 9580   4.800   0.947   8.374
   96CHL1   C27 9581   4.714   0.812   8.189
   96CHL1  H27A 9582   4.711   0.750   8.097
   96CHL1  H27B 9583   4.769   0.751   8.264
   96CHL1  H27C 9584   4.609   0.823   8.222
   97OSM      N 9585   2.617   2.304  11.181
   97OSM    C15 9586   2.529   2.289  11.302
   97OSM   H15A 9587   2.435   2.261  11.257
   97OSM   H15B 9588   2.516   2.381  11.357
   97OSM   H15C 9589   2.559   2.206  11.363
   97OSM    C14 9590   2.567   2.428  11.111
   97OSM   H14A 9591   2.462   2.415  11.088
   97OSM   H14B 9592   2.610   2.447  11.014
   97OSM   H14C 9593   2.589   2.523  11.157
   97OSM    C13 9594   2.758   2.322  11.218
   97OSM   H13A 9595   2.838   2.346  11.150
   97OSM   H13B 9596   2.792   2.225  11.252
   97OSM   H13C 9597   2.777   2.399  11.292
   97OSM    C12 9598   2.601   2.183  11.089
   97OSM   H12A 9599   2.662   2.104  11.129
   97OSM   H12B 9600   2.648   2.210  10.995
   97OSM    C11 9601   2.460   2.133  11.052
   97OSM   H11A 9602   2.485   2.050  10.982
   97OSM   H11B 9603   2.417   2.212  10.987
   97OSM      P 9604   2.375   1.958  11.211
   97OSM    O13 9605   2.506   1.915  11.257
   97OSM    O14 9606   2.263   1.952  11.302
   97OSM    O11 9607   2.333   1.878  11.090
   97OSM    O12 9608   2.376   2.101  11.155
   97OSM    C1S 9609   2.217   1.898  11.008
   97OSM    H1S 9610   2.178   2.001  11.019
   97OSM    H1T 9611   2.139   1.825  11.036
   97OSM     NF 9612   2.133   1.916  10.770
   97OSM    HNF 9613   2.085   1.840  10.727
   97OSM    C2S 9614   2.251   1.889  10.853
   97OSM    H2S 9615   2.323   1.970  10.829
   97OSM    C3S 9616   2.314   1.746  10.825
   97OSM    H3S 9617   2.242   1.663  10.839
   97OSM     O3 9618   2.425   1.703  10.907
   97OSM    HO3 9619   2.431   1.766  10.979
   97OSM    C4S 9620   2.357   1.736  10.678
   97OSM    H4S 9621   2.304   1.658  10.622
   97OSM    C5S 9622   2.458   1.782  10.609
   97OSM    H5S 9623   2.528   1.856  10.648
   97OSM    C6S 9624   2.478   1.736  10.471
   97OSM    H6S 9625   2.499   1.627  10.477
   97OSM    H6T 9626   2.578   1.769  10.435
   97OSM    C7S 9627   2.372   1.782  10.369
   97OSM    H7S 9628   2.372   1.892  10.357
   97OSM    H7T 9629   2.271   1.753  10.404
   97OSM    C8S 9630   2.392   1.719  10.225
   97OSM    H8S 9631   2.394   1.611  10.248
   97OSM    H8T 9632   2.494   1.745  10.189
   97OSM    C9S 9633   2.290   1.769  10.123
   97OSM    H9S 9634   2.312   1.878  10.124
   97OSM    H9T 9635   2.186   1.769  10.162
   97OSM   C10S 9636   2.293   1.706   9.979
   97OSM   H10S 9637   2.216   1.742   9.909
   97OSM   H10T 9638   2.267   1.598   9.980
   97OSM   C11S 9639   2.428   1.726   9.903
   97OSM   H11S 9640   2.507   1.660   9.945
   97OSM   H11T 9641   2.456   1.832   9.921
   97OSM   C12S 9642   2.408   1.716   9.762
   97OSM   H12S 9643   2.342   1.801   9.734
   97OSM   H12T 9644   2.352   1.625   9.732
   97OSM   C13S 9645   2.536   1.738   9.682
   97OSM   H13S 9646   2.619   1.669   9.706
   97OSM   H13T 9647   2.559   1.844   9.707
   97OSM   C14S 9648   2.516   1.741   9.527
   97OSM   H14S 9649   2.444   1.823   9.508
   97OSM   H14T 9650   2.466   1.646   9.497
   97OSM   C15S 9651   2.648   1.760   9.453
   97OSM   H15S 9652   2.727   1.701   9.504
   97OSM   H15T 9653   2.684   1.865   9.460
   97OSM   C16S 9654   2.635   1.721   9.303
   97OSM   H16S 9655   2.536   1.757   9.270
   97OSM   H16T 9656   2.645   1.610   9.301
   97OSM   C17S 9657   2.750   1.773   9.211
   97OSM   H17S 9658   2.848   1.736   9.247
   97OSM   H17T 9659   2.747   1.883   9.232
   97OSM   C18S 9660   2.737   1.740   9.058
   97OSM   H18S 9661   2.763   1.635   9.033
   97OSM   H18T 9662   2.798   1.802   8.989
   97OSM   H18U 9663   2.632   1.761   9.030
   97OSM    C1F 9664   2.081   2.037  10.762
   97OSM     OF 9665   2.119   2.126  10.835
   97OSM    C2F 9666   1.976   2.062  10.666
   97OSM    H2F 9667   1.949   2.170  10.658
   97OSM    H2G 9668   1.884   2.005  10.692
   97OSM    C3F 9669   2.022   2.019  10.523
   97OSM    H3F 9670   1.930   2.010  10.461
   97OSM    H3G 9671   2.077   1.923  10.522
   97OSM    C4F 9672   2.113   2.128  10.470
   97OSM    H4F 9673   2.200   2.139  10.538
   97OSM    H4G 9674   2.061   2.225  10.485
   97OSM    C5F 9675   2.160   2.126  10.315
   97OSM    H5F 9676   2.230   2.041  10.300
   97OSM    H5G 9677   2.211   2.220  10.283
   97OSM    C6F 9678   2.052   2.104  10.217
   97OSM    H6F 9679   1.959   2.155  10.249
   97OSM    H6G 9680   2.031   1.997  10.235
   97OSM    C7F 9681   2.084   2.114  10.065
   97OSM    H7F 9682   2.153   2.036  10.027
   97OSM    H7G 9683   2.133   2.211  10.045
   97OSM    C8F 9684   1.955   2.113   9.977
   97OSM    H8F 9685   1.887   2.193  10.012
   97OSM    H8G 9686   1.911   2.016  10.010
   97OSM    C9F 9687   1.987   2.133   9.830
   97OSM    H9F 9688   2.002   2.240   9.811
   97OSM   C10F 9689   1.995   2.040   9.741
   97OSM   H10F 9690   2.032   2.080   9.646
   97OSM   C11F 9691   1.956   1.895   9.751
   97OSM   H11F 9692   1.858   1.876   9.800
   97OSM   H11G 9693   2.039   1.855   9.813
   97OSM   C12F 9694   1.957   1.801   9.626
   97OSM   H12F 9695   1.938   1.693   9.642
   97OSM   H12G 9696   2.062   1.803   9.589
   97OSM   C13F 9697   1.870   1.860   9.508
   97OSM   H13F 9698   1.877   1.968   9.484
   97OSM   H13G 9699   1.764   1.847   9.539
   97OSM   C14F 9700   1.904   1.780   9.385
   97OSM   H14F 9701   1.869   1.678   9.413
   97OSM   H14G 9702   2.013   1.771   9.364
   97OSM   C15F 9703   1.826   1.831   9.261
   97OSM   H15F 9704   1.843   1.759   9.178
   97OSM   H15G 9705   1.864   1.932   9.234
   97OSM   C16F 9706   1.672   1.856   9.275
   97OSM   H16F 9707   1.658   1.929   9.357
   97OSM   H16G 9708   1.609   1.768   9.300
   97OSM   C17F 9709   1.603   1.931   9.149
   97OSM   H17F 9710   1.652   2.030   9.135
   97OSM   H17G 9711   1.497   1.931   9.182
   97OSM   C18F 9712   1.623   1.847   9.025
   97OSM   H18F 9713   1.563   1.886   8.940
   97OSM   H18G 9714   1.587   1.745   9.048
   97OSM   H18H 9715   1.732   1.850   9.004
   98OSM      N 9716   1.754   1.833  11.208
   98OSM    C15 9717   1.692   1.963  11.178
   98OSM   H15A 9718   1.761   2.040  11.147
   98OSM   H15B 9719   1.643   2.001  11.266
   98OSM   H15C 9720   1.607   1.949  11.112
   98OSM    C14 9721   1.841   1.869  11.324
   98OSM   H14A 9722   1.903   1.954  11.300
   98OSM   H14B 9723   1.901   1.784  11.354
   98OSM   H14C 9724   1.790   1.900  11.414
   98OSM    C13 9725   1.647   1.735  11.248
   98OSM   H13A 9726   1.588   1.779  11.327
   98OSM   H13B 9727   1.683   1.644  11.292
   98OSM   H13C 9728   1.583   1.715  11.163
   98OSM    C12 9729   1.840   1.779  11.097
   98OSM   H12A 9730   1.865   1.677  11.122
   98OSM   H12B 9731   1.934   1.830  11.088
   98OSM    C11 9732   1.785   1.775  10.953
   98OSM   H11A 9733   1.867   1.742  10.885
   98OSM   H11B 9734   1.757   1.877  10.921
   98OSM      P 9735   1.659   1.550  10.896
   98OSM    O13 9736   1.727   1.450  10.982
   98OSM    O14 9737   1.519   1.520  10.866
   98OSM    O11 9738   1.739   1.552  10.754
   98OSM    O12 9739   1.668   1.693  10.946
   98OSM    C1S 9740   1.693   1.622  10.644
   98OSM    H1S 9741   1.751   1.717  10.632
   98OSM    H1T 9742   1.589   1.661  10.641
   98OSM     NF 9743   1.700   1.617  10.394
   98OSM    HNF 9744   1.612   1.644  10.358
   98OSM    C2S 9745   1.712   1.536  10.513
   98OSM    H2S 9746   1.815   1.500  10.531
   98OSM    C3S 9747   1.624   1.403  10.514
   98OSM    H3S 9748   1.521   1.440  10.495
   98OSM     O3 9749   1.629   1.332  10.632
   98OSM    HO3 9750   1.668   1.396  10.692
   98OSM    C4S 9751   1.647   1.308  10.396
   98OSM    H4S 9752   1.609   1.355  10.304
   98OSM    C5S 9753   1.713   1.187  10.398
   98OSM    H5S 9754   1.765   1.153  10.489
   98OSM    C6S 9755   1.743   1.102  10.282
   98OSM    H6S 9756   1.707   1.006  10.325
   98OSM    H6T 9757   1.851   1.084  10.266
   98OSM    C7S 9758   1.676   1.139  10.150
   98OSM    H7S 9759   1.731   1.223  10.101
   98OSM    H7T 9760   1.568   1.163  10.166
   98OSM    C8S 9761   1.687   1.025  10.040
   98OSM    H8S 9762   1.645   0.933  10.086
   98OSM    H8T 9763   1.796   1.011  10.023
   98OSM    C9S 9764   1.614   1.055   9.903
   98OSM    H9S 9765   1.651   1.156   9.876
   98OSM    H9T 9766   1.505   1.051   9.922
   98OSM   C10S 9767   1.640   0.952   9.794
   98OSM   H10S 9768   1.557   0.878   9.796
   98OSM   H10T 9769   1.738   0.899   9.796
   98OSM   C11S 9770   1.623   1.015   9.651
   98OSM   H11S 9771   1.671   1.115   9.640
   98OSM   H11T 9772   1.516   1.036   9.631
   98OSM   C12S 9773   1.679   0.935   9.539
   98OSM   H12S 9774   1.627   0.839   9.522
   98OSM   H12T 9775   1.789   0.920   9.548
   98OSM   C13S 9776   1.674   1.009   9.400
   98OSM   H13S 9777   1.741   0.958   9.328
   98OSM   H13T 9778   1.710   1.113   9.413
   98OSM   C14S 9779   1.537   1.008   9.334
   98OSM   H14S 9780   1.479   1.077   9.399
   98OSM   H14T 9781   1.492   0.907   9.343
   98OSM   C15S 9782   1.546   1.064   9.189
   98OSM   H15S 9783   1.601   0.990   9.126
   98OSM   H15T 9784   1.600   1.161   9.196
   98OSM   C16S 9785   1.398   1.086   9.134
   98OSM   H16S 9786   1.344   1.160   9.197
   98OSM   H16T 9787   1.337   0.993   9.144
   98OSM   C17S 9788   1.403   1.134   8.990
   98OSM   H17S 9789   1.297   1.136   8.955
   98OSM   H17T 9790   1.452   1.053   8.931
   98OSM   C18S 9791   1.469   1.266   8.958
   98OSM   H18S 9792   1.578   1.250   8.942
   98OSM   H18T 9793   1.446   1.327   9.047
   98OSM   H18U 9794   1.421   1.310   8.868
   98OSM    C1F 9795   1.804   1.692  10.358
   98OSM     OF 9796   1.911   1.691  10.416
   98OSM    C2F 9797   1.768   1.796  10.260
   98OSM    H2F 9798   1.826   1.887  10.288
   98OSM    H2G 9799   1.659   1.817  10.260
   98OSM    C3F 9800   1.798   1.747  10.107
   98OSM    H3F 9801   1.893   1.690  10.115
   98OSM    H3G 9802   1.812   1.838  10.044
   98OSM    C4F 9803   1.676   1.671  10.055
   98OSM    H4F 9804   1.580   1.727  10.066
   98OSM    H4G 9805   1.679   1.571  10.104
   98OSM    C5F 9806   1.692   1.645   9.911
   98OSM    H5F 9807   1.791   1.604   9.881
   98OSM    H5G 9808   1.670   1.747   9.872
   98OSM    C6F 9809   1.582   1.551   9.861
   98OSM    H6F 9810   1.486   1.574   9.911
   98OSM    H6G 9811   1.599   1.442   9.880
   98OSM    C7F 9812   1.553   1.570   9.711
   98OSM    H7F 9813   1.646   1.569   9.650
   98OSM    H7G 9814   1.510   1.672   9.703
   98OSM    C8F 9815   1.466   1.454   9.661
   98OSM    H8F 9816   1.376   1.464   9.725
   98OSM    H8G 9817   1.516   1.355   9.673
   98OSM    C9F 9818   1.426   1.478   9.511
   98OSM    H9F 9819   1.324   1.517   9.497
   98OSM   C10F 9820   1.506   1.469   9.400
   98OSM   H10F 9821   1.464   1.502   9.304
   98OSM   C11F 9822   1.651   1.429   9.378
   98OSM   H11F 9823   1.666   1.321   9.398
   98OSM   H11G 9824   1.720   1.486   9.443
   98OSM   C12F 9825   1.690   1.459   9.229
   98OSM   H12F 9826   1.701   1.569   9.217
   98OSM   H12G 9827   1.614   1.422   9.156
   98OSM   C13F 9828   1.814   1.390   9.174
   98OSM   H13F 9829   1.789   1.286   9.143
   98OSM   H13G 9830   1.889   1.380   9.256
   98OSM   C14F 9831   1.877   1.462   9.059
   98OSM   H14F 9832   1.985   1.434   9.051
   98OSM   H14G 9833   1.883   1.568   9.089
   98OSM   C15F 9834   1.796   1.458   8.929
   98OSM   H15F 9835   1.698   1.510   8.939
   98OSM   H15G 9836   1.780   1.351   8.906
   98OSM   C16F 9837   1.867   1.522   8.800
   98OSM   H16F 9838   1.811   1.512   8.705
   98OSM   H16G 9839   1.951   1.450   8.792
   98OSM   C17F 9840   1.911   1.673   8.797
   98OSM   H17F 9841   1.973   1.695   8.887
   98OSM   H17G 9842   1.821   1.737   8.783
   98OSM   C18F 9843   2.001   1.679   8.676
   98OSM   H18F 9844   2.102   1.638   8.700
   98OSM   H18G 9845   2.012   1.785   8.643
   98OSM   H18H 9846   1.972   1.620   8.587
   99OSM      N 9847   3.902   1.657  11.010
   99OSM    C15 9848   3.844   1.769  11.093
   99OSM   H15A 9849   3.763   1.737  11.158
   99OSM   H15B 9850   3.799   1.844  11.030
   99OSM   H15C 9851   3.924   1.822  11.142
   99OSM    C14 9852   3.982   1.581  11.116
   99OSM   H14A 9853   3.914   1.521  11.175
   99OSM   H14B 9854   4.050   1.642  11.174
   99OSM   H14C 9855   4.040   1.506  11.064
   99OSM    C13 9856   3.798   1.567  10.950
   99OSM   H13A 9857   3.723   1.620  10.893
   99OSM   H13B 9858   3.751   1.507  11.026
   99OSM   H13C 9859   3.842   1.495  10.882
   99OSM    C12 9860   3.999   1.702  10.897
   99OSM   H12A 9861   3.939   1.759  10.829
   99OSM   H12B 9862   4.021   1.612  10.842
   99OSM    C11 9863   4.122   1.786  10.930
   99OSM   H11A 9864   4.190   1.793  10.842
   99OSM   H11B 9865   4.182   1.733  11.007
   99OSM      P 9866   4.026   2.030  10.913
   99OSM    O13 9867   3.887   2.051  10.959
   99OSM    O14 9868   4.115   2.151  10.924
   99OSM    O11 9869   4.015   1.982  10.762
   99OSM    O12 9870   4.091   1.910  10.985
   99OSM    C1S 9871   3.962   2.080  10.671
   99OSM    H1S 9872   4.019   2.174  10.682
   99OSM    H1T 9873   3.858   2.104  10.701
   99OSM     NF 9874   3.930   2.152  10.442
   99OSM    HNF 9875   3.834   2.173  10.427
   99OSM    C2S 9876   3.967   2.037  10.527
   99OSM    H2S 9877   4.073   2.018  10.502
   99OSM    C3S 9878   3.889   1.912  10.507
   99OSM    H3S 9879   3.788   1.931  10.549
   99OSM     O3 9880   3.942   1.800  10.574
   99OSM    HO3 9881   3.990   1.841  10.646
   99OSM    C4S 9882   3.884   1.889  10.358
   99OSM    H4S 9883   3.983   1.887  10.310
   99OSM    C5S 9884   3.766   1.888  10.298
   99OSM    H5S 9885   3.675   1.895  10.361
   99OSM    C6S 9886   3.742   1.865  10.152
   99OSM    H6S 9887   3.676   1.949  10.121
   99OSM    H6T 9888   3.683   1.775  10.127
   99OSM    C7S 9889   3.875   1.878  10.066
   99OSM    H7S 9890   3.942   1.795  10.097
   99OSM    H7T 9891   3.935   1.969  10.083
   99OSM    C8S 9892   3.838   1.864   9.921
   99OSM    H8S 9893   3.801   1.963   9.887
   99OSM    H8T 9894   3.753   1.793   9.915
   99OSM    C9S 9895   3.948   1.829   9.822
   99OSM    H9S 9896   3.968   1.723   9.852
   99OSM    H9T 9897   4.037   1.890   9.847
   99OSM   C10S 9898   3.911   1.814   9.675
   99OSM   H10S 9899   3.801   1.822   9.663
   99OSM   H10T 9900   3.933   1.711   9.640
   99OSM   C11S 9901   3.999   1.916   9.592
   99OSM   H11S 9902   4.108   1.902   9.608
   99OSM   H11T 9903   3.966   2.010   9.641
   99OSM   C12S 9904   3.969   1.915   9.450
   99OSM   H12S 9905   3.998   1.815   9.410
   99OSM   H12T 9906   3.861   1.936   9.438
   99OSM   C13S 9907   4.047   2.023   9.370
   99OSM   H13S 9908   4.152   1.987   9.367
   99OSM   H13T 9909   4.051   2.109   9.440
   99OSM   C14S 9910   3.998   2.059   9.227
   99OSM   H14S 9911   4.055   2.144   9.183
   99OSM   H14T 9912   3.894   2.094   9.239
   99OSM   C15S 9913   4.020   1.934   9.142
   99OSM   H15S 9914   3.955   1.856   9.189
   99OSM   H15T 9915   4.124   1.896   9.153
   99OSM   C16S 9916   3.986   1.948   8.994
   99OSM   H16S 9917   4.040   2.035   8.953
   99OSM   H16T 9918   3.881   1.981   8.981
   99OSM   C17S 9919   4.031   1.829   8.898
   99OSM   H17S 9920   3.980   1.735   8.926
   99OSM   H17T 9921   4.137   1.806   8.924
   99OSM   C18S 9922   4.013   1.854   8.752
   99OSM   H18S 9923   4.045   1.762   8.699
   99OSM   H18T 9924   4.054   1.949   8.711
   99OSM   H18U 9925   3.906   1.855   8.723
   99OSM    C1F 9926   4.022   2.250  10.434
   99OSM     OF 9927   4.139   2.229  10.469
   99OSM    C2F 9928   3.976   2.384  10.387
   99OSM    H2F 9929   4.033   2.464  10.440
   99OSM    H2G 9930   3.869   2.397  10.415
   99OSM    C3F 9931   3.996   2.402  10.234
   99OSM    H3F 9932   3.937   2.492  10.208
   99OSM    H3G 9933   4.104   2.416  10.215
   99OSM    C4F 9934   3.941   2.288  10.142
   99OSM    H4F 9935   3.976   2.190  10.179
   99OSM    H4G 9936   3.988   2.288  10.041
   99OSM    C5F 9937   3.789   2.288  10.130
   99OSM    H5F 9938   3.752   2.338  10.222
   99OSM    H5G 9939   3.744   2.187  10.122
   99OSM    C6F 9940   3.758   2.374  10.010
   99OSM    H6F 9941   3.801   2.333   9.916
   99OSM    H6G 9942   3.805   2.474  10.014
   99OSM    C7F 9943   3.607   2.386   9.992
   99OSM    H7F 9944   3.571   2.423  10.090
   99OSM    H7G 9945   3.557   2.287   9.980
   99OSM    C8F 9946   3.566   2.468   9.876
   99OSM    H8F 9947   3.456   2.462   9.867
   99OSM    H8G 9948   3.610   2.420   9.786
   99OSM    C9F 9949   3.594   2.619   9.889
   99OSM    H9F 9950   3.546   2.668   9.974
   99OSM   C10F 9951   3.688   2.692   9.820
   99OSM   H10F 9952   3.702   2.800   9.841
   99OSM   C11F 9953   3.761   2.637   9.706
   99OSM   H11F 9954   3.725   2.550   9.647
   99OSM   H11G 9955   3.864   2.613   9.740
   99OSM   C12F 9956   3.772   2.749   9.595
   99OSM   H12F 9957   3.818   2.839   9.642
   99OSM   H12G 9958   3.669   2.767   9.559
   99OSM   C13F 9959   3.863   2.728   9.466
   99OSM   H13F 9960   3.826   2.801   9.392
   99OSM   H13G 9961   3.826   2.632   9.425
   99OSM   C14F 9962   4.017   2.743   9.493
   99OSM   H14F 9963   4.064   2.648   9.526
   99OSM   H14G 9964   4.033   2.819   9.573
   99OSM   C15F 9965   4.078   2.796   9.364
   99OSM   H15F 9966   4.164   2.866   9.381
   99OSM   H15G 9967   4.004   2.838   9.294
   99OSM   C16F 9968   4.145   2.682   9.283
   99OSM   H16F 9969   4.073   2.602   9.253
   99OSM   H16G 9970   4.222   2.632   9.346
   99OSM   C17F 9971   4.207   2.724   9.146
   99OSM   H17F 9972   4.127   2.775   9.089
   99OSM   H17G 9973   4.233   2.633   9.087
   99OSM   C18F 9974   4.322   2.819   9.161
   99OSM   H18F 9975   4.401   2.774   9.225
   99OSM   H18G 9976   4.277   2.915   9.192
   99OSM   H18H 9977   4.360   2.836   9.058
  100OSM      N 9978   5.853   2.324  11.256
  100OSM    C15 9979   5.763   2.202  11.273
  100OSM   H15A 9980   5.675   2.217  11.333
  100OSM   H15B 9981   5.810   2.113  11.310
  100OSM   H15C 9982   5.714   2.192  11.177
  100OSM    C14 9983   5.772   2.452  11.237
  100OSM   H14A 9984   5.752   2.457  11.131
  100OSM   H14B 9985   5.834   2.538  11.258
  100OSM   H14C 9986   5.681   2.462  11.295
  100OSM    C13 9987   5.930   2.333  11.383
  100OSM   H13A 9988   5.865   2.370  11.462
  100OSM   H13B 9989   6.008   2.406  11.366
  100OSM   H13C 9990   5.965   2.236  11.414
  100OSM    C12 9991   5.943   2.307  11.132
  100OSM   H12A 9992   6.013   2.227  11.149
  100OSM   H12B 9993   6.001   2.398  11.124
  100OSM    C11 9994   5.876   2.282  10.999
  100OSM   H11A 9995   5.821   2.187  11.013
  100OSM   H11B 9996   5.948   2.253  10.919
  100OSM      P 9997   5.787   2.439  10.814
  100OSM    O13 9998   5.707   2.342  10.742
  100OSM    O14 9999   5.728   2.578  10.827
  100OSM    O1110000   5.939   2.446  10.768
  100OSM    O1210001   5.789   2.383  10.964
  100OSM    C1S10002   5.977   2.363  10.651
  100OSM    H1S10003   5.930   2.262  10.652
  100OSM    H1T10004   6.087   2.344  10.657
  100OSM     NF10005   5.941   2.340  10.396
  100OSM    HNF10006   6.029   2.307  10.363
  100OSM    C2S10007   5.943   2.427  10.515
  100OSM    H2S10008   5.840   2.467  10.525
  100OSM    C3S10009   6.027   2.558  10.507
  100OSM    H3S10010   6.136   2.541  10.517
  100OSM     O310011   5.998   2.654  10.611
  100OSM    HO310012   5.945   2.610  10.678
  100OSM    C4S10013   6.015   2.626  10.369
  100OSM    H4S10014   6.088   2.591  10.295
  100OSM    C5S10015   5.933   2.721  10.329
  100OSM    H5S10016   5.861   2.765  10.400
  100OSM    C6S10017   5.925   2.785  10.191
  100OSM    H6S10018   5.935   2.893  10.212
  100OSM    H6T10019   5.830   2.774  10.134
  100OSM    C7S10020   6.044   2.751  10.091
  100OSM    H7S10021   6.030   2.650  10.048
  100OSM    H7T10022   6.138   2.767  10.148
  100OSM    C8S10023   6.055   2.851   9.981
  100OSM    H8S10024   6.151   2.836   9.927
  100OSM    H8T10025   6.072   2.940  10.044
  100OSM    C9S10026   5.952   2.862   9.874
  100OSM    H9S10027   5.867   2.927   9.903
  100OSM    H9T10028   5.907   2.764   9.848
  100OSM   C10S10029   6.002   2.926   9.741
  100OSM   H10S10030   6.072   2.853   9.694
  100OSM   H10T10031   6.054   3.024   9.742
  100OSM   C11S10032   5.890   2.940   9.644
  100OSM   H11S10033   5.811   3.004   9.687
  100OSM   H11T10034   5.858   2.838   9.613
  100OSM   C12S10035   5.929   3.026   9.519
  100OSM   H12S10036   5.966   3.124   9.555
  100OSM   H12T10037   5.828   3.045   9.476
  100OSM   C13S10038   6.028   2.970   9.416
  100OSM   H13S10039   6.096   2.900   9.469
  100OSM   H13T10040   6.085   3.056   9.374
  100OSM   C14S10041   5.960   2.889   9.301
  100OSM   H14S10042   6.051   2.847   9.253
  100OSM   H14T10043   5.913   2.957   9.227
  100OSM   C15S10044   5.860   2.776   9.331
  100OSM   H15S10045   5.768   2.818   9.378
  100OSM   H15T10046   5.916   2.708   9.399
  100OSM   C16S10047   5.832   2.683   9.207
  100OSM   H16S10048   5.759   2.602   9.229
  100OSM   H16T10049   5.920   2.631   9.165
  100OSM   C17S10050   5.771   2.771   9.093
  100OSM   H17S10051   5.838   2.852   9.059
  100OSM   H17T10052   5.689   2.818   9.151
  100OSM   C18S10053   5.714   2.691   8.977
  100OSM   H18S10054   5.660   2.595   8.997
  100OSM   H18T10055   5.792   2.662   8.903
  100OSM   H18U10056   5.649   2.761   8.921
  100OSM    C1F10057   5.837   2.260  10.382
  100OSM     OF10058   5.740   2.269  10.453
  100OSM    C2F10059   5.849   2.148  10.282
  100OSM    H2F10060   5.754   2.091  10.271
  100OSM    H2G10061   5.921   2.076  10.327
  100OSM    C3F10062   5.897   2.213  10.149
  100OSM    H3F10063   5.927   2.133  10.079
  100OSM    H3G10064   5.992   2.269  10.162
  100OSM    C4F10065   5.809   2.313  10.080
  100OSM    H4F10066   5.803   2.404  10.143
  100OSM    H4G10067   5.708   2.269  10.063
  100OSM    C5F10068   5.877   2.347   9.947
  100OSM    H5F10069   5.888   2.257   9.883
  100OSM    H5G10070   5.979   2.384   9.973
  100OSM    C6F10071   5.815   2.476   9.877
  100OSM    H6F10072   5.874   2.474   9.783
  100OSM    H6G10073   5.835   2.562   9.945
  100OSM    C7F10074   5.657   2.475   9.851
  100OSM    H7F10075   5.603   2.478   9.948
  100OSM    H7G10076   5.631   2.375   9.813
  100OSM    C8F10077   5.607   2.579   9.749
  100OSM    H8F10078   5.614   2.683   9.790
  100OSM    H8G10079   5.500   2.550   9.758
  100OSM    C9F10080   5.664   2.575   9.607
  100OSM    H9F10081   5.757   2.628   9.582
  100OSM   C10F10082   5.615   2.513   9.498
  100OSM   H10F10083   5.669   2.518   9.402
  100OSM   C11F10084   5.494   2.424   9.503
  100OSM   H11F10085   5.459   2.403   9.606
  100OSM   H11G10086   5.523   2.326   9.460
  100OSM   C12F10087   5.370   2.480   9.431
  100OSM   H12F10088   5.329   2.572   9.478
  100OSM   H12G10089   5.286   2.409   9.443
  100OSM   C13F10090   5.388   2.492   9.279
  100OSM   H13F10091   5.418   2.393   9.237
  100OSM   H13G10092   5.473   2.563   9.270
  100OSM   C14F10093   5.262   2.539   9.206
  100OSM   H14F10094   5.220   2.633   9.250
  100OSM   H14G10095   5.185   2.462   9.225
  100OSM   C15F10096   5.291   2.563   9.062
  100OSM   H15F10097   5.335   2.471   9.016
  100OSM   H15G10098   5.363   2.644   9.038
  100OSM   C16F10099   5.164   2.581   8.976
  100OSM   H16F10100   5.124   2.683   8.995
  100OSM   H16G10101   5.089   2.508   9.011
  100OSM   C17F10102   5.182   2.563   8.825
  100OSM   H17F10103   5.097   2.497   8.798
  100OSM   H17G10104   5.273   2.506   8.800
  100OSM   C18F10105   5.165   2.703   8.769
  100OSM   H18F10106   5.073   2.755   8.804
  100OSM   H18G10107   5.172   2.700   8.658
  100OSM   H18H10108   5.250   2.769   8.796
  101OSM      N10109   1.829   2.503  11.299
  101OSM    C1510110   1.789   2.393  11.390
  101OSM   H15A10111   1.872   2.324  11.394
  101OSM   H15B10112   1.709   2.331  11.352
  101OSM   H15C10113   1.771   2.434  11.489
  101OSM    C1410114   1.709   2.572  11.255
  101OSM   H14A10115   1.734   2.644  11.178
  101OSM   H14B10116   1.665   2.626  11.338
  101OSM   H14C10117   1.637   2.505  11.211
  101OSM    C1310118   1.919   2.591  11.375
  101OSM   H13A10119   1.979   2.658  11.314
  101OSM   H13B10120   1.998   2.531  11.418
  101OSM   H13C10121   1.873   2.643  11.457
  101OSM    C1210122   1.910   2.438  11.186
  101OSM   H12A10123   1.842   2.366  11.142
  101OSM   H12B10124   1.994   2.390  11.234
  101OSM    C1110125   1.961   2.529  11.073
  101OSM   H11A10126   2.020   2.465  11.004
  101OSM   H11B10127   2.028   2.601  11.125
  101OSM      P10128   1.787   2.512  10.898
  101OSM    O1310129   1.779   2.371  10.946
  101OSM    O1410130   1.658   2.575  10.866
  101OSM    O1110131   1.882   2.511  10.775
  101OSM    O1210132   1.857   2.600  11.007
  101OSM    C1S10133   1.943   2.625  10.726
  101OSM    H1S10134   2.023   2.657  10.796
  101OSM    H1T10135   1.873   2.712  10.724
  101OSM     NF10136   2.043   2.744  10.549
  101OSM    HNF10137   1.996   2.822  10.510
  101OSM    C2S10138   1.989   2.616  10.582
  101OSM    H2S10139   2.071   2.541  10.572
  101OSM    C3S10140   1.881   2.575  10.479
  101OSM    H3S10141   1.806   2.658  10.477
  101OSM     O310142   1.798   2.462  10.517
  101OSM    HO310143   1.832   2.447  10.605
  101OSM    C4S10144   1.933   2.571  10.341
  101OSM    H4S10145   1.921   2.671  10.296
  101OSM    C5S10146   1.971   2.469  10.265
  101OSM    H5S10147   1.972   2.365  10.304
  101OSM    C6S10148   2.002   2.477  10.120
  101OSM    H6S10149   1.907   2.465  10.064
  101OSM    H6T10150   2.069   2.392  10.095
  101OSM    C7S10151   2.083   2.599  10.087
  101OSM    H7S10152   2.154   2.626  10.169
  101OSM    H7T10153   2.009   2.682  10.076
  101OSM    C8S10154   2.163   2.592   9.954
  101OSM    H8S10155   2.209   2.491   9.945
  101OSM    H8T10156   2.228   2.682   9.953
  101OSM    C9S10157   2.068   2.602   9.829
  101OSM    H9S10158   2.013   2.698   9.829
  101OSM    H9T10159   1.991   2.522   9.834
  101OSM   C10S10160   2.147   2.602   9.695
  101OSM   H10S10161   2.243   2.656   9.709
  101OSM   H10T10162   2.093   2.672   9.628
  101OSM   C11S10163   2.162   2.450   9.655
  101OSM   H11S10164   2.069   2.392   9.668
  101OSM   H11T10165   2.238   2.409   9.725
  101OSM   C12S10166   2.207   2.425   9.513
  101OSM   H12S10167   2.317   2.444   9.505
  101OSM   H12T10168   2.159   2.506   9.454
  101OSM   C13S10169   2.176   2.291   9.451
  101OSM   H13S10170   2.084   2.249   9.497
  101OSM   H13T10171   2.256   2.215   9.467
  101OSM   C14S10172   2.156   2.296   9.299
  101OSM   H14S10173   2.252   2.320   9.250
  101OSM   H14T10174   2.089   2.380   9.271
  101OSM   C15S10175   2.098   2.161   9.245
  101OSM   H15S10176   1.997   2.133   9.282
  101OSM   H15T10177   2.180   2.093   9.277
  101OSM   C16S10178   2.093   2.162   9.089
  101OSM   H16S10179   2.195   2.180   9.048
  101OSM   H16T10180   2.032   2.247   9.051
  101OSM   C17S10181   2.059   2.027   9.024
  101OSM   H17S10182   1.948   2.024   9.022
  101OSM   H17T10183   2.094   1.960   9.106
  101OSM   C18S10184   2.123   1.999   8.886
  101OSM   H18S10185   2.071   2.053   8.804
  101OSM   H18T10186   2.110   1.892   8.858
  101OSM   H18U10187   2.233   2.013   8.891
  101OSM    C1F10188   2.163   2.784  10.594
  101OSM     OF10189   2.229   2.703  10.663
  101OSM    C2F10190   2.224   2.925  10.571
  101OSM    H2F10191   2.227   2.974  10.671
  101OSM    H2G10192   2.151   2.995  10.526
  101OSM    C3F10193   2.357   2.922  10.499
  101OSM    H3F10194   2.419   2.848  10.555
  101OSM    H3G10195   2.420   3.012  10.517
  101OSM    C4F10196   2.359   2.879  10.356
  101OSM    H4F10197   2.312   2.959  10.295
  101OSM    H4G10198   2.300   2.785  10.345
  101OSM    C5F10199   2.499   2.870  10.298
  101OSM    H5F10200   2.566   2.806  10.360
  101OSM    H5G10201   2.546   2.970  10.291
  101OSM    C6F10202   2.491   2.822  10.155
  101OSM    H6F10203   2.412   2.749  10.127
  101OSM    H6G10204   2.467   2.907  10.088
  101OSM    C7F10205   2.622   2.753  10.120
  101OSM    H7F10206   2.625   2.655  10.173
  101OSM    H7G10207   2.716   2.799  10.156
  101OSM    C8F10208   2.641   2.751   9.964
  101OSM    H8F10209   2.743   2.720   9.936
  101OSM    H8G10210   2.620   2.856   9.934
  101OSM    C9F10211   2.539   2.668   9.886
  101OSM    H9F10212   2.438   2.665   9.928
  101OSM   C10F10213   2.561   2.595   9.774
  101OSM   H10F10214   2.478   2.532   9.738
  101OSM   C11F10215   2.690   2.580   9.694
  101OSM   H11F10216   2.695   2.479   9.648
  101OSM   H11G10217   2.783   2.585   9.756
  101OSM   C12F10218   2.699   2.682   9.572
  101OSM   H12F10219   2.795   2.660   9.521
  101OSM   H12G10220   2.710   2.787   9.606
  101OSM   C13F10221   2.593   2.675   9.464
  101OSM   H13F10222   2.531   2.767   9.470
  101OSM   H13G10223   2.520   2.593   9.485
  101OSM   C14F10224   2.643   2.641   9.322
  101OSM   H14F10225   2.671   2.534   9.308
  101OSM   H14G10226   2.740   2.696   9.315
  101OSM   C15F10227   2.557   2.700   9.215
  101OSM   H15F10228   2.611   2.703   9.118
  101OSM   H15G10229   2.526   2.804   9.239
  101OSM   C16F10230   2.425   2.622   9.191
  101OSM   H16F10231   2.370   2.618   9.287
  101OSM   H16G10232   2.454   2.518   9.165
  101OSM   C17F10233   2.339   2.699   9.090
  101OSM   H17F10234   2.397   2.717   8.998
  101OSM   H17G10235   2.319   2.799   9.133
  101OSM   C18F10236   2.211   2.626   9.053
  101OSM   H18F10237   2.240   2.523   9.022
  101OSM   H18G10238   2.163   2.679   8.968
  101OSM   H18H10239   2.144   2.626   9.142
  102OSM      N10240   3.540   4.610  10.702
  102OSM    C1510241   3.437   4.506  10.684
  102OSM   H15A10242   3.481   4.409  10.667
  102OSM   H15B10243   3.360   4.524  10.611
  102OSM   H15C10244   3.377   4.503  10.774
  102OSM    C1410245   3.473   4.742  10.728
  102OSM   H14A10246   3.386   4.719  10.788
  102OSM   H14B10247   3.439   4.787  10.636
  102OSM   H14C10248   3.537   4.813  10.778
  102OSM    C1310249   3.623   4.580  10.827
  102OSM   H13A10250   3.670   4.484  10.813
  102OSM   H13B10251   3.573   4.572  10.922
  102OSM   H13C10252   3.697   4.657  10.844
  102OSM    C1210253   3.625   4.612  10.579
  102OSM   H12A10254   3.702   4.687  10.575
  102OSM   H12B10255   3.555   4.645  10.503
  102OSM    C1110256   3.698   4.485  10.525
  102OSM   H11A10257   3.747   4.501  10.427
  102OSM   H11B10258   3.623   4.404  10.511
  102OSM      P10259   3.929   4.527  10.636
  102OSM    O1310260   3.904   4.603  10.763
  102OSM    O1410261   4.051   4.446  10.626
  102OSM    O1110262   3.933   4.630  10.514
  102OSM    O1210263   3.805   4.440  10.603
  102OSM    C1S10264   4.048   4.710  10.492
  102OSM    H1S10265   4.141   4.660  10.528
  102OSM    H1T10266   4.040   4.813  10.534
  102OSM     NF10267   4.205   4.787  10.315
  102OSM    HNF10268   4.218   4.885  10.303
  102OSM    C2S10269   4.070   4.733  10.332
  102OSM    H2S10270   4.074   4.632  10.284
  102OSM    C3S10271   3.951   4.812  10.267
  102OSM    H3S10272   3.958   4.909  10.322
  102OSM     O310273   3.832   4.744  10.287
  102OSM    HO310274   3.847   4.683  10.359
  102OSM    C4S10275   3.971   4.846  10.120
  102OSM    H4S10276   3.939   4.770  10.048
  102OSM    C5S10277   4.018   4.970  10.075
  102OSM    H5S10278   4.055   5.053  10.138
  102OSM    C6S10279   4.041   4.991   9.925
  102OSM    H6S10280   3.996   5.090   9.900
  102OSM    H6T10281   3.981   4.914   9.874
  102OSM    C7S10282   4.191   5.005   9.881
  102OSM    H7S10283   4.244   4.909   9.862
  102OSM    H7T10284   4.257   5.071   9.942
  102OSM    C8S10285   4.196   5.074   9.743
  102OSM    H8S10286   4.180   5.184   9.747
  102OSM    H8T10287   4.118   5.033   9.675
  102OSM    C9S10288   4.326   5.058   9.659
  102OSM    H9S10289   4.351   4.952   9.637
  102OSM    H9T10290   4.418   5.082   9.718
  102OSM   C10S10291   4.328   5.144   9.530
  102OSM   H10S10292   4.312   5.250   9.556
  102OSM   H10T10293   4.237   5.121   9.470
  102OSM   C11S10294   4.448   5.127   9.450
  102OSM   H11S10295   4.468   5.020   9.424
  102OSM   H11T10296   4.536   5.165   9.506
  102OSM   C12S10297   4.448   5.197   9.308
  102OSM   H12S10298   4.448   5.307   9.319
  102OSM   H12T10299   4.349   5.175   9.263
  102OSM   C13S10300   4.547   5.140   9.210
  102OSM   H13S10301   4.525   5.032   9.197
  102OSM   H13T10302   4.651   5.143   9.248
  102OSM   C14S10303   4.536   5.203   9.069
  102OSM   H14S10304   4.626   5.269   9.076
  102OSM   H14T10305   4.448   5.270   9.079
  102OSM   C15S10306   4.544   5.102   8.953
  102OSM   H15S10307   4.457   5.033   8.959
  102OSM   H15T10308   4.634   5.038   8.970
  102OSM   C16S10309   4.552   5.192   8.828
  102OSM   H16S10310   4.575   5.115   8.751
  102OSM   H16T10311   4.616   5.282   8.828
  102OSM   C17S10312   4.411   5.235   8.802
  102OSM   H17S10313   4.384   5.311   8.878
  102OSM   H17T10314   4.343   5.148   8.790
  102OSM   C18S10315   4.399   5.306   8.664
  102OSM   H18S10316   4.298   5.322   8.622
  102OSM   H18T10317   4.453   5.233   8.599
  102OSM   H18U10318   4.451   5.404   8.668
  102OSM    C1F10319   4.313   4.717  10.344
  102OSM     OF10320   4.304   4.599  10.373
  102OSM    C2F10321   4.444   4.786  10.322
  102OSM    H2F10322   4.503   4.776  10.416
  102OSM    H2G10323   4.420   4.893  10.305
  102OSM    C3F10324   4.541   4.745  10.203
  102OSM    H3F10325   4.558   4.637  10.225
  102OSM    H3G10326   4.645   4.782  10.216
  102OSM    C4F10327   4.486   4.783  10.065
  102OSM    H4F10328   4.486   4.894  10.060
  102OSM    H4G10329   4.380   4.752  10.057
  102OSM    C5F10330   4.563   4.726   9.951
  102OSM    H5F10331   4.573   4.615   9.960
  102OSM    H5G10332   4.667   4.759   9.967
  102OSM    C6F10333   4.524   4.774   9.807
  102OSM    H6F10334   4.501   4.882   9.820
  102OSM    H6G10335   4.424   4.730   9.787
  102OSM    C7F10336   4.612   4.735   9.690
  102OSM    H7F10337   4.625   4.626   9.675
  102OSM    H7G10338   4.718   4.764   9.707
  102OSM    C8F10339   4.580   4.792   9.547
  102OSM    H8F10340   4.680   4.790   9.500
  102OSM    H8G10341   4.546   4.898   9.551
  102OSM    C9F10342   4.476   4.729   9.470
  102OSM    H9F10343   4.379   4.757   9.514
  102OSM   C10F10344   4.480   4.650   9.358
  102OSM   H10F10345   4.390   4.628   9.298
  102OSM   C11F10346   4.608   4.610   9.296
  102OSM   H11F10347   4.620   4.499   9.287
  102OSM   H11G10348   4.702   4.641   9.346
  102OSM   C12F10349   4.608   4.676   9.154
  102OSM   H12F10350   4.611   4.787   9.164
  102OSM   H12G10351   4.521   4.642   9.095
  102OSM   C13F10352   4.731   4.628   9.074
  102OSM   H13F10353   4.732   4.517   9.087
  102OSM   H13G10354   4.830   4.669   9.102
  102OSM   C14F10355   4.710   4.658   8.921
  102OSM   H14F10356   4.683   4.765   8.910
  102OSM   H14G10357   4.610   4.617   8.898
  102OSM   C15F10358   4.814   4.593   8.822
  102OSM   H15F10359   4.771   4.595   8.719
  102OSM   H15G10360   4.818   4.484   8.843
  102OSM   C16F10361   4.954   4.649   8.838
  102OSM   H16F10362   5.009   4.628   8.744
  102OSM   H16G10363   5.010   4.600   8.921
  102OSM   C17F10364   4.955   4.807   8.848
  102OSM   H17F10365   5.063   4.834   8.860
  102OSM   H17G10366   4.882   4.847   8.921
  102OSM   C18F10367   4.907   4.876   8.713
  102OSM   H18F10368   4.808   4.840   8.677
  102OSM   H18G10369   4.997   4.885   8.650
  102OSM   H18H10370   4.889   4.984   8.736
  103OSM      N10371   3.852   1.018  10.812
  103OSM    C1510372   3.892   1.132  10.905
  103OSM   H15A10373   3.998   1.142  10.886
  103OSM   H15B10374   3.869   1.110  11.008
  103OSM   H15C10375   3.839   1.224  10.888
  103OSM    C1410376   3.911   1.040  10.676
  103OSM   H14A10377   3.873   0.967  10.607
  103OSM   H14B10378   4.018   1.027  10.680
  103OSM   H14C10379   3.895   1.139  10.634
  103OSM    C1310380   3.907   0.889  10.867
  103OSM   H13A10381   4.014   0.885  10.862
  103OSM   H13B10382   3.868   0.803  10.814
  103OSM   H13C10383   3.881   0.882  10.971
  103OSM    C1210384   3.701   1.008  10.798
  103OSM   H12A10385   3.665   1.011  10.899
  103OSM   H12B10386   3.682   0.907  10.766
  103OSM    C1110387   3.635   1.116  10.710
  103OSM   H11A10388   3.530   1.084  10.695
  103OSM   H11B10389   3.677   1.111  10.608
  103OSM      P10390   3.533   1.332  10.824
  103OSM    O1310391   3.507   1.296  10.962
  103OSM    O1410392   3.564   1.474  10.803
  103OSM    O1110393   3.402   1.285  10.738
  103OSM    O1210394   3.649   1.247  10.764
  103OSM    C1S10395   3.390   1.343  10.609
  103OSM    H1S10396   3.442   1.273  10.542
  103OSM    H1T10397   3.444   1.440  10.604
  103OSM     NF10398   3.254   1.489  10.472
  103OSM    HNF10399   3.284   1.582  10.490
  103OSM    C2S10400   3.243   1.385  10.578
  103OSM    H2S10401   3.185   1.299  10.538
  103OSM    C3S10402   3.160   1.420  10.709
  103OSM    H3S10403   3.212   1.504  10.760
  103OSM     O310404   3.149   1.319  10.814
  103OSM    HO310405   3.225   1.263  10.797
  103OSM    C4S10406   3.026   1.486  10.682
  103OSM    H4S10407   3.029   1.595  10.664
  103OSM    C5S10408   2.914   1.420  10.655
  103OSM    H5S10409   2.914   1.310  10.661
  103OSM    C6S10410   2.784   1.476  10.607
  103OSM    H6S10411   2.789   1.585  10.630
  103OSM    H6T10412   2.690   1.436  10.652
  103OSM    C7S10413   2.789   1.471  10.450
  103OSM    H7S10414   2.687   1.483  10.407
  103OSM    H7T10415   2.811   1.370  10.409
  103OSM    C8S10416   2.892   1.569  10.381
  103OSM    H8S10417   2.997   1.545  10.408
  103OSM    H8T10418   2.882   1.671  10.426
  103OSM    C9S10419   2.882   1.573  10.231
  103OSM    H9S10420   2.958   1.641  10.187
  103OSM    H9T10421   2.780   1.610  10.208
  103OSM   C10S10422   2.898   1.438  10.162
  103OSM   H10S10423   2.802   1.385  10.182
  103OSM   H10T10424   2.992   1.393  10.199
  103OSM   C11S10425   2.910   1.445  10.000
  103OSM   H11S10426   3.011   1.483   9.975
  103OSM   H11T10427   2.838   1.526   9.976
  103OSM   C12S10428   2.890   1.309   9.935
  103OSM   H12S10429   2.789   1.274   9.965
  103OSM   H12T10430   2.965   1.241   9.980
  103OSM   C13S10431   2.907   1.314   9.779
  103OSM   H13S10432   2.894   1.208   9.746
  103OSM   H13T10433   3.012   1.327   9.747
  103OSM   C14S10434   2.823   1.405   9.697
  103OSM   H14S10435   2.847   1.506   9.736
  103OSM   H14T10436   2.718   1.375   9.720
  103OSM   C15S10437   2.835   1.388   9.542
  103OSM   H15S10438   2.746   1.429   9.491
  103OSM   H15T10439   2.841   1.282   9.510
  103OSM   C16S10440   2.967   1.461   9.496
  103OSM   H16S10441   3.052   1.424   9.558
  103OSM   H16T10442   2.956   1.567   9.527
  103OSM   C17S10443   2.980   1.441   9.347
  103OSM   H17S10444   2.891   1.476   9.290
  103OSM   H17T10445   3.001   1.333   9.331
  103OSM   C18S10446   3.092   1.521   9.290
  103OSM   H18S10447   3.193   1.499   9.331
  103OSM   H18T10448   3.075   1.630   9.307
  103OSM   H18U10449   3.085   1.508   9.180
  103OSM    C1F10450   3.252   1.449  10.346
  103OSM     OF10451   3.228   1.333  10.311
  103OSM    C2F10452   3.285   1.561  10.244
  103OSM    H2F10453   3.393   1.581  10.264
  103OSM    H2G10454   3.220   1.645  10.273
  103OSM    C3F10455   3.271   1.515  10.104
  103OSM    H3F10456   3.162   1.494  10.091
  103OSM    H3G10457   3.321   1.418  10.084
  103OSM    C4F10458   3.319   1.620  10.003
  103OSM    H4F10459   3.430   1.628  10.009
  103OSM    H4G10460   3.274   1.720  10.017
  103OSM    C5F10461   3.303   1.576   9.855
  103OSM    H5F10462   3.195   1.560   9.834
  103OSM    H5G10463   3.361   1.481   9.852
  103OSM    C6F10464   3.364   1.671   9.757
  103OSM    H6F10465   3.466   1.705   9.787
  103OSM    H6G10466   3.303   1.764   9.764
  103OSM    C7F10467   3.375   1.620   9.615
  103OSM    H7F10468   3.270   1.607   9.580
  103OSM    H7G10469   3.417   1.516   9.614
  103OSM    C8F10470   3.450   1.703   9.514
  103OSM    H8F10471   3.555   1.717   9.548
  103OSM    H8G10472   3.397   1.801   9.517
  103OSM    C9F10473   3.444   1.622   9.382
  103OSM    H9F10474   3.454   1.512   9.387
  103OSM   C10F10475   3.430   1.675   9.257
  103OSM   H10F10476   3.445   1.612   9.168
  103OSM   C11F10477   3.420   1.821   9.224
  103OSM   H11F10478   3.426   1.885   9.314
  103OSM   H11G10479   3.321   1.839   9.177
  103OSM   C12F10480   3.530   1.873   9.126
  103OSM   H12F10481   3.516   1.822   9.028
  103OSM   H12G10482   3.638   1.863   9.151
  103OSM   C13F10483   3.512   2.028   9.103
  103OSM   H13F10484   3.611   2.077   9.094
  103OSM   H13G10485   3.467   2.065   9.197
  103OSM   C14F10486   3.435   2.055   8.975
  103OSM   H14F10487   3.405   2.162   8.964
  103OSM   H14G10488   3.352   1.986   8.950
  103OSM   C15F10489   3.525   2.033   8.859
  103OSM   H15F10490   3.464   1.981   8.781
  103OSM   H15G10491   3.606   1.962   8.884
  103OSM   C16F10492   3.591   2.165   8.809
  103OSM   H16F10493   3.668   2.193   8.884
  103OSM   H16G10494   3.519   2.248   8.801
  103OSM   C17F10495   3.670   2.148   8.675
  103OSM   H17F10496   3.620   2.088   8.596
  103OSM   H17G10497   3.743   2.066   8.692
  103OSM   C18F10498   3.734   2.271   8.609
  103OSM   H18F10499   3.794   2.329   8.682
  103OSM   H18G10500   3.659   2.348   8.577
  103OSM   H18H10501   3.797   2.241   8.522
  104OSM      N10502   4.883   6.787  11.079
  104OSM    C1510503   4.989   6.721  11.163
  104OSM   H15A10504   4.938   6.668  11.242
  104OSM   H15B10505   5.055   6.792  11.209
  104OSM   H15C10506   5.051   6.645  11.116
  104OSM    C1410507   4.765   6.693  11.068
  104OSM   H14A10508   4.771   6.613  10.996
  104OSM   H14B10509   4.688   6.760  11.033
  104OSM   H14C10510   4.738   6.652  11.164
  104OSM    C1310511   4.842   6.917  11.137
  104OSM   H13A10512   4.929   6.967  11.176
  104OSM   H13B10513   4.770   6.910  11.217
  104OSM   H13C10514   4.805   6.992  11.069
  104OSM    C1210515   4.950   6.817  10.947
  104OSM   H12A10516   4.987   6.728  10.899
  104OSM   H12B10517   5.029   6.890  10.953
  104OSM    C1110518   4.854   6.878  10.838
  104OSM   H11A10519   4.758   6.821  10.841
  104OSM   H11B10520   4.889   6.860  10.734
  104OSM      P10521   4.939   7.124  10.832
  104OSM    O1310522   4.882   7.260  10.848
  104OSM    O1410523   5.053   7.090  10.918
  104OSM    O1110524   4.972   7.090  10.675
  104OSM    O1210525   4.818   7.016  10.858
  104OSM    C1S10526   4.875   7.100  10.575
  104OSM    H1S10527   4.796   7.168  10.612
  104OSM    H1T10528   4.852   6.996  10.543
  104OSM     NF10529   4.816   7.208  10.360
  104OSM    HNF10530   4.796   7.156  10.278
  104OSM    C2S10531   4.931   7.181  10.447
  104OSM    H2S10532   4.982   7.276  10.475
  104OSM    C3S10533   5.039   7.088  10.377
  104OSM    H3S10534   4.992   6.991  10.351
  104OSM     O310535   5.139   7.046  10.470
  104OSM    HO310536   5.096   7.060  10.555
  104OSM    C4S10537   5.092   7.148  10.258
  104OSM    H4S10538   5.100   7.258  10.256
  104OSM    C5S10539   5.109   7.076  10.143
  104OSM    H5S10540   5.090   6.968  10.149
  104OSM    C6S10541   5.153   7.124  10.004
  104OSM    H6S10542   5.261   7.150   9.999
  104OSM    H6T10543   5.089   7.211   9.977
  104OSM    C7S10544   5.129   7.006   9.905
  104OSM    H7S10545   5.021   6.979   9.900
  104OSM    H7T10546   5.183   6.914   9.936
  104OSM    C8S10547   5.179   7.050   9.765
  104OSM    H8S10548   5.287   7.073   9.778
  104OSM    H8T10549   5.117   7.139   9.740
  104OSM    C9S10550   5.163   6.942   9.651
  104OSM    H9S10551   5.064   6.895   9.670
  104OSM    H9T10552   5.242   6.871   9.684
  104OSM   C10S10553   5.178   6.997   9.507
  104OSM   H10S10554   5.280   7.040   9.517
  104OSM   H10T10555   5.100   7.075   9.495
  104OSM   C11S10556   5.161   6.888   9.396
  104OSM   H11S10557   5.055   6.855   9.391
  104OSM   H11T10558   5.223   6.801   9.426
  104OSM   C12S10559   5.197   6.939   9.262
  104OSM   H12S10560   5.297   6.987   9.267
  104OSM   H12T10561   5.127   7.018   9.225
  104OSM   C13S10562   5.204   6.838   9.144
  104OSM   H13S10563   5.112   6.777   9.151
  104OSM   H13T10564   5.303   6.788   9.156
  104OSM   C14S10565   5.219   6.906   9.014
  104OSM   H14S10566   5.287   6.994   9.019
  104OSM   H14T10567   5.116   6.944   8.997
  104OSM   C15S10568   5.249   6.817   8.899
  104OSM   H15S10569   5.332   6.747   8.921
  104OSM   H15T10570   5.282   6.890   8.822
  104OSM   C16S10571   5.122   6.742   8.861
  104OSM   H16S10572   5.045   6.811   8.821
  104OSM   H16T10573   5.079   6.691   8.950
  104OSM   C17S10574   5.144   6.639   8.752
  104OSM   H17S10575   5.050   6.579   8.749
  104OSM   H17T10576   5.232   6.576   8.774
  104OSM   C18S10577   5.181   6.707   8.618
  104OSM   H18S10578   5.274   6.769   8.620
  104OSM   H18T10579   5.092   6.763   8.582
  104OSM   H18U10580   5.193   6.629   8.540
  104OSM    C1F10581   4.720   7.301  10.380
  104OSM     OF10582   4.742   7.404  10.447
  104OSM    C2F10583   4.586   7.273  10.314
  104OSM    H2F10584   4.509   7.254  10.391
  104OSM    H2G10585   4.583   7.193  10.236
  104OSM    C3F10586   4.555   7.409  10.249
  104OSM    H3F10587   4.529   7.474  10.335
  104OSM    H3G10588   4.463   7.396  10.188
  104OSM    C4F10589   4.648   7.479  10.149
  104OSM    H4F10590   4.683   7.399  10.081
  104OSM    H4G10591   4.728   7.517  10.216
  104OSM    C5F10592   4.604   7.607  10.069
  104OSM    H5F10593   4.684   7.677  10.036
  104OSM    H5G10594   4.534   7.666  10.132
  104OSM    C6F10595   4.521   7.560   9.946
  104OSM    H6F10596   4.472   7.651   9.905
  104OSM    H6G10597   4.435   7.497   9.977
  104OSM    C7F10598   4.605   7.494   9.833
  104OSM    H7F10599   4.647   7.394   9.860
  104OSM    H7G10600   4.689   7.563   9.812
  104OSM    C8F10601   4.525   7.477   9.707
  104OSM    H8F10602   4.496   7.582   9.685
  104OSM    H8G10603   4.437   7.417   9.737
  104OSM    C9F10604   4.592   7.417   9.591
  104OSM    H9F10605   4.625   7.313   9.608
  104OSM   C10F10606   4.625   7.479   9.478
  104OSM   H10F10607   4.644   7.409   9.395
  104OSM   C11F10608   4.598   7.626   9.445
  104OSM   H11F10609   4.626   7.690   9.531
  104OSM   H11G10610   4.489   7.648   9.438
  104OSM   C12F10611   4.659   7.674   9.317
  104OSM   H12F10612   4.767   7.650   9.310
  104OSM   H12G10613   4.663   7.784   9.308
  104OSM   C13F10614   4.586   7.623   9.192
  104OSM   H13F10615   4.482   7.661   9.192
  104OSM   H13G10616   4.583   7.513   9.204
  104OSM   C14F10617   4.658   7.662   9.062
  104OSM   H14F10618   4.767   7.648   9.080
  104OSM   H14G10619   4.637   7.770   9.048
  104OSM   C15F10620   4.609   7.574   8.942
  104OSM   H15F10621   4.506   7.605   8.916
  104OSM   H15G10622   4.618   7.466   8.966
  104OSM   C16F10623   4.708   7.597   8.821
  104OSM   H16F10624   4.807   7.555   8.850
  104OSM   H16G10625   4.730   7.701   8.790
  104OSM   C17F10626   4.663   7.521   8.697
  104OSM   H17F10627   4.571   7.574   8.664
  104OSM   H17G10628   4.646   7.415   8.727
  104OSM   C18F10629   4.771   7.524   8.596
  104OSM   H18F10630   4.851   7.452   8.625
  104OSM   H18G10631   4.819   7.624   8.592
  104OSM   H18H10632   4.749   7.498   8.490
  105OSM      N10633   1.336   3.647  11.032
  105OSM    C1510634   1.439   3.630  11.139
  105OSM   H15A10635   1.403   3.687  11.224
  105OSM   H15B10636   1.532   3.674  11.105
  105OSM   H15C10637   1.455   3.525  11.157
  105OSM    C1410638   1.219   3.566  11.082
  105OSM   H14A10639   1.126   3.580  11.027
  105OSM   H14B10640   1.208   3.573  11.189
  105OSM   H14C10641   1.255   3.466  11.062
  105OSM    C1310642   1.285   3.790  11.018
  105OSM   H13A10643   1.219   3.822  11.098
  105OSM   H13B10644   1.231   3.800  10.925
  105OSM   H13C10645   1.372   3.854  11.014
  105OSM    C1210646   1.384   3.597  10.891
  105OSM   H12A10647   1.463   3.666  10.864
  105OSM   H12B10648   1.304   3.603  10.819
  105OSM    C1110649   1.454   3.463  10.863
  105OSM   H11A10650   1.551   3.462  10.918
  105OSM   H11B10651   1.480   3.455  10.755
  105OSM      P10652   1.376   3.220  10.853
  105OSM    O1310653   1.510   3.158  10.856
  105OSM    O1410654   1.273   3.151  10.935
  105OSM    O1110655   1.347   3.240  10.699
  105OSM    O1210656   1.384   3.356  10.925
  105OSM    C1S10657   1.211   3.275  10.664
  105OSM    H1S10658   1.183   3.377  10.696
  105OSM    H1T10659   1.141   3.197  10.702
  105OSM     NF10660   1.065   3.334  10.465
  105OSM    HNF10661   0.994   3.271  10.434
  105OSM    C2S10662   1.192   3.281  10.509
  105OSM    H2S10663   1.274   3.351  10.484
  105OSM    C3S10664   1.223   3.140  10.449
  105OSM    H3S10665   1.139   3.076  10.485
  105OSM     O310666   1.342   3.072  10.506
  105OSM    HO310667   1.355   3.127  10.584
  105OSM    C4S10668   1.211   3.133  10.296
  105OSM    H4S10669   1.117   3.085  10.267
  105OSM    C5S10670   1.301   3.160  10.200
  105OSM    H5S10671   1.398   3.205  10.224
  105OSM    C6S10672   1.280   3.129  10.055
  105OSM    H6S10673   1.175   3.153  10.030
  105OSM    H6T10674   1.303   3.022  10.032
  105OSM    C7S10675   1.375   3.208   9.961
  105OSM    H7S10676   1.476   3.164   9.977
  105OSM    H7T10677   1.360   3.316   9.983
  105OSM    C8S10678   1.334   3.189   9.811
  105OSM    H8S10679   1.229   3.224   9.795
  105OSM    H8T10680   1.330   3.078   9.819
  105OSM    C9S10681   1.423   3.236   9.690
  105OSM    H9S10682   1.527   3.196   9.690
  105OSM    H9T10683   1.437   3.347   9.697
  105OSM   C10S10684   1.362   3.191   9.562
  105OSM   H10S10685   1.253   3.211   9.555
  105OSM   H10T10686   1.386   3.084   9.547
  105OSM   C11S10687   1.422   3.258   9.437
  105OSM   H11S10688   1.533   3.253   9.438
  105OSM   H11T10689   1.386   3.362   9.421
  105OSM   C12S10690   1.386   3.185   9.306
  105OSM   H12S10691   1.276   3.179   9.315
  105OSM   H12T10692   1.440   3.088   9.297
  105OSM   C13S10693   1.426   3.264   9.178
  105OSM   H13S10694   1.536   3.279   9.179
  105OSM   H13T10695   1.384   3.366   9.189
  105OSM   C14S10696   1.376   3.194   9.048
  105OSM   H14S10697   1.274   3.154   9.066
  105OSM   H14T10698   1.445   3.107   9.036
  105OSM   C15S10699   1.358   3.277   8.925
  105OSM   H15S10700   1.452   3.333   8.906
  105OSM   H15T10701   1.282   3.357   8.942
  105OSM   C16S10702   1.314   3.197   8.808
  105OSM   H16S10703   1.222   3.143   8.840
  105OSM   H16T10704   1.391   3.121   8.783
  105OSM   C17S10705   1.292   3.299   8.700
  105OSM   H17S10706   1.254   3.392   8.749
  105OSM   H17T10707   1.214   3.273   8.626
  105OSM   C18S10708   1.425   3.342   8.626
  105OSM   H18S10709   1.473   3.256   8.575
  105OSM   H18T10710   1.497   3.378   8.702
  105OSM   H18U10711   1.392   3.422   8.556
  105OSM    C1F10712   1.035   3.460  10.484
  105OSM     OF10713   1.123   3.536  10.529
  105OSM    C2F10714   0.887   3.505  10.479
  105OSM    H2F10715   0.854   3.528  10.583
  105OSM    H2G10716   0.825   3.424  10.436
  105OSM    C3F10717   0.868   3.636  10.394
  105OSM    H3F10718   0.954   3.700  10.421
  105OSM    H3G10719   0.778   3.697  10.417
  105OSM    C4F10720   0.878   3.608  10.247
  105OSM    H4F10721   0.805   3.534  10.207
  105OSM    H4G10722   0.980   3.563  10.239
  105OSM    C5F10723   0.873   3.734  10.158
  105OSM    H5F10724   0.957   3.796  10.196
  105OSM    H5G10725   0.779   3.790  10.176
  105OSM    C6F10726   0.888   3.702  10.013
  105OSM    H6F10727   0.793   3.663   9.970
  105OSM    H6G10728   0.967   3.626   9.997
  105OSM    C7F10729   0.950   3.814   9.927
  105OSM    H7F10730   1.048   3.844   9.971
  105OSM    H7G10731   0.888   3.906   9.939
  105OSM    C8F10732   0.966   3.787   9.779
  105OSM    H8F10733   1.026   3.695   9.763
  105OSM    H8G10734   1.017   3.874   9.733
  105OSM    C9F10735   0.836   3.764   9.707
  105OSM    H9F10736   0.748   3.722   9.757
  105OSM   C10F10737   0.818   3.795   9.581
  105OSM   H10F10738   0.715   3.796   9.543
  105OSM   C11F10739   0.915   3.851   9.484
  105OSM   H11F10740   1.018   3.874   9.518
  105OSM   H11G10741   0.873   3.946   9.444
  105OSM   C12F10742   0.935   3.752   9.373
  105OSM   H12F10743   0.835   3.733   9.327
  105OSM   H12G10744   0.992   3.665   9.411
  105OSM   C13F10745   1.014   3.801   9.246
  105OSM   H13F10746   1.118   3.826   9.278
  105OSM   H13G10747   0.973   3.902   9.225
  105OSM   C14F10748   0.992   3.706   9.129
  105OSM   H14F10749   0.889   3.716   9.090
  105OSM   H14G10750   1.009   3.603   9.166
  105OSM   C15F10751   1.090   3.730   9.016
  105OSM   H15F10752   1.190   3.738   9.062
  105OSM   H15G10753   1.073   3.828   8.966
  105OSM   C16F10754   1.080   3.619   8.908
  105OSM   H16F10755   1.072   3.517   8.951
  105OSM   H16G10756   1.174   3.625   8.849
  105OSM   C17F10757   0.974   3.653   8.798
  105OSM   H17F10758   0.956   3.762   8.789
  105OSM   H17G10759   0.879   3.598   8.812
  105OSM   C18F10760   1.009   3.605   8.654
  105OSM   H18F10761   1.101   3.661   8.624
  105OSM   H18G10762   0.922   3.616   8.587
  105OSM   H18H10763   1.035   3.497   8.657
  106OSM      N10764   6.511   2.522  10.594
  106OSM    C1510765   6.496   2.451  10.464
  106OSM   H15A10766   6.423   2.487  10.393
  106OSM   H15B10767   6.477   2.346  10.479
  106OSM   H15C10768   6.589   2.448  10.408
  106OSM    C1410769   6.589   2.655  10.579
  106OSM   H14A10770   6.603   2.705  10.674
  106OSM   H14B10771   6.546   2.723  10.506
  106OSM   H14C10772   6.686   2.625  10.541
  106OSM    C1310773   6.376   2.565  10.651
  106OSM   H13A10774   6.386   2.626  10.739
  106OSM   H13B10775   6.323   2.473  10.674
  106OSM   H13C10776   6.324   2.611  10.568
  106OSM    C1210777   6.580   2.436  10.691
  106OSM   H12A10778   6.527   2.354  10.737
  106OSM   H12B10779   6.598   2.501  10.776
  106OSM    C1110780   6.724   2.385  10.653
  106OSM   H11A10781   6.720   2.311  10.571
  106OSM   H11B10782   6.746   2.330  10.747
  106OSM      P10783   6.917   2.573  10.710
  106OSM    O1310784   6.854   2.606  10.838
  106OSM    O1410785   7.030   2.483  10.709
  106OSM    O1110786   6.956   2.707  10.637
  106OSM    O1210787   6.814   2.494  10.614
  106OSM    C1S10788   6.994   2.722  10.500
  106OSM    H1S10789   6.959   2.637  10.438
  106OSM    H1T10790   7.105   2.729  10.497
  106OSM     NF10791   6.980   2.880  10.305
  106OSM    HNF10792   7.049   2.951  10.298
  106OSM    C2S10793   6.938   2.859  10.442
  106OSM    H2S10794   6.829   2.843  10.449
  106OSM    C3S10795   6.979   2.983  10.529
  106OSM    H3S10796   7.089   2.988  10.514
  106OSM     O310797   6.955   2.975  10.666
  106OSM    HO310798   6.936   2.881  10.680
  106OSM    C4S10799   6.911   3.108  10.483
  106OSM    H4S10800   6.801   3.111  10.484
  106OSM    C5S10801   6.980   3.211  10.435
  106OSM    H5S10802   7.090   3.208  10.431
  106OSM    C6S10803   6.920   3.330  10.375
  106OSM    H6S10804   6.964   3.427  10.408
  106OSM    H6T10805   6.812   3.331  10.404
  106OSM    C7S10806   6.918   3.303  10.220
  106OSM    H7S10807   6.883   3.199  10.208
  106OSM    H7T10808   7.027   3.310  10.199
  106OSM    C8S10809   6.850   3.409  10.137
  106OSM    H8S10810   6.892   3.509  10.162
  106OSM    H8T10811   6.748   3.423  10.178
  106OSM    C9S10812   6.852   3.378   9.986
  106OSM    H9S10813   6.823   3.273   9.965
  106OSM    H9T10814   6.960   3.381   9.961
  106OSM   C10S10815   6.776   3.482   9.905
  106OSM   H10S10816   6.801   3.584   9.940
  106OSM   H10T10817   6.665   3.474   9.914
  106OSM   C11S10818   6.803   3.463   9.755
  106OSM   H11S10819   6.912   3.463   9.735
  106OSM   H11T10820   6.756   3.546   9.698
  106OSM   C12S10821   6.752   3.333   9.707
  106OSM   H12S10822   6.655   3.302   9.752
  106OSM   H12T10823   6.820   3.253   9.745
  106OSM   C13S10824   6.722   3.339   9.551
  106OSM   H13S10825   6.649   3.421   9.537
  106OSM   H13T10826   6.674   3.242   9.525
  106OSM   C14S10827   6.851   3.365   9.472
  106OSM   H14S10828   6.922   3.279   9.477
  106OSM   H14T10829   6.904   3.458   9.501
  106OSM   C15S10830   6.820   3.391   9.317
  106OSM   H15S10831   6.803   3.499   9.302
  106OSM   H15T10832   6.732   3.326   9.297
  106OSM   C16S10833   6.942   3.351   9.231
  106OSM   H16S10834   6.957   3.241   9.229
  106OSM   H16T10835   7.032   3.399   9.275
  106OSM   C17S10836   6.927   3.393   9.086
  106OSM   H17S10837   7.024   3.362   9.041
  106OSM   H17T10838   6.920   3.504   9.084
  106OSM   C18S10839   6.805   3.338   9.013
  106OSM   H18S10840   6.817   3.358   8.904
  106OSM   H18T10841   6.716   3.396   9.046
  106OSM   H18U10842   6.796   3.227   9.020
  106OSM    C1F10843   6.945   2.798  10.200
  106OSM     OF10844   6.881   2.690  10.220
  106OSM    C2F10845   6.987   2.845  10.068
  106OSM    H2F10846   7.090   2.817  10.037
  106OSM    H2G10847   6.983   2.956  10.066
  106OSM    C3F10848   6.888   2.803   9.963
  106OSM    H3F10849   6.786   2.823  10.003
  106OSM    H3G10850   6.892   2.698   9.927
  106OSM    C4F10851   6.917   2.883   9.831
  106OSM    H4F10852   7.024   2.860   9.811
  106OSM    H4G10853   6.906   2.993   9.845
  106OSM    C5F10854   6.829   2.858   9.713
  106OSM    H5F10855   6.725   2.877   9.746
  106OSM    H5G10856   6.834   2.752   9.681
  106OSM    C6F10857   6.851   2.945   9.584
  106OSM    H6F10858   6.813   3.048   9.599
  106OSM    H6G10859   6.786   2.904   9.505
  106OSM    C7F10860   6.992   2.950   9.534
  106OSM    H7F10861   7.011   2.841   9.519
  106OSM    H7G10862   7.068   2.982   9.609
  106OSM    C8F10863   7.007   3.027   9.400
  106OSM    H8F10864   7.018   3.134   9.427
  106OSM    H8G10865   6.910   3.019   9.347
  106OSM    C9F10866   7.118   2.988   9.306
  106OSM    H9F10867   7.211   3.046   9.306
  106OSM   C10F10868   7.127   2.879   9.231
  106OSM   H10F10869   7.221   2.861   9.178
  106OSM   C11F10870   7.032   2.761   9.223
  106OSM   H11F10871   6.945   2.760   9.292
  106OSM   H11G10872   7.087   2.667   9.245
  106OSM   C12F10873   6.967   2.748   9.083
  106OSM   H12F10874   6.905   2.657   9.092
  106OSM   H12G10875   7.049   2.736   9.008
  106OSM   C13F10876   6.880   2.859   9.034
  106OSM   H13F10877   6.947   2.944   9.010
  106OSM   H13G10878   6.814   2.887   9.119
  106OSM   C14F10879   6.794   2.830   8.905
  106OSM   H14F10880   6.710   2.762   8.934
  106OSM   H14G10881   6.863   2.771   8.842
  106OSM   C15F10882   6.731   2.951   8.834
  106OSM   H15F10883   6.667   3.018   8.896
  106OSM   H15G10884   6.662   2.917   8.753
  106OSM   C16F10885   6.831   3.041   8.760
  106OSM   H16F10886   6.876   2.969   8.688
  106OSM   H16G10887   6.903   3.088   8.830
  106OSM   C17F10888   6.757   3.154   8.693
  106OSM   H17F10889   6.682   3.206   8.756
  106OSM   H17G10890   6.694   3.111   8.612
  106OSM   C18F10891   6.855   3.249   8.629
  106OSM   H18F10892   6.932   3.191   8.574
  106OSM   H18G10893   6.906   3.306   8.710
  106OSM   H18H10894   6.815   3.320   8.553
  107OSM      N10895   2.855   1.108  10.943
  107OSM    C1510896   2.751   1.065  11.048
  107OSM   H15A10897   2.747   0.958  11.057
  107OSM   H15B10898   2.653   1.094  11.013
  107OSM   H15C10899   2.780   1.091  11.148
  107OSM    C1410900   2.800   1.082  10.808
  107OSM   H14A10901   2.743   0.991  10.807
  107OSM   H14B10902   2.876   1.072  10.731
  107OSM   H14C10903   2.730   1.156  10.772
  107OSM    C1310904   2.879   1.256  10.960
  107OSM   H13A10905   2.968   1.292  10.911
  107OSM   H13B10906   2.886   1.280  11.065
  107OSM   H13C10907   2.797   1.315  10.920
  107OSM    C1210908   2.982   1.034  10.967
  107OSM   H12A10909   3.011   1.044  11.071
  107OSM   H12B10910   3.060   1.079  10.908
  107OSM    C1110911   2.961   0.882  10.939
  107OSM   H11A10912   2.910   0.862  10.843
  107OSM   H11B10913   2.893   0.834  11.012
  107OSM      P10914   3.199   0.800  10.841
  107OSM    O1310915   3.326   0.766  10.913
  107OSM    O1410916   3.158   0.696  10.740
  107OSM    O1110917   3.199   0.944  10.772
  107OSM    O1210918   3.087   0.810  10.952
  107OSM    C1S10919   3.293   0.960  10.665
  107OSM    H1S10920   3.380   0.893  10.681
  107OSM    H1T10921   3.324   1.066  10.658
  107OSM     NF10922   3.323   0.931  10.412
  107OSM    HNF10923   3.319   1.001  10.341
  107OSM    C2S10924   3.224   0.923  10.523
  107OSM    H2S10925   3.182   0.820  10.529
  107OSM    C3S10926   3.106   1.014  10.494
  107OSM    H3S10927   3.145   1.114  10.465
  107OSM     O310928   3.017   1.050  10.599
  107OSM    HO310929   3.067   1.026  10.677
  107OSM    C4S10930   3.024   0.977  10.373
  107OSM    H4S10931   2.999   0.870  10.368
  107OSM    C5S10932   2.970   1.059  10.284
  107OSM    H5S10933   2.981   1.167  10.301
  107OSM    C6S10934   2.879   1.034  10.171
  107OSM    H6S10935   2.918   1.092  10.085
  107OSM    H6T10936   2.790   1.100  10.188
  107OSM    C7S10937   2.857   0.893  10.125
  107OSM    H7S10938   2.817   0.828  10.205
  107OSM    H7T10939   2.948   0.846  10.083
  107OSM    C8S10940   2.748   0.899  10.016
  107OSM    H8S10941   2.778   0.971   9.937
  107OSM    H8T10942   2.657   0.944  10.061
  107OSM    C9S10943   2.735   0.755   9.958
  107OSM    H9S10944   2.713   0.690  10.046
  107OSM    H9T10945   2.839   0.731   9.928
  107OSM   C10S10946   2.647   0.737   9.835
  107OSM   H10S10947   2.563   0.809   9.846
  107OSM   H10T10948   2.610   0.633   9.832
  107OSM   C11S10949   2.729   0.763   9.707
  107OSM   H11S10950   2.818   0.696   9.697
  107OSM   H11T10951   2.772   0.864   9.724
  107OSM   C12S10952   2.642   0.756   9.584
  107OSM   H12S10953   2.556   0.822   9.607
  107OSM   H12T10954   2.591   0.660   9.562
  107OSM   C13S10955   2.710   0.799   9.452
  107OSM   H13S10956   2.800   0.735   9.439
  107OSM   H13T10957   2.747   0.904   9.460
  107OSM   C14S10958   2.609   0.798   9.337
  107OSM   H14S10959   2.533   0.878   9.351
  107OSM   H14T10960   2.563   0.697   9.330
  107OSM   C15S10961   2.684   0.807   9.201
  107OSM   H15S10962   2.720   0.705   9.175
  107OSM   H15T10963   2.761   0.885   9.220
  107OSM   C16S10964   2.595   0.858   9.095
  107OSM   H16S10965   2.558   0.961   9.115
  107OSM   H16T10966   2.505   0.794   9.088
  107OSM   C17S10967   2.660   0.870   8.962
  107OSM   H17S10968   2.712   0.773   8.948
  107OSM   H17T10969   2.741   0.947   8.958
  107OSM   C18S10970   2.559   0.891   8.845
  107OSM   H18S10971   2.482   0.811   8.851
  107OSM   H18T10972   2.614   0.888   8.748
  107OSM   H18U10973   2.510   0.990   8.862
  107OSM    C1F10974   3.429   0.851  10.407
  107OSM     OF10975   3.426   0.758  10.484
  107OSM    C2F10976   3.540   0.884  10.311
  107OSM    H2F10977   3.592   0.976  10.347
  107OSM    H2G10978   3.486   0.909  10.217
  107OSM    C3F10979   3.648   0.781  10.284
  107OSM    H3F10980   3.616   0.676  10.299
  107OSM    H3G10981   3.726   0.799  10.360
  107OSM    C4F10982   3.714   0.790  10.147
  107OSM    H4F10983   3.806   0.728  10.147
  107OSM    H4G10984   3.744   0.896  10.130
  107OSM    C5F10985   3.624   0.734  10.034
  107OSM    H5F10986   3.529   0.791  10.037
  107OSM    H5G10987   3.602   0.627  10.054
  107OSM    C6F10988   3.673   0.754   9.882
  107OSM    H6F10989   3.712   0.858   9.873
  107OSM    H6G10990   3.583   0.731   9.821
  107OSM    C7F10991   3.788   0.661   9.844
  107OSM    H7F10992   3.743   0.560   9.841
  107OSM    H7G10993   3.872   0.669   9.917
  107OSM    C8F10994   3.845   0.692   9.704
  107OSM    H8F10995   3.940   0.634   9.701
  107OSM    H8G10996   3.869   0.800   9.703
  107OSM    C9F10997   3.748   0.649   9.588
  107OSM    H9F10998   3.723   0.543   9.585
  107OSM   C10F10999   3.692   0.729   9.496
  107OSM   H10F11000   3.622   0.671   9.434
  107OSM   C11F11001   3.702   0.879   9.496
  107OSM   H11F11002   3.726   0.921   9.596
  107OSM   H11G11003   3.604   0.914   9.459
  107OSM   C12F11004   3.794   0.930   9.387
  107OSM   H12F11005   3.793   1.040   9.393
  107OSM   H12G11006   3.757   0.910   9.284
  107OSM   C13F11007   3.939   0.886   9.384
  107OSM   H13F11008   3.936   0.778   9.355
  107OSM   H13G11009   3.991   0.881   9.482
  107OSM   C14F11010   4.030   0.956   9.286
  107OSM   H14F11011   4.130   0.909   9.299
  107OSM   H14G11012   4.044   1.065   9.306
  107OSM   C15F11013   3.984   0.950   9.137
  107OSM   H15F11014   4.040   1.020   9.072
  107OSM   H15G11015   3.876   0.974   9.128
  107OSM   C16F11016   3.986   0.802   9.081
  107OSM   H16F11017   3.899   0.748   9.123
  107OSM   H16G11018   4.075   0.751   9.124
  107OSM   C17F11019   3.958   0.788   8.931
  107OSM   H17F11020   4.024   0.868   8.891
  107OSM   H17G11021   3.853   0.816   8.908
  107OSM   C18F11022   3.997   0.655   8.860
  107OSM   H18F11023   3.949   0.569   8.913
  107OSM   H18G11024   4.105   0.637   8.878
  107OSM   H18H11025   3.966   0.661   8.754
  108OSM      N11026   0.327   1.649  10.652
  108OSM    C1511027   0.419   1.765  10.639
  108OSM   H15A11028   0.479   1.777  10.728
  108OSM   H15B11029   0.354   1.850  10.626
  108OSM   H15C11030   0.468   1.764  10.543
  108OSM    C1411031   0.249   1.644  10.528
  108OSM   H14A11032   0.192   1.554  10.510
  108OSM   H14B11033   0.320   1.656  10.447
  108OSM   H14C11034   0.176   1.724  10.518
  108OSM    C1311035   0.416   1.527  10.664
  108OSM   H13A11036   0.480   1.518  10.577
  108OSM   H13B11037   0.350   1.442  10.657
  108OSM   H13C11038   0.477   1.532  10.752
  108OSM    C1211039   0.234   1.666  10.772
  108OSM   H12A11040   0.286   1.706  10.857
  108OSM   H12B11041   0.203   1.564  10.790
  108OSM    C1111042   0.109   1.749  10.741
  108OSM   H11A11043   0.058   1.768  10.837
  108OSM   H11B11044   0.047   1.686  10.674
  108OSM      P11045   0.013   1.956  10.626
  108OSM    O1311046  -0.075   1.994  10.743
  108OSM    O1411047   0.071   2.072  10.560
  108OSM    O1111048  -0.062   1.867  10.525
  108OSM    O1211049   0.141   1.867  10.674
  108OSM    C1S11050  -0.208   1.870  10.505
  108OSM    H1S11051  -0.254   1.963  10.546
  108OSM    H1T11052  -0.254   1.793  10.571
  108OSM     NF11053  -0.404   1.842  10.355
  108OSM    HNF11054  -0.445   1.751  10.350
  108OSM    C2S11055  -0.254   1.848  10.361
  108OSM    H2S11056  -0.225   1.933  10.295
  108OSM    C3S11057  -0.192   1.728  10.294
  108OSM    H3S11058  -0.223   1.634  10.344
  108OSM     O311059  -0.047   1.718  10.296
  108OSM    HO311060  -0.031   1.768  10.376
  108OSM    C4S11061  -0.239   1.718  10.150
  108OSM    H4S11062  -0.226   1.817  10.106
  108OSM    C5S11063  -0.311   1.620  10.090
  108OSM    H5S11064  -0.326   1.526  10.146
  108OSM    C6S11065  -0.371   1.610   9.949
  108OSM    H6S11066  -0.480   1.596   9.936
  108OSM    H6T11067  -0.328   1.521   9.898
  108OSM    C7S11068  -0.333   1.725   9.855
  108OSM    H7S11069  -0.223   1.745   9.851
  108OSM    H7T11070  -0.377   1.814   9.904
  108OSM    C8S11071  -0.382   1.695   9.712
  108OSM    H8S11072  -0.493   1.692   9.710
  108OSM    H8T11073  -0.351   1.595   9.676
  108OSM    C9S11074  -0.338   1.802   9.617
  108OSM    H9S11075  -0.228   1.811   9.604
  108OSM    H9T11076  -0.367   1.900   9.660
  108OSM   C10S11077  -0.401   1.774   9.473
  108OSM   H10S11078  -0.510   1.757   9.483
  108OSM   H10T11079  -0.351   1.679   9.442
  108OSM   C11S11080  -0.364   1.887   9.378
  108OSM   H11S11081  -0.255   1.906   9.382
  108OSM   H11T11082  -0.411   1.978   9.421
  108OSM   C12S11083  -0.418   1.874   9.234
  108OSM   H12S11084  -0.528   1.866   9.232
  108OSM   H12T11085  -0.383   1.784   9.178
  108OSM   C13S11086  -0.375   1.988   9.141
  108OSM   H13S11087  -0.264   1.991   9.137
  108OSM   H13T11088  -0.414   2.084   9.179
  108OSM   C14S11089  -0.407   1.983   8.990
  108OSM   H14S11090  -0.371   1.888   8.944
  108OSM   H14T11091  -0.350   2.066   8.942
  108OSM   C15S11092  -0.552   2.000   8.951
  108OSM   H15S11093  -0.609   2.085   8.995
  108OSM   H15T11094  -0.615   1.916   8.987
  108OSM   C16S11095  -0.575   2.015   8.797
  108OSM   H16S11096  -0.527   1.931   8.742
  108OSM   H16T11097  -0.517   2.104   8.764
  108OSM   C17S11098  -0.715   2.037   8.763
  108OSM   H17S11099  -0.735   2.062   8.656
  108OSM   H17T11100  -0.740   2.129   8.821
  108OSM   C18S11101  -0.815   1.931   8.801
  108OSM   H18S11102  -0.794   1.828   8.767
  108OSM   H18T11103  -0.917   1.962   8.770
  108OSM   H18U11104  -0.827   1.927   8.912
  108OSM    C1F11105  -0.490   1.934  10.373
  108OSM     OF11106  -0.451   2.046  10.414
  108OSM    C2F11107  -0.628   1.898  10.357
  108OSM    H2F11108  -0.688   1.991  10.364
  108OSM    H2G11109  -0.667   1.826  10.432
  108OSM    C3F11110  -0.638   1.836  10.217
  108OSM    H3F11111  -0.742   1.800  10.202
  108OSM    H3G11112  -0.589   1.736  10.208
  108OSM    C4F11113  -0.606   1.928  10.096
  108OSM    H4F11114  -0.496   1.917  10.087
  108OSM    H4G11115  -0.616   2.037  10.112
  108OSM    C5F11116  -0.661   1.888   9.961
  108OSM    H5F11117  -0.771   1.876   9.965
  108OSM    H5G11118  -0.612   1.799   9.916
  108OSM    C6F11119  -0.629   1.996   9.852
  108OSM    H6F11120  -0.522   2.006   9.825
  108OSM    H6G11121  -0.655   2.096   9.892
  108OSM    C7F11122  -0.715   1.964   9.725
  108OSM    H7F11123  -0.819   1.966   9.764
  108OSM    H7G11124  -0.697   1.857   9.701
  108OSM    C8F11125  -0.691   2.046   9.603
  108OSM    H8F11126  -0.732   1.986   9.519
  108OSM    H8G11127  -0.583   2.048   9.577
  108OSM    C9F11128  -0.747   2.181   9.611
  108OSM    H9F11129  -0.733   2.227   9.710
  108OSM   C10F11130  -0.821   2.248   9.518
  108OSM   H10F11131  -0.855   2.350   9.543
  108OSM   C11F11132  -0.848   2.211   9.375
  108OSM   H11F11133  -0.955   2.181   9.369
  108OSM   H11G11134  -0.780   2.133   9.333
  108OSM   C12F11135  -0.837   2.324   9.275
  108OSM   H12F11136  -0.729   2.346   9.264
  108OSM   H12G11137  -0.878   2.420   9.313
  108OSM   C13F11138  -0.901   2.307   9.134
  108OSM   H13F11139  -0.856   2.221   9.080
  108OSM   H13G11140  -0.878   2.393   9.069
  108OSM   C14F11141  -1.052   2.293   9.128
  108OSM   H14F11142  -1.100   2.390   9.103
  108OSM   H14G11143  -1.082   2.258   9.229
  108OSM   C15F11144  -1.114   2.199   9.027
  108OSM   H15F11145  -1.100   2.097   9.069
  108OSM   H15G11146  -1.063   2.202   8.928
  108OSM   C16F11147  -1.260   2.229   9.002
  108OSM   H16F11148  -1.283   2.336   8.984
  108OSM   H16G11149  -1.321   2.203   9.091
  108OSM   C17F11150  -1.319   2.167   8.873
  108OSM   H17F11151  -1.298   2.060   8.895
  108OSM   H17G11152  -1.258   2.208   8.790
  108OSM   C18F11153  -1.472   2.196   8.856
  108OSM   H18F11154  -1.511   2.142   8.767
  108OSM   H18G11155  -1.491   2.304   8.844
  108OSM   H18H11156  -1.542   2.152   8.930
  109OSM      N11157   5.838   0.035  11.048
  109OSM    C1511158   5.748   0.139  10.980
  109OSM   H15A11159   5.770   0.242  11.005
  109OSM   H15B11160   5.644   0.113  10.995
  109OSM   H15C11161   5.758   0.131  10.873
  109OSM    C1411162   5.960   0.007  10.960
  109OSM   H14A11163   5.944  -0.007  10.855
  109OSM   H14B11164   6.035  -0.058  11.004
  109OSM   H14C11165   6.009   0.104  10.960
  109OSM    C1311166   5.882   0.100  11.175
  109OSM   H13A11167   5.945   0.184  11.155
  109OSM   H13B11168   5.949   0.034  11.228
  109OSM   H13C11169   5.796   0.116  11.239
  109OSM    C1211170   5.767  -0.095  11.072
  109OSM   H12A11171   5.824  -0.167  11.127
  109OSM   H12B11172   5.758  -0.138  10.973
  109OSM    C1111173   5.628  -0.087  11.145
  109OSM   H11A11174   5.634  -0.014  11.228
  109OSM   H11B11175   5.604  -0.182  11.197
  109OSM      P11176   5.442  -0.154  10.980
  109OSM    O1311177   5.516  -0.205  10.864
  109OSM    O1411178   5.383  -0.262  11.068
  109OSM    O1111179   5.320  -0.068  10.921
  109OSM    O1211180   5.525  -0.053  11.056
  109OSM    C1S11181   5.333   0.026  10.818
  109OSM    H1S11182   5.430   0.079  10.811
  109OSM    H1T11183   5.260   0.109  10.828
  109OSM     NF11184   5.349   0.061  10.566
  109OSM    HNF11185   5.279   0.102  10.508
  109OSM    C2S11186   5.304  -0.028  10.672
  109OSM    H2S11187   5.380  -0.107  10.652
  109OSM    C3S11188   5.158  -0.079  10.668
  109OSM    H3S11189   5.098   0.010  10.698
  109OSM     O311190   5.136  -0.185  10.758
  109OSM    HO311191   5.222  -0.197  10.798
  109OSM    C4S11192   5.125  -0.112  10.529
  109OSM    H4S11193   5.090  -0.025  10.471
  109OSM    C5S11194   5.143  -0.222  10.462
  109OSM    H5S11195   5.189  -0.309  10.512
  109OSM    C6S11196   5.116  -0.228  10.311
  109OSM    H6S11197   5.078  -0.131  10.272
  109OSM    H6T11198   5.043  -0.305  10.279
  109OSM    C7S11199   5.254  -0.241  10.235
  109OSM    H7S11200   5.308  -0.337  10.250
  109OSM    H7T11201   5.323  -0.162  10.272
  109OSM    C8S11202   5.246  -0.216  10.083
  109OSM    H8S11203   5.214  -0.111  10.066
  109OSM    H8T11204   5.159  -0.269  10.039
  109OSM    C9S11205   5.374  -0.243   9.993
  109OSM    H9S11206   5.406  -0.349  10.003
  109OSM    H9T11207   5.456  -0.179  10.032
  109OSM   C10S11208   5.347  -0.212   9.849
  109OSM   H10S11209   5.333  -0.102   9.839
  109OSM   H10T11210   5.257  -0.264   9.812
  109OSM   C11S11211   5.460  -0.244   9.757
  109OSM   H11S11212   5.480  -0.353   9.769
  109OSM   H11T11213   5.552  -0.189   9.787
  109OSM   C12S11214   5.436  -0.214   9.608
  109OSM   H12S11215   5.418  -0.106   9.589
  109OSM   H12T11216   5.336  -0.257   9.585
  109OSM   C13S11217   5.543  -0.276   9.510
  109OSM   H13S11218   5.546  -0.387   9.524
  109OSM   H13T11219   5.647  -0.244   9.529
  109OSM   C14S11220   5.499  -0.239   9.370
  109OSM   H14S11221   5.485  -0.129   9.365
  109OSM   H14T11222   5.407  -0.297   9.350
  109OSM   C15S11223   5.596  -0.267   9.252
  109OSM   H15S11224   5.633  -0.370   9.268
  109OSM   H15T11225   5.677  -0.191   9.260
  109OSM   C16S11226   5.523  -0.258   9.117
  109OSM   H16S11227   5.482  -0.157   9.100
  109OSM   H16T11228   5.438  -0.329   9.114
  109OSM   C17S11229   5.621  -0.280   9.004
  109OSM   H17S11230   5.664  -0.382   9.017
  109OSM   H17T11231   5.708  -0.211   9.003
  109OSM   C18S11232   5.550  -0.271   8.867
  109OSM   H18S11233   5.606  -0.310   8.778
  109OSM   H18T11234   5.529  -0.167   8.833
  109OSM   H18U11235   5.458  -0.334   8.866
  109OSM    C1F11236   5.480   0.109  10.560
  109OSM     OF11237   5.566   0.081  10.640
  109OSM    C2F11238   5.513   0.193  10.434
  109OSM    H2F11239   5.621   0.219  10.436
  109OSM    H2G11240   5.457   0.288  10.448
  109OSM    C3F11241   5.476   0.132  10.294
  109OSM    H3F11242   5.366   0.118  10.283
  109OSM    H3G11243   5.512   0.027  10.288
  109OSM    C4F11244   5.534   0.215  10.170
  109OSM    H4F11245   5.639   0.235  10.200
  109OSM    H4G11246   5.476   0.310  10.166
  109OSM    C5F11247   5.527   0.138  10.039
  109OSM    H5F11248   5.431   0.116   9.987
  109OSM    H5G11249   5.566   0.035  10.058
  109OSM    C6F11250   5.605   0.200   9.923
  109OSM    H6F11251   5.710   0.207   9.960
  109OSM    H6G11252   5.550   0.292   9.895
  109OSM    C7F11253   5.595   0.100   9.808
  109OSM    H7F11254   5.488   0.071   9.811
  109OSM    H7G11255   5.658   0.017   9.848
  109OSM    C8F11256   5.645   0.148   9.676
  109OSM    H8F11257   5.731   0.210   9.709
  109OSM    H8G11258   5.572   0.229   9.655
  109OSM    C9F11259   5.664   0.051   9.569
  109OSM    H9F11260   5.660  -0.052   9.606
  109OSM   C10F11261   5.675   0.074   9.432
  109OSM   H10F11262   5.694  -0.007   9.360
  109OSM   C11F11263   5.682   0.209   9.370
  109OSM   H11F11264   5.787   0.245   9.369
  109OSM   H11G11265   5.640   0.291   9.432
  109OSM   C12F11266   5.604   0.205   9.240
  109OSM   H12F11267   5.577   0.310   9.214
  109OSM   H12G11268   5.511   0.145   9.237
  109OSM   C13F11269   5.687   0.164   9.115
  109OSM   H13F11270   5.736   0.065   9.124
  109OSM   H13G11271   5.775   0.228   9.093
  109OSM   C14F11272   5.614   0.157   8.981
  109OSM   H14F11273   5.570   0.256   8.959
  109OSM   H14G11274   5.523   0.093   8.990
  109OSM   C15F11275   5.690   0.110   8.857
  109OSM   H15F11276   5.708   0.002   8.871
  109OSM   H15G11277   5.790   0.158   8.857
  109OSM   C16F11278   5.604   0.146   8.734
  109OSM   H16F11279   5.608   0.257   8.730
  109OSM   H16G11280   5.502   0.110   8.761
  109OSM   C17F11281   5.649   0.082   8.598
  109OSM   H17F11282   5.647  -0.029   8.609
  109OSM   H17G11283   5.745   0.123   8.562
  109OSM   C18F11284   5.544   0.096   8.489
  109OSM   H18F11285   5.458   0.028   8.505
  109OSM   H18G11286   5.596   0.070   8.394
  109OSM   H18H11287   5.511   0.201   8.477
  110OSM      N11288   6.028   5.334  11.215
  110OSM    C1511289   5.901   5.374  11.278
  110OSM   H15A11290   5.914   5.342  11.381
  110OSM   H15B11291   5.821   5.330  11.221
  110OSM   H15C11292   5.875   5.478  11.275
  110OSM    C1411293   6.136   5.396  11.294
  110OSM   H14A11294   6.235   5.366  11.264
  110OSM   H14B11295   6.122   5.362  11.396
  110OSM   H14C11296   6.137   5.504  11.289
  110OSM    C1311297   6.041   5.188  11.219
  110OSM   H13A11298   6.072   5.158  11.318
  110OSM   H13B11299   6.112   5.142  11.152
  110OSM   H13C11300   5.947   5.142  11.195
  110OSM    C1211301   6.031   5.399  11.078
  110OSM   H12A11302   6.020   5.506  11.085
  110OSM   H12B11303   5.942   5.369  11.024
  110OSM    C1111304   6.158   5.372  10.991
  110OSM   H11A11305   6.245   5.410  11.048
  110OSM   H11B11306   6.135   5.438  10.905
  110OSM      P11307   6.325   5.169  10.956
  110OSM    O1311308   6.391   5.215  11.081
  110OSM    O1411309   6.301   5.024  10.946
  110OSM    O1111310   6.397   5.227  10.829
  110OSM    O1211311   6.183   5.239  10.947
  110OSM    C1S11312   6.373   5.189  10.696
  110OSM    H1S11313   6.269   5.156  10.676
  110OSM    H1T11314   6.444   5.107  10.672
  110OSM     NF11315   6.359   5.264  10.462
  110OSM    HNF11316   6.417   5.205  10.406
  110OSM    C2S11317   6.402   5.304  10.596
  110OSM    H2S11318   6.338   5.387  10.633
  110OSM    C3S11319   6.553   5.351  10.608
  110OSM    H3S11320   6.627   5.273  10.580
  110OSM     O311321   6.585   5.394  10.736
  110OSM    HO311322   6.516   5.358  10.791
  110OSM    C4S11323   6.586   5.465  10.510
  110OSM    H4S11324   6.537   5.557  10.545
  110OSM    C5S11325   6.679   5.463  10.410
  110OSM    H5S11326   6.739   5.376  10.379
  110OSM    C6S11327   6.709   5.586  10.327
  110OSM    H6S11328   6.739   5.564  10.222
  110OSM    H6T11329   6.805   5.629  10.363
  110OSM    C7S11330   6.602   5.690  10.333
  110OSM    H7S11331   6.621   5.730  10.434
  110OSM    H7T11332   6.496   5.657  10.328
  110OSM    C8S11333   6.630   5.805  10.236
  110OSM    H8S11334   6.617   5.772  10.131
  110OSM    H8T11335   6.733   5.844  10.251
  110OSM    C9S11336   6.530   5.920  10.273
  110OSM    H9S11337   6.509   5.918  10.383
  110OSM    H9T11338   6.438   5.899  10.215
  110OSM   C10S11339   6.573   6.056  10.242
  110OSM   H10S11340   6.671   6.077  10.290
  110OSM   H10T11341   6.504   6.137  10.275
  110OSM   C11S11342   6.587   6.072  10.088
  110OSM   H11S11343   6.495   6.085  10.028
  110OSM   H11T11344   6.616   5.970  10.052
  110OSM   C12S11345   6.687   6.181  10.046
  110OSM   H12S11346   6.790   6.141  10.055
  110OSM   H12T11347   6.681   6.270  10.113
  110OSM   C13S11348   6.661   6.232   9.905
  110OSM   H13S11349   6.552   6.256   9.903
  110OSM   H13T11350   6.677   6.146   9.837
  110OSM   C14S11351   6.755   6.343   9.852
  110OSM   H14S11352   6.699   6.366   9.759
  110OSM   H14T11353   6.848   6.291   9.823
  110OSM   C15S11354   6.778   6.469   9.939
  110OSM   H15S11355   6.831   6.442  10.033
  110OSM   H15T11356   6.673   6.497   9.965
  110OSM   C16S11357   6.849   6.577   9.860
  110OSM   H16S11358   6.803   6.602   9.762
  110OSM   H16T11359   6.948   6.533   9.834
  110OSM   C17S11360   6.875   6.699   9.943
  110OSM   H17S11361   6.946   6.662  10.019
  110OSM   H17T11362   6.778   6.742   9.978
  110OSM   C18S11363   6.951   6.808   9.877
  110OSM   H18S11364   7.057   6.783   9.856
  110OSM   H18T11365   6.954   6.901   9.938
  110OSM   H18U11366   6.893   6.844   9.789
  110OSM    C1F11367   6.229   5.257  10.437
  110OSM     OF11368   6.144   5.304  10.504
  110OSM    C2F11369   6.182   5.180  10.317
  110OSM    H2F11370   6.084   5.139  10.348
  110OSM    H2G11371   6.264   5.110  10.289
  110OSM    C3F11372   6.136   5.279  10.198
  110OSM    H3F11373   6.074   5.362  10.238
  110OSM    H3G11374   6.069   5.233  10.122
  110OSM    C4F11375   6.255   5.353  10.132
  110OSM    H4F11376   6.299   5.418  10.210
  110OSM    H4G11377   6.218   5.411  10.044
  110OSM    C5F11378   6.373   5.271  10.084
  110OSM    H5F11379   6.330   5.186  10.026
  110OSM    H5G11380   6.428   5.217  10.164
  110OSM    C6F11381   6.471   5.358  10.004
  110OSM    H6F11382   6.565   5.299  10.005
  110OSM    H6G11383   6.499   5.457  10.046
  110OSM    C7F11384   6.432   5.361   9.851
  110OSM    H7F11385   6.346   5.428   9.826
  110OSM    H7G11386   6.397   5.257   9.832
  110OSM    C8F11387   6.548   5.416   9.758
  110OSM    H8F11388   6.584   5.503   9.816
  110OSM    H8G11389   6.501   5.456   9.665
  110OSM    C9F11390   6.658   5.320   9.722
  110OSM    H9F11391   6.659   5.224   9.777
  110OSM   C10F11392   6.752   5.335   9.630
  110OSM   H10F11393   6.826   5.257   9.606
  110OSM   C11F11394   6.774   5.455   9.540
  110OSM   H11F11395   6.881   5.485   9.549
  110OSM   H11G11396   6.710   5.539   9.576
  110OSM   C12F11397   6.726   5.421   9.399
  110OSM   H12F11398   6.626   5.374   9.406
  110OSM   H12G11399   6.793   5.349   9.347
  110OSM   C13F11400   6.712   5.552   9.318
  110OSM   H13F11401   6.804   5.611   9.339
  110OSM   H13G11402   6.624   5.610   9.354
  110OSM   C14F11403   6.714   5.524   9.165
  110OSM   H14F11404   6.618   5.473   9.142
  110OSM   H14G11405   6.806   5.463   9.156
  110OSM   C15F11406   6.735   5.650   9.078
  110OSM   H15F11407   6.735   5.617   8.972
  110OSM   H15G11408   6.839   5.684   9.098
  110OSM   C16F11409   6.623   5.755   9.102
  110OSM   H16F11410   6.619   5.767   9.213
  110OSM   H16G11411   6.527   5.710   9.072
  110OSM   C17F11412   6.642   5.876   9.014
  110OSM   H17F11413   6.690   5.846   8.919
  110OSM   H17G11414   6.724   5.934   9.062
  110OSM   C18F11415   6.517   5.958   8.984
  110OSM   H18F11416   6.535   6.055   8.932
  110OSM   H18G11417   6.488   5.986   9.088
  110OSM   H18H11418   6.433   5.896   8.948
  111OSM      N11419   0.465   3.043  10.834
  111OSM    C1511420   0.579   3.107  10.908
  111OSM   H15A11421   0.603   3.208  10.877
  111OSM   H15B11422   0.665   3.042  10.903
  111OSM   H15C11423   0.557   3.121  11.013
  111OSM    C1411424   0.516   3.013  10.699
  111OSM   H14A11425   0.539   3.106  10.650
  111OSM   H14B11426   0.440   2.963  10.642
  111OSM   H14C11427   0.602   2.947  10.702
  111OSM    C1311428   0.430   2.913  10.899
  111OSM   H13A11429   0.373   2.924  10.990
  111OSM   H13B11430   0.513   2.844  10.901
  111OSM   H13C11431   0.354   2.863  10.841
  111OSM    C1211432   0.347   3.136  10.821
  111OSM   H12A11433   0.327   3.178  10.919
  111OSM   H12B11434   0.261   3.083  10.781
  111OSM    C1111435   0.356   3.264  10.732
  111OSM   H11A11436   0.256   3.311  10.722
  111OSM   H11B11437   0.395   3.231  10.633
  111OSM      P11438   0.567   3.429  10.710
  111OSM    O1311439   0.610   3.551  10.780
  111OSM    O1411440   0.669   3.324  10.690
  111OSM    O1111441   0.512   3.466  10.563
  111OSM    O1211442   0.442   3.366  10.789
  111OSM    C1S11443   0.411   3.565  10.540
  111OSM    H1S11444   0.397   3.637  10.623
  111OSM    H1T11445   0.319   3.503  10.529
  111OSM     NF11446   0.372   3.759  10.377
  111OSM    HNF11447   0.283   3.761  10.332
  111OSM    C2S11448   0.440   3.630  10.395
  111OSM    H2S11449   0.550   3.643  10.387
  111OSM    C3S11450   0.403   3.524  10.288
  111OSM    H3S11451   0.292   3.524  10.292
  111OSM     O311452   0.463   3.396  10.315
  111OSM    HO311453   0.491   3.391  10.407
  111OSM    C4S11454   0.461   3.570  10.153
  111OSM    H4S11455   0.566   3.545  10.134
  111OSM    C5S11456   0.386   3.642  10.071
  111OSM    H5S11457   0.285   3.660  10.112
  111OSM    C6S11458   0.428   3.715   9.948
  111OSM    H6S11459   0.539   3.707   9.945
  111OSM    H6T11460   0.401   3.822   9.956
  111OSM    C7S11461   0.367   3.656   9.827
  111OSM    H7S11462   0.257   3.668   9.823
  111OSM    H7T11463   0.389   3.548   9.819
  111OSM    C8S11464   0.415   3.734   9.698
  111OSM    H8S11465   0.521   3.767   9.689
  111OSM    H8T11466   0.363   3.832   9.697
  111OSM    C9S11467   0.386   3.655   9.570
  111OSM    H9S11468   0.280   3.621   9.568
  111OSM    H9T11469   0.449   3.563   9.569
  111OSM   C10S11470   0.429   3.739   9.446
  111OSM   H10S11471   0.524   3.796   9.457
  111OSM   H10T11472   0.351   3.818   9.435
  111OSM   C11S11473   0.429   3.660   9.316
  111OSM   H11S11474   0.320   3.640   9.299
  111OSM   H11T11475   0.478   3.562   9.335
  111OSM   C12S11476   0.470   3.748   9.200
  111OSM   H12S11477   0.574   3.783   9.213
  111OSM   H12T11478   0.398   3.832   9.191
  111OSM   C13S11479   0.483   3.667   9.065
  111OSM   H13S11480   0.388   3.610   9.053
  111OSM   H13T11481   0.566   3.594   9.072
  111OSM   C14S11482   0.497   3.746   8.941
  111OSM   H14S11483   0.567   3.830   8.960
  111OSM   H14T11484   0.400   3.789   8.907
  111OSM   C15S11485   0.566   3.668   8.823
  111OSM   H15S11486   0.663   3.640   8.868
  111OSM   H15T11487   0.585   3.744   8.744
  111OSM   C16S11488   0.495   3.548   8.777
  111OSM   H16S11489   0.384   3.560   8.785
  111OSM   H16T11490   0.520   3.471   8.853
  111OSM   C17S11491   0.520   3.498   8.631
  111OSM   H17S11492   0.625   3.479   8.603
  111OSM   H17T11493   0.470   3.564   8.557
  111OSM   C18S11494   0.476   3.349   8.621
  111OSM   H18S11495   0.531   3.289   8.697
  111OSM   H18T11496   0.505   3.309   8.522
  111OSM   H18U11497   0.366   3.339   8.637
  111OSM    C1F11498   0.421   3.868  10.434
  111OSM     OF11499   0.516   3.858  10.509
  111OSM    C2F11500   0.357   3.998  10.398
  111OSM    H2F11501   0.343   4.055  10.492
  111OSM    H2G11502   0.260   3.996  10.343
  111OSM    C3F11503   0.441   4.088  10.300
  111OSM    H3F11504   0.538   4.112  10.347
  111OSM    H3G11505   0.381   4.182  10.292
  111OSM    C4F11506   0.457   4.027  10.166
  111OSM    H4F11507   0.377   3.965  10.121
  111OSM    H4G11508   0.531   3.946  10.184
  111OSM    C5F11509   0.520   4.123  10.064
  111OSM    H5F11510   0.612   4.163  10.111
  111OSM    H5G11511   0.442   4.201  10.056
  111OSM    C6F11512   0.559   4.075   9.924
  111OSM    H6F11513   0.480   4.007   9.884
  111OSM    H6G11514   0.649   4.011   9.932
  111OSM    C7F11515   0.589   4.190   9.826
  111OSM    H7F11516   0.661   4.257   9.878
  111OSM    H7G11517   0.501   4.258   9.817
  111OSM    C8F11518   0.647   4.134   9.697
  111OSM    H8F11519   0.718   4.051   9.714
  111OSM    H8G11520   0.704   4.224   9.666
  111OSM    C9F11521   0.539   4.093   9.597
  111OSM    H9F11522   0.486   4.002   9.631
  111OSM   C10F11523   0.504   4.147   9.481
  111OSM   H10F11524   0.421   4.107   9.420
  111OSM   C11F11525   0.595   4.251   9.414
  111OSM   H11F11526   0.696   4.267   9.457
  111OSM   H11G11527   0.535   4.343   9.431
  111OSM   C12F11528   0.611   4.237   9.256
  111OSM   H12F11529   0.649   4.336   9.223
  111OSM   H12G11530   0.511   4.202   9.223
  111OSM   C13F11531   0.711   4.120   9.233
  111OSM   H13F11532   0.654   4.026   9.255
  111OSM   H13G11533   0.802   4.139   9.293
  111OSM   C14F11534   0.762   4.109   9.088
  111OSM   H14F11535   0.809   4.011   9.063
  111OSM   H14G11536   0.839   4.188   9.074
  111OSM   C15F11537   0.661   4.122   8.970
  111OSM   H15F11538   0.593   4.201   9.006
  111OSM   H15G11539   0.604   4.027   8.972
  111OSM   C16F11540   0.735   4.150   8.836
  111OSM   H16F11541   0.822   4.216   8.858
  111OSM   H16G11542   0.685   4.223   8.767
  111OSM   C17F11543   0.804   4.030   8.775
  111OSM   H17F11544   0.726   3.957   8.744
  111OSM   H17G11545   0.874   3.988   8.851
  111OSM   C18F11546   0.872   4.068   8.645
  111OSM   H18F11547   0.885   3.979   8.581
  111OSM   H18G11548   0.968   4.116   8.676
  111OSM   H18H11549   0.810   4.147   8.598
  112OSM      N11550   6.409   1.761  11.242
  112OSM    C1511551   6.436   1.754  11.387
  112OSM   H15A11552   6.393   1.668  11.436
  112OSM   H15B11553   6.406   1.841  11.445
  112OSM   H15C11554   6.542   1.751  11.411
  112OSM    C1411555   6.463   1.897  11.204
  112OSM   H14A11556   6.446   1.920  11.100
  112OSM   H14B11557   6.569   1.904  11.220
  112OSM   H14C11558   6.417   1.976  11.261
  112OSM    C1311559   6.490   1.661  11.168
  112OSM   H13A11560   6.454   1.563  11.197
  112OSM   H13B11561   6.596   1.672  11.184
  112OSM   H13C11562   6.475   1.668  11.061
  112OSM    C1211563   6.258   1.758  11.222
  112OSM   H12A11564   6.216   1.850  11.260
  112OSM   H12B11565   6.219   1.681  11.287
  112OSM    C1111566   6.215   1.755  11.074
  112OSM   H11A11567   6.105   1.746  11.061
  112OSM   H11B11568   6.249   1.660  11.029
  112OSM      P11569   6.261   1.855  10.843
  112OSM    O1311570   6.118   1.866  10.793
  112OSM    O1411571   6.352   1.964  10.798
  112OSM    O1111572   6.338   1.723  10.813
  112OSM    O1211573   6.254   1.872  11.000
  112OSM    C1S11574   6.273   1.619  10.738
  112OSM    H1S11575   6.210   1.664  10.659
  112OSM    H1T11576   6.208   1.551  10.797
  112OSM     NF11577   6.325   1.445  10.568
  112OSM    HNF11578   6.297   1.354  10.599
  112OSM    C2S11579   6.382   1.532  10.677
  112OSM    H2S11580   6.452   1.603  10.628
  112OSM    C3S11581   6.470   1.459  10.783
  112OSM    H3S11582   6.405   1.381  10.828
  112OSM     O311583   6.531   1.544  10.880
  112OSM    HO311584   6.498   1.632  10.862
  112OSM    C4S11585   6.571   1.388  10.706
  112OSM    H4S11586   6.649   1.450  10.659
  112OSM    C5S11587   6.576   1.254  10.682
  112OSM    H5S11588   6.496   1.190  10.720
  112OSM    C6S11589   6.695   1.196  10.616
  112OSM    H6S11590   6.668   1.097  10.573
  112OSM    H6T11591   6.769   1.163  10.692
  112OSM    C7S11592   6.753   1.278  10.493
  112OSM    H7S11593   6.837   1.219  10.450
  112OSM    H7T11594   6.794   1.376  10.526
  112OSM    C8S11595   6.663   1.303  10.373
  112OSM    H8S11596   6.722   1.345  10.288
  112OSM    H8T11597   6.596   1.389  10.394
  112OSM    C9S11598   6.576   1.184  10.329
  112OSM    H9S11599   6.519   1.151  10.419
  112OSM    H9T11600   6.640   1.100  10.295
  112OSM   C10S11601   6.472   1.216  10.222
  112OSM   H10S11602   6.405   1.301  10.247
  112OSM   H10T11603   6.396   1.134  10.227
  112OSM   C11S11604   6.544   1.225  10.088
  112OSM   H11S11605   6.616   1.141  10.081
  112OSM   H11T11606   6.593   1.325  10.085
  112OSM   C12S11607   6.443   1.203   9.970
  112OSM   H12S11608   6.363   1.280   9.967
  112OSM   H12T11609   6.377   1.117   9.991
  112OSM   C13S11610   6.511   1.171   9.831
  112OSM   H13S11611   6.577   1.082   9.847
  112OSM   H13T11612   6.568   1.265   9.811
  112OSM   C14S11613   6.412   1.137   9.713
  112OSM   H14S11614   6.357   1.233   9.709
  112OSM   H14T11615   6.337   1.062   9.745
  112OSM   C15S11616   6.475   1.116   9.575
  112OSM   H15S11617   6.549   1.035   9.593
  112OSM   H15T11618   6.534   1.206   9.548
  112OSM   C16S11619   6.384   1.064   9.464
  112OSM   H16S11620   6.300   1.136   9.450
  112OSM   H16T11621   6.335   0.969   9.496
  112OSM   C17S11622   6.459   1.057   9.335
  112OSM   H17S11623   6.566   1.031   9.351
  112OSM   H17T11624   6.449   1.163   9.303
  112OSM   C18S11625   6.396   0.966   9.227
  112OSM   H18S11626   6.394   0.863   9.268
  112OSM   H18T11627   6.450   0.960   9.129
  112OSM   H18U11628   6.291   0.994   9.206
  112OSM    C1F11629   6.268   1.487  10.452
  112OSM     OF11630   6.311   1.592  10.409
  112OSM    C2F11631   6.169   1.399  10.375
  112OSM    H2F11632   6.072   1.402  10.430
  112OSM    H2G11633   6.202   1.293  10.369
  112OSM    C3F11634   6.138   1.459  10.228
  112OSM    H3F11635   6.238   1.484  10.186
  112OSM    H3G11636   6.084   1.553  10.248
  112OSM    C4F11637   6.069   1.357  10.138
  112OSM    H4F11638   5.975   1.338  10.193
  112OSM    H4G11639   6.118   1.259  10.155
  112OSM    C5F11640   6.046   1.401   9.997
  112OSM    H5F11641   6.142   1.394   9.942
  112OSM    H5G11642   6.012   1.507   9.997
  112OSM    C6F11643   5.955   1.305   9.927
  112OSM    H6F11644   5.860   1.292   9.984
  112OSM    H6G11645   5.990   1.200   9.933
  112OSM    C7F11646   5.940   1.342   9.780
  112OSM    H7F11647   5.892   1.262   9.719
  112OSM    H7G11648   6.042   1.334   9.737
  112OSM    C8F11649   5.889   1.480   9.748
  112OSM    H8F11650   5.967   1.550   9.785
  112OSM    H8G11651   5.794   1.496   9.802
  112OSM    C9F11652   5.874   1.499   9.598
  112OSM    H9F11653   5.773   1.505   9.555
  112OSM   C10F11654   5.979   1.509   9.516
  112OSM   H10F11655   5.948   1.537   9.414
  112OSM   C11F11656   6.131   1.511   9.540
  112OSM   H11F11657   6.162   1.500   9.646
  112OSM   H11G11658   6.169   1.605   9.495
  112OSM   C12F11659   6.189   1.397   9.459
  112OSM   H12F11660   6.149   1.304   9.504
  112OSM   H12G11661   6.300   1.408   9.461
  112OSM   C13F11662   6.157   1.397   9.311
  112OSM   H13F11663   6.049   1.370   9.307
  112OSM   H13G11664   6.215   1.326   9.247
  112OSM   C14F11665   6.163   1.525   9.234
  112OSM   H14F11666   6.258   1.577   9.258
  112OSM   H14G11667   6.074   1.590   9.253
  112OSM   C15F11668   6.155   1.505   9.077
  112OSM   H15F11669   6.061   1.468   9.033
  112OSM   H15G11670   6.218   1.414   9.065
  112OSM   C16F11671   6.211   1.618   8.989
  112OSM   H16F11672   6.308   1.643   9.036
  112OSM   H16G11673   6.138   1.701   8.979
  112OSM   C17F11674   6.261   1.573   8.855
  112OSM   H17F11675   6.307   1.666   8.814
  112OSM   H17G11676   6.170   1.544   8.797
  112OSM   C18F11677   6.374   1.468   8.840
  112OSM   H18F11678   6.343   1.369   8.877
  112OSM   H18G11679   6.463   1.506   8.895
  112OSM   H18H11680   6.401   1.451   8.733
  113OSM      N11681   0.229   0.438  11.131
  113OSM    C1511682   0.335   0.341  11.076
  113OSM   H15A11683   0.368   0.371  10.978
  113OSM   H15B11684   0.293   0.242  11.072
  113OSM   H15C11685   0.423   0.335  11.138
  113OSM    C1411686   0.176   0.387  11.258
  113OSM   H14A11687   0.118   0.295  11.259
  113OSM   H14B11688   0.118   0.459  11.313
  113OSM   H14C11689   0.261   0.363  11.320
  113OSM    C1311690   0.299   0.567  11.161
  113OSM   H13A11691   0.225   0.643  11.183
  113OSM   H13B11692   0.365   0.592  11.079
  113OSM   H13C11693   0.351   0.558  11.255
  113OSM    C1211694   0.113   0.449  11.030
  113OSM   H12A11695   0.055   0.532  11.068
  113OSM   H12B11696   0.047   0.364  11.042
  113OSM    C1111697   0.136   0.465  10.875
  113OSM   H11A11698   0.046   0.472  10.809
  113OSM   H11B11699   0.175   0.364  10.849
  113OSM      P11700   0.217   0.708  10.866
  113OSM    O1311701   0.097   0.732  10.949
  113OSM    O1411702   0.349   0.777  10.897
  113OSM    O1111703   0.169   0.756  10.719
  113OSM    O1211704   0.245   0.556  10.849
  113OSM    C1S11705   0.235   0.684  10.612
  113OSM    H1S11706   0.188   0.585  10.592
  113OSM    H1T11707   0.343   0.662  10.628
  113OSM     NF11708   0.268   0.675  10.369
  113OSM    HNF11709   0.366   0.690  10.359
  113OSM    C2S11710   0.208   0.747  10.480
  113OSM    H2S11711   0.098   0.751  10.465
  113OSM    C3S11712   0.240   0.894  10.485
  113OSM    H3S11713   0.348   0.915  10.497
  113OSM     O311714   0.163   0.970  10.571
  113OSM    HO311715   0.128   0.909  10.637
  113OSM    C4S11716   0.218   0.954  10.352
  113OSM    H4S11717   0.111   0.964  10.328
  113OSM    C5S11718   0.305   0.984  10.251
  113OSM    H5S11719   0.414   0.970  10.265
  113OSM    C6S11720   0.261   1.038  10.116
  113OSM    H6S11721   0.313   1.131  10.083
  113OSM    H6T11722   0.155   1.066  10.135
  113OSM    C7S11723   0.277   0.943  10.001
  113OSM    H7S11724   0.245   0.841  10.031
  113OSM    H7T11725   0.387   0.947   9.986
  113OSM    C8S11726   0.202   0.992   9.875
  113OSM    H8S11727   0.211   1.103   9.867
  113OSM    H8T11728   0.095   0.966   9.886
  113OSM    C9S11729   0.276   0.935   9.754
  113OSM    H9S11730   0.277   0.824   9.748
  113OSM    H9T11731   0.386   0.955   9.754
  113OSM   C10S11732   0.231   1.002   9.623
  113OSM   H10S11733   0.308   0.974   9.549
  113OSM   H10T11734   0.238   1.113   9.630
  113OSM   C11S11735   0.091   0.961   9.575
  113OSM   H11S11736   0.012   0.987   9.649
  113OSM   H11T11737   0.083   0.851   9.561
  113OSM   C12S11738   0.051   1.030   9.445
  113OSM   H12S11739   0.075   1.138   9.441
  113OSM   H12T11740  -0.059   1.021   9.432
  113OSM   C13S11741   0.113   0.959   9.323
  113OSM   H13S11742   0.057   0.868   9.292
  113OSM   H13T11743   0.218   0.938   9.351
  113OSM   C14S11744   0.104   1.054   9.195
  113OSM   H14S11745   0.164   0.997   9.120
  113OSM   H14T11746   0.159   1.150   9.213
  113OSM   C15S11747  -0.039   1.084   9.145
  113OSM   H15S11748  -0.091   1.150   9.217
  113OSM   H15T11749  -0.099   0.991   9.138
  113OSM   C16S11750  -0.041   1.135   9.000
  113OSM   H16S11751   0.065   1.126   8.967
  113OSM   H16T11752  -0.074   1.241   9.002
  113OSM   C17S11753  -0.114   1.045   8.908
  113OSM   H17S11754  -0.220   1.067   8.932
  113OSM   H17T11755  -0.107   0.935   8.918
  113OSM   C18S11756  -0.077   1.068   8.758
  113OSM   H18S11757  -0.068   1.177   8.738
  113OSM   H18T11758  -0.158   1.017   8.702
  113OSM   H18U11759   0.017   1.017   8.729
  113OSM    C1F11760   0.224   0.565  10.309
  113OSM     OF11761   0.128   0.502  10.343
  113OSM    C2F11762   0.310   0.514  10.196
  113OSM    H2F11763   0.247   0.488  10.109
  113OSM    H2G11764   0.360   0.422  10.232
  113OSM    C3F11765   0.424   0.608  10.158
  113OSM    H3F11766   0.499   0.621  10.239
  113OSM    H3G11767   0.386   0.711  10.141
  113OSM    C4F11768   0.495   0.569  10.031
  113OSM    H4F11769   0.546   0.663  10.001
  113OSM    H4G11770   0.422   0.554   9.949
  113OSM    C5F11771   0.592   0.454  10.023
  113OSM    H5F11772   0.659   0.460  10.112
  113OSM    H5G11773   0.658   0.459   9.934
  113OSM    C6F11774   0.534   0.310  10.020
  113OSM    H6F11775   0.492   0.291  10.121
  113OSM    H6G11776   0.619   0.239  10.024
  113OSM    C7F11777   0.432   0.283   9.910
  113OSM    H7F11778   0.358   0.364   9.928
  113OSM    H7G11779   0.385   0.183   9.924
  113OSM    C8F11780   0.481   0.293   9.770
  113OSM    H8F11781   0.525   0.394   9.773
  113OSM    H8G11782   0.391   0.295   9.704
  113OSM    C9F11783   0.585   0.190   9.736
  113OSM    H9F11784   0.692   0.212   9.751
  113OSM   C10F11785   0.551   0.077   9.672
  113OSM   H10F11786   0.631   0.010   9.639
  113OSM   C11F11787   0.414   0.027   9.645
  113OSM   H11F11788   0.343   0.085   9.708
  113OSM   H11G11789   0.415  -0.075   9.688
  113OSM   C12F11790   0.360   0.020   9.499
  113OSM   H12F11791   0.429  -0.045   9.440
  113OSM   H12G11792   0.375   0.120   9.455
  113OSM   C13F11793   0.214  -0.018   9.489
  113OSM   H13F11794   0.178  -0.014   9.384
  113OSM   H13G11795   0.154   0.044   9.559
  113OSM   C14F11796   0.189  -0.164   9.530
  113OSM   H14F11797   0.085  -0.173   9.567
  113OSM   H14G11798   0.254  -0.179   9.619
  113OSM   C15F11799   0.226  -0.252   9.406
  113OSM   H15F11800   0.324  -0.221   9.365
  113OSM   H15G11801   0.155  -0.232   9.323
  113OSM   C16F11802   0.215  -0.407   9.426
  113OSM   H16F11803   0.124  -0.455   9.467
  113OSM   H16G11804   0.301  -0.439   9.489
  113OSM   C17F11805   0.223  -0.489   9.293
  113OSM   H17F11806   0.245  -0.594   9.322
  113OSM   H17G11807   0.310  -0.457   9.232
  113OSM   C18F11808   0.096  -0.478   9.210
  113OSM   H18F11809   0.090  -0.371   9.179
  113OSM   H18G11810   0.012  -0.515   9.272
  113OSM   H18H11811   0.100  -0.534   9.114
  114OSM      N11812   0.939   6.393  11.747
  114OSM    C1511813   0.862   6.304  11.845
  114OSM   H15A11814   0.866   6.337  11.947
  114OSM   H15B11815   0.908   6.207  11.843
  114OSM   H15C11816   0.758   6.311  11.815
  114OSM    C1411817   0.923   6.533  11.792
  114OSM   H14A11818   0.822   6.568  11.781
  114OSM   H14B11819   0.978   6.595  11.723
  114OSM   H14C11820   0.959   6.561  11.890
  114OSM    C1311821   1.084   6.356  11.768
  114OSM   H13A11822   1.112   6.382  11.869
  114OSM   H13B11823   1.130   6.422  11.696
  114OSM   H13C11824   1.105   6.251  11.751
  114OSM    C1211825   0.890   6.372  11.609
  114OSM   H12A11826   0.908   6.271  11.577
  114OSM   H12B11827   0.949   6.432  11.541
  114OSM    C1111828   0.749   6.420  11.557
  114OSM   H11A11829   0.740   6.418  11.446
  114OSM   H11B11830   0.733   6.525  11.588
  114OSM      P11831   0.495   6.354  11.573
  114OSM    O1311832   0.415   6.312  11.689
  114OSM    O1411833   0.469   6.490  11.526
  114OSM    O1111834   0.464   6.260  11.452
  114OSM    O1211835   0.653   6.325  11.604
  114OSM    C1S11836   0.532   6.265  11.320
  114OSM    H1S11837   0.630   6.213  11.313
  114OSM    H1T11838   0.545   6.372  11.291
  114OSM     NF11839   0.521   6.210  11.081
  114OSM    HNF11840   0.496   6.287  11.022
  114OSM    C2S11841   0.446   6.204  11.210
  114OSM    H2S11842   0.428   6.096  11.228
  114OSM    C3S11843   0.303   6.272  11.202
  114OSM    H3S11844   0.330   6.378  11.182
  114OSM     O311845   0.225   6.268  11.327
  114OSM    HO311846   0.294   6.263  11.394
  114OSM    C4S11847   0.222   6.216  11.083
  114OSM    H4S11848   0.218   6.107  11.078
  114OSM    C5S11849   0.184   6.294  10.980
  114OSM    H5S11850   0.196   6.402  10.962
  114OSM    C6S11851   0.110   6.242  10.858
  114OSM    H6S11852   0.022   6.308  10.838
  114OSM    H6T11853   0.086   6.134  10.866
  114OSM    C7S11854   0.200   6.257  10.737
  114OSM    H7S11855   0.242   6.359  10.728
  114OSM    H7T11856   0.129   6.227  10.657
  114OSM    C8S11857   0.313   6.149  10.736
  114OSM    H8S11858   0.266   6.049  10.752
  114OSM    H8T11859   0.386   6.164  10.819
  114OSM    C9S11860   0.387   6.144  10.599
  114OSM    H9S11861   0.309   6.138  10.520
  114OSM    H9T11862   0.457   6.058  10.607
  114OSM   C10S11863   0.479   6.261  10.581
  114OSM   H10S11864   0.534   6.270  10.677
  114OSM   H10T11865   0.423   6.353  10.556
  114OSM   C11S11866   0.593   6.235  10.477
  114OSM   H11S11867   0.555   6.197  10.380
  114OSM   H11T11868   0.664   6.160  10.519
  114OSM   C12S11869   0.675   6.359  10.449
  114OSM   H12S11870   0.735   6.393  10.536
  114OSM   H12T11871   0.613   6.446  10.419
  114OSM   C13S11872   0.781   6.324  10.337
  114OSM   H13S11873   0.830   6.417  10.300
  114OSM   H13T11874   0.734   6.269  10.253
  114OSM   C14S11875   0.898   6.235  10.379
  114OSM   H14S11876   0.860   6.139  10.421
  114OSM   H14T11877   0.958   6.277  10.463
  114OSM   C15S11878   1.002   6.201  10.266
  114OSM   H15S11879   1.011   6.283  10.192
  114OSM   H15T11880   0.963   6.128  10.192
  114OSM   C16S11881   1.144   6.176  10.316
  114OSM   H16S11882   1.153   6.189  10.426
  114OSM   H16T11883   1.208   6.256  10.273
  114OSM   C17S11884   1.197   6.046  10.271
  114OSM   H17S11885   1.299   6.042  10.314
  114OSM   H17T11886   1.195   6.034  10.161
  114OSM   C18S11887   1.123   5.927  10.336
  114OSM   H18S11888   1.135   5.942  10.445
  114OSM   H18T11889   1.170   5.832  10.305
  114OSM   H18U11890   1.018   5.923  10.299
  114OSM    C1F11891   0.630   6.140  11.055
  114OSM     OF11892   0.648   6.027  11.109
  114OSM    C2F11893   0.723   6.211  10.965
  114OSM    H2F11894   0.796   6.264  11.030
  114OSM    H2G11895   0.664   6.283  10.905
  114OSM    C3F11896   0.794   6.117  10.875
  114OSM    H3F11897   0.717   6.064  10.814
  114OSM    H3G11898   0.838   6.030  10.929
  114OSM    C4F11899   0.899   6.177  10.781
  114OSM    H4F11900   0.862   6.252  10.709
  114OSM    H4G11901   0.931   6.090  10.719
  114OSM    C5F11902   1.020   6.226  10.862
  114OSM    H5F11903   1.045   6.137  10.924
  114OSM    H5G11904   0.984   6.310  10.925
  114OSM    C6F11905   1.136   6.262  10.773
  114OSM    H6F11906   1.103   6.334  10.695
  114OSM    H6G11907   1.167   6.174  10.713
  114OSM    C7F11908   1.260   6.320  10.848
  114OSM    H7F11909   1.292   6.254  10.931
  114OSM    H7G11910   1.234   6.414  10.900
  114OSM    C8F11911   1.372   6.341  10.748
  114OSM    H8F11912   1.460   6.390  10.795
  114OSM    H8G11913   1.329   6.412  10.675
  114OSM    C9F11914   1.424   6.214  10.694
  114OSM    H9F11915   1.440   6.138  10.771
  114OSM   C10F11916   1.464   6.187  10.564
  114OSM   H10F11917   1.502   6.085  10.552
  114OSM   C11F11918   1.439   6.279  10.445
  114OSM   H11F11919   1.340   6.329  10.446
  114OSM   H11G11920   1.442   6.221  10.350
  114OSM   C12F11921   1.556   6.381  10.439
  114OSM   H12F11922   1.658   6.337  10.437
  114OSM   H12G11923   1.555   6.447  10.529
  114OSM   C13F11924   1.545   6.470  10.318
  114OSM   H13F11925   1.621   6.551  10.319
  114OSM   H13G11926   1.447   6.523  10.321
  114OSM   C14F11927   1.582   6.404  10.185
  114OSM   H14F11928   1.511   6.321  10.169
  114OSM   H14G11929   1.683   6.358  10.183
  114OSM   C15F11930   1.573   6.495  10.070
  114OSM   H15F11931   1.614   6.595  10.094
  114OSM   H15G11932   1.470   6.515  10.034
  114OSM   C16F11933   1.669   6.445   9.949
  114OSM   H16F11934   1.647   6.336   9.939
  114OSM   H16G11935   1.772   6.446   9.991
  114OSM   C17F11936   1.664   6.525   9.821
  114OSM   H17F11937   1.692   6.630   9.844
  114OSM   H17G11938   1.560   6.530   9.784
  114OSM   C18F11939   1.750   6.469   9.711
  114OSM   H18F11940   1.740   6.359   9.709
  114OSM   H18G11941   1.857   6.495   9.727
  114OSM   H18H11942   1.715   6.513   9.615
  115OSM      N11943   2.641   3.203   5.759
  115OSM    C1511944   2.504   3.160   5.719
  115OSM   H15A11945   2.445   3.242   5.680
  115OSM   H15B11946   2.459   3.109   5.802
  115OSM   H15C11947   2.518   3.081   5.647
  115OSM    C1411948   2.728   3.086   5.765
  115OSM   H14A11949   2.690   3.015   5.837
  115OSM   H14B11950   2.828   3.119   5.792
  115OSM   H14C11951   2.733   3.029   5.674
  115OSM    C1311952   2.684   3.291   5.651
  115OSM   H13A11953   2.651   3.393   5.664
  115OSM   H13B11954   2.650   3.254   5.556
  115OSM   H13C11955   2.792   3.294   5.637
  115OSM    C1211956   2.624   3.280   5.890
  115OSM   H12A11957   2.542   3.351   5.889
  115OSM   H12B11958   2.714   3.337   5.912
  115OSM    C1111959   2.612   3.193   6.016
  115OSM   H11A11960   2.704   3.130   6.013
  115OSM   H11B11961   2.524   3.125   6.007
  115OSM      P11962   2.465   3.296   6.208
  115OSM    O1311963   2.460   3.431   6.273
  115OSM    O1411964   2.347   3.261   6.123
  115OSM    O1111965   2.473   3.178   6.312
  115OSM    O1211966   2.597   3.290   6.125
  115OSM    C1S11967   2.598   3.155   6.376
  115OSM    H1S11968   2.689   3.185   6.319
  115OSM    H1T11969   2.617   3.046   6.380
  115OSM     NF11970   2.723   3.131   6.586
  115OSM    HNF11971   2.710   3.057   6.651
  115OSM    C2S11972   2.599   3.192   6.530
  115OSM    H2S11973   2.604   3.302   6.545
  115OSM    C3S11974   2.477   3.145   6.609
  115OSM    H3S11975   2.480   3.038   6.637
  115OSM     O311976   2.355   3.149   6.536
  115OSM    HO311977   2.387   3.155   6.445
  115OSM    C4S11978   2.464   3.221   6.737
  115OSM    H4S11979   2.523   3.184   6.822
  115OSM    C5S11980   2.393   3.331   6.764
  115OSM    H5S11981   2.338   3.390   6.689
  115OSM    C6S11982   2.381   3.408   6.886
  115OSM    H6S11983   2.423   3.507   6.860
  115OSM    H6T11984   2.443   3.377   6.974
  115OSM    C7S11985   2.239   3.423   6.931
  115OSM    H7S11986   2.209   3.317   6.946
  115OSM    H7T11987   2.176   3.476   6.857
  115OSM    C8S11988   2.228   3.494   7.068
  115OSM    H8S11989   2.121   3.480   7.095
  115OSM    H8T11990   2.245   3.604   7.061
  115OSM    C9S11991   2.316   3.442   7.187
  115OSM    H9S11992   2.424   3.463   7.174
  115OSM    H9T11993   2.308   3.331   7.188
  115OSM   C10S11994   2.262   3.486   7.325
  115OSM   H10S11995   2.151   3.477   7.322
  115OSM   H10T11996   2.284   3.595   7.332
  115OSM   C11S11997   2.327   3.421   7.451
  115OSM   H11S11998   2.438   3.422   7.442
  115OSM   H11T11999   2.303   3.313   7.453
  115OSM   C12S12000   2.297   3.495   7.572
  115OSM   H12S12001   2.190   3.525   7.576
  115OSM   H12T12002   2.364   3.584   7.574
  115OSM   C13S12003   2.332   3.409   7.697
  115OSM   H13S12004   2.431   3.360   7.692
  115OSM   H13T12005   2.251   3.334   7.710
  115OSM   C14S12006   2.339   3.495   7.818
  115OSM   H14S12007   2.250   3.559   7.837
  115OSM   H14T12008   2.421   3.568   7.806
  115OSM   C15S12009   2.384   3.435   7.955
  115OSM   H15S12010   2.405   3.528   8.012
  115OSM   H15T12011   2.475   3.375   7.934
  115OSM   C16S12012   2.289   3.342   8.025
  115OSM   H16S12013   2.292   3.249   7.965
  115OSM   H16T12014   2.188   3.385   8.016
  115OSM   C17S12015   2.334   3.298   8.166
  115OSM   H17S12016   2.369   3.387   8.223
  115OSM   H17T12017   2.426   3.237   8.154
  115OSM   C18S12018   2.230   3.215   8.242
  115OSM   H18S12019   2.251   3.174   8.343
  115OSM   H18T12020   2.208   3.122   8.185
  115OSM   H18U12021   2.128   3.258   8.248
  115OSM    C1F12022   2.850   3.157   6.554
  115OSM     OF12023   2.877   3.244   6.473
  115OSM    C2F12024   2.949   3.077   6.634
  115OSM    H2F12025   3.014   3.035   6.554
  115OSM    H2G12026   2.900   2.996   6.693
  115OSM    C3F12027   3.030   3.171   6.723
  115OSM    H3F12028   3.077   3.246   6.656
  115OSM    H3G12029   3.097   3.095   6.771
  115OSM    C4F12030   2.952   3.244   6.833
  115OSM    H4F12031   2.888   3.321   6.785
  115OSM    H4G12032   3.028   3.302   6.890
  115OSM    C5F12033   2.874   3.159   6.935
  115OSM    H5F12034   2.950   3.101   6.991
  115OSM    H5G12035   2.793   3.107   6.880
  115OSM    C6F12036   2.803   3.253   7.036
  115OSM    H6F12037   2.720   3.313   6.992
  115OSM    H6G12038   2.876   3.325   7.079
  115OSM    C7F12039   2.755   3.170   7.152
  115OSM    H7F12040   2.838   3.104   7.186
  115OSM    H7G12041   2.668   3.108   7.122
  115OSM    C8F12042   2.697   3.254   7.261
  115OSM    H8F12043   2.617   3.319   7.220
  115OSM    H8G12044   2.785   3.310   7.299
  115OSM    C9F12045   2.651   3.178   7.379
  115OSM    H9F12046   2.579   3.097   7.362
  115OSM   C10F12047   2.698   3.181   7.506
  115OSM   H10F12048   2.654   3.101   7.568
  115OSM   C11F12049   2.792   3.288   7.562
  115OSM   H11F12050   2.789   3.377   7.496
  115OSM   H11G12051   2.895   3.248   7.557
  115OSM   C12F12052   2.771   3.324   7.707
  115OSM   H12F12053   2.673   3.372   7.728
  115OSM   H12G12054   2.843   3.406   7.727
  115OSM   C13F12055   2.798   3.195   7.791
  115OSM   H13F12056   2.889   3.142   7.755
  115OSM   H13G12057   2.711   3.127   7.778
  115OSM   C14F12058   2.811   3.226   7.941
  115OSM   H14F12059   2.713   3.264   7.980
  115OSM   H14G12060   2.890   3.304   7.946
  115OSM   C15F12061   2.874   3.098   8.015
  115OSM   H15F12062   2.970   3.061   7.975
  115OSM   H15G12063   2.799   3.016   8.004
  115OSM   C16F12064   2.892   3.119   8.162
  115OSM   H16F12065   2.801   3.142   8.221
  115OSM   H16G12066   2.977   3.190   8.174
  115OSM   C17F12067   2.941   2.987   8.231
  115OSM   H17F12068   3.018   2.932   8.174
  115OSM   H17G12069   2.843   2.935   8.226
  115OSM   C18F12070   2.997   3.005   8.375
  115OSM   H18F12071   2.918   3.061   8.429
  115OSM   H18G12072   3.088   3.069   8.387
  115OSM   H18H12073   3.022   2.909   8.426
  116OSM      N12074   1.884   1.063   6.025
  116OSM    C1512075   1.816   1.061   5.895
  116OSM   H15A12076   1.711   1.078   5.914
  116OSM   H15B12077   1.823   0.969   5.840
  116OSM   H15C12078   1.850   1.149   5.842
  116OSM    C1412079   2.025   1.031   6.001
  116OSM   H14A12080   2.064   1.088   5.918
  116OSM   H14B12081   2.016   0.927   5.972
  116OSM   H14C12082   2.095   1.032   6.083
  116OSM    C1312083   1.890   1.202   6.082
  116OSM   H13A12084   1.913   1.271   6.002
  116OSM   H13B12085   1.959   1.215   6.164
  116OSM   H13C12086   1.795   1.238   6.118
  116OSM    C1212087   1.823   0.963   6.125
  116OSM   H12A12088   1.722   1.000   6.142
  116OSM   H12B12089   1.875   0.966   6.220
  116OSM    C1112090   1.813   0.813   6.077
  116OSM   H11A12091   1.751   0.798   5.986
  116OSM   H11B12092   1.751   0.772   6.159
  116OSM      P12093   2.027   0.682   6.166
  116OSM    O1312094   2.015   0.533   6.154
  116OSM    O1412095   2.159   0.739   6.152
  116OSM    O1112096   1.961   0.744   6.300
  116OSM    O1212097   1.941   0.753   6.051
  116OSM    C1S12098   1.949   0.657   6.414
  116OSM    H1S12099   2.042   0.598   6.432
  116OSM    H1T12100   1.873   0.579   6.392
  116OSM     NF12101   1.947   0.648   6.661
  116OSM    HNF12102   1.873   0.607   6.714
  116OSM    C2S12103   1.904   0.727   6.544
  116OSM    H2S12104   1.950   0.828   6.549
  116OSM    C3S12105   1.750   0.762   6.538
  116OSM    H3S12106   1.696   0.665   6.539
  116OSM     O312107   1.712   0.823   6.417
  116OSM    HO312108   1.790   0.828   6.362
  116OSM    C4S12109   1.703   0.842   6.655
  116OSM    H4S12110   1.766   0.927   6.687
  116OSM    C5S12111   1.590   0.828   6.722
  116OSM    H5S12112   1.522   0.745   6.697
  116OSM    C6S12113   1.540   0.923   6.827
  116OSM    H6S12114   1.432   0.937   6.808
  116OSM    H6T12115   1.592   1.021   6.821
  116OSM    C7S12116   1.551   0.856   6.964
  116OSM    H7S12117   1.645   0.802   6.989
  116OSM    H7T12118   1.477   0.772   6.965
  116OSM    C8S12119   1.504   0.938   7.078
  116OSM    H8S12120   1.403   0.974   7.051
  116OSM    H8T12121   1.580   1.019   7.087
  116OSM    C9S12122   1.504   0.853   7.210
  116OSM    H9S12123   1.609   0.851   7.248
  116OSM    H9T12124   1.459   0.752   7.200
  116OSM   C10S12125   1.410   0.924   7.318
  116OSM   H10S12126   1.309   0.884   7.295
  116OSM   H10T12127   1.427   1.033   7.301
  116OSM   C11S12128   1.441   0.876   7.451
  116OSM   H11S12129   1.547   0.899   7.473
  116OSM   H11T12130   1.433   0.765   7.450
  116OSM   C12S12131   1.336   0.926   7.555
  116OSM   H12S12132   1.228   0.917   7.531
  116OSM   H12T12133   1.344   1.037   7.559
  116OSM   C13S12134   1.349   0.858   7.688
  116OSM   H13S12135   1.453   0.857   7.725
  116OSM   H13T12136   1.327   0.749   7.680
  116OSM   C14S12137   1.261   0.917   7.795
  116OSM   H14S12138   1.162   0.866   7.782
  116OSM   H14T12139   1.244   1.025   7.778
  116OSM   C15S12140   1.318   0.896   7.931
  116OSM   H15S12141   1.418   0.946   7.936
  116OSM   H15T12142   1.332   0.789   7.958
  116OSM   C16S12143   1.216   0.948   8.030
  116OSM   H16S12144   1.114   0.926   7.990
  116OSM   H16T12145   1.220   1.059   8.036
  116OSM   C17S12146   1.217   0.886   8.169
  116OSM   H17S12147   1.197   0.777   8.181
  116OSM   H17T12148   1.134   0.931   8.227
  116OSM   C18S12149   1.349   0.902   8.245
  116OSM   H18S12150   1.350   0.858   8.347
  116OSM   H18T12151   1.360   1.012   8.258
  116OSM   H18U12152   1.436   0.858   8.193
  116OSM    C1F12153   2.074   0.627   6.681
  116OSM     OF12154   2.154   0.680   6.609
  116OSM    C2F12155   2.110   0.538   6.795
  116OSM    H2F12156   2.186   0.465   6.757
  116OSM    H2G12157   2.015   0.493   6.831
  116OSM    C3F12158   2.187   0.619   6.900
  116OSM    H3F12159   2.125   0.703   6.940
  116OSM    H3G12160   2.284   0.660   6.867
  116OSM    C4F12161   2.233   0.534   7.025
  116OSM    H4F12162   2.329   0.487   6.995
  116OSM    H4G12163   2.165   0.449   7.045
  116OSM    C5F12164   2.234   0.616   7.153
  116OSM    H5F12165   2.180   0.713   7.148
  116OSM    H5G12166   2.337   0.646   7.179
  116OSM    C6F12167   2.195   0.531   7.284
  116OSM    H6F12168   2.258   0.440   7.295
  116OSM    H6G12169   2.087   0.509   7.268
  116OSM    C7F12170   2.205   0.624   7.405
  116OSM    H7F12171   2.142   0.599   7.493
  116OSM    H7G12172   2.164   0.722   7.371
  116OSM    C8F12173   2.347   0.634   7.461
  116OSM    H8F12174   2.416   0.650   7.376
  116OSM    H8G12175   2.372   0.533   7.500
  116OSM    C9F12176   2.372   0.733   7.562
  116OSM    H9F12177   2.413   0.827   7.522
  116OSM   C10F12178   2.363   0.721   7.700
  116OSM   H10F12179   2.390   0.806   7.765
  116OSM   C11F12180   2.333   0.594   7.773
  116OSM   H11F12181   2.428   0.559   7.819
  116OSM   H11G12182   2.286   0.514   7.711
  116OSM   C12F12183   2.236   0.627   7.887
  116OSM   H12F12184   2.129   0.636   7.858
  116OSM   H12G12185   2.262   0.721   7.940
  116OSM   C13F12186   2.228   0.517   7.994
  116OSM   H13F12187   2.327   0.506   8.042
  116OSM   H13G12188   2.212   0.426   7.932
  116OSM   C14F12189   2.128   0.537   8.116
  116OSM   H14F12190   2.026   0.544   8.074
  116OSM   H14G12191   2.141   0.632   8.173
  116OSM   C15F12192   2.138   0.433   8.230
  116OSM   H15F12193   2.239   0.451   8.271
  116OSM   H15G12194   2.131   0.326   8.200
  116OSM   C16F12195   2.037   0.470   8.340
  116OSM   H16F12196   1.943   0.433   8.295
  116OSM   H16G12197   2.030   0.581   8.339
  116OSM   C17F12198   2.065   0.425   8.485
  116OSM   H17F12199   2.162   0.474   8.510
  116OSM   H17G12200   2.065   0.314   8.489
  116OSM   C18F12201   1.959   0.482   8.578
  116OSM   H18F12202   1.976   0.441   8.680
  116OSM   H18G12203   1.862   0.460   8.530
  116OSM   H18H12204   1.972   0.593   8.583
  117OSM      N12205   0.318   2.892   6.054
  117OSM    C1512206   0.339   2.992   5.946
  117OSM   H15A12207   0.365   2.944   5.853
  117OSM   H15B12208   0.415   3.064   5.974
  117OSM   H15C12209   0.242   3.038   5.935
  117OSM    C1412210   0.294   2.969   6.184
  117OSM   H14A12211   0.370   3.043   6.206
  117OSM   H14B12212   0.275   2.902   6.266
  117OSM   H14C12213   0.203   3.027   6.177
  117OSM    C1312214   0.196   2.816   6.027
  117OSM   H13A12215   0.117   2.889   6.025
  117OSM   H13B12216   0.166   2.741   6.099
  117OSM   H13C12217   0.203   2.769   5.930
  117OSM    C1212218   0.439   2.801   6.056
  117OSM   H12A12219   0.448   2.751   5.960
  117OSM   H12B12220   0.415   2.738   6.140
  117OSM    C1112221   0.583   2.865   6.073
  117OSM   H11A12222   0.607   2.926   5.983
  117OSM   H11B12223   0.654   2.779   6.078
  117OSM      P12224   0.643   2.853   6.325
  117OSM    O1312225   0.772   2.781   6.313
  117OSM    O1412226   0.615   2.951   6.439
  117OSM    O1112227   0.530   2.747   6.339
  117OSM    O1212228   0.602   2.926   6.194
  117OSM    C1S12229   0.539   2.643   6.450
  117OSM    H1S12230   0.645   2.618   6.471
  117OSM    H1T12231   0.497   2.549   6.410
  117OSM     NF12232   0.493   2.596   6.688
  117OSM    HNF12233   0.424   2.533   6.723
  117OSM    C2S12234   0.466   2.687   6.577
  117OSM    H2S12235   0.505   2.786   6.609
  117OSM    C3S12236   0.313   2.717   6.543
  117OSM    H3S12237   0.272   2.617   6.518
  117OSM     O312238   0.299   2.814   6.434
  117OSM    HO312239   0.381   2.799   6.388
  117OSM    C4S12240   0.253   2.765   6.668
  117OSM    H4S12241   0.261   2.693   6.750
  117OSM    C5S12242   0.191   2.881   6.685
  117OSM    H5S12243   0.192   2.949   6.599
  117OSM    C6S12244   0.124   2.929   6.814
  117OSM    H6S12245   0.014   2.935   6.801
  117OSM    H6T12246   0.165   3.031   6.833
  117OSM    C7S12247   0.157   2.846   6.935
  117OSM    H7S12248   0.267   2.852   6.954
  117OSM    H7T12249   0.147   2.737   6.920
  117OSM    C8S12250   0.079   2.886   7.063
  117OSM    H8S12251  -0.022   2.842   7.048
  117OSM    H8T12252   0.077   2.996   7.071
  117OSM    C9S12253   0.138   2.829   7.200
  117OSM    H9S12254   0.231   2.872   7.241
  117OSM    H9T12255   0.140   2.717   7.202
  117OSM   C10S12256   0.035   2.880   7.302
  117OSM   H10S12257  -0.067   2.848   7.273
  117OSM   H10T12258   0.011   2.989   7.294
  117OSM   C11S12259   0.069   2.839   7.442
  117OSM   H11S12260   0.168   2.886   7.460
  117OSM   H11T12261   0.090   2.731   7.457
  117OSM   C12S12262  -0.021   2.899   7.544
  117OSM   H12S12263  -0.125   2.910   7.508
  117OSM   H12T12264   0.012   3.002   7.567
  117OSM   C13S12265  -0.017   2.822   7.682
  117OSM   H13S12266   0.086   2.800   7.717
  117OSM   H13T12267  -0.080   2.731   7.665
  117OSM   C14S12268  -0.083   2.904   7.797
  117OSM   H14S12269  -0.191   2.878   7.794
  117OSM   H14T12270  -0.072   3.009   7.765
  117OSM   C15S12271  -0.020   2.880   7.941
  117OSM   H15S12272  -0.028   2.970   8.005
  117OSM   H15T12273   0.089   2.867   7.923
  117OSM   C16S12274  -0.080   2.760   8.004
  117OSM   H16S12275  -0.060   2.669   7.944
  117OSM   H16T12276  -0.191   2.766   8.010
  117OSM   C17S12277  -0.023   2.732   8.148
  117OSM   H17S12278  -0.064   2.811   8.215
  117OSM   H17T12279   0.087   2.732   8.136
  117OSM   C18S12280  -0.067   2.589   8.199
  117OSM   H18S12281  -0.058   2.589   8.310
  117OSM   H18T12282   0.005   2.511   8.166
  117OSM   H18U12283  -0.171   2.561   8.173
  117OSM    C1F12284   0.623   2.595   6.747
  117OSM     OF12285   0.705   2.679   6.706
  117OSM    C2F12286   0.651   2.499   6.867
  117OSM    H2F12287   0.751   2.454   6.850
  117OSM    H2G12288   0.576   2.418   6.873
  117OSM    C3F12289   0.631   2.582   7.003
  117OSM    H3F12290   0.538   2.642   6.992
  117OSM    H3G12291   0.713   2.656   7.008
  117OSM    C4F12292   0.621   2.499   7.131
  117OSM    H4F12293   0.717   2.454   7.164
  117OSM    H4G12294   0.550   2.416   7.114
  117OSM    C5F12295   0.550   2.586   7.239
  117OSM    H5F12296   0.441   2.579   7.220
  117OSM    H5G12297   0.559   2.695   7.219
  117OSM    C6F12298   0.579   2.552   7.387
  117OSM    H6F12299   0.689   2.556   7.392
  117OSM    H6G12300   0.547   2.446   7.388
  117OSM    C7F12301   0.507   2.656   7.473
  117OSM    H7F12302   0.403   2.671   7.438
  117OSM    H7G12303   0.561   2.753   7.466
  117OSM    C8F12304   0.484   2.622   7.624
  117OSM    H8F12305   0.381   2.581   7.620
  117OSM    H8G12306   0.477   2.712   7.689
  117OSM    C9F12307   0.600   2.537   7.671
  117OSM    H9F12308   0.597   2.433   7.634
  117OSM   C10F12309   0.699   2.569   7.755
  117OSM   H10F12310   0.777   2.495   7.779
  117OSM   C11F12311   0.721   2.708   7.802
  117OSM   H11F12312   0.672   2.790   7.744
  117OSM   H11G12313   0.831   2.721   7.800
  117OSM   C12F12314   0.667   2.724   7.945
  117OSM   H12F12315   0.712   2.657   8.021
  117OSM   H12G12316   0.562   2.688   7.940
  117OSM   C13F12317   0.699   2.867   7.989
  117OSM   H13F12318   0.642   2.942   7.930
  117OSM   H13G12319   0.807   2.891   7.976
  117OSM   C14F12320   0.648   2.883   8.137
  117OSM   H14F12321   0.670   2.984   8.178
  117OSM   H14G12322   0.716   2.820   8.198
  117OSM   C15F12323   0.507   2.851   8.163
  117OSM   H15F12324   0.491   2.742   8.150
  117OSM   H15G12325   0.434   2.899   8.093
  117OSM   C16F12326   0.460   2.894   8.302
  117OSM   H16F12327   0.509   2.986   8.340
  117OSM   H16G12328   0.500   2.809   8.362
  117OSM   C17F12329   0.309   2.914   8.327
  117OSM   H17F12330   0.267   3.008   8.285
  117OSM   H17G12331   0.263   2.833   8.267
  117OSM   C18F12332   0.272   2.902   8.474
  117OSM   H18F12333   0.343   2.852   8.544
  117OSM   H18G12334   0.177   2.845   8.480
  117OSM   H18H12335   0.235   3.000   8.512
  118OSM      N12336   3.314   5.114   5.981
  118OSM    C1512337   3.184   5.069   5.939
  118OSM   H15A12338   3.111   5.089   6.016
  118OSM   H15B12339   3.188   4.961   5.933
  118OSM   H15C12340   3.148   5.114   5.848
  118OSM    C1412341   3.412   5.074   5.872
  118OSM   H14A12342   3.417   5.139   5.786
  118OSM   H14B12343   3.407   4.968   5.851
  118OSM   H14C12344   3.513   5.093   5.905
  118OSM    C1312345   3.314   5.265   5.981
  118OSM   H13A12346   3.269   5.304   5.891
  118OSM   H13B12347   3.418   5.295   5.981
  118OSM   H13C12348   3.261   5.305   6.066
  118OSM    C1212349   3.348   5.057   6.117
  118OSM   H12A12350   3.438   5.105   6.152
  118OSM   H12B12351   3.359   4.950   6.118
  118OSM    C1112352   3.237   5.082   6.224
  118OSM   H11A12353   3.184   5.176   6.198
  118OSM   H11B12354   3.284   5.086   6.325
  118OSM      P12355   3.162   4.838   6.302
  118OSM    O1312356   3.046   4.755   6.277
  118OSM    O1412357   3.295   4.781   6.265
  118OSM    O1112358   3.152   4.893   6.448
  118OSM    O1212359   3.148   4.974   6.210
  118OSM    C1S12360   3.180   4.787   6.548
  118OSM    H1S12361   3.290   4.774   6.540
  118OSM    H1T12362   3.119   4.695   6.548
  118OSM     NF12363   3.212   4.766   6.805
  118OSM    HNF12364   3.151   4.707   6.857
  118OSM    C2S12365   3.145   4.839   6.694
  118OSM    H2S12366   3.184   4.942   6.706
  118OSM    C3S12367   2.992   4.838   6.715
  118OSM    H3S12368   2.965   4.730   6.717
  118OSM     O312369   2.919   4.876   6.601
  118OSM    HO312370   2.977   4.851   6.529
  118OSM    C4S12371   2.951   4.905   6.835
  118OSM    H4S12372   2.941   4.836   6.921
  118OSM    C5S12373   2.925   5.031   6.861
  118OSM    H5S12374   2.932   5.099   6.775
  118OSM    C6S12375   2.885   5.093   6.989
  118OSM    H6S12376   2.776   5.082   7.008
  118OSM    H6T12377   2.909   5.202   6.990
  118OSM    C7S12378   2.952   5.026   7.110
  118OSM    H7S12379   3.058   4.996   7.100
  118OSM    H7T12380   2.905   4.929   7.136
  118OSM    C8S12381   2.951   5.124   7.230
  118OSM    H8S12382   2.848   5.162   7.247
  118OSM    H8T12383   3.015   5.209   7.200
  118OSM    C9S12384   2.997   5.067   7.367
  118OSM    H9S12385   3.094   5.022   7.338
  118OSM    H9T12386   2.933   4.985   7.405
  118OSM   C10S12387   3.012   5.173   7.473
  118OSM   H10S12388   2.920   5.236   7.474
  118OSM   H10T12389   3.095   5.242   7.447
  118OSM   C11S12390   3.050   5.108   7.604
  118OSM   H11S12391   3.100   5.009   7.598
  118OSM   H11T12392   2.954   5.089   7.657
  118OSM   C12S12393   3.158   5.185   7.684
  118OSM   H12S12394   3.120   5.280   7.727
  118OSM   H12T12395   3.233   5.215   7.608
  118OSM   C13S12396   3.215   5.095   7.798
  118OSM   H13S12397   3.291   5.152   7.855
  118OSM   H13T12398   3.267   5.008   7.752
  118OSM   C14S12399   3.099   5.060   7.896
  118OSM   H14S12400   3.046   4.974   7.849
  118OSM   H14T12401   3.030   5.147   7.901
  118OSM   C15S12402   3.161   5.006   8.027
  118OSM   H15S12403   3.205   5.091   8.083
  118OSM   H15T12404   3.246   4.941   7.997
  118OSM   C16S12405   3.054   4.931   8.105
  118OSM   H16S12406   3.027   4.840   8.047
  118OSM   H16T12407   2.956   4.983   8.111
  118OSM   C17S12408   3.103   4.892   8.238
  118OSM   H17S12409   3.127   4.984   8.296
  118OSM   H17T12410   3.203   4.846   8.223
  118OSM   C18S12411   3.008   4.801   8.316
  118OSM   H18S12412   2.903   4.834   8.300
  118OSM   H18T12413   3.027   4.817   8.424
  118OSM   H18U12414   3.016   4.695   8.282
  118OSM    C1F12415   3.344   4.774   6.829
  118OSM     OF12416   3.417   4.849   6.763
  118OSM    C2F12417   3.385   4.687   6.946
  118OSM    H2F12418   3.411   4.590   6.900
  118OSM    H2G12419   3.295   4.670   7.009
  118OSM    C3F12420   3.501   4.732   7.045
  118OSM    H3F12421   3.461   4.808   7.115
  118OSM    H3G12422   3.584   4.781   6.990
  118OSM    C4F12423   3.553   4.603   7.124
  118OSM    H4F12424   3.612   4.550   7.046
  118OSM    H4G12425   3.470   4.536   7.153
  118OSM    C5F12426   3.624   4.625   7.261
  118OSM    H5F12427   3.709   4.694   7.241
  118OSM    H5G12428   3.670   4.528   7.292
  118OSM    C6F12429   3.542   4.662   7.381
  118OSM    H6F12430   3.475   4.579   7.411
  118OSM    H6G12431   3.499   4.765   7.377
  118OSM    C7F12432   3.628   4.680   7.516
  118OSM    H7F12433   3.683   4.776   7.507
  118OSM    H7G12434   3.690   4.588   7.519
  118OSM    C8F12435   3.532   4.692   7.642
  118OSM    H8F12436   3.473   4.598   7.641
  118OSM    H8G12437   3.460   4.775   7.631
  118OSM    C9F12438   3.621   4.727   7.755
  118OSM    H9F12439   3.698   4.801   7.725
  118OSM   C10F12440   3.627   4.673   7.880
  118OSM   H10F12441   3.705   4.699   7.952
  118OSM   C11F12442   3.538   4.566   7.937
  118OSM   H11F12443   3.450   4.533   7.877
  118OSM   H11G12444   3.494   4.596   8.034
  118OSM   C12F12445   3.615   4.444   7.984
  118OSM   H12F12446   3.678   4.477   8.069
  118OSM   H12G12447   3.667   4.397   7.898
  118OSM   C13F12448   3.519   4.346   8.050
  118OSM   H13F12449   3.437   4.315   7.981
  118OSM   H13G12450   3.480   4.405   8.136
  118OSM   C14F12451   3.585   4.218   8.110
  118OSM   H14F12452   3.664   4.251   8.180
  118OSM   H14G12453   3.647   4.171   8.031
  118OSM   C15F12454   3.482   4.132   8.182
  118OSM   H15F12455   3.394   4.120   8.115
  118OSM   H15G12456   3.444   4.172   8.278
  118OSM   C16F12457   3.540   3.995   8.215
  118OSM   H16F12458   3.636   4.013   8.268
  118OSM   H16G12459   3.546   3.925   8.128
  118OSM   C17F12460   3.451   3.917   8.311
  118OSM   H17F12461   3.349   3.919   8.268
  118OSM   H17G12462   3.453   3.969   8.409
  118OSM   C18F12463   3.506   3.774   8.331
  118OSM   H18F12464   3.616   3.773   8.341
  118OSM   H18G12465   3.483   3.713   8.242
  118OSM   H18H12466   3.461   3.724   8.419
  119OSM      N12467   4.436   4.609   5.546
  119OSM    C1512468   4.544   4.611   5.437
  119OSM   H15A12469   4.607   4.523   5.442
  119OSM   H15B12470   4.613   4.694   5.439
  119OSM   H15C12471   4.499   4.612   5.339
  119OSM    C1412472   4.346   4.494   5.527
  119OSM   H14A12473   4.291   4.498   5.435
  119OSM   H14B12474   4.276   4.498   5.609
  119OSM   H14C12475   4.400   4.400   5.526
  119OSM    C1312476   4.509   4.594   5.677
  119OSM   H13A12477   4.438   4.616   5.755
  119OSM   H13B12478   4.596   4.658   5.686
  119OSM   H13C12479   4.548   4.494   5.688
  119OSM    C1212480   4.369   4.742   5.538
  119OSM   H12A12481   4.342   4.758   5.434
  119OSM   H12B12482   4.436   4.823   5.564
  119OSM    C1112483   4.242   4.762   5.623
  119OSM   H11A12484   4.168   4.685   5.593
  119OSM   H11B12485   4.202   4.861   5.592
  119OSM      P12486   4.330   4.881   5.833
  119OSM    O1312487   4.462   4.909   5.776
  119OSM    O1412488   4.231   4.984   5.838
  119OSM    O1112489   4.365   4.826   5.974
  119OSM    O1212490   4.260   4.754   5.762
  119OSM    C1S12491   4.428   4.702   5.996
  119OSM    H1S12492   4.532   4.696   5.959
  119OSM    H1T12493   4.372   4.621   5.944
  119OSM     NF12494   4.497   4.550   6.172
  119OSM    HNF12495   4.443   4.469   6.193
  119OSM    C2S12496   4.425   4.671   6.143
  119OSM    H2S12497   4.478   4.754   6.195
  119OSM    C3S12498   4.279   4.676   6.202
  119OSM    H3S12499   4.213   4.591   6.176
  119OSM     O312500   4.200   4.790   6.166
  119OSM    HO312501   4.235   4.837   6.089
  119OSM    C4S12502   4.302   4.677   6.351
  119OSM    H4S12503   4.270   4.581   6.395
  119OSM    C5S12504   4.348   4.778   6.432
  119OSM    H5S12505   4.376   4.874   6.386
  119OSM    C6S12506   4.371   4.759   6.583
  119OSM    H6S12507   4.340   4.853   6.633
  119OSM    H6T12508   4.481   4.760   6.597
  119OSM    C7S12509   4.290   4.651   6.659
  119OSM    H7S12510   4.303   4.559   6.599
  119OSM    H7T12511   4.188   4.690   6.637
  119OSM    C8S12512   4.336   4.640   6.805
  119OSM    H8S12513   4.360   4.740   6.848
  119OSM    H8T12514   4.432   4.585   6.798
  119OSM    C9S12515   4.239   4.559   6.893
  119OSM    H9S12516   4.213   4.465   6.839
  119OSM    H9T12517   4.153   4.625   6.914
  119OSM   C10S12518   4.315   4.519   7.022
  119OSM   H10S12519   4.354   4.614   7.065
  119OSM   H10T12520   4.403   4.458   6.993
  119OSM   C11S12521   4.224   4.452   7.124
  119OSM   H11S12522   4.284   4.427   7.214
  119OSM   H11T12523   4.175   4.358   7.091
  119OSM   C12S12524   4.108   4.544   7.181
  119OSM   H12S12525   4.040   4.561   7.095
  119OSM   H12T12526   4.138   4.648   7.207
  119OSM   C13S12527   4.030   4.485   7.300
  119OSM   H13S12528   4.004   4.379   7.283
  119OSM   H13T12529   3.935   4.541   7.315
  119OSM   C14S12530   4.104   4.496   7.432
  119OSM   H14S12531   4.163   4.590   7.433
  119OSM   H14T12532   4.181   4.416   7.431
  119OSM   C15S12533   4.023   4.493   7.565
  119OSM   H15S12534   3.963   4.586   7.564
  119OSM   H15T12535   4.085   4.493   7.657
  119OSM   C16S12536   3.936   4.364   7.575
  119OSM   H16S12537   4.000   4.275   7.560
  119OSM   H16T12538   3.864   4.380   7.492
  119OSM   C17S12539   3.875   4.339   7.709
  119OSM   H17S12540   3.810   4.426   7.733
  119OSM   H17T12541   3.957   4.333   7.784
  119OSM   C18S12542   3.783   4.215   7.715
  119OSM   H18S12543   3.838   4.121   7.692
  119OSM   H18T12544   3.689   4.228   7.657
  119OSM   H18U12545   3.743   4.194   7.816
  119OSM    C1F12546   4.631   4.537   6.154
  119OSM     OF12547   4.696   4.638   6.146
  119OSM    C2F12548   4.683   4.393   6.151
  119OSM    H2F12549   4.699   4.371   6.044
  119OSM    H2G12550   4.608   4.316   6.180
  119OSM    C3F12551   4.814   4.367   6.228
  119OSM    H3F12552   4.882   4.448   6.193
  119OSM    H3G12553   4.871   4.274   6.208
  119OSM    C4F12554   4.794   4.368   6.386
  119OSM    H4F12555   4.750   4.465   6.417
  119OSM    H4G12556   4.897   4.365   6.428
  119OSM    C5F12557   4.731   4.242   6.435
  119OSM    H5F12558   4.775   4.150   6.391
  119OSM    H5G12559   4.623   4.251   6.411
  119OSM    C6F12560   4.735   4.231   6.590
  119OSM    H6F12561   4.686   4.317   6.641
  119OSM    H6G12562   4.842   4.224   6.621
  119OSM    C7F12563   4.665   4.110   6.643
  119OSM    H7F12564   4.692   4.087   6.749
  119OSM    H7G12565   4.678   4.014   6.589
  119OSM    C8F12566   4.512   4.142   6.636
  119OSM    H8F12567   4.463   4.043   6.625
  119OSM    H8G12568   4.478   4.192   6.543
  119OSM    C9F12569   4.460   4.212   6.758
  119OSM    H9F12570   4.506   4.309   6.782
  119OSM   C10F12571   4.365   4.172   6.840
  119OSM   H10F12572   4.349   4.244   6.922
  119OSM   C11F12573   4.277   4.052   6.847
  119OSM   H11F12574   4.302   3.989   6.759
  119OSM   H11G12575   4.167   4.067   6.839
  119OSM   C12F12576   4.310   3.978   6.983
  119OSM   H12F12577   4.421   3.976   6.984
  119OSM   H12G12578   4.269   3.875   6.994
  119OSM   C13F12579   4.254   4.058   7.107
  119OSM   H13F12580   4.145   4.044   7.092
  119OSM   H13G12581   4.279   4.166   7.099
  119OSM   C14F12582   4.303   4.003   7.245
  119OSM   H14F12583   4.413   4.008   7.258
  119OSM   H14G12584   4.278   3.895   7.246
  119OSM   C15F12585   4.225   4.049   7.366
  119OSM   H15F12586   4.117   4.032   7.344
  119OSM   H15G12587   4.234   4.158   7.383
  119OSM   C16F12588   4.251   3.973   7.493
  119OSM   H16F12589   4.358   3.957   7.518
  119OSM   H16G12590   4.207   3.874   7.468
  119OSM   C17F12591   4.179   4.033   7.619
  119OSM   H17F12592   4.069   4.035   7.606
  119OSM   H17G12593   4.211   4.139   7.627
  119OSM   C18F12594   4.208   3.951   7.751
  119OSM   H18F12595   4.219   3.843   7.729
  119OSM   H18G12596   4.119   3.953   7.818
  119OSM   H18H12597   4.291   3.995   7.811
  120OSM      N12598   1.887   1.770   6.592
  120OSM    C1512599   1.817   1.796   6.718
  120OSM   H15A12600   1.867   1.873   6.775
  120OSM   H15B12601   1.814   1.704   6.774
  120OSM   H15C12602   1.716   1.826   6.694
  120OSM    C1412603   1.817   1.653   6.532
  120OSM   H14A12604   1.715   1.679   6.508
  120OSM   H14B12605   1.826   1.570   6.600
  120OSM   H14C12606   1.874   1.630   6.443
  120OSM    C1312607   1.871   1.887   6.497
  120OSM   H13A12608   1.767   1.912   6.479
  120OSM   H13B12609   1.930   1.885   6.407
  120OSM   H13C12610   1.904   1.968   6.559
  120OSM    C1212611   2.027   1.735   6.619
  120OSM   H12A12612   2.023   1.645   6.680
  120OSM   H12B12613   2.063   1.811   6.687
  120OSM    C1112614   2.129   1.742   6.510
  120OSM   H11A12615   2.230   1.729   6.556
  120OSM   H11B12616   2.144   1.843   6.467
  120OSM      P12617   2.130   1.498   6.403
  120OSM    O1312618   2.015   1.432   6.338
  120OSM    O1412619   2.268   1.471   6.350
  120OSM    O1112620   2.112   1.461   6.560
  120OSM    O1212621   2.103   1.655   6.403
  120OSM    C1S12622   2.221   1.440   6.648
  120OSM    H1S12623   2.269   1.529   6.694
  120OSM    H1T12624   2.312   1.395   6.603
  120OSM     NF12625   2.258   1.368   6.890
  120OSM    HNF12626   2.319   1.294   6.916
  120OSM    C2S12627   2.182   1.338   6.769
  120OSM    H2S12628   2.073   1.361   6.778
  120OSM    C3S12629   2.170   1.193   6.721
  120OSM    H3S12630   2.271   1.148   6.712
  120OSM     O312631   2.109   1.162   6.599
  120OSM    HO312632   2.097   1.251   6.564
  120OSM    C4S12633   2.102   1.111   6.825
  120OSM    H4S12634   2.164   1.060   6.900
  120OSM    C5S12635   1.973   1.073   6.830
  120OSM    H5S12636   1.901   1.096   6.751
  120OSM    C6S12637   1.921   0.975   6.935
  120OSM    H6S12638   1.933   0.871   6.899
  120OSM    H6T12639   1.813   0.998   6.949
  120OSM    C7S12640   1.993   0.992   7.065
  120OSM    H7S12641   2.009   1.099   7.088
  120OSM    H7T12642   2.093   0.944   7.060
  120OSM    C8S12643   1.909   0.932   7.180
  120OSM    H8S12644   1.897   0.823   7.163
  120OSM    H8T12645   1.810   0.984   7.182
  120OSM    C9S12646   1.979   0.953   7.311
  120OSM    H9S12647   1.960   1.057   7.344
  120OSM    H9T12648   2.085   0.924   7.295
  120OSM   C10S12649   1.920   0.864   7.426
  120OSM   H10S12650   1.934   0.757   7.398
  120OSM   H10T12651   1.813   0.894   7.433
  120OSM   C11S12652   1.975   0.878   7.568
  120OSM   H11S12653   1.981   0.989   7.576
  120OSM   H11T12654   2.079   0.838   7.567
  120OSM   C12S12655   1.877   0.820   7.671
  120OSM   H12S12656   1.877   0.710   7.658
  120OSM   H12T12657   1.775   0.848   7.639
  120OSM   C13S12658   1.907   0.879   7.815
  120OSM   H13S12659   1.894   0.989   7.827
  120OSM   H13T12660   2.015   0.866   7.840
  120OSM   C14S12661   1.816   0.802   7.919
  120OSM   H14S12662   1.815   0.693   7.898
  120OSM   H14T12663   1.712   0.838   7.901
  120OSM   C15S12664   1.847   0.813   8.065
  120OSM   H15S12665   1.831   0.920   8.091
  120OSM   H15T12666   1.953   0.787   8.084
  120OSM   C16S12667   1.766   0.715   8.153
  120OSM   H16S12668   1.803   0.612   8.136
  120OSM   H16T12669   1.660   0.716   8.122
  120OSM   C17S12670   1.756   0.752   8.302
  120OSM   H17S12671   1.707   0.851   8.316
  120OSM   H17T12672   1.853   0.772   8.353
  120OSM   C18S12673   1.682   0.653   8.390
  120OSM   H18S12674   1.747   0.562   8.390
  120OSM   H18T12675   1.582   0.631   8.349
  120OSM   H18U12676   1.676   0.705   8.488
  120OSM    C1F12677   2.256   1.479   6.962
  120OSM     OF12678   2.166   1.565   6.940
  120OSM    C2F12679   2.364   1.515   7.062
  120OSM    H2F12680   2.463   1.485   7.021
  120OSM    H2G12681   2.342   1.453   7.151
  120OSM    C3F12682   2.357   1.668   7.097
  120OSM    H3F12683   2.266   1.679   7.159
  120OSM    H3G12684   2.358   1.730   7.005
  120OSM    C4F12685   2.493   1.712   7.172
  120OSM    H4F12686   2.461   1.806   7.221
  120OSM    H4G12687   2.576   1.739   7.103
  120OSM    C5F12688   2.557   1.608   7.269
  120OSM    H5F12689   2.639   1.661   7.323
  120OSM    H5G12690   2.592   1.519   7.213
  120OSM    C6F12691   2.462   1.565   7.380
  120OSM    H6F12692   2.511   1.480   7.432
  120OSM    H6G12693   2.365   1.533   7.337
  120OSM    C7F12694   2.445   1.658   7.495
  120OSM    H7F12695   2.393   1.750   7.461
  120OSM    H7G12696   2.545   1.689   7.532
  120OSM    C8F12697   2.355   1.608   7.608
  120OSM    H8F12698   2.400   1.513   7.644
  120OSM    H8G12699   2.254   1.591   7.564
  120OSM    C9F12700   2.370   1.704   7.721
  120OSM    H9F12701   2.396   1.804   7.683
  120OSM   C10F12702   2.385   1.678   7.853
  120OSM   H10F12703   2.380   1.764   7.921
  120OSM   C11F12704   2.361   1.541   7.914
  120OSM   H11F12705   2.459   1.509   7.956
  120OSM   H11G12706   2.327   1.470   7.836
  120OSM   C12F12707   2.261   1.538   8.040
  120OSM   H12F12708   2.259   1.431   8.070
  120OSM   H12G12709   2.163   1.571   7.999
  120OSM   C13F12710   2.312   1.615   8.157
  120OSM   H13F12711   2.276   1.718   8.140
  120OSM   H13G12712   2.423   1.621   8.161
  120OSM   C14F12713   2.262   1.554   8.292
  120OSM   H14F12714   2.281   1.444   8.298
  120OSM   H14G12715   2.151   1.559   8.294
  120OSM   C15F12716   2.326   1.617   8.419
  120OSM   H15F12717   2.241   1.648   8.484
  120OSM   H15G12718   2.361   1.717   8.387
  120OSM   C16F12719   2.432   1.516   8.480
  120OSM   H16F12720   2.488   1.482   8.390
  120OSM   H16G12721   2.379   1.434   8.533
  120OSM   C17F12722   2.522   1.575   8.593
  120OSM   H17F12723   2.580   1.657   8.544
  120OSM   H17G12724   2.599   1.495   8.604
  120OSM   C18F12725   2.448   1.614   8.717
  120OSM   H18F12726   2.405   1.520   8.760
  120OSM   H18G12727   2.361   1.682   8.705
  120OSM   H18H12728   2.515   1.651   8.798
  121OSM      N12729   3.317   3.205   5.995
  121OSM    C1512730   3.418   3.252   5.896
  121OSM   H15A12731   3.498   3.181   5.886
  121OSM   H15B12732   3.461   3.343   5.933
  121OSM   H15C12733   3.381   3.282   5.798
  121OSM    C1412734   3.213   3.317   6.001
  121OSM   H14A12735   3.144   3.289   6.079
  121OSM   H14B12736   3.147   3.319   5.916
  121OSM   H14C12737   3.260   3.414   6.011
  121OSM    C1312738   3.255   3.080   5.947
  121OSM   H13A12739   3.331   3.004   5.938
  121OSM   H13B12740   3.207   3.097   5.852
  121OSM   H13C12741   3.185   3.049   6.023
  121OSM    C1212742   3.382   3.183   6.131
  121OSM   H12A12743   3.458   3.107   6.123
  121OSM   H12B12744   3.318   3.146   6.210
  121OSM    C1112745   3.459   3.296   6.198
  121OSM   H11A12746   3.489   3.277   6.303
  121OSM   H11B12747   3.397   3.389   6.201
  121OSM      P12748   3.707   3.238   6.136
  121OSM    O1312749   3.683   3.104   6.093
  121OSM    O1412750   3.814   3.312   6.072
  121OSM    O1112751   3.728   3.247   6.292
  121OSM    O1212752   3.573   3.326   6.118
  121OSM    C1S12753   3.837   3.195   6.362
  121OSM    H1S12754   3.920   3.269   6.361
  121OSM    H1T12755   3.863   3.090   6.338
  121OSM     NF12756   3.909   3.168   6.600
  121OSM    HNF12757   3.916   3.083   6.652
  121OSM    C2S12758   3.797   3.186   6.517
  121OSM    H2S12759   3.761   3.290   6.538
  121OSM    C3S12760   3.676   3.090   6.538
  121OSM    H3S12761   3.718   2.991   6.565
  121OSM     O312762   3.586   3.059   6.429
  121OSM    HO312763   3.627   3.107   6.356
  121OSM    C4S12764   3.607   3.136   6.669
  121OSM    H4S12765   3.652   3.092   6.760
  121OSM    C5S12766   3.491   3.209   6.683
  121OSM    H5S12767   3.434   3.240   6.595
  121OSM    C6S12768   3.413   3.243   6.804
  121OSM    H6S12769   3.320   3.183   6.793
  121OSM    H6T12770   3.383   3.348   6.783
  121OSM    C7S12771   3.484   3.238   6.938
  121OSM    H7S12772   3.591   3.260   6.920
  121OSM    H7T12773   3.492   3.139   6.988
  121OSM    C8S12774   3.433   3.337   7.044
  121OSM    H8S12775   3.335   3.297   7.075
  121OSM    H8T12776   3.427   3.435   6.992
  121OSM    C9S12777   3.512   3.343   7.176
  121OSM    H9S12778   3.613   3.388   7.167
  121OSM    H9T12779   3.525   3.237   7.206
  121OSM   C10S12780   3.437   3.417   7.292
  121OSM   H10S12781   3.486   3.392   7.388
  121OSM   H10T12782   3.329   3.390   7.298
  121OSM   C11S12783   3.441   3.572   7.264
  121OSM   H11S12784   3.388   3.601   7.171
  121OSM   H11T12785   3.547   3.603   7.257
  121OSM   C12S12786   3.385   3.653   7.380
  121OSM   H12S12787   3.416   3.759   7.377
  121OSM   H12T12788   3.431   3.612   7.473
  121OSM   C13S12789   3.232   3.644   7.395
  121OSM   H13S12790   3.198   3.551   7.446
  121OSM   H13T12791   3.188   3.640   7.293
  121OSM   C14S12792   3.174   3.760   7.482
  121OSM   H14S12793   3.064   3.753   7.468
  121OSM   H14T12794   3.213   3.856   7.442
  121OSM   C15S12795   3.207   3.752   7.634
  121OSM   H15S12796   3.125   3.809   7.683
  121OSM   H15T12797   3.303   3.802   7.658
  121OSM   C16S12798   3.198   3.618   7.709
  121OSM   H16S12799   3.301   3.578   7.709
  121OSM   H16T12800   3.134   3.550   7.649
  121OSM   C17S12801   3.163   3.623   7.857
  121OSM   H17S12802   3.114   3.528   7.885
  121OSM   H17T12803   3.096   3.707   7.885
  121OSM   C18S12804   3.287   3.643   7.952
  121OSM   H18S12805   3.252   3.645   8.057
  121OSM   H18T12806   3.325   3.743   7.922
  121OSM   H18U12807   3.371   3.571   7.944
  121OSM    C1F12808   4.015   3.261   6.605
  121OSM     OF12809   4.012   3.363   6.533
  121OSM    C2F12810   4.129   3.247   6.699
  121OSM    H2F12811   4.221   3.271   6.642
  121OSM    H2G12812   4.131   3.141   6.733
  121OSM    C3F12813   4.137   3.334   6.821
  121OSM    H3F12814   4.043   3.329   6.880
  121OSM    H3G12815   4.142   3.441   6.791
  121OSM    C4F12816   4.246   3.287   6.919
  121OSM    H4F12817   4.332   3.291   6.848
  121OSM    H4G12818   4.225   3.182   6.948
  121OSM    C5F12819   4.254   3.381   7.042
  121OSM    H5F12820   4.326   3.340   7.116
  121OSM    H5G12821   4.155   3.407   7.085
  121OSM    C6F12822   4.308   3.521   7.007
  121OSM    H6F12823   4.231   3.566   6.941
  121OSM    H6G12824   4.410   3.513   6.964
  121OSM    C7F12825   4.307   3.613   7.132
  121OSM    H7F12826   4.203   3.644   7.155
  121OSM    H7G12827   4.361   3.705   7.099
  121OSM    C8F12828   4.373   3.549   7.258
  121OSM    H8F12829   4.468   3.518   7.210
  121OSM    H8G12830   4.315   3.460   7.291
  121OSM    C9F12831   4.401   3.629   7.384
  121OSM    H9F12832   4.498   3.681   7.387
  121OSM   C10F12833   4.328   3.618   7.494
  121OSM   H10F12834   4.356   3.684   7.578
  121OSM   C11F12835   4.200   3.549   7.503
  121OSM   H11F12836   4.135   3.560   7.414
  121OSM   H11G12837   4.128   3.591   7.577
  121OSM   C12F12838   4.212   3.396   7.539
  121OSM   H12F12839   4.243   3.393   7.645
  121OSM   H12G12840   4.290   3.352   7.474
  121OSM   C13F12841   4.074   3.330   7.510
  121OSM   H13F12842   3.995   3.397   7.550
  121OSM   H13G12843   4.068   3.233   7.564
  121OSM   C14F12844   4.051   3.291   7.359
  121OSM   H14F12845   4.140   3.235   7.323
  121OSM   H14G12846   4.064   3.389   7.308
  121OSM   C15F12847   3.922   3.217   7.343
  121OSM   H15F12848   3.837   3.277   7.382
  121OSM   H15G12849   3.927   3.128   7.410
  121OSM   C16F12850   3.900   3.166   7.196
  121OSM   H16F12851   3.993   3.135   7.143
  121OSM   H16G12852   3.850   3.246   7.137
  121OSM   C17F12853   3.795   3.045   7.200
  121OSM   H17F12854   3.702   3.087   7.244
  121OSM   H17G12855   3.841   2.966   7.263
  121OSM   C18F12856   3.775   2.998   7.058
  121OSM   H18F12857   3.869   2.966   7.008
  121OSM   H18G12858   3.717   3.073   7.000
  121OSM   H18H12859   3.725   2.899   7.060
  122OSM      N12860   2.691   5.588   5.967
  122OSM    C1512861   2.563   5.659   5.943
  122OSM   H15A12862   2.523   5.711   6.029
  122OSM   H15B12863   2.485   5.595   5.904
  122OSM   H15C12864   2.579   5.738   5.871
  122OSM    C1412865   2.742   5.543   5.836
  122OSM   H14A12866   2.783   5.623   5.777
  122OSM   H14B12867   2.664   5.489   5.783
  122OSM   H14C12868   2.817   5.466   5.844
  122OSM    C1312869   2.792   5.687   6.019
  122OSM   H13A12870   2.763   5.721   6.117
  122OSM   H13B12871   2.795   5.773   5.954
  122OSM   H13C12872   2.888   5.645   6.043
  122OSM    C1212873   2.668   5.474   6.068
  122OSM   H12A12874   2.608   5.520   6.145
  122OSM   H12B12875   2.764   5.454   6.113
  122OSM    C1112876   2.590   5.351   6.016
  122OSM   H11A12877   2.492   5.386   5.979
  122OSM   H11B12878   2.561   5.288   6.103
  122OSM      P12879   2.795   5.195   5.963
  122OSM    O1312880   2.773   5.050   5.927
  122OSM    O1412881   2.925   5.258   5.920
  122OSM    O1112882   2.783   5.195   6.124
  122OSM    O1212883   2.666   5.276   5.918
  122OSM    C1S12884   2.882   5.141   6.207
  122OSM    H1S12885   2.977   5.195   6.187
  122OSM    H1T12886   2.899   5.037   6.172
  122OSM     NF12887   2.941   5.122   6.455
  122OSM    HNF12888   2.951   5.034   6.501
  122OSM    C2S12889   2.836   5.127   6.354
  122OSM    H2S12890   2.789   5.227   6.364
  122OSM    C3S12891   2.710   5.040   6.366
  122OSM    H3S12892   2.750   4.936   6.367
  122OSM     O312893   2.619   5.035   6.254
  122OSM    HO312894   2.646   5.109   6.200
  122OSM    C4S12895   2.642   5.054   6.499
  122OSM    H4S12896   2.686   4.983   6.571
  122OSM    C5S12897   2.544   5.134   6.521
  122OSM    H5S12898   2.505   5.188   6.434
  122OSM    C6S12899   2.484   5.148   6.652
  122OSM    H6S12900   2.502   5.060   6.718
  122OSM    H6T12901   2.375   5.134   6.636
  122OSM    C7S12902   2.525   5.272   6.721
  122OSM    H7S12903   2.505   5.364   6.661
  122OSM    H7T12904   2.633   5.269   6.744
  122OSM    C8S12905   2.444   5.279   6.856
  122OSM    H8S12906   2.462   5.189   6.918
  122OSM    H8T12907   2.336   5.294   6.831
  122OSM    C9S12908   2.490   5.402   6.931
  122OSM    H9S12909   2.397   5.455   6.963
  122OSM    H9T12910   2.544   5.477   6.870
  122OSM   C10S12911   2.565   5.383   7.059
  122OSM   H10S12912   2.605   5.483   7.086
  122OSM   H10T12913   2.649   5.313   7.041
  122OSM   C11S12914   2.478   5.353   7.177
  122OSM   H11S12915   2.428   5.259   7.145
  122OSM   H11T12916   2.400   5.426   7.206
  122OSM   C12S12917   2.572   5.318   7.296
  122OSM   H12S12918   2.658   5.252   7.273
  122OSM   H12T12919   2.515   5.250   7.362
  122OSM   C13S12920   2.620   5.436   7.379
  122OSM   H13S12921   2.540   5.512   7.390
  122OSM   H13T12922   2.689   5.496   7.315
  122OSM   C14S12923   2.691   5.397   7.518
  122OSM   H14S12924   2.758   5.484   7.538
  122OSM   H14T12925   2.752   5.306   7.497
  122OSM   C15S12926   2.592   5.382   7.633
  122OSM   H15S12927   2.502   5.328   7.596
  122OSM   H15T12928   2.556   5.481   7.670
  122OSM   C16S12929   2.652   5.302   7.748
  122OSM   H16S12930   2.748   5.347   7.783
  122OSM   H16T12931   2.674   5.197   7.720
  122OSM   C17S12932   2.549   5.297   7.861
  122OSM   H17S12933   2.447   5.274   7.822
  122OSM   H17T12934   2.533   5.397   7.908
  122OSM   C18S12935   2.573   5.201   7.983
  122OSM   H18S12936   2.481   5.201   8.045
  122OSM   H18T12937   2.661   5.227   8.046
  122OSM   H18U12938   2.587   5.095   7.954
  122OSM    C1F12939   3.034   5.219   6.469
  122OSM     OF12940   3.028   5.323   6.407
  122OSM    C2F12941   3.139   5.203   6.563
  122OSM    H2F12942   3.178   5.101   6.543
  122OSM    H2G12943   3.097   5.217   6.665
  122OSM    C3F12944   3.256   5.299   6.557
  122OSM    H3F12945   3.206   5.394   6.586
  122OSM    H3G12946   3.301   5.316   6.457
  122OSM    C4F12947   3.365   5.260   6.663
  122OSM    H4F12948   3.452   5.322   6.630
  122OSM    H4G12949   3.405   5.160   6.640
  122OSM    C5F12950   3.332   5.284   6.809
  122OSM    H5F12951   3.260   5.207   6.844
  122OSM    H5G12952   3.281   5.382   6.813
  122OSM    C6F12953   3.465   5.284   6.891
  122OSM    H6F12954   3.529   5.371   6.865
  122OSM    H6G12955   3.520   5.194   6.856
  122OSM    C7F12956   3.440   5.277   7.040
  122OSM    H7F12957   3.338   5.313   7.066
  122OSM    H7G12958   3.519   5.325   7.102
  122OSM    C8F12959   3.436   5.130   7.088
  122OSM    H8F12960   3.539   5.089   7.093
  122OSM    H8G12961   3.392   5.072   7.004
  122OSM    C9F12962   3.361   5.097   7.219
  122OSM    H9F12963   3.259   5.060   7.200
  122OSM   C10F12964   3.411   5.094   7.341
  122OSM   H10F12965   3.344   5.073   7.425
  122OSM   C11F12966   3.557   5.121   7.381
  122OSM   H11F12967   3.611   5.179   7.304
  122OSM   H11G12968   3.603   5.021   7.398
  122OSM   C12F12969   3.575   5.194   7.513
  122OSM   H12F12970   3.518   5.290   7.512
  122OSM   H12G12971   3.675   5.243   7.517
  122OSM   C13F12972   3.537   5.122   7.640
  122OSM   H13F12973   3.587   5.023   7.644
  122OSM   H13G12974   3.427   5.108   7.644
  122OSM   C14F12975   3.571   5.198   7.767
  122OSM   H14F12976   3.498   5.281   7.781
  122OSM   H14G12977   3.668   5.251   7.751
  122OSM   C15F12978   3.583   5.108   7.892
  122OSM   H15F12979   3.676   5.049   7.880
  122OSM   H15G12980   3.497   5.037   7.891
  122OSM   C16F12981   3.569   5.191   8.023
  122OSM   H16F12982   3.492   5.271   8.023
  122OSM   H16G12983   3.662   5.248   8.042
  122OSM   C17F12984   3.540   5.100   8.138
  122OSM   H17F12985   3.625   5.030   8.157
  122OSM   H17G12986   3.445   5.051   8.109
  122OSM   C18F12987   3.498   5.161   8.269
  122OSM   H18F12988   3.587   5.196   8.326
  122OSM   H18G12989   3.452   5.081   8.331
  122OSM   H18H12990   3.410   5.228   8.262
  123OSM      N12991   1.007   0.933   6.177
  123OSM    C1512992   0.971   0.992   6.044
  123OSM   H15A12993   1.049   0.979   5.971
  123OSM   H15B12994   0.953   1.097   6.059
  123OSM   H15C12995   0.895   0.932   5.997
  123OSM    C1412996   1.067   0.797   6.169
  123OSM   H14A12997   1.148   0.812   6.100
  123OSM   H14B12998   1.001   0.723   6.125
  123OSM   H14C12999   1.097   0.754   6.263
  123OSM    C1313000   1.123   1.014   6.222
  123OSM   H13A13001   1.211   0.999   6.161
  123OSM   H13B13002   1.146   1.006   6.327
  123OSM   H13C13003   1.102   1.119   6.208
  123OSM    C1213004   0.894   0.948   6.279
  123OSM   H12A13005   0.821   0.872   6.256
  123OSM   H12B13006   0.841   1.041   6.267
  123OSM    C1113007   0.927   0.918   6.430
  123OSM   H11A13008   0.840   0.955   6.489
  123OSM   H11B13009   1.016   0.979   6.457
  123OSM      P13010   0.829   0.686   6.476
  123OSM    O1313011   0.721   0.701   6.382
  123OSM    O1413012   0.881   0.551   6.494
  123OSM    O1113013   0.791   0.738   6.616
  123OSM    O1213014   0.948   0.785   6.447
  123OSM    C1S13015   0.883   0.757   6.723
  123OSM    H1S13016   0.975   0.806   6.686
  123OSM    H1T13017   0.913   0.655   6.752
  123OSM     NF13018   0.905   0.855   6.950
  123OSM    HNF13019   0.899   0.798   7.032
  123OSM    C2S13020   0.807   0.834   6.840
  123OSM    H2S13021   0.778   0.931   6.795
  123OSM    C3S13022   0.683   0.749   6.891
  123OSM    H3S13023   0.717   0.647   6.919
  123OSM     O313024   0.596   0.705   6.788
  123OSM    HO313025   0.628   0.737   6.703
  123OSM    C4S13026   0.616   0.816   7.010
  123OSM    H4S13027   0.661   0.766   7.097
  123OSM    C5S13028   0.508   0.901   7.025
  123OSM    H5S13029   0.447   0.927   6.937
  123OSM    C6S13030   0.457   0.932   7.164
  123OSM    H6S13031   0.347   0.928   7.151
  123OSM    H6T13032   0.479   1.038   7.189
  123OSM    C7S13033   0.500   0.836   7.281
  123OSM    H7S13034   0.606   0.853   7.306
  123OSM    H7T13035   0.477   0.733   7.246
  123OSM    C8S13036   0.437   0.868   7.414
  123OSM    H8S13037   0.329   0.853   7.393
  123OSM    H8T13038   0.440   0.972   7.454
  123OSM    C9S13039   0.474   0.772   7.526
  123OSM    H9S13040   0.585   0.781   7.532
  123OSM    H9T13041   0.436   0.671   7.500
  123OSM   C10S13042   0.415   0.825   7.666
  123OSM   H10S13043   0.423   0.936   7.668
  123OSM   H10T13044   0.470   0.775   7.748
  123OSM   C11S13045   0.264   0.783   7.673
  123OSM   H11S13046   0.265   0.672   7.677
  123OSM   H11T13047   0.217   0.803   7.575
  123OSM   C12S13048   0.174   0.839   7.782
  123OSM   H12S13049   0.077   0.784   7.785
  123OSM   H12T13050   0.158   0.944   7.750
  123OSM   C13S13051   0.242   0.854   7.918
  123OSM   H13S13052   0.345   0.895   7.916
  123OSM   H13T13053   0.263   0.750   7.951
  123OSM   C14S13054   0.151   0.930   8.017
  123OSM   H14S13055   0.050   0.884   8.031
  123OSM   H14T13056   0.137   1.031   7.974
  123OSM   C15S13057   0.204   0.926   8.161
  123OSM   H15S13058   0.307   0.967   8.158
  123OSM   H15T13059   0.208   0.819   8.190
  123OSM   C16S13060   0.107   0.996   8.266
  123OSM   H16S13061   0.173   0.987   8.355
  123OSM   H16T13062   0.011   0.944   8.288
  123OSM   C17S13063   0.093   1.142   8.221
  123OSM   H17S13064   0.035   1.146   8.127
  123OSM   H17T13065   0.195   1.182   8.204
  123OSM   C18S13066   0.011   1.222   8.323
  123OSM   H18S13067   0.058   1.220   8.423
  123OSM   H18T13068  -0.097   1.195   8.325
  123OSM   H18U13069   0.009   1.326   8.284
  123OSM    C1F13070   1.010   0.941   6.943
  123OSM     OF13071   1.031   1.016   6.844
  123OSM    C2F13072   1.102   0.937   7.060
  123OSM    H2F13073   1.207   0.919   7.027
  123OSM    H2G13074   1.074   0.857   7.132
  123OSM    C3F13075   1.087   1.070   7.136
  123OSM    H3F13076   1.105   1.157   7.071
  123OSM    H3G13077   1.158   1.080   7.221
  123OSM    C4F13078   0.938   1.084   7.194
  123OSM    H4F13079   0.915   0.992   7.252
  123OSM    H4G13080   0.872   1.102   7.107
  123OSM    C5F13081   0.930   1.205   7.291
  123OSM    H5F13082   0.997   1.286   7.254
  123OSM    H5G13083   0.965   1.168   7.389
  123OSM    C6F13084   0.791   1.271   7.315
  123OSM    H6F13085   0.754   1.310   7.218
  123OSM    H6G13086   0.807   1.368   7.366
  123OSM    C7F13087   0.684   1.180   7.374
  123OSM    H7F13088   0.681   1.083   7.322
  123OSM    H7G13089   0.587   1.233   7.364
  123OSM    C8F13090   0.707   1.139   7.519
  123OSM    H8F13091   0.804   1.087   7.532
  123OSM    H8G13092   0.619   1.083   7.556
  123OSM    C9F13093   0.691   1.266   7.604
  123OSM    H9F13094   0.604   1.331   7.590
  123OSM   C10F13095   0.779   1.297   7.705
  123OSM   H10F13096   0.762   1.389   7.763
  123OSM   C11F13097   0.894   1.210   7.755
  123OSM   H11F13098   0.994   1.253   7.732
  123OSM   H11G13099   0.888   1.108   7.712
  123OSM   C12F13100   0.884   1.217   7.910
  123OSM   H12F13101   0.896   1.322   7.945
  123OSM   H12G13102   0.958   1.144   7.950
  123OSM   C13F13103   0.758   1.177   7.981
  123OSM   H13F13104   0.733   1.074   7.946
  123OSM   H13G13105   0.671   1.240   7.954
  123OSM   C14F13106   0.773   1.187   8.133
  123OSM   H14F13107   0.675   1.222   8.173
  123OSM   H14G13108   0.858   1.255   8.153
  123OSM   C15F13109   0.803   1.045   8.192
  123OSM   H15F13110   0.893   0.997   8.147
  123OSM   H15G13111   0.717   0.979   8.168
  123OSM   C16F13112   0.843   1.057   8.341
  123OSM   H16F13113   0.759   1.107   8.395
  123OSM   H16G13114   0.936   1.118   8.340
  123OSM   C17F13115   0.865   0.918   8.400
  123OSM   H17F13116   0.946   0.872   8.339
  123OSM   H17G13117   0.776   0.853   8.388
  123OSM   C18F13118   0.914   0.923   8.544
  123OSM   H18F13119   1.018   0.965   8.546
  123OSM   H18G13120   0.925   0.821   8.585
  123OSM   H18H13121   0.845   0.980   8.609
  124OSM      N13122   0.876   4.147   6.140
  124OSM    C1513123   0.953   4.119   6.010
  124OSM   H15A13124   1.023   4.039   6.029
  124OSM   H15B13125   1.017   4.197   5.971
  124OSM   H15C13126   0.892   4.097   5.923
  124OSM    C1413127   0.806   4.276   6.138
  124OSM   H14A13128   0.874   4.354   6.108
  124OSM   H14B13129   0.761   4.303   6.233
  124OSM   H14C13130   0.721   4.281   6.073
  124OSM    C1313131   0.785   4.023   6.164
  124OSM   H13A13132   0.710   4.017   6.086
  124OSM   H13B13133   0.734   4.014   6.259
  124OSM   H13C13134   0.844   3.935   6.144
  124OSM    C1213135   0.979   4.156   6.251
  124OSM   H12A13136   0.921   4.185   6.338
  124OSM   H12B13137   1.055   4.229   6.227
  124OSM    C1113138   1.063   4.024   6.283
  124OSM   H11A13139   0.990   3.943   6.305
  124OSM   H11B13140   1.128   4.034   6.373
  124OSM      P13141   1.213   3.845   6.159
  124OSM    O1313142   1.108   3.745   6.179
  124OSM    O1413143   1.290   3.852   6.033
  124OSM    O1113144   1.323   3.838   6.279
  124OSM    O1213145   1.141   3.987   6.170
  124OSM    C1S13146   1.411   3.946   6.310
  124OSM    H1S13147   1.365   4.044   6.332
  124OSM    H1T13148   1.497   3.958   6.241
  124OSM     NF13149   1.580   4.015   6.479
  124OSM    HNF13150   1.679   4.003   6.473
  124OSM    C2S13151   1.494   3.903   6.432
  124OSM    H2S13152   1.423   3.871   6.512
  124OSM    C3S13153   1.577   3.775   6.405
  124OSM    H3S13154   1.663   3.807   6.343
  124OSM     O313155   1.512   3.675   6.328
  124OSM    HO313156   1.440   3.719   6.281
  124OSM    C4S13157   1.630   3.707   6.537
  124OSM    H4S13158   1.698   3.770   6.596
  124OSM    C5S13159   1.620   3.577   6.577
  124OSM    H5S13160   1.562   3.510   6.512
  124OSM    C6S13161   1.700   3.518   6.696
  124OSM    H6S13162   1.779   3.445   6.668
  124OSM    H6T13163   1.626   3.463   6.758
  124OSM    C7S13164   1.766   3.611   6.795
  124OSM    H7S13165   1.693   3.660   6.862
  124OSM    H7T13166   1.799   3.697   6.734
  124OSM    C8S13167   1.883   3.551   6.873
  124OSM    H8S13168   1.946   3.634   6.912
  124OSM    H8T13169   1.943   3.485   6.807
  124OSM    C9S13170   1.839   3.468   6.997
  124OSM    H9S13171   1.921   3.395   7.013
  124OSM    H9T13172   1.737   3.430   6.975
  124OSM   C10S13173   1.828   3.545   7.129
  124OSM   H10S13174   1.734   3.605   7.126
  124OSM   H10T13175   1.901   3.629   7.133
  124OSM   C11S13176   1.824   3.457   7.253
  124OSM   H11S13177   1.916   3.394   7.249
  124OSM   H11T13178   1.736   3.393   7.233
  124OSM   C12S13179   1.806   3.546   7.375
  124OSM   H12S13180   1.799   3.478   7.463
  124OSM   H12T13181   1.724   3.621   7.372
  124OSM   C13S13182   1.930   3.627   7.412
  124OSM   H13S13183   1.959   3.697   7.330
  124OSM   H13T13184   2.010   3.551   7.428
  124OSM   C14S13185   1.913   3.708   7.547
  124OSM   H14S13186   1.885   3.650   7.637
  124OSM   H14T13187   1.827   3.772   7.519
  124OSM   C15S13188   2.042   3.791   7.582
  124OSM   H15S13189   2.075   3.846   7.492
  124OSM   H15T13190   2.126   3.721   7.603
  124OSM   C16S13191   2.014   3.879   7.704
  124OSM   H16S13192   1.992   3.819   7.794
  124OSM   H16T13193   1.930   3.949   7.686
  124OSM   C17S13194   2.139   3.965   7.736
  124OSM   H17S13195   2.157   4.046   7.662
  124OSM   H17T13196   2.228   3.899   7.727
  124OSM   C18S13197   2.136   4.002   7.882
  124OSM   H18S13198   2.233   4.039   7.920
  124OSM   H18T13199   2.118   3.916   7.950
  124OSM   H18U13200   2.059   4.078   7.906
  124OSM    C1F13201   1.518   4.119   6.534
  124OSM     OF13202   1.408   4.110   6.581
  124OSM    C2F13203   1.587   4.255   6.525
  124OSM    H2F13204   1.586   4.290   6.420
  124OSM    H2G13205   1.696   4.236   6.538
  124OSM    C3F13206   1.550   4.361   6.632
  124OSM    H3F13207   1.442   4.386   6.623
  124OSM    H3G13208   1.586   4.463   6.608
  124OSM    C4F13209   1.546   4.321   6.784
  124OSM    H4F13210   1.651   4.334   6.819
  124OSM    H4G13211   1.511   4.217   6.800
  124OSM    C5F13212   1.455   4.411   6.879
  124OSM    H5F13213   1.357   4.416   6.827
  124OSM    H5G13214   1.506   4.509   6.883
  124OSM    C6F13215   1.431   4.367   7.027
  124OSM    H6F13216   1.394   4.263   7.023
  124OSM    H6G13217   1.345   4.434   7.048
  124OSM    C7F13218   1.547   4.396   7.125
  124OSM    H7F13219   1.612   4.476   7.083
  124OSM    H7G13220   1.607   4.303   7.135
  124OSM    C8F13221   1.487   4.427   7.270
  124OSM    H8F13222   1.421   4.516   7.261
  124OSM    H8G13223   1.577   4.451   7.330
  124OSM    C9F13224   1.413   4.315   7.333
  124OSM    H9F13225   1.401   4.226   7.271
  124OSM   C10F13226   1.336   4.323   7.444
  124OSM   H10F13227   1.277   4.236   7.478
  124OSM   C11F13228   1.333   4.431   7.541
  124OSM   H11F13229   1.230   4.471   7.554
  124OSM   H11G13230   1.389   4.521   7.508
  124OSM   C12F13231   1.377   4.396   7.693
  124OSM   H12F13232   1.425   4.492   7.722
  124OSM   H12G13233   1.461   4.323   7.691
  124OSM   C13F13234   1.273   4.347   7.788
  124OSM   H13F13235   1.220   4.254   7.756
  124OSM   H13G13236   1.198   4.428   7.793
  124OSM   C14F13237   1.318   4.311   7.935
  124OSM   H14F13238   1.383   4.222   7.942
  124OSM   H14G13239   1.228   4.279   7.991
  124OSM   C15F13240   1.381   4.435   7.997
  124OSM   H15F13241   1.331   4.525   7.955
  124OSM   H15G13242   1.489   4.450   7.975
  124OSM   C16F13243   1.371   4.426   8.150
  124OSM   H16F13244   1.422   4.333   8.184
  124OSM   H16G13245   1.267   4.436   8.190
  124OSM   C17F13246   1.458   4.531   8.222
  124OSM   H17F13247   1.429   4.629   8.179
  124OSM   H17G13248   1.565   4.512   8.196
  124OSM   C18F13249   1.430   4.525   8.371
  124OSM   H18F13250   1.418   4.420   8.407
  124OSM   H18G13251   1.345   4.590   8.405
  124OSM   H18H13252   1.516   4.563   8.431
  125OSM      N13253   4.259   2.891   6.169
  125OSM    C1513254   4.134   2.915   6.247
  125OSM   H15A13255   4.138   2.872   6.346
  125OSM   H15B13256   4.061   2.854   6.196
  125OSM   H15C13257   4.115   3.021   6.250
  125OSM    C1413258   4.270   2.971   6.048
  125OSM   H14A13259   4.184   2.962   5.983
  125OSM   H14B13260   4.360   2.945   5.995
  125OSM   H14C13261   4.269   3.074   6.080
  125OSM    C1313262   4.361   2.941   6.264
  125OSM   H13A13263   4.454   2.925   6.212
  125OSM   H13B13264   4.371   2.883   6.354
  125OSM   H13C13265   4.349   3.046   6.286
  125OSM    C1213266   4.275   2.738   6.140
  125OSM   H12A13267   4.224   2.705   6.050
  125OSM   H12B13268   4.234   2.687   6.226
  125OSM    C1113269   4.410   2.679   6.110
  125OSM   H11A13270   4.454   2.741   6.029
  125OSM   H11B13271   4.387   2.582   6.062
  125OSM      P13272   4.645   2.717   6.228
  125OSM    O1313273   4.721   2.598   6.177
  125OSM    O1413274   4.662   2.838   6.146
  125OSM    O1113275   4.678   2.757   6.381
  125OSM    O1213276   4.490   2.682   6.228
  125OSM    C1S13277   4.623   2.681   6.489
  125OSM    H1S13278   4.656   2.575   6.482
  125OSM    H1T13279   4.513   2.693   6.479
  125OSM     NF13280   4.607   2.649   6.739
  125OSM    HNF13281   4.512   2.664   6.764
  125OSM    C2S13282   4.657   2.738   6.630
  125OSM    H2S13283   4.765   2.754   6.650
  125OSM    C3S13284   4.605   2.887   6.635
  125OSM    H3S13285   4.494   2.883   6.635
  125OSM     O313286   4.639   2.964   6.512
  125OSM    HO313287   4.678   2.894   6.459
  125OSM    C4S13288   4.654   2.969   6.754
  125OSM    H4S13289   4.758   2.949   6.786
  125OSM    C5S13290   4.577   3.062   6.817
  125OSM    H5S13291   4.472   3.079   6.788
  125OSM    C6S13292   4.634   3.151   6.929
  125OSM    H6S13293   4.601   3.257   6.930
  125OSM    H6T13294   4.744   3.145   6.923
  125OSM    C7S13295   4.601   3.107   7.073
  125OSM    H7S13296   4.586   2.997   7.074
  125OSM    H7T13297   4.498   3.141   7.098
  125OSM    C8S13298   4.705   3.148   7.171
  125OSM    H8S13299   4.723   3.257   7.177
  125OSM    H8T13300   4.808   3.110   7.149
  125OSM    C9S13301   4.667   3.113   7.314
  125OSM    H9S13302   4.757   3.125   7.378
  125OSM    H9T13303   4.634   3.007   7.311
  125OSM   C10S13304   4.547   3.201   7.363
  125OSM   H10S13305   4.461   3.132   7.382
  125OSM   H10T13306   4.516   3.273   7.285
  125OSM   C11S13307   4.577   3.268   7.497
  125OSM   H11S13308   4.515   3.361   7.499
  125OSM   H11T13309   4.682   3.303   7.493
  125OSM   C12S13310   4.558   3.167   7.613
  125OSM   H12S13311   4.638   3.090   7.613
  125OSM   H12T13312   4.467   3.107   7.590
  125OSM   C13S13313   4.544   3.231   7.755
  125OSM   H13S13314   4.460   3.303   7.764
  125OSM   H13T13315   4.641   3.281   7.777
  125OSM   C14S13316   4.538   3.119   7.855
  125OSM   H14S13317   4.602   3.033   7.825
  125OSM   H14T13318   4.434   3.082   7.842
  125OSM   C15S13319   4.570   3.160   8.004
  125OSM   H15S13320   4.483   3.217   8.043
  125OSM   H15T13321   4.654   3.233   7.995
  125OSM   C16S13322   4.616   3.043   8.093
  125OSM   H16S13323   4.726   3.031   8.096
  125OSM   H16T13324   4.570   2.950   8.054
  125OSM   C17S13325   4.562   3.064   8.235
  125OSM   H17S13326   4.451   3.055   8.230
  125OSM   H17T13327   4.600   3.163   8.264
  125OSM   C18S13328   4.616   2.954   8.331
  125OSM   H18S13329   4.576   2.856   8.298
  125OSM   H18T13330   4.587   2.966   8.438
  125OSM   H18U13331   4.727   2.951   8.334
  125OSM    C1F13332   4.660   2.529   6.772
  125OSM     OF13333   4.762   2.492   6.714
  125OSM    C2F13334   4.592   2.444   6.882
  125OSM    H2F13335   4.525   2.373   6.829
  125OSM    H2G13336   4.526   2.497   6.953
  125OSM    C3F13337   4.692   2.362   6.964
  125OSM    H3F13338   4.755   2.429   7.025
  125OSM    H3G13339   4.763   2.307   6.899
  125OSM    C4F13340   4.624   2.264   7.054
  125OSM    H4F13341   4.682   2.170   7.070
  125OSM    H4G13342   4.526   2.237   7.008
  125OSM    C5F13343   4.611   2.337   7.196
  125OSM    H5F13344   4.575   2.441   7.185
  125OSM    H5G13345   4.715   2.336   7.235
  125OSM    C6F13346   4.519   2.271   7.291
  125OSM    H6F13347   4.530   2.161   7.297
  125OSM    H6G13348   4.418   2.284   7.247
  125OSM    C7F13349   4.527   2.336   7.427
  125OSM    H7F13350   4.532   2.446   7.416
  125OSM    H7G13351   4.630   2.317   7.462
  125OSM    C8F13352   4.433   2.293   7.537
  125OSM    H8F13353   4.438   2.183   7.545
  125OSM    H8G13354   4.330   2.321   7.506
  125OSM    C9F13355   4.446   2.380   7.656
  125OSM    H9F13356   4.461   2.488   7.641
  125OSM   C10F13357   4.430   2.344   7.782
  125OSM   H10F13358   4.421   2.424   7.857
  125OSM   C11F13359   4.417   2.205   7.842
  125OSM   H11F13360   4.404   2.129   7.762
  125OSM   H11G13361   4.324   2.208   7.903
  125OSM   C12F13362   4.532   2.186   7.934
  125OSM   H12F13363   4.631   2.224   7.902
  125OSM   H12G13364   4.550   2.077   7.946
  125OSM   C13F13365   4.508   2.253   8.072
  125OSM   H13F13366   4.506   2.363   8.062
  125OSM   H13G13367   4.597   2.242   8.138
  125OSM   C14F13368   4.391   2.205   8.145
  125OSM   H14F13369   4.380   2.095   8.129
  125OSM   H14G13370   4.295   2.243   8.104
  125OSM   C15F13371   4.385   2.232   8.298
  125OSM   H15F13372   4.418   2.334   8.329
  125OSM   H15G13373   4.457   2.166   8.351
  125OSM   C16F13374   4.245   2.209   8.344
  125OSM   H16F13375   4.210   2.107   8.319
  125OSM   H16G13376   4.176   2.281   8.293
  125OSM   C17F13377   4.223   2.231   8.495
  125OSM   H17F13378   4.289   2.307   8.542
  125OSM   H17G13379   4.252   2.130   8.532
  125OSM   C18F13380   4.081   2.255   8.539
  125OSM   H18F13381   4.068   2.221   8.644
  125OSM   H18G13382   4.021   2.190   8.472
  125OSM   H18H13383   4.052   2.361   8.519
  126OSM      N13384   2.050   6.647   6.356
  126OSM    C1513385   2.143   6.612   6.478
  126OSM   H15A13386   2.091   6.617   6.573
  126OSM   H15B13387   2.232   6.673   6.479
  126OSM   H15C13388   2.188   6.515   6.463
  126OSM    C1413389   2.132   6.659   6.231
  126OSM   H14A13390   2.075   6.710   6.155
  126OSM   H14B13391   2.157   6.559   6.200
  126OSM   H14C13392   2.228   6.706   6.245
  126OSM    C1313393   1.943   6.544   6.336
  126OSM   H13A13394   1.965   6.460   6.271
  126OSM   H13B13395   1.850   6.572   6.290
  126OSM   H13C13396   1.915   6.499   6.430
  126OSM    C1213397   1.984   6.786   6.377
  126OSM   H12A13398   1.918   6.807   6.293
  126OSM   H12B13399   2.060   6.862   6.380
  126OSM    C1113400   1.897   6.801   6.506
  126OSM   H11A13401   1.860   6.704   6.545
  126OSM   H11B13402   1.804   6.861   6.494
  126OSM      P13403   2.004   7.007   6.622
  126OSM    O1313404   2.103   7.032   6.725
  126OSM    O1413405   2.030   7.070   6.489
  126OSM    O1113406   1.865   7.065   6.672
  126OSM    O1213407   1.976   6.851   6.614
  126OSM    C1S13408   1.778   6.993   6.761
  126OSM    H1S13409   1.826   6.895   6.783
  126OSM    H1T13410   1.675   6.985   6.720
  126OSM     NF13411   1.698   6.960   7.000
  126OSM    HNF13412   1.605   6.977   7.029
  126OSM    C2S13413   1.761   7.054   6.908
  126OSM    H2S13414   1.867   7.062   6.939
  126OSM    C3S13415   1.686   7.186   6.906
  126OSM    H3S13416   1.579   7.164   6.886
  126OSM     O313417   1.729   7.282   6.802
  126OSM    HO313418   1.774   7.228   6.736
  126OSM    C4S13419   1.688   7.258   7.043
  126OSM    H4S13420   1.616   7.214   7.113
  126OSM    C5S13421   1.773   7.354   7.084
  126OSM    H5S13422   1.838   7.392   7.004
  126OSM    C6S13423   1.769   7.417   7.222
  126OSM    H6S13424   1.727   7.519   7.206
  126OSM    H6T13425   1.869   7.414   7.269
  126OSM    C7S13426   1.662   7.348   7.318
  126OSM    H7S13427   1.679   7.239   7.327
  126OSM    H7T13428   1.556   7.366   7.291
  126OSM    C8S13429   1.684   7.394   7.461
  126OSM    H8S13430   1.672   7.504   7.456
  126OSM    H8T13431   1.788   7.375   7.494
  126OSM    C9S13432   1.584   7.332   7.556
  126OSM    H9S13433   1.591   7.221   7.550
  126OSM    H9T13434   1.486   7.357   7.509
  126OSM   C10S13435   1.591   7.365   7.703
  126OSM   H10S13436   1.592   7.475   7.719
  126OSM   H10T13437   1.694   7.349   7.740
  126OSM   C11S13438   1.477   7.301   7.783
  126OSM   H11S13439   1.487   7.193   7.762
  126OSM   H11T13440   1.373   7.328   7.757
  126OSM   C12S13441   1.502   7.329   7.939
  126OSM   H12S13442   1.488   7.435   7.968
  126OSM   H12T13443   1.600   7.298   7.980
  126OSM   C13S13444   1.408   7.250   8.034
  126OSM   H13S13445   1.410   7.143   8.005
  126OSM   H13T13446   1.305   7.283   8.008
  126OSM   C14S13447   1.438   7.270   8.178
  126OSM   H14S13448   1.404   7.374   8.199
  126OSM   H14T13449   1.546   7.253   8.200
  126OSM   C15S13450   1.352   7.180   8.269
  126OSM   H15S13451   1.395   7.078   8.257
  126OSM   H15T13452   1.251   7.171   8.223
  126OSM   C16S13453   1.339   7.231   8.412
  126OSM   H16S13454   1.257   7.171   8.457
  126OSM   H16T13455   1.307   7.337   8.419
  126OSM   C17S13456   1.468   7.199   8.488
  126OSM   H17S13457   1.561   7.230   8.436
  126OSM   H17T13458   1.477   7.088   8.479
  126OSM   C18S13459   1.478   7.245   8.633
  126OSM   H18S13460   1.577   7.233   8.682
  126OSM   H18T13461   1.405   7.193   8.698
  126OSM   H18U13462   1.475   7.356   8.642
  126OSM    C1F13463   1.746   6.839   7.029
  126OSM     OF13464   1.863   6.809   7.015
  126OSM    C2F13465   1.655   6.743   7.093
  126OSM    H2F13466   1.566   6.722   7.030
  126OSM    H2G13467   1.631   6.784   7.193
  126OSM    C3F13468   1.714   6.600   7.112
  126OSM    H3F13469   1.741   6.554   7.014
  126OSM    H3G13470   1.632   6.539   7.155
  126OSM    C4F13471   1.809   6.571   7.230
  126OSM    H4F13472   1.901   6.633   7.219
  126OSM    H4G13473   1.840   6.465   7.215
  126OSM    C5F13474   1.762   6.589   7.368
  126OSM    H5F13475   1.667   6.535   7.387
  126OSM    H5G13476   1.737   6.697   7.377
  126OSM    C6F13477   1.856   6.551   7.483
  126OSM    H6F13478   1.949   6.612   7.489
  126OSM    H6G13479   1.890   6.445   7.477
  126OSM    C7F13480   1.787   6.567   7.615
  126OSM    H7F13481   1.691   6.513   7.612
  126OSM    H7G13482   1.766   6.676   7.623
  126OSM    C8F13483   1.869   6.530   7.736
  126OSM    H8F13484   1.963   6.589   7.737
  126OSM    H8G13485   1.898   6.423   7.726
  126OSM    C9F13486   1.789   6.540   7.859
  126OSM    H9F13487   1.704   6.609   7.860
  126OSM   C10F13488   1.821   6.478   7.974
  126OSM   H10F13489   1.759   6.500   8.062
  126OSM   C11F13490   1.934   6.383   8.009
  126OSM   H11F13491   1.977   6.355   7.910
  126OSM   H11G13492   1.905   6.287   8.056
  126OSM   C12F13493   2.043   6.447   8.099
  126OSM   H12F13494   2.087   6.534   8.045
  126OSM   H12G13495   2.125   6.375   8.120
  126OSM   C13F13496   2.010   6.507   8.238
  126OSM   H13F13497   1.928   6.580   8.226
  126OSM   H13G13498   2.109   6.543   8.274
  126OSM   C14F13499   1.967   6.409   8.335
  126OSM   H14F13500   2.019   6.311   8.325
  126OSM   H14G13501   1.860   6.386   8.317
  126OSM   C15F13502   1.990   6.460   8.481
  126OSM   H15F13503   1.957   6.566   8.482
  126OSM   H15G13504   2.098   6.471   8.504
  126OSM   C16F13505   1.915   6.383   8.585
  126OSM   H16F13506   1.940   6.275   8.581
  126OSM   H16G13507   1.807   6.385   8.559
  126OSM   C17F13508   1.940   6.436   8.727
  126OSM   H17F13509   1.929   6.546   8.740
  126OSM   H17G13510   2.049   6.423   8.749
  126OSM   C18F13511   1.850   6.366   8.826
  126OSM   H18F13512   1.873   6.258   8.821
  126OSM   H18G13513   1.743   6.384   8.804
  126OSM   H18H13514   1.864   6.411   8.927
  127OSM      N13515   0.405   1.079   6.405
  127OSM    C1513516   0.368   1.174   6.521
  127OSM   H15A13517   0.261   1.189   6.517
  127OSM   H15B13518   0.423   1.267   6.520
  127OSM   H15C13519   0.390   1.121   6.612
  127OSM    C1413520   0.476   1.154   6.296
  127OSM   H14A13521   0.573   1.184   6.333
  127OSM   H14B13522   0.422   1.242   6.264
  127OSM   H14C13523   0.486   1.090   6.209
  127OSM    C1313524   0.492   0.967   6.463
  127OSM   H13A13525   0.514   0.892   6.389
  127OSM   H13B13526   0.432   0.920   6.540
  127OSM   H13C13527   0.589   1.003   6.496
  127OSM    C1213528   0.277   1.027   6.349
  127OSM   H12A13529   0.218   0.994   6.433
  127OSM   H12B13530   0.306   0.948   6.282
  127OSM    C1113531   0.178   1.124   6.287
  127OSM   H11A13532   0.101   1.063   6.234
  127OSM   H11B13533   0.233   1.177   6.206
  127OSM      P13534   0.048   1.337   6.337
  127OSM    O1313535   0.121   1.390   6.218
  127OSM    O1413536  -0.094   1.289   6.315
  127OSM    O1113537   0.060   1.440   6.454
  127OSM    O1213538   0.121   1.211   6.384
  127OSM    C1S13539   0.048   1.405   6.591
  127OSM    H1S13540   0.135   1.347   6.631
  127OSM    H1T13541  -0.035   1.335   6.612
  127OSM     NF13542   0.018   1.476   6.831
  127OSM    HNF13543  -0.076   1.477   6.863
  127OSM    C2S13544   0.030   1.527   6.694
  127OSM    H2S13545   0.120   1.593   6.695
  127OSM    C3S13546  -0.082   1.630   6.652
  127OSM    H3S13547  -0.182   1.584   6.667
  127OSM     O313548  -0.071   1.663   6.511
  127OSM    HO313549  -0.012   1.592   6.486
  127OSM    C4S13550  -0.076   1.751   6.740
  127OSM    H4S13551   0.025   1.788   6.765
  127OSM    C5S13552  -0.179   1.810   6.796
  127OSM    H5S13553  -0.281   1.769   6.791
  127OSM    C6S13554  -0.170   1.921   6.896
  127OSM    H6S13555  -0.250   1.899   6.969
  127OSM    H6T13556  -0.187   2.022   6.853
  127OSM    C7S13557  -0.045   1.931   6.986
  127OSM    H7S13558   0.033   1.949   6.909
  127OSM    H7T13559  -0.022   1.838   7.043
  127OSM    C8S13560  -0.057   2.041   7.096
  127OSM    H8S13561  -0.121   2.009   7.181
  127OSM    H8T13562  -0.103   2.124   7.037
  127OSM    C9S13563   0.085   2.090   7.136
  127OSM    H9S13564   0.128   2.173   7.075
  127OSM    H9T13565   0.165   2.014   7.125
  127OSM   C10S13566   0.093   2.141   7.280
  127OSM   H10S13567   0.187   2.101   7.324
  127OSM   H10T13568   0.005   2.128   7.347
  127OSM   C11S13569   0.112   2.293   7.274
  127OSM   H11S13570   0.028   2.338   7.217
  127OSM   H11T13571   0.207   2.301   7.217
  127OSM   C12S13572   0.128   2.364   7.412
  127OSM   H12S13573   0.126   2.474   7.397
  127OSM   H12T13574   0.227   2.337   7.456
  127OSM   C13S13575   0.012   2.339   7.507
  127OSM   H13S13576  -0.011   2.231   7.515
  127OSM   H13T13577  -0.073   2.392   7.457
  127OSM   C14S13578   0.023   2.385   7.649
  127OSM   H14S13579  -0.063   2.335   7.698
  127OSM   H14T13580   0.013   2.495   7.662
  127OSM   C15S13581   0.150   2.340   7.718
  127OSM   H15S13582   0.222   2.400   7.659
  127OSM   H15T13583   0.167   2.230   7.720
  127OSM   C16S13584   0.158   2.383   7.867
  127OSM   H16S13585   0.117   2.301   7.930
  127OSM   H16T13586   0.088   2.468   7.883
  127OSM   C17S13587   0.300   2.416   7.924
  127OSM   H17S13588   0.335   2.518   7.899
  127OSM   H17T13589   0.371   2.353   7.867
  127OSM   C18S13590   0.309   2.406   8.074
  127OSM   H18S13591   0.415   2.431   8.100
  127OSM   H18T13592   0.278   2.309   8.117
  127OSM   H18U13593   0.242   2.480   8.123
  127OSM    C1F13594   0.114   1.419   6.898
  127OSM     OF13595   0.226   1.407   6.850
  127OSM    C2F13596   0.080   1.363   7.029
  127OSM    H2F13597   0.040   1.261   7.012
  127OSM    H2G13598   0.005   1.433   7.071
  127OSM    C3F13599   0.199   1.347   7.131
  127OSM    H3F13600   0.241   1.450   7.140
  127OSM    H3G13601   0.275   1.274   7.095
  127OSM    C4F13602   0.160   1.295   7.269
  127OSM    H4F13603   0.110   1.196   7.268
  127OSM    H4G13604   0.085   1.362   7.315
  127OSM    C5F13605   0.279   1.288   7.365
  127OSM    H5F13606   0.341   1.379   7.355
  127OSM    H5G13607   0.327   1.192   7.337
  127OSM    C6F13608   0.230   1.287   7.509
  127OSM    H6F13609   0.179   1.189   7.515
  127OSM    H6G13610   0.173   1.378   7.536
  127OSM    C7F13611   0.356   1.291   7.611
  127OSM    H7F13612   0.412   1.382   7.581
  127OSM    H7G13613   0.425   1.206   7.597
  127OSM    C8F13614   0.317   1.296   7.765
  127OSM    H8F13615   0.388   1.230   7.820
  127OSM    H8G13616   0.223   1.237   7.760
  127OSM    C9F13617   0.287   1.421   7.836
  127OSM    H9F13618   0.369   1.493   7.847
  127OSM   C10F13619   0.171   1.461   7.891
  127OSM   H10F13620   0.174   1.540   7.968
  127OSM   C11F13621   0.033   1.394   7.879
  127OSM   H11F13622  -0.021   1.400   7.976
  127OSM   H11G13623   0.047   1.285   7.866
  127OSM   C12F13624  -0.056   1.457   7.767
  127OSM   H12F13625   0.000   1.544   7.728
  127OSM   H12G13626  -0.141   1.506   7.818
  127OSM   C13F13627  -0.094   1.367   7.652
  127OSM   H13F13628  -0.174   1.294   7.674
  127OSM   H13G13629  -0.005   1.305   7.627
  127OSM   C14F13630  -0.135   1.446   7.522
  127OSM   H14F13631  -0.135   1.380   7.432
  127OSM   H14G13632  -0.051   1.517   7.507
  127OSM   C15F13633  -0.262   1.525   7.532
  127OSM   H15F13634  -0.272   1.572   7.633
  127OSM   H15G13635  -0.346   1.454   7.524
  127OSM   C16F13636  -0.279   1.642   7.432
  127OSM   H16F13637  -0.212   1.729   7.448
  127OSM   H16G13638  -0.377   1.687   7.457
  127OSM   C17F13639  -0.271   1.591   7.290
  127OSM   H17F13640  -0.329   1.496   7.289
  127OSM   H17G13641  -0.167   1.568   7.259
  127OSM   C18F13642  -0.322   1.700   7.195
  127OSM   H18F13643  -0.336   1.680   7.086
  127OSM   H18G13644  -0.258   1.791   7.193
  127OSM   H18H13645  -0.424   1.733   7.226
  128OSM      N13646   6.770   5.332   5.789
  128OSM    C1513647   6.688   5.211   5.750
  128OSM   H15A13648   6.701   5.123   5.810
  128OSM   H15B13649   6.707   5.181   5.648
  128OSM   H15C13650   6.582   5.223   5.765
  128OSM    C1413651   6.912   5.295   5.782
  128OSM   H14A13652   6.939   5.249   5.688
  128OSM   H14B13653   6.935   5.226   5.862
  128OSM   H14C13654   6.975   5.379   5.806
  128OSM    C1313655   6.731   5.443   5.695
  128OSM   H13A13656   6.763   5.427   5.593
  128OSM   H13B13657   6.779   5.531   5.734
  128OSM   H13C13658   6.625   5.457   5.689
  128OSM    C1213659   6.741   5.372   5.938
  128OSM   H12A13660   6.640   5.412   5.942
  128OSM   H12B13661   6.797   5.463   5.951
  128OSM    C1113662   6.755   5.259   6.049
  128OSM   H11A13663   6.699   5.168   6.020
  128OSM   H11B13664   6.711   5.296   6.144
  128OSM      P13665   6.990   5.301   6.157
  128OSM    O1313666   7.119   5.231   6.154
  128OSM    O1413667   6.997   5.440   6.109
  128OSM    O1113668   6.925   5.302   6.300
  128OSM    O1213669   6.888   5.220   6.072
  128OSM    C1S13670   6.892   5.176   6.361
  128OSM    H1S13671   6.980   5.111   6.380
  128OSM    H1T13672   6.822   5.121   6.294
  128OSM     NF13673   6.765   5.057   6.542
  128OSM    HNF13674   6.668   5.035   6.541
  128OSM    C2S13675   6.806   5.189   6.492
  128OSM    H2S13676   6.874   5.239   6.564
  128OSM    C3S13677   6.687   5.284   6.474
  128OSM    H3S13678   6.618   5.228   6.407
  128OSM     O313679   6.718   5.405   6.399
  128OSM    HO313680   6.812   5.402   6.378
  128OSM    C4S13681   6.623   5.315   6.609
  128OSM    H4S13682   6.543   5.243   6.629
  128OSM    C5S13683   6.665   5.394   6.703
  128OSM    H5S13684   6.766   5.438   6.705
  128OSM    C6S13685   6.593   5.399   6.836
  128OSM    H6S13686   6.486   5.370   6.830
  128OSM    H6T13687   6.590   5.507   6.859
  128OSM    C7S13688   6.648   5.317   6.953
  128OSM    H7S13689   6.753   5.347   6.974
  128OSM    H7T13690   6.656   5.208   6.934
  128OSM    C8S13691   6.560   5.333   7.073
  128OSM    H8S13692   6.474   5.263   7.063
  128OSM    H8T13693   6.523   5.437   7.069
  128OSM    C9S13694   6.635   5.315   7.204
  128OSM    H9S13695   6.724   5.380   7.214
  128OSM    H9T13696   6.663   5.209   7.220
  128OSM   C10S13697   6.533   5.350   7.325
  128OSM   H10S13698   6.453   5.273   7.321
  128OSM   H10T13699   6.479   5.440   7.290
  128OSM   C11S13700   6.598   5.346   7.473
  128OSM   H11S13701   6.672   5.428   7.485
  128OSM   H11T13702   6.654   5.251   7.484
  128OSM   C12S13703   6.492   5.356   7.585
  128OSM   H12S13704   6.413   5.278   7.583
  128OSM   H12T13705   6.445   5.454   7.560
  128OSM   C13S13706   6.551   5.363   7.716
  128OSM   H13S13707   6.644   5.423   7.706
  128OSM   H13T13708   6.576   5.256   7.734
  128OSM   C14S13709   6.468   5.400   7.840
  128OSM   H14S13710   6.399   5.313   7.847
  128OSM   H14T13711   6.407   5.491   7.823
  128OSM   C15S13712   6.555   5.406   7.966
  128OSM   H15S13713   6.636   5.476   7.938
  128OSM   H15T13714   6.602   5.312   7.999
  128OSM   C16S13715   6.465   5.433   8.085
  128OSM   H16S13716   6.368   5.382   8.070
  128OSM   H16T13717   6.439   5.541   8.092
  128OSM   C17S13718   6.524   5.384   8.218
  128OSM   H17S13719   6.542   5.277   8.195
  128OSM   H17T13720   6.451   5.388   8.301
  128OSM   C18S13721   6.644   5.454   8.259
  128OSM   H18S13722   6.610   5.559   8.276
  128OSM   H18T13723   6.737   5.442   8.198
  128OSM   H18U13724   6.677   5.431   8.362
  128OSM    C1F13725   6.858   4.982   6.596
  128OSM     OF13726   6.966   5.026   6.632
  128OSM    C2F13727   6.809   4.844   6.644
  128OSM    H2F13728   6.821   4.768   6.563
  128OSM    H2G13729   6.700   4.846   6.666
  128OSM    C3F13730   6.885   4.801   6.775
  128OSM    H3F13731   6.993   4.788   6.751
  128OSM    H3G13732   6.853   4.698   6.800
  128OSM    C4F13733   6.863   4.884   6.899
  128OSM    H4F13734   6.761   4.883   6.943
  128OSM    H4G13735   6.902   4.986   6.880
  128OSM    C5F13736   6.963   4.832   7.012
  128OSM    H5F13737   7.062   4.836   6.962
  128OSM    H5G13738   6.935   4.725   7.024
  128OSM    C6F13739   6.950   4.915   7.142
  128OSM    H6F13740   6.917   5.017   7.111
  128OSM    H6G13741   7.047   4.913   7.196
  128OSM    C7F13742   6.850   4.853   7.235
  128OSM    H7F13743   6.878   4.750   7.265
  128OSM    H7G13744   6.756   4.851   7.177
  128OSM    C8F13745   6.836   4.937   7.364
  128OSM    H8F13746   6.737   4.925   7.414
  128OSM    H8G13747   6.834   5.047   7.348
  128OSM    C9F13748   6.945   4.920   7.463
  128OSM    H9F13749   7.033   4.880   7.410
  128OSM   C10F13750   6.946   4.935   7.592
  128OSM   H10F13751   7.037   4.919   7.652
  128OSM   C11F13752   6.828   4.991   7.669
  128OSM   H11F13753   6.732   4.946   7.637
  128OSM   H11G13754   6.810   5.100   7.651
  128OSM   C12F13755   6.854   4.962   7.820
  128OSM   H12F13756   6.959   4.992   7.840
  128OSM   H12G13757   6.836   4.853   7.833
  128OSM   C13F13758   6.758   5.029   7.914
  128OSM   H13F13759   6.654   4.998   7.889
  128OSM   H13G13760   6.772   5.139   7.902
  128OSM   C14F13761   6.794   4.980   8.054
  128OSM   H14F13762   6.902   5.002   8.065
  128OSM   H14G13763   6.786   4.870   8.040
  128OSM   C15F13764   6.702   5.039   8.165
  128OSM   H15F13765   6.597   5.009   8.145
  128OSM   H15G13766   6.716   5.149   8.154
  128OSM   C16F13767   6.729   4.996   8.302
  128OSM   H16F13768   6.829   5.022   8.342
  128OSM   H16G13769   6.714   4.887   8.316
  128OSM   C17F13770   6.638   5.063   8.412
  128OSM   H17F13771   6.531   5.038   8.401
  128OSM   H17G13772   6.654   5.171   8.392
  128OSM   C18F13773   6.684   5.035   8.551
  128OSM   H18F13774   6.609   5.074   8.624
  128OSM   H18G13775   6.785   5.079   8.566
  128OSM   H18H13776   6.695   4.927   8.573
  129OSM      N13777   4.908   6.479   6.162
  129OSM    C1513778   4.961   6.361   6.249
  129OSM   H15A13779   5.039   6.400   6.313
  129OSM   H15B13780   5.002   6.283   6.186
  129OSM   H15C13781   4.875   6.337   6.308
  129OSM    C1413782   4.796   6.420   6.082
  129OSM   H14A13783   4.833   6.332   6.033
  129OSM   H14B13784   4.766   6.488   6.004
  129OSM   H14C13785   4.707   6.389   6.135
  129OSM    C1313786   4.849   6.583   6.255
  129OSM   H13A13787   4.811   6.657   6.186
  129OSM   H13B13788   4.930   6.615   6.318
  129OSM   H13C13789   4.770   6.544   6.318
  129OSM    C1213790   5.029   6.530   6.087
  129OSM   H12A13791   5.001   6.615   6.027
  129OSM   H12B13792   5.075   6.455   6.024
  129OSM    C1113793   5.144   6.590   6.180
  129OSM   H11A13794   5.227   6.617   6.111
  129OSM   H11B13795   5.193   6.517   6.248
  129OSM      P13796   5.089   6.857   6.196
  129OSM    O1313797   5.216   6.873   6.132
  129OSM    O1413798   4.968   6.875   6.113
  129OSM    O1113799   5.081   6.952   6.330
  129OSM    O1213800   5.094   6.703   6.254
  129OSM    C1S13801   5.056   6.905   6.461
  129OSM    H1S13802   5.155   6.893   6.512
  129OSM    H1T13803   5.011   6.803   6.458
  129OSM     NF13804   4.902   6.927   6.662
  129OSM    HNF13805   4.806   6.900   6.657
  129OSM    C2S13806   4.954   6.993   6.540
  129OSM    H2S13807   5.001   7.085   6.580
  129OSM    C3S13808   4.837   7.042   6.449
  129OSM    H3S13809   4.775   6.957   6.413
  129OSM     O313810   4.877   7.107   6.327
  129OSM    HO313811   4.959   7.062   6.306
  129OSM    C4S13812   4.733   7.117   6.524
  129OSM    H4S13813   4.653   7.061   6.574
  129OSM    C5S13814   4.726   7.250   6.538
  129OSM    H5S13815   4.807   7.315   6.503
  129OSM    C6S13816   4.630   7.307   6.642
  129OSM    H6S13817   4.563   7.225   6.674
  129OSM    H6T13818   4.576   7.387   6.587
  129OSM    C7S13819   4.705   7.381   6.755
  129OSM    H7S13820   4.632   7.448   6.806
  129OSM    H7T13821   4.786   7.441   6.710
  129OSM    C8S13822   4.763   7.288   6.865
  129OSM    H8S13823   4.847   7.232   6.818
  129OSM    H8T13824   4.690   7.217   6.909
  129OSM    C9S13825   4.810   7.372   6.990
  129OSM    H9S13826   4.713   7.416   7.024
  129OSM    H9T13827   4.885   7.447   6.958
  129OSM   C10S13828   4.858   7.281   7.103
  129OSM   H10S13829   4.966   7.266   7.082
  129OSM   H10T13830   4.792   7.192   7.107
  129OSM   C11S13831   4.846   7.339   7.246
  129OSM   H11S13832   4.745   7.383   7.262
  129OSM   H11T13833   4.919   7.421   7.236
  129OSM   C12S13834   4.889   7.250   7.364
  129OSM   H12S13835   4.999   7.268   7.366
  129OSM   H12T13836   4.890   7.140   7.357
  129OSM   C13S13837   4.834   7.290   7.494
  129OSM   H13S13838   4.724   7.278   7.504
  129OSM   H13T13839   4.848   7.400   7.490
  129OSM   C14S13840   4.917   7.241   7.616
  129OSM   H14S13841   5.021   7.280   7.620
  129OSM   H14T13842   4.928   7.130   7.606
  129OSM   C15S13843   4.853   7.258   7.754
  129OSM   H15S13844   4.750   7.220   7.736
  129OSM   H15T13845   4.852   7.364   7.789
  129OSM   C16S13846   4.925   7.188   7.874
  129OSM   H16S13847   5.031   7.222   7.878
  129OSM   H16T13848   4.922   7.079   7.853
  129OSM   C17S13849   4.863   7.228   8.002
  129OSM   H17S13850   4.910   7.318   8.048
  129OSM   H17T13851   4.872   7.143   8.072
  129OSM   C18S13852   4.714   7.263   7.999
  129OSM   H18S13853   4.679   7.295   8.099
  129OSM   H18T13854   4.648   7.182   7.960
  129OSM   H18U13855   4.688   7.357   7.946
  129OSM    C1F13856   4.974   6.918   6.774
  129OSM     OF13857   5.088   6.964   6.779
  129OSM    C2F13858   4.907   6.855   6.892
  129OSM    H2F13859   4.875   6.759   6.847
  129OSM    H2G13860   4.825   6.924   6.923
  129OSM    C3F13861   4.994   6.830   7.014
  129OSM    H3F13862   5.046   6.925   7.038
  129OSM    H3G13863   5.074   6.758   6.987
  129OSM    C4F13864   4.903   6.804   7.138
  129OSM    H4F13865   4.867   6.699   7.126
  129OSM    H4G13866   4.820   6.876   7.127
  129OSM    C5F13867   4.977   6.830   7.268
  129OSM    H5F13868   4.995   6.940   7.273
  129OSM    H5G13869   5.077   6.781   7.270
  129OSM    C6F13870   4.906   6.784   7.395
  129OSM    H6F13871   4.876   6.677   7.401
  129OSM    H6G13872   4.809   6.837   7.408
  129OSM    C7F13873   4.997   6.793   7.520
  129OSM    H7F13874   5.014   6.899   7.548
  129OSM    H7G13875   5.092   6.740   7.498
  129OSM    C8F13876   4.929   6.718   7.640
  129OSM    H8F13877   4.822   6.745   7.651
  129OSM    H8G13878   4.987   6.754   7.728
  129OSM    C9F13879   4.945   6.567   7.641
  129OSM    H9F13880   4.921   6.519   7.545
  129OSM   C10F13881   5.013   6.488   7.729
  129OSM   H10F13882   5.014   6.382   7.701
  129OSM   C11F13883   5.086   6.543   7.851
  129OSM   H11F13884   5.049   6.486   7.938
  129OSM   H11G13885   5.051   6.648   7.867
  129OSM   C12F13886   5.239   6.535   7.836
  129OSM   H12F13887   5.276   6.610   7.763
  129OSM   H12G13888   5.271   6.432   7.808
  129OSM   C13F13889   5.307   6.550   7.974
  129OSM   H13F13890   5.271   6.480   8.052
  129OSM   H13G13891   5.286   6.654   8.007
  129OSM   C14F13892   5.463   6.538   7.969
  129OSM   H14F13893   5.514   6.579   7.879
  129OSM   H14G13894   5.485   6.430   7.968
  129OSM   C15F13895   5.533   6.593   8.095
  129OSM   H15F13896   5.535   6.704   8.099
  129OSM   H15G13897   5.640   6.563   8.082
  129OSM   C16F13898   5.484   6.536   8.230
  129OSM   H16F13899   5.474   6.427   8.208
  129OSM   H16G13900   5.386   6.578   8.261
  129OSM   C17F13901   5.587   6.568   8.332
  129OSM   H17F13902   5.606   6.676   8.352
  129OSM   H17G13903   5.675   6.517   8.289
  129OSM   C18F13904   5.540   6.527   8.474
  129OSM   H18F13905   5.630   6.545   8.535
  129OSM   H18G13906   5.522   6.417   8.483
  129OSM   H18H13907   5.454   6.590   8.505
  130OSM      N13908   5.525   3.994   5.877
  130OSM    C1513909   5.446   3.962   5.751
  130OSM   H15A13910   5.362   3.906   5.789
  130OSM   H15B13911   5.510   3.911   5.681
  130OSM   H15C13912   5.408   4.050   5.701
  130OSM    C1413913   5.578   3.861   5.915
  130OSM   H14A13914   5.498   3.788   5.910
  130OSM   H14B13915   5.602   3.861   6.020
  130OSM   H14C13916   5.668   3.828   5.865
  130OSM    C1313917   5.637   4.099   5.838
  130OSM   H13A13918   5.698   4.074   5.752
  130OSM   H13B13919   5.711   4.110   5.916
  130OSM   H13C13920   5.591   4.194   5.815
  130OSM    C1213921   5.437   4.048   5.980
  130OSM   H12A13922   5.344   3.995   5.993
  130OSM   H12B13923   5.417   4.145   5.936
  130OSM    C1113924   5.487   4.073   6.129
  130OSM   H11A13925   5.408   4.126   6.185
  130OSM   H11B13926   5.587   4.121   6.136
  130OSM      P13927   5.598   3.922   6.313
  130OSM    O1313928   5.559   3.793   6.384
  130OSM    O1413929   5.734   3.931   6.259
  130OSM    O1113930   5.584   4.045   6.415
  130OSM    O1213931   5.502   3.945   6.190
  130OSM    C1S13932   5.447   4.092   6.453
  130OSM    H1S13933   5.363   4.025   6.422
  130OSM    H1T13934   5.413   4.185   6.403
  130OSM     NF13935   5.298   4.136   6.649
  130OSM    HNF13936   5.270   4.228   6.675
  130OSM    C2S13937   5.436   4.123   6.605
  130OSM    H2S13938   5.461   4.028   6.657
  130OSM    C3S13939   5.538   4.225   6.660
  130OSM    H3S13940   5.521   4.319   6.603
  130OSM     O313941   5.669   4.186   6.626
  130OSM    HO313942   5.660   4.107   6.572
  130OSM    C4S13943   5.519   4.271   6.799
  130OSM    H4S13944   5.426   4.328   6.813
  130OSM    C5S13945   5.608   4.262   6.907
  130OSM    H5S13946   5.709   4.222   6.893
  130OSM    C6S13947   5.591   4.341   7.030
  130OSM    H6S13948   5.499   4.402   7.031
  130OSM    H6T13949   5.679   4.404   7.055
  130OSM    C7S13950   5.583   4.264   7.165
  130OSM    H7S13951   5.666   4.190   7.171
  130OSM    H7T13952   5.496   4.197   7.148
  130OSM    C8S13953   5.567   4.359   7.287
  130OSM    H8S13954   5.461   4.387   7.273
  130OSM    H8T13955   5.629   4.450   7.271
  130OSM    C9S13956   5.604   4.299   7.423
  130OSM    H9S13957   5.587   4.374   7.503
  130OSM    H9T13958   5.708   4.260   7.423
  130OSM   C10S13959   5.509   4.181   7.457
  130OSM   H10S13960   5.503   4.120   7.365
  130OSM   H10T13961   5.411   4.228   7.478
  130OSM   C11S13962   5.562   4.108   7.578
  130OSM   H11S13963   5.673   4.116   7.574
  130OSM   H11T13964   5.534   4.001   7.571
  130OSM   C12S13965   5.522   4.165   7.712
  130OSM   H12S13966   5.417   4.185   7.742
  130OSM   H12T13967   5.564   4.267   7.696
  130OSM   C13S13968   5.597   4.109   7.832
  130OSM   H13S13969   5.611   4.186   7.912
  130OSM   H13T13970   5.701   4.079   7.808
  130OSM   C14S13971   5.514   3.993   7.886
  130OSM   H14S13972   5.506   3.907   7.817
  130OSM   H14T13973   5.414   4.040   7.895
  130OSM   C15S13974   5.558   3.917   8.017
  130OSM   H15S13975   5.570   3.992   8.098
  130OSM   H15T13976   5.660   3.881   7.991
  130OSM   C16S13977   5.475   3.804   8.056
  130OSM   H16S13978   5.487   3.719   7.986
  130OSM   H16T13979   5.367   3.830   8.055
  130OSM   C17S13980   5.515   3.754   8.199
  130OSM   H17S13981   5.625   3.754   8.208
  130OSM   H17T13982   5.487   3.647   8.208
  130OSM   C18S13983   5.456   3.837   8.305
  130OSM   H18S13984   5.473   3.946   8.293
  130OSM   H18T13985   5.502   3.803   8.401
  130OSM   H18U13986   5.346   3.826   8.304
  130OSM    C1F13987   5.212   4.037   6.641
  130OSM     OF13988   5.253   3.926   6.615
  130OSM    C2F13989   5.070   4.064   6.689
  130OSM    H2F13990   5.043   3.981   6.759
  130OSM    H2G13991   5.010   4.051   6.597
  130OSM    C3F13992   5.052   4.188   6.787
  130OSM    H3F13993   4.943   4.192   6.810
  130OSM    H3G13994   5.082   4.280   6.734
  130OSM    C4F13995   5.132   4.188   6.920
  130OSM    H4F13996   5.238   4.196   6.890
  130OSM    H4G13997   5.119   4.089   6.968
  130OSM    C5F13998   5.103   4.296   7.019
  130OSM    H5F13999   4.997   4.300   7.052
  130OSM    H5G14000   5.116   4.384   6.952
  130OSM    C6F14001   5.187   4.322   7.140
  130OSM    H6F14002   5.180   4.425   7.181
  130OSM    H6G14003   5.297   4.319   7.122
  130OSM    C7F14004   5.159   4.217   7.251
  130OSM    H7F14005   5.258   4.197   7.296
  130OSM    H7G14006   5.128   4.123   7.201
  130OSM    C8F14007   5.055   4.265   7.356
  130OSM    H8F14008   4.960   4.271   7.299
  130OSM    H8G14009   5.082   4.368   7.386
  130OSM    C9F14010   5.035   4.161   7.459
  130OSM    H9F14011   5.061   4.062   7.419
  130OSM   C10F14012   5.009   4.179   7.586
  130OSM   H10F14013   4.994   4.092   7.651
  130OSM   C11F14014   4.980   4.311   7.654
  130OSM   H11F14015   4.901   4.305   7.732
  130OSM   H11G14016   4.933   4.372   7.574
  130OSM   C12F14017   5.113   4.382   7.703
  130OSM   H12F14018   5.084   4.487   7.722
  130OSM   H12G14019   5.184   4.383   7.617
  130OSM   C13F14020   5.190   4.319   7.817
  130OSM   H13F14021   5.281   4.379   7.839
  130OSM   H13G14022   5.217   4.217   7.784
  130OSM   C14F14023   5.105   4.302   7.938
  130OSM   H14F14024   5.015   4.243   7.908
  130OSM   H14G14025   5.073   4.398   7.985
  130OSM   C15F14026   5.164   4.201   8.033
  130OSM   H15F14027   5.192   4.113   7.971
  130OSM   H15G14028   5.086   4.165   8.103
  130OSM   C16F14029   5.283   4.257   8.113
  130OSM   H16F14030   5.261   4.365   8.124
  130OSM   H16G14031   5.383   4.254   8.065
  130OSM   C17F14032   5.304   4.190   8.252
  130OSM   H17F14033   5.408   4.219   8.280
  130OSM   H17G14034   5.302   4.083   8.223
  130OSM   C18F14035   5.198   4.218   8.365
  130OSM   H18F14036   5.094   4.200   8.328
  130OSM   H18G14037   5.202   4.314   8.421
  130OSM   H18H14038   5.226   4.152   8.450
  131OSM      N14039   5.883   2.750   6.328
  131OSM    C1514040   5.852   2.878   6.252
  131OSM   H15A14041   5.752   2.876   6.211
  131OSM   H15B14042   5.917   2.901   6.168
  131OSM   H15C14043   5.853   2.963   6.318
  131OSM    C1414044   6.009   2.767   6.409
  131OSM   H14A14045   6.095   2.775   6.345
  131OSM   H14B14046   6.028   2.684   6.476
  131OSM   H14C14047   6.006   2.863   6.460
  131OSM    C1314048   5.763   2.727   6.418
  131OSM   H13A14049   5.665   2.717   6.373
  131OSM   H13B14050   5.752   2.806   6.490
  131OSM   H13C14051   5.777   2.639   6.479
  131OSM    C1214052   5.886   2.629   6.232
  131OSM   H12A14053   5.951   2.649   6.147
  131OSM   H12B14054   5.789   2.622   6.186
  131OSM    C1114055   5.951   2.495   6.282
  131OSM   H11A14056   5.889   2.452   6.363
  131OSM   H11B14057   6.050   2.514   6.329
  131OSM      P14058   5.864   2.291   6.146
  131OSM    O1314059   5.727   2.341   6.121
  131OSM    O1414060   5.917   2.201   6.040
  131OSM    O1114061   5.865   2.201   6.272
  131OSM    O1214062   5.962   2.409   6.172
  131OSM    C1S14063   5.997   2.176   6.327
  131OSM    H1S14064   6.058   2.269   6.333
  131OSM    H1T14065   6.055   2.096   6.276
  131OSM     NF14066   6.126   2.109   6.532
  131OSM    HNF14067   6.157   2.014   6.536
  131OSM    C2S14068   5.991   2.120   6.479
  131OSM    H2S14069   5.938   2.198   6.538
  131OSM    C3S14070   5.924   1.987   6.484
  131OSM    H3S14071   5.986   1.897   6.466
  131OSM     O314072   5.809   1.982   6.410
  131OSM    HO314073   5.807   2.065   6.363
  131OSM    C4S14074   5.881   1.966   6.627
  131OSM    H4S14075   5.784   2.016   6.642
  131OSM    C5S14076   5.950   1.907   6.727
  131OSM    H5S14077   6.046   1.856   6.710
  131OSM    C6S14078   5.915   1.906   6.873
  131OSM    H6S14079   5.994   1.948   6.939
  131OSM    H6T14080   5.901   1.799   6.900
  131OSM    C7S14081   5.779   1.969   6.903
  131OSM    H7S14082   5.687   1.928   6.858
  131OSM    H7T14083   5.776   2.074   6.867
  131OSM    C8S14084   5.765   1.970   7.059
  131OSM    H8S14085   5.847   2.020   7.115
  131OSM    H8T14086   5.760   1.866   7.098
  131OSM    C9S14087   5.642   2.042   7.120
  131OSM    H9S14088   5.558   1.990   7.068
  131OSM    H9T14089   5.647   2.153   7.109
  131OSM   C10S14090   5.637   2.030   7.268
  131OSM   H10S14091   5.709   2.103   7.311
  131OSM   H10T14092   5.664   1.928   7.302
  131OSM   C11S14093   5.495   2.065   7.322
  131OSM   H11S14094   5.418   2.012   7.262
  131OSM   H11T14095   5.487   2.176   7.314
  131OSM   C12S14096   5.490   2.029   7.465
  131OSM   H12S14097   5.558   2.098   7.518
  131OSM   H12T14098   5.512   1.920   7.468
  131OSM   C13S14099   5.354   2.029   7.534
  131OSM   H13S14100   5.278   1.976   7.473
  131OSM   H13T14101   5.319   2.134   7.545
  131OSM   C14S14102   5.367   1.947   7.663
  131OSM   H14S14103   5.444   1.998   7.726
  131OSM   H14T14104   5.403   1.846   7.636
  131OSM   C15S14105   5.232   1.931   7.726
  131OSM   H15S14106   5.166   1.904   7.640
  131OSM   H15T14107   5.195   2.027   7.769
  131OSM   C16S14108   5.227   1.813   7.829
  131OSM   H16S14109   5.255   1.726   7.765
  131OSM   H16T14110   5.120   1.799   7.854
  131OSM   C17S14111   5.323   1.832   7.951
  131OSM   H17S14112   5.299   1.936   7.982
  131OSM   H17T14113   5.429   1.828   7.919
  131OSM   C18S14114   5.299   1.739   8.062
  131OSM   H18S14115   5.193   1.731   8.095
  131OSM   H18T14116   5.367   1.758   8.149
  131OSM   H18U14117   5.326   1.638   8.026
  131OSM    C1F14118   6.203   2.217   6.561
  131OSM     OF14119   6.156   2.327   6.572
  131OSM    C2F14120   6.345   2.175   6.592
  131OSM    H2F14121   6.402   2.222   6.509
  131OSM    H2G14122   6.368   2.067   6.587
  131OSM    C3F14123   6.397   2.226   6.726
  131OSM    H3F14124   6.366   2.331   6.745
  131OSM    H3G14125   6.508   2.220   6.729
  131OSM    C4F14126   6.332   2.139   6.837
  131OSM    H4F14127   6.372   2.035   6.836
  131OSM    H4G14128   6.222   2.131   6.831
  131OSM    C5F14129   6.351   2.192   6.978
  131OSM    H5F14130   6.291   2.285   6.982
  131OSM    H5G14131   6.461   2.206   6.988
  131OSM    C6F14132   6.301   2.095   7.083
  131OSM    H6F14133   6.349   1.996   7.064
  131OSM    H6G14134   6.191   2.096   7.091
  131OSM    C7F14135   6.382   2.131   7.215
  131OSM    H7F14136   6.354   2.237   7.230
  131OSM    H7G14137   6.492   2.121   7.203
  131OSM    C8F14138   6.341   2.054   7.347
  131OSM    H8F14139   6.341   1.943   7.338
  131OSM    H8G14140   6.237   2.088   7.366
  131OSM    C9F14141   6.420   2.089   7.471
  131OSM    H9F14142   6.497   2.166   7.454
  131OSM   C10F14143   6.401   2.049   7.597
  131OSM   H10F14144   6.476   2.076   7.672
  131OSM   C11F14145   6.295   1.959   7.660
  131OSM   H11F14146   6.227   1.915   7.583
  131OSM   H11G14147   6.237   2.026   7.727
  131OSM   C12F14148   6.361   1.843   7.753
  131OSM   H12F14149   6.416   1.883   7.841
  131OSM   H12G14150   6.434   1.791   7.689
  131OSM   C13F14151   6.256   1.738   7.795
  131OSM   H13F14152   6.208   1.684   7.711
  131OSM   H13G14153   6.183   1.801   7.851
  131OSM   C14F14154   6.304   1.634   7.896
  131OSM   H14F14155   6.402   1.597   7.859
  131OSM   H14G14156   6.233   1.549   7.900
  131OSM   C15F14157   6.331   1.689   8.038
  131OSM   H15F14158   6.238   1.689   8.098
  131OSM   H15G14159   6.377   1.790   8.032
  131OSM   C16F14160   6.437   1.594   8.098
  131OSM   H16F14161   6.524   1.585   8.029
  131OSM   H16G14162   6.393   1.491   8.095
  131OSM   C17F14163   6.479   1.645   8.234
  131OSM   H17F14164   6.518   1.566   8.302
  131OSM   H17G14165   6.385   1.683   8.280
  131OSM   C18F14166   6.571   1.762   8.221
  131OSM   H18F14167   6.671   1.725   8.188
  131OSM   H18G14168   6.577   1.811   8.320
  131OSM   H18H14169   6.540   1.840   8.148
  132OSM      N14170   1.014   5.891   6.070
  132OSM    C1514171   1.074   5.977   6.173
  132OSM   H15A14172   1.020   5.979   6.266
  132OSM   H15B14173   1.094   6.081   6.150
  132OSM   H15C14174   1.173   5.937   6.189
  132OSM    C1414175   0.875   5.931   6.041
  132OSM   H14A14176   0.811   5.927   6.128
  132OSM   H14B14177   0.824   5.875   5.964
  132OSM   H14C14178   0.869   6.034   6.010
  132OSM    C1314179   1.083   5.917   5.941
  132OSM   H13A14180   1.040   6.007   5.899
  132OSM   H13B14181   1.069   5.850   5.858
  132OSM   H13C14182   1.190   5.933   5.954
  132OSM    C1214183   1.015   5.751   6.117
  132OSM   H12A14184   0.921   5.703   6.094
  132OSM   H12B14185   1.021   5.758   6.224
  132OSM    C1114186   1.125   5.652   6.071
  132OSM   H11A14187   1.127   5.659   5.960
  132OSM   H11B14188   1.092   5.550   6.098
  132OSM      P14189   1.285   5.649   6.284
  132OSM    O1314190   1.299   5.503   6.306
  132OSM    O1414191   1.403   5.727   6.323
  132OSM    O1114192   1.149   5.711   6.352
  132OSM    O1214193   1.253   5.681   6.128
  132OSM    C1S14194   1.061   5.628   6.427
  132OSM    H1S14195   1.092   5.522   6.412
  132OSM    H1T14196   0.957   5.638   6.392
  132OSM     NF14197   1.003   5.549   6.657
  132OSM    HNF14198   0.909   5.565   6.684
  132OSM    C2S14199   1.070   5.655   6.580
  132OSM    H2S14200   1.177   5.653   6.611
  132OSM    C3S14201   1.023   5.799   6.602
  132OSM    H3S14202   0.920   5.799   6.562
  132OSM     O314203   1.100   5.895   6.530
  132OSM    HO314204   1.152   5.850   6.463
  132OSM    C4S14205   1.005   5.838   6.747
  132OSM    H4S14206   0.906   5.833   6.795
  132OSM    C5S14207   1.107   5.898   6.814
  132OSM    H5S14208   1.201   5.926   6.764
  132OSM    C6S14209   1.104   5.943   6.957
  132OSM    H6S14210   1.143   6.047   6.964
  132OSM    H6T14211   1.162   5.879   7.027
  132OSM    C7S14212   0.961   5.971   7.010
  132OSM    H7S14213   0.906   5.874   7.005
  132OSM    H7T14214   0.915   6.043   6.939
  132OSM    C8S14215   0.961   6.011   7.159
  132OSM    H8S14216   0.862   6.050   7.189
  132OSM    H8T14217   1.029   6.098   7.174
  132OSM    C9S14218   0.990   5.899   7.256
  132OSM    H9S14219   1.086   5.849   7.226
  132OSM    H9T14220   0.914   5.821   7.233
  132OSM   C10S14221   1.004   5.928   7.412
  132OSM   H10S14222   0.932   6.011   7.426
  132OSM   H10T14223   1.105   5.966   7.436
  132OSM   C11S14224   0.972   5.808   7.499
  132OSM   H11S14225   1.030   5.718   7.469
  132OSM   H11T14226   0.868   5.772   7.484
  132OSM   C12S14227   1.004   5.843   7.642
  132OSM   H12S14228   0.920   5.908   7.675
  132OSM   H12T14229   1.097   5.903   7.647
  132OSM   C13S14230   1.016   5.726   7.737
  132OSM   H13S14231   1.095   5.658   7.698
  132OSM   H13T14232   0.920   5.671   7.742
  132OSM   C14S14233   1.059   5.759   7.879
  132OSM   H14S14234   1.047   5.668   7.943
  132OSM   H14T14235   0.979   5.828   7.913
  132OSM   C15S14236   1.201   5.820   7.883
  132OSM   H15S14237   1.190   5.928   7.860
  132OSM   H15T14238   1.261   5.776   7.800
  132OSM   C16S14239   1.275   5.801   8.016
  132OSM   H16S14240   1.383   5.827   8.009
  132OSM   H16T14241   1.270   5.692   8.038
  132OSM   C17S14242   1.208   5.873   8.137
  132OSM   H17S14243   1.101   5.861   8.110
  132OSM   H17T14244   1.246   5.976   8.121
  132OSM   C18S14245   1.235   5.812   8.271
  132OSM   H18S14246   1.342   5.787   8.286
  132OSM   H18T14247   1.167   5.728   8.299
  132OSM   H18U14248   1.219   5.889   8.350
  132OSM    C1F14249   1.045   5.420   6.647
  132OSM     OF14250   1.159   5.389   6.616
  132OSM    C2F14251   0.941   5.319   6.675
  132OSM    H2F14252   0.920   5.262   6.582
  132OSM    H2G14253   0.848   5.375   6.701
  132OSM    C3F14254   0.980   5.230   6.794
  132OSM    H3F14255   1.083   5.190   6.785
  132OSM    H3G14256   0.920   5.137   6.803
  132OSM    C4F14257   0.975   5.302   6.925
  132OSM    H4F14258   0.868   5.315   6.951
  132OSM    H4G14259   1.033   5.396   6.914
  132OSM    C5F14260   1.039   5.215   7.034
  132OSM    H5F14261   1.149   5.208   7.016
  132OSM    H5G14262   0.992   5.115   7.024
  132OSM    C6F14263   1.020   5.275   7.172
  132OSM    H6F14264   0.915   5.278   7.207
  132OSM    H6G14265   1.057   5.380   7.176
  132OSM    C7F14266   1.097   5.193   7.279
  132OSM    H7F14267   1.204   5.197   7.252
  132OSM    H7G14268   1.081   5.083   7.290
  132OSM    C8F14269   1.073   5.247   7.421
  132OSM    H8F14270   1.095   5.356   7.423
  132OSM    H8G14271   1.145   5.192   7.486
  132OSM    C9F14272   0.929   5.231   7.471
  132OSM    H9F14273   0.863   5.205   7.387
  132OSM   C10F14274   0.868   5.268   7.587
  132OSM   H10F14275   0.764   5.235   7.597
  132OSM   C11F14276   0.926   5.326   7.712
  132OSM   H11F14277   0.855   5.371   7.785
  132OSM   H11G14278   0.999   5.407   7.691
  132OSM   C12F14279   1.010   5.230   7.797
  132OSM   H12F14280   1.095   5.196   7.735
  132OSM   H12G14281   0.956   5.137   7.826
  132OSM   C13F14282   1.047   5.303   7.927
  132OSM   H13F14283   0.960   5.346   7.980
  132OSM   H13G14284   1.101   5.396   7.899
  132OSM   C14F14285   1.136   5.219   8.020
  132OSM   H14F14286   1.232   5.193   7.971
  132OSM   H14G14287   1.086   5.120   8.021
  132OSM   C15F14288   1.141   5.286   8.152
  132OSM   H15F14289   1.035   5.310   8.178
  132OSM   H15G14290   1.193   5.384   8.149
  132OSM   C16F14291   1.195   5.190   8.264
  132OSM   H16F14292   1.305   5.179   8.259
  132OSM   H16G14293   1.157   5.087   8.249
  132OSM   C17F14294   1.150   5.243   8.397
  132OSM   H17F14295   1.051   5.293   8.404
  132OSM   H17G14296   1.225   5.319   8.426
  132OSM   C18F14297   1.170   5.129   8.501
  132OSM   H18F14298   1.273   5.087   8.508
  132OSM   H18G14299   1.105   5.043   8.480
  132OSM   H18H14300   1.162   5.169   8.605
  133SAPE     N14301   2.459   2.840  10.879
  133SAPE   HN114302   2.418   2.903  10.807
  133SAPE   HN214303   2.378   2.790  10.920
  133SAPE   HN314304   2.513   2.893  10.951
  133SAPE   C1214305   2.548   2.742  10.814
  133SAPE  H12A14306   2.485   2.664  10.764
  133SAPE  H12B14307   2.597   2.697  10.903
  133SAPE   C1114308   2.657   2.811  10.728
  133SAPE  H11A14309   2.614   2.867  10.643
  133SAPE  H11B14310   2.723   2.733  10.685
  133SAPE     P14311   2.857   2.971  10.758
  133SAPE   O1314312   2.849   3.119  10.779
  133SAPE   O1414313   2.976   2.905  10.820
  133SAPE   O1214314   2.720   2.902  10.814
  133SAPE   O1114315   2.866   2.951  10.601
  133SAPE    C114316   2.864   3.044  10.496
  133SAPE    HA14317   2.766   3.089  10.468
  133SAPE    HB14318   2.929   3.131  10.520
  133SAPE    C214319   2.925   2.987  10.353
  133SAPE    HS14320   3.030   3.025  10.353
  133SAPE   O2114321   2.861   3.028  10.234
  133SAPE   C2114322   2.863   3.159  10.204
  133SAPE   O2214323   2.897   3.248  10.280
  133SAPE   C2214324   2.851   3.173  10.054
  133SAPE   H2R14325   2.950   3.149  10.011
  133SAPE   H2S14326   2.774   3.097  10.026
  133SAPE    C314327   2.931   2.834  10.350
  133SAPE    HX14328   2.834   2.792  10.384
  133SAPE    HY14329   3.004   2.802  10.427
  133SAPE   O3114330   2.968   2.777  10.226
  133SAPE   C3114331   3.093   2.803  10.183
  133SAPE   O3214332   3.179   2.851  10.251
  133SAPE   C3214333   3.105   2.793  10.038
  133SAPE   H2X14334   3.008   2.831   9.998
  133SAPE   H2Y14335   3.118   2.685  10.014
  133SAPE   C2314336   2.798   3.314  10.013
  133SAPE   H3R14337   2.874   3.385  10.052
  133SAPE   H3S14338   2.699   3.330  10.060
  133SAPE   C2414339   2.788   3.335   9.857
  133SAPE   H4R14340   2.881   3.293   9.813
  133SAPE   H4S14341   2.784   3.442   9.829
  133SAPE   C2514342   2.661   3.266   9.809
  133SAPE   H5R14343   2.654   3.168   9.858
  133SAPE   C2614344   2.558   3.330   9.743
  133SAPE   H6R14345   2.467   3.270   9.726
  133SAPE   C2714346   2.558   3.472   9.687
  133SAPE   H7R14347   2.492   3.482   9.598
  133SAPE   H7S14348   2.661   3.496   9.654
  133SAPE   C2814349   2.513   3.569   9.789
  133SAPE   H8R14350   2.576   3.562   9.878
  133SAPE   C2914351   2.417   3.663   9.783
  133SAPE   H9R14352   2.388   3.708   9.879
  133SAPE  C21014353   2.349   3.717   9.655
  133SAPE  H10R14354   2.252   3.671   9.625
  133SAPE  H10S14355   2.420   3.700   9.572
  133SAPE  C21114356   2.329   3.859   9.691
  133SAPE  H11R14357   2.240   3.879   9.752
  133SAPE  C21214358   2.394   3.968   9.660
  133SAPE  H12R14359   2.374   4.068   9.701
  133SAPE  C21314360   2.527   3.968   9.585
  133SAPE  H13R14361   2.542   3.865   9.546
  133SAPE  H13S14362   2.606   3.991   9.660
  133SAPE  C21414363   2.539   4.068   9.475
  133SAPE  H14R14364   2.574   4.169   9.501
  133SAPE  C21514365   2.493   4.050   9.351
  133SAPE  H15R14366   2.517   4.130   9.280
  133SAPE  C21614367   2.413   3.929   9.311
  133SAPE  H16R14368   2.402   3.862   9.399
  133SAPE  H16S14369   2.460   3.870   9.229
  133SAPE  C21714370   2.279   3.965   9.252
  133SAPE  H17R14371   2.292   4.025   9.160
  133SAPE  H17S14372   2.229   4.024   9.332
  133SAPE  C21814373   2.187   3.841   9.227
  133SAPE  H18R14374   2.242   3.762   9.172
  133SAPE  H18S14375   2.105   3.880   9.163
  133SAPE  C21914376   2.118   3.797   9.353
  133SAPE  H19R14377   2.056   3.874   9.403
  133SAPE  H19S14378   2.204   3.780   9.421
  133SAPE  C22014379   2.044   3.671   9.334
  133SAPE  H20R14380   1.942   3.685   9.291
  133SAPE  H20S14381   2.046   3.613   9.428
  133SAPE  H20T14382   2.101   3.608   9.263
  133SAPE   C3314383   3.220   2.870   9.977
  133SAPE   H3X14384   3.314   2.836  10.024
  133SAPE   H3Y14385   3.201   2.979   9.979
  133SAPE   C3414386   3.247   2.848   9.828
  133SAPE   H4X14387   3.272   2.742   9.807
  133SAPE   H4Y14388   3.335   2.910   9.800
  133SAPE   C3514389   3.143   2.896   9.733
  133SAPE   H5X14390   3.054   2.830   9.728
  133SAPE   H5Y14391   3.197   2.882   9.638
  133SAPE   C3614392   3.106   3.046   9.741
  133SAPE   H6X14393   3.199   3.099   9.770
  133SAPE   H6Y14394   3.027   3.065   9.817
  133SAPE   C3714395   3.057   3.101   9.609
  133SAPE   H7X14396   3.129   3.057   9.537
  133SAPE   H7Y14397   3.057   3.211   9.597
  133SAPE   C3814398   2.917   3.053   9.572
  133SAPE   H8X14399   2.853   3.059   9.662
  133SAPE   H8Y14400   2.915   2.945   9.547
  133SAPE   C3914401   2.841   3.142   9.465
  133SAPE   H9X14402   2.831   3.240   9.517
  133SAPE   H9Y14403   2.738   3.106   9.445
  133SAPE  C31014404   2.912   3.156   9.327
  133SAPE  H10X14405   2.898   3.066   9.262
  133SAPE  H10Y14406   3.020   3.176   9.344
  133SAPE  C31114407   2.850   3.261   9.231
  133SAPE  H11X14408   2.872   3.355   9.287
  133SAPE  H11Y14409   2.740   3.257   9.241
  133SAPE  C31214410   2.885   3.237   9.084
  133SAPE  H12X14411   2.879   3.127   9.063
  133SAPE  H12Y14412   2.993   3.258   9.066
  133SAPE  C31314413   2.787   3.301   8.986
  133SAPE  H13X14414   2.759   3.406   9.005
  133SAPE  H13Y14415   2.698   3.235   8.997
  133SAPE  C31414416   2.834   3.283   8.838
  133SAPE  H14X14417   2.838   3.174   8.815
  133SAPE  H14Y14418   2.938   3.314   8.813
  133SAPE  C31514419   2.735   3.325   8.733
  133SAPE  H15X14420   2.708   3.432   8.732
  133SAPE  H15Y14421   2.647   3.258   8.737
  133SAPE  C31614422   2.804   3.303   8.591
  133SAPE  H16X14423   2.863   3.209   8.601
  133SAPE  H16Y14424   2.874   3.385   8.568
  133SAPE  C31714425   2.704   3.297   8.474
  133SAPE  H17X14426   2.769   3.306   8.384
  133SAPE  H17Y14427   2.636   3.385   8.468
  133SAPE  C31814428   2.623   3.168   8.453
  133SAPE  H18X14429   2.522   3.178   8.500
  133SAPE  H18Y14430   2.667   3.080   8.503
  133SAPE  H18Z14431   2.608   3.155   8.343
  134SAPE     N14432   6.194   4.127  10.786
  134SAPE   HN114433   6.157   4.047  10.841
  134SAPE   HN214434   6.259   4.168  10.856
  134SAPE   HN314435   6.117   4.190  10.756
  134SAPE   C1214436   6.259   4.065  10.668
  134SAPE  H12A14437   6.365   4.045  10.695
  134SAPE  H12B14438   6.262   4.148  10.594
  134SAPE   C1114439   6.190   3.949  10.601
  134SAPE  H11A14440   6.269   3.916  10.529
  134SAPE  H11B14441   6.098   3.978  10.545
  134SAPE     P14442   6.229   3.725  10.750
  134SAPE   O1314443   6.371   3.750  10.773
  134SAPE   O1414444   6.151   3.648  10.848
  134SAPE   O1214445   6.152   3.861  10.709
  134SAPE   O1114446   6.219   3.649  10.615
  134SAPE    C114447   6.095   3.647  10.537
  134SAPE    HA14448   6.010   3.690  10.594
  134SAPE    HB14449   6.104   3.714  10.449
  134SAPE    C214450   6.049   3.507  10.491
  134SAPE    HS14451   6.130   3.447  10.444
  134SAPE   O2114452   5.936   3.522  10.401
  134SAPE   C2114453   5.969   3.574  10.280
  134SAPE   O2214454   6.085   3.582  10.243
  134SAPE   C2214455   5.842   3.603  10.200
  134SAPE   H2R14456   5.842   3.551  10.102
  134SAPE   H2S14457   5.756   3.560  10.256
  134SAPE    C314458   6.004   3.418  10.609
  134SAPE    HX14459   5.931   3.477  10.669
  134SAPE    HY14460   6.097   3.399  10.665
  134SAPE   O3114461   5.939   3.300  10.559
  134SAPE   C3114462   6.017   3.209  10.516
  134SAPE   O3214463   6.139   3.211  10.521
  134SAPE   C3214464   5.941   3.106  10.425
  134SAPE   H2X14465   5.854   3.064  10.479
  134SAPE   H2Y14466   6.014   3.026  10.402
  134SAPE   C2314467   5.835   3.755  10.176
  134SAPE   H3R14468   5.885   3.772  10.078
  134SAPE   H3S14469   5.899   3.809  10.248
  134SAPE   C2414470   5.693   3.821  10.174
  134SAPE   H4R14471   5.707   3.922  10.129
  134SAPE   H4S14472   5.659   3.852  10.275
  134SAPE   C2514473   5.587   3.738  10.104
  134SAPE   H5R14474   5.529   3.675  10.173
  134SAPE   C2614475   5.572   3.733   9.966
  134SAPE   H6R14476   5.498   3.663   9.926
  134SAPE   C2714477   5.634   3.832   9.866
  134SAPE   H7R14478   5.684   3.917   9.916
  134SAPE   H7S14479   5.550   3.868   9.802
  134SAPE   C2814480   5.749   3.767   9.799
  134SAPE   H8R14481   5.837   3.763   9.866
  134SAPE   C2914482   5.759   3.724   9.675
  134SAPE   H9R14483   5.859   3.691   9.641
  134SAPE  C21014484   5.647   3.730   9.566
  134SAPE  H10R14485   5.552   3.700   9.614
  134SAPE  H10S14486   5.669   3.645   9.497
  134SAPE  C21114487   5.644   3.861   9.494
  134SAPE  H11R14488   5.600   3.949   9.543
  134SAPE  C21214489   5.668   3.886   9.368
  134SAPE  H12R14490   5.639   3.983   9.325
  134SAPE  C21314491   5.693   3.775   9.269
  134SAPE  H13R14492   5.641   3.801   9.174
  134SAPE  H13S14493   5.638   3.683   9.299
  134SAPE  C21414494   5.841   3.748   9.249
  134SAPE  H14R14495   5.901   3.835   9.221
  134SAPE  C21514496   5.896   3.625   9.257
  134SAPE  H15R14497   6.005   3.619   9.243
  134SAPE  C21614498   5.818   3.507   9.296
  134SAPE  H16R14499   5.730   3.486   9.231
  134SAPE  H16S14500   5.787   3.518   9.402
  134SAPE  C21714501   5.914   3.392   9.278
  134SAPE  H17R14502   5.868   3.310   9.336
  134SAPE  H17S14503   6.016   3.390   9.322
  134SAPE  C21814504   5.941   3.344   9.136
  134SAPE  H18R14505   6.050   3.322   9.127
  134SAPE  H18S14506   5.919   3.428   9.067
  134SAPE  C21914507   5.854   3.228   9.094
  134SAPE  H19R14508   5.747   3.257   9.095
  134SAPE  H19S14509   5.873   3.144   9.164
  134SAPE  C22014510   5.886   3.176   8.958
  134SAPE  H20R14511   5.868   3.253   8.881
  134SAPE  H20S14512   5.820   3.092   8.929
  134SAPE  H20T14513   5.996   3.160   8.960
  134SAPE   C3314514   5.889   3.164  10.287
  134SAPE   H3X14515   5.811   3.240  10.309
  134SAPE   H3Y14516   5.837   3.077  10.241
  134SAPE   C3414517   5.998   3.209  10.190
  134SAPE   H4X14518   6.077   3.130  10.195
  134SAPE   H4Y14519   6.046   3.304  10.220
  134SAPE   C3514520   5.943   3.230  10.055
  134SAPE   H5X14521   5.867   3.310  10.038
  134SAPE   H5Y14522   5.883   3.142  10.023
  134SAPE   C3614523   6.048   3.251   9.948
  134SAPE   H6X14524   6.002   3.239   9.848
  134SAPE   H6Y14525   6.125   3.173   9.964
  134SAPE   C3714526   6.112   3.393   9.959
  134SAPE   H7X14527   6.147   3.419  10.061
  134SAPE   H7Y14528   6.028   3.461   9.934
  134SAPE   C3814529   6.239   3.406   9.873
  134SAPE   H8X14530   6.304   3.317   9.889
  134SAPE   H8Y14531   6.301   3.496   9.889
  134SAPE   C3914532   6.201   3.395   9.729
  134SAPE   H9X14533   6.131   3.480   9.714
  134SAPE   H9Y14534   6.153   3.300   9.696
  134SAPE  C31014535   6.313   3.422   9.626
  134SAPE  H10X14536   6.380   3.333   9.631
  134SAPE  H10Y14537   6.374   3.509   9.659
  134SAPE  C31114538   6.254   3.442   9.481
  134SAPE  H11X14539   6.180   3.524   9.492
  134SAPE  H11Y14540   6.188   3.354   9.462
  134SAPE  C31214541   6.369   3.464   9.383
  134SAPE  H12X14542   6.439   3.379   9.398
  134SAPE  H12Y14543   6.422   3.561   9.385
  134SAPE  C31314544   6.307   3.455   9.236
  134SAPE  H13X14545   6.219   3.522   9.228
  134SAPE  H13Y14546   6.278   3.349   9.222
  134SAPE  C31414547   6.418   3.485   9.136
  134SAPE  H14X14548   6.505   3.426   9.173
  134SAPE  H14Y14549   6.448   3.590   9.154
  134SAPE  C31514550   6.387   3.458   8.987
  134SAPE  H15X14551   6.409   3.350   8.973
  134SAPE  H15Y14552   6.461   3.511   8.922
  134SAPE  C31614553   6.240   3.503   8.952
  134SAPE  H16X14554   6.236   3.607   8.989
  134SAPE  H16Y14555   6.167   3.443   9.012
  134SAPE  C31714556   6.207   3.482   8.807
  134SAPE  H17X14557   6.221   3.375   8.782
  134SAPE  H17Y14558   6.285   3.532   8.746
  134SAPE  C31814559   6.068   3.533   8.759
  134SAPE  H18X14560   6.054   3.505   8.652
  134SAPE  H18Y14561   6.065   3.644   8.765
  134SAPE  H18Z14562   5.987   3.489   8.821
  135SAPE     N14563   5.668   2.099  10.658
  135SAPE   HN114564   5.655   2.038  10.740
  135SAPE   HN214565   5.757   2.076  10.608
  135SAPE   HN314566   5.692   2.197  10.686
  135SAPE   C1214567   5.536   2.104  10.578
  135SAPE  H12A14568   5.523   2.202  10.527
  135SAPE  H12B14569   5.456   2.102  10.654
  135SAPE   C1114570   5.542   1.981  10.491
  135SAPE  H11A14571   5.564   1.888  10.547
  135SAPE  H11B14572   5.625   1.991  10.418
  135SAPE     P14573   5.303   1.883  10.503
  135SAPE   O1314574   5.323   1.902  10.651
  135SAPE   O1414575   5.169   1.924  10.453
  135SAPE   O1214576   5.417   1.955  10.423
  135SAPE   O1114577   5.322   1.732  10.464
  135SAPE    C114578   5.358   1.708  10.326
  135SAPE    HA14579   5.282   1.760  10.264
  135SAPE    HB14580   5.464   1.737  10.304
  135SAPE    C214581   5.340   1.557  10.299
  135SAPE    HS14582   5.236   1.529  10.328
  135SAPE   O2114583   5.443   1.483  10.365
  135SAPE   C2114584   5.395   1.378  10.449
  135SAPE   O2214585   5.278   1.360  10.460
  135SAPE   C2214586   5.505   1.288  10.501
  135SAPE   H2R14587   5.588   1.268  10.430
  135SAPE   H2S14588   5.555   1.338  10.586
  135SAPE    C314589   5.342   1.526  10.151
  135SAPE    HX14590   5.328   1.418  10.129
  135SAPE    HY14591   5.443   1.549  10.111
  135SAPE   O3114592   5.248   1.608  10.072
  135SAPE   C3114593   5.270   1.601   9.941
  135SAPE   O3214594   5.359   1.536   9.894
  135SAPE   C3214595   5.182   1.701   9.866
  135SAPE   H2X14596   5.216   1.802   9.900
  135SAPE   H2Y14597   5.077   1.684   9.897
  135SAPE   C2314598   5.440   1.153  10.546
  135SAPE   H3R14599   5.354   1.172  10.613
  135SAPE   H3S14600   5.516   1.112  10.616
  135SAPE   C2414601   5.409   1.049  10.433
  135SAPE   H4R14602   5.323   1.081  10.371
  135SAPE   H4S14603   5.375   0.950  10.471
  135SAPE   C2514604   5.531   1.027  10.348
  135SAPE   H5R14605   5.605   0.958  10.392
  135SAPE   C2614606   5.552   1.073  10.223
  135SAPE   H6R14607   5.645   1.042  10.173
  135SAPE   C2714608   5.463   1.151  10.133
  135SAPE   H7R14609   5.518   1.244  10.106
  135SAPE   H7S14610   5.372   1.180  10.190
  135SAPE   C2814611   5.417   1.067  10.010
  135SAPE   H8R14612   5.320   1.015  10.014
  135SAPE   C2914613   5.492   1.037   9.900
  135SAPE   H9R14614   5.450   0.976   9.819
  135SAPE  C21014615   5.623   1.106   9.870
  135SAPE  H10R14616   5.684   1.039   9.805
  135SAPE  H10S14617   5.686   1.121   9.960
  135SAPE  C21114618   5.593   1.226   9.784
  135SAPE  H11R14619   5.580   1.319   9.841
  135SAPE  C21214620   5.578   1.225   9.643
  135SAPE  H12R14621   5.555   1.317   9.587
  135SAPE  C21314622   5.585   1.106   9.553
  135SAPE  H13R14623   5.484   1.061   9.536
  135SAPE  H13S14624   5.641   1.024   9.604
  135SAPE  C21414625   5.665   1.136   9.428
  135SAPE  H14R14626   5.773   1.147   9.447
  135SAPE  C21514627   5.626   1.182   9.308
  135SAPE  H15R14628   5.696   1.179   9.223
  135SAPE  C21614629   5.486   1.225   9.282
  135SAPE  H16R14630   5.481   1.335   9.265
  135SAPE  H16S14631   5.413   1.200   9.362
  135SAPE  C21714632   5.420   1.175   9.147
  135SAPE  H17R14633   5.312   1.199   9.140
  135SAPE  H17S14634   5.427   1.065   9.154
  135SAPE  C21814635   5.494   1.221   9.017
  135SAPE  H18R14636   5.534   1.322   9.038
  135SAPE  H18S14637   5.408   1.224   8.947
  135SAPE  C21914638   5.583   1.112   8.970
  135SAPE  H19R14639   5.553   1.005   8.972
  135SAPE  H19S14640   5.663   1.110   9.047
  135SAPE  C22014641   5.645   1.138   8.841
  135SAPE  H20R14642   5.577   1.090   8.768
  135SAPE  H20S14643   5.745   1.088   8.843
  135SAPE  H20T14644   5.673   1.244   8.825
  135SAPE   C3314645   5.201   1.692   9.710
  135SAPE   H3X14646   5.310   1.701   9.690
  135SAPE   H3Y14647   5.154   1.775   9.652
  135SAPE   C3414648   5.146   1.558   9.653
  135SAPE   H4X14649   5.036   1.553   9.661
  135SAPE   H4Y14650   5.183   1.469   9.709
  135SAPE   C3514651   5.176   1.522   9.507
  135SAPE   H5X14652   5.145   1.416   9.494
  135SAPE   H5Y14653   5.287   1.516   9.502
  135SAPE   C3614654   5.118   1.620   9.407
  135SAPE   H6X14655   5.181   1.711   9.414
  135SAPE   H6Y14656   5.013   1.649   9.429
  135SAPE   C3714657   5.130   1.575   9.261
  135SAPE   H7X14658   5.070   1.483   9.246
  135SAPE   H7Y14659   5.234   1.534   9.262
  135SAPE   C3814660   5.097   1.678   9.153
  135SAPE   H8X14661   5.186   1.742   9.131
  135SAPE   H8Y14662   5.009   1.744   9.166
  135SAPE   C3914663   5.079   1.597   9.020
  135SAPE   H9X14664   5.072   1.668   8.934
  135SAPE   H9Y14665   4.981   1.546   9.028
  135SAPE  C31014666   5.181   1.484   8.994
  135SAPE  H10X14667   5.191   1.402   9.069
  135SAPE  H10Y14668   5.285   1.522   8.996
  135SAPE  C31114669   5.141   1.401   8.872
  135SAPE  H11X14670   5.043   1.352   8.890
  135SAPE  H11Y14671   5.222   1.325   8.867
  135SAPE  C31214672   5.142   1.478   8.737
  135SAPE  H12X14673   5.245   1.512   8.713
  135SAPE  H12Y14674   5.069   1.560   8.725
  135SAPE  C31314675   5.107   1.381   8.618
  135SAPE  H13X14676   5.005   1.341   8.636
  135SAPE  H13Y14677   5.179   1.296   8.615
  135SAPE  C31414678   5.114   1.442   8.478
  135SAPE  H14X14679   5.206   1.501   8.454
  135SAPE  H14Y14680   5.026   1.509   8.466
  135SAPE  C31514681   5.118   1.333   8.375
  135SAPE  H15X14682   5.031   1.265   8.373
  135SAPE  H15Y14683   5.208   1.270   8.391
  135SAPE  C31614684   5.123   1.380   8.225
  135SAPE  H16X14685   5.228   1.408   8.203
  135SAPE  H16Y14686   5.051   1.465   8.223
  135SAPE  C31714687   5.081   1.260   8.138
  135SAPE  H17X14688   4.981   1.234   8.178
  135SAPE  H17Y14689   5.152   1.188   8.184
  135SAPE  C31814690   5.088   1.270   7.988
  135SAPE  H18X14691   5.193   1.274   7.951
  135SAPE  H18Y14692   5.038   1.357   7.940
  135SAPE  H18Z14693   5.045   1.180   7.940
  136SAPE     N14694   1.209   2.341  10.953
  136SAPE   HN114695   1.229   2.255  11.009
  136SAPE   HN214696   1.293   2.403  10.951
  136SAPE   HN314697   1.132   2.401  10.989
  136SAPE   C1214698   1.181   2.293  10.816
  136SAPE  H12A14699   1.272   2.238  10.782
  136SAPE  H12B14700   1.159   2.377  10.747
  136SAPE   C1114701   1.055   2.201  10.816
  136SAPE  H11A14702   1.060   2.136  10.726
  136SAPE  H11B14703   0.972   2.274  10.806
  136SAPE     P14704   1.093   1.973  10.961
  136SAPE   O1314705   1.147   1.961  11.100
  136SAPE   O1414706   0.984   1.888  10.909
  136SAPE   O1214707   1.041   2.126  10.941
  136SAPE   O1114708   1.221   1.966  10.863
  136SAPE    C114709   1.225   1.882  10.744
  136SAPE    HA14710   1.210   1.777  10.780
  136SAPE    HB14711   1.152   1.922  10.670
  136SAPE    C214712   1.374   1.880  10.685
  136SAPE    HS14713   1.451   1.841  10.755
  136SAPE   O2114714   1.413   2.013  10.653
  136SAPE   C2114715   1.543   2.036  10.628
  136SAPE   O2214716   1.634   1.959  10.653
  136SAPE   C2214717   1.559   2.167  10.557
  136SAPE   H2R14718   1.460   2.208  10.529
  136SAPE   H2S14719   1.600   2.226  10.642
  136SAPE    C314720   1.371   1.796  10.552
  136SAPE    HX14721   1.332   1.695  10.578
  136SAPE    HY14722   1.478   1.779  10.530
  136SAPE   O3114723   1.291   1.848  10.439
  136SAPE   C3114724   1.330   1.787  10.325
  136SAPE   O3214725   1.418   1.701  10.312
  136SAPE   C3214726   1.249   1.846  10.214
  136SAPE   H2X14727   1.282   1.951  10.198
  136SAPE   H2Y14728   1.142   1.851  10.242
  136SAPE   C2314729   1.653   2.152  10.435
  136SAPE   H3R14730   1.753   2.110  10.458
  136SAPE   H3S14731   1.665   2.254  10.393
  136SAPE   C2414732   1.598   2.065  10.314
  136SAPE   H4R14733   1.564   1.965  10.349
  136SAPE   H4S14734   1.686   2.048  10.248
  136SAPE   C2514735   1.495   2.136  10.241
  136SAPE   H5R14736   1.408   2.173  10.297
  136SAPE   C2614737   1.499   2.187  10.119
  136SAPE   H6R14738   1.409   2.243  10.089
  136SAPE   C2714739   1.600   2.164  10.011
  136SAPE   H7R14740   1.687   2.106  10.048
  136SAPE   H7S14741   1.632   2.266   9.980
  136SAPE   C2814742   1.538   2.077   9.903
  136SAPE   H8R14743   1.490   1.981   9.929
  136SAPE   C2914744   1.552   2.111   9.772
  136SAPE   H9R14745   1.519   2.032   9.702
  136SAPE  C21014746   1.620   2.230   9.713
  136SAPE  H10R14747   1.708   2.233   9.780
  136SAPE  H10S14748   1.563   2.321   9.743
  136SAPE  C21114749   1.659   2.222   9.570
  136SAPE  H11R14750   1.760   2.189   9.540
  136SAPE  C21214751   1.571   2.226   9.464
  136SAPE  H12R14752   1.611   2.218   9.362
  136SAPE  C21314753   1.424   2.259   9.471
  136SAPE  H13R14754   1.385   2.255   9.575
  136SAPE  H13S14755   1.370   2.179   9.417
  136SAPE  C21414756   1.385   2.392   9.413
  136SAPE  H14R14757   1.370   2.471   9.488
  136SAPE  C21514758   1.387   2.435   9.284
  136SAPE  H15R14759   1.333   2.524   9.250
  136SAPE  C21614760   1.427   2.340   9.169
  136SAPE  H16R14761   1.345   2.339   9.094
  136SAPE  H16S14762   1.438   2.232   9.192
  136SAPE  C21714763   1.566   2.384   9.107
  136SAPE  H17R14764   1.604   2.296   9.051
  136SAPE  H17S14765   1.638   2.383   9.192
  136SAPE  C21814766   1.556   2.504   9.011
  136SAPE  H18R14767   1.523   2.590   9.073
  136SAPE  H18S14768   1.482   2.480   8.932
  136SAPE  C21914769   1.691   2.526   8.935
  136SAPE  H19R14770   1.773   2.539   9.010
  136SAPE  H19S14771   1.682   2.630   8.897
  136SAPE  C22014772   1.732   2.418   8.831
  136SAPE  H20R14773   1.817   2.449   8.766
  136SAPE  H20S14774   1.643   2.407   8.766
  136SAPE  H20T14775   1.755   2.318   8.873
  136SAPE   C3314776   1.258   1.774  10.078
  136SAPE   H3X14777   1.256   1.664  10.093
  136SAPE   H3Y14778   1.358   1.804  10.040
  136SAPE   C3414779   1.134   1.820   9.995
  136SAPE   H4X14780   1.110   1.929  10.004
  136SAPE   H4Y14781   1.053   1.766  10.048
  136SAPE   C3514782   1.143   1.781   9.845
  136SAPE   H5X14783   1.042   1.805   9.804
  136SAPE   H5Y14784   1.168   1.673   9.848
  136SAPE   C3614785   1.256   1.858   9.765
  136SAPE   H6X14786   1.357   1.834   9.804
  136SAPE   H6Y14787   1.234   1.964   9.792
  136SAPE   C3714788   1.265   1.827   9.614
  136SAPE   H7X14789   1.300   1.723   9.601
  136SAPE   H7Y14790   1.340   1.890   9.561
  136SAPE   C3814791   1.132   1.832   9.539
  136SAPE   H8X14792   1.077   1.921   9.576
  136SAPE   H8Y14793   1.058   1.755   9.568
  136SAPE   C3914794   1.145   1.844   9.394
  136SAPE   H9X14795   1.223   1.922   9.379
  136SAPE   H9Y14796   1.046   1.882   9.361
  136SAPE  C31014797   1.191   1.720   9.321
  136SAPE  H10X14798   1.127   1.637   9.359
  136SAPE  H10Y14799   1.300   1.703   9.336
  136SAPE  C31114800   1.178   1.710   9.166
  136SAPE  H11X14801   1.247   1.786   9.125
  136SAPE  H11Y14802   1.073   1.741   9.143
  136SAPE  C31214803   1.198   1.563   9.108
  136SAPE  H12X14804   1.127   1.492   9.155
  136SAPE  H12Y14805   1.299   1.526   9.137
  136SAPE  C31314806   1.209   1.556   8.955
  136SAPE  H13X14807   1.112   1.590   8.912
  136SAPE  H13Y14808   1.214   1.449   8.925
  136SAPE  C31414809   1.331   1.621   8.897
  136SAPE  H14X14810   1.418   1.572   8.946
  136SAPE  H14Y14811   1.330   1.726   8.932
  136SAPE  C31514812   1.345   1.614   8.740
  136SAPE  H15X14813   1.255   1.657   8.691
  136SAPE  H15Y14814   1.344   1.506   8.712
  136SAPE  C31614815   1.470   1.681   8.676
  136SAPE  H16X14816   1.554   1.638   8.735
  136SAPE  H16Y14817   1.475   1.792   8.684
  136SAPE  C31714818   1.483   1.640   8.531
  136SAPE  H17X14819   1.389   1.651   8.472
  136SAPE  H17Y14820   1.516   1.534   8.529
  136SAPE  C31814821   1.593   1.730   8.462
  136SAPE  H18X14822   1.597   1.697   8.356
  136SAPE  H18Y14823   1.692   1.716   8.510
  136SAPE  H18Z14824   1.556   1.834   8.476
  137SAPE     N14825   6.330   4.760  10.980
  137SAPE   HN114826   6.316   4.856  10.942
  137SAPE   HN214827   6.430   4.734  10.987
  137SAPE   HN314828   6.277   4.694  10.919
  137SAPE   C1214829   6.265   4.736  11.111
  137SAPE  H12A14830   6.328   4.779  11.191
  137SAPE  H12B14831   6.256   4.626  11.127
  137SAPE   C1114832   6.126   4.795  11.112
  137SAPE  H11A14833   6.143   4.901  11.086
  137SAPE  H11B14834   6.091   4.785  11.217
  137SAPE     P14835   5.917   4.795  10.948
  137SAPE   O1314836   5.848   4.699  10.859
  137SAPE   O1414837   5.835   4.858  11.055
  137SAPE   O1214838   6.038   4.725  11.017
  137SAPE   O1114839   5.982   4.912  10.865
  137SAPE    C114840   6.080   4.882  10.765
  137SAPE    HA14841   6.173   4.938  10.788
  137SAPE    HB14842   6.114   4.777  10.754
  137SAPE    C214843   6.040   4.923  10.619
  137SAPE    HS14844   6.018   5.031  10.605
  137SAPE   O2114845   5.930   4.850  10.581
  137SAPE   C2114846   5.809   4.894  10.609
  137SAPE   O2214847   5.788   5.004  10.658
  137SAPE   C2214848   5.711   4.778  10.575
  137SAPE   H2R14849   5.758   4.686  10.534
  137SAPE   H2S14850   5.670   4.744  10.673
  137SAPE    C314851   6.159   4.877  10.532
  137SAPE    HX14852   6.179   4.768  10.545
  137SAPE    HY14853   6.242   4.944  10.561
  137SAPE   O3114854   6.134   4.899  10.394
  137SAPE   C3114855   6.098   4.803  10.315
  137SAPE   O3214856   6.082   4.688  10.346
  137SAPE   C3214857   6.100   4.857  10.171
  137SAPE   H2X14858   6.105   4.968  10.172
  137SAPE   H2Y14859   5.996   4.829  10.145
  137SAPE   C2314860   5.607   4.835  10.471
  137SAPE   H3R14861   5.644   4.866  10.371
  137SAPE   H3S14862   5.564   4.929  10.512
  137SAPE   C2414863   5.502   4.730  10.444
  137SAPE   H4R14864   5.425   4.773  10.377
  137SAPE   H4S14865   5.458   4.713  10.544
  137SAPE   C2514866   5.537   4.597  10.386
  137SAPE   H5R14867   5.534   4.510  10.454
  137SAPE   C2614868   5.560   4.568  10.262
  137SAPE   H6R14869   5.602   4.468  10.247
  137SAPE   C2714870   5.573   4.668  10.145
  137SAPE   H7R14871   5.679   4.702  10.134
  137SAPE   H7S14872   5.507   4.757  10.151
  137SAPE   C2814873   5.527   4.589  10.018
  137SAPE   H8R14874   5.437   4.531  10.040
  137SAPE   C2914875   5.587   4.589   9.896
  137SAPE   H9R14876   5.539   4.526   9.819
  137SAPE  C21014877   5.712   4.664   9.861
  137SAPE  H10R14878   5.779   4.618   9.785
  137SAPE  H10S14879   5.765   4.672   9.958
  137SAPE  C21114880   5.689   4.816   9.837
  137SAPE  H11R14881   5.638   4.864   9.921
  137SAPE  C21214882   5.736   4.897   9.734
  137SAPE  H12R14883   5.710   5.002   9.720
  137SAPE  C21314884   5.813   4.849   9.613
  137SAPE  H13R14885   5.864   4.751   9.624
  137SAPE  H13S14886   5.904   4.906   9.585
  137SAPE  C21414887   5.716   4.819   9.505
  137SAPE  H14R14888   5.633   4.751   9.533
  137SAPE  C21514889   5.719   4.887   9.387
  137SAPE  H15R14890   5.638   4.862   9.317
  137SAPE  C21614891   5.816   4.992   9.329
  137SAPE  H16R14892   5.883   5.033   9.409
  137SAPE  H16S14893   5.759   5.079   9.289
  137SAPE  C21714894   5.910   4.945   9.216
  137SAPE  H17R14895   5.943   4.839   9.220
  137SAPE  H17S14896   5.999   5.011   9.207
  137SAPE  C21814897   5.840   4.955   9.082
  137SAPE  H18R14898   5.803   5.060   9.080
  137SAPE  H18S14899   5.755   4.884   9.073
  137SAPE  C21914900   5.931   4.938   8.961
  137SAPE  H19R14901   5.973   4.838   8.985
  137SAPE  H19S14902   6.013   5.013   8.969
  137SAPE  C22014903   5.874   4.942   8.823
  137SAPE  H20R14904   5.788   4.873   8.809
  137SAPE  H20S14905   5.948   4.923   8.742
  137SAPE  H20T14906   5.839   5.045   8.799
  137SAPE   C3314907   6.205   4.783  10.086
  137SAPE   H3X14908   6.205   4.672  10.095
  137SAPE   H3Y14909   6.300   4.819  10.130
  137SAPE   C3414910   6.210   4.824   9.940
  137SAPE   H4X14911   6.229   4.933   9.926
  137SAPE   H4Y14912   6.113   4.800   9.891
  137SAPE   C3514913   6.313   4.745   9.867
  137SAPE   H5X14914   6.303   4.637   9.890
  137SAPE   H5Y14915   6.411   4.768   9.913
  137SAPE   C3614916   6.327   4.760   9.715
  137SAPE   H6X14917   6.244   4.702   9.668
  137SAPE   H6Y14918   6.412   4.700   9.677
  137SAPE   C3714919   6.343   4.900   9.660
  137SAPE   H7X14920   6.434   4.947   9.703
  137SAPE   H7Y14921   6.251   4.956   9.690
  137SAPE   C3814922   6.347   4.896   9.507
  137SAPE   H8X14923   6.260   4.838   9.469
  137SAPE   H8Y14924   6.436   4.845   9.465
  137SAPE   C3914925   6.319   5.032   9.446
  137SAPE   H9X14926   6.403   5.097   9.479
  137SAPE   H9Y14927   6.225   5.076   9.485
  137SAPE  C31014928   6.317   5.038   9.296
  137SAPE  H10X14929   6.228   4.987   9.254
  137SAPE  H10Y14930   6.402   4.978   9.256
  137SAPE  C31114931   6.323   5.174   9.237
  137SAPE  H11X14932   6.430   5.202   9.242
  137SAPE  H11Y14933   6.273   5.247   9.304
  137SAPE  C31214934   6.266   5.204   9.093
  137SAPE  H12X14935   6.173   5.144   9.086
  137SAPE  H12Y14936   6.341   5.158   9.026
  137SAPE  C31314937   6.257   5.353   9.060
  137SAPE  H13X14938   6.365   5.378   9.056
  137SAPE  H13Y14939   6.215   5.404   9.149
  137SAPE  C31414940   6.174   5.379   8.931
  137SAPE  H14X14941   6.091   5.305   8.933
  137SAPE  H14Y14942   6.234   5.353   8.842
  137SAPE  C31514943   6.136   5.532   8.928
  137SAPE  H15X14944   6.213   5.603   8.964
  137SAPE  H15Y14945   6.055   5.536   9.004
  137SAPE  C31614946   6.077   5.565   8.793
  137SAPE  H16X14947   5.979   5.514   8.786
  137SAPE  H16Y14948   6.139   5.530   8.708
  137SAPE  C31714949   6.062   5.718   8.788
  137SAPE  H17X14950   6.164   5.762   8.797
  137SAPE  H17Y14951   6.004   5.757   8.875
  137SAPE  C31814952   6.002   5.763   8.652
  137SAPE  H18X14953   6.016   5.873   8.637
  137SAPE  H18Y14954   5.898   5.724   8.642
  137SAPE  H18Z14955   6.061   5.719   8.570
  138SAPE     N14956   3.069   5.819  10.915
  138SAPE   HN114957   3.146   5.758  10.948
  138SAPE   HN214958   2.982   5.802  10.969
  138SAPE   HN314959   3.051   5.797  10.815
  138SAPE   C1214960   3.130   5.962  10.939
  138SAPE  H12A14961   3.239   5.949  10.924
  138SAPE  H12B14962   3.104   5.994  11.042
  138SAPE   C1114963   3.088   6.074  10.838
  138SAPE  H11A14964   3.125   6.044  10.738
  138SAPE  H11B14965   3.134   6.169  10.872
  138SAPE     P14966   2.886   6.169  10.717
  138SAPE   O1314967   2.748   6.121  10.699
  138SAPE   O1414968   2.916   6.312  10.737
  138SAPE   O1214969   2.943   6.084  10.842
  138SAPE   O1114970   2.972   6.118  10.594
  138SAPE    C114971   2.954   5.998  10.527
  138SAPE    HA14972   3.048   5.939  10.525
  138SAPE    HB14973   2.875   5.937  10.575
  138SAPE    C214974   2.910   6.017  10.381
  138SAPE    HS14975   2.916   5.917  10.335
  138SAPE   O2114976   2.998   6.110  10.314
  138SAPE   C2114977   3.106   6.053  10.259
  138SAPE   O2214978   3.138   5.940  10.270
  138SAPE   C2214979   3.199   6.165  10.201
  138SAPE   H2R14980   3.140   6.242  10.146
  138SAPE   H2S14981   3.250   6.215  10.286
  138SAPE    C314982   2.758   6.064  10.369
  138SAPE    HX14983   2.741   6.174  10.377
  138SAPE    HY14984   2.702   6.010  10.448
  138SAPE   O3114985   2.711   6.028  10.233
  138SAPE   C3114986   2.602   5.951  10.219
  138SAPE   O3214987   2.521   5.937  10.306
  138SAPE   C3214988   2.592   5.886  10.090
  138SAPE   H2X14989   2.483   5.886  10.073
  138SAPE   H2Y14990   2.619   5.778  10.096
  138SAPE   C2314991   3.298   6.110  10.094
  138SAPE   H3R14992   3.258   6.011  10.061
  138SAPE   H3S14993   3.398   6.090  10.139
  138SAPE   C2414994   3.322   6.185   9.961
  138SAPE   H4R14995   3.386   6.272   9.986
  138SAPE   H4S14996   3.230   6.220   9.911
  138SAPE   C2514997   3.402   6.096   9.867
  138SAPE   H5R14998   3.503   6.076   9.905
  138SAPE   C2614999   3.359   6.020   9.759
  138SAPE   H6R15000   3.425   5.966   9.690
  138SAPE   C2715001   3.215   6.013   9.719
  138SAPE   H7R15002   3.141   6.041   9.798
  138SAPE   H7S15003   3.190   5.908   9.696
  138SAPE   C2815004   3.194   6.119   9.608
  138SAPE   H8R15005   3.201   6.219   9.654
  138SAPE   C2915006   3.166   6.112   9.475
  138SAPE   H9R15007   3.159   6.202   9.412
  138SAPE  C21015008   3.138   5.976   9.403
  138SAPE  H10R15009   3.121   5.895   9.476
  138SAPE  H10S15010   3.241   5.954   9.369
  138SAPE  C21115011   3.039   5.974   9.283
  138SAPE  H11R15012   3.083   6.013   9.190
  138SAPE  C21215013   2.910   5.939   9.291
  138SAPE  H12R15014   2.859   5.926   9.195
  138SAPE  C21315015   2.833   5.911   9.423
  138SAPE  H13R15016   2.894   5.935   9.513
  138SAPE  H13S15017   2.822   5.801   9.414
  138SAPE  C21415018   2.700   5.973   9.413
  138SAPE  H14R15019   2.691   6.058   9.482
  138SAPE  C21515020   2.590   5.932   9.350
  138SAPE  H15R15021   2.501   5.998   9.348
  138SAPE  C21615022   2.568   5.813   9.259
  138SAPE  H16R15023   2.666   5.764   9.243
  138SAPE  H16S15024   2.527   5.845   9.161
  138SAPE  C21715025   2.478   5.704   9.320
  138SAPE  H17R15026   2.476   5.623   9.244
  138SAPE  H17S15027   2.377   5.750   9.329
  138SAPE  C21815028   2.524   5.644   9.457
  138SAPE  H18R15029   2.634   5.656   9.468
  138SAPE  H18S15030   2.504   5.535   9.454
  138SAPE  C21915031   2.441   5.704   9.571
  138SAPE  H19R15032   2.334   5.697   9.541
  138SAPE  H19S15033   2.468   5.812   9.572
  138SAPE  C22015034   2.452   5.648   9.713
  138SAPE  H20R15035   2.366   5.683   9.773
  138SAPE  H20S15036   2.546   5.688   9.756
  138SAPE  H20T15037   2.448   5.537   9.708
  138SAPE   C3315038   2.658   5.956   9.967
  138SAPE   H3X15039   2.612   6.057   9.962
  138SAPE   H3Y15040   2.624   5.906   9.874
  138SAPE   C3415041   2.810   5.956   9.959
  138SAPE   H4X15042   2.841   6.048  10.012
  138SAPE   H4Y15043   2.851   5.968   9.856
  138SAPE   C3515044   2.886   5.842  10.022
  138SAPE   H5X15045   2.842   5.831  10.123
  138SAPE   H5Y15046   2.990   5.877  10.040
  138SAPE   C3615047   2.899   5.707   9.941
  138SAPE   H6X15048   2.794   5.673   9.928
  138SAPE   H6Y15049   2.947   5.624   9.996
  138SAPE   C3715050   2.950   5.721   9.801
  138SAPE   H7X15051   3.051   5.765   9.819
  138SAPE   H7Y15052   2.895   5.782   9.726
  138SAPE   C3815053   2.945   5.582   9.738
  138SAPE   H8X15054   2.841   5.544   9.749
  138SAPE   H8Y15055   3.027   5.524   9.786
  138SAPE   C3915056   2.950   5.569   9.583
  138SAPE   H9X15057   3.041   5.611   9.533
  138SAPE   H9Y15058   2.864   5.622   9.536
  138SAPE  C31015059   2.952   5.421   9.547
  138SAPE  H10X15060   2.862   5.376   9.596
  138SAPE  H10Y15061   3.053   5.384   9.575
  138SAPE  C31115062   2.952   5.393   9.395
  138SAPE  H11X15063   2.934   5.284   9.378
  138SAPE  H11Y15064   3.047   5.418   9.342
  138SAPE  C31215065   2.839   5.468   9.322
  138SAPE  H12X15066   2.865   5.575   9.314
  138SAPE  H12Y15067   2.742   5.447   9.372
  138SAPE  C31315068   2.824   5.420   9.178
  138SAPE  H13X15069   2.860   5.315   9.177
  138SAPE  H13Y15070   2.888   5.488   9.118
  138SAPE  C31415071   2.678   5.419   9.135
  138SAPE  H14X15072   2.603   5.477   9.193
  138SAPE  H14Y15073   2.639   5.316   9.150
  138SAPE  C31515074   2.657   5.458   8.990
  138SAPE  H15X15075   2.680   5.566   8.976
  138SAPE  H15Y15076   2.556   5.435   8.948
  138SAPE  C31615077   2.750   5.379   8.896
  138SAPE  H16X15078   2.741   5.270   8.915
  138SAPE  H16Y15079   2.857   5.405   8.915
  138SAPE  C31715080   2.733   5.401   8.744
  138SAPE  H17X15081   2.743   5.508   8.716
  138SAPE  H17Y15082   2.629   5.364   8.732
  138SAPE  C31815083   2.838   5.315   8.662
  138SAPE  H18X15084   2.941   5.352   8.682
  138SAPE  H18Y15085   2.827   5.303   8.552
  138SAPE  H18Z15086   2.842   5.215   8.712
  139SAPE     N15087   1.816   4.340  11.005
  139SAPE   HN115088   1.723   4.299  10.985
  139SAPE   HN215089   1.827   4.357  11.108
  139SAPE   HN315090   1.809   4.438  10.971
  139SAPE   C1215091   1.925   4.277  10.934
  139SAPE  H12A15092   1.936   4.178  10.982
  139SAPE  H12B15093   2.020   4.330  10.957
  139SAPE   C1115094   1.918   4.264  10.781
  139SAPE  H11A15095   1.830   4.199  10.761
  139SAPE  H11B15096   2.013   4.214  10.754
  139SAPE     P15097   1.916   4.408  10.575
  139SAPE   O1315098   1.814   4.325  10.510
  139SAPE   O1415099   1.920   4.554  10.551
  139SAPE   O1215100   1.896   4.395  10.728
  139SAPE   O1115101   2.064   4.354  10.547
  139SAPE    C115102   2.070   4.238  10.466
  139SAPE    HA15103   2.144   4.171  10.514
  139SAPE    HB15104   1.977   4.177  10.458
  139SAPE    C215105   2.113   4.264  10.315
  139SAPE    HS15106   2.218   4.301  10.316
  139SAPE   O2115107   2.033   4.364  10.246
  139SAPE   C2115108   2.078   4.419  10.131
  139SAPE   O2215109   2.195   4.412  10.097
  139SAPE   C2215110   1.974   4.492  10.049
  139SAPE   H2R15111   1.916   4.416   9.993
  139SAPE   H2S15112   1.920   4.538  10.134
  139SAPE    C315113   2.134   4.132  10.226
  139SAPE    HX15114   2.196   4.156  10.138
  139SAPE    HY15115   2.033   4.100  10.193
  139SAPE   O3115116   2.193   4.022  10.298
  139SAPE   C3115117   2.243   3.924  10.221
  139SAPE   O3215118   2.248   3.925  10.099
  139SAPE   C3215119   2.286   3.813  10.312
  139SAPE   H2X15120   2.194   3.757  10.341
  139SAPE   H2Y15121   2.317   3.865  10.406
  139SAPE   C2315122   2.034   4.597   9.958
  139SAPE   H3R15123   2.108   4.648  10.024
  139SAPE   H3S15124   1.954   4.668   9.929
  139SAPE   C2415125   2.109   4.550   9.827
  139SAPE   H4R15126   2.193   4.480   9.849
  139SAPE   H4S15127   2.174   4.632   9.790
  139SAPE   C2515128   2.019   4.491   9.728
  139SAPE   H5R15129   1.969   4.397   9.756
  139SAPE   C2615130   1.996   4.547   9.605
  139SAPE   H6R15131   1.916   4.497   9.549
  139SAPE   C2715132   2.036   4.676   9.545
  139SAPE   H7R15133   2.144   4.686   9.565
  139SAPE   H7S15134   1.981   4.765   9.583
  139SAPE   C2815135   2.024   4.679   9.389
  139SAPE   H8R15136   2.102   4.618   9.341
  139SAPE   C2915137   1.940   4.746   9.309
  139SAPE   H9R15138   1.933   4.723   9.202
  139SAPE  C21015139   1.838   4.838   9.359
  139SAPE  H10R15140   1.878   4.914   9.430
  139SAPE  H10S15141   1.769   4.777   9.422
  139SAPE  C21115142   1.751   4.901   9.253
  139SAPE  H11R15143   1.644   4.877   9.252
  139SAPE  C21215144   1.783   4.993   9.155
  139SAPE  H12R15145   1.701   5.033   9.092
  139SAPE  C21315146   1.921   5.050   9.126
  139SAPE  H13R15147   2.003   4.997   9.179
  139SAPE  H13S15148   1.931   5.153   9.168
  139SAPE  C21415149   1.937   5.047   8.976
  139SAPE  H14R15150   1.967   4.946   8.943
  139SAPE  C21515151   1.874   5.125   8.888
  139SAPE  H15R15152   1.905   5.112   8.783
  139SAPE  C21615153   1.796   5.248   8.914
  139SAPE  H16R15154   1.852   5.339   8.885
  139SAPE  H16S15155   1.771   5.259   9.022
  139SAPE  C21715156   1.652   5.254   8.853
  139SAPE  H17R15157   1.597   5.170   8.901
  139SAPE  H17S15158   1.650   5.230   8.744
  139SAPE  C21815159   1.586   5.389   8.879
  139SAPE  H18R15160   1.625   5.460   8.802
  139SAPE  H18S15161   1.610   5.433   8.978
  139SAPE  C21915162   1.436   5.381   8.865
  139SAPE  H19R15163   1.391   5.476   8.898
  139SAPE  H19S15164   1.404   5.297   8.930
  139SAPE  C22015165   1.390   5.333   8.724
  139SAPE  H20R15166   1.287   5.292   8.736
  139SAPE  H20S15167   1.455   5.245   8.701
  139SAPE  H20T15168   1.396   5.419   8.655
  139SAPE   C3315169   2.402   3.727  10.269
  139SAPE   H3X15170   2.454   3.669  10.349
  139SAPE   H3Y15171   2.472   3.796  10.218
  139SAPE   C3415172   2.375   3.623  10.157
  139SAPE   H4X15173   2.470   3.580  10.119
  139SAPE   H4Y15174   2.323   3.668  10.069
  139SAPE   C3515175   2.281   3.511  10.212
  139SAPE   H5X15176   2.180   3.550  10.233
  139SAPE   H5Y15177   2.319   3.467  10.307
  139SAPE   C3615178   2.267   3.393  10.113
  139SAPE   H6X15179   2.217   3.428  10.020
  139SAPE   H6Y15180   2.207   3.322  10.174
  139SAPE   C3715181   2.401   3.323  10.083
  139SAPE   H7X15182   2.453   3.320  10.182
  139SAPE   H7Y15183   2.455   3.384  10.008
  139SAPE   C3815184   2.377   3.174  10.041
  139SAPE   H8X15185   2.348   3.120  10.134
  139SAPE   H8Y15186   2.476   3.131  10.012
  139SAPE   C3915187   2.264   3.156   9.938
  139SAPE   H9X15188   2.293   3.221   9.852
  139SAPE   H9Y15189   2.160   3.179   9.968
  139SAPE  C31015190   2.261   3.014   9.883
  139SAPE  H10X15191   2.241   2.937   9.961
  139SAPE  H10Y15192   2.363   2.991   9.846
  139SAPE  C31115193   2.151   2.996   9.782
  139SAPE  H11X15194   2.048   3.014   9.819
  139SAPE  H11Y15195   2.149   2.885   9.771
  139SAPE  C31215196   2.186   3.060   9.643
  139SAPE  H12X15197   2.188   3.169   9.668
  139SAPE  H12Y15198   2.097   3.055   9.576
  139SAPE  C31315199   2.305   2.998   9.569
  139SAPE  H13X15200   2.292   2.888   9.570
  139SAPE  H13Y15201   2.399   3.035   9.616
  139SAPE  C31415202   2.304   3.048   9.422
  139SAPE  H14X15203   2.198   3.069   9.395
  139SAPE  H14Y15204   2.335   2.965   9.356
  139SAPE  C31515205   2.384   3.174   9.403
  139SAPE  H15X15206   2.495   3.174   9.407
  139SAPE  H15Y15207   2.350   3.235   9.489
  139SAPE  C31615208   2.348   3.241   9.273
  139SAPE  H16X15209   2.386   3.185   9.185
  139SAPE  H16Y15210   2.238   3.245   9.258
  139SAPE  C31715211   2.397   3.379   9.253
  139SAPE  H17X15212   2.506   3.370   9.269
  139SAPE  H17Y15213   2.356   3.448   9.330
  139SAPE  C31815214   2.383   3.450   9.116
  139SAPE  H18X15215   2.414   3.557   9.122
  139SAPE  H18Y15216   2.275   3.451   9.088
  139SAPE  H18Z15217   2.441   3.403   9.034
  140SAPE     N15218   5.478   0.910  11.165
  140SAPE   HN115219   5.569   0.913  11.116
  140SAPE   HN215220   5.418   0.988  11.131
  140SAPE   HN315221   5.489   0.906  11.268
  140SAPE   C1215222   5.386   0.798  11.133
  140SAPE  H12A15223   5.406   0.773  11.027
  140SAPE  H12B15224   5.280   0.828  11.142
  140SAPE   C1115225   5.398   0.664  11.215
  140SAPE  H11A15226   5.329   0.584  11.181
  140SAPE  H11B15227   5.366   0.683  11.320
  140SAPE     P15228   5.582   0.520  11.086
  140SAPE   O1315229   5.711   0.565  11.032
  140SAPE   O1415230   5.582   0.387  11.146
  140SAPE   O1215231   5.530   0.616  11.203
  140SAPE   O1115232   5.477   0.524  10.978
  140SAPE    C115233   5.434   0.414  10.898
  140SAPE    HA15234   5.520   0.348  10.873
  140SAPE    HB15235   5.360   0.346  10.946
  140SAPE    C215236   5.368   0.481  10.769
  140SAPE    HS15237   5.347   0.404  10.692
  140SAPE   O2115238   5.461   0.584  10.720
  140SAPE   C2115239   5.573   0.539  10.665
  140SAPE   O2215240   5.604   0.419  10.651
  140SAPE   C2215241   5.670   0.646  10.611
  140SAPE   H2R15242   5.624   0.745  10.589
  140SAPE   H2S15243   5.751   0.659  10.685
  140SAPE    C315244   5.229   0.547  10.800
  140SAPE    HX15245   5.254   0.637  10.860
  140SAPE    HY15246   5.165   0.488  10.869
  140SAPE   O3115247   5.166   0.577  10.669
  140SAPE   C3115248   5.178   0.703  10.636
  140SAPE   O3215249   5.231   0.793  10.700
  140SAPE   C3215250   5.104   0.732  10.506
  140SAPE   H2X15251   5.084   0.842  10.504
  140SAPE   H2Y15252   5.008   0.676  10.505
  140SAPE   C2315253   5.742   0.603  10.474
  140SAPE   H3R15254   5.789   0.507  10.503
  140SAPE   H3S15255   5.820   0.671  10.435
  140SAPE   C2415256   5.646   0.569  10.360
  140SAPE   H4R15257   5.573   0.494  10.398
  140SAPE   H4S15258   5.707   0.527  10.277
  140SAPE   C2515259   5.567   0.691  10.305
  140SAPE   H5R15260   5.525   0.762  10.377
  140SAPE   C2615261   5.544   0.704  10.172
  140SAPE   H6R15262   5.490   0.798  10.150
  140SAPE   C2715263   5.584   0.597  10.065
  140SAPE   H7R15264   5.603   0.497  10.111
  140SAPE   H7S15265   5.682   0.626  10.022
  140SAPE   C2815266   5.481   0.579   9.956
  140SAPE   H8R15267   5.382   0.542   9.987
  140SAPE   C2915268   5.502   0.598   9.823
  140SAPE   H9R15269   5.424   0.578   9.749
  140SAPE  C21015270   5.624   0.660   9.756
  140SAPE  H10R15271   5.714   0.656   9.820
  140SAPE  H10S15272   5.600   0.768   9.745
  140SAPE  C21115273   5.644   0.597   9.619
  140SAPE  H11R15274   5.732   0.532   9.607
  140SAPE  C21215275   5.575   0.626   9.507
  140SAPE  H12R15276   5.592   0.564   9.418
  140SAPE  C21315277   5.456   0.722   9.484
  140SAPE  H13R15278   5.458   0.795   9.568
  140SAPE  H13S15279   5.359   0.670   9.494
  140SAPE  C21415280   5.441   0.800   9.359
  140SAPE  H14R15281   5.451   0.909   9.361
  140SAPE  C21515282   5.412   0.748   9.239
  140SAPE  H15R15283   5.395   0.812   9.152
  140SAPE  C21615284   5.379   0.606   9.211
  140SAPE  H16R15285   5.275   0.612   9.172
  140SAPE  H16S15286   5.373   0.548   9.305
  140SAPE  C21715287   5.477   0.535   9.115
  140SAPE  H17R15288   5.448   0.429   9.095
  140SAPE  H17S15289   5.577   0.525   9.163
  140SAPE  C21815290   5.502   0.599   8.972
  140SAPE  H18R15291   5.593   0.551   8.932
  140SAPE  H18S15292   5.525   0.705   8.993
  140SAPE  C21915293   5.385   0.593   8.859
  140SAPE  H19R15294   5.411   0.654   8.769
  140SAPE  H19S15295   5.302   0.653   8.902
  140SAPE  C22015296   5.332   0.457   8.814
  140SAPE  H20R15297   5.230   0.465   8.771
  140SAPE  H20S15298   5.324   0.383   8.896
  140SAPE  H20T15299   5.397   0.411   8.736
  140SAPE   C3315300   5.170   0.716  10.369
  140SAPE   H3X15301   5.205   0.612  10.349
  140SAPE   H3Y15302   5.256   0.786  10.358
  140SAPE   C3415303   5.074   0.742  10.253
  140SAPE   H4X15304   5.023   0.838  10.275
  140SAPE   H4Y15305   4.990   0.669  10.256
  140SAPE   C3515306   5.139   0.752  10.120
  140SAPE   H5X15307   5.208   0.668  10.098
  140SAPE   H5Y15308   5.195   0.846  10.101
  140SAPE   C3615309   5.038   0.745  10.001
  140SAPE   H6X15310   4.959   0.821  10.020
  140SAPE   H6Y15311   4.978   0.652  10.000
  140SAPE   C3715312   5.111   0.761   9.867
  140SAPE   H7X15313   5.180   0.674   9.863
  140SAPE   H7Y15314   5.173   0.852   9.859
  140SAPE   C3815315   5.002   0.757   9.762
  140SAPE   H8X15316   4.951   0.854   9.746
  140SAPE   H8Y15317   4.918   0.687   9.785
  140SAPE   C3915318   5.059   0.710   9.628
  140SAPE   H9X15319   5.102   0.611   9.653
  140SAPE   H9Y15320   5.145   0.770   9.591
  140SAPE  C31015321   4.964   0.685   9.515
  140SAPE  H10X15322   4.908   0.778   9.489
  140SAPE  H10Y15323   4.891   0.604   9.535
  140SAPE  C31115324   5.037   0.629   9.386
  140SAPE  H11X15325   5.117   0.560   9.420
  140SAPE  H11Y15326   5.100   0.710   9.344
  140SAPE  C31215327   4.936   0.571   9.282
  140SAPE  H12X15328   4.865   0.649   9.246
  140SAPE  H12Y15329   4.879   0.484   9.321
  140SAPE  C31315330   5.011   0.506   9.165
  140SAPE  H13X15331   5.077   0.427   9.207
  140SAPE  H13Y15332   5.076   0.582   9.116
  140SAPE  C31415333   4.910   0.468   9.057
  140SAPE  H14X15334   4.879   0.560   9.003
  140SAPE  H14Y15335   4.819   0.419   9.096
  140SAPE  C31515336   4.973   0.386   8.942
  140SAPE  H15X15337   4.983   0.282   8.979
  140SAPE  H15Y15338   5.071   0.421   8.903
  140SAPE  C31615339   4.891   0.371   8.814
  140SAPE  H16X15340   4.961   0.320   8.744
  140SAPE  H16Y15341   4.870   0.467   8.763
  140SAPE  C31715342   4.751   0.301   8.831
  140SAPE  H17X15343   4.691   0.365   8.899
  140SAPE  H17Y15344   4.758   0.200   8.876
  140SAPE  C31815345   4.672   0.284   8.700
  140SAPE  H18X15346   4.575   0.239   8.730
  140SAPE  H18Y15347   4.732   0.228   8.624
  140SAPE  H18Z15348   4.649   0.380   8.649
  141SAPE     N15349   5.208   1.893  10.894
  141SAPE   HN115350   5.216   1.994  10.918
  141SAPE   HN215351   5.263   1.872  10.809
  141SAPE   HN315352   5.108   1.877  10.868
  141SAPE   C1215353   5.254   1.806  11.013
  141SAPE  H12A15354   5.274   1.706  10.971
  141SAPE  H12B15355   5.169   1.802  11.084
  141SAPE   C1115356   5.379   1.876  11.066
  141SAPE  H11A15357   5.392   1.842  11.171
  141SAPE  H11B15358   5.374   1.987  11.070
  141SAPE     P15359   5.625   1.898  10.996
  141SAPE   O1315360   5.688   1.953  10.874
  141SAPE   O1415361   5.634   1.986  11.115
  141SAPE   O1215362   5.487   1.843  10.980
  141SAPE   O1115363   5.704   1.762  11.039
  141SAPE    C115364   5.640   1.637  11.071
  141SAPE    HA15365   5.626   1.625  11.180
  141SAPE    HB15366   5.542   1.628  11.018
  141SAPE    C215367   5.739   1.523  11.025
  141SAPE    HS15368   5.830   1.544  11.084
  141SAPE   O2115369   5.766   1.537  10.883
  141SAPE   C2115370   5.889   1.537  10.845
  141SAPE   O2215371   5.990   1.509  10.907
  141SAPE   C2215372   5.898   1.565  10.694
  141SAPE   H2R15373   5.998   1.599  10.660
  141SAPE   H2S15374   5.880   1.468  10.641
  141SAPE    C315375   5.683   1.386  11.059
  141SAPE    HX15376   5.573   1.398  11.046
  141SAPE    HY15377   5.703   1.368  11.167
  141SAPE   O3115378   5.760   1.290  10.975
  141SAPE   C3115379   5.680   1.230  10.882
  141SAPE   O3215380   5.567   1.264  10.857
  141SAPE   C3215381   5.758   1.126  10.809
  141SAPE   H2X15382   5.682   1.047  10.790
  141SAPE   H2Y15383   5.831   1.076  10.877
  141SAPE   C2315384   5.791   1.673  10.650
  141SAPE   H3R15385   5.814   1.770  10.698
  141SAPE   H3S15386   5.692   1.632  10.679
  141SAPE   C2415387   5.811   1.689  10.495
  141SAPE   H4R15388   5.915   1.719  10.470
  141SAPE   H4S15389   5.753   1.777  10.458
  141SAPE   C2515390   5.775   1.565  10.420
  141SAPE   H5R15391   5.720   1.491  10.481
  141SAPE   C2615392   5.771   1.545  10.283
  141SAPE   H6R15393   5.712   1.458  10.250
  141SAPE   C2715394   5.804   1.640  10.170
  141SAPE   H7R15395   5.792   1.582  10.076
  141SAPE   H7S15396   5.911   1.672  10.175
  141SAPE   C2815397   5.722   1.769  10.174
  141SAPE   H8R15398   5.672   1.791  10.270
  141SAPE   C2915399   5.719   1.854  10.074
  141SAPE   H9R15400   5.677   1.954  10.095
  141SAPE  C21015401   5.784   1.823   9.941
  141SAPE  H10R15402   5.857   1.739   9.944
  141SAPE  H10S15403   5.849   1.909   9.914
  141SAPE  C21115404   5.666   1.792   9.846
  141SAPE  H11R15405   5.602   1.709   9.879
  141SAPE  C21215406   5.614   1.869   9.752
  141SAPE  H12R15407   5.528   1.829   9.696
  141SAPE  C21315408   5.701   1.980   9.682
  141SAPE  H13R15409   5.793   1.922   9.661
  141SAPE  H13S15410   5.736   2.061   9.750
  141SAPE  C21415411   5.627   2.047   9.568
  141SAPE  H14R15412   5.564   2.131   9.602
  141SAPE  C21515413   5.633   2.022   9.437
  141SAPE  H15R15414   5.589   2.090   9.363
  141SAPE  C21615415   5.713   1.902   9.385
  141SAPE  H16R15416   5.755   1.834   9.462
  141SAPE  H16S15417   5.810   1.938   9.344
  141SAPE  C21715418   5.647   1.819   9.277
  141SAPE  H17R15419   5.651   1.872   9.180
  141SAPE  H17S15420   5.541   1.788   9.292
  141SAPE  C21815421   5.727   1.689   9.268
  141SAPE  H18R15422   5.720   1.636   9.365
  141SAPE  H18S15423   5.831   1.726   9.258
  141SAPE  C21915424   5.675   1.591   9.162
  141SAPE  H19R15425   5.690   1.630   9.060
  141SAPE  H19S15426   5.567   1.568   9.176
  141SAPE  C22015427   5.761   1.473   9.172
  141SAPE  H20R15428   5.737   1.402   9.090
  141SAPE  H20S15429   5.749   1.419   9.269
  141SAPE  H20T15430   5.865   1.508   9.160
  141SAPE   C3315431   5.820   1.172  10.678
  141SAPE   H3X15432   5.910   1.237  10.682
  141SAPE   H3Y15433   5.745   1.238  10.631
  141SAPE   C3415434   5.866   1.053  10.594
  141SAPE   H4X15435   5.788   0.984  10.556
  141SAPE   H4Y15436   5.931   0.985  10.653
  141SAPE   C3515437   5.933   1.108  10.471
  141SAPE   H5X15438   6.015   1.177  10.501
  141SAPE   H5Y15439   5.861   1.163  10.405
  141SAPE   C3615440   6.003   0.999  10.384
  141SAPE   H6X15441   6.024   0.922  10.461
  141SAPE   H6Y15442   6.101   1.035  10.347
  141SAPE   C3715443   5.926   0.937  10.272
  141SAPE   H7X15444   5.914   1.011  10.189
  141SAPE   H7Y15445   5.829   0.897  10.308
  141SAPE   C3815446   6.007   0.819  10.210
  141SAPE   H8X15447   5.936   0.766  10.144
  141SAPE   H8Y15448   6.045   0.754  10.292
  141SAPE   C3915449   6.122   0.865  10.125
  141SAPE   H9X15450   6.176   0.770  10.106
  141SAPE   H9Y15451   6.204   0.917  10.178
  141SAPE  C31015452   6.099   0.929   9.990
  141SAPE  H10X15453   6.191   0.974   9.950
  141SAPE  H10Y15454   6.022   1.009   9.995
  141SAPE  C31115455   6.049   0.819   9.892
  141SAPE  H11X15456   5.993   0.737   9.944
  141SAPE  H11Y15457   6.146   0.779   9.855
  141SAPE  C31215458   5.970   0.878   9.776
  141SAPE  H12X15459   5.999   0.984   9.764
  141SAPE  H12Y15460   5.861   0.875   9.799
  141SAPE  C31315461   5.995   0.822   9.637
  141SAPE  H13X15462   5.965   0.715   9.635
  141SAPE  H13Y15463   6.101   0.822   9.604
  141SAPE  C31415464   5.910   0.887   9.532
  141SAPE  H14X15465   5.913   0.998   9.544
  141SAPE  H14Y15466   5.806   0.859   9.560
  141SAPE  C31515467   5.937   0.844   9.383
  141SAPE  H15X15468   6.037   0.863   9.339
  141SAPE  H15Y15469   5.872   0.902   9.314
  141SAPE  C31615470   5.904   0.694   9.355
  141SAPE  H16X15471   5.799   0.675   9.386
  141SAPE  H16Y15472   5.974   0.645   9.425
  141SAPE  C31715473   5.939   0.636   9.217
  141SAPE  H17X15474   6.043   0.655   9.181
  141SAPE  H17Y15475   5.874   0.679   9.137
  141SAPE  C31815476   5.921   0.478   9.221
  141SAPE  H18X15477   5.819   0.456   9.258
  141SAPE  H18Y15478   6.001   0.442   9.289
  141SAPE  H18Z15479   5.936   0.431   9.122
  142SAPE     N15480   6.328   0.841  11.512
  142SAPE   HN115481   6.398   0.865  11.586
  142SAPE   HN215482   6.350   0.901  11.430
  142SAPE   HN315483   6.230   0.860  11.542
  142SAPE   C1215484   6.345   0.698  11.467
  142SAPE  H12A15485   6.339   0.630  11.555
  142SAPE  H12B15486   6.443   0.691  11.413
  142SAPE   C1115487   6.239   0.660  11.361
  142SAPE  H11A15488   6.138   0.654  11.409
  142SAPE  H11B15489   6.272   0.563  11.318
  142SAPE     P15490   6.134   0.742  11.145
  142SAPE   O1315491   6.003   0.719  11.213
  142SAPE   O1415492   6.147   0.850  11.044
  142SAPE   O1215493   6.235   0.763  11.260
  142SAPE   O1115494   6.174   0.614  11.072
  142SAPE    C115495   6.302   0.563  11.025
  142SAPE    HA15496   6.385   0.608  11.084
  142SAPE    HB15497   6.302   0.452  11.022
  142SAPE    C215498   6.331   0.602  10.876
  142SAPE    HS15499   6.326   0.713  10.870
  142SAPE   O2115500   6.235   0.538  10.793
  142SAPE   C2115501   6.211   0.586  10.674
  142SAPE   O2215502   6.243   0.697  10.634
  142SAPE   C2215503   6.143   0.480  10.597
  142SAPE   H2R15504   6.214   0.394  10.602
  142SAPE   H2S15505   6.045   0.459  10.645
  142SAPE    C315506   6.477   0.564  10.842
  142SAPE    HX15507   6.483   0.454  10.853
  142SAPE    HY15508   6.547   0.606  10.918
  142SAPE   O3115509   6.517   0.583  10.704
  142SAPE   C3115510   6.554   0.705  10.669
  142SAPE   O3215511   6.550   0.802  10.740
  142SAPE   C3215512   6.602   0.702  10.526
  142SAPE   H2X15513   6.534   0.642  10.461
  142SAPE   H2Y15514   6.701   0.653  10.528
  142SAPE   C2315515   6.107   0.533  10.455
  142SAPE   H3R15516   6.195   0.582  10.407
  142SAPE   H3S15517   6.035   0.617  10.460
  142SAPE   C2415518   6.066   0.415  10.365
  142SAPE   H4R15519   5.987   0.351  10.411
  142SAPE   H4S15520   6.156   0.351  10.355
  142SAPE   C2515521   6.022   0.465  10.221
  142SAPE   H5R15522   5.919   0.502  10.225
  142SAPE   C2615523   6.094   0.478  10.109
  142SAPE   H6R15524   6.041   0.516  10.020
  142SAPE   C2715525   6.240   0.426  10.097
  142SAPE   H7R15526   6.243   0.327  10.148
  142SAPE   H7S15527   6.306   0.496  10.151
  142SAPE   C2815528   6.311   0.420   9.963
  142SAPE   H8R15529   6.412   0.463   9.956
  142SAPE   C2915530   6.271   0.350   9.854
  142SAPE   H9R15531   6.320   0.356   9.756
  142SAPE  C21015532   6.145   0.268   9.845
  142SAPE  H10R15533   6.089   0.273   9.941
  142SAPE  H10S15534   6.177   0.162   9.836
  142SAPE  C21115535   6.057   0.294   9.727
  142SAPE  H11R15536   6.003   0.389   9.743
  142SAPE  C21215537   6.051   0.224   9.610
  142SAPE  H12R15538   5.981   0.252   9.530
  142SAPE  C21315539   6.143   0.111   9.572
  142SAPE  H13R15540   6.086   0.016   9.572
  142SAPE  H13S15541   6.230   0.095   9.640
  142SAPE  C21415542   6.199   0.148   9.437
  142SAPE  H14R15543   6.290   0.210   9.437
  142SAPE  C21515544   6.145   0.120   9.314
  142SAPE  H15R15545   6.195   0.166   9.228
  142SAPE  C21615546   6.025   0.036   9.275
  142SAPE  H16R15547   5.961   0.096   9.208
  142SAPE  H16S15548   5.973   0.008   9.369
  142SAPE  C21715549   6.049  -0.102   9.215
  142SAPE  H17R15550   5.952  -0.153   9.234
  142SAPE  H17S15551   6.115  -0.165   9.280
  142SAPE  C21815552   6.083  -0.118   9.071
  142SAPE  H18R15553   6.095  -0.223   9.036
  142SAPE  H18S15554   6.183  -0.071   9.061
  142SAPE  C21915555   5.983  -0.054   8.971
  142SAPE  H19R15556   6.000   0.055   8.988
  142SAPE  H19S15557   5.884  -0.068   9.019
  142SAPE  C22015558   6.005  -0.106   8.831
  142SAPE  H20R15559   5.920  -0.077   8.764
  142SAPE  H20S15560   6.001  -0.217   8.842
  142SAPE  H20T15561   6.105  -0.074   8.794
  142SAPE   C3315562   6.633   0.834  10.459
  142SAPE   H3X15563   6.706   0.894  10.518
  142SAPE   H3Y15564   6.545   0.900  10.470
  142SAPE   C3415565   6.666   0.805  10.312
  142SAPE   H4X15566   6.719   0.709  10.296
  142SAPE   H4Y15567   6.730   0.885  10.269
  142SAPE   C3515568   6.533   0.811  10.230
  142SAPE   H5X15569   6.499   0.914  10.204
  142SAPE   H5Y15570   6.453   0.761  10.288
  142SAPE   C3615571   6.567   0.746  10.094
  142SAPE   H6X15572   6.588   0.639  10.115
  142SAPE   H6Y15573   6.659   0.786  10.047
  142SAPE   C3715574   6.459   0.768   9.983
  142SAPE   H7X15575   6.444   0.877   9.968
  142SAPE   H7Y15576   6.357   0.730  10.003
  142SAPE   C3815577   6.504   0.714   9.847
  142SAPE   H8X15578   6.531   0.606   9.849
  142SAPE   H8Y15579   6.591   0.770   9.809
  142SAPE   C3915580   6.398   0.716   9.738
  142SAPE   H9X15581   6.357   0.818   9.720
  142SAPE   H9Y15582   6.311   0.652   9.765
  142SAPE  C31015583   6.441   0.676   9.598
  142SAPE  H10X15584   6.481   0.573   9.609
  142SAPE  H10Y15585   6.520   0.741   9.553
  142SAPE  C31115586   6.325   0.657   9.499
  142SAPE  H11X15587   6.291   0.760   9.471
  142SAPE  H11Y15588   6.242   0.595   9.540
  142SAPE  C31215589   6.386   0.588   9.380
  142SAPE  H12X15590   6.411   0.483   9.403
  142SAPE  H12Y15591   6.474   0.647   9.346
  142SAPE  C31315592   6.289   0.564   9.263
  142SAPE  H13X15593   6.266   0.659   9.210
  142SAPE  H13Y15594   6.192   0.518   9.289
  142SAPE  C31415595   6.358   0.455   9.168
  142SAPE  H14X15596   6.382   0.364   9.228
  142SAPE  H14Y15597   6.448   0.507   9.128
  142SAPE  C31515598   6.252   0.416   9.057
  142SAPE  H15X15599   6.226   0.506   8.998
  142SAPE  H15Y15600   6.157   0.389   9.107
  142SAPE  C31615601   6.309   0.303   8.965
  142SAPE  H16X15602   6.327   0.220   9.037
  142SAPE  H16Y15603   6.401   0.339   8.915
  142SAPE  C31715604   6.228   0.258   8.847
  142SAPE  H17X15605   6.220   0.354   8.792
  142SAPE  H17Y15606   6.124   0.230   8.875
  142SAPE  C31815607   6.288   0.161   8.739
  142SAPE  H18X15608   6.301   0.063   8.792
  142SAPE  H18Y15609   6.387   0.195   8.702
  142SAPE  H18Z15610   6.222   0.144   8.652
  143SAPE     N15611   1.575   1.163  10.872
  143SAPE   HN115612   1.472   1.168  10.886
  143SAPE   HN215613   1.626   1.194  10.956
  143SAPE   HN315614   1.602   1.228  10.795
  143SAPE   C1215615   1.616   1.016  10.835
  143SAPE  H12A15616   1.726   1.015  10.846
  143SAPE  H12B15617   1.589   1.003  10.728
  143SAPE   C1115618   1.541   0.913  10.921
  143SAPE  H11A15619   1.586   0.925  11.022
  143SAPE  H11B15620   1.574   0.811  10.892
  143SAPE     P15621   1.309   0.884  11.025
  143SAPE   O1315622   1.332   0.744  11.057
  143SAPE   O1415623   1.336   0.979  11.138
  143SAPE   O1215624   1.394   0.929  10.906
  143SAPE   O1115625   1.160   0.902  10.980
  143SAPE    C115626   1.096   0.799  10.907
  143SAPE    HA15627   1.100   0.698  10.952
  143SAPE    HB15628   0.991   0.832  10.892
  143SAPE    C215629   1.148   0.796  10.754
  143SAPE    HS15630   1.252   0.757  10.761
  143SAPE   O2115631   1.131   0.932  10.704
  143SAPE   C2115632   1.228   0.974  10.615
  143SAPE   O2215633   1.336   0.916  10.601
  143SAPE   C2215634   1.184   1.110  10.554
  143SAPE   H2R15635   1.097   1.078  10.493
  143SAPE   H2S15636   1.146   1.172  10.638
  143SAPE    C315637   1.070   0.694  10.671
  143SAPE    HX15638   0.972   0.742  10.649
  143SAPE    HY15639   1.056   0.596  10.723
  143SAPE   O3115640   1.134   0.678  10.541
  143SAPE   C3115641   1.250   0.616  10.534
  143SAPE   O3215642   1.319   0.571  10.625
  143SAPE   C3215643   1.270   0.571  10.389
  143SAPE   H2X15644   1.204   0.626  10.318
  143SAPE   H2Y15645   1.241   0.464  10.389
  143SAPE   C2315646   1.301   1.175  10.474
  143SAPE   H3R15647   1.331   1.114  10.386
  143SAPE   H3S15648   1.389   1.176  10.542
  143SAPE   C2415649   1.272   1.319  10.441
  143SAPE   H4R15650   1.349   1.362  10.373
  143SAPE   H4S15651   1.277   1.380  10.533
  143SAPE   C2515652   1.129   1.343  10.391
  143SAPE   H5R15653   1.060   1.380  10.468
  143SAPE   C2615654   1.081   1.327  10.272
  143SAPE   H6R15655   0.976   1.343  10.245
  143SAPE   C2715656   1.153   1.267  10.150
  143SAPE   H7R15657   1.093   1.182  10.111
  143SAPE   H7S15658   1.257   1.236  10.174
  143SAPE   C2815659   1.145   1.378  10.044
  143SAPE   H8R15660   1.153   1.483  10.078
  143SAPE   C2915661   1.120   1.353   9.911
  143SAPE   H9R15662   1.089   1.438   9.849
  143SAPE  C21015663   1.107   1.213   9.847
  143SAPE  H10R15664   1.004   1.196   9.809
  143SAPE  H10S15665   1.128   1.137   9.924
  143SAPE  C21115666   1.210   1.185   9.733
  143SAPE  H11R15667   1.306   1.238   9.744
  143SAPE  C21215668   1.198   1.112   9.622
  143SAPE  H12R15669   1.277   1.119   9.546
  143SAPE  C21315670   1.086   1.026   9.572
  143SAPE  H13R15671   1.042   0.985   9.665
  143SAPE  H13S15672   1.123   0.935   9.520
  143SAPE  C21415673   0.971   1.089   9.494
  143SAPE  H14R15674   0.889   1.132   9.553
  143SAPE  C21515675   0.965   1.104   9.360
  143SAPE  H15R15676   0.892   1.172   9.314
  143SAPE  C21615677   1.067   1.056   9.261
  143SAPE  H16R15678   1.166   1.035   9.306
  143SAPE  H16S15679   1.078   1.138   9.188
  143SAPE  C21715680   1.019   0.934   9.178
  143SAPE  H17R15681   1.089   0.910   9.095
  143SAPE  H17S15682   0.924   0.959   9.126
  143SAPE  C21815683   0.988   0.815   9.270
  143SAPE  H18R15684   0.913   0.846   9.345
  143SAPE  H18S15685   1.077   0.771   9.320
  143SAPE  C21915686   0.919   0.703   9.198
  143SAPE  H19R15687   0.984   0.670   9.115
  143SAPE  H19S15688   0.825   0.742   9.153
  143SAPE  C22015689   0.873   0.584   9.291
  143SAPE  H20R15690   0.954   0.565   9.365
  143SAPE  H20S15691   0.850   0.491   9.235
  143SAPE  H20T15692   0.781   0.611   9.348
  143SAPE   C3315693   1.416   0.581  10.341
  143SAPE   H3X15694   1.418   0.520  10.248
  143SAPE   H3Y15695   1.491   0.546  10.415
  143SAPE   C3415696   1.465   0.723  10.300
  143SAPE   H4X15697   1.570   0.703  10.269
  143SAPE   H4Y15698   1.480   0.789  10.389
  143SAPE   C3515699   1.383   0.791  10.187
  143SAPE   H5X15700   1.435   0.883  10.153
  143SAPE   H5Y15701   1.295   0.829  10.244
  143SAPE   C3615702   1.334   0.699  10.075
  143SAPE   H6X15703   1.268   0.624  10.124
  143SAPE   H6Y15704   1.421   0.647  10.031
  143SAPE   C3715705   1.275   0.783   9.959
  143SAPE   H7X15706   1.357   0.844   9.917
  143SAPE   H7Y15707   1.202   0.843  10.018
  143SAPE   C3815708   1.202   0.705   9.856
  143SAPE   H8X15709   1.137   0.770   9.794
  143SAPE   H8Y15710   1.141   0.630   9.913
  143SAPE   C3915711   1.297   0.625   9.759
  143SAPE   H9X15712   1.300   0.515   9.768
  143SAPE   H9Y15713   1.400   0.649   9.795
  143SAPE  C31015714   1.281   0.656   9.608
  143SAPE  H10X15715   1.263   0.765   9.599
  143SAPE  H10Y15716   1.182   0.620   9.574
  143SAPE  C31115717   1.399   0.616   9.523
  143SAPE  H11X15718   1.424   0.508   9.518
  143SAPE  H11Y15719   1.485   0.655   9.582
  143SAPE  C31215720   1.387   0.668   9.378
  143SAPE  H12X15721   1.489   0.696   9.344
  143SAPE  H12Y15722   1.323   0.759   9.378
  143SAPE  C31315723   1.326   0.557   9.283
  143SAPE  H13X15724   1.221   0.543   9.317
  143SAPE  H13Y15725   1.369   0.455   9.287
  143SAPE  C31415726   1.320   0.618   9.145
  143SAPE  H14X15727   1.422   0.610   9.100
  143SAPE  H14Y15728   1.284   0.723   9.150
  143SAPE  C31515729   1.226   0.539   9.053
  143SAPE  H15X15730   1.127   0.543   9.103
  143SAPE  H15Y15731   1.259   0.434   9.041
  143SAPE  C31615732   1.227   0.604   8.912
  143SAPE  H16X15733   1.326   0.588   8.866
  143SAPE  H16Y15734   1.220   0.714   8.927
  143SAPE  C31715735   1.109   0.549   8.831
  143SAPE  H17X15736   1.020   0.587   8.885
  143SAPE  H17Y15737   1.095   0.441   8.851
  143SAPE  C31815738   1.098   0.595   8.683
  143SAPE  H18X15739   1.134   0.700   8.680
  143SAPE  H18Y15740   0.992   0.585   8.651
  143SAPE  H18Z15741   1.170   0.537   8.621
  144SAPE     N15742   4.487   5.811  11.372
  144SAPE   HN115743   4.462   5.860  11.460
  144SAPE   HN215744   4.485   5.708  11.380
  144SAPE   HN315745   4.583   5.846  11.354
  144SAPE   C1215746   4.407   5.857  11.257
  144SAPE  H12A15747   4.390   5.966  11.274
  144SAPE  H12B15748   4.319   5.789  11.264
  144SAPE   C1115749   4.486   5.830  11.127
  144SAPE  H11A15750   4.583   5.881  11.136
  144SAPE  H11B15751   4.429   5.882  11.047
  144SAPE     P15752   4.434   5.623  10.965
  144SAPE   O1315753   4.477   5.483  10.971
  144SAPE   O1415754   4.288   5.647  10.960
  144SAPE   O1215755   4.500   5.692  11.094
  144SAPE   O1115756   4.511   5.696  10.851
  144SAPE    C115757   4.457   5.802  10.767
  144SAPE    HA15758   4.402   5.874  10.832
  144SAPE    HB15759   4.540   5.856  10.716
  144SAPE    C215760   4.365   5.756  10.648
  144SAPE    HS15761   4.270   5.727  10.700
  144SAPE   O2115762   4.407   5.640  10.589
  144SAPE   C2115763   4.500   5.650  10.489
  144SAPE   O2215764   4.570   5.743  10.462
  144SAPE   C2215765   4.492   5.519  10.405
  144SAPE   H2R15766   4.591   5.507  10.357
  144SAPE   H2S15767   4.475   5.428  10.466
  144SAPE    C315768   4.339   5.880  10.554
  144SAPE    HX15769   4.441   5.911  10.523
  144SAPE    HY15770   4.291   5.968  10.602
  144SAPE   O3115771   4.282   5.828  10.427
  144SAPE   C3115772   4.155   5.798  10.428
  144SAPE   O3215773   4.078   5.809  10.522
  144SAPE   C3215774   4.109   5.746  10.284
  144SAPE   H2X15775   4.203   5.721  10.230
  144SAPE   H2Y15776   4.058   5.835  10.241
  144SAPE   C2315777   4.385   5.522  10.296
  144SAPE   H3R15778   4.382   5.626  10.258
  144SAPE   H3S15779   4.280   5.508  10.332
  144SAPE   C2415780   4.416   5.414  10.187
  144SAPE   H4R15781   4.438   5.321  10.244
  144SAPE   H4S15782   4.517   5.438  10.149
  144SAPE   C2515783   4.321   5.386  10.074
  144SAPE   H5R15784   4.267   5.290  10.079
  144SAPE   C2615785   4.307   5.454   9.960
  144SAPE   H6R15786   4.247   5.410   9.880
  144SAPE   C2715787   4.371   5.592   9.923
  144SAPE   H7R15788   4.454   5.559   9.857
  144SAPE   H7S15789   4.408   5.640  10.016
  144SAPE   C2815790   4.275   5.678   9.854
  144SAPE   H8R15791   4.236   5.759   9.917
  144SAPE   C2915792   4.234   5.674   9.724
  144SAPE   H9R15793   4.155   5.747   9.700
  144SAPE  C21015794   4.263   5.557   9.635
  144SAPE  H10R15795   4.264   5.458   9.686
  144SAPE  H10S15796   4.366   5.565   9.595
  144SAPE  C21115797   4.161   5.534   9.521
  144SAPE  H11R15798   4.072   5.476   9.548
  144SAPE  C21215799   4.158   5.592   9.397
  144SAPE  H12R15800   4.065   5.580   9.339
  144SAPE  C21315801   4.262   5.677   9.332
  144SAPE  H13R15802   4.338   5.714   9.404
  144SAPE  H13S15803   4.214   5.767   9.288
  144SAPE  C21415804   4.344   5.604   9.228
  144SAPE  H14R15805   4.442   5.565   9.260
  144SAPE  C21515806   4.303   5.573   9.098
  144SAPE  H15R15807   4.366   5.506   9.038
  144SAPE  C21615808   4.177   5.637   9.048
  144SAPE  H16R15809   4.200   5.732   8.996
  144SAPE  H16S15810   4.097   5.651   9.124
  144SAPE  C21715811   4.103   5.537   8.948
  144SAPE  H17R15812   4.170   5.508   8.865
  144SAPE  H17S15813   4.018   5.597   8.907
  144SAPE  C21815814   4.052   5.407   9.013
  144SAPE  H18R15815   3.956   5.424   9.066
  144SAPE  H18S15816   4.135   5.371   9.078
  144SAPE  C21915817   4.038   5.294   8.911
  144SAPE  H19R15818   4.009   5.199   8.960
  144SAPE  H19S15819   4.134   5.269   8.860
  144SAPE  C22015820   3.952   5.327   8.794
  144SAPE  H20R15821   3.953   5.235   8.732
  144SAPE  H20S15822   3.984   5.418   8.737
  144SAPE  H20T15823   3.846   5.346   8.822
  144SAPE   C3315824   3.997   5.637  10.287
  144SAPE   H3X15825   3.904   5.676  10.333
  144SAPE   H3Y15826   4.021   5.552  10.354
  144SAPE   C3415827   3.968   5.575  10.146
  144SAPE   H4X15828   3.901   5.489  10.170
  144SAPE   H4Y15829   4.064   5.533  10.109
  144SAPE   C3515830   3.925   5.684  10.047
  144SAPE   H5X15831   4.003   5.763  10.044
  144SAPE   H5Y15832   3.834   5.732  10.089
  144SAPE   C3615833   3.899   5.622   9.905
  144SAPE   H6X15834   3.815   5.550   9.915
  144SAPE   H6Y15835   3.991   5.567   9.878
  144SAPE   C3715836   3.860   5.718   9.802
  144SAPE   H7X15837   3.944   5.789   9.794
  144SAPE   H7Y15838   3.771   5.775   9.837
  144SAPE   C3815839   3.824   5.656   9.664
  144SAPE   H8X15840   3.755   5.572   9.686
  144SAPE   H8Y15841   3.918   5.631   9.611
  144SAPE   C3915842   3.744   5.756   9.581
  144SAPE   H9X15843   3.795   5.853   9.561
  144SAPE   H9Y15844   3.656   5.776   9.645
  144SAPE  C31015845   3.704   5.702   9.445
  144SAPE  H10X15846   3.594   5.695   9.427
  144SAPE  H10Y15847   3.743   5.598   9.440
  144SAPE  C31115848   3.753   5.790   9.328
  144SAPE  H11X15849   3.861   5.810   9.342
  144SAPE  H11Y15850   3.709   5.891   9.335
  144SAPE  C31215851   3.724   5.731   9.189
  144SAPE  H12X15852   3.613   5.737   9.182
  144SAPE  H12Y15853   3.764   5.628   9.196
  144SAPE  C31315854   3.793   5.816   9.082
  144SAPE  H13X15855   3.899   5.828   9.115
  144SAPE  H13Y15856   3.753   5.919   9.090
  144SAPE  C31415857   3.770   5.763   8.938
  144SAPE  H14X15858   3.841   5.682   8.912
  144SAPE  H14Y15859   3.806   5.843   8.870
  144SAPE  C31515860   3.626   5.734   8.909
  144SAPE  H15X15861   3.563   5.813   8.956
  144SAPE  H15Y15862   3.593   5.640   8.959
  144SAPE  C31615863   3.595   5.729   8.763
  144SAPE  H16X15864   3.674   5.679   8.703
  144SAPE  H16Y15865   3.581   5.830   8.720
  144SAPE  C31715866   3.453   5.659   8.745
  144SAPE  H17X15867   3.383   5.721   8.805
  144SAPE  H17Y15868   3.465   5.554   8.779
  144SAPE  C31815869   3.407   5.664   8.602
  144SAPE  H18X15870   3.315   5.605   8.581
  144SAPE  H18Y15871   3.490   5.628   8.536
  144SAPE  H18Z15872   3.385   5.766   8.563
  145SAPE     N15873   1.534   0.294  11.434
  145SAPE   HN115874   1.579   0.314  11.342
  145SAPE   HN215875   1.576   0.368  11.494
  145SAPE   HN315876   1.564   0.205  11.478
  145SAPE   C1215877   1.378   0.333  11.427
  145SAPE  H12A15878   1.376   0.444  11.422
  145SAPE  H12B15879   1.346   0.284  11.522
  145SAPE   C1115880   1.309   0.256  11.310
  145SAPE  H11A15881   1.359   0.284  11.214
  145SAPE  H11B15882   1.204   0.290  11.304
  145SAPE     P15883   1.202   0.021  11.338
  145SAPE   O1315884   1.255  -0.114  11.367
  145SAPE   O1415885   1.089   0.064  11.423
  145SAPE   O1215886   1.320   0.122  11.350
  145SAPE   O1115887   1.160   0.033  11.187
  145SAPE    C115888   1.236  -0.059  11.101
  145SAPE    HA15889   1.341  -0.073  11.134
  145SAPE    HB15890   1.185  -0.157  11.095
  145SAPE    C215891   1.269   0.004  10.958
  145SAPE    HS15892   1.342   0.088  10.966
  145SAPE   O2115893   1.137   0.051  10.903
  145SAPE   C2115894   1.136   0.160  10.824
  145SAPE   O2215895   1.234   0.225  10.792
  145SAPE   C2215896   0.998   0.176  10.767
  145SAPE   H2R15897   0.950   0.084  10.728
  145SAPE   H2S15898   0.939   0.223  10.848
  145SAPE    C315899   1.334  -0.103  10.873
  145SAPE    HX15900   1.265  -0.190  10.874
  145SAPE    HY15901   1.432  -0.127  10.919
  145SAPE   O3115902   1.351  -0.053  10.739
  145SAPE   C3115903   1.473  -0.008  10.699
  145SAPE   O3215904   1.574  -0.016  10.765
  145SAPE   C3215905   1.470   0.040  10.552
  145SAPE   H2X15906   1.368   0.075  10.524
  145SAPE   H2Y15907   1.496  -0.044  10.485
  145SAPE   C2315908   0.993   0.291  10.665
  145SAPE   H3R15909   1.088   0.287  10.608
  145SAPE   H3S15910   0.981   0.391  10.713
  145SAPE   C2415911   0.873   0.287  10.564
  145SAPE   H4R15912   0.781   0.276  10.626
  145SAPE   H4S15913   0.881   0.189  10.512
  145SAPE   C2515914   0.846   0.397  10.463
  145SAPE   H5R15915   0.805   0.490  10.507
  145SAPE   C2615916   0.877   0.396  10.328
  145SAPE   H6R15917   0.860   0.485  10.265
  145SAPE   C2715918   0.932   0.277  10.248
  145SAPE   H7R15919   0.844   0.237  10.193
  145SAPE   H7S15920   0.967   0.201  10.321
  145SAPE   C2815921   1.050   0.301  10.164
  145SAPE   H8R15922   1.143   0.303  10.222
  145SAPE   C2915923   1.055   0.309  10.032
  145SAPE   H9R15924   1.151   0.334   9.985
  145SAPE  C21015925   0.946   0.300   9.929
  145SAPE  H10R15926   0.852   0.267   9.979
  145SAPE  H10S15927   0.975   0.224   9.853
  145SAPE  C21115928   0.947   0.438   9.870
  145SAPE  H11R15929   0.982   0.515   9.942
  145SAPE  C21215930   0.926   0.479   9.741
  145SAPE  H12R15931   0.940   0.586   9.717
  145SAPE  C21315932   0.876   0.396   9.616
  145SAPE  H13R15933   0.837   0.467   9.540
  145SAPE  H13S15934   0.781   0.345   9.641
  145SAPE  C21415935   0.964   0.296   9.553
  145SAPE  H14R15936   1.063   0.290   9.602
  145SAPE  C21515937   0.925   0.217   9.458
  145SAPE  H15R15938   0.990   0.136   9.422
  145SAPE  C21615939   0.788   0.221   9.405
  145SAPE  H16R15940   0.727   0.311   9.425
  145SAPE  H16S15941   0.735   0.135   9.453
  145SAPE  C21715942   0.780   0.198   9.253
  145SAPE  H17R15943   0.802   0.288   9.191
  145SAPE  H17S15944   0.672   0.180   9.233
  145SAPE  C21815945   0.849   0.072   9.200
  145SAPE  H18R15946   0.823  -0.023   9.252
  145SAPE  H18S15947   0.955   0.067   9.233
  145SAPE  C21915948   0.850   0.053   9.048
  145SAPE  H19R15949   0.910  -0.035   9.014
  145SAPE  H19S15950   0.873   0.146   8.993
  145SAPE  C22015951   0.710   0.003   8.999
  145SAPE  H20R15952   0.720  -0.025   8.892
  145SAPE  H20S15953   0.640   0.089   9.000
  145SAPE  H20T15954   0.666  -0.083   9.054
  145SAPE   C3315955   1.559   0.162  10.539
  145SAPE   H3X15956   1.670   0.150  10.543
  145SAPE   H3Y15957   1.544   0.233  10.623
  145SAPE   C3415958   1.518   0.245  10.411
  145SAPE   H4X15959   1.596   0.323  10.398
  145SAPE   H4Y15960   1.422   0.302  10.416
  145SAPE   C3515961   1.513   0.162  10.277
  145SAPE   H5X15962   1.434   0.084  10.282
  145SAPE   H5Y15963   1.613   0.115  10.273
  145SAPE   C3615964   1.493   0.252  10.149
  145SAPE   H6X15965   1.568   0.333  10.156
  145SAPE   H6Y15966   1.394   0.300  10.163
  145SAPE   C3715967   1.482   0.183  10.013
  145SAPE   H7X15968   1.393   0.116  10.019
  145SAPE   H7Y15969   1.580   0.136   9.992
  145SAPE   C3815970   1.453   0.282   9.897
  145SAPE   H8X15971   1.512   0.375   9.915
  145SAPE   H8Y15972   1.349   0.317   9.914
  145SAPE   C3915973   1.486   0.220   9.763
  145SAPE   H9X15974   1.562   0.140   9.757
  145SAPE   H9Y15975   1.534   0.307   9.712
  145SAPE  C31015976   1.357   0.186   9.692
  145SAPE  H10X15977   1.281   0.261   9.723
  145SAPE  H10Y15978   1.321   0.092   9.739
  145SAPE  C31115979   1.374   0.185   9.544
  145SAPE  H11X15980   1.406   0.284   9.505
  145SAPE  H11Y15981   1.271   0.163   9.506
  145SAPE  C31215982   1.471   0.092   9.469
  145SAPE  H12X15983   1.432  -0.010   9.488
  145SAPE  H12Y15984   1.571   0.099   9.519
  145SAPE  C31315985   1.470   0.109   9.312
  145SAPE  H13X15986   1.526   0.030   9.257
  145SAPE  H13Y15987   1.510   0.210   9.288
  145SAPE  C31415988   1.328   0.107   9.247
  145SAPE  H14X15989   1.267   0.195   9.275
  145SAPE  H14Y15990   1.265   0.019   9.275
  145SAPE  C31515991   1.336   0.113   9.090
  145SAPE  H15X15992   1.383   0.019   9.054
  145SAPE  H15Y15993   1.409   0.195   9.074
  145SAPE  C31615994   1.200   0.129   9.020
  145SAPE  H16X15995   1.136   0.208   9.067
  145SAPE  H16Y15996   1.145   0.033   9.031
  145SAPE  C31715997   1.208   0.144   8.867
  145SAPE  H17X15998   1.268   0.057   8.829
  145SAPE  H17Y15999   1.273   0.227   8.833
  145SAPE  C31816000   1.072   0.147   8.797
  145SAPE  H18X16001   1.089   0.152   8.688
  145SAPE  H18Y16002   1.014   0.233   8.837
  145SAPE  H18Z16003   1.013   0.054   8.810
  146SAPE     N16004   5.256   6.076  10.957
  146SAPE   HN116005   5.310   6.162  10.932
  146SAPE   HN216006   5.263   6.014  10.875
  146SAPE   HN316007   5.157   6.100  10.975
  146SAPE   C1216008   5.308   6.020  11.084
  146SAPE  H12A16009   5.234   5.943  11.114
  146SAPE  H12B16010   5.299   6.103  11.157
  146SAPE   C1116011   5.453   5.971  11.063
  146SAPE  H11A16012   5.491   5.938  11.162
  146SAPE  H11B16013   5.512   6.059  11.028
  146SAPE     P16014   5.553   5.856  10.846
  146SAPE   O1316015   5.676   5.807  10.908
  146SAPE   O1416016   5.494   5.769  10.742
  146SAPE   O1216017   5.455   5.861  10.971
  146SAPE   O1116018   5.572   6.001  10.796
  146SAPE    C116019   5.514   6.060  10.689
  146SAPE    HA16020   5.412   6.023  10.662
  146SAPE    HB16021   5.503   6.168  10.712
  146SAPE    C216022   5.590   6.040  10.561
  146SAPE    HS16023   5.609   5.930  10.556
  146SAPE   O2116024   5.715   6.112  10.553
  146SAPE   C2116025   5.811   6.052  10.486
  146SAPE   O2216026   5.816   5.928  10.463
  146SAPE   C2216027   5.911   6.155  10.447
  146SAPE   H2R16028   5.845   6.230  10.399
  146SAPE   H2S16029   5.956   6.196  10.540
  146SAPE    C316030   5.506   6.075  10.437
  146SAPE    HX16031   5.517   6.185  10.430
  146SAPE    HY16032   5.396   6.071  10.455
  146SAPE   O3116033   5.551   6.009  10.316
  146SAPE   C3116034   5.476   5.916  10.261
  146SAPE   O3216035   5.374   5.875  10.306
  146SAPE   C3216036   5.524   5.870  10.128
  146SAPE   H2X16037   5.602   5.791  10.135
  146SAPE   H2Y16038   5.558   5.960  10.071
  146SAPE   C2316039   6.027   6.114  10.350
  146SAPE   H3R16040   5.996   6.082  10.248
  146SAPE   H3S16041   6.082   6.032  10.400
  146SAPE   C2416042   6.128   6.225  10.334
  146SAPE   H4R16043   6.220   6.177  10.293
  146SAPE   H4S16044   6.158   6.258  10.436
  146SAPE   C2516045   6.088   6.346  10.246
  146SAPE   H5R16046   6.007   6.411  10.283
  146SAPE   C2616047   6.153   6.387  10.132
  146SAPE   H6R16048   6.109   6.473  10.079
  146SAPE   C2716049   6.278   6.323  10.072
  146SAPE   H7R16050   6.335   6.250  10.134
  146SAPE   H7S16051   6.346   6.404  10.038
  146SAPE   C2816052   6.228   6.255   9.943
  146SAPE   H8R16053   6.143   6.187   9.953
  146SAPE   C2916054   6.258   6.283   9.813
  146SAPE   H9R16055   6.214   6.220   9.735
  146SAPE  C21016056   6.349   6.400   9.764
  146SAPE  H10R16057   6.443   6.362   9.718
  146SAPE  H10S16058   6.382   6.462   9.850
  146SAPE  C21116059   6.286   6.495   9.666
  146SAPE  H11R16060   6.179   6.480   9.643
  146SAPE  C21216061   6.345   6.599   9.605
  146SAPE  H12R16062   6.289   6.648   9.523
  146SAPE  C21316063   6.496   6.642   9.622
  146SAPE  H13R16064   6.547   6.649   9.524
  146SAPE  H13S16065   6.557   6.574   9.686
  146SAPE  C21416066   6.505   6.773   9.707
  146SAPE  H14R16067   6.447   6.768   9.800
  146SAPE  C21516068   6.575   6.888   9.673
  146SAPE  H15R16069   6.593   6.970   9.744
  146SAPE  C21616070   6.661   6.917   9.551
  146SAPE  H16R16071   6.664   6.827   9.486
  146SAPE  H16S16072   6.763   6.950   9.580
  146SAPE  C21716073   6.601   7.021   9.450
  146SAPE  H17R16074   6.573   7.118   9.498
  146SAPE  H17S16075   6.504   6.977   9.419
  146SAPE  C21816076   6.679   7.039   9.314
  146SAPE  H18R16077   6.786   7.065   9.325
  146SAPE  H18S16078   6.637   7.122   9.252
  146SAPE  C21916079   6.686   6.911   9.223
  146SAPE  H19R16080   6.745   6.836   9.280
  146SAPE  H19S16081   6.734   6.947   9.130
  146SAPE  C22016082   6.562   6.841   9.179
  146SAPE  H20R16083   6.501   6.803   9.263
  146SAPE  H20S16084   6.583   6.761   9.104
  146SAPE  H20T16085   6.505   6.916   9.120
  146SAPE   C3316086   5.395   5.827  10.036
  146SAPE   H3X16087   5.321   5.908  10.049
  146SAPE   H3Y16088   5.355   5.731  10.076
  146SAPE   C3416089   5.445   5.810   9.899
  146SAPE   H4X16090   5.518   5.728   9.884
  146SAPE   H4Y16091   5.495   5.903   9.863
  146SAPE   C3516092   5.334   5.796   9.795
  146SAPE   H5X16093   5.275   5.889   9.792
  146SAPE   H5Y16094   5.268   5.711   9.823
  146SAPE   C3616095   5.363   5.775   9.652
  146SAPE   H6X16096   5.427   5.684   9.654
  146SAPE   H6Y16097   5.429   5.853   9.609
  146SAPE   C3716098   5.246   5.768   9.551
  146SAPE   H7X16099   5.178   5.851   9.579
  146SAPE   H7Y16100   5.189   5.674   9.565
  146SAPE   C3816101   5.301   5.783   9.410
  146SAPE   H8X16102   5.364   5.700   9.372
  146SAPE   H8Y16103   5.352   5.881   9.396
  146SAPE   C3916104   5.186   5.787   9.295
  146SAPE   H9X16105   5.129   5.880   9.316
  146SAPE   H9Y16106   5.119   5.700   9.308
  146SAPE  C31016107   5.240   5.799   9.158
  146SAPE  H10X16108   5.316   5.718   9.152
  146SAPE  H10Y16109   5.299   5.893   9.151
  146SAPE  C31116110   5.131   5.778   9.056
  146SAPE  H11X16111   5.052   5.852   9.083
  146SAPE  H11Y16112   5.085   5.677   9.060
  146SAPE  C31216113   5.170   5.817   8.909
  146SAPE  H12X16114   5.276   5.786   8.897
  146SAPE  H12Y16115   5.172   5.928   8.912
  146SAPE  C31316116   5.098   5.750   8.791
  146SAPE  H13X16117   5.010   5.814   8.772
  146SAPE  H13Y16118   5.078   5.644   8.817
  146SAPE  C31416119   5.186   5.741   8.668
  146SAPE  H14X16120   5.281   5.691   8.699
  146SAPE  H14Y16121   5.215   5.842   8.631
  146SAPE  C31516122   5.118   5.662   8.547
  146SAPE  H15X16123   5.036   5.729   8.511
  146SAPE  H15Y16124   5.071   5.566   8.578
  146SAPE  C31616125   5.210   5.629   8.431
  146SAPE  H16X16126   5.310   5.600   8.471
  146SAPE  H16Y16127   5.232   5.729   8.387
  146SAPE  C31716128   5.168   5.531   8.324
  146SAPE  H17X16129   5.079   5.575   8.275
  146SAPE  H17Y16130   5.127   5.437   8.367
  146SAPE  C31816131   5.284   5.488   8.223
  146SAPE  H18X16132   5.376   5.449   8.271
  146SAPE  H18Y16133   5.320   5.584   8.180
  146SAPE  H18Z16134   5.248   5.423   8.141
  147SAPE     N16135   3.569   4.354   6.438
  147SAPE   HN116136   3.620   4.433   6.483
  147SAPE   HN216137   3.643   4.290   6.401
  147SAPE   HN316138   3.521   4.407   6.363
  147SAPE   C1216139   3.468   4.273   6.509
  147SAPE  H12A16140   3.522   4.224   6.592
  147SAPE  H12B16141   3.429   4.193   6.443
  147SAPE   C1116142   3.345   4.352   6.558
  147SAPE  H11A16143   3.376   4.437   6.623
  147SAPE  H11B16144   3.290   4.281   6.623
  147SAPE     P16145   3.162   4.320   6.373
  147SAPE   O1316146   3.070   4.408   6.297
  147SAPE   O1416147   3.226   4.204   6.309
  147SAPE   O1216148   3.271   4.412   6.451
  147SAPE   O1116149   3.077   4.262   6.496
  147SAPE    C116150   2.980   4.322   6.583
  147SAPE    HA16151   2.971   4.432   6.568
  147SAPE    HB16152   2.876   4.289   6.567
  147SAPE    C216153   3.023   4.313   6.736
  147SAPE    HS16154   3.102   4.390   6.749
  147SAPE   O2116155   3.076   4.179   6.775
  147SAPE   C2116156   3.184   4.172   6.847
  147SAPE   O2216157   3.243   4.266   6.890
  147SAPE   C2216158   3.234   4.030   6.855
  147SAPE   H2R16159   3.153   3.962   6.889
  147SAPE   H2S16160   3.254   4.006   6.748
  147SAPE    C316161   2.913   4.353   6.838
  147SAPE    HX16162   2.834   4.275   6.828
  147SAPE    HY16163   2.857   4.446   6.813
  147SAPE   O3116164   2.961   4.355   6.975
  147SAPE   C3116165   3.006   4.470   7.011
  147SAPE   O3216166   3.025   4.568   6.939
  147SAPE   C3216167   3.050   4.464   7.155
  147SAPE   H2X16168   3.151   4.418   7.158
  147SAPE   H2Y16169   2.985   4.393   7.210
  147SAPE   C2316170   3.362   4.011   6.939
  147SAPE   H3R16171   3.436   4.091   6.918
  147SAPE   H3S16172   3.405   3.915   6.903
  147SAPE   C2416173   3.338   3.988   7.087
  147SAPE   H4R16174   3.325   4.085   7.139
  147SAPE   H4S16175   3.436   3.949   7.123
  147SAPE   C2516176   3.243   3.881   7.124
  147SAPE   H5R16177   3.280   3.779   7.107
  147SAPE   C2616178   3.127   3.900   7.183
  147SAPE   H6R16179   3.057   3.817   7.199
  147SAPE   C2716180   3.065   4.035   7.201
  147SAPE   H7R16181   3.091   4.094   7.111
  147SAPE   H7S16182   3.117   4.095   7.278
  147SAPE   C2816183   2.911   4.036   7.226
  147SAPE   H8R16184   2.851   3.961   7.172
  147SAPE   C2916185   2.848   4.088   7.334
  147SAPE   H9R16186   2.739   4.092   7.323
  147SAPE  C21016187   2.906   4.159   7.449
  147SAPE  H10R16188   3.005   4.205   7.429
  147SAPE  H10S16189   2.928   4.091   7.534
  147SAPE  C21116190   2.818   4.270   7.499
  147SAPE  H11R16191   2.813   4.359   7.434
  147SAPE  C21216192   2.738   4.274   7.605
  147SAPE  H12R16193   2.694   4.372   7.627
  147SAPE  C21316194   2.706   4.153   7.695
  147SAPE  H13R16195   2.773   4.154   7.784
  147SAPE  H13S16196   2.721   4.053   7.649
  147SAPE  C21416197   2.562   4.159   7.746
  147SAPE  H14R16198   2.555   4.169   7.855
  147SAPE  C21516199   2.451   4.122   7.673
  147SAPE  H15R16200   2.353   4.132   7.723
  147SAPE  C21616201   2.459   4.088   7.525
  147SAPE  H16R16202   2.405   3.992   7.510
  147SAPE  H16S16203   2.566   4.073   7.499
  147SAPE  C21716204   2.405   4.205   7.442
  147SAPE  H17R16205   2.449   4.299   7.481
  147SAPE  H17S16206   2.295   4.202   7.457
  147SAPE  C21816207   2.428   4.187   7.291
  147SAPE  H18R16208   2.534   4.197   7.261
  147SAPE  H18S16209   2.365   4.266   7.245
  147SAPE  C21916210   2.382   4.048   7.244
  147SAPE  H19R16211   2.274   4.035   7.266
  147SAPE  H19S16212   2.440   3.975   7.305
  147SAPE  C22016213   2.390   4.029   7.086
  147SAPE  H20R16214   2.410   3.923   7.059
  147SAPE  H20S16215   2.481   4.081   7.051
  147SAPE  H20T16216   2.298   4.061   7.033
  147SAPE   C3316217   3.051   4.605   7.219
  147SAPE   H3X16218   2.956   4.663   7.220
  147SAPE   H3Y16219   3.131   4.659   7.163
  147SAPE   C3416220   3.095   4.601   7.369
  147SAPE   H4X16221   3.178   4.530   7.387
  147SAPE   H4Y16222   2.999   4.575   7.420
  147SAPE   C3516223   3.147   4.736   7.409
  147SAPE   H5X16224   3.062   4.805   7.392
  147SAPE   H5Y16225   3.246   4.744   7.358
  147SAPE   C3616226   3.184   4.742   7.560
  147SAPE   H6X16227   3.229   4.840   7.588
  147SAPE   H6Y16228   3.266   4.669   7.579
  147SAPE   C3716229   3.084   4.687   7.664
  147SAPE   H7X16230   3.058   4.582   7.640
  147SAPE   H7Y16231   2.994   4.751   7.675
  147SAPE   C3816232   3.154   4.660   7.798
  147SAPE   H8X16233   3.218   4.748   7.822
  147SAPE   H8Y16234   3.221   4.575   7.771
  147SAPE   C3916235   3.052   4.616   7.907
  147SAPE   H9X16236   2.969   4.690   7.910
  147SAPE   H9Y16237   3.102   4.630   8.005
  147SAPE  C31016238   3.001   4.468   7.891
  147SAPE  H10X16239   3.068   4.403   7.830
  147SAPE  H10Y16240   2.901   4.461   7.843
  147SAPE  C31116241   2.983   4.392   8.021
  147SAPE  H11X16242   3.072   4.391   8.087
  147SAPE  H11Y16243   2.971   4.285   7.992
  147SAPE  C31216244   2.863   4.417   8.116
  147SAPE  H12X16245   2.827   4.522   8.108
  147SAPE  H12Y16246   2.891   4.400   8.223
  147SAPE  C31316247   2.752   4.320   8.078
  147SAPE  H13X16248   2.792   4.217   8.065
  147SAPE  H13Y16249   2.714   4.359   7.981
  147SAPE  C31416250   2.639   4.312   8.180
  147SAPE  H14X16251   2.624   4.412   8.226
  147SAPE  H14Y16252   2.670   4.242   8.260
  147SAPE  C31516253   2.503   4.276   8.125
  147SAPE  H15X16254   2.512   4.166   8.113
  147SAPE  H15Y16255   2.490   4.325   8.026
  147SAPE  C31616256   2.386   4.302   8.217
  147SAPE  H16X16257   2.376   4.406   8.257
  147SAPE  H16Y16258   2.395   4.247   8.312
  147SAPE  C31716259   2.252   4.269   8.154
  147SAPE  H17X16260   2.177   4.268   8.236
  147SAPE  H17Y16261   2.253   4.165   8.117
  147SAPE  C31816262   2.226   4.372   8.036
  147SAPE  H18X16263   2.286   4.350   7.946
  147SAPE  H18Y16264   2.243   4.475   8.075
  147SAPE  H18Z16265   2.116   4.370   8.016
  148SAPE     N16266   2.626   1.927   6.703
  148SAPE   HN116267   2.595   1.975   6.617
  148SAPE   HN216268   2.701   1.977   6.754
  148SAPE   HN316269   2.659   1.837   6.661
  148SAPE   C1216270   2.503   1.904   6.793
  148SAPE  H12A16271   2.531   1.853   6.888
  148SAPE  H12B16272   2.433   1.833   6.745
  148SAPE   C1116273   2.438   2.039   6.833
  148SAPE  H11A16274   2.506   2.103   6.893
  148SAPE  H11B16275   2.356   2.015   6.904
  148SAPE     P16276   2.229   2.103   6.683
  148SAPE   O1316277   2.214   2.152   6.547
  148SAPE   O1416278   2.178   1.970   6.719
  148SAPE   O1216279   2.385   2.105   6.721
  148SAPE   O1116280   2.155   2.206   6.769
  148SAPE    C116281   2.198   2.342   6.762
  148SAPE    HA16282   2.308   2.347   6.751
  148SAPE    HB16283   2.156   2.402   6.678
  148SAPE    C216284   2.161   2.426   6.898
  148SAPE    HS16285   2.225   2.517   6.896
  148SAPE   O2116286   2.179   2.336   7.012
  148SAPE   C2116287   2.307   2.320   7.043
  148SAPE   O2216288   2.400   2.381   6.987
  148SAPE   C2216289   2.323   2.228   7.165
  148SAPE   H2R16290   2.231   2.233   7.229
  148SAPE   H2S16291   2.328   2.122   7.134
  148SAPE    C316292   2.015   2.467   6.897
  148SAPE    HX16293   1.949   2.378   6.894
  148SAPE    HY16294   2.003   2.526   6.804
  148SAPE   O3116295   1.991   2.552   7.011
  148SAPE   C3116296   1.920   2.519   7.110
  148SAPE   O3216297   1.861   2.411   7.119
  148SAPE   C3216298   1.921   2.624   7.217
  148SAPE   H2X16299   1.826   2.681   7.217
  148SAPE   H2Y16300   2.006   2.694   7.202
  148SAPE   C2316301   2.444   2.266   7.252
  148SAPE   H3R16302   2.407   2.343   7.322
  148SAPE   H3S16303   2.526   2.318   7.199
  148SAPE   C2416304   2.500   2.152   7.335
  148SAPE   H4R16305   2.575   2.209   7.394
  148SAPE   H4S16306   2.561   2.092   7.264
  148SAPE   C2516307   2.417   2.074   7.431
  148SAPE   H5R16308   2.356   2.002   7.374
  148SAPE   C2616309   2.411   2.082   7.562
  148SAPE   H6R16310   2.352   2.010   7.620
  148SAPE   C2716311   2.488   2.177   7.650
  148SAPE   H7R16312   2.595   2.159   7.627
  148SAPE   H7S16313   2.468   2.147   7.756
  148SAPE   C2816314   2.448   2.321   7.628
  148SAPE   H8R16315   2.417   2.350   7.527
  148SAPE   C2916316   2.468   2.424   7.716
  148SAPE   H9R16317   2.424   2.521   7.686
  148SAPE  C21016318   2.521   2.409   7.858
  148SAPE  H10R16319   2.594   2.492   7.870
  148SAPE  H10S16320   2.580   2.316   7.876
  148SAPE  C21116321   2.403   2.414   7.959
  148SAPE  H11R16322   2.304   2.448   7.927
  148SAPE  C21216323   2.408   2.359   8.083
  148SAPE  H12R16324   2.317   2.343   8.143
  148SAPE  C21316325   2.535   2.318   8.154
  148SAPE  H13R16326   2.544   2.361   8.256
  148SAPE  H13S16327   2.630   2.357   8.112
  148SAPE  C21416328   2.554   2.165   8.153
  148SAPE  H14R16329   2.508   2.117   8.066
  148SAPE  C21516330   2.632   2.095   8.232
  148SAPE  H15R16331   2.633   1.986   8.218
  148SAPE  C21616332   2.713   2.151   8.344
  148SAPE  H16R16333   2.746   2.251   8.309
  148SAPE  H16S16334   2.809   2.093   8.344
  148SAPE  C21716335   2.635   2.149   8.480
  148SAPE  H17R16336   2.551   2.220   8.469
  148SAPE  H17S16337   2.694   2.188   8.566
  148SAPE  C21816338   2.579   2.010   8.517
  148SAPE  H18R16339   2.660   1.934   8.511
  148SAPE  H18S16340   2.503   1.971   8.446
  148SAPE  C21916341   2.532   2.011   8.657
  148SAPE  H19R16342   2.435   1.956   8.665
  148SAPE  H19S16343   2.510   2.115   8.690
  148SAPE  C22016344   2.645   1.966   8.755
  148SAPE  H20R16345   2.593   1.967   8.854
  148SAPE  H20S16346   2.732   2.034   8.754
  148SAPE  H20T16347   2.690   1.867   8.732
  148SAPE   C3316348   1.950   2.571   7.358
  148SAPE   H3X16349   2.058   2.548   7.367
  148SAPE   H3Y16350   1.883   2.484   7.378
  148SAPE   C3416351   1.912   2.665   7.473
  148SAPE   H4X16352   1.801   2.674   7.470
  148SAPE   H4Y16353   1.963   2.762   7.453
  148SAPE   C3516354   1.945   2.608   7.609
  148SAPE   H5X16355   2.051   2.576   7.612
  148SAPE   H5Y16356   1.882   2.519   7.628
  148SAPE   C3616357   1.924   2.714   7.717
  148SAPE   H6X16358   1.819   2.750   7.718
  148SAPE   H6Y16359   1.993   2.794   7.684
  148SAPE   C3716360   1.969   2.655   7.858
  148SAPE   H7X16361   2.073   2.616   7.852
  148SAPE   H7Y16362   1.904   2.568   7.882
  148SAPE   C3816363   1.959   2.758   7.973
  148SAPE   H8X16364   1.856   2.789   8.001
  148SAPE   H8Y16365   2.009   2.845   7.926
  148SAPE   C3916366   2.037   2.717   8.103
  148SAPE   H9X16367   2.142   2.682   8.086
  148SAPE   H9Y16368   1.977   2.632   8.141
  148SAPE  C31016369   2.043   2.824   8.209
  148SAPE  H10X16370   1.944   2.874   8.220
  148SAPE  H10Y16371   2.111   2.905   8.177
  148SAPE  C31116372   2.095   2.761   8.335
  148SAPE  H11X16373   2.185   2.701   8.312
  148SAPE  H11Y16374   2.017   2.689   8.370
  148SAPE  C31216375   2.118   2.875   8.436
  148SAPE  H12X16376   2.028   2.938   8.452
  148SAPE  H12Y16377   2.202   2.930   8.389
  148SAPE  C31316378   2.171   2.826   8.578
  148SAPE  H13X16379   2.221   2.727   8.567
  148SAPE  H13Y16380   2.086   2.807   8.647
  148SAPE  C31416381   2.269   2.924   8.640
  148SAPE  H14X16382   2.210   3.018   8.650
  148SAPE  H14Y16383   2.365   2.935   8.585
  148SAPE  C31516384   2.311   2.875   8.776
  148SAPE  H15X16385   2.395   2.804   8.756
  148SAPE  H15Y16386   2.218   2.835   8.820
  148SAPE  C31616387   2.368   2.981   8.869
  148SAPE  H16X16388   2.369   2.951   8.976
  148SAPE  H16Y16389   2.301   3.070   8.870
  148SAPE  C31716390   2.509   3.034   8.829
  148SAPE  H17X16391   2.532   3.137   8.865
  148SAPE  H17Y16392   2.517   3.034   8.718
  148SAPE  C31816393   2.631   2.946   8.869
  148SAPE  H18X16394   2.618   2.842   8.833
  148SAPE  H18Y16395   2.650   2.941   8.978
  148SAPE  H18Z16396   2.720   2.979   8.811
  149SAPE     N16397   1.759   3.250   6.247
  149SAPE   HN116398   1.842   3.275   6.189
  149SAPE   HN216399   1.708   3.169   6.206
  149SAPE   HN316400   1.691   3.328   6.239
  149SAPE   C1216401   1.795   3.239   6.391
  149SAPE  H12A16402   1.848   3.331   6.425
  149SAPE  H12B16403   1.860   3.150   6.403
  149SAPE   C1116404   1.662   3.213   6.475
  149SAPE  H11A16405   1.612   3.312   6.469
  149SAPE  H11B16406   1.683   3.186   6.581
  149SAPE     P16407   1.596   2.960   6.437
  149SAPE   O1316408   1.513   2.883   6.341
  149SAPE   O1416409   1.742   2.951   6.424
  149SAPE   O1216410   1.576   3.115   6.411
  149SAPE   O1116411   1.558   2.932   6.583
  149SAPE    C116412   1.615   2.831   6.666
  149SAPE    HA16413   1.542   2.748   6.678
  149SAPE    HB16414   1.707   2.781   6.628
  149SAPE    C216415   1.649   2.888   6.810
  149SAPE    HS16416   1.571   2.951   6.857
  149SAPE   O2116417   1.764   2.963   6.790
  149SAPE   C2116418   1.784   3.079   6.845
  149SAPE   O2216419   1.704   3.142   6.915
  149SAPE   C2216420   1.917   3.129   6.803
  149SAPE   H2R16421   1.912   3.117   6.692
  149SAPE   H2S16422   1.927   3.239   6.817
  149SAPE    C316423   1.690   2.777   6.918
  149SAPE    HX16424   1.778   2.724   6.874
  149SAPE    HY16425   1.605   2.705   6.915
  149SAPE   O3116426   1.710   2.825   7.051
  149SAPE   C3116427   1.597   2.839   7.123
  149SAPE   O3216428   1.484   2.821   7.087
  149SAPE   C3216429   1.632   2.891   7.259
  149SAPE   H2X16430   1.593   2.993   7.281
  149SAPE   H2Y16431   1.743   2.903   7.264
  149SAPE   C2316432   2.031   3.045   6.876
  149SAPE   H3R16433   2.124   3.093   6.837
  149SAPE   H3S16434   2.035   2.937   6.850
  149SAPE   C2416435   2.020   3.059   7.029
  149SAPE   H4R16436   1.955   2.969   7.039
  149SAPE   H4S16437   1.961   3.149   7.055
  149SAPE   C2516438   2.143   3.050   7.112
  149SAPE   H5R16439   2.238   3.055   7.058
  149SAPE   C2616440   2.149   3.052   7.250
  149SAPE   H6R16441   2.242   3.054   7.308
  149SAPE   C2716442   2.019   3.073   7.334
  149SAPE   H7R16443   2.022   2.993   7.411
  149SAPE   H7S16444   1.926   3.069   7.273
  149SAPE   C2816445   2.028   3.202   7.406
  149SAPE   H8R16446   2.059   3.287   7.343
  149SAPE   C2916447   2.005   3.232   7.536
  149SAPE   H9R16448   2.008   3.335   7.573
  149SAPE  C21016449   1.958   3.130   7.635
  149SAPE  H10R16450   2.001   3.030   7.613
  149SAPE  H10S16451   1.848   3.138   7.630
  149SAPE  C21116452   1.995   3.160   7.781
  149SAPE  H11R16453   2.078   3.103   7.826
  149SAPE  C21216454   1.930   3.253   7.864
  149SAPE  H12R16455   1.970   3.271   7.965
  149SAPE  C21316456   1.816   3.336   7.838
  149SAPE  H13R16457   1.742   3.264   7.798
  149SAPE  H13S16458   1.846   3.402   7.753
  149SAPE  C21416459   1.738   3.403   7.946
  149SAPE  H14R16460   1.640   3.362   7.976
  149SAPE  C21516461   1.772   3.524   8.000
  149SAPE  H15R16462   1.700   3.558   8.076
  149SAPE  C21616463   1.891   3.609   7.973
  149SAPE  H16R16464   1.864   3.708   7.931
  149SAPE  H16S16465   1.956   3.567   7.893
  149SAPE  C21716466   1.974   3.635   8.100
  149SAPE  H17R16467   2.081   3.649   8.074
  149SAPE  H17S16468   1.965   3.543   8.162
  149SAPE  C21816469   1.921   3.760   8.169
  149SAPE  H18R16470   1.815   3.755   8.204
  149SAPE  H18S16471   1.917   3.843   8.096
  149SAPE  C21916472   2.003   3.793   8.288
  149SAPE  H19R16473   2.103   3.761   8.251
  149SAPE  H19S16474   1.973   3.726   8.372
  149SAPE  C22016475   2.013   3.938   8.330
  149SAPE  H20R16476   2.056   4.009   8.257
  149SAPE  H20S16477   2.077   3.942   8.422
  149SAPE  H20T16478   1.910   3.963   8.362
  149SAPE   C3316479   1.581   2.815   7.381
  149SAPE   H3X16480   1.608   2.707   7.387
  149SAPE   H3Y16481   1.470   2.823   7.376
  149SAPE   C3416482   1.601   2.889   7.512
  149SAPE   H4X16483   1.546   2.986   7.508
  149SAPE   H4Y16484   1.709   2.914   7.510
  149SAPE   C3516485   1.554   2.803   7.631
  149SAPE   H5X16486   1.595   2.700   7.623
  149SAPE   H5Y16487   1.445   2.784   7.615
  149SAPE   C3616488   1.579   2.874   7.762
  149SAPE   H6X16489   1.499   2.949   7.780
  149SAPE   H6Y16490   1.682   2.916   7.767
  149SAPE   C3716491   1.564   2.770   7.875
  149SAPE   H7X16492   1.659   2.715   7.891
  149SAPE   H7Y16493   1.490   2.690   7.851
  149SAPE   C3816494   1.511   2.831   8.006
  149SAPE   H8X16495   1.498   2.750   8.082
  149SAPE   H8Y16496   1.408   2.866   7.983
  149SAPE   C3916497   1.590   2.954   8.059
  149SAPE   H9X16498   1.616   3.020   7.974
  149SAPE   H9Y16499   1.689   2.911   8.087
  149SAPE  C31016500   1.527   3.013   8.190
  149SAPE  H10X16501   1.513   2.928   8.260
  149SAPE  H10Y16502   1.432   3.068   8.172
  149SAPE  C31116503   1.616   3.126   8.255
  149SAPE  H11X16504   1.575   3.160   8.352
  149SAPE  H11Y16505   1.613   3.212   8.184
  149SAPE  C31216506   1.765   3.100   8.278
  149SAPE  H12X16507   1.830   3.099   8.187
  149SAPE  H12Y16508   1.767   2.994   8.312
  149SAPE  C31316509   1.818   3.190   8.386
  149SAPE  H13X16510   1.926   3.170   8.405
  149SAPE  H13Y16511   1.769   3.171   8.484
  149SAPE  C31416512   1.812   3.340   8.343
  149SAPE  H14X16513   1.802   3.338   8.232
  149SAPE  H14Y16514   1.905   3.387   8.383
  149SAPE  C31516515   1.701   3.414   8.415
  149SAPE  H15X16516   1.692   3.393   8.524
  149SAPE  H15Y16517   1.603   3.396   8.366
  149SAPE  C31616518   1.710   3.569   8.390
  149SAPE  H16X16519   1.709   3.590   8.281
  149SAPE  H16Y16520   1.808   3.601   8.431
  149SAPE  C31716521   1.601   3.638   8.475
  149SAPE  H17X16522   1.621   3.615   8.582
  149SAPE  H17Y16523   1.501   3.600   8.446
  149SAPE  C31816524   1.610   3.796   8.455
  149SAPE  H18X16525   1.541   3.851   8.523
  149SAPE  H18Y16526   1.593   3.829   8.351
  149SAPE  H18Z16527   1.712   3.828   8.484
  150SAPE     N16528   0.538   4.620   6.167
  150SAPE   HN116529   0.477   4.632   6.083
  150SAPE   HN216530   0.629   4.586   6.131
  150SAPE   HN316531   0.498   4.535   6.212
  150SAPE   C1216532   0.566   4.732   6.254
  150SAPE  H12A16533   0.494   4.728   6.338
  150SAPE  H12B16534   0.554   4.823   6.192
  150SAPE   C1116535   0.707   4.728   6.320
  150SAPE  H11A16536   0.698   4.791   6.411
  150SAPE  H11B16537   0.789   4.779   6.265
  150SAPE     P16538   0.876   4.548   6.431
  150SAPE   O1316539   0.876   4.399   6.432
  150SAPE   O1416540   0.976   4.618   6.353
  150SAPE   O1216541   0.738   4.591   6.360
  150SAPE   O1116542   0.855   4.609   6.576
  150SAPE    C116543   0.730   4.591   6.647
  150SAPE    HA16544   0.674   4.686   6.635
  150SAPE    HB16545   0.674   4.502   6.611
  150SAPE    C216546   0.750   4.561   6.792
  150SAPE    HS16547   0.652   4.531   6.837
  150SAPE   O2116548   0.797   4.683   6.860
  150SAPE   C2116549   0.693   4.756   6.907
  150SAPE   O2216550   0.578   4.729   6.894
  150SAPE   C2216551   0.740   4.882   6.972
  150SAPE   H2R16552   0.830   4.863   7.035
  150SAPE   H2S16553   0.772   4.951   6.891
  150SAPE    C316554   0.861   4.449   6.812
  150SAPE    HX16555   0.945   4.492   6.754
  150SAPE    HY16556   0.831   4.350   6.772
  150SAPE   O3116557   0.888   4.431   6.952
  150SAPE   C3116558   1.001   4.365   6.975
  150SAPE   O3216559   1.076   4.313   6.896
  150SAPE   C3216560   1.044   4.380   7.121
  150SAPE   H2X16561   1.042   4.490   7.133
  150SAPE   H2Y16562   1.140   4.329   7.147
  150SAPE   C2316563   0.639   4.954   7.067
  150SAPE   H3R16564   0.595   4.875   7.132
  150SAPE   H3S16565   0.551   4.980   7.004
  150SAPE   C2416566   0.699   5.061   7.157
  150SAPE   H4R16567   0.754   5.136   7.096
  150SAPE   H4S16568   0.770   5.011   7.226
  150SAPE   C2516569   0.587   5.135   7.236
  150SAPE   H5R16570   0.554   5.230   7.191
  150SAPE   C2616571   0.517   5.082   7.336
  150SAPE   H6R16572   0.452   5.157   7.385
  150SAPE   C2716573   0.534   4.953   7.408
  150SAPE   H7R16574   0.552   4.874   7.332
  150SAPE   H7S16575   0.431   4.929   7.444
  150SAPE   C2816576   0.646   4.950   7.509
  150SAPE   H8R16577   0.730   4.887   7.478
  150SAPE   C2916578   0.657   5.010   7.630
  150SAPE   H9R16579   0.756   5.003   7.677
  150SAPE  C21016580   0.556   5.091   7.697
  150SAPE  H10R16581   0.471   5.101   7.627
  150SAPE  H10S16582   0.589   5.195   7.716
  150SAPE  C21116583   0.494   5.019   7.815
  150SAPE  H11R16584   0.431   4.932   7.791
  150SAPE  C21216585   0.536   5.019   7.943
  150SAPE  H12R16586   0.497   4.947   8.016
  150SAPE  C21316587   0.630   5.116   8.004
  150SAPE  H13R16588   0.587   5.173   8.089
  150SAPE  H13S16589   0.668   5.197   7.938
  150SAPE  C21416590   0.749   5.044   8.062
  150SAPE  H14R16591   0.839   5.040   7.999
  150SAPE  C21516592   0.772   5.005   8.188
  150SAPE  H15R16593   0.869   4.959   8.211
  150SAPE  C21616594   0.676   5.026   8.299
  150SAPE  H16R16595   0.571   5.003   8.268
  150SAPE  H16S16596   0.680   5.135   8.319
  150SAPE  C21716597   0.692   4.932   8.424
  150SAPE  H17R16598   0.798   4.922   8.456
  150SAPE  H17S16599   0.659   4.834   8.384
  150SAPE  C21816600   0.605   4.974   8.547
  150SAPE  H18R16601   0.635   5.072   8.590
  150SAPE  H18S16602   0.624   4.906   8.633
  150SAPE  C21916603   0.452   4.966   8.523
  150SAPE  H19R16604   0.410   4.870   8.486
  150SAPE  H19S16605   0.446   5.043   8.443
  150SAPE  C22016606   0.369   5.010   8.642
  150SAPE  H20R16607   0.404   5.103   8.693
  150SAPE  H20S16608   0.369   4.931   8.720
  150SAPE  H20T16609   0.261   5.022   8.620
  150SAPE   C3316610   0.933   4.322   7.206
  150SAPE   H3X16611   0.913   4.215   7.181
  150SAPE   H3Y16612   0.834   4.364   7.177
  150SAPE   C3416613   0.965   4.357   7.353
  150SAPE   H4X16614   0.921   4.459   7.360
  150SAPE   H4Y16615   1.074   4.348   7.368
  150SAPE   C3516616   0.904   4.259   7.455
  150SAPE   H5X16617   0.925   4.162   7.406
  150SAPE   H5Y16618   0.794   4.275   7.462
  150SAPE   C3616619   0.961   4.257   7.602
  150SAPE   H6X16620   0.946   4.362   7.633
  150SAPE   H6Y16621   1.068   4.229   7.596
  150SAPE   C3716622   0.881   4.168   7.696
  150SAPE   H7X16623   0.909   4.061   7.689
  150SAPE   H7Y16624   0.773   4.175   7.671
  150SAPE   C3816625   0.920   4.207   7.843
  150SAPE   H8X16626   0.907   4.315   7.865
  150SAPE   H8Y16627   1.030   4.190   7.842
  150SAPE   C3916628   0.866   4.128   7.959
  150SAPE   H9X16629   0.884   4.019   7.948
  150SAPE   H9Y16630   0.755   4.138   7.961
  150SAPE  C31016631   0.913   4.181   8.094
  150SAPE  H10X16632   0.898   4.291   8.107
  150SAPE  H10Y16633   1.022   4.161   8.104
  150SAPE  C31116634   0.852   4.102   8.214
  150SAPE  H11X16635   0.754   4.151   8.230
  150SAPE  H11Y16636   0.898   4.121   8.314
  150SAPE  C31216637   0.837   3.955   8.192
  150SAPE  H12X16638   0.933   3.903   8.174
  150SAPE  H12Y16639   0.769   3.944   8.104
  150SAPE  C31316640   0.780   3.873   8.312
  150SAPE  H13X16641   0.687   3.922   8.348
  150SAPE  H13Y16642   0.848   3.903   8.394
  150SAPE  C31416643   0.746   3.726   8.296
  150SAPE  H14X16644   0.674   3.702   8.377
  150SAPE  H14Y16645   0.835   3.663   8.319
  150SAPE  C31516646   0.678   3.691   8.162
  150SAPE  H15X16647   0.733   3.732   8.075
  150SAPE  H15Y16648   0.581   3.746   8.164
  150SAPE  C31616649   0.646   3.541   8.143
  150SAPE  H16X16650   0.575   3.535   8.058
  150SAPE  H16Y16651   0.601   3.502   8.238
  150SAPE  C31716652   0.760   3.455   8.119
  150SAPE  H17X16653   0.819   3.450   8.213
  150SAPE  H17Y16654   0.826   3.482   8.033
  150SAPE  C31816655   0.716   3.312   8.093
  150SAPE  H18X16656   0.655   3.320   8.001
  150SAPE  H18Y16657   0.648   3.289   8.178
  150SAPE  H18Z16658   0.797   3.239   8.071
  151SAPE     N16659   3.060   1.340   6.510
  151SAPE   HN116660   3.024   1.438   6.511
  151SAPE   HN216661   3.114   1.329   6.422
  151SAPE   HN316662   2.982   1.273   6.526
  151SAPE   C1216663   3.165   1.329   6.612
  151SAPE  H12A16664   3.207   1.226   6.606
  151SAPE  H12B16665   3.115   1.345   6.709
  151SAPE   C1116666   3.276   1.442   6.599
  151SAPE  H11A16667   3.337   1.436   6.692
  151SAPE  H11B16668   3.223   1.539   6.592
  151SAPE     P16669   3.321   1.482   6.347
  151SAPE   O1316670   3.450   1.458   6.271
  151SAPE   O1416671   3.200   1.422   6.290
  151SAPE   O1216672   3.346   1.411   6.484
  151SAPE   O1116673   3.298   1.633   6.374
  151SAPE    C116674   3.397   1.739   6.360
  151SAPE    HA16675   3.426   1.759   6.255
  151SAPE    HB16676   3.349   1.835   6.388
  151SAPE    C216677   3.522   1.724   6.444
  151SAPE    HS16678   3.574   1.629   6.417
  151SAPE   O2116679   3.478   1.720   6.581
  151SAPE   C2116680   3.570   1.690   6.668
  151SAPE   O2216681   3.680   1.643   6.637
  151SAPE   C2216682   3.509   1.703   6.815
  151SAPE   H2R16683   3.485   1.810   6.831
  151SAPE   H2S16684   3.411   1.650   6.819
  151SAPE    C316685   3.628   1.836   6.411
  151SAPE    HX16686   3.637   1.828   6.301
  151SAPE    HY16687   3.731   1.825   6.452
  151SAPE   O3116688   3.582   1.972   6.448
  151SAPE   C3116689   3.602   2.005   6.577
  151SAPE   O3216690   3.679   1.947   6.654
  151SAPE   C3216691   3.519   2.132   6.609
  151SAPE   H2X16692   3.480   2.179   6.516
  151SAPE   H2Y16693   3.590   2.204   6.657
  151SAPE   C2316694   3.604   1.654   6.925
  151SAPE   H3R16695   3.709   1.690   6.921
  151SAPE   H3S16696   3.614   1.544   6.929
  151SAPE   C2416697   3.565   1.707   7.068
  151SAPE   H4R16698   3.547   1.817   7.068
  151SAPE   H4S16699   3.652   1.675   7.128
  151SAPE   C2516700   3.440   1.642   7.123
  151SAPE   H5R16701   3.345   1.680   7.082
  151SAPE   C2616702   3.431   1.555   7.221
  151SAPE   H6R16703   3.331   1.517   7.247
  151SAPE   C2716704   3.545   1.517   7.309
  151SAPE   H7R16705   3.604   1.605   7.342
  151SAPE   H7S16706   3.617   1.461   7.247
  151SAPE   C2816707   3.509   1.436   7.434
  151SAPE   H8R16708   3.539   1.331   7.425
  151SAPE   C2916709   3.456   1.475   7.554
  151SAPE   H9R16710   3.439   1.397   7.630
  151SAPE  C21016711   3.419   1.622   7.591
  151SAPE  H10R16712   3.309   1.631   7.601
  151SAPE  H10S16713   3.452   1.691   7.511
  151SAPE  C21116714   3.481   1.656   7.722
  151SAPE  H11R16715   3.591   1.658   7.726
  151SAPE  C21216716   3.438   1.704   7.839
  151SAPE  H12R16717   3.508   1.740   7.916
  151SAPE  C21316718   3.295   1.722   7.876
  151SAPE  H13R16719   3.225   1.672   7.805
  151SAPE  H13S16720   3.261   1.828   7.881
  151SAPE  C21416721   3.257   1.661   8.009
  151SAPE  H14R16722   3.239   1.553   8.003
  151SAPE  C21516723   3.226   1.729   8.114
  151SAPE  H15R16724   3.200   1.673   8.205
  151SAPE  C21616725   3.223   1.880   8.136
  151SAPE  H16R16726   3.120   1.905   8.170
  151SAPE  H16S16727   3.248   1.929   8.040
  151SAPE  C21716728   3.315   1.914   8.257
  151SAPE  H17R16729   3.421   1.915   8.224
  151SAPE  H17S16730   3.312   1.832   8.333
  151SAPE  C21816731   3.280   2.042   8.328
  151SAPE  H18R16732   3.248   2.132   8.271
  151SAPE  H18S16733   3.369   2.072   8.388
  151SAPE  C21916734   3.149   2.040   8.422
  151SAPE  H19R16735   3.074   1.970   8.381
  151SAPE  H19S16736   3.111   2.144   8.427
  151SAPE  C22016737   3.197   1.990   8.557
  151SAPE  H20R16738   3.298   2.029   8.583
  151SAPE  H20S16739   3.128   2.014   8.642
  151SAPE  H20T16740   3.218   1.881   8.553
  151SAPE   C3316741   3.398   2.102   6.706
  151SAPE   H3X16742   3.339   2.015   6.671
  151SAPE   H3Y16743   3.319   2.179   6.700
  151SAPE   C3416744   3.439   2.096   6.859
  151SAPE   H4X16745   3.474   2.197   6.890
  151SAPE   H4Y16746   3.518   2.019   6.864
  151SAPE   C3516747   3.316   2.059   6.941
  151SAPE   H5X16748   3.283   1.957   6.911
  151SAPE   H5Y16749   3.233   2.127   6.913
  151SAPE   C3616750   3.345   2.067   7.093
  151SAPE   H6X16751   3.374   2.169   7.127
  151SAPE   H6Y16752   3.420   1.988   7.119
  151SAPE   C3716753   3.225   2.016   7.174
  151SAPE   H7X16754   3.201   1.915   7.136
  151SAPE   H7Y16755   3.149   2.094   7.152
  151SAPE   C3816756   3.255   1.979   7.321
  151SAPE   H8X16757   3.342   1.911   7.313
  151SAPE   H8Y16758   3.165   1.929   7.363
  151SAPE   C3916759   3.299   2.094   7.410
  151SAPE   H9X16760   3.216   2.167   7.405
  151SAPE   H9Y16761   3.386   2.151   7.371
  151SAPE  C31016762   3.323   2.046   7.553
  151SAPE  H10X16763   3.400   1.966   7.561
  151SAPE  H10Y16764   3.229   1.995   7.583
  151SAPE  C31116765   3.353   2.153   7.659
  151SAPE  H11X16766   3.269   2.225   7.672
  151SAPE  H11Y16767   3.447   2.203   7.626
  151SAPE  C31216768   3.388   2.115   7.805
  151SAPE  H12X16769   3.458   2.028   7.804
  151SAPE  H12Y16770   3.301   2.070   7.856
  151SAPE  C31316771   3.446   2.219   7.894
  151SAPE  H13X16772   3.376   2.305   7.905
  151SAPE  H13Y16773   3.541   2.250   7.844
  151SAPE  C31416774   3.472   2.158   8.031
  151SAPE  H14X16775   3.548   2.078   8.018
  151SAPE  H14Y16776   3.377   2.110   8.062
  151SAPE  C31516777   3.525   2.252   8.139
  151SAPE  H15X16778   3.490   2.218   8.239
  151SAPE  H15Y16779   3.486   2.355   8.126
  151SAPE  C31616780   3.679   2.257   8.160
  151SAPE  H16X16781   3.711   2.152   8.147
  151SAPE  H16Y16782   3.703   2.304   8.258
  151SAPE  C31716783   3.761   2.333   8.056
  151SAPE  H17X16784   3.714   2.433   8.040
  151SAPE  H17Y16785   3.779   2.266   7.969
  151SAPE  C31816786   3.905   2.364   8.116
  151SAPE  H18X16787   3.969   2.397   8.032
  151SAPE  H18Y16788   3.961   2.276   8.155
  151SAPE  H18Z16789   3.895   2.454   8.180
  152SAPE     N16790   0.598   5.499   5.909
  152SAPE   HN116791   0.637   5.533   5.819
  152SAPE   HN216792   0.508   5.550   5.924
  152SAPE   HN316793   0.663   5.516   5.988
  152SAPE   C1216794   0.583   5.351   5.918
  152SAPE  H12A16795   0.570   5.314   5.814
  152SAPE  H12B16796   0.496   5.329   5.984
  152SAPE   C1116797   0.716   5.301   5.983
  152SAPE  H11A16798   0.806   5.349   5.942
  152SAPE  H11B16799   0.717   5.190   5.971
  152SAPE     P16800   0.788   5.434   6.205
  152SAPE   O1316801   0.915   5.379   6.249
  152SAPE   O1416802   0.792   5.562   6.127
  152SAPE   O1216803   0.716   5.315   6.122
  152SAPE   O1116804   0.688   5.456   6.324
  152SAPE    C116805   0.600   5.350   6.375
  152SAPE    HA16806   0.533   5.309   6.296
  152SAPE    HB16807   0.675   5.280   6.418
  152SAPE    C216808   0.507   5.395   6.493
  152SAPE    HS16809   0.434   5.472   6.458
  152SAPE   O2116810   0.585   5.427   6.613
  152SAPE   C2116811   0.533   5.512   6.697
  152SAPE   O2216812   0.430   5.577   6.679
  152SAPE   C2216813   0.621   5.534   6.816
  152SAPE   H2R16814   0.670   5.438   6.843
  152SAPE   H2S16815   0.700   5.603   6.780
  152SAPE    C316816   0.411   5.276   6.524
  152SAPE    HX16817   0.484   5.193   6.539
  152SAPE    HY16818   0.357   5.253   6.430
  152SAPE   O3116819   0.322   5.297   6.635
  152SAPE   C3116820   0.362   5.243   6.745
  152SAPE   O3216821   0.459   5.174   6.766
  152SAPE   C3216822   0.265   5.290   6.854
  152SAPE   H2X16823   0.179   5.221   6.868
  152SAPE   H2Y16824   0.227   5.392   6.833
  152SAPE   C2316825   0.549   5.611   6.929
  152SAPE   H3R16826   0.452   5.564   6.958
  152SAPE   H3S16827   0.529   5.713   6.890
  152SAPE   C2416828   0.645   5.631   7.049
  152SAPE   H4R16829   0.593   5.698   7.120
  152SAPE   H4S16830   0.732   5.683   7.005
  152SAPE   C2516831   0.678   5.503   7.110
  152SAPE   H5R16832   0.712   5.429   7.037
  152SAPE   C2616833   0.676   5.482   7.247
  152SAPE   H6R16834   0.719   5.383   7.270
  152SAPE   C2716835   0.656   5.591   7.358
  152SAPE   H7R16836   0.701   5.683   7.316
  152SAPE   H7S16837   0.718   5.567   7.447
  152SAPE   C2816838   0.517   5.602   7.406
  152SAPE   H8R16839   0.444   5.571   7.330
  152SAPE   C2916840   0.470   5.636   7.528
  152SAPE   H9R16841   0.369   5.600   7.551
  152SAPE  C21016842   0.559   5.670   7.645
  152SAPE  H10R16843   0.527   5.759   7.702
  152SAPE  H10S16844   0.658   5.706   7.608
  152SAPE  C21116845   0.594   5.553   7.736
  152SAPE  H11R16846   0.640   5.461   7.696
  152SAPE  C21216847   0.567   5.560   7.872
  152SAPE  H12R16848   0.573   5.466   7.927
  152SAPE  C21316849   0.495   5.669   7.938
  152SAPE  H13R16850   0.443   5.622   8.024
  152SAPE  H13S16851   0.405   5.694   7.878
  152SAPE  C21416852   0.583   5.788   7.977
  152SAPE  H14R16853   0.632   5.841   7.894
  152SAPE  C21516854   0.609   5.832   8.098
  152SAPE  H15R16855   0.665   5.925   8.114
  152SAPE  C21616856   0.541   5.784   8.223
  152SAPE  H16R16857   0.596   5.697   8.265
  152SAPE  H16S16858   0.437   5.752   8.198
  152SAPE  C21716859   0.529   5.893   8.327
  152SAPE  H17R16860   0.628   5.934   8.360
  152SAPE  H17S16861   0.485   5.844   8.417
  152SAPE  C21816862   0.444   6.021   8.282
  152SAPE  H18R16863   0.342   5.990   8.250
  152SAPE  H18S16864   0.494   6.068   8.195
  152SAPE  C21916865   0.430   6.114   8.397
  152SAPE  H19R16866   0.436   6.060   8.494
  152SAPE  H19S16867   0.329   6.161   8.396
  152SAPE  C22016868   0.538   6.220   8.404
  152SAPE  H20R16869   0.548   6.258   8.300
  152SAPE  H20S16870   0.632   6.176   8.444
  152SAPE  H20T16871   0.507   6.303   8.470
  152SAPE   C3316872   0.322   5.294   7.003
  152SAPE   H3X16873   0.393   5.379   7.006
  152SAPE   H3Y16874   0.373   5.197   7.022
  152SAPE   C3416875   0.213   5.323   7.111
  152SAPE   H4X16876   0.124   5.260   7.091
  152SAPE   H4Y16877   0.191   5.431   7.097
  152SAPE   C3516878   0.271   5.300   7.250
  152SAPE   H5X16879   0.366   5.357   7.249
  152SAPE   H5Y16880   0.277   5.190   7.257
  152SAPE   C3616881   0.177   5.353   7.361
  152SAPE   H6X16882   0.078   5.302   7.349
  152SAPE   H6Y16883   0.170   5.461   7.340
  152SAPE   C3716884   0.244   5.323   7.494
  152SAPE   H7X16885   0.351   5.343   7.514
  152SAPE   H7Y16886   0.239   5.212   7.501
  152SAPE   C3816887   0.171   5.376   7.619
  152SAPE   H8X16888   0.063   5.355   7.626
  152SAPE   H8Y16889   0.200   5.483   7.624
  152SAPE   C3916890   0.244   5.322   7.749
  152SAPE   H9X16891   0.352   5.344   7.739
  152SAPE   H9Y16892   0.226   5.213   7.754
  152SAPE  C31016893   0.191   5.392   7.875
  152SAPE  H10X16894   0.082   5.371   7.875
  152SAPE  H10Y16895   0.197   5.502   7.857
  152SAPE  C31116896   0.257   5.353   8.005
  152SAPE  H11X16897   0.259   5.447   8.065
  152SAPE  H11Y16898   0.358   5.312   7.983
  152SAPE  C31216899   0.184   5.243   8.073
  152SAPE  H12X16900   0.174   5.157   8.003
  152SAPE  H12Y16901   0.082   5.253   8.115
  152SAPE  C31316902   0.274   5.190   8.190
  152SAPE  H13X16903   0.364   5.154   8.135
  152SAPE  H13Y16904   0.230   5.098   8.234
  152SAPE  C31416905   0.324   5.292   8.295
  152SAPE  H14X16906   0.366   5.383   8.245
  152SAPE  H14Y16907   0.406   5.252   8.358
  152SAPE  C31516908   0.224   5.332   8.410
  152SAPE  H15X16909   0.220   5.245   8.480
  152SAPE  H15Y16910   0.121   5.353   8.373
  152SAPE  C31616911   0.250   5.444   8.501
  152SAPE  H16X16912   0.212   5.536   8.453
  152SAPE  H16Y16913   0.360   5.456   8.509
  152SAPE  C31716914   0.176   5.439   8.638
  152SAPE  H17X16915   0.185   5.338   8.683
  152SAPE  H17Y16916   0.071   5.461   8.612
  152SAPE  C31816917   0.234   5.550   8.732
  152SAPE  H18X16918   0.297   5.622   8.674
  152SAPE  H18Y16919   0.313   5.519   8.803
  152SAPE  H18Z16920   0.157   5.602   8.793
  153SAPE     N16921   4.110   5.344   6.289
  153SAPE   HN116922   4.140   5.378   6.196
  153SAPE   HN216923   4.162   5.403   6.357
  153SAPE   HN316924   4.154   5.250   6.298
  153SAPE   C1216925   3.962   5.350   6.314
  153SAPE  H12A16926   3.946   5.357   6.424
  153SAPE  H12B16927   3.917   5.257   6.273
  153SAPE   C1116928   3.911   5.466   6.228
  153SAPE  H11A16929   3.805   5.474   6.261
  153SAPE  H11B16930   3.915   5.452   6.118
  153SAPE     P16931   3.959   5.663   6.392
  153SAPE   O1316932   4.047   5.590   6.493
  153SAPE   O1416933   3.985   5.812   6.374
  153SAPE   O1216934   3.975   5.590   6.253
  153SAPE   O1116935   3.802   5.646   6.415
  153SAPE    C116936   3.722   5.759   6.461
  153SAPE    HA16937   3.763   5.857   6.430
  153SAPE    HB16938   3.618   5.754   6.420
  153SAPE    C216939   3.704   5.769   6.620
  153SAPE    HS16940   3.633   5.855   6.622
  153SAPE   O2116941   3.829   5.799   6.682
  153SAPE   C2116942   3.864   5.925   6.680
  153SAPE   O2216943   3.808   6.016   6.626
  153SAPE   C2216944   4.003   5.940   6.747
  153SAPE   H2R16945   3.995   5.900   6.851
  153SAPE   H2S16946   4.066   5.869   6.690
  153SAPE    C316947   3.631   5.638   6.684
  153SAPE    HX16948   3.715   5.565   6.685
  153SAPE    HY16949   3.547   5.604   6.620
  153SAPE   O3116950   3.591   5.661   6.823
  153SAPE   C3116951   3.484   5.745   6.827
  153SAPE   O3216952   3.434   5.790   6.727
  153SAPE   C3216953   3.446   5.787   6.965
  153SAPE   H2X16954   3.447   5.699   7.031
  153SAPE   H2Y16955   3.343   5.828   6.970
  153SAPE   C2316956   4.048   6.088   6.740
  153SAPE   H3R16957   3.979   6.165   6.783
  153SAPE   H3S16958   4.086   6.122   6.642
  153SAPE   C2416959   4.172   6.103   6.829
  153SAPE   H4R16960   4.135   6.064   6.927
  153SAPE   H4S16961   4.195   6.209   6.849
  153SAPE   C2516962   4.290   6.029   6.779
  153SAPE   H5R16963   4.301   6.032   6.669
  153SAPE   C2616964   4.375   5.959   6.859
  153SAPE   H6R16965   4.453   5.898   6.811
  153SAPE   C2716966   4.359   5.958   7.008
  153SAPE   H7R16967   4.421   5.871   7.038
  153SAPE   H7S16968   4.260   5.915   7.036
  153SAPE   C2816969   4.378   6.086   7.087
  153SAPE   H8R16970   4.436   6.165   7.037
  153SAPE   C2916971   4.344   6.096   7.215
  153SAPE   H9R16972   4.358   6.190   7.270
  153SAPE  C21016973   4.278   5.993   7.300
  153SAPE  H10R16974   4.350   5.958   7.378
  153SAPE  H10S16975   4.258   5.897   7.248
  153SAPE  C21116976   4.142   6.027   7.362
  153SAPE  H11R16977   4.055   6.027   7.296
  153SAPE  C21216978   4.118   6.051   7.495
  153SAPE  H12R16979   4.021   6.098   7.512
  153SAPE  C21316980   4.216   6.053   7.610
  153SAPE  H13R16981   4.173   6.105   7.698
  153SAPE  H13S16982   4.295   6.115   7.563
  153SAPE  C21416983   4.273   5.926   7.659
  153SAPE  H14R16984   4.279   5.847   7.583
  153SAPE  C21516985   4.295   5.888   7.788
  153SAPE  H15R16986   4.321   5.786   7.820
  153SAPE  C21616987   4.287   5.986   7.904
  153SAPE  H16R16988   4.243   6.085   7.876
  153SAPE  H16S16989   4.388   6.012   7.942
  153SAPE  C21716990   4.204   5.935   8.025
  153SAPE  H17R16991   4.107   5.890   7.993
  153SAPE  H17S16992   4.190   6.020   8.096
  153SAPE  C21816993   4.282   5.826   8.107
  153SAPE  H18R16994   4.391   5.849   8.098
  153SAPE  H18S16995   4.257   5.725   8.067
  153SAPE  C21916996   4.249   5.818   8.257
  153SAPE  H19R16997   4.167   5.743   8.265
  153SAPE  H19S16998   4.210   5.910   8.305
  153SAPE  C22016999   4.365   5.761   8.341
  153SAPE  H20R17000   4.323   5.755   8.443
  153SAPE  H20S17001   4.457   5.823   8.342
  153SAPE  H20T17002   4.393   5.660   8.304
  153SAPE   C3317003   3.550   5.888   7.027
  153SAPE   H3X17004   3.503   5.942   7.112
  153SAPE   H3Y17005   3.568   5.961   6.945
  153SAPE   C3417006   3.694   5.833   7.047
  153SAPE   H4X17007   3.725   5.790   6.949
  153SAPE   H4Y17008   3.697   5.774   7.141
  153SAPE   C3517009   3.810   5.937   7.058
  153SAPE   H5X17010   3.817   5.994   6.963
  153SAPE   H5Y17011   3.903   5.878   7.070
  153SAPE   C3617012   3.787   6.046   7.162
  153SAPE   H6X17013   3.705   6.115   7.133
  153SAPE   H6Y17014   3.879   6.109   7.169
  153SAPE   C3717015   3.761   5.989   7.306
  153SAPE   H7X17016   3.848   5.929   7.340
  153SAPE   H7Y17017   3.670   5.926   7.300
  153SAPE   C3817018   3.747   6.096   7.419
  153SAPE   H8X17019   3.654   6.152   7.393
  153SAPE   H8Y17020   3.837   6.160   7.408
  153SAPE   C3917021   3.734   6.048   7.567
  153SAPE   H9X17022   3.783   5.949   7.574
  153SAPE   H9Y17023   3.626   6.035   7.586
  153SAPE  C31017024   3.782   6.148   7.676
  153SAPE  H10X17025   3.749   6.251   7.648
  153SAPE  H10Y17026   3.892   6.142   7.663
  153SAPE  C31117027   3.743   6.110   7.820
  153SAPE  H11X17028   3.636   6.132   7.842
  153SAPE  H11Y17029   3.805   6.175   7.886
  153SAPE  C31217030   3.750   5.968   7.863
  153SAPE  H12X17031   3.851   5.924   7.849
  153SAPE  H12Y17032   3.669   5.912   7.813
  153SAPE  C31317033   3.716   5.951   8.016
  153SAPE  H13X17034   3.612   5.987   8.030
  153SAPE  H13Y17035   3.778   6.026   8.070
  153SAPE  C31417036   3.722   5.804   8.073
  153SAPE  H14X17037   3.826   5.766   8.077
  153SAPE  H14Y17038   3.660   5.737   8.010
  153SAPE  C31517039   3.648   5.801   8.211
  153SAPE  H15X17040   3.540   5.821   8.195
  153SAPE  H15Y17041   3.689   5.887   8.268
  153SAPE  C31617042   3.669   5.670   8.286
  153SAPE  H16X17043   3.697   5.591   8.212
  153SAPE  H16Y17044   3.575   5.632   8.332
  153SAPE  C31717045   3.772   5.675   8.399
  153SAPE  H17X17046   3.755   5.759   8.469
  153SAPE  H17Y17047   3.858   5.704   8.335
  153SAPE  C31817048   3.780   5.550   8.488
  153SAPE  H18X17049   3.689   5.525   8.545
  153SAPE  H18Y17050   3.849   5.569   8.573
  153SAPE  H18Z17051   3.811   5.463   8.426
  154SAPE     N17052   2.374   4.667   6.296
  154SAPE   HN117053   2.356   4.760   6.253
  154SAPE   HN217054   2.320   4.642   6.381
  154SAPE   HN317055   2.471   4.674   6.333
  154SAPE   C1217056   2.363   4.553   6.201
  154SAPE  H12A17057   2.384   4.463   6.263
  154SAPE  H12B17058   2.426   4.583   6.115
  154SAPE   C1117059   2.215   4.542   6.176
  154SAPE  H11A17060   2.156   4.521   6.268
  154SAPE  H11B17061   2.202   4.455   6.108
  154SAPE     P17062   2.024   4.719   6.132
  154SAPE   O1317063   2.012   4.840   6.054
  154SAPE   O1417064   1.919   4.623   6.106
  154SAPE   O1217065   2.159   4.650   6.105
  154SAPE   O1117066   2.041   4.755   6.288
  154SAPE    C117067   1.974   4.879   6.329
  154SAPE    HA17068   2.048   4.961   6.331
  154SAPE    HB17069   1.882   4.899   6.270
  154SAPE    C217070   1.919   4.863   6.470
  154SAPE    HS17071   1.859   4.953   6.493
  154SAPE   O2117072   2.016   4.845   6.578
  154SAPE   C2117073   2.080   4.947   6.616
  154SAPE   O2217074   2.052   5.061   6.580
  154SAPE   C2217075   2.197   4.910   6.704
  154SAPE   H2R17076   2.180   4.807   6.744
  154SAPE   H2S17077   2.290   4.917   6.645
  154SAPE    C317078   1.813   4.746   6.461
  154SAPE    HX17079   1.869   4.650   6.459
  154SAPE    HY17080   1.763   4.755   6.362
  154SAPE   O3117081   1.722   4.756   6.576
  154SAPE   C3117082   1.588   4.751   6.554
  154SAPE   O3217083   1.533   4.720   6.451
  154SAPE   C3217084   1.530   4.774   6.696
  154SAPE   H2X17085   1.549   4.881   6.717
  154SAPE   H2Y17086   1.597   4.731   6.773
  154SAPE   C2317087   2.210   5.015   6.826
  154SAPE   H3R17088   2.188   5.118   6.790
  154SAPE   H3S17089   2.316   5.002   6.860
  154SAPE   C2417090   2.119   4.983   6.941
  154SAPE   H4R17091   2.142   4.884   6.985
  154SAPE   H4S17092   2.014   4.979   6.904
  154SAPE   C2517093   2.147   5.091   7.041
  154SAPE   H5R17094   2.125   5.193   7.005
  154SAPE   C2617095   2.185   5.082   7.169
  154SAPE   H6R17096   2.214   5.172   7.225
  154SAPE   C2717097   2.216   4.955   7.251
  154SAPE   H7R17098   2.293   4.977   7.328
  154SAPE   H7S17099   2.259   4.877   7.184
  154SAPE   C2817100   2.094   4.891   7.315
  154SAPE   H8R17101   2.026   4.836   7.248
  154SAPE   C2917102   2.063   4.887   7.448
  154SAPE   H9R17103   1.972   4.832   7.477
  154SAPE  C21017104   2.144   4.946   7.565
  154SAPE  H10R17105   2.250   4.935   7.533
  154SAPE  H10S17106   2.120   4.883   7.653
  154SAPE  C21117107   2.114   5.089   7.597
  154SAPE  H11R17108   2.080   5.150   7.512
  154SAPE  C21217109   2.129   5.154   7.708
  154SAPE  H12R17110   2.086   5.255   7.714
  154SAPE  C21317111   2.174   5.095   7.839
  154SAPE  H13R17112   2.228   5.176   7.892
  154SAPE  H13S17113   2.237   5.005   7.823
  154SAPE  C21417114   2.052   5.052   7.913
  154SAPE  H14R17115   1.963   5.014   7.860
  154SAPE  C21517116   2.039   5.061   8.046
  154SAPE  H15R17117   1.947   5.040   8.102
  154SAPE  C21617118   2.141   5.112   8.143
  154SAPE  H16R17119   2.242   5.131   8.101
  154SAPE  H16S17120   2.149   5.039   8.226
  154SAPE  C21717121   2.088   5.240   8.224
  154SAPE  H17R17122   2.148   5.256   8.316
  154SAPE  H17S17123   1.980   5.228   8.251
  154SAPE  C21817124   2.092   5.373   8.146
  154SAPE  H18R17125   2.008   5.357   8.076
  154SAPE  H18S17126   2.189   5.376   8.092
  154SAPE  C21917127   2.049   5.488   8.237
  154SAPE  H19R17128   2.108   5.493   8.331
  154SAPE  H19S17129   1.948   5.471   8.279
  154SAPE  C22017130   2.075   5.628   8.186
  154SAPE  H20R17131   2.029   5.657   8.089
  154SAPE  H20S17132   2.183   5.642   8.165
  154SAPE  H20T17133   2.035   5.698   8.262
  154SAPE   C3317134   1.381   4.732   6.716
  154SAPE   H3X17135   1.372   4.623   6.699
  154SAPE   H3Y17136   1.317   4.776   6.637
  154SAPE   C3417137   1.336   4.775   6.856
  154SAPE   H4X17138   1.320   4.884   6.868
  154SAPE   H4Y17139   1.406   4.743   6.936
  154SAPE   C3517140   1.205   4.707   6.883
  154SAPE   H5X17141   1.216   4.600   6.911
  154SAPE   H5Y17142   1.141   4.705   6.792
  154SAPE   C3617143   1.121   4.761   7.004
  154SAPE   H6X17144   1.028   4.701   7.016
  154SAPE   H6Y17145   1.084   4.861   6.973
  154SAPE   C3717146   1.203   4.758   7.133
  154SAPE   H7X17147   1.281   4.837   7.124
  154SAPE   H7Y17148   1.254   4.661   7.148
  154SAPE   C3817149   1.112   4.789   7.256
  154SAPE   H8X17150   1.039   4.706   7.267
  154SAPE   H8Y17151   1.054   4.880   7.230
  154SAPE   C3917152   1.187   4.802   7.386
  154SAPE   H9X17153   1.254   4.890   7.380
  154SAPE   H9Y17154   1.247   4.709   7.397
  154SAPE  C31017155   1.087   4.807   7.501
  154SAPE  H10X17156   1.055   4.701   7.512
  154SAPE  H10Y17157   0.997   4.865   7.471
  154SAPE  C31117158   1.151   4.853   7.631
  154SAPE  H11X17159   1.158   4.964   7.637
  154SAPE  H11Y17160   1.243   4.796   7.655
  154SAPE  C31217161   1.066   4.820   7.748
  154SAPE  H12X17162   1.009   4.726   7.733
  154SAPE  H12Y17163   0.986   4.895   7.767
  154SAPE  C31317164   1.142   4.801   7.878
  154SAPE  H13X17165   1.217   4.881   7.895
  154SAPE  H13Y17166   1.208   4.713   7.862
  154SAPE  C31417167   1.057   4.775   8.003
  154SAPE  H14X17168   0.969   4.709   7.983
  154SAPE  H14Y17169   1.001   4.868   8.026
  154SAPE  C31517170   1.146   4.725   8.114
  154SAPE  H15X17171   1.214   4.808   8.141
  154SAPE  H15Y17172   1.202   4.632   8.088
  154SAPE  C31617173   1.074   4.672   8.239
  154SAPE  H16X17174   0.993   4.741   8.274
  154SAPE  H16Y17175   1.150   4.659   8.319
  154SAPE  C31717176   0.994   4.543   8.217
  154SAPE  H17X17177   1.056   4.452   8.204
  154SAPE  H17Y17178   0.919   4.547   8.135
  154SAPE  C31817179   0.909   4.505   8.336
  154SAPE  H18X17180   0.848   4.592   8.368
  154SAPE  H18Y17181   0.971   4.476   8.423
  154SAPE  H18Z17182   0.847   4.415   8.317
  155SAPE     N17183   1.674   5.652   6.347
  155SAPE   HN117184   1.692   5.551   6.334
  155SAPE   HN217185   1.573   5.672   6.330
  155SAPE   HN317186   1.726   5.703   6.273
  155SAPE   C1217187   1.709   5.711   6.475
  155SAPE  H12A17188   1.652   5.663   6.557
  155SAPE  H12B17189   1.685   5.819   6.469
  155SAPE   C1117190   1.860   5.700   6.512
  155SAPE  H11A17191   1.872   5.590   6.501
  155SAPE  H11B17192   1.872   5.719   6.621
  155SAPE     P17193   1.951   5.936   6.463
  155SAPE   O1317194   2.063   5.997   6.390
  155SAPE   O1417195   1.821   6.009   6.445
  155SAPE   O1217196   1.939   5.782   6.422
  155SAPE   O1117197   1.986   5.926   6.616
  155SAPE    C117198   2.111   5.959   6.663
  155SAPE    HA17199   2.187   5.881   6.641
  155SAPE    HB17200   2.151   6.057   6.630
  155SAPE    C217201   2.112   5.962   6.820
  155SAPE    HS17202   2.220   5.946   6.841
  155SAPE   O2117203   2.040   5.855   6.866
  155SAPE   C2117204   2.085   5.733   6.845
  155SAPE   O2217205   2.195   5.696   6.807
  155SAPE   C2217206   1.970   5.635   6.898
  155SAPE   H2R17207   1.937   5.679   6.995
  155SAPE   H2S17208   1.888   5.636   6.824
  155SAPE    C317209   2.052   6.095   6.880
  155SAPE    HX17210   1.953   6.114   6.833
  155SAPE    HY17211   2.118   6.175   6.839
  155SAPE   O3117212   2.055   6.094   7.018
  155SAPE   C3117213   1.943   6.059   7.084
  155SAPE   O3217214   1.833   6.040   7.037
  155SAPE   C3217215   1.981   6.049   7.233
  155SAPE   H2X17216   2.038   6.142   7.255
  155SAPE   H2Y17217   2.050   5.962   7.227
  155SAPE   C2317218   2.019   5.486   6.920
  155SAPE   H3R17219   2.072   5.460   6.826
  155SAPE   H3S17220   1.941   5.408   6.933
  155SAPE   C2417221   2.116   5.470   7.041
  155SAPE   H4R17222   2.170   5.564   7.066
  155SAPE   H4S17223   2.192   5.402   6.998
  155SAPE   C2517224   2.039   5.421   7.165
  155SAPE   H5R17225   2.006   5.316   7.162
  155SAPE   C2617226   2.015   5.493   7.273
  155SAPE   H6R17227   1.946   5.452   7.348
  155SAPE   C2717228   2.035   5.641   7.294
  155SAPE   H7R17229   1.959   5.685   7.362
  155SAPE   H7S17230   2.020   5.689   7.195
  155SAPE   C2817231   2.174   5.671   7.357
  155SAPE   H8R17232   2.249   5.682   7.277
  155SAPE   C2917233   2.217   5.682   7.484
  155SAPE   H9R17234   2.325   5.694   7.500
  155SAPE  C21017235   2.129   5.680   7.606
  155SAPE  H10R17236   2.022   5.657   7.589
  155SAPE  H10S17237   2.131   5.785   7.643
  155SAPE  C21117238   2.176   5.568   7.702
  155SAPE  H11R17239   2.156   5.463   7.675
  155SAPE  C21217240   2.240   5.588   7.819
  155SAPE  H12R17241   2.275   5.496   7.869
  155SAPE  C21317242   2.290   5.728   7.851
  155SAPE  H13R17243   2.212   5.762   7.923
  155SAPE  H13S17244   2.291   5.803   7.769
  155SAPE  C21417245   2.426   5.731   7.908
  155SAPE  H14R17246   2.505   5.661   7.879
  155SAPE  C21517247   2.472   5.829   7.990
  155SAPE  H15R17248   2.581   5.827   8.005
  155SAPE  C21617249   2.407   5.951   8.053
  155SAPE  H16R17250   2.321   5.976   7.986
  155SAPE  H16S17251   2.472   6.040   8.036
  155SAPE  C21717252   2.375   5.943   8.202
  155SAPE  H17R17253   2.461   5.899   8.256
  155SAPE  H17S17254   2.300   5.863   8.223
  155SAPE  C21817255   2.338   6.081   8.256
  155SAPE  H18R17256   2.258   6.120   8.190
  155SAPE  H18S17257   2.422   6.153   8.254
  155SAPE  C21917258   2.268   6.090   8.393
  155SAPE  H19R17259   2.171   6.041   8.371
  155SAPE  H19S17260   2.239   6.192   8.427
  155SAPE  C22017261   2.326   6.016   8.506
  155SAPE  H20R17262   2.429   6.050   8.532
  155SAPE  H20S17263   2.350   5.912   8.474
  155SAPE  H20T17264   2.261   6.015   8.595
  155SAPE   C3317265   1.862   6.023   7.335
  155SAPE   H3X17266   1.808   5.928   7.313
  155SAPE   H3Y17267   1.803   6.116   7.320
  155SAPE   C3417268   1.897   6.022   7.480
  155SAPE   H4X17269   1.970   5.939   7.496
  155SAPE   H4Y17270   1.809   5.995   7.542
  155SAPE   C3517271   1.945   6.155   7.533
  155SAPE   H5X17272   1.876   6.235   7.500
  155SAPE   H5Y17273   2.045   6.178   7.491
  155SAPE   C3617274   1.949   6.155   7.684
  155SAPE   H6X17275   1.854   6.151   7.742
  155SAPE   H6Y17276   2.005   6.245   7.718
  155SAPE   C3717277   2.036   6.043   7.750
  155SAPE   H7X17278   2.135   6.034   7.701
  155SAPE   H7Y17279   1.980   5.950   7.725
  155SAPE   C3817280   2.045   6.046   7.903
  155SAPE   H8X17281   2.103   6.135   7.938
  155SAPE   H8Y17282   2.105   5.956   7.928
  155SAPE   C3917283   1.921   6.028   7.985
  155SAPE   H9X17284   1.866   5.938   7.950
  155SAPE   H9Y17285   1.862   6.122   7.981
  155SAPE  C31017286   1.949   6.012   8.127
  155SAPE  H10X17287   2.013   6.100   8.153
  155SAPE  H10Y17288   2.007   5.917   8.138
  155SAPE  C31117289   1.822   6.011   8.211
  155SAPE  H11X17290   1.765   5.916   8.199
  155SAPE  H11Y17291   1.764   6.101   8.183
  155SAPE  C31217292   1.848   6.030   8.362
  155SAPE  H12X17293   1.752   6.041   8.418
  155SAPE  H12Y17294   1.903   6.125   8.376
  155SAPE  C31317295   1.924   5.903   8.419
  155SAPE  H13X17296   2.022   5.881   8.370
  155SAPE  H13Y17297   1.855   5.817   8.408
  155SAPE  C31417298   1.942   5.917   8.567
  155SAPE  H14X17299   1.862   5.974   8.617
  155SAPE  H14Y17300   2.034   5.976   8.584
  155SAPE  C31517301   1.971   5.787   8.641
  155SAPE  H15X17302   1.879   5.725   8.642
  155SAPE  H15Y17303   2.000   5.801   8.747
  155SAPE  C31617304   2.087   5.712   8.577
  155SAPE  H16X17305   2.179   5.769   8.553
  155SAPE  H16Y17306   2.051   5.689   8.475
  155SAPE  C31717307   2.134   5.586   8.649
  155SAPE  H17X17308   2.189   5.607   8.743
  155SAPE  H17Y17309   2.206   5.554   8.571
  155SAPE  C31817310   2.037   5.476   8.688
  155SAPE  H18X17311   2.082   5.376   8.706
  155SAPE  H18Y17312   1.963   5.458   8.607
  155SAPE  H18Z17313   1.981   5.500   8.781
  156SAPE     N17314   6.644   0.181   6.118
  156SAPE   HN117315   6.622   0.274   6.159
  156SAPE   HN217316   6.743   0.152   6.132
  156SAPE   HN317317   6.615   0.183   6.018
  156SAPE   C1217318   6.552   0.076   6.179
  156SAPE  H12A17319   6.583  -0.026   6.147
  156SAPE  H12B17320   6.450   0.099   6.142
  156SAPE   C1117321   6.553   0.088   6.336
  156SAPE  H11A17322   6.481   0.020   6.387
  156SAPE  H11B17323   6.518   0.188   6.369
  156SAPE     P17324   6.745  -0.064   6.420
  156SAPE   O1317325   6.786  -0.123   6.294
  156SAPE   O1417326   6.845  -0.040   6.523
  156SAPE   O1217327   6.684   0.077   6.394
  156SAPE   O1117328   6.628  -0.153   6.477
  156SAPE    C117329   6.563  -0.113   6.604
  156SAPE    HA17330   6.552  -0.004   6.623
  156SAPE    HB17331   6.459  -0.143   6.580
  156SAPE    C217332   6.606  -0.199   6.726
  156SAPE    HS17333   6.525  -0.209   6.802
  156SAPE   O2117334   6.720  -0.147   6.795
  156SAPE   C2117335   6.699  -0.038   6.868
  156SAPE   O2217336   6.597   0.016   6.892
  156SAPE   C2217337   6.836   0.006   6.923
  156SAPE   H2R17338   6.912   0.016   6.842
  156SAPE   H2S17339   6.805   0.109   6.951
  156SAPE    C317340   6.645  -0.341   6.680
  156SAPE    HX17341   6.734  -0.327   6.615
  156SAPE    HY17342   6.558  -0.373   6.620
  156SAPE   O3117343   6.655  -0.421   6.796
  156SAPE   C3117344   6.751  -0.511   6.797
  156SAPE   O3217345   6.850  -0.515   6.728
  156SAPE   C3217346   6.710  -0.616   6.902
  156SAPE   H2X17347   6.785  -0.697   6.910
  156SAPE   H2Y17348   6.619  -0.671   6.870
  156SAPE   C2317349   6.883  -0.075   7.050
  156SAPE   H3R17350   6.982  -0.043   7.089
  156SAPE   H3S17351   6.889  -0.182   7.021
  156SAPE   C2417352   6.787  -0.079   7.171
  156SAPE   H4R17353   6.836  -0.148   7.244
  156SAPE   H4S17354   6.695  -0.133   7.140
  156SAPE   C2517355   6.741   0.065   7.223
  156SAPE   H5R17356   6.691   0.138   7.157
  156SAPE   C2617357   6.759   0.108   7.347
  156SAPE   H6R17358   6.730   0.212   7.368
  156SAPE   C2717359   6.826   0.033   7.463
  156SAPE   H7R17360   6.889  -0.044   7.413
  156SAPE   H7S17361   6.749  -0.036   7.502
  156SAPE   C2817362   6.907   0.105   7.566
  156SAPE   H8R17363   6.978   0.183   7.536
  156SAPE   C2917364   6.918   0.070   7.697
  156SAPE   H9R17365   6.984   0.134   7.758
  156SAPE  C21017366   6.843  -0.039   7.769
  156SAPE  H10R17367   6.793  -0.112   7.702
  156SAPE  H10S17368   6.759   0.017   7.815
  156SAPE  C21117369   6.932  -0.110   7.873
  156SAPE  H11R17370   7.020  -0.163   7.834
  156SAPE  C21217371   6.917  -0.108   8.007
  156SAPE  H12R17372   6.980  -0.185   8.054
  156SAPE  C21317373   6.812  -0.030   8.082
  156SAPE  H13R17374   6.810   0.078   8.056
  156SAPE  H13S17375   6.839  -0.034   8.189
  156SAPE  C21417376   6.669  -0.068   8.060
  156SAPE  H14R17377   6.653  -0.125   7.967
  156SAPE  C21517378   6.553  -0.026   8.127
  156SAPE  H15R17379   6.455  -0.050   8.084
  156SAPE  C21617380   6.545   0.068   8.240
  156SAPE  H16R17381   6.449   0.125   8.234
  156SAPE  H16S17382   6.634   0.133   8.254
  156SAPE  C21717383   6.549  -0.008   8.371
  156SAPE  H17R17384   6.538   0.070   8.449
  156SAPE  H17S17385   6.645  -0.055   8.402
  156SAPE  C21817386   6.446  -0.115   8.389
  156SAPE  H18R17387   6.448  -0.164   8.489
  156SAPE  H18S17388   6.487  -0.193   8.322
  156SAPE  C21917389   6.298  -0.085   8.355
  156SAPE  H19R17390   6.287  -0.135   8.257
  156SAPE  H19S17391   6.298   0.025   8.339
  156SAPE  C22017392   6.191  -0.140   8.447
  156SAPE  H20R17393   6.091  -0.111   8.407
  156SAPE  H20S17394   6.194  -0.104   8.552
  156SAPE  H20T17395   6.200  -0.250   8.460
  156SAPE   C3317396   6.672  -0.562   7.042
  156SAPE   H3X17397   6.622  -0.647   7.093
  156SAPE   H3Y17398   6.608  -0.472   7.031
  156SAPE   C3417399   6.788  -0.525   7.139
  156SAPE   H4X17400   6.842  -0.432   7.109
  156SAPE   H4Y17401   6.866  -0.604   7.146
  156SAPE   C3517402   6.737  -0.506   7.286
  156SAPE   H5X17403   6.695  -0.606   7.310
  156SAPE   H5Y17404   6.657  -0.428   7.283
  156SAPE   C3617405   6.845  -0.451   7.384
  156SAPE   H6X17406   6.902  -0.377   7.324
  156SAPE   H6Y17407   6.910  -0.540   7.401
  156SAPE   C3717408   6.786  -0.389   7.514
  156SAPE   H7X17409   6.685  -0.433   7.524
  156SAPE   H7Y17410   6.768  -0.283   7.487
  156SAPE   C3817411   6.863  -0.414   7.643
  156SAPE   H8X17412   6.955  -0.353   7.655
  156SAPE   H8Y17413   6.902  -0.518   7.652
  156SAPE   C3917414   6.787  -0.388   7.768
  156SAPE   H9X17415   6.729  -0.293   7.773
  156SAPE   H9Y17416   6.856  -0.389   7.854
  156SAPE  C31017417   6.691  -0.495   7.822
  156SAPE  H10X17418   6.743  -0.592   7.835
  156SAPE  H10Y17419   6.613  -0.519   7.746
  156SAPE  C31117420   6.619  -0.461   7.955
  156SAPE  H11X17421   6.553  -0.381   7.917
  156SAPE  H11Y17422   6.689  -0.427   8.034
  156SAPE  C31217423   6.538  -0.579   8.000
  156SAPE  H12X17424   6.593  -0.637   8.077
  156SAPE  H12Y17425   6.495  -0.645   7.922
  156SAPE  C31317426   6.421  -0.539   8.094
  156SAPE  H13X17427   6.359  -0.456   8.056
  156SAPE  H13Y17428   6.474  -0.499   8.184
  156SAPE  C31417429   6.323  -0.645   8.135
  156SAPE  H14X17430   6.264  -0.676   8.046
  156SAPE  H14Y17431   6.246  -0.604   8.204
  156SAPE  C31517432   6.384  -0.779   8.185
  156SAPE  H15X17433   6.456  -0.774   8.269
  156SAPE  H15Y17434   6.443  -0.825   8.103
  156SAPE  C31617435   6.274  -0.883   8.208
  156SAPE  H16X17436   6.204  -0.896   8.122
  156SAPE  H16Y17437   6.218  -0.847   8.296
  156SAPE  C31717438   6.321  -1.020   8.252
  156SAPE  H17X17439   6.411  -1.023   8.317
  156SAPE  H17Y17440   6.340  -1.088   8.166
  156SAPE  C31817441   6.208  -1.088   8.323
  156SAPE  H18X17442   6.183  -1.039   8.419
  156SAPE  H18Y17443   6.235  -1.194   8.345
  156SAPE  H18Z17444   6.117  -1.085   8.259
  157SAPE     N17445   3.640   1.247   6.247
  157SAPE   HN117446   3.708   1.214   6.175
  157SAPE   HN217447   3.566   1.174   6.259
  157SAPE   HN317448   3.592   1.330   6.206
  157SAPE   C1217449   3.719   1.296   6.368
  157SAPE  H12A17450   3.793   1.217   6.392
  157SAPE  H12B17451   3.645   1.299   6.451
  157SAPE   C1117452   3.794   1.423   6.338
  157SAPE  H11A17453   3.846   1.475   6.421
  157SAPE  H11B17454   3.724   1.500   6.298
  157SAPE     P17455   4.041   1.366   6.256
  157SAPE   O1317456   4.058   1.221   6.253
  157SAPE   O1417457   4.114   1.450   6.161
  157SAPE   O1217458   3.894   1.393   6.238
  157SAPE   O1117459   4.073   1.407   6.409
  157SAPE    C117460   4.184   1.478   6.447
  157SAPE    HA17461   4.274   1.415   6.432
  157SAPE    HB17462   4.181   1.574   6.393
  157SAPE    C217463   4.179   1.513   6.607
  157SAPE    HS17464   4.270   1.573   6.629
  157SAPE   O2117465   4.184   1.390   6.688
  157SAPE   C2117466   4.294   1.320   6.696
  157SAPE   O2217467   4.398   1.342   6.631
  157SAPE   C2217468   4.284   1.226   6.815
  157SAPE   H2R17469   4.177   1.204   6.836
  157SAPE   H2S17470   4.344   1.138   6.782
  157SAPE    C317471   4.050   1.596   6.650
  157SAPE    HX17472   3.973   1.523   6.614
  157SAPE    HY17473   4.044   1.685   6.584
  157SAPE   O3117474   4.045   1.622   6.790
  157SAPE   C3117475   4.122   1.722   6.834
  157SAPE   O3217476   4.196   1.793   6.773
  157SAPE   C3217477   4.097   1.744   6.988
  157SAPE   H2X17478   4.015   1.819   6.977
  157SAPE   H2Y17479   4.187   1.799   7.024
  157SAPE   C2317480   4.377   1.277   6.936
  157SAPE   H3R17481   4.336   1.376   6.966
  157SAPE   H3S17482   4.480   1.288   6.896
  157SAPE   C2417483   4.380   1.178   7.054
  157SAPE   H4R17484   4.476   1.184   7.110
  157SAPE   H4S17485   4.382   1.079   7.004
  157SAPE   C2517486   4.260   1.192   7.139
  157SAPE   H5R17487   4.179   1.253   7.095
  157SAPE   C2617488   4.251   1.158   7.271
  157SAPE   H6R17489   4.153   1.156   7.322
  157SAPE   C2717490   4.357   1.095   7.359
  157SAPE   H7R17491   4.437   1.167   7.388
  157SAPE   H7S17492   4.404   1.016   7.295
  157SAPE   C2817493   4.309   1.024   7.485
  157SAPE   H8R17494   4.280   0.919   7.473
  157SAPE   C2917495   4.281   1.085   7.602
  157SAPE   H9R17496   4.246   1.016   7.680
  157SAPE  C21017497   4.290   1.231   7.636
  157SAPE  H10R17498   4.183   1.260   7.647
  157SAPE  H10S17499   4.334   1.292   7.554
  157SAPE  C21117500   4.368   1.256   7.761
  157SAPE  H11R17501   4.450   1.328   7.747
  157SAPE  C21217502   4.344   1.230   7.890
  157SAPE  H12R17503   4.408   1.276   7.966
  157SAPE  C21317504   4.226   1.145   7.940
  157SAPE  H13R17505   4.206   1.062   7.868
  157SAPE  H13S17506   4.134   1.207   7.936
  157SAPE  C21417507   4.243   1.082   8.079
  157SAPE  H14R17508   4.312   0.998   8.093
  157SAPE  C21517509   4.172   1.113   8.183
  157SAPE  H15R17510   4.201   1.056   8.272
  157SAPE  C21617511   4.069   1.223   8.198
  157SAPE  H16R17512   4.030   1.264   8.102
  157SAPE  H16S17513   4.101   1.315   8.252
  157SAPE  C21717514   3.949   1.169   8.282
  157SAPE  H17R17515   3.922   1.069   8.242
  157SAPE  H17S17516   3.861   1.235   8.263
  157SAPE  C21817517   3.986   1.163   8.429
  157SAPE  H18R17518   4.025   1.263   8.456
  157SAPE  H18S17519   4.060   1.082   8.446
  157SAPE  C21917520   3.858   1.136   8.517
  157SAPE  H19R17521   3.829   1.029   8.516
  157SAPE  H19S17522   3.772   1.181   8.461
  157SAPE  C22017523   3.870   1.193   8.657
  157SAPE  H20R17524   3.966   1.163   8.705
  157SAPE  H20S17525   3.788   1.155   8.721
  157SAPE  H20T17526   3.863   1.303   8.650
  157SAPE   C3317527   4.071   1.630   7.079
  157SAPE   H3X17528   4.160   1.563   7.082
  157SAPE   H3Y17529   3.988   1.568   7.038
  157SAPE   C3417530   4.034   1.687   7.218
  157SAPE   H4X17531   3.947   1.755   7.208
  157SAPE   H4Y17532   4.114   1.756   7.253
  157SAPE   C3517533   4.006   1.562   7.308
  157SAPE   H5X17534   4.096   1.499   7.327
  157SAPE   H5Y17535   3.932   1.498   7.255
  157SAPE   C3617536   3.953   1.602   7.446
  157SAPE   H6X17537   3.856   1.656   7.439
  157SAPE   H6Y17538   4.034   1.662   7.492
  157SAPE   C3717539   3.937   1.475   7.536
  157SAPE   H7X17540   4.026   1.409   7.544
  157SAPE   H7Y17541   3.850   1.416   7.499
  157SAPE   C3817542   3.906   1.523   7.677
  157SAPE   H8X17543   3.820   1.593   7.673
  157SAPE   H8Y17544   3.992   1.574   7.725
  157SAPE   C3917545   3.875   1.413   7.778
  157SAPE   H9X17546   3.961   1.349   7.808
  157SAPE   H9Y17547   3.811   1.334   7.734
  157SAPE  C31017548   3.799   1.468   7.897
  157SAPE  H10X17549   3.744   1.560   7.868
  157SAPE  H10Y17550   3.879   1.508   7.963
  157SAPE  C31117551   3.707   1.370   7.972
  157SAPE  H11X17552   3.774   1.286   8.001
  157SAPE  H11Y17553   3.614   1.340   7.919
  157SAPE  C31217554   3.655   1.432   8.100
  157SAPE  H12X17555   3.579   1.508   8.070
  157SAPE  H12Y17556   3.743   1.480   8.147
  157SAPE  C31317557   3.588   1.334   8.196
  157SAPE  H13X17558   3.629   1.231   8.190
  157SAPE  H13Y17559   3.484   1.327   8.157
  157SAPE  C31417560   3.583   1.388   8.343
  157SAPE  H14X17561   3.689   1.406   8.372
  157SAPE  H14Y17562   3.541   1.320   8.419
  157SAPE  C31517563   3.506   1.517   8.366
  157SAPE  H15X17564   3.401   1.498   8.334
  157SAPE  H15Y17565   3.532   1.606   8.305
  157SAPE  C31617566   3.510   1.552   8.516
  157SAPE  H16X17567   3.617   1.551   8.546
  157SAPE  H16Y17568   3.467   1.465   8.569
  157SAPE  C31717569   3.440   1.680   8.549
  157SAPE  H17X17570   3.342   1.687   8.497
  157SAPE  H17Y17571   3.500   1.765   8.509
  157SAPE  C31817572   3.423   1.698   8.698
  157SAPE  H18X17573   3.368   1.614   8.744
  157SAPE  H18Y17574   3.354   1.782   8.720
  157SAPE  H18Z17575   3.515   1.713   8.758
  158SAPE     N17576   6.578   5.587   6.271
  158SAPE   HN117577   6.635   5.512   6.314
  158SAPE   HN217578   6.526   5.552   6.188
  158SAPE   HN317579   6.648   5.659   6.242
  158SAPE   C1217580   6.471   5.625   6.367
  158SAPE  H12A17581   6.525   5.682   6.446
  158SAPE  H12B17582   6.448   5.526   6.412
  158SAPE   C1117583   6.359   5.712   6.304
  158SAPE  H11A17584   6.282   5.734   6.380
  158SAPE  H11B17585   6.311   5.632   6.245
  158SAPE     P17586   6.461   5.959   6.296
  158SAPE   O1317587   6.595   5.948   6.355
  158SAPE   O1417588   6.435   6.075   6.208
  158SAPE   O1217589   6.407   5.826   6.221
  158SAPE   O1117590   6.361   5.967   6.415
  158SAPE    C117591   6.235   6.024   6.403
  158SAPE    HA17592   6.219   6.077   6.306
  158SAPE    HB17593   6.150   5.954   6.420
  158SAPE    C217594   6.223   6.150   6.497
  158SAPE    HS17595   6.314   6.212   6.481
  158SAPE   O2117596   6.203   6.107   6.634
  158SAPE   C2117597   6.303   6.127   6.714
  158SAPE   O2217598   6.413   6.169   6.689
  158SAPE   C2217599   6.249   6.098   6.854
  158SAPE   H2R17600   6.170   6.173   6.874
  158SAPE   H2S17601   6.201   5.998   6.848
  158SAPE    C317602   6.098   6.235   6.449
  158SAPE    HX17603   6.003   6.180   6.462
  158SAPE    HY17604   6.103   6.261   6.341
  158SAPE   O3117605   6.076   6.348   6.536
  158SAPE   C3117606   6.136   6.460   6.499
  158SAPE   O3217607   6.216   6.468   6.408
  158SAPE   C3217608   6.091   6.577   6.592
  158SAPE   H2X17609   5.991   6.615   6.563
  158SAPE   H2Y17610   6.161   6.660   6.568
  158SAPE   C2317611   6.351   6.096   6.971
  158SAPE   H3R17612   6.400   6.196   6.981
  158SAPE   H3S17613   6.430   6.021   6.951
  158SAPE   C2417614   6.294   6.060   7.105
  158SAPE   H4R17615   6.236   5.966   7.091
  158SAPE   H4S17616   6.224   6.139   7.142
  158SAPE   C2517617   6.404   6.028   7.203
  158SAPE   H5R17618   6.485   5.966   7.161
  158SAPE   C2617619   6.411   6.067   7.332
  158SAPE   H6R17620   6.486   6.023   7.399
  158SAPE   C2717621   6.312   6.157   7.396
  158SAPE   H7R17622   6.231   6.087   7.427
  158SAPE   H7S17623   6.269   6.225   7.319
  158SAPE   C2817624   6.380   6.247   7.504
  158SAPE   H8R17625   6.449   6.323   7.464
  158SAPE   C2917626   6.345   6.242   7.640
  158SAPE   H9R17627   6.414   6.297   7.706
  158SAPE  C21017628   6.246   6.167   7.726
  158SAPE  H10R17629   6.239   6.227   7.819
  158SAPE  H10S17630   6.286   6.064   7.737
  158SAPE  C21117631   6.111   6.149   7.664
  158SAPE  H11R17632   6.096   6.205   7.571
  158SAPE  C21217633   6.012   6.086   7.718
  158SAPE  H12R17634   5.915   6.092   7.666
  158SAPE  C21317635   6.006   6.030   7.854
  158SAPE  H13R17636   6.047   6.106   7.924
  158SAPE  H13S17637   6.074   5.943   7.871
  158SAPE  C21417638   5.860   5.988   7.885
  158SAPE  H14R17639   5.798   5.953   7.800
  158SAPE  C21517640   5.807   5.982   8.012
  158SAPE  H15R17641   5.705   5.941   8.023
  158SAPE  C21617642   5.876   6.003   8.148
  158SAPE  H16R17643   5.979   6.042   8.137
  158SAPE  H16S17644   5.879   5.905   8.202
  158SAPE  C21717645   5.805   6.101   8.242
  158SAPE  H17R17646   5.698   6.074   8.252
  158SAPE  H17S17647   5.813   6.208   8.214
  158SAPE  C21817648   5.899   6.093   8.372
  158SAPE  H18R17649   5.997   6.139   8.346
  158SAPE  H18S17650   5.920   5.999   8.427
  158SAPE  C21917651   5.847   6.184   8.487
  158SAPE  H19R17652   5.898   6.169   8.584
  158SAPE  H19S17653   5.741   6.154   8.503
  158SAPE  C22017654   5.838   6.332   8.446
  158SAPE  H20R17655   5.937   6.377   8.420
  158SAPE  H20S17656   5.796   6.384   8.535
  158SAPE  H20T17657   5.770   6.340   8.358
  158SAPE   C3317658   6.100   6.538   6.744
  158SAPE   H3X17659   6.062   6.436   6.768
  158SAPE   H3Y17660   6.033   6.606   6.801
  158SAPE   C3417661   6.241   6.563   6.804
  158SAPE   H4X17662   6.280   6.664   6.779
  158SAPE   H4Y17663   6.307   6.485   6.761
  158SAPE   C3517664   6.239   6.546   6.956
  158SAPE   H5X17665   6.236   6.437   6.974
  158SAPE   H5Y17666   6.148   6.601   6.990
  158SAPE   C3617667   6.359   6.605   7.032
  158SAPE   H6X17668   6.383   6.706   6.992
  158SAPE   H6Y17669   6.448   6.542   7.013
  158SAPE   C3717670   6.336   6.601   7.179
  158SAPE   H7X17671   6.231   6.628   7.205
  158SAPE   H7Y17672   6.340   6.502   7.228
  158SAPE   C3817673   6.437   6.681   7.269
  158SAPE   H8X17674   6.426   6.787   7.239
  158SAPE   H8Y17675   6.545   6.660   7.252
  158SAPE   C3917676   6.411   6.665   7.420
  158SAPE   H9X17677   6.489   6.718   7.478
  158SAPE   H9Y17678   6.432   6.557   7.440
  158SAPE  C31017679   6.271   6.704   7.464
  158SAPE  H10X17680   6.204   6.618   7.442
  158SAPE  H10Y17681   6.234   6.793   7.409
  158SAPE  C31117682   6.273   6.731   7.616
  158SAPE  H11X17683   6.179   6.774   7.655
  158SAPE  H11Y17684   6.358   6.795   7.648
  158SAPE  C31217685   6.295   6.589   7.684
  158SAPE  H12X17686   6.398   6.555   7.660
  158SAPE  H12Y17687   6.217   6.514   7.660
  158SAPE  C31317688   6.305   6.597   7.833
  158SAPE  H13X17689   6.375   6.679   7.861
  158SAPE  H13Y17690   6.356   6.508   7.876
  158SAPE  C31417691   6.167   6.615   7.909
  158SAPE  H14X17692   6.114   6.710   7.885
  158SAPE  H14Y17693   6.181   6.616   8.019
  158SAPE  C31517694   6.072   6.499   7.884
  158SAPE  H15X17695   6.107   6.396   7.905
  158SAPE  H15Y17696   6.025   6.500   7.783
  158SAPE  C31617697   5.955   6.498   7.986
  158SAPE  H16X17698   5.883   6.580   7.966
  158SAPE  H16Y17699   5.994   6.520   8.088
  158SAPE  C31717700   5.873   6.365   7.974
  158SAPE  H17X17701   5.776   6.381   8.026
  158SAPE  H17Y17702   5.929   6.284   8.026
  158SAPE  C31817703   5.827   6.338   7.834
  158SAPE  H18X17704   5.911   6.311   7.767
  158SAPE  H18Y17705   5.748   6.405   7.794
  158SAPE  H18Z17706   5.780   6.237   7.835
  159SAPE     N17707   5.647   1.778   6.024
  159SAPE   HN117708   5.743   1.818   6.028
  159SAPE   HN217709   5.646   1.682   5.985
  159SAPE   HN317710   5.605   1.851   5.962
  159SAPE   C1217711   5.585   1.780   6.153
  159SAPE  H12A17712   5.649   1.731   6.229
  159SAPE  H12B17713   5.487   1.728   6.160
  159SAPE   C1117714   5.567   1.922   6.204
  159SAPE  H11A17715   5.667   1.970   6.196
  159SAPE  H11B17716   5.537   1.923   6.311
  159SAPE     P17717   5.344   2.077   6.199
  159SAPE   O1317718   5.313   2.195   6.116
  159SAPE   O1417719   5.229   1.987   6.217
  159SAPE   O1217720   5.471   2.002   6.132
  159SAPE   O1117721   5.388   2.126   6.342
  159SAPE    C117722   5.481   2.234   6.362
  159SAPE    HA17723   5.556   2.238   6.280
  159SAPE    HB17724   5.428   2.332   6.355
  159SAPE    C217725   5.552   2.219   6.498
  159SAPE    HS17726   5.609   2.124   6.496
  159SAPE   O2117727   5.472   2.212   6.615
  159SAPE   C2117728   5.361   2.290   6.617
  159SAPE   O2217729   5.357   2.398   6.561
  159SAPE   C2217730   5.259   2.214   6.697
  159SAPE   H2R17731   5.193   2.163   6.624
  159SAPE   H2S17732   5.303   2.134   6.761
  159SAPE    C317733   5.662   2.329   6.511
  159SAPE    HX17734   5.600   2.421   6.497
  159SAPE    HY17735   5.730   2.318   6.424
  159SAPE   O3117736   5.735   2.311   6.633
  159SAPE   C3117737   5.787   2.416   6.685
  159SAPE   O3217738   5.786   2.527   6.638
  159SAPE   C3217739   5.867   2.376   6.814
  159SAPE   H2X17740   5.940   2.297   6.785
  159SAPE   H2Y17741   5.796   2.333   6.888
  159SAPE   C2317742   5.159   2.305   6.770
  159SAPE   H3R17743   5.072   2.245   6.805
  159SAPE   H3S17744   5.118   2.380   6.698
  159SAPE   C2417745   5.220   2.383   6.888
  159SAPE   H4R17746   5.136   2.440   6.933
  159SAPE   H4S17747   5.288   2.458   6.843
  159SAPE   C2517748   5.295   2.302   6.991
  159SAPE   H5R17749   5.399   2.277   6.965
  159SAPE   C2617750   5.234   2.248   7.095
  159SAPE   H6R17751   5.281   2.166   7.151
  159SAPE   C2717752   5.088   2.254   7.128
  159SAPE   H7R17753   5.036   2.313   7.048
  159SAPE   H7S17754   5.088   2.325   7.213
  159SAPE   C2817755   5.010   2.132   7.162
  159SAPE   H8R17756   4.966   2.086   7.073
  159SAPE   C2917757   4.991   2.085   7.290
  159SAPE   H9R17758   4.915   2.008   7.311
  159SAPE  C21017759   5.039   2.147   7.414
  159SAPE  H10R17760   5.147   2.172   7.404
  159SAPE  H10S17761   5.029   2.062   7.485
  159SAPE  C21117762   4.963   2.263   7.463
  159SAPE  H11R17763   4.945   2.346   7.394
  159SAPE  C21217764   4.915   2.281   7.590
  159SAPE  H12R17765   4.881   2.380   7.624
  159SAPE  C21317766   4.917   2.177   7.701
  159SAPE  H13R17767   4.932   2.228   7.799
  159SAPE  H13S17768   5.012   2.120   7.703
  159SAPE  C21417769   4.797   2.087   7.699
  159SAPE  H14R17770   4.730   2.092   7.612
  159SAPE  C21517771   4.789   1.976   7.785
  159SAPE  H15R17772   4.695   1.919   7.794
  159SAPE  C21617773   4.874   1.936   7.898
  159SAPE  H16R17774   4.972   1.987   7.889
  159SAPE  H16S17775   4.907   1.830   7.890
  159SAPE  C21717776   4.808   1.952   8.039
  159SAPE  H17R17777   4.733   1.870   8.040
  159SAPE  H17S17778   4.773   2.056   8.054
  159SAPE  C21817779   4.915   1.912   8.147
  159SAPE  H18R17780   5.005   1.971   8.117
  159SAPE  H18S17781   4.927   1.802   8.138
  159SAPE  C21917782   4.863   1.944   8.287
  159SAPE  H19R17783   4.771   1.885   8.306
  159SAPE  H19S17784   4.845   2.053   8.297
  159SAPE  C22017785   4.957   1.901   8.401
  159SAPE  H20R17786   5.048   1.965   8.396
  159SAPE  H20S17787   4.981   1.793   8.389
  159SAPE  H20T17788   4.901   1.931   8.492
  159SAPE   C3317789   5.942   2.506   6.858
  159SAPE   H3X17790   5.868   2.564   6.917
  159SAPE   H3Y17791   5.982   2.571   6.777
  159SAPE   C3417792   6.046   2.459   6.956
  159SAPE   H4X17793   6.113   2.544   6.977
  159SAPE   H4Y17794   6.109   2.375   6.920
  159SAPE   C3517795   5.989   2.404   7.094
  159SAPE   H5X17796   5.980   2.296   7.066
  159SAPE   H5Y17797   5.887   2.439   7.124
  159SAPE   C3617798   6.088   2.420   7.216
  159SAPE   H6X17799   6.079   2.530   7.235
  159SAPE   H6Y17800   6.194   2.412   7.184
  159SAPE   C3717801   6.047   2.338   7.337
  159SAPE   H7X17802   6.063   2.233   7.302
  159SAPE   H7Y17803   5.938   2.357   7.336
  159SAPE   C3817804   6.120   2.352   7.469
  159SAPE   H8X17805   6.153   2.458   7.474
  159SAPE   H8Y17806   6.219   2.302   7.469
  159SAPE   C3917807   6.033   2.321   7.597
  159SAPE   H9X17808   6.006   2.214   7.590
  159SAPE   H9Y17809   5.939   2.380   7.589
  159SAPE  C31017810   6.089   2.370   7.735
  159SAPE  H10X17811   6.088   2.481   7.728
  159SAPE  H10Y17812   6.192   2.330   7.752
  159SAPE  C31117813   6.005   2.329   7.857
  159SAPE  H11X17814   5.990   2.219   7.867
  159SAPE  H11Y17815   5.908   2.381   7.843
  159SAPE  C31217816   6.070   2.367   7.998
  159SAPE  H12X17817   6.091   2.476   7.991
  159SAPE  H12Y17818   6.166   2.311   8.008
  159SAPE  C31317819   5.985   2.327   8.121
  159SAPE  H13X17820   5.993   2.216   8.113
  159SAPE  H13Y17821   5.877   2.350   8.112
  159SAPE  C31417822   6.049   2.348   8.263
  159SAPE  H14X17823   6.063   2.456   8.285
  159SAPE  H14Y17824   6.151   2.308   8.252
  159SAPE  C31517825   5.965   2.304   8.380
  159SAPE  H15X17826   5.946   2.194   8.384
  159SAPE  H15Y17827   5.867   2.356   8.377
  159SAPE  C31617828   6.024   2.332   8.515
  159SAPE  H16X17829   6.135   2.336   8.515
  159SAPE  H16Y17830   5.991   2.254   8.587
  159SAPE  C31717831   5.967   2.466   8.569
  159SAPE  H17X17832   5.859   2.475   8.545
  159SAPE  H17Y17833   6.028   2.541   8.515
  159SAPE  C31817834   5.968   2.488   8.723
  159SAPE  H18X17835   6.070   2.487   8.767
  159SAPE  H18Y17836   5.919   2.398   8.766
  159SAPE  H18Z17837   5.913   2.580   8.755
  160SAPE     N17838   5.916   0.697   6.684
  160SAPE   HN117839   5.946   0.785   6.730
  160SAPE   HN217840   5.813   0.692   6.671
  160SAPE   HN317841   5.939   0.610   6.735
  160SAPE   C1217842   5.957   0.685   6.543
  160SAPE  H12A17843   5.987   0.786   6.509
  160SAPE  H12B17844   5.870   0.656   6.480
  160SAPE   C1117845   6.082   0.595   6.516
  160SAPE  H11A17846   6.087   0.585   6.406
  160SAPE  H11B17847   6.052   0.500   6.565
  160SAPE     P17848   6.302   0.754   6.513
  160SAPE   O1317849   6.394   0.656   6.460
  160SAPE   O1417850   6.237   0.848   6.423
  160SAPE   O1217851   6.199   0.658   6.578
  160SAPE   O1117852   6.364   0.834   6.634
  160SAPE    C117853   6.397   0.768   6.756
  160SAPE    HA17854   6.427   0.664   6.733
  160SAPE    HB17855   6.486   0.811   6.806
  160SAPE    C217856   6.266   0.782   6.854
  160SAPE    HS17857   6.181   0.726   6.810
  160SAPE   O2117858   6.240   0.920   6.885
  160SAPE   C2117859   6.120   0.960   6.864
  160SAPE   O2217860   6.024   0.891   6.826
  160SAPE   C2217861   6.115   1.110   6.903
  160SAPE   H2R17862   6.218   1.146   6.925
  160SAPE   H2S17863   6.080   1.152   6.806
  160SAPE    C317864   6.296   0.721   6.994
  160SAPE    HX17865   6.373   0.773   7.054
  160SAPE    HY17866   6.332   0.621   6.962
  160SAPE   O3117867   6.172   0.713   7.072
  160SAPE   C3117868   6.189   0.675   7.195
  160SAPE   O3217869   6.295   0.657   7.252
  160SAPE   C3217870   6.062   0.661   7.275
  160SAPE   H2X17871   6.012   0.570   7.236
  160SAPE   H2Y17872   6.004   0.749   7.240
  160SAPE   C2317873   6.017   1.134   7.020
  160SAPE   H3R17874   5.914   1.103   6.993
  160SAPE   H3S17875   6.020   1.244   7.037
  160SAPE   C2417876   6.058   1.048   7.138
  160SAPE   H4R17877   6.035   0.940   7.120
  160SAPE   H4S17878   5.983   1.068   7.218
  160SAPE   C2517879   6.199   1.067   7.188
  160SAPE   H5R17880   6.272   1.011   7.128
  160SAPE   C2617881   6.249   1.130   7.295
  160SAPE   H6R17882   6.359   1.134   7.305
  160SAPE   C2717883   6.177   1.210   7.398
  160SAPE   H7R17884   6.067   1.203   7.388
  160SAPE   H7S17885   6.200   1.318   7.387
  160SAPE   C2817886   6.225   1.181   7.536
  160SAPE   H8R17887   6.311   1.112   7.548
  160SAPE   C2917888   6.167   1.242   7.644
  160SAPE   H9R17889   6.217   1.230   7.741
  160SAPE  C21017890   6.045   1.331   7.645
  160SAPE  H10R17891   6.022   1.371   7.544
  160SAPE  H10S17892   6.084   1.416   7.705
  160SAPE  C21117893   5.927   1.266   7.705
  160SAPE  H11R17894   5.890   1.174   7.657
  160SAPE  C21217895   5.884   1.283   7.833
  160SAPE  H12R17896   5.787   1.240   7.860
  160SAPE  C21317897   5.946   1.370   7.934
  160SAPE  H13R17898   5.932   1.478   7.909
  160SAPE  H13S17899   6.056   1.360   7.924
  160SAPE  C21417900   5.902   1.343   8.080
  160SAPE  H14R17901   5.933   1.256   8.139
  160SAPE  C21517902   5.812   1.413   8.147
  160SAPE  H15R17903   5.771   1.370   8.239
  160SAPE  C21617904   5.743   1.540   8.104
  160SAPE  H16R17905   5.633   1.540   8.093
  160SAPE  H16S17906   5.776   1.561   8.000
  160SAPE  C21717907   5.779   1.659   8.198
  160SAPE  H17R17908   5.753   1.622   8.300
  160SAPE  H17S17909   5.708   1.739   8.165
  160SAPE  C21817910   5.926   1.706   8.187
  160SAPE  H18R17911   5.933   1.755   8.088
  160SAPE  H18S17912   5.994   1.618   8.186
  160SAPE  C21917913   5.962   1.814   8.293
  160SAPE  H19R17914   6.027   1.767   8.370
  160SAPE  H19S17915   5.873   1.844   8.351
  160SAPE  C22017916   6.048   1.924   8.222
  160SAPE  H20R17917   6.137   1.886   8.168
  160SAPE  H20S17918   6.083   2.000   8.295
  160SAPE  H20T17919   5.979   1.979   8.154
  160SAPE   C3317920   6.088   0.648   7.422
  160SAPE   H3X17921   6.163   0.572   7.451
  160SAPE   H3Y17922   6.003   0.600   7.476
  160SAPE   C3417923   6.116   0.790   7.478
  160SAPE   H4X17924   6.020   0.842   7.496
  160SAPE   H4Y17925   6.177   0.850   7.407
  160SAPE   C3517926   6.193   0.793   7.616
  160SAPE   H5X17927   6.219   0.900   7.633
  160SAPE   H5Y17928   6.286   0.737   7.593
  160SAPE   C3617929   6.113   0.738   7.738
  160SAPE   H6X17930   6.088   0.635   7.707
  160SAPE   H6Y17931   6.013   0.784   7.755
  160SAPE   C3717932   6.194   0.736   7.864
  160SAPE   H7X17933   6.221   0.844   7.871
  160SAPE   H7Y17934   6.279   0.665   7.857
  160SAPE   C3817935   6.113   0.683   7.982
  160SAPE   H8X17936   6.113   0.575   8.008
  160SAPE   H8Y17937   6.007   0.705   7.954
  160SAPE   C3917938   6.138   0.779   8.099
  160SAPE   H9X17939   6.129   0.887   8.075
  160SAPE   H9Y17940   6.241   0.758   8.135
  160SAPE  C31017941   6.036   0.750   8.209
  160SAPE  H10X17942   6.061   0.661   8.271
  160SAPE  H10Y17943   5.936   0.736   8.163
  160SAPE  C31117944   6.026   0.870   8.308
  160SAPE  H11X17945   6.003   0.959   8.245
  160SAPE  H11Y17946   6.127   0.885   8.351
  160SAPE  C31217947   5.929   0.858   8.428
  160SAPE  H12X17948   5.954   0.763   8.481
  160SAPE  H12Y17949   5.830   0.849   8.378
  160SAPE  C31317950   5.948   0.964   8.529
  160SAPE  H13X17951   6.054   0.975   8.562
  160SAPE  H13Y17952   5.892   0.939   8.621
  160SAPE  C31417953   5.896   1.104   8.483
  160SAPE  H14X17954   5.786   1.096   8.470
  160SAPE  H14Y17955   5.944   1.143   8.390
  160SAPE  C31517956   5.923   1.218   8.578
  160SAPE  H15X17957   6.030   1.247   8.587
  160SAPE  H15Y17958   5.890   1.192   8.681
  160SAPE  C31617959   5.840   1.342   8.545
  160SAPE  H16X17960   5.735   1.313   8.567
  160SAPE  H16Y17961   5.851   1.358   8.436
  160SAPE  C31717962   5.887   1.465   8.623
  160SAPE  H17X17963   5.858   1.562   8.579
  160SAPE  H17Y17964   5.998   1.466   8.611
  160SAPE  C31817965   5.858   1.478   8.770
  160SAPE  H18X17966   5.919   1.558   8.816
  160SAPE  H18Y17967   5.863   1.380   8.824
  160SAPE  H18Z17968   5.750   1.499   8.786
  161SOPE     N17969   4.982   2.153  10.531
  161SOPE   HN117970   4.979   2.078  10.460
  161SOPE   HN217971   4.902   2.220  10.527
  161SOPE   HN317972   5.070   2.209  10.538
  161SOPE   C1217973   4.972   2.082  10.666
  161SOPE  H12A17974   5.073   2.051  10.701
  161SOPE  H12B17975   4.894   2.004  10.652
  161SOPE   C1117976   4.920   2.189  10.772
  161SOPE  H11A17977   4.987   2.275  10.790
  161SOPE  H11B17978   4.910   2.131  10.866
  161SOPE     P17979   4.763   2.378  10.676
  161SOPE   O1317980   4.883   2.458  10.658
  161SOPE   O1417981   4.639   2.433  10.736
  161SOPE   O1217982   4.789   2.241  10.750
  161SOPE   O1117983   4.742   2.316  10.531
  161SOPE    C117984   4.752   2.392  10.408
  161SOPE    HA17985   4.787   2.327  10.324
  161SOPE    HB17986   4.833   2.468  10.414
  161SOPE    C217987   4.610   2.430  10.352
  161SOPE    HS17988   4.566   2.490  10.435
  161SOPE   O2117989   4.527   2.314  10.324
  161SOPE   C2117990   4.424   2.324  10.246
  161SOPE   O2217991   4.358   2.427  10.222
  161SOPE   C2217992   4.384   2.184  10.198
  161SOPE   H2R17993   4.311   2.138  10.268
  161SOPE   H2S17994   4.478   2.125  10.204
  161SOPE    C317995   4.617   2.527  10.233
  161SOPE    HX17996   4.698   2.596  10.264
  161SOPE    HY17997   4.522   2.584  10.230
  161SOPE   O3117998   4.651   2.461  10.112
  161SOPE   C3117999   4.772   2.427  10.075
  161SOPE   O3218000   4.877   2.466  10.128
  161SOPE   C3218001   4.763   2.344   9.949
  161SOPE   H2X18002   4.746   2.410   9.861
  161SOPE   H2Y18003   4.688   2.263   9.957
  161SOPE   C2318004   4.304   2.182  10.067
  161SOPE   H3R18005   4.249   2.278  10.065
  161SOPE   H3S18006   4.225   2.104  10.066
  161SOPE   C2418007   4.385   2.172   9.941
  161SOPE   H4R18008   4.461   2.253   9.944
  161SOPE   H4S18009   4.445   2.081   9.962
  161SOPE   C2518010   4.298   2.190   9.816
  161SOPE   H5R18011   4.204   2.135   9.839
  161SOPE   H5S18012   4.275   2.294   9.783
  161SOPE   C2618013   4.355   2.126   9.689
  161SOPE   H6R18014   4.292   2.141   9.599
  161SOPE   H6S18015   4.458   2.163   9.670
  161SOPE   C2718016   4.364   1.974   9.714
  161SOPE   H7R18017   4.443   1.963   9.791
  161SOPE   H7S18018   4.272   1.942   9.767
  161SOPE   C2818019   4.388   1.887   9.593
  161SOPE   H8R18020   4.308   1.902   9.518
  161SOPE   H8S18021   4.479   1.937   9.553
  161SOPE   C2918022   4.420   1.746   9.599
  161SOPE   H9118023   4.504   1.727   9.667
  161SOPE  C21018024   4.369   1.644   9.525
  161SOPE  H10118025   4.424   1.550   9.541
  161SOPE  C21118026   4.264   1.647   9.418
  161SOPE  H11R18027   4.199   1.737   9.421
  161SOPE  H11S18028   4.205   1.556   9.446
  161SOPE  C21218029   4.323   1.637   9.277
  161SOPE  H12R18030   4.420   1.583   9.274
  161SOPE  H12S18031   4.342   1.743   9.248
  161SOPE  C21318032   4.235   1.560   9.171
  161SOPE  H13R18033   4.132   1.601   9.166
  161SOPE  H13S18034   4.216   1.460   9.215
  161SOPE  C21418035   4.285   1.537   9.026
  161SOPE  H14R18036   4.376   1.472   9.026
  161SOPE  H14S18037   4.321   1.636   8.992
  161SOPE  C21518038   4.178   1.490   8.924
  161SOPE  H15R18039   4.091   1.557   8.944
  161SOPE  H15S18040   4.157   1.382   8.943
  161SOPE  C21618041   4.228   1.509   8.778
  161SOPE  H16R18042   4.312   1.437   8.773
  161SOPE  H16S18043   4.278   1.606   8.762
  161SOPE  C21718044   4.127   1.473   8.670
  161SOPE  H17R18045   4.028   1.519   8.691
  161SOPE  H17S18046   4.113   1.363   8.670
  161SOPE  C21818047   4.169   1.509   8.534
  161SOPE  H18R18048   4.257   1.449   8.505
  161SOPE  H18S18049   4.211   1.611   8.548
  161SOPE  H18T18050   4.095   1.498   8.452
  161SOPE   C3318051   4.902   2.272   9.921
  161SOPE   H3X18052   4.917   2.216  10.016
  161SOPE   H3Y18053   4.975   2.354   9.903
  161SOPE   C3418054   4.906   2.174   9.807
  161SOPE   H4X18055   5.011   2.144   9.789
  161SOPE   H4Y18056   4.867   2.217   9.712
  161SOPE   C3518057   4.831   2.043   9.845
  161SOPE   H5X18058   4.731   2.069   9.885
  161SOPE   H5Y18059   4.879   2.011   9.940
  161SOPE   C3618060   4.836   1.937   9.734
  161SOPE   H6X18061   4.786   1.850   9.782
  161SOPE   H6Y18062   4.940   1.897   9.725
  161SOPE   C3718063   4.783   1.974   9.594
  161SOPE   H7X18064   4.830   2.062   9.545
  161SOPE   H7Y18065   4.680   2.013   9.605
  161SOPE   C3818066   4.790   1.859   9.494
  161SOPE   H8X18067   4.735   1.779   9.547
  161SOPE   H8Y18068   4.895   1.822   9.490
  161SOPE   C3918069   4.724   1.888   9.361
  161SOPE   H9X18070   4.795   1.952   9.306
  161SOPE   H9Y18071   4.637   1.951   9.392
  161SOPE  C31018072   4.694   1.770   9.268
  161SOPE  H10X18073   4.602   1.722   9.306
  161SOPE  H10Y18074   4.779   1.700   9.280
  161SOPE  C31118075   4.668   1.798   9.116
  161SOPE  H11X18076   4.689   1.904   9.092
  161SOPE  H11Y18077   4.566   1.787   9.074
  161SOPE  C31218078   4.749   1.702   9.024
  161SOPE  H12X18079   4.726   1.596   9.047
  161SOPE  H12Y18080   4.858   1.715   9.042
  161SOPE  C31318081   4.723   1.729   8.871
  161SOPE  H13X18082   4.787   1.818   8.851
  161SOPE  H13Y18083   4.614   1.733   8.849
  161SOPE  C31418084   4.763   1.610   8.790
  161SOPE  H14X18085   4.863   1.578   8.825
  161SOPE  H14Y18086   4.769   1.651   8.687
  161SOPE  C31518087   4.659   1.493   8.792
  161SOPE  H15X18088   4.570   1.520   8.731
  161SOPE  H15Y18089   4.632   1.459   8.894
  161SOPE  C31618090   4.723   1.366   8.731
  161SOPE  H16X18091   4.813   1.327   8.783
  161SOPE  H16Y18092   4.746   1.382   8.624
  161SOPE  C31718093   4.620   1.259   8.719
  161SOPE  H17X18094   4.530   1.293   8.664
  161SOPE  H17Y18095   4.573   1.244   8.819
  161SOPE  C31818096   4.671   1.129   8.647
  161SOPE  H18X18097   4.739   1.061   8.703
  161SOPE  H18Y18098   4.718   1.150   8.549
  161SOPE  H18Z18099   4.582   1.068   8.620
  162SOPE     N18100   3.587   2.327  11.076
  162SOPE   HN118101   3.525   2.390  11.132
  162SOPE   HN218102   3.642   2.268  11.142
  162SOPE   HN318103   3.651   2.377  11.012
  162SOPE   C1218104   3.493   2.241  10.994
  162SOPE  H12A18105   3.544   2.155  10.946
  162SOPE  H12B18106   3.446   2.307  10.918
  162SOPE   C1118107   3.384   2.172  11.093
  162SOPE  H11A18108   3.323   2.250  11.143
  162SOPE  H11B18109   3.432   2.117  11.177
  162SOPE     P18110   3.315   1.944  10.984
  162SOPE   O1318111   3.238   1.864  11.083
  162SOPE   O1418112   3.460   1.920  10.983
  162SOPE   O1218113   3.297   2.096  11.014
  162SOPE   O1118114   3.261   1.923  10.841
  162SOPE    C118115   3.173   2.023  10.789
  162SOPE    HA18116   3.215   2.126  10.795
  162SOPE    HB18117   3.085   2.028  10.856
  162SOPE    C218118   3.105   1.993  10.654
  162SOPE    HS18119   3.071   1.888  10.647
  162SOPE   O2118120   3.202   2.027  10.546
  162SOPE   C2118121   3.189   1.953  10.437
  162SOPE   O2218122   3.098   1.876  10.414
  162SOPE   C2218123   3.307   1.985  10.345
  162SOPE   H2R18124   3.376   1.899  10.360
  162SOPE   H2S18125   3.349   2.086  10.363
  162SOPE    C318126   2.975   2.080  10.643
  162SOPE    HX18127   3.016   2.181  10.665
  162SOPE    HY18128   2.904   2.060  10.726
  162SOPE   O3118129   2.918   2.080  10.513
  162SOPE   C3118130   2.800   2.009  10.499
  162SOPE   O3218131   2.754   1.933  10.583
  162SOPE   C3218132   2.748   2.028  10.353
  162SOPE   H2X18133   2.752   2.136  10.327
  162SOPE   H2Y18134   2.640   2.003  10.357
  162SOPE   C2318135   3.267   1.980  10.194
  162SOPE   H3R18136   3.206   2.071  10.177
  162SOPE   H3S18137   3.211   1.887  10.172
  162SOPE   C2418138   3.395   1.980  10.111
  162SOPE   H4R18139   3.449   2.065  10.157
  162SOPE   H4S18140   3.447   1.883  10.123
  162SOPE   C2518141   3.365   2.002   9.958
  162SOPE   H5R18142   3.293   1.920   9.938
  162SOPE   H5S18143   3.324   2.105   9.953
  162SOPE   C2618144   3.486   2.000   9.860
  162SOPE   H6R18145   3.558   2.078   9.891
  162SOPE   H6S18146   3.539   1.905   9.885
  162SOPE   C2718147   3.442   2.020   9.713
  162SOPE   H7R18148   3.378   1.933   9.685
  162SOPE   H7S18149   3.387   2.116   9.715
  162SOPE   C2818150   3.563   2.009   9.620
  162SOPE   H8R18151   3.595   1.904   9.636
  162SOPE   H8S18152   3.521   2.017   9.517
  162SOPE   C2918153   3.673   2.117   9.646
  162SOPE   H9118154   3.718   2.118   9.747
  162SOPE  C21018155   3.730   2.204   9.558
  162SOPE  H10118156   3.788   2.291   9.592
  162SOPE  C21118157   3.695   2.206   9.411
  162SOPE  H11R18158   3.688   2.103   9.372
  162SOPE  H11S18159   3.785   2.248   9.360
  162SOPE  C21218160   3.579   2.299   9.359
  162SOPE  H12R18161   3.485   2.246   9.383
  162SOPE  H12S18162   3.587   2.318   9.250
  162SOPE  C21318163   3.572   2.434   9.436
  162SOPE  H13R18164   3.674   2.477   9.430
  162SOPE  H13S18165   3.543   2.412   9.541
  162SOPE  C21418166   3.477   2.538   9.380
  162SOPE  H14R18167   3.486   2.629   9.442
  162SOPE  H14S18168   3.376   2.492   9.385
  162SOPE  C21518169   3.500   2.562   9.232
  162SOPE  H15R18170   3.443   2.491   9.169
  162SOPE  H15S18171   3.606   2.535   9.211
  162SOPE  C21618172   3.479   2.708   9.184
  162SOPE  H16R18173   3.536   2.786   9.239
  162SOPE  H16S18174   3.372   2.737   9.192
  162SOPE  C21718175   3.526   2.731   9.039
  162SOPE  H17R18176   3.635   2.732   9.015
  162SOPE  H17S18177   3.496   2.837   9.020
  162SOPE  C21818178   3.452   2.654   8.925
  162SOPE  H18R18179   3.343   2.669   8.939
  162SOPE  H18S18180   3.463   2.543   8.923
  162SOPE  H18T18181   3.476   2.698   8.826
  162SOPE   C3318182   2.817   1.946  10.247
  162SOPE   H3X18183   2.824   1.839  10.276
  162SOPE   H3Y18184   2.912   2.003  10.232
  162SOPE   C3418185   2.732   1.940  10.114
  162SOPE   H4X18186   2.701   2.044  10.089
  162SOPE   H4Y18187   2.638   1.889  10.144
  162SOPE   C3518188   2.786   1.859   9.999
  162SOPE   H5X18189   2.703   1.857   9.925
  162SOPE   H5Y18190   2.808   1.753  10.022
  162SOPE   C3618191   2.909   1.919   9.923
  162SOPE   H6X18192   2.986   1.910  10.003
  162SOPE   H6Y18193   2.895   2.027   9.902
  162SOPE   C3718194   2.928   1.842   9.792
  162SOPE   H7X18195   2.834   1.831   9.735
  162SOPE   H7Y18196   2.971   1.742   9.813
  162SOPE   C3818197   3.033   1.905   9.699
  162SOPE   H8X18198   3.130   1.900   9.753
  162SOPE   H8Y18199   3.003   2.008   9.673
  162SOPE   C3918200   3.047   1.827   9.568
  162SOPE   H9X18201   2.944   1.805   9.532
  162SOPE   H9Y18202   3.092   1.732   9.602
  162SOPE  C31018203   3.133   1.900   9.467
  162SOPE  H10X18204   3.145   1.826   9.386
  162SOPE  H10Y18205   3.222   1.934   9.524
  162SOPE  C31118206   3.064   2.028   9.412
  162SOPE  H11X18207   3.072   2.107   9.490
  162SOPE  H11Y18208   2.958   1.999   9.394
  162SOPE  C31218209   3.127   2.075   9.280
  162SOPE  H12X18210   3.153   1.989   9.216
  162SOPE  H12Y18211   3.226   2.125   9.290
  162SOPE  C31318212   3.032   2.178   9.215
  162SOPE  H13X18213   3.029   2.262   9.288
  162SOPE  H13Y18214   2.934   2.126   9.210
  162SOPE  C31418215   3.073   2.222   9.072
  162SOPE  H14X18216   3.104   2.132   9.015
  162SOPE  H14Y18217   3.160   2.288   9.090
  162SOPE  C31518218   2.963   2.297   8.999
  162SOPE  H15X18219   2.973   2.401   9.037
  162SOPE  H15Y18220   2.870   2.256   9.042
  162SOPE  C31618221   2.964   2.290   8.844
  162SOPE  H16X18222   2.887   2.360   8.803
  162SOPE  H16Y18223   2.948   2.183   8.816
  162SOPE  C31718224   3.100   2.321   8.769
  162SOPE  H17X18225   3.075   2.288   8.666
  162SOPE  H17Y18226   3.177   2.249   8.803
  162SOPE  C31818227   3.152   2.461   8.778
  162SOPE  H18X18228   3.193   2.496   8.681
  162SOPE  H18Y18229   3.227   2.460   8.859
  162SOPE  H18Z18230   3.071   2.529   8.813
  163SOPE     N18231   3.605   6.346  11.129
  163SOPE   HN118232   3.671   6.292  11.190
  163SOPE   HN218233   3.638   6.443  11.111
  163SOPE   HN318234   3.527   6.366  11.194
  163SOPE   C1218235   3.560   6.289  10.995
  163SOPE  H12A18236   3.598   6.185  11.003
  163SOPE  H12B18237   3.609   6.341  10.910
  163SOPE   C1118238   3.408   6.306  10.964
  163SOPE  H11A18239   3.343   6.253  11.037
  163SOPE  H11B18240   3.369   6.261  10.870
  163SOPE     P18241   3.358   6.542  10.853
  163SOPE   O1318242   3.498   6.586  10.824
  163SOPE   O1418243   3.258   6.641  10.888
  163SOPE   O1218244   3.362   6.446  10.978
  163SOPE   O1118245   3.301   6.453  10.740
  163SOPE    C118246   3.320   6.472  10.605
  163SOPE    HA18247   3.360   6.570  10.573
  163SOPE    HB18248   3.221   6.466  10.555
  163SOPE    C218249   3.411   6.357  10.540
  163SOPE    HS18250   3.514   6.364  10.580
  163SOPE   O2118251   3.412   6.369  10.398
  163SOPE   C2118252   3.502   6.447  10.348
  163SOPE   O2218253   3.560   6.538  10.407
  163SOPE   C2218254   3.522   6.405  10.201
  163SOPE   H2R18255   3.435   6.434  10.138
  163SOPE   H2S18256   3.539   6.297  10.184
  163SOPE    C318257   3.366   6.214  10.573
  163SOPE    HX18258   3.269   6.199  10.522
  163SOPE    HY18259   3.334   6.209  10.680
  163SOPE   O3118260   3.462   6.119  10.529
  163SOPE   C3118261   3.555   6.091  10.613
  163SOPE   O3218262   3.580   6.156  10.715
  163SOPE   C3218263   3.648   5.972  10.574
  163SOPE   H2X18264   3.586   5.881  10.579
  163SOPE   H2Y18265   3.735   5.965  10.643
  163SOPE   C2318266   3.644   6.471  10.143
  163SOPE   H3R18267   3.734   6.447  10.203
  163SOPE   H3S18268   3.638   6.582  10.153
  163SOPE   C2418269   3.686   6.419   9.996
  163SOPE   H4R18270   3.793   6.444   9.981
  163SOPE   H4S18271   3.675   6.309   9.996
  163SOPE   C2518272   3.605   6.468   9.879
  163SOPE   H5R18273   3.506   6.416   9.879
  163SOPE   H5S18274   3.592   6.577   9.888
  163SOPE   C2618275   3.671   6.420   9.748
  163SOPE   H6R18276   3.774   6.459   9.734
  163SOPE   H6S18277   3.667   6.309   9.740
  163SOPE   C2718278   3.599   6.473   9.629
  163SOPE   H7R18279   3.489   6.479   9.645
  163SOPE   H7S18280   3.627   6.578   9.607
  163SOPE   C2818281   3.615   6.401   9.494
  163SOPE   H8R18282   3.585   6.470   9.412
  163SOPE   H8S18283   3.723   6.376   9.494
  163SOPE   C2918284   3.531   6.275   9.488
  163SOPE   H9118285   3.466   6.250   9.573
  163SOPE  C21018286   3.547   6.187   9.392
  163SOPE  H10118287   3.470   6.109   9.377
  163SOPE  C21118288   3.647   6.207   9.278
  163SOPE  H11R18289   3.742   6.153   9.300
  163SOPE  H11S18290   3.677   6.313   9.263
  163SOPE  C21218291   3.599   6.149   9.147
  163SOPE  H12R18292   3.494   6.184   9.141
  163SOPE  H12S18293   3.599   6.039   9.133
  163SOPE  C21318294   3.668   6.208   9.023
  163SOPE  H13R18295   3.774   6.184   9.043
  163SOPE  H13S18296   3.648   6.317   9.025
  163SOPE  C21418297   3.619   6.157   8.891
  163SOPE  H14R18298   3.520   6.194   8.858
  163SOPE  H14S18299   3.629   6.047   8.891
  163SOPE  C21518300   3.712   6.213   8.781
  163SOPE  H15R18301   3.816   6.177   8.768
  163SOPE  H15S18302   3.725   6.322   8.802
  163SOPE  C21618303   3.645   6.216   8.644
  163SOPE  H16R18304   3.709   6.263   8.566
  163SOPE  H16S18305   3.553   6.278   8.647
  163SOPE  C21718306   3.611   6.070   8.598
  163SOPE  H17R18307   3.534   6.030   8.668
  163SOPE  H17S18308   3.695   5.998   8.602
  163SOPE  C21818309   3.549   6.054   8.460
  163SOPE  H18R18310   3.517   5.949   8.440
  163SOPE  H18S18311   3.621   6.089   8.382
  163SOPE  H18T18312   3.465   6.126   8.456
  163SOPE   C3318313   3.691   5.984  10.425
  163SOPE   H3X18314   3.601   5.994  10.360
  163SOPE   H3Y18315   3.744   5.895  10.387
  163SOPE   C3418316   3.798   6.092  10.385
  163SOPE   H4X18317   3.885   6.080  10.454
  163SOPE   H4Y18318   3.762   6.197  10.383
  163SOPE   C3518319   3.850   6.053  10.249
  163SOPE   H5X18320   3.767   6.062  10.177
  163SOPE   H5Y18321   3.884   5.948  10.245
  163SOPE   C3618322   3.963   6.138  10.204
  163SOPE   H6X18323   4.043   6.129  10.281
  163SOPE   H6Y18324   3.943   6.245  10.183
  163SOPE   C3718325   4.030   6.097  10.068
  163SOPE   H7X18326   4.065   5.992  10.072
  163SOPE   H7Y18327   4.119   6.156  10.037
  163SOPE   C3818328   3.938   6.100   9.948
  163SOPE   H8X18329   3.870   6.188   9.953
  163SOPE   H8Y18330   3.877   6.007   9.946
  163SOPE   C3918331   4.023   6.111   9.824
  163SOPE   H9X18332   4.102   6.034   9.837
  163SOPE   H9Y18333   4.068   6.211   9.811
  163SOPE  C31018334   3.949   6.085   9.695
  163SOPE  H10X18335   3.872   6.163   9.681
  163SOPE  H10Y18336   3.898   5.986   9.706
  163SOPE  C31118337   4.044   6.071   9.574
  163SOPE  H11X18338   4.106   5.978   9.576
  163SOPE  H11Y18339   4.116   6.155   9.583
  163SOPE  C31218340   3.981   6.090   9.439
  163SOPE  H12X18341   3.927   6.187   9.438
  163SOPE  H12Y18342   3.907   6.007   9.434
  163SOPE  C31318343   4.077   6.054   9.327
  163SOPE  H13X18344   4.103   5.946   9.325
  163SOPE  H13Y18345   4.170   6.112   9.343
  163SOPE  C31418346   4.016   6.099   9.193
  163SOPE  H14X18347   4.015   6.210   9.190
  163SOPE  H14Y18348   3.915   6.057   9.173
  163SOPE  C31518349   4.105   6.050   9.076
  163SOPE  H15X18350   4.119   5.941   9.092
  163SOPE  H15Y18351   4.210   6.086   9.069
  163SOPE  C31618352   4.049   6.080   8.931
  163SOPE  H16X18353   4.073   6.183   8.896
  163SOPE  H16Y18354   3.939   6.071   8.946
  163SOPE  C31718355   4.102   5.976   8.832
  163SOPE  H17X18356   4.030   5.986   8.748
  163SOPE  H17Y18357   4.086   5.872   8.867
  163SOPE  C31818358   4.243   5.987   8.782
  163SOPE  H18X18359   4.319   5.978   8.862
  163SOPE  H18Y18360   4.244   6.090   8.740
  163SOPE  H18Z18361   4.257   5.910   8.704
  164SOPE     N18362   5.914   4.460  10.755
  164SOPE   HN118363   5.991   4.429  10.817
  164SOPE   HN218364   5.868   4.544  10.797
  164SOPE   HN318365   5.836   4.391  10.761
  164SOPE   C1218366   5.970   4.492  10.618
  164SOPE  H12A18367   6.008   4.596  10.621
  164SOPE  H12B18368   5.891   4.480  10.541
  164SOPE   C1118369   6.077   4.391  10.576
  164SOPE  H11A18370   6.130   4.417  10.482
  164SOPE  H11B18371   6.016   4.299  10.568
  164SOPE     P18372   6.290   4.468  10.713
  164SOPE   O1318373   6.390   4.367  10.757
  164SOPE   O1418374   6.252   4.567  10.809
  164SOPE   O1218375   6.165   4.381  10.686
  164SOPE   O1118376   6.318   4.535  10.568
  164SOPE    C118377   6.450   4.564  10.524
  164SOPE    HA18378   6.530   4.530  10.593
  164SOPE    HB18379   6.471   4.671  10.503
  164SOPE    C218380   6.484   4.495  10.390
  164SOPE    HS18381   6.491   4.386  10.412
  164SOPE   O2118382   6.608   4.554  10.353
  164SOPE   C2118383   6.720   4.485  10.391
  164SOPE   O2218384   6.721   4.387  10.462
  164SOPE   C2218385   6.845   4.544  10.324
  164SOPE   H2R18386   6.926   4.530  10.398
  164SOPE   H2S18387   6.826   4.653  10.312
  164SOPE    C318388   6.378   4.511  10.276
  164SOPE    HX18389   6.352   4.618  10.268
  164SOPE    HY18390   6.286   4.465  10.317
  164SOPE   O3118391   6.415   4.446  10.151
  164SOPE   C3118392   6.509   4.505  10.077
  164SOPE   O3218393   6.546   4.619  10.086
  164SOPE   C3218394   6.554   4.401   9.973
  164SOPE   H2X18395   6.477   4.323   9.957
  164SOPE   H2Y18396   6.643   4.350  10.017
  164SOPE   C2318397   6.876   4.473  10.189
  164SOPE   H3R18398   6.781   4.483  10.132
  164SOPE   H3S18399   6.890   4.366  10.214
  164SOPE   C2418400   7.009   4.509  10.127
  164SOPE   H4R18401   7.004   4.613  10.089
  164SOPE   H4S18402   7.086   4.514  10.208
  164SOPE   C2518403   7.063   4.408  10.023
  164SOPE   H5R18404   7.172   4.393  10.034
  164SOPE   H5S18405   7.028   4.304  10.043
  164SOPE   C2618406   7.041   4.441   9.870
  164SOPE   H6R18407   7.083   4.351   9.820
  164SOPE   H6S18408   6.933   4.453   9.847
  164SOPE   C2718409   7.123   4.558   9.820
  164SOPE   H7R18410   7.051   4.639   9.798
  164SOPE   H7S18411   7.195   4.599   9.894
  164SOPE   C2818412   7.200   4.537   9.686
  164SOPE   H8R18413   7.244   4.637   9.668
  164SOPE   H8S18414   7.287   4.472   9.710
  164SOPE   C2918415   7.111   4.493   9.574
  164SOPE   H9118416   7.040   4.415   9.604
  164SOPE  C21018417   7.111   4.522   9.440
  164SOPE  H10118418   7.033   4.487   9.370
  164SOPE  C21118419   7.212   4.607   9.367
  164SOPE  H11R18420   7.263   4.535   9.300
  164SOPE  H11S18421   7.282   4.662   9.434
  164SOPE  C21218422   7.148   4.707   9.269
  164SOPE  H12R18423   7.078   4.777   9.322
  164SOPE  H12S18424   7.084   4.646   9.202
  164SOPE  C21318425   7.241   4.793   9.181
  164SOPE  H13R18426   7.324   4.724   9.151
  164SOPE  H13S18427   7.281   4.877   9.241
  164SOPE  C21418428   7.188   4.830   9.041
  164SOPE  H14R18429   7.259   4.898   8.990
  164SOPE  H14S18430   7.097   4.890   9.062
  164SOPE  C21518431   7.142   4.723   8.938
  164SOPE  H15R18432   7.110   4.782   8.850
  164SOPE  H15S18433   7.049   4.671   8.968
  164SOPE  C21618434   7.253   4.630   8.890
  164SOPE  H16R18435   7.279   4.558   8.971
  164SOPE  H16S18436   7.338   4.699   8.869
  164SOPE  C21718437   7.218   4.541   8.771
  164SOPE  H17R18438   7.211   4.601   8.678
  164SOPE  H17S18439   7.112   4.512   8.792
  164SOPE  C21818440   7.302   4.416   8.762
  164SOPE  H18R18441   7.281   4.349   8.849
  164SOPE  H18S18442   7.410   4.440   8.756
  164SOPE  H18T18443   7.286   4.360   8.667
  164SOPE   C3318444   6.573   4.459   9.833
  164SOPE   H3X18445   6.649   4.540   9.828
  164SOPE   H3Y18446   6.477   4.497   9.794
  164SOPE   C3418447   6.624   4.357   9.735
  164SOPE   H4X18448   6.536   4.289   9.727
  164SOPE   H4Y18449   6.708   4.296   9.775
  164SOPE   C3518450   6.661   4.416   9.599
  164SOPE   H5X18451   6.728   4.342   9.548
  164SOPE   H5Y18452   6.717   4.510   9.619
  164SOPE   C3618453   6.538   4.443   9.508
  164SOPE   H6X18454   6.456   4.486   9.569
  164SOPE   H6Y18455   6.499   4.345   9.472
  164SOPE   C3718456   6.597   4.521   9.389
  164SOPE   H7X18457   6.680   4.458   9.347
  164SOPE   H7Y18458   6.644   4.617   9.419
  164SOPE   C3818459   6.493   4.540   9.275
  164SOPE   H8X18460   6.400   4.581   9.319
  164SOPE   H8Y18461   6.460   4.448   9.222
  164SOPE   C3918462   6.539   4.643   9.175
  164SOPE   H9X18463   6.648   4.625   9.161
  164SOPE   H9Y18464   6.538   4.743   9.223
  164SOPE  C31018465   6.484   4.646   9.037
  164SOPE  H10X18466   6.376   4.618   9.037
  164SOPE  H10Y18467   6.529   4.566   8.974
  164SOPE  C31118468   6.511   4.779   8.957
  164SOPE  H11X18469   6.623   4.782   8.957
  164SOPE  H11Y18470   6.477   4.863   9.021
  164SOPE  C31218471   6.451   4.767   8.812
  164SOPE  H12X18472   6.379   4.684   8.800
  164SOPE  H12Y18473   6.538   4.772   8.742
  164SOPE  C31318474   6.369   4.898   8.787
  164SOPE  H13X18475   6.430   4.985   8.820
  164SOPE  H13Y18476   6.279   4.896   8.852
  164SOPE  C31418477   6.329   4.932   8.648
  164SOPE  H14X18478   6.274   4.845   8.606
  164SOPE  H14Y18479   6.419   4.950   8.585
  164SOPE  C31518480   6.250   5.060   8.643
  164SOPE  H15X18481   6.293   5.141   8.706
  164SOPE  H15Y18482   6.147   5.035   8.675
  164SOPE  C31618483   6.241   5.113   8.502
  164SOPE  H16X18484   6.218   5.031   8.430
  164SOPE  H16Y18485   6.337   5.160   8.474
  164SOPE  C31718486   6.128   5.211   8.474
  164SOPE  H17X18487   6.128   5.274   8.566
  164SOPE  H17Y18488   6.026   5.168   8.472
  164SOPE  C31818489   6.146   5.314   8.367
  164SOPE  H18X18490   6.062   5.386   8.377
  164SOPE  H18Y18491   6.134   5.266   8.268
  164SOPE  H18Z18492   6.249   5.355   8.369
  165SOPE     N18493   5.309   4.752  11.049
  165SOPE   HN118494   5.277   4.660  11.086
  165SOPE   HN218495   5.283   4.760  10.948
  165SOPE   HN318496   5.413   4.748  11.040
  165SOPE   C1218497   5.257   4.869  11.124
  165SOPE  H12A18498   5.324   4.873  11.213
  165SOPE  H12B18499   5.156   4.832  11.150
  165SOPE   C1118500   5.269   5.000  11.043
  165SOPE  H11A18501   5.378   5.017  11.031
  165SOPE  H11B18502   5.222   5.081  11.102
  165SOPE     P18503   5.077   4.997  10.860
  165SOPE   O1318504   4.987   4.984  10.974
  165SOPE   O1418505   5.065   4.892  10.760
  165SOPE   O1218506   5.226   4.980  10.908
  165SOPE   O1118507   5.064   5.143  10.794
  165SOPE    C118508   5.171   5.194  10.715
  165SOPE    HA18509   5.272   5.163  10.748
  165SOPE    HB18510   5.165   5.305  10.718
  165SOPE    C218511   5.154   5.161  10.562
  165SOPE    HS18512   5.191   5.250  10.508
  165SOPE   O2118513   5.017   5.130  10.531
  165SOPE   C2118514   4.939   5.226  10.550
  165SOPE   O2218515   4.966   5.341  10.581
  165SOPE   C2218516   4.798   5.184  10.512
  165SOPE   H2R18517   4.743   5.278  10.491
  165SOPE   H2S18518   4.747   5.133  10.597
  165SOPE    C318519   5.232   5.041  10.511
  165SOPE    HX18520   5.180   4.950  10.545
  165SOPE    HY18521   5.337   5.033  10.546
  165SOPE   O3118522   5.232   5.051  10.367
  165SOPE   C3118523   5.146   4.981  10.305
  165SOPE   O3218524   5.067   4.900  10.350
  165SOPE   C3218525   5.170   4.982  10.156
  165SOPE   H2X18526   5.105   5.062  10.113
  165SOPE   H2Y18527   5.137   4.885  10.114
  165SOPE   C2318528   4.785   5.093  10.390
  165SOPE   H3R18529   4.680   5.059  10.390
  165SOPE   H3S18530   4.848   5.003  10.409
  165SOPE   C2418531   4.817   5.163  10.258
  165SOPE   H4R18532   4.740   5.241  10.234
  165SOPE   H4S18533   4.917   5.210  10.248
  165SOPE   C2518534   4.809   5.063  10.134
  165SOPE   H5R18535   4.896   4.994  10.132
  165SOPE   H5S18536   4.710   5.015  10.152
  165SOPE   C2618537   4.798   5.141  10.000
  165SOPE   H6R18538   4.714   5.214  10.001
  165SOPE   H6S18539   4.893   5.195   9.980
  165SOPE   C2718540   4.759   5.040   9.887
  165SOPE   H7R18541   4.817   4.947   9.905
  165SOPE   H7S18542   4.655   5.003   9.902
  165SOPE   C2818543   4.777   5.100   9.747
  165SOPE   H8R18544   4.724   5.038   9.672
  165SOPE   H8S18545   4.716   5.193   9.739
  165SOPE   C2918546   4.918   5.132   9.701
  165SOPE   H9118547   4.957   5.227   9.741
  165SOPE  C21018548   4.991   5.070   9.609
  165SOPE  H10118549   5.095   5.106   9.602
  165SOPE  C21118550   4.948   4.950   9.523
  165SOPE  H11R18551   4.914   4.865   9.587
  165SOPE  H11S18552   5.031   4.895   9.474
  165SOPE  C21218553   4.862   4.984   9.396
  165SOPE  H12R18554   4.757   5.008   9.425
  165SOPE  H12S18555   4.873   4.895   9.330
  165SOPE  C21318556   4.925   5.103   9.308
  165SOPE  H13R18557   5.033   5.099   9.335
  165SOPE  H13S18558   4.882   5.198   9.346
  165SOPE  C21418559   4.924   5.091   9.155
  165SOPE  H14R18560   4.819   5.066   9.129
  165SOPE  H14S18561   4.987   5.010   9.113
  165SOPE  C21518562   4.959   5.223   9.084
  165SOPE  H15R18563   5.068   5.240   9.095
  165SOPE  H15S18564   4.910   5.307   9.137
  165SOPE  C21618565   4.934   5.224   8.937
  165SOPE  H16R18566   4.823   5.232   8.926
  165SOPE  H16S18567   4.967   5.129   8.889
  165SOPE  C21718568   4.998   5.347   8.876
  165SOPE  H17R18569   5.105   5.350   8.907
  165SOPE  H17S18570   4.954   5.444   8.909
  165SOPE  C21818571   4.993   5.338   8.726
  165SOPE  H18R18572   5.011   5.233   8.696
  165SOPE  H18S18573   5.070   5.392   8.665
  165SOPE  H18T18574   4.894   5.384   8.706
  165SOPE   C3318575   5.315   5.004  10.119
  165SOPE   H3X18576   5.383   4.943  10.182
  165SOPE   H3Y18577   5.347   5.109  10.135
  165SOPE   C3418578   5.353   4.973   9.972
  165SOPE   H4X18579   5.333   4.863   9.965
  165SOPE   H4Y18580   5.462   4.995   9.974
  165SOPE   C3518581   5.279   5.061   9.870
  165SOPE   H5X18582   5.173   5.032   9.882
  165SOPE   H5Y18583   5.308   5.018   9.772
  165SOPE   C3618584   5.313   5.213   9.890
  165SOPE   H6X18585   5.416   5.204   9.931
  165SOPE   H6Y18586   5.261   5.262   9.975
  165SOPE   C3718587   5.300   5.294   9.759
  165SOPE   H7X18588   5.296   5.404   9.774
  165SOPE   H7Y18589   5.198   5.269   9.724
  165SOPE   C3818590   5.409   5.257   9.659
  165SOPE   H8X18591   5.403   5.154   9.619
  165SOPE   H8Y18592   5.508   5.252   9.708
  165SOPE   C3918593   5.416   5.364   9.551
  165SOPE   H9X18594   5.475   5.443   9.602
  165SOPE   H9Y18595   5.318   5.412   9.531
  165SOPE  C31018596   5.481   5.326   9.424
  165SOPE  H10X18597   5.584   5.287   9.436
  165SOPE  H10Y18598   5.483   5.415   9.357
  165SOPE  C31118599   5.401   5.217   9.359
  165SOPE  H11X18600   5.296   5.250   9.365
  165SOPE  H11Y18601   5.411   5.116   9.406
  165SOPE  C31218602   5.447   5.186   9.216
  165SOPE  H12X18603   5.386   5.095   9.198
  165SOPE  H12Y18604   5.557   5.173   9.210
  165SOPE  C31318605   5.418   5.296   9.115
  165SOPE  H13X18606   5.436   5.395   9.163
  165SOPE  H13Y18607   5.312   5.297   9.081
  165SOPE  C31418608   5.511   5.287   8.992
  165SOPE  H14X18609   5.611   5.280   9.039
  165SOPE  H14Y18610   5.506   5.381   8.932
  165SOPE  C31518611   5.502   5.164   8.908
  165SOPE  H15X18612   5.516   5.069   8.963
  165SOPE  H15Y18613   5.593   5.167   8.845
  165SOPE  C31618614   5.375   5.176   8.828
  165SOPE  H16X18615   5.379   5.259   8.755
  165SOPE  H16Y18616   5.287   5.190   8.894
  165SOPE  C31718617   5.343   5.046   8.754
  165SOPE  H17X18618   5.265   5.063   8.677
  165SOPE  H17Y18619   5.306   4.965   8.821
  165SOPE  C31818620   5.461   4.992   8.670
  165SOPE  H18X18621   5.423   4.913   8.601
  165SOPE  H18Y18622   5.547   4.957   8.729
  165SOPE  H18Z18623   5.491   5.068   8.595
  166SOPE     N18624   1.604   5.412  11.053
  166SOPE   HN118625   1.695   5.405  11.104
  166SOPE   HN218626   1.557   5.497  11.090
  166SOPE   HN318627   1.548   5.327  11.072
  166SOPE   C1218628   1.629   5.438  10.906
  166SOPE  H12A18629   1.674   5.347  10.860
  166SOPE  H12B18630   1.696   5.526  10.903
  166SOPE   C1118631   1.492   5.475  10.839
  166SOPE  H11A18632   1.503   5.513  10.735
  166SOPE  H11B18633   1.440   5.553  10.898
  166SOPE     P18634   1.271   5.339  10.804
  166SOPE   O1318635   1.197   5.442  10.888
  166SOPE   O1418636   1.239   5.198  10.826
  166SOPE   O1218637   1.417   5.356  10.828
  166SOPE   O1118638   1.260   5.380  10.658
  166SOPE    C118639   1.291   5.310  10.540
  166SOPE    HA18640   1.211   5.321  10.463
  166SOPE    HB18641   1.293   5.201  10.560
  166SOPE    C218642   1.424   5.361  10.481
  166SOPE    HS18643   1.495   5.353  10.566
  166SOPE   O2118644   1.415   5.500  10.454
  166SOPE   C2118645   1.529   5.561  10.418
  166SOPE   O2218646   1.642   5.510  10.421
  166SOPE   C2218647   1.507   5.710  10.401
  166SOPE   H2R18648   1.507   5.759  10.501
  166SOPE   H2S18649   1.405   5.720  10.359
  166SOPE    C318650   1.467   5.286  10.354
  166SOPE    HX18651   1.480   5.178  10.375
  166SOPE    HY18652   1.566   5.318  10.316
  166SOPE   O3118653   1.358   5.306  10.259
  166SOPE   C3118654   1.360   5.418  10.174
  166SOPE   O3218655   1.461   5.483  10.166
  166SOPE   C3218656   1.227   5.453  10.117
  166SOPE   H2X18657   1.204   5.558  10.145
  166SOPE   H2Y18658   1.138   5.402  10.158
  166SOPE   C2318659   1.626   5.764  10.318
  166SOPE   H3R18660   1.662   5.691  10.242
  166SOPE   H3S18661   1.704   5.777  10.396
  166SOPE   C2418662   1.595   5.892  10.246
  166SOPE   H4R18663   1.565   5.971  10.318
  166SOPE   H4S18664   1.688   5.933  10.201
  166SOPE   C2518665   1.486   5.876  10.133
  166SOPE   H5R18666   1.529   5.793  10.072
  166SOPE   H5S18667   1.395   5.843  10.188
  166SOPE   C2618668   1.452   6.002  10.055
  166SOPE   H6R18669   1.361   5.963  10.004
  166SOPE   H6S18670   1.446   6.090  10.122
  166SOPE   C2718671   1.550   6.013   9.947
  166SOPE   H7R18672   1.555   6.116   9.904
  166SOPE   H7S18673   1.646   5.985   9.995
  166SOPE   C2818674   1.532   5.907   9.827
  166SOPE   H8R18675   1.607   5.947   9.755
  166SOPE   H8S18676   1.573   5.807   9.853
  166SOPE   C2918677   1.392   5.894   9.771
  166SOPE   H9118678   1.334   5.824   9.833
  166SOPE  C21018679   1.333   5.944   9.659
  166SOPE  H10118680   1.225   5.926   9.656
  166SOPE  C21118681   1.402   6.015   9.546
  166SOPE  H11R18682   1.509   6.027   9.574
  166SOPE  H11S18683   1.357   6.116   9.538
  166SOPE  C21218684   1.384   5.942   9.405
  166SOPE  H12R18685   1.409   6.011   9.322
  166SOPE  H12S18686   1.278   5.913   9.387
  166SOPE  C21318687   1.476   5.824   9.394
  166SOPE  H13R18688   1.476   5.764   9.487
  166SOPE  H13S18689   1.582   5.853   9.375
  166SOPE  C21418690   1.449   5.745   9.267
  166SOPE  H14R18691   1.338   5.742   9.261
  166SOPE  H14S18692   1.480   5.638   9.259
  166SOPE  C21518693   1.521   5.816   9.146
  166SOPE  H15R18694   1.630   5.808   9.162
  166SOPE  H15S18695   1.500   5.924   9.162
  166SOPE  C21618696   1.476   5.762   9.010
  166SOPE  H16R18697   1.366   5.755   9.013
  166SOPE  H16S18698   1.513   5.658   9.000
  166SOPE  C21718699   1.531   5.838   8.888
  166SOPE  H17R18700   1.637   5.873   8.887
  166SOPE  H17S18701   1.476   5.934   8.889
  166SOPE  C21818702   1.515   5.767   8.753
  166SOPE  H18R18703   1.584   5.681   8.741
  166SOPE  H18S18704   1.525   5.844   8.674
  166SOPE  H18T18705   1.414   5.724   8.740
  166SOPE   C3318706   1.226   5.450   9.961
  166SOPE   H3X18707   1.124   5.487   9.937
  166SOPE   H3Y18708   1.236   5.348   9.919
  166SOPE   C3418709   1.323   5.547   9.890
  166SOPE   H4X18710   1.424   5.516   9.922
  166SOPE   H4Y18711   1.292   5.651   9.913
  166SOPE   C3518712   1.315   5.535   9.738
  166SOPE   H5X18713   1.337   5.426   9.728
  166SOPE   H5Y18714   1.398   5.591   9.689
  166SOPE   C3618715   1.187   5.576   9.669
  166SOPE   H6X18716   1.194   5.687   9.664
  166SOPE   H6Y18717   1.100   5.538   9.725
  166SOPE   C3718718   1.187   5.536   9.522
  166SOPE   H7X18719   1.142   5.434   9.515
  166SOPE   H7Y18720   1.285   5.534   9.472
  166SOPE   C3818721   1.101   5.622   9.427
  166SOPE   H8X18722   1.158   5.717   9.416
  166SOPE   H8Y18723   1.002   5.628   9.476
  166SOPE   C3918724   1.073   5.543   9.299
  166SOPE   H9X18725   0.979   5.485   9.314
  166SOPE   H9Y18726   1.152   5.468   9.278
  166SOPE  C31018727   1.068   5.625   9.172
  166SOPE  H10X18728   1.159   5.688   9.168
  166SOPE  H10Y18729   0.976   5.688   9.172
  166SOPE  C31118730   1.052   5.547   9.036
  166SOPE  H11X18731   0.960   5.486   9.046
  166SOPE  H11Y18732   1.135   5.473   9.026
  166SOPE  C31218733   1.040   5.646   8.911
  166SOPE  H12X18734   1.124   5.719   8.900
  166SOPE  H12Y18735   0.952   5.711   8.928
  166SOPE  C31318736   1.011   5.570   8.783
  166SOPE  H13X18737   0.925   5.501   8.797
  166SOPE  H13Y18738   1.100   5.503   8.775
  166SOPE  C31418739   0.987   5.663   8.659
  166SOPE  H14X18740   1.074   5.732   8.658
  166SOPE  H14Y18741   0.889   5.714   8.672
  166SOPE  C31518742   1.001   5.597   8.522
  166SOPE  H15X18743   1.100   5.549   8.509
  166SOPE  H15Y18744   1.005   5.681   8.449
  166SOPE  C31618745   0.891   5.498   8.473
  166SOPE  H16X18746   0.888   5.408   8.538
  166SOPE  H16Y18747   0.927   5.465   8.373
  166SOPE  C31718748   0.752   5.559   8.450
  166SOPE  H17X18749   0.757   5.653   8.391
  166SOPE  H17Y18750   0.729   5.594   8.553
  166SOPE  C31818751   0.646   5.460   8.396
  166SOPE  H18X18752   0.544   5.504   8.392
  166SOPE  H18Y18753   0.643   5.376   8.468
  166SOPE  H18Z18754   0.678   5.424   8.296
  167SOPE     N18755   3.993   3.513   6.067
  167SOPE   HN118756   3.900   3.470   6.046
  167SOPE   HN218757   4.003   3.597   6.007
  167SOPE   HN318758   4.067   3.441   6.050
  167SOPE   C1218759   4.015   3.548   6.208
  167SOPE  H12A18760   4.125   3.563   6.219
  167SOPE  H12B18761   3.990   3.455   6.264
  167SOPE   C1118762   3.930   3.679   6.247
  167SOPE  H11A18763   3.987   3.770   6.220
  167SOPE  H11B18764   3.901   3.674   6.354
  167SOPE     P18765   3.679   3.770   6.219
  167SOPE   O1318766   3.575   3.735   6.118
  167SOPE   O1418767   3.713   3.910   6.219
  167SOPE   O1218768   3.810   3.685   6.174
  167SOPE   O1118769   3.644   3.711   6.362
  167SOPE    C118770   3.613   3.573   6.366
  167SOPE    HA18771   3.697   3.507   6.332
  167SOPE    HB18772   3.526   3.551   6.301
  167SOPE    C218773   3.590   3.535   6.510
  167SOPE    HS18774   3.572   3.425   6.511
  167SOPE   O2118775   3.482   3.603   6.576
  167SOPE   C2118776   3.361   3.577   6.531
  167SOPE   O2218777   3.336   3.477   6.457
  167SOPE   C2218778   3.260   3.666   6.612
  167SOPE   H2R18779   3.262   3.774   6.586
  167SOPE   H2S18780   3.285   3.664   6.720
  167SOPE    C318781   3.730   3.558   6.585
  167SOPE    HX18782   3.745   3.668   6.578
  167SOPE    HY18783   3.814   3.504   6.537
  167SOPE   O3118784   3.715   3.511   6.724
  167SOPE   C3118785   3.814   3.552   6.805
  167SOPE   O3218786   3.913   3.611   6.764
  167SOPE   C3218787   3.784   3.512   6.951
  167SOPE   H2X18788   3.806   3.403   6.955
  167SOPE   H2Y18789   3.678   3.533   6.980
  167SOPE   C2318790   3.117   3.626   6.593
  167SOPE   H3R18791   3.110   3.554   6.509
  167SOPE   H3S18792   3.037   3.700   6.571
  167SOPE   C2418793   3.052   3.546   6.706
  167SOPE   H4R18794   2.957   3.503   6.667
  167SOPE   H4S18795   3.115   3.460   6.740
  167SOPE   C2518796   3.026   3.645   6.825
  167SOPE   H5R18797   3.119   3.683   6.873
  167SOPE   H5S18798   2.972   3.738   6.796
  167SOPE   C2618799   2.942   3.581   6.939
  167SOPE   H6R18800   2.877   3.501   6.898
  167SOPE   H6S18801   3.013   3.537   7.012
  167SOPE   C2718802   2.847   3.677   7.008
  167SOPE   H7R18803   2.907   3.769   7.019
  167SOPE   H7S18804   2.763   3.702   6.940
  167SOPE   C2818805   2.789   3.615   7.144
  167SOPE   H8R18806   2.741   3.518   7.117
  167SOPE   H8S18807   2.880   3.594   7.204
  167SOPE   C2918808   2.695   3.713   7.210
  167SOPE   H9118809   2.619   3.751   7.141
  167SOPE  C21018810   2.698   3.765   7.331
  167SOPE  H10118811   2.616   3.828   7.368
  167SOPE  C21118812   2.791   3.728   7.440
  167SOPE  H11R18813   2.864   3.811   7.453
  167SOPE  H11S18814   2.867   3.650   7.421
  167SOPE  C21218815   2.714   3.705   7.572
  167SOPE  H12R18816   2.662   3.608   7.564
  167SOPE  H12S18817   2.643   3.790   7.577
  167SOPE  C21318818   2.807   3.718   7.700
  167SOPE  H13R18819   2.856   3.817   7.694
  167SOPE  H13S18820   2.889   3.643   7.693
  167SOPE  C21418821   2.733   3.685   7.837
  167SOPE  H14R18822   2.809   3.695   7.918
  167SOPE  H14S18823   2.695   3.581   7.834
  167SOPE  C21518824   2.621   3.794   7.869
  167SOPE  H15R18825   2.532   3.789   7.803
  167SOPE  H15S18826   2.684   3.884   7.853
  167SOPE  C21618827   2.582   3.790   8.018
  167SOPE  H16R18828   2.669   3.806   8.086
  167SOPE  H16S18829   2.534   3.691   8.031
  167SOPE  C21718830   2.469   3.884   8.067
  167SOPE  H17R18831   2.390   3.867   7.992
  167SOPE  H17S18832   2.502   3.988   8.047
  167SOPE  C21818833   2.426   3.856   8.214
  167SOPE  H18R18834   2.504   3.878   8.291
  167SOPE  H18S18835   2.405   3.748   8.230
  167SOPE  H18T18836   2.341   3.918   8.249
  167SOPE   C3318837   3.874   3.567   7.059
  167SOPE   H3X18838   3.979   3.542   7.032
  167SOPE   H3Y18839   3.847   3.509   7.150
  167SOPE   C3418840   3.855   3.716   7.086
  167SOPE   H4X18841   3.749   3.746   7.096
  167SOPE   H4Y18842   3.901   3.766   6.998
  167SOPE   C3518843   3.925   3.770   7.214
  167SOPE   H5X18844   3.956   3.876   7.230
  167SOPE   H5Y18845   4.020   3.717   7.235
  167SOPE   C3618846   3.828   3.754   7.332
  167SOPE   H6X18847   3.792   3.649   7.337
  167SOPE   H6Y18848   3.734   3.813   7.321
  167SOPE   C3718849   3.886   3.799   7.465
  167SOPE   H7X18850   3.881   3.907   7.488
  167SOPE   H7Y18851   3.996   3.782   7.454
  167SOPE   C3818852   3.845   3.709   7.584
  167SOPE   H8X18853   3.907   3.744   7.669
  167SOPE   H8Y18854   3.859   3.599   7.577
  167SOPE   C3918855   3.702   3.732   7.625
  167SOPE   H9X18856   3.633   3.711   7.540
  167SOPE   H9Y18857   3.702   3.842   7.639
  167SOPE  C31018858   3.640   3.664   7.747
  167SOPE  H10X18859   3.627   3.559   7.712
  167SOPE  H10Y18860   3.540   3.707   7.767
  167SOPE  C31118861   3.737   3.683   7.866
  167SOPE  H11X18862   3.763   3.791   7.870
  167SOPE  H11Y18863   3.824   3.616   7.848
  167SOPE  C31218864   3.686   3.647   8.003
  167SOPE  H12X18865   3.644   3.544   7.997
  167SOPE  H12Y18866   3.607   3.713   8.046
  167SOPE  C31318867   3.802   3.656   8.107
  167SOPE  H13X18868   3.875   3.574   8.087
  167SOPE  H13Y18869   3.761   3.626   8.205
  167SOPE  C31418870   3.870   3.790   8.140
  167SOPE  H14X18871   3.793   3.869   8.155
  167SOPE  H14Y18872   3.928   3.815   8.049
  167SOPE  C31518873   3.972   3.781   8.254
  167SOPE  H15X18874   4.024   3.683   8.249
  167SOPE  H15Y18875   3.918   3.789   8.351
  167SOPE  C31618876   4.088   3.881   8.257
  167SOPE  H16X18877   4.131   3.849   8.354
  167SOPE  H16Y18878   4.052   3.986   8.255
  167SOPE  C31718879   4.183   3.855   8.134
  167SOPE  H17X18880   4.137   3.831   8.036
  167SOPE  H17Y18881   4.234   3.759   8.157
  167SOPE  C31818882   4.283   3.965   8.113
  167SOPE  H18X18883   4.329   3.998   8.209
  167SOPE  H18Y18884   4.235   4.052   8.064
  167SOPE  H18Z18885   4.370   3.923   8.059
  168SOPE     N18886   3.094   0.813   6.361
  168SOPE   HN118887   3.047   0.897   6.400
  168SOPE   HN218888   3.166   0.839   6.290
  168SOPE   HN318889   3.014   0.762   6.317
  168SOPE   C1218890   3.147   0.727   6.475
  168SOPE  H12A18891   3.168   0.632   6.422
  168SOPE  H12B18892   3.078   0.717   6.561
  168SOPE   C1118893   3.285   0.792   6.523
  168SOPE  H11A18894   3.352   0.706   6.545
  168SOPE  H11B18895   3.265   0.860   6.608
  168SOPE     P18896   3.370   1.021   6.407
  168SOPE   O1318897   3.235   1.065   6.364
  168SOPE   O1418898   3.479   1.056   6.316
  168SOPE   O1218899   3.363   0.861   6.425
  168SOPE   O1118900   3.403   1.071   6.555
  168SOPE    C118901   3.528   1.056   6.614
  168SOPE    HA18902   3.586   1.149   6.595
  168SOPE    HB18903   3.589   0.970   6.578
  168SOPE    C218904   3.512   1.049   6.770
  168SOPE    HS18905   3.616   1.055   6.809
  168SOPE   O2118906   3.441   0.931   6.817
  168SOPE   C2118907   3.495   0.816   6.790
  168SOPE   O2218908   3.602   0.794   6.736
  168SOPE   C2218909   3.414   0.711   6.859
  168SOPE   H2R18910   3.406   0.623   6.791
  168SOPE   H2S18911   3.313   0.754   6.873
  168SOPE    C318912   3.430   1.174   6.814
  168SOPE    HX18913   3.327   1.162   6.777
  168SOPE    HY18914   3.466   1.265   6.761
  168SOPE   O3118915   3.434   1.190   6.957
  168SOPE   C3118916   3.334   1.146   7.041
  168SOPE   O3218917   3.240   1.077   7.010
  168SOPE   C3218918   3.363   1.220   7.169
  168SOPE   H2X18919   3.386   1.326   7.146
  168SOPE   H2Y18920   3.457   1.178   7.211
  168SOPE   C2318921   3.480   0.668   6.990
  168SOPE   H3R18922   3.525   0.747   7.053
  168SOPE   H3S18923   3.566   0.598   6.976
  168SOPE   C2418924   3.384   0.588   7.072
  168SOPE   H4R18925   3.291   0.648   7.068
  168SOPE   H4S18926   3.342   0.499   7.020
  168SOPE   C2518927   3.438   0.545   7.210
  168SOPE   H5R18928   3.363   0.481   7.261
  168SOPE   H5S18929   3.525   0.480   7.185
  168SOPE   C2618930   3.473   0.659   7.310
  168SOPE   H6R18931   3.514   0.607   7.399
  168SOPE   H6S18932   3.542   0.733   7.262
  168SOPE   C2718933   3.345   0.732   7.360
  168SOPE   H7R18934   3.309   0.797   7.278
  168SOPE   H7S18935   3.269   0.656   7.387
  168SOPE   C2818936   3.376   0.808   7.489
  168SOPE   H8R18937   3.391   0.727   7.563
  168SOPE   H8S18938   3.468   0.870   7.493
  168SOPE   C2918939   3.261   0.879   7.551
  168SOPE   H9118940   3.170   0.849   7.497
  168SOPE  C21018941   3.255   0.987   7.626
  168SOPE  H10118942   3.161   1.037   7.653
  168SOPE  C21118943   3.381   1.055   7.680
  168SOPE  H11R18944   3.446   1.085   7.595
  168SOPE  H11S18945   3.451   0.989   7.737
  168SOPE  C21218946   3.356   1.181   7.772
  168SOPE  H12R18947   3.293   1.251   7.712
  168SOPE  H12S18948   3.457   1.226   7.781
  168SOPE  C21318949   3.293   1.149   7.912
  168SOPE  H13R18950   3.183   1.138   7.900
  168SOPE  H13S18951   3.311   1.242   7.970
  168SOPE  C21418952   3.354   1.021   7.988
  168SOPE  H14R18953   3.465   1.023   7.985
  168SOPE  H14S18954   3.311   0.937   7.930
  168SOPE  C21518955   3.304   1.006   8.133
  168SOPE  H15R18956   3.194   1.004   8.125
  168SOPE  H15S18957   3.325   1.102   8.184
  168SOPE  C21618958   3.364   0.889   8.216
  168SOPE  H16R18959   3.319   0.889   8.317
  168SOPE  H16S18960   3.473   0.904   8.227
  168SOPE  C21718961   3.327   0.742   8.162
  168SOPE  H17R18962   3.383   0.661   8.211
  168SOPE  H17S18963   3.350   0.733   8.054
  168SOPE  C21818964   3.183   0.710   8.188
  168SOPE  H18R18965   3.152   0.605   8.171
  168SOPE  H18S18966   3.122   0.770   8.117
  168SOPE  H18T18967   3.151   0.729   8.293
  168SOPE   C3318968   3.238   1.222   7.264
  168SOPE   H3X18969   3.267   1.284   7.352
  168SOPE   H3Y18970   3.219   1.114   7.283
  168SOPE   C3418971   3.113   1.292   7.206
  168SOPE   H4X18972   3.080   1.262   7.104
  168SOPE   H4Y18973   3.133   1.401   7.211
  168SOPE   C3518974   2.990   1.265   7.299
  168SOPE   H5X18975   2.914   1.338   7.264
  168SOPE   H5Y18976   3.014   1.305   7.400
  168SOPE   C3618977   2.922   1.128   7.297
  168SOPE   H6X18978   2.985   1.037   7.299
  168SOPE   H6Y18979   2.863   1.121   7.203
  168SOPE   C3718980   2.813   1.112   7.409
  168SOPE   H7X18981   2.749   1.027   7.375
  168SOPE   H7Y18982   2.750   1.203   7.416
  168SOPE   C3818983   2.878   1.064   7.538
  168SOPE   H8X18984   2.951   1.135   7.582
  168SOPE   H8Y18985   2.944   0.985   7.498
  168SOPE   C3918986   2.777   1.010   7.635
  168SOPE   H9X18987   2.711   0.942   7.576
  168SOPE   H9Y18988   2.712   1.088   7.678
  168SOPE  C31018989   2.845   0.929   7.753
  168SOPE  H10X18990   2.941   0.967   7.795
  168SOPE  H10Y18991   2.888   0.842   7.700
  168SOPE  C31118992   2.753   0.906   7.871
  168SOPE  H11X18993   2.649   0.904   7.830
  168SOPE  H11Y18994   2.773   0.994   7.935
  168SOPE  C31218995   2.772   0.779   7.954
  168SOPE  H12X18996   2.855   0.796   8.025
  168SOPE  H12Y18997   2.801   0.695   7.887
  168SOPE  C31318998   2.651   0.755   8.038
  168SOPE  H13X18999   2.555   0.765   7.983
  168SOPE  H13Y19000   2.647   0.820   8.129
  168SOPE  C31419001   2.643   0.611   8.090
  168SOPE  H14X19002   2.740   0.583   8.136
  168SOPE  H14Y19003   2.631   0.540   8.005
  168SOPE  C31519004   2.527   0.576   8.186
  168SOPE  H15X19005   2.516   0.466   8.172
  168SOPE  H15Y19006   2.423   0.616   8.177
  168SOPE  C31619007   2.571   0.604   8.329
  168SOPE  H16X19008   2.589   0.714   8.335
  168SOPE  H16Y19009   2.670   0.558   8.347
  168SOPE  C31719010   2.467   0.548   8.429
  168SOPE  H17X19011   2.469   0.437   8.431
  168SOPE  H17Y19012   2.363   0.583   8.417
  168SOPE  C31819013   2.503   0.606   8.564
  168SOPE  H18X19014   2.608   0.584   8.593
  168SOPE  H18Y19015   2.433   0.576   8.645
  168SOPE  H18Z19016   2.485   0.715   8.563
  169SOPE     N19017   5.341   3.511   6.389
  169SOPE   HN119018   5.253   3.525   6.335
  169SOPE   HN219019   5.375   3.604   6.417
  169SOPE   HN319020   5.411   3.458   6.334
  169SOPE   C1219021   5.318   3.423   6.512
  169SOPE  H12A19022   5.222   3.456   6.556
  169SOPE  H12B19023   5.405   3.444   6.577
  169SOPE   C1119024   5.312   3.280   6.474
  169SOPE  H11A19025   5.223   3.253   6.413
  169SOPE  H11B19026   5.303   3.233   6.574
  169SOPE     P19027   5.534   3.140   6.470
  169SOPE   O1319028   5.659   3.160   6.395
  169SOPE   O1419029   5.478   3.001   6.485
  169SOPE   O1219030   5.432   3.236   6.408
  169SOPE   O1119031   5.557   3.200   6.615
  169SOPE    C119032   5.671   3.174   6.704
  169SOPE    HA19033   5.703   3.275   6.737
  169SOPE    HB19034   5.760   3.128   6.655
  169SOPE    C219035   5.633   3.094   6.828
  169SOPE    HS19036   5.725   3.075   6.887
  169SOPE   O2119037   5.567   2.969   6.801
  169SOPE   C2119038   5.630   2.868   6.738
  169SOPE   O2219039   5.744   2.867   6.699
  169SOPE   C2219040   5.537   2.750   6.733
  169SOPE   H2R19041   5.559   2.696   6.638
  169SOPE   H2S19042   5.433   2.787   6.725
  169SOPE    C319043   5.546   3.177   6.924
  169SOPE    HX19044   5.443   3.190   6.883
  169SOPE    HY19045   5.600   3.273   6.932
  169SOPE   O3119046   5.529   3.117   7.055
  169SOPE   C3119047   5.408   3.054   7.080
  169SOPE   O3219048   5.308   3.055   7.014
  169SOPE   C3219049   5.420   2.973   7.210
  169SOPE   H2X19050   5.523   2.931   7.213
  169SOPE   H2Y19051   5.349   2.888   7.209
  169SOPE   C2319052   5.567   2.647   6.846
  169SOPE   H3R19053   5.671   2.610   6.857
  169SOPE   H3S19054   5.512   2.554   6.819
  169SOPE   C2419055   5.516   2.689   6.983
  169SOPE   H4R19056   5.574   2.780   7.009
  169SOPE   H4S19057   5.410   2.721   6.976
  169SOPE   C2519058   5.549   2.587   7.090
  169SOPE   H5R19059   5.519   2.482   7.066
  169SOPE   H5S19060   5.659   2.579   7.078
  169SOPE   C2619061   5.512   2.633   7.238
  169SOPE   H6R19062   5.567   2.728   7.257
  169SOPE   H6S19063   5.406   2.665   7.244
  169SOPE   C2719064   5.540   2.522   7.339
  169SOPE   H7R19065   5.515   2.417   7.313
  169SOPE   H7S19066   5.649   2.530   7.360
  169SOPE   C2819067   5.463   2.534   7.468
  169SOPE   H8R19068   5.531   2.516   7.554
  169SOPE   H8S19069   5.443   2.644   7.472
  169SOPE   C2919070   5.337   2.441   7.474
  169SOPE   H9119071   5.307   2.416   7.372
  169SOPE  C21019072   5.278   2.385   7.585
  169SOPE  H10119073   5.183   2.330   7.574
  169SOPE  C21119074   5.322   2.411   7.728
  169SOPE  H11R19075   5.307   2.519   7.748
  169SOPE  H11S19076   5.429   2.384   7.739
  169SOPE  C21219077   5.249   2.317   7.824
  169SOPE  H12R19078   5.274   2.210   7.806
  169SOPE  H12S19079   5.138   2.326   7.823
  169SOPE  C21319080   5.275   2.350   7.969
  169SOPE  H13R19081   5.272   2.460   7.982
  169SOPE  H13S19082   5.374   2.306   7.994
  169SOPE  C21419083   5.181   2.289   8.074
  169SOPE  H14R19084   5.159   2.182   8.053
  169SOPE  H14S19085   5.080   2.333   8.065
  169SOPE  C21519086   5.234   2.305   8.215
  169SOPE  H15R19087   5.282   2.404   8.221
  169SOPE  H15S19088   5.315   2.230   8.227
  169SOPE  C21619089   5.134   2.289   8.324
  169SOPE  H16R19090   5.082   2.192   8.306
  169SOPE  H16S19091   5.060   2.371   8.314
  169SOPE  C21719092   5.197   2.291   8.466
  169SOPE  H17R19093   5.237   2.394   8.479
  169SOPE  H17S19094   5.290   2.234   8.490
  169SOPE  C21819095   5.090   2.263   8.574
  169SOPE  H18R19096   5.009   2.338   8.586
  169SOPE  H18S19097   5.128   2.246   8.677
  169SOPE  H18T19098   5.039   2.169   8.547
  169SOPE   C3319099   5.397   3.049   7.345
  169SOPE   H3X19100   5.304   3.109   7.335
  169SOPE   H3Y19101   5.485   3.110   7.373
  169SOPE   C3419102   5.377   2.945   7.461
  169SOPE   H4X19103   5.441   2.855   7.448
  169SOPE   H4Y19104   5.270   2.917   7.449
  169SOPE   C3519105   5.402   3.004   7.602
  169SOPE   H5X19106   5.337   3.092   7.623
  169SOPE   H5Y19107   5.512   3.021   7.603
  169SOPE   C3619108   5.360   2.893   7.711
  169SOPE   H6X19109   5.404   2.795   7.683
  169SOPE   H6Y19110   5.252   2.870   7.703
  169SOPE   C3719111   5.384   2.938   7.857
  169SOPE   H7X19112   5.381   3.048   7.870
  169SOPE   H7Y19113   5.480   2.910   7.907
  169SOPE   C3819114   5.277   2.869   7.944
  169SOPE   H8X19115   5.183   2.877   7.885
  169SOPE   H8Y19116   5.305   2.761   7.942
  169SOPE   C3919117   5.258   2.930   8.082
  169SOPE   H9X19118   5.247   3.040   8.073
  169SOPE   H9Y19119   5.358   2.906   8.124
  169SOPE  C31019120   5.146   2.870   8.174
  169SOPE  H10X19121   5.173   2.766   8.201
  169SOPE  H10Y19122   5.050   2.881   8.119
  169SOPE  C31119123   5.146   2.940   8.314
  169SOPE  H11X19124   5.048   2.918   8.363
  169SOPE  H11Y19125   5.163   3.046   8.287
  169SOPE  C31219126   5.268   2.909   8.406
  169SOPE  H12X19127   5.356   2.881   8.344
  169SOPE  H12Y19128   5.242   2.827   8.476
  169SOPE  C31319129   5.287   3.025   8.492
  169SOPE  H13X19130   5.195   3.071   8.532
  169SOPE  H13Y19131   5.338   3.107   8.437
  169SOPE  C31419132   5.389   2.985   8.606
  169SOPE  H14X19133   5.472   2.928   8.560
  169SOPE  H14Y19134   5.347   2.914   8.681
  169SOPE  C31519135   5.438   3.101   8.688
  169SOPE  H15X19136   5.359   3.163   8.734
  169SOPE  H15Y19137   5.484   3.184   8.630
  169SOPE  C31619138   5.548   3.051   8.783
  169SOPE  H16X19139   5.505   2.997   8.870
  169SOPE  H16Y19140   5.586   3.150   8.816
  169SOPE  C31719141   5.667   2.977   8.727
  169SOPE  H17X19142   5.623   2.889   8.675
  169SOPE  H17Y19143   5.731   2.939   8.809
  169SOPE  C31819144   5.746   3.043   8.616
  169SOPE  H18X19145   5.731   3.153   8.629
  169SOPE  H18Y19146   5.723   3.001   8.516
  169SOPE  H18Z19147   5.854   3.023   8.633
  170SOPE     N19148   6.678   1.061   6.428
  170SOPE   HN119149   6.768   1.012   6.446
  170SOPE   HN219150   6.611   1.015   6.363
  170SOPE   HN319151   6.691   1.156   6.389
  170SOPE   C1219152   6.603   1.079   6.555
  170SOPE  H12A19153   6.663   1.140   6.626
  170SOPE  H12B19154   6.599   0.978   6.602
  170SOPE   C1119155   6.465   1.134   6.529
  170SOPE  H11A19156   6.414   1.136   6.627
  170SOPE  H11B19157   6.408   1.068   6.460
  170SOPE     P19158   6.349   1.341   6.423
  170SOPE   O1319159   6.253   1.228   6.398
  170SOPE   O1419160   6.376   1.430   6.307
  170SOPE   O1219161   6.480   1.271   6.480
  170SOPE   O1119162   6.300   1.424   6.546
  170SOPE    C119163   6.390   1.497   6.629
  170SOPE    HA19164   6.403   1.602   6.596
  170SOPE    HB19165   6.491   1.451   6.633
  170SOPE    C219166   6.339   1.496   6.781
  170SOPE    HS19167   6.401   1.574   6.831
  170SOPE   O2119168   6.363   1.366   6.841
  170SOPE   C2119169   6.484   1.343   6.888
  170SOPE   O2219170   6.577   1.424   6.895
  170SOPE   C2219171   6.477   1.198   6.945
  170SOPE   H2R19172   6.437   1.126   6.871
  170SOPE   H2S19173   6.396   1.215   7.020
  170SOPE    C319174   6.193   1.537   6.788
  170SOPE    HX19175   6.133   1.473   6.721
  170SOPE    HY19176   6.200   1.642   6.752
  170SOPE   O3119177   6.136   1.519   6.923
  170SOPE   C3119178   6.185   1.611   7.002
  170SOPE   O3219179   6.263   1.701   6.978
  170SOPE   C3219180   6.138   1.577   7.144
  170SOPE   H2X19181   6.229   1.555   7.204
  170SOPE   H2Y19182   6.081   1.482   7.148
  170SOPE   C2319183   6.608   1.156   7.008
  170SOPE   H3R19184   6.637   1.241   7.073
  170SOPE   H3S19185   6.696   1.140   6.942
  170SOPE   C2419186   6.596   1.029   7.089
  170SOPE   H4R19187   6.504   1.040   7.150
  170SOPE   H4S19188   6.575   0.945   7.020
  170SOPE   C2519189   6.717   1.008   7.180
  170SOPE   H5R19190   6.807   0.998   7.116
  170SOPE   H5S19191   6.726   1.097   7.246
  170SOPE   C2619192   6.702   0.879   7.258
  170SOPE   H6R19193   6.693   0.796   7.185
  170SOPE   H6S19194   6.791   0.867   7.324
  170SOPE   C2719195   6.585   0.864   7.365
  170SOPE   H7R19196   6.486   0.848   7.318
  170SOPE   H7S19197   6.593   0.774   7.430
  170SOPE   C2819198   6.574   0.990   7.458
  170SOPE   H8R19199   6.562   1.071   7.383
  170SOPE   H8S19200   6.477   0.971   7.509
  170SOPE   C2919201   6.689   1.009   7.553
  170SOPE   H9119202   6.786   1.006   7.501
  170SOPE  C21019203   6.701   1.013   7.688
  170SOPE  H10119204   6.802   1.024   7.731
  170SOPE  C21119205   6.582   1.021   7.774
  170SOPE  H11R19206   6.506   0.947   7.742
  170SOPE  H11S19207   6.547   1.127   7.772
  170SOPE  C21219208   6.611   0.993   7.921
  170SOPE  H12R19209   6.696   1.057   7.951
  170SOPE  H12S19210   6.633   0.887   7.945
  170SOPE  C21319211   6.490   1.053   8.002
  170SOPE  H13R19212   6.408   0.990   7.959
  170SOPE  H13S19213   6.460   1.154   7.965
  170SOPE  C21419214   6.498   1.040   8.156
  170SOPE  H14R19215   6.580   1.104   8.194
  170SOPE  H14S19216   6.521   0.935   8.183
  170SOPE  C21519217   6.366   1.081   8.233
  170SOPE  H15R19218   6.291   0.999   8.243
  170SOPE  H15S19219   6.315   1.165   8.181
  170SOPE  C21619220   6.402   1.111   8.377
  170SOPE  H16R19221   6.472   1.197   8.372
  170SOPE  H16S19222   6.455   1.030   8.432
  170SOPE  C21719223   6.281   1.160   8.461
  170SOPE  H17R19224   6.211   1.076   8.441
  170SOPE  H17S19225   6.227   1.248   8.422
  170SOPE  C21819226   6.310   1.178   8.609
  170SOPE  H18R19227   6.357   1.084   8.647
  170SOPE  H18S19228   6.214   1.188   8.663
  170SOPE  H18T19229   6.362   1.274   8.628
  170SOPE   C3319230   6.059   1.692   7.209
  170SOPE   H3X19231   5.969   1.714   7.147
  170SOPE   H3Y19232   6.118   1.786   7.200
  170SOPE   C3419233   6.022   1.678   7.354
  170SOPE   H4X19234   6.114   1.671   7.415
  170SOPE   H4Y19235   5.963   1.585   7.369
  170SOPE   C3519236   5.941   1.797   7.403
  170SOPE   H5X19237   5.839   1.795   7.360
  170SOPE   H5Y19238   5.987   1.891   7.364
  170SOPE   C3619239   5.920   1.804   7.560
  170SOPE   H6X19240   6.016   1.805   7.615
  170SOPE   H6Y19241   5.862   1.713   7.586
  170SOPE   C3719242   5.836   1.927   7.595
  170SOPE   H7X19243   5.732   1.918   7.558
  170SOPE   H7Y19244   5.873   2.018   7.542
  170SOPE   C3819245   5.835   1.947   7.743
  170SOPE   H8X19246   5.941   1.965   7.772
  170SOPE   H8Y19247   5.800   1.859   7.801
  170SOPE   C3919248   5.759   2.070   7.802
  170SOPE   H9X19249   5.654   2.068   7.766
  170SOPE   H9Y19250   5.810   2.161   7.762
  170SOPE  C31019251   5.745   2.059   7.954
  170SOPE  H10X19252   5.839   2.080   8.008
  170SOPE  H10Y19253   5.720   1.953   7.976
  170SOPE  C31119254   5.639   2.155   8.018
  170SOPE  H11X19255   5.538   2.115   7.997
  170SOPE  H11Y19256   5.655   2.254   7.971
  170SOPE  C31219257   5.642   2.152   8.175
  170SOPE  H12X19258   5.573   2.225   8.221
  170SOPE  H12Y19259   5.750   2.151   8.203
  170SOPE  C31319260   5.575   2.025   8.243
  170SOPE  H13X19261   5.616   1.929   8.204
  170SOPE  H13Y19262   5.466   2.030   8.221
  170SOPE  C31419263   5.604   2.032   8.395
  170SOPE  H14X19264   5.531   2.108   8.431
  170SOPE  H14Y19265   5.700   2.077   8.429
  170SOPE  C31519266   5.592   1.903   8.473
  170SOPE  H15X19267   5.613   1.922   8.581
  170SOPE  H15Y19268   5.673   1.847   8.421
  170SOPE  C31619269   5.461   1.834   8.457
  170SOPE  H16X19270   5.432   1.811   8.352
  170SOPE  H16Y19271   5.377   1.903   8.481
  170SOPE  C31719272   5.435   1.710   8.548
  170SOPE  H17X19273   5.504   1.635   8.504
  170SOPE  H17Y19274   5.329   1.684   8.531
  170SOPE  C31819275   5.477   1.723   8.692
  170SOPE  H18X19276   5.587   1.738   8.701
  170SOPE  H18Y19277   5.464   1.621   8.736
  170SOPE  H18Z19278   5.415   1.790   8.755
  171SOPE     N19279   6.637   4.346   6.089
  171SOPE   HN119280   6.729   4.348   6.137
  171SOPE   HN219281   6.599   4.251   6.108
  171SOPE   HN319282   6.654   4.358   5.988
  171SOPE   C1219283   6.533   4.434   6.153
  171SOPE  H12A19284   6.444   4.435   6.087
  171SOPE  H12B19285   6.579   4.535   6.146
  171SOPE   C1119286   6.503   4.385   6.298
  171SOPE  H11A19287   6.456   4.284   6.291
  171SOPE  H11B19288   6.429   4.453   6.345
  171SOPE     P19289   6.687   4.490   6.457
  171SOPE   O1319290   6.725   4.582   6.351
  171SOPE   O1419291   6.785   4.438   6.551
  171SOPE   O1219292   6.617   4.374   6.385
  171SOPE   O1119293   6.573   4.565   6.529
  171SOPE    C119294   6.465   4.492   6.600
  171SOPE    HA19295   6.464   4.384   6.578
  171SOPE    HB19296   6.369   4.526   6.555
  171SOPE    C219297   6.468   4.514   6.756
  171SOPE    HS19298   6.388   4.454   6.804
  171SOPE   O2119299   6.439   4.652   6.784
  171SOPE   C2119300   6.309   4.695   6.770
  171SOPE   O2219301   6.219   4.613   6.767
  171SOPE   C2219302   6.311   4.855   6.784
  171SOPE   H2R19303   6.208   4.866   6.825
  171SOPE   H2S19304   6.323   4.903   6.685
  171SOPE    C319305   6.606   4.470   6.823
  171SOPE    HX19306   6.680   4.529   6.765
  171SOPE    HY19307   6.618   4.362   6.802
  171SOPE   O3119308   6.602   4.495   6.963
  171SOPE   C3119309   6.549   4.398   7.041
  171SOPE   O3219310   6.506   4.294   7.006
  171SOPE   C3219311   6.528   4.431   7.191
  171SOPE   H2X19312   6.504   4.332   7.236
  171SOPE   H2Y19313   6.444   4.502   7.209
  171SOPE   C2319314   6.419   4.910   6.886
  171SOPE   H3R19315   6.423   5.019   6.868
  171SOPE   H3S19316   6.525   4.882   6.866
  171SOPE   C2419317   6.374   4.867   7.022
  171SOPE   H4R19318   6.266   4.890   7.035
  171SOPE   H4S19319   6.397   4.759   7.031
  171SOPE   C2519320   6.435   4.943   7.139
  171SOPE   H5R19321   6.545   4.954   7.127
  171SOPE   H5S19322   6.391   5.045   7.138
  171SOPE   C2619323   6.419   4.866   7.274
  171SOPE   H6R19324   6.326   4.805   7.265
  171SOPE   H6S19325   6.505   4.802   7.303
  171SOPE   C2719326   6.417   4.955   7.395
  171SOPE   H7R19327   6.517   4.999   7.418
  171SOPE   H7S19328   6.349   5.039   7.368
  171SOPE   C2819329   6.374   4.890   7.528
  171SOPE   H8R19330   6.265   4.874   7.516
  171SOPE   H8S19331   6.426   4.792   7.539
  171SOPE   C2919332   6.420   4.977   7.646
  171SOPE   H9119333   6.515   5.030   7.628
  171SOPE  C21019334   6.345   5.014   7.749
  171SOPE  H10119335   6.383   5.097   7.811
  171SOPE  C21119336   6.204   4.980   7.768
  171SOPE  H11R19337   6.177   4.880   7.727
  171SOPE  H11S19338   6.141   5.054   7.715
  171SOPE  C21219339   6.155   4.985   7.913
  171SOPE  H12R19340   6.166   5.085   7.959
  171SOPE  H12S19341   6.214   4.911   7.972
  171SOPE  C21319342   6.005   4.947   7.914
  171SOPE  H13R19343   5.985   4.847   7.872
  171SOPE  H13S19344   5.953   5.021   7.850
  171SOPE  C21419345   5.950   4.948   8.062
  171SOPE  H14R19346   5.951   5.050   8.106
  171SOPE  H14S19347   6.009   4.874   8.120
  171SOPE  C21519348   5.807   4.892   8.074
  171SOPE  H15R19349   5.775   4.806   8.011
  171SOPE  H15S19350   5.746   4.977   8.036
  171SOPE  C21619351   5.771   4.866   8.221
  171SOPE  H16R19352   5.854   4.807   8.264
  171SOPE  H16S19353   5.673   4.814   8.229
  171SOPE  C21719354   5.768   4.988   8.319
  171SOPE  H17R19355   5.687   5.057   8.288
  171SOPE  H17S19356   5.868   5.038   8.314
  171SOPE  C21819357   5.747   4.935   8.461
  171SOPE  H18R19358   5.836   4.874   8.487
  171SOPE  H18S19359   5.659   4.868   8.454
  171SOPE  H18T19360   5.733   5.007   8.545
  171SOPE   C3319361   6.649   4.500   7.257
  171SOPE   H3X19362   6.668   4.602   7.217
  171SOPE   H3Y19363   6.741   4.439   7.242
  171SOPE   C3419364   6.635   4.493   7.414
  171SOPE   H4X19365   6.631   4.392   7.460
  171SOPE   H4Y19366   6.528   4.517   7.436
  171SOPE   C3519367   6.734   4.586   7.485
  171SOPE   H5X19368   6.727   4.691   7.448
  171SOPE   H5Y19369   6.835   4.549   7.456
  171SOPE   C3619370   6.709   4.588   7.637
  171SOPE   H6X19371   6.615   4.644   7.660
  171SOPE   H6Y19372   6.794   4.638   7.688
  171SOPE   C3719373   6.696   4.449   7.709
  171SOPE   H7X19374   6.780   4.379   7.692
  171SOPE   H7Y19375   6.600   4.401   7.682
  171SOPE   C3819376   6.699   4.448   7.861
  171SOPE   H8X19377   6.605   4.496   7.895
  171SOPE   H8Y19378   6.782   4.514   7.891
  171SOPE   C3919379   6.708   4.316   7.941
  171SOPE   H9X19380   6.757   4.242   7.874
  171SOPE   H9Y19381   6.611   4.267   7.963
  171SOPE  C31019382   6.772   4.334   8.078
  171SOPE  H10X19383   6.694   4.376   8.145
  171SOPE  H10Y19384   6.847   4.415   8.074
  171SOPE  C31119385   6.824   4.202   8.139
  171SOPE  H11X19386   6.872   4.224   8.237
  171SOPE  H11Y19387   6.899   4.146   8.079
  171SOPE  C31219388   6.713   4.105   8.201
  171SOPE  H12X19389   6.766   4.028   8.260
  171SOPE  H12Y19390   6.655   4.060   8.118
  171SOPE  C31319391   6.625   4.184   8.297
  171SOPE  H13X19392   6.564   4.267   8.255
  171SOPE  H13Y19393   6.699   4.228   8.367
  171SOPE  C31419394   6.527   4.096   8.377
  171SOPE  H14X19395   6.594   4.022   8.426
  171SOPE  H14Y19396   6.468   4.038   8.302
  171SOPE  C31519397   6.447   4.159   8.491
  171SOPE  H15X19398   6.383   4.237   8.443
  171SOPE  H15Y19399   6.519   4.209   8.560
  171SOPE  C31619400   6.361   4.054   8.551
  171SOPE  H16X19401   6.440   3.998   8.604
  171SOPE  H16Y19402   6.314   3.984   8.478
  171SOPE  C31719403   6.264   4.104   8.659
  171SOPE  H17X19404   6.178   4.160   8.618
  171SOPE  H17Y19405   6.333   4.169   8.717
  171SOPE  C31819406   6.206   3.986   8.747
  171SOPE  H18X19407   6.135   4.033   8.818
  171SOPE  H18Y19408   6.278   3.930   8.811
  171SOPE  H18Z19409   6.145   3.923   8.679
  172SOPE     N19410   0.062   6.097   6.526
  172SOPE   HN119411   0.077   6.200   6.527
  172SOPE   HN219412  -0.038   6.070   6.515
  172SOPE   HN319413   0.109   6.056   6.609
  172SOPE   C1219414   0.132   6.041   6.404
  172SOPE  H12A19415   0.072   6.081   6.320
  172SOPE  H12B19416   0.128   5.930   6.398
  172SOPE   C1119417   0.273   6.095   6.394
  172SOPE  H11A19418   0.266   6.202   6.364
  172SOPE  H11B19419   0.325   6.044   6.311
  172SOPE     P19420   0.491   6.138   6.527
  172SOPE   O1319421   0.508   6.232   6.408
  172SOPE   O1419422   0.590   6.025   6.539
  172SOPE   O1219423   0.345   6.071   6.517
  172SOPE   O1119424   0.496   6.226   6.662
  172SOPE    C119425   0.390   6.306   6.716
  172SOPE    HA19426   0.290   6.259   6.701
  172SOPE    HB19427   0.383   6.403   6.663
  172SOPE    C219428   0.417   6.330   6.870
  172SOPE    HS19429   0.498   6.406   6.867
  172SOPE   O2119430   0.463   6.208   6.939
  172SOPE   C2119431   0.382   6.104   6.946
  172SOPE   O2219432   0.266   6.091   6.905
  172SOPE   C2219433   0.446   5.992   7.017
  172SOPE   H2R19434   0.497   5.937   6.936
  172SOPE   H2S19435   0.366   5.926   7.057
  172SOPE    C319436   0.298   6.396   6.936
  172SOPE    HX19437   0.207   6.333   6.926
  172SOPE    HY19438   0.267   6.491   6.888
  172SOPE   O3119439   0.325   6.423   7.074
  172SOPE   C3119440   0.393   6.534   7.106
  172SOPE   O3219441   0.420   6.626   7.026
  172SOPE   C3219442   0.432   6.535   7.252
  172SOPE   H2X19443   0.539   6.561   7.270
  172SOPE   H2Y19444   0.409   6.432   7.287
  172SOPE   C2319445   0.546   6.017   7.126
  172SOPE   H3R19446   0.605   6.107   7.098
  172SOPE   H3S19447   0.615   5.930   7.128
  172SOPE   C2419448   0.490   6.027   7.261
  172SOPE   H4R19449   0.393   6.081   7.254
  172SOPE   H4S19450   0.457   5.924   7.287
  172SOPE   C2519451   0.570   6.096   7.366
  172SOPE   H5R19452   0.657   6.031   7.387
  172SOPE   H5S19453   0.598   6.196   7.326
  172SOPE   C2619454   0.478   6.113   7.489
  172SOPE   H6R19455   0.380   6.158   7.462
  172SOPE   H6S19456   0.471   6.012   7.536
  172SOPE   C2719457   0.524   6.204   7.608
  172SOPE   H7R19458   0.629   6.233   7.587
  172SOPE   H7S19459   0.455   6.289   7.625
  172SOPE   C2819460   0.524   6.110   7.735
  172SOPE   H8R19461   0.434   6.045   7.737
  172SOPE   H8S19462   0.618   6.051   7.727
  172SOPE   C2919463   0.533   6.199   7.862
  172SOPE   H9119464   0.633   6.238   7.887
  172SOPE  C21019465   0.426   6.257   7.912
  172SOPE  H10119466   0.449   6.307   8.007
  172SOPE  C21119467   0.280   6.233   7.891
  172SOPE  H11R19468   0.269   6.140   7.831
  172SOPE  H11S19469   0.231   6.316   7.836
  172SOPE  C21219470   0.181   6.216   8.021
  172SOPE  H12R19471   0.227   6.134   8.080
  172SOPE  H12S19472   0.086   6.173   7.982
  172SOPE  C21319473   0.168   6.343   8.108
  172SOPE  H13R19474   0.109   6.424   8.061
  172SOPE  H13S19475   0.272   6.376   8.129
  172SOPE  C21419476   0.099   6.328   8.248
  172SOPE  H14R19477   0.108   6.227   8.292
  172SOPE  H14S19478  -0.011   6.335   8.237
  172SOPE  C21519479   0.150   6.418   8.360
  172SOPE  H15R19480   0.134   6.522   8.326
  172SOPE  H15S19481   0.260   6.411   8.374
  172SOPE  C21619482   0.070   6.404   8.498
  172SOPE  H16R19483   0.129   6.468   8.568
  172SOPE  H16S19484   0.063   6.296   8.521
  172SOPE  C21719485  -0.068   6.464   8.496
  172SOPE  H17R19486  -0.135   6.434   8.413
  172SOPE  H17S19487  -0.049   6.574   8.497
  172SOPE  C21819488  -0.153   6.444   8.622
  172SOPE  H18R19489  -0.144   6.344   8.669
  172SOPE  H18S19490  -0.258   6.475   8.601
  172SOPE  H18T19491  -0.119   6.517   8.698
  172SOPE   C3319492   0.339   6.636   7.323
  172SOPE   H3X19493   0.239   6.645   7.276
  172SOPE   H3Y19494   0.388   6.735   7.313
  172SOPE   C3419495   0.325   6.610   7.473
  172SOPE   H4X19496   0.263   6.519   7.487
  172SOPE   H4Y19497   0.261   6.693   7.511
  172SOPE   C3519498   0.457   6.597   7.556
  172SOPE   H5X19499   0.512   6.692   7.537
  172SOPE   H5Y19500   0.510   6.513   7.506
  172SOPE   C3619501   0.451   6.577   7.703
  172SOPE   H6X19502   0.390   6.489   7.733
  172SOPE   H6Y19503   0.395   6.658   7.754
  172SOPE   C3719504   0.582   6.588   7.777
  172SOPE   H7X19505   0.640   6.675   7.741
  172SOPE   H7Y19506   0.638   6.495   7.754
  172SOPE   C3819507   0.567   6.603   7.930
  172SOPE   H8X19508   0.512   6.525   7.987
  172SOPE   H8Y19509   0.510   6.696   7.951
  172SOPE   C3919510   0.699   6.624   8.002
  172SOPE   H9X19511   0.774   6.680   7.942
  172SOPE   H9Y19512   0.739   6.525   8.034
  172SOPE  C31019513   0.693   6.698   8.144
  172SOPE  H10X19514   0.650   6.792   8.104
  172SOPE  H10Y19515   0.794   6.715   8.187
  172SOPE  C31119516   0.599   6.652   8.255
  172SOPE  H11X19517   0.656   6.570   8.304
  172SOPE  H11Y19518   0.511   6.606   8.206
  172SOPE  C31219519   0.564   6.760   8.362
  172SOPE  H12X19520   0.482   6.828   8.329
  172SOPE  H12Y19521   0.657   6.818   8.380
  172SOPE  C31319522   0.499   6.701   8.486
  172SOPE  H13X19523   0.579   6.630   8.517
  172SOPE  H13Y19524   0.410   6.642   8.456
  172SOPE  C31419525   0.464   6.793   8.610
  172SOPE  H14X19526   0.398   6.869   8.564
  172SOPE  H14Y19527   0.554   6.844   8.651
  172SOPE  C31519528   0.388   6.701   8.706
  172SOPE  H15X19529   0.294   6.675   8.654
  172SOPE  H15Y19530   0.346   6.753   8.795
  172SOPE  C31619531   0.445   6.565   8.756
  172SOPE  H16X19532   0.544   6.579   8.805
  172SOPE  H16Y19533   0.463   6.488   8.678
  172SOPE  C31719534   0.370   6.495   8.875
  172SOPE  H17X19535   0.375   6.573   8.953
  172SOPE  H17Y19536   0.436   6.406   8.886
  172SOPE  C31819537   0.231   6.463   8.851
  172SOPE  H18X19538   0.220   6.372   8.788
  172SOPE  H18Y19539   0.178   6.553   8.813
  172SOPE  H18Z19540   0.181   6.448   8.949
  173SAPI   C1219541   2.239   3.356  11.052
  173SAPI    H219542   2.302   3.277  11.007
  173SAPI    O219543   2.222   3.319  11.194
  173SAPI   HO219544   2.171   3.238  11.191
  173SAPI   C1319545   2.316   3.485  11.047
  173SAPI    H319546   2.326   3.523  10.943
  173SAPI    O319547   2.449   3.472  11.095
  173SAPI   HO319548   2.447   3.470  11.191
  173SAPI   C1419549   2.250   3.592  11.123
  173SAPI    H419550   2.236   3.555  11.227
  173SAPI    O419551   2.326   3.716  11.103
  173SAPI   HO419552   2.373   3.709  11.020
  173SAPI   C1519553   2.105   3.605  11.068
  173SAPI    H519554   2.112   3.649  10.966
  173SAPI    O519555   2.036   3.697  11.153
  173SAPI   HO519556   1.953   3.723  11.113
  173SAPI   C1619557   2.027   3.473  11.043
  173SAPI    H619558   2.000   3.428  11.140
  173SAPI    O619559   1.909   3.496  10.975
  173SAPI   HO619560   1.899   3.437  10.900
  173SAPI   C1119561   2.118   3.372  10.970
  173SAPI    H119562   2.143   3.422  10.874
  173SAPI     P19563   2.018   3.187  10.810
  173SAPI   O1319564   1.927   3.075  10.829
  173SAPI   O1419565   2.136   3.174  10.721
  173SAPI   O1219566   2.052   3.246  10.964
  173SAPI   O1119567   1.924   3.301  10.765
  173SAPI    C119568   1.805   3.268  10.696
  173SAPI    HA19569   1.794   3.160  10.670
  173SAPI    HB19570   1.720   3.289  10.765
  173SAPI    C219571   1.807   3.331  10.553
  173SAPI    HS19572   1.904   3.311  10.502
  173SAPI   O2119573   1.782   3.475  10.564
  173SAPI   C2119574   1.890   3.559  10.572
  173SAPI   O2219575   2.007   3.512  10.568
  173SAPI   C2219576   1.849   3.702  10.579
  173SAPI   H2R19577   1.777   3.700  10.664
  173SAPI   H2S19578   1.931   3.765  10.619
  173SAPI    C319579   1.691   3.276  10.475
  173SAPI    HX19580   1.611   3.336  10.523
  173SAPI    HY19581   1.673   3.167  10.487
  173SAPI   O3119582   1.687   3.318  10.336
  173SAPI   C3119583   1.760   3.239  10.261
  173SAPI   O3219584   1.824   3.147  10.301
  173SAPI   C3219585   1.742   3.289  10.111
  173SAPI   H2X19586   1.701   3.393  10.113
  173SAPI   H2Y19587   1.666   3.233  10.053
  173SAPI   C2319588   1.780   3.757  10.454
  173SAPI   H3R19589   1.714   3.842  10.482
  173SAPI   H3S19590   1.723   3.674  10.407
  173SAPI   C2419591   1.866   3.816  10.343
  173SAPI   H4R19592   1.942   3.881  10.390
  173SAPI   H4S19593   1.805   3.877  10.274
  173SAPI   C2519594   1.935   3.700  10.275
  173SAPI   H5R19595   1.997   3.628  10.330
  173SAPI   C2619596   1.936   3.669  10.141
  173SAPI   H6R19597   1.972   3.568  10.117
  173SAPI   C2719598   1.871   3.752  10.026
  173SAPI   H7R19599   1.862   3.862  10.041
  173SAPI   H7S19600   1.763   3.727  10.016
  173SAPI   C2819601   1.948   3.720   9.898
  173SAPI   H8R19602   2.003   3.625   9.888
  173SAPI   C2919603   1.960   3.801   9.792
  173SAPI   H9R19604   2.017   3.764   9.706
  173SAPI  C21019605   1.902   3.937   9.776
  173SAPI  H10R19606   1.832   3.951   9.861
  173SAPI  H10S19607   1.837   3.938   9.685
  173SAPI  C21119608   2.014   4.038   9.778
  173SAPI  H11R19609   2.087   4.026   9.860
  173SAPI  C21219610   2.043   4.117   9.678
  173SAPI  H12R19611   2.108   4.201   9.704
  173SAPI  C21319612   1.958   4.127   9.555
  173SAPI  H13R19613   1.872   4.189   9.586
  173SAPI  H13S19614   1.926   4.030   9.511
  173SAPI  C21419615   2.027   4.207   9.444
  173SAPI  H14R19616   2.134   4.188   9.427
  173SAPI  C21519617   1.970   4.292   9.356
  173SAPI  H15R19618   2.033   4.329   9.274
  173SAPI  C21619619   1.822   4.320   9.352
  173SAPI  H16R19620   1.798   4.421   9.390
  173SAPI  H16S19621   1.760   4.256   9.419
  173SAPI  C21719622   1.762   4.332   9.211
  173SAPI  H17R19623   1.651   4.330   9.202
  173SAPI  H17S19624   1.794   4.241   9.158
  173SAPI  C21819625   1.804   4.455   9.137
  173SAPI  H18R19626   1.909   4.489   9.146
  173SAPI  H18S19627   1.739   4.536   9.176
  173SAPI  C21919628   1.785   4.445   8.983
  173SAPI  H19R19629   1.856   4.369   8.943
  173SAPI  H19S19630   1.807   4.545   8.939
  173SAPI  C22019631   1.654   4.402   8.922
  173SAPI  H20R19632   1.644   4.438   8.817
  173SAPI  H20S19633   1.569   4.445   8.979
  173SAPI  H20T19634   1.650   4.291   8.916
  173SAPI   C3319635   1.870   3.291  10.030
  173SAPI   H3X19636   1.917   3.190  10.025
  173SAPI   H3Y19637   1.948   3.345  10.088
  173SAPI   C3419638   1.850   3.336   9.881
  173SAPI   H4X19639   1.796   3.432   9.889
  173SAPI   H4Y19640   1.790   3.258   9.829
  173SAPI   C3519641   1.982   3.342   9.808
  173SAPI   H5X19642   2.018   3.237   9.811
  173SAPI   H5Y19643   2.059   3.404   9.859
  173SAPI   C3619644   1.982   3.384   9.656
  173SAPI   H6X19645   2.087   3.372   9.624
  173SAPI   H6Y19646   1.965   3.494   9.645
  173SAPI   C3719647   1.881   3.304   9.567
  173SAPI   H7X19648   1.781   3.297   9.614
  173SAPI   H7Y19649   1.920   3.200   9.564
  173SAPI   C3819650   1.861   3.365   9.429
  173SAPI   H8X19651   1.910   3.464   9.423
  173SAPI   H8Y19652   1.754   3.378   9.402
  173SAPI   C3919653   1.934   3.271   9.328
  173SAPI   H9X19654   1.883   3.173   9.314
  173SAPI   H9Y19655   2.039   3.256   9.364
  173SAPI  C31019656   1.957   3.329   9.185
  173SAPI  H10X19657   2.010   3.258   9.119
  173SAPI  H10Y19658   2.022   3.418   9.200
  173SAPI  C31119659   1.825   3.372   9.122
  173SAPI  H11X19660   1.787   3.457   9.183
  173SAPI  H11Y19661   1.756   3.285   9.121
  173SAPI  C31219662   1.849   3.425   8.980
  173SAPI  H12X19663   1.749   3.435   8.933
  173SAPI  H12Y19664   1.911   3.352   8.923
  173SAPI  C31319665   1.907   3.567   8.974
  173SAPI  H13X19666   2.002   3.574   9.031
  173SAPI  H13Y19667   1.825   3.632   9.013
  173SAPI  C31419668   1.932   3.608   8.825
  173SAPI  H14X19669   1.832   3.616   8.778
  173SAPI  H14Y19670   1.992   3.532   8.770
  173SAPI  C31519671   2.015   3.739   8.813
  173SAPI  H15X19672   2.048   3.748   8.707
  173SAPI  H15Y19673   2.106   3.716   8.873
  173SAPI  C31619674   1.943   3.863   8.867
  173SAPI  H16X19675   1.912   3.824   8.967
  173SAPI  H16Y19676   1.848   3.869   8.809
  173SAPI  C31719677   2.019   3.992   8.863
  173SAPI  H17X19678   2.056   4.016   8.762
  173SAPI  H17Y19679   2.101   3.983   8.938
  173SAPI  C31819680   1.936   4.108   8.918
  173SAPI  H18X19681   1.999   4.194   8.949
  173SAPI  H18Y19682   1.885   4.067   9.008
  173SAPI  H18Z19683   1.862   4.146   8.845
  174SAPI   C1219684   5.484   4.352  11.215
  174SAPI    H219685   5.467   4.253  11.262
  174SAPI    O219686   5.356   4.420  11.211
  174SAPI   HO219687   5.294   4.362  11.167
  174SAPI   C1319688   5.588   4.435  11.291
  174SAPI    H319689   5.684   4.380  11.302
  174SAPI    O319690   5.553   4.449  11.428
  174SAPI   HO319691   5.630   4.442  11.484
  174SAPI   C1419692   5.619   4.568  11.228
  174SAPI    H419693   5.530   4.631  11.249
  174SAPI    O419694   5.734   4.644  11.284
  174SAPI   HO419695   5.702   4.735  11.279
  174SAPI   C1519696   5.623   4.571  11.076
  174SAPI    H519697   5.732   4.555  11.057
  174SAPI    O519698   5.579   4.690  11.019
  174SAPI   HO519699   5.658   4.729  10.982
  174SAPI   C1619700   5.561   4.452  10.994
  174SAPI    H619701   5.463   4.490  10.958
  174SAPI    O619702   5.645   4.430  10.879
  174SAPI   HO619703   5.586   4.384  10.819
  174SAPI   C1119704   5.542   4.327  11.071
  174SAPI    H119705   5.641   4.281  11.092
  174SAPI     P19706   5.511   4.116  10.906
  174SAPI   O1319707   5.411   3.999  10.902
  174SAPI   O1419708   5.653   4.082  10.936
  174SAPI   O1219709   5.461   4.234  11.007
  174SAPI   O1119710   5.504   4.198  10.768
  174SAPI    C119711   5.384   4.243  10.715
  174SAPI    HA19712   5.304   4.241  10.793
  174SAPI    HB19713   5.393   4.347  10.675
  174SAPI    C219714   5.328   4.155  10.601
  174SAPI    HS19715   5.355   4.055  10.641
  174SAPI   O2119716   5.411   4.183  10.485
  174SAPI   C2119717   5.420   4.096  10.391
  174SAPI   O2219718   5.401   3.979  10.401
  174SAPI   C2219719   5.469   4.173  10.259
  174SAPI   H2R19720   5.441   4.281  10.265
  174SAPI   H2S19721   5.579   4.169  10.251
  174SAPI    C319722   5.183   4.171  10.583
  174SAPI    HX19723   5.137   4.131  10.676
  174SAPI    HY19724   5.149   4.117  10.493
  174SAPI   O3119725   5.160   4.309  10.567
  174SAPI   C3119726   5.157   4.354  10.438
  174SAPI   O3219727   5.181   4.285  10.342
  174SAPI   C3219728   5.116   4.504  10.434
  174SAPI   H2X19729   5.188   4.576  10.479
  174SAPI   H2Y19730   5.020   4.512  10.490
  174SAPI   C2319731   5.402   4.116  10.130
  174SAPI   H3R19732   5.294   4.099  10.151
  174SAPI   H3S19733   5.454   4.024  10.096
  174SAPI   C2419734   5.420   4.218  10.024
  174SAPI   H4R19735   5.382   4.314  10.064
  174SAPI   H4S19736   5.352   4.205   9.937
  174SAPI   C2519737   5.560   4.238   9.978
  174SAPI   H5R19738   5.631   4.270  10.055
  174SAPI   C2619739   5.614   4.222   9.854
  174SAPI   H6R19740   5.718   4.253   9.832
  174SAPI   C2719741   5.529   4.195   9.727
  174SAPI   H7R19742   5.468   4.104   9.745
  174SAPI   H7S19743   5.596   4.166   9.644
  174SAPI   C2819744   5.437   4.307   9.678
  174SAPI   H8R19745   5.335   4.305   9.719
  174SAPI   C2919746   5.460   4.403   9.585
  174SAPI   H9R19747   5.386   4.479   9.556
  174SAPI  C21019748   5.584   4.444   9.520
  174SAPI  H10R19749   5.652   4.358   9.538
  174SAPI  H10S19750   5.625   4.535   9.569
  174SAPI  C21119751   5.574   4.482   9.375
  174SAPI  H11R19752   5.605   4.586   9.353
  174SAPI  C21219753   5.565   4.398   9.275
  174SAPI  H12R19754   5.567   4.436   9.172
  174SAPI  C21319755   5.546   4.246   9.290
  174SAPI  H13R19756   5.534   4.206   9.393
  174SAPI  H13S19757   5.644   4.197   9.271
  174SAPI  C21419758   5.441   4.196   9.195
  174SAPI  H14R19759   5.339   4.207   9.234
  174SAPI  C21519760   5.460   4.147   9.072
  174SAPI  H15R19761   5.373   4.135   9.007
  174SAPI  C21619762   5.584   4.120   8.999
  174SAPI  H16R19763   5.589   4.010   8.995
  174SAPI  H16S19764   5.677   4.159   9.047
  174SAPI  C21719765   5.608   4.190   8.862
  174SAPI  H17R19766   5.690   4.138   8.809
  174SAPI  H17S19767   5.638   4.297   8.873
  174SAPI  C21819768   5.485   4.171   8.772
  174SAPI  H18R19769   5.403   4.220   8.829
  174SAPI  H18S19770   5.444   4.068   8.764
  174SAPI  C21919771   5.494   4.233   8.638
  174SAPI  H19R19772   5.562   4.319   8.655
  174SAPI  H19S19773   5.387   4.254   8.615
  174SAPI  C22019774   5.556   4.139   8.528
  174SAPI  H20R19775   5.568   4.189   8.430
  174SAPI  H20S19776   5.501   4.043   8.523
  174SAPI  H20T19777   5.659   4.108   8.557
  174SAPI   C3319778   5.107   4.557  10.289
  174SAPI   H3X19779   5.206   4.540  10.241
  174SAPI   H3Y19780   5.082   4.662  10.316
  174SAPI   C3419781   4.999   4.492  10.210
  174SAPI   H4X19782   4.906   4.480  10.269
  174SAPI   H4Y19783   5.022   4.386  10.184
  174SAPI   C3519784   4.981   4.566  10.081
  174SAPI   H5X19785   4.917   4.652  10.111
  174SAPI   H5Y19786   4.913   4.510  10.014
  174SAPI   C3619787   5.104   4.598   9.993
  174SAPI   H6X19788   5.159   4.503   9.980
  174SAPI   H6Y19789   5.178   4.667  10.037
  174SAPI   C3719790   5.086   4.669   9.853
  174SAPI   H7X19791   5.068   4.777   9.873
  174SAPI   H7Y19792   4.999   4.621   9.803
  174SAPI   C3819793   5.207   4.655   9.760
  174SAPI   H8X19794   5.217   4.547   9.735
  174SAPI   H8Y19795   5.299   4.692   9.811
  174SAPI   C3919796   5.187   4.727   9.623
  174SAPI   H9X19797   5.127   4.818   9.642
  174SAPI   H9Y19798   5.132   4.660   9.553
  174SAPI  C31019799   5.323   4.769   9.570
  174SAPI  H10X19800   5.379   4.677   9.539
  174SAPI  H10Y19801   5.376   4.836   9.640
  174SAPI  C31119802   5.315   4.832   9.430
  174SAPI  H11X19803   5.417   4.866   9.402
  174SAPI  H11Y19804   5.265   4.931   9.433
  174SAPI  C31219805   5.251   4.748   9.327
  174SAPI  H12X19806   5.151   4.710   9.357
  174SAPI  H12Y19807   5.308   4.657   9.301
  174SAPI  C31319808   5.217   4.826   9.197
  174SAPI  H13X19809   5.179   4.926   9.227
  174SAPI  H13Y19810   5.135   4.775   9.142
  174SAPI  C31419811   5.338   4.839   9.105
  174SAPI  H14X19812   5.434   4.848   9.160
  174SAPI  H14Y19813   5.341   4.933   9.045
  174SAPI  C31519814   5.345   4.716   9.004
  174SAPI  H15X19815   5.267   4.710   8.926
  174SAPI  H15Y19816   5.325   4.629   9.072
  174SAPI  C31619817   5.484   4.706   8.929
  174SAPI  H16X19818   5.561   4.742   9.001
  174SAPI  H16Y19819   5.469   4.774   8.843
  174SAPI  C31719820   5.520   4.568   8.872
  174SAPI  H17X19821   5.431   4.519   8.828
  174SAPI  H17Y19822   5.549   4.501   8.956
  174SAPI  C31819823   5.630   4.579   8.767
  174SAPI  H18X19824   5.608   4.669   8.706
  174SAPI  H18Y19825   5.643   4.489   8.703
  174SAPI  H18Z19826   5.728   4.597   8.817
  175SAPI   C1219827   0.975   2.917   6.092
  175SAPI    H219828   0.884   2.972   6.123
  175SAPI    O219829   0.972   2.780   6.138
  175SAPI   HO219830   0.896   2.777   6.197
  175SAPI   C1319831   0.982   2.920   5.941
  175SAPI    H319832   0.996   3.027   5.915
  175SAPI    O319833   0.855   2.884   5.893
  175SAPI   HO319834   0.842   2.789   5.889
  175SAPI   C1419835   1.094   2.835   5.889
  175SAPI    H419836   1.081   2.728   5.915
  175SAPI    O419837   1.101   2.848   5.743
  175SAPI   HO419838   1.112   2.942   5.725
  175SAPI   C1519839   1.231   2.879   5.961
  175SAPI    H519840   1.245   2.981   5.918
  175SAPI    O519841   1.331   2.792   5.911
  175SAPI   HO519842   1.379   2.819   5.833
  175SAPI   C1619843   1.230   2.909   6.109
  175SAPI    H619844   1.240   2.811   6.160
  175SAPI    O619845   1.353   2.981   6.145
  175SAPI   HO619846   1.394   2.938   6.220
  175SAPI   C1119847   1.102   2.983   6.153
  175SAPI    H119848   1.108   3.087   6.112
  175SAPI     P19849   1.009   3.099   6.377
  175SAPI   O1319850   0.960   3.035   6.503
  175SAPI   O1419851   0.909   3.172   6.292
  175SAPI   O1219852   1.094   2.983   6.292
  175SAPI   O1119853   1.127   3.198   6.415
  175SAPI    C119854   1.240   3.163   6.500
  175SAPI    HA19855   1.259   3.053   6.496
  175SAPI    HB19856   1.331   3.213   6.463
  175SAPI    C219857   1.238   3.229   6.646
  175SAPI    HS19858   1.232   3.148   6.721
  175SAPI   O2119859   1.133   3.331   6.660
  175SAPI   C2119860   1.016   3.290   6.704
  175SAPI   O2219861   0.989   3.175   6.733
  175SAPI   C2219862   0.933   3.418   6.737
  175SAPI   H2R19863   0.906   3.461   6.638
  175SAPI   H2S19864   0.841   3.381   6.788
  175SAPI    C319865   1.381   3.292   6.684
  175SAPI    HX19866   1.394   3.371   6.607
  175SAPI    HY19867   1.462   3.219   6.662
  175SAPI   O3119868   1.394   3.357   6.813
  175SAPI   C3119869   1.394   3.276   6.920
  175SAPI   O3219870   1.370   3.159   6.917
  175SAPI   C3219871   1.430   3.353   7.048
  175SAPI   H2X19872   1.340   3.410   7.081
  175SAPI   H2Y19873   1.519   3.417   7.029
  175SAPI   C2319874   0.999   3.529   6.819
  175SAPI   H3R19875   0.926   3.612   6.822
  175SAPI   H3S19876   1.085   3.575   6.767
  175SAPI   C2419877   1.041   3.482   6.955
  175SAPI   H4R19878   1.118   3.402   6.946
  175SAPI   H4S19879   0.958   3.419   6.993
  175SAPI   C2519880   1.079   3.593   7.048
  175SAPI   H5R19881   1.126   3.678   6.998
  175SAPI   C2619882   1.049   3.595   7.178
  175SAPI   H6R19883   1.092   3.684   7.227
  175SAPI   C2719884   0.978   3.495   7.257
  175SAPI   H7R19885   0.959   3.407   7.191
  175SAPI   H7S19886   0.879   3.535   7.288
  175SAPI   C2819887   1.055   3.435   7.370
  175SAPI   H8R19888   1.158   3.402   7.351
  175SAPI   C2919889   1.004   3.412   7.494
  175SAPI   H9R19890   1.075   3.371   7.567
  175SAPI  C21019891   0.870   3.450   7.543
  175SAPI  H10R19892   0.790   3.443   7.467
  175SAPI  H10S19893   0.868   3.561   7.546
  175SAPI  C21119894   0.817   3.393   7.675
  175SAPI  H11R19895   0.826   3.460   7.761
  175SAPI  C21219896   0.770   3.272   7.691
  175SAPI  H12R19897   0.719   3.253   7.786
  175SAPI  C21319898   0.728   3.178   7.581
  175SAPI  H13R19899   0.816   3.149   7.520
  175SAPI  H13S19900   0.675   3.230   7.498
  175SAPI  C21419901   0.653   3.056   7.622
  175SAPI  H14R19902   0.720   2.969   7.635
  175SAPI  C21519903   0.516   3.038   7.644
  175SAPI  H15R19904   0.475   2.940   7.672
  175SAPI  C21619905   0.423   3.147   7.641
  175SAPI  H16R19906   0.350   3.126   7.560
  175SAPI  H16S19907   0.462   3.246   7.610
  175SAPI  C21719908   0.343   3.167   7.772
  175SAPI  H17R19909   0.300   3.066   7.790
  175SAPI  H17S19910   0.261   3.239   7.750
  175SAPI  C21819911   0.421   3.219   7.891
  175SAPI  H18R19912   0.467   3.319   7.877
  175SAPI  H18S19913   0.512   3.158   7.911
  175SAPI  C21919914   0.339   3.208   8.022
  175SAPI  H19R19915   0.408   3.246   8.100
  175SAPI  H19S19916   0.329   3.103   8.056
  175SAPI  C22019917   0.210   3.286   8.032
  175SAPI  H20R19918   0.136   3.253   7.956
  175SAPI  H20S19919   0.234   3.394   8.032
  175SAPI  H20T19920   0.149   3.268   8.123
  175SAPI   C3319921   1.464   3.271   7.182
  175SAPI   H3X19922   1.568   3.235   7.169
  175SAPI   H3Y19923   1.388   3.192   7.199
  175SAPI   C3419924   1.465   3.359   7.305
  175SAPI   H4X19925   1.367   3.409   7.313
  175SAPI   H4Y19926   1.538   3.442   7.291
  175SAPI   C3519927   1.499   3.283   7.426
  175SAPI   H5X19928   1.594   3.226   7.413
  175SAPI   H5Y19929   1.413   3.216   7.448
  175SAPI   C3619930   1.518   3.370   7.549
  175SAPI   H6X19931   1.441   3.451   7.554
  175SAPI   H6Y19932   1.616   3.421   7.558
  175SAPI   C3719933   1.484   3.289   7.682
  175SAPI   H7X19934   1.499   3.361   7.765
  175SAPI   H7Y19935   1.549   3.200   7.698
  175SAPI   C3819936   1.335   3.247   7.691
  175SAPI   H8X19937   1.319   3.168   7.614
  175SAPI   H8Y19938   1.280   3.335   7.653
  175SAPI   C3919939   1.290   3.228   7.830
  175SAPI   H9X19940   1.342   3.301   7.897
  175SAPI   H9Y19941   1.326   3.127   7.856
  175SAPI  C31019942   1.140   3.243   7.841
  175SAPI  H10X19943   1.094   3.198   7.750
  175SAPI  H10Y19944   1.121   3.352   7.830
  175SAPI  C31119945   1.079   3.188   7.963
  175SAPI  H11X19946   0.969   3.180   7.953
  175SAPI  H11Y19947   1.110   3.246   8.053
  175SAPI  C31219948   1.125   3.042   8.008
  175SAPI  H12X19949   1.234   3.041   8.028
  175SAPI  H12Y19950   1.105   2.972   7.924
  175SAPI  C31319951   1.045   2.984   8.122
  175SAPI  H13X19952   0.935   2.994   8.107
  175SAPI  H13Y19953   1.071   3.053   8.205
  175SAPI  C31419954   1.082   2.834   8.154
  175SAPI  H14X19955   1.042   2.799   8.252
  175SAPI  H14Y19956   1.193   2.833   8.159
  175SAPI  C31519957   1.027   2.723   8.064
  175SAPI  H15X19958   0.989   2.764   7.968
  175SAPI  H15Y19959   0.945   2.663   8.110
  175SAPI  C31619960   1.143   2.632   8.024
  175SAPI  H16X19961   1.203   2.609   8.115
  175SAPI  H16Y19962   1.207   2.694   7.959
  175SAPI  C31719963   1.110   2.496   7.952
  175SAPI  H17X19964   1.041   2.498   7.865
  175SAPI  H17Y19965   1.061   2.440   8.034
  175SAPI  C31819966   1.228   2.409   7.910
  175SAPI  H18X19967   1.295   2.410   7.999
  175SAPI  H18Y19968   1.272   2.462   7.823
  175SAPI  H18Z19969   1.196   2.305   7.892
  176SAPI   C1219970   0.583   1.555   6.578
  176SAPI    H219971   0.633   1.591   6.671
  176SAPI    O219972   0.552   1.415   6.594
  176SAPI   HO219973   0.632   1.371   6.626
  176SAPI   C1319974   0.446   1.627   6.556
  176SAPI    H319975   0.467   1.732   6.526
  176SAPI    O319976   0.380   1.641   6.683
  176SAPI   HO319977   0.362   1.554   6.720
  176SAPI   C1419978   0.363   1.557   6.452
  176SAPI    H419979   0.338   1.452   6.477
  176SAPI    O419980   0.244   1.623   6.429
  176SAPI   HO419981   0.179   1.553   6.442
  176SAPI   C1519982   0.445   1.562   6.317
  176SAPI    H519983   0.422   1.661   6.271
  176SAPI    O519984   0.399   1.474   6.222
  176SAPI   HO519985   0.308   1.452   6.244
  176SAPI   C1619986   0.606   1.564   6.327
  176SAPI    H619987   0.621   1.459   6.294
  176SAPI    O619988   0.673   1.640   6.227
  176SAPI   HO619989   0.659   1.733   6.247
  176SAPI   C1119990   0.680   1.576   6.456
  176SAPI    H119991   0.698   1.684   6.468
  176SAPI     P19992   0.896   1.473   6.599
  176SAPI   O1319993   0.932   1.599   6.665
  176SAPI   O1419994   1.008   1.404   6.540
  176SAPI   O1219995   0.796   1.501   6.471
  176SAPI   O1119996   0.815   1.383   6.694
  176SAPI    C119997   0.865   1.295   6.795
  176SAPI    HA19998   0.781   1.223   6.795
  176SAPI    HB19999   0.959   1.250   6.755
  176SAPI    C220000   0.877   1.365   6.940
  176SAPI    HS20001   0.889   1.282   7.012
  176SAPI   O2120002   0.766   1.453   6.968
  176SAPI   C2120003   0.647   1.396   6.972
  176SAPI   O2220004   0.630   1.277   6.972
  176SAPI   C2220005   0.542   1.500   7.002
  176SAPI   H2R20006   0.551   1.564   6.911
  176SAPI   H2S20007   0.445   1.447   7.014
  176SAPI    C320008   1.006   1.447   6.953
  176SAPI    HX20009   0.993   1.535   6.887
  176SAPI    HY20010   1.094   1.399   6.905
  176SAPI   O3120011   1.018   1.497   7.089
  176SAPI   C3120012   0.975   1.621   7.112
  176SAPI   O3220013   0.939   1.705   7.029
  176SAPI   C3220014   0.970   1.649   7.255
  176SAPI   H2X20015   1.074   1.642   7.293
  176SAPI   H2Y20016   0.897   1.578   7.298
  176SAPI   C2320017   0.576   1.564   7.134
  176SAPI   H3R20018   0.683   1.594   7.131
  176SAPI   H3S20019   0.580   1.491   7.218
  176SAPI   C2420020   0.504   1.700   7.164
  176SAPI   H4R20021   0.566   1.778   7.114
  176SAPI   H4S20022   0.518   1.708   7.274
  176SAPI   C2520023   0.366   1.704   7.105
  176SAPI   H5R20024   0.367   1.680   6.997
  176SAPI   C2620025   0.257   1.724   7.179
  176SAPI   H6R20026   0.156   1.712   7.136
  176SAPI   C2720027   0.256   1.766   7.328
  176SAPI   H7R20028   0.197   1.859   7.341
  176SAPI   H7S20029   0.359   1.804   7.347
  176SAPI   C2820030   0.235   1.651   7.421
  176SAPI   H8R20031   0.228   1.549   7.380
  176SAPI   C2920032   0.186   1.670   7.546
  176SAPI   H9R20033   0.166   1.579   7.606
  176SAPI  C21020034   0.183   1.795   7.634
  176SAPI  H10R20035   0.211   1.891   7.584
  176SAPI  H10S20036   0.259   1.777   7.714
  176SAPI  C21120037   0.043   1.823   7.687
  176SAPI  H11R20038  -0.029   1.866   7.616
  176SAPI  C21220039   0.013   1.816   7.817
  176SAPI  H12R20040  -0.085   1.857   7.846
  176SAPI  C21320041   0.093   1.773   7.938
  176SAPI  H13R20042   0.195   1.743   7.908
  176SAPI  H13S20043   0.047   1.685   7.990
  176SAPI  C21420044   0.096   1.895   8.029
  176SAPI  H14R20045   0.025   1.978   8.014
  176SAPI  C21520046   0.182   1.908   8.129
  176SAPI  H15R20047   0.190   2.003   8.184
  176SAPI  C21620048   0.284   1.818   8.176
  176SAPI  H16R20049   0.373   1.883   8.189
  176SAPI  H16S20050   0.297   1.735   8.103
  176SAPI  C21720051   0.241   1.766   8.317
  176SAPI  H17R20052   0.161   1.694   8.291
  176SAPI  H17S20053   0.198   1.840   8.388
  176SAPI  C21820054   0.351   1.687   8.386
  176SAPI  H18R20055   0.424   1.657   8.309
  176SAPI  H18S20056   0.314   1.590   8.426
  176SAPI  C21920057   0.419   1.771   8.496
  176SAPI  H19R20058   0.496   1.718   8.556
  176SAPI  H19S20059   0.345   1.791   8.577
  176SAPI  C22020060   0.489   1.896   8.450
  176SAPI  H20R20061   0.421   1.959   8.389
  176SAPI  H20S20062   0.573   1.880   8.380
  176SAPI  H20T20063   0.531   1.956   8.533
  176SAPI   C3320064   0.916   1.794   7.293
  176SAPI   H3X20065   0.826   1.817   7.233
  176SAPI   H3Y20066   0.979   1.880   7.262
  176SAPI   C3420067   0.886   1.806   7.446
  176SAPI   H4X20068   0.860   1.913   7.462
  176SAPI   H4Y20069   0.978   1.781   7.501
  176SAPI   C3520070   0.768   1.730   7.495
  176SAPI   H5X20071   0.777   1.622   7.470
  176SAPI   H5Y20072   0.677   1.768   7.446
  176SAPI   C3620073   0.738   1.745   7.645
  176SAPI   H6X20074   0.704   1.848   7.668
  176SAPI   H6Y20075   0.835   1.727   7.696
  176SAPI   C3720076   0.615   1.667   7.700
  176SAPI   H7X20077   0.625   1.559   7.676
  176SAPI   H7Y20078   0.534   1.704   7.634
  176SAPI   C3820079   0.588   1.682   7.856
  176SAPI   H8X20080   0.479   1.662   7.863
  176SAPI   H8Y20081   0.604   1.789   7.881
  176SAPI   C3920082   0.681   1.603   7.947
  176SAPI   H9X20083   0.788   1.609   7.917
  176SAPI   H9Y20084   0.651   1.498   7.926
  176SAPI  C31020085   0.662   1.637   8.096
  176SAPI  H10X20086   0.559   1.617   8.132
  176SAPI  H10Y20087   0.684   1.746   8.093
  176SAPI  C31120088   0.768   1.567   8.184
  176SAPI  H11X20089   0.872   1.602   8.165
  176SAPI  H11Y20090   0.760   1.459   8.159
  176SAPI  C31220091   0.744   1.565   8.336
  176SAPI  H12X20092   0.640   1.531   8.353
  176SAPI  H12Y20093   0.774   1.664   8.375
  176SAPI  C31320094   0.840   1.472   8.420
  176SAPI  H13X20095   0.943   1.512   8.403
  176SAPI  H13Y20096   0.818   1.370   8.382
  176SAPI  C31420097   0.801   1.475   8.558
  176SAPI  H14X20098   0.693   1.461   8.577
  176SAPI  H14Y20099   0.837   1.572   8.599
  176SAPI  C31520100   0.863   1.370   8.651
  176SAPI  H15X20101   0.969   1.390   8.675
  176SAPI  H15Y20102   0.867   1.271   8.599
  176SAPI  C31620103   0.778   1.380   8.781
  176SAPI  H16X20104   0.687   1.317   8.786
  176SAPI  H16Y20105   0.740   1.484   8.772
  176SAPI  C31720106   0.868   1.357   8.906
  176SAPI  H17X20107   0.818   1.395   8.998
  176SAPI  H17Y20108   0.961   1.419   8.905
  176SAPI  C31820109   0.907   1.213   8.929
  176SAPI  H18X20110   0.821   1.153   8.962
  176SAPI  H18Y20111   0.974   1.211   9.018
  176SAPI  H18Z20112   0.959   1.172   8.840
  177SLPC     N20113   6.804   5.189  11.086
  177SLPC   C1320114   6.802   5.325  11.043
  177SLPC  H13A20115   6.743   5.390  11.107
  177SLPC  H13B20116   6.903   5.361  11.054
  177SLPC  H13C20117   6.764   5.341  10.943
  177SLPC   C1420118   6.814   5.185  11.238
  177SLPC  H14A20119   6.833   5.092  11.291
  177SLPC  H14B20120   6.887   5.258  11.270
  177SLPC  H14C20121   6.716   5.209  11.277
  177SLPC   C1520122   6.918   5.116  11.022
  177SLPC  H15A20123   6.915   5.009  11.037
  177SLPC  H15B20124   6.915   5.127  10.915
  177SLPC  H15C20125   7.016   5.145  11.055
  177SLPC   C1220126   6.680   5.112  11.051
  177SLPC  H12A20127   6.668   5.122  10.944
  177SLPC  H12B20128   6.597   5.168  11.091
  177SLPC   C1120129   6.658   4.969  11.093
  177SLPC  H11A20130   6.552   4.939  11.078
  177SLPC  H11B20131   6.672   4.952  11.202
  177SLPC     P20132   6.699   4.800  10.901
  177SLPC   O1320133   6.815   4.726  10.840
  177SLPC   O1420134   6.582   4.721  10.951
  177SLPC   O1220135   6.751   4.886  11.017
  177SLPC   O1120136   6.647   4.909  10.801
  177SLPC    C120137   6.746   4.994  10.743
  177SLPC    HA20138   6.707   5.098  10.739
  177SLPC    HB20139   6.838   5.011  10.805
  177SLPC    C220140   6.782   4.954  10.594
  177SLPC    HS20141   6.860   4.875  10.594
  177SLPC   O2120142   6.824   5.075  10.526
  177SLPC   C2120143   6.946   5.123  10.561
  177SLPC   O2220144   7.015   5.077  10.643
  177SLPC   C2220145   6.980   5.231  10.465
  177SLPC   H2R20146   6.933   5.328  10.491
  177SLPC   H2S20147   7.091   5.243  10.469
  177SLPC    C320148   6.659   4.900  10.519
  177SLPC    HX20149   6.576   4.970  10.543
  177SLPC    HY20150   6.627   4.798  10.549
  177SLPC   O3120151   6.697   4.892  10.385
  177SLPC   C3120152   6.623   4.958  10.290
  177SLPC   O3220153   6.537   5.037  10.325
  177SLPC   C3220154   6.679   4.917  10.154
  177SLPC   H2X20155   6.690   4.807  10.157
  177SLPC   H2Y20156   6.779   4.964  10.150
  177SLPC   C2320157   6.945   5.208  10.317
  177SLPC   H3R20158   6.839   5.182  10.298
  177SLPC   H3S20159   6.998   5.114  10.289
  177SLPC   C2420160   6.992   5.328  10.230
  177SLPC   H4R20161   7.093   5.357  10.264
  177SLPC   H4S20162   6.939   5.424  10.250
  177SLPC   C2520163   7.005   5.296  10.081
  177SLPC   H5R20164   6.913   5.246  10.042
  177SLPC   H5S20165   7.085   5.219  10.077
  177SLPC   C2620166   7.060   5.403   9.992
  177SLPC   H6R20167   7.138   5.460  10.047
  177SLPC   H6S20168   6.979   5.472   9.961
  177SLPC   C2720169   7.110   5.359   9.854
  177SLPC   H7R20170   7.048   5.278   9.811
  177SLPC   H7S20171   7.214   5.319   9.859
  177SLPC   C2820172   7.115   5.473   9.746
  177SLPC   H8R20173   7.022   5.533   9.749
  177SLPC   H8S20174   7.123   5.424   9.646
  177SLPC   C2920175   7.231   5.555   9.781
  177SLPC   H9R20176   7.239   5.579   9.888
  177SLPC  C21020177   7.322   5.605   9.699
  177SLPC  H10R20178   7.405   5.656   9.750
  177SLPC  C21120179   7.330   5.576   9.544
  177SLPC  H11R20180   7.244   5.519   9.503
  177SLPC  H11S20181   7.320   5.673   9.490
  177SLPC  C21220182   7.450   5.499   9.497
  177SLPC  H12R20183   7.484   5.420   9.566
  177SLPC  C21320184   7.520   5.529   9.384
  177SLPC  H13R20185   7.603   5.460   9.362
  177SLPC  C21420186   7.504   5.640   9.282
  177SLPC  H14R20187   7.586   5.712   9.304
  177SLPC  H14S20188   7.414   5.700   9.303
  177SLPC  C21520189   7.497   5.595   9.135
  177SLPC  H15R20190   7.444   5.497   9.130
  177SLPC  H15S20191   7.602   5.590   9.098
  177SLPC  C21620192   7.442   5.696   9.044
  177SLPC  H16R20193   7.479   5.799   9.063
  177SLPC  H16S20194   7.335   5.713   9.070
  177SLPC  C21720195   7.451   5.658   8.894
  177SLPC  H17R20196   7.388   5.574   8.860
  177SLPC  H17S20197   7.560   5.643   8.875
  177SLPC  C21820198   7.405   5.769   8.805
  177SLPC  H18R20199   7.463   5.863   8.817
  177SLPC  H18S20200   7.298   5.794   8.822
  177SLPC  H18T20201   7.418   5.741   8.699
  177SLPC   C3320202   6.603   4.976  10.035
  177SLPC   H3X20203   6.574   5.083  10.049
  177SLPC   H3Y20204   6.506   4.927  10.011
  177SLPC   C3420205   6.679   4.976   9.903
  177SLPC   H4X20206   6.774   5.031   9.920
  177SLPC   H4Y20207   6.616   5.025   9.825
  177SLPC   C3520208   6.718   4.837   9.852
  177SLPC   H5X20209   6.624   4.779   9.842
  177SLPC   H5Y20210   6.773   4.782   9.931
  177SLPC   C3620211   6.810   4.857   9.728
  177SLPC   H6X20212   6.867   4.764   9.710
  177SLPC   H6Y20213   6.892   4.927   9.755
  177SLPC   C3720214   6.724   4.894   9.602
  177SLPC   H7X20215   6.661   4.980   9.633
  177SLPC   H7Y20216   6.648   4.820   9.570
  177SLPC   C3820217   6.813   4.938   9.480
  177SLPC   H8X20218   6.883   4.858   9.450
  177SLPC   H8Y20219   6.864   5.030   9.516
  177SLPC   C3920220   6.724   4.961   9.353
  177SLPC   H9X20221   6.635   5.026   9.371
  177SLPC   H9Y20222   6.693   4.863   9.310
  177SLPC  C31020223   6.801   5.027   9.234
  177SLPC  H10X20224   6.868   4.952   9.186
  177SLPC  H10Y20225   6.881   5.097   9.267
  177SLPC  C31120226   6.704   5.102   9.144
  177SLPC  H11X20227   6.651   5.176   9.208
  177SLPC  H11Y20228   6.630   5.026   9.110
  177SLPC  C31220229   6.763   5.177   9.024
  177SLPC  H12X20230   6.816   5.108   8.954
  177SLPC  H12Y20231   6.832   5.258   9.055
  177SLPC  C31320232   6.642   5.234   8.941
  177SLPC  H13X20233   6.566   5.284   9.005
  177SLPC  H13Y20234   6.588   5.154   8.885
  177SLPC  C31420235   6.682   5.334   8.828
  177SLPC  H14X20236   6.749   5.278   8.760
  177SLPC  H14Y20237   6.740   5.417   8.872
  177SLPC  C31520238   6.552   5.387   8.757
  177SLPC  H15X20239   6.493   5.448   8.828
  177SLPC  H15Y20240   6.483   5.308   8.721
  177SLPC  C31620241   6.589   5.470   8.633
  177SLPC  H16X20242   6.624   5.393   8.562
  177SLPC  H16Y20243   6.673   5.540   8.652
  177SLPC  C31720244   6.467   5.543   8.581
  177SLPC  H17X20245   6.391   5.480   8.531
  177SLPC  H17Y20246   6.511   5.597   8.495
  177SLPC  C31820247   6.407   5.638   8.680
  177SLPC  H18X20248   6.477   5.716   8.717
  177SLPC  H18Y20249   6.352   5.587   8.761
  177SLPC  H18Z20250   6.325   5.691   8.627
  178SLPC     N20251   2.808   0.506  11.031
  178SLPC   C1320252   2.778   0.364  11.071
  178SLPC  H13A20253   2.797   0.288  10.997
  178SLPC  H13B20254   2.833   0.340  11.160
  178SLPC  H13C20255   2.674   0.346  11.097
  178SLPC   C1420256   2.955   0.528  11.022
  178SLPC  H14A20257   3.009   0.493  11.109
  178SLPC  H14B20258   2.994   0.465  10.943
  178SLPC  H14C20259   2.977   0.630  10.994
  178SLPC   C1520260   2.752   0.592  11.143
  178SLPC  H15A20261   2.805   0.683  11.168
  178SLPC  H15B20262   2.648   0.615  11.127
  178SLPC  H15C20263   2.756   0.541  11.239
  178SLPC   C1220264   2.736   0.550  10.901
  178SLPC  H12A20265   2.775   0.498  10.815
  178SLPC  H12B20266   2.751   0.655  10.883
  178SLPC   C1120267   2.591   0.530  10.899
  178SLPC  H11A20268   2.568   0.428  10.937
  178SLPC  H11B20269   2.551   0.507  10.798
  178SLPC     P20270   2.514   0.779  10.928
  178SLPC   O1320271   2.488   0.851  11.050
  178SLPC   O1420272   2.637   0.817  10.853
  178SLPC   O1220273   2.513   0.624  10.966
  178SLPC   O1120274   2.392   0.804  10.832
  178SLPC    C120275   2.263   0.749  10.860
  178SLPC    HA20276   2.255   0.702  10.960
  178SLPC    HB20277   2.182   0.825  10.869
  178SLPC    C220278   2.212   0.651  10.753
  178SLPC    HS20279   2.297   0.584  10.726
  178SLPC   O2120280   2.158   0.728  10.644
  178SLPC   C2120281   2.184   0.689  10.517
  178SLPC   O2220282   2.228   0.586  10.486
  178SLPC   C2220283   2.161   0.807  10.421
  178SLPC   H2R20284   2.059   0.844  10.440
  178SLPC   H2S20285   2.229   0.883  10.464
  178SLPC    C320286   2.101   0.558  10.815
  178SLPC    HX20287   2.016   0.604  10.869
  178SLPC    HY20288   2.147   0.505  10.902
  178SLPC   O3120289   2.047   0.459  10.729
  178SLPC   C3120290   1.970   0.476  10.628
  178SLPC   O3220291   1.915   0.582  10.597
  178SLPC   C3220292   1.973   0.345  10.550
  178SLPC   H2X20293   1.909   0.282  10.616
  178SLPC   H2Y20294   2.075   0.306  10.531
  178SLPC   C2320295   2.183   0.776  10.272
  178SLPC   H3R20296   2.105   0.711  10.226
  178SLPC   H3S20297   2.281   0.724  10.264
  178SLPC   C2420298   2.185   0.903  10.181
  178SLPC   H4R20299   2.288   0.944  10.195
  178SLPC   H4S20300   2.106   0.969  10.222
  178SLPC   C2520301   2.138   0.877  10.034
  178SLPC   H5R20302   2.135   0.969   9.971
  178SLPC   H5S20303   2.036   0.834  10.035
  178SLPC   C2620304   2.236   0.790   9.951
  178SLPC   H6R20305   2.243   0.692  10.003
  178SLPC   H6S20306   2.339   0.831   9.937
  178SLPC   C2720307   2.190   0.768   9.807
  178SLPC   H7R20308   2.165   0.864   9.756
  178SLPC   H7S20309   2.093   0.714   9.803
  178SLPC   C2820310   2.285   0.681   9.716
  178SLPC   H8R20311   2.308   0.591   9.777
  178SLPC   H8S20312   2.380   0.738   9.707
  178SLPC   C2920313   2.223   0.632   9.584
  178SLPC   H9R20314   2.202   0.525   9.573
  178SLPC  C21020315   2.181   0.713   9.488
  178SLPC  H10R20316   2.133   0.660   9.405
  178SLPC  C21120317   2.202   0.865   9.460
  178SLPC  H11R20318   2.304   0.877   9.416
  178SLPC  H11S20319   2.206   0.919   9.557
  178SLPC  C21220320   2.093   0.922   9.378
  178SLPC  H12R20321   1.992   0.940   9.420
  178SLPC  C21320322   2.105   0.944   9.245
  178SLPC  H13R20323   2.013   0.987   9.202
  178SLPC  C21420324   2.219   0.899   9.154
  178SLPC  H14R20325   2.176   0.830   9.079
  178SLPC  H14S20326   2.298   0.851   9.216
  178SLPC  C21520327   2.277   1.020   9.079
  178SLPC  H15R20328   2.353   0.970   9.015
  178SLPC  H15S20329   2.337   1.078   9.152
  178SLPC  C21620330   2.185   1.117   9.003
  178SLPC  H16R20331   2.124   1.169   9.080
  178SLPC  H16S20332   2.110   1.056   8.947
  178SLPC  C21720333   2.279   1.207   8.926
  178SLPC  H17R20334   2.349   1.160   8.853
  178SLPC  H17S20335   2.352   1.251   8.998
  178SLPC  C21820336   2.203   1.328   8.869
  178SLPC  H18R20337   2.097   1.303   8.846
  178SLPC  H18S20338   2.252   1.379   8.784
  178SLPC  H18T20339   2.207   1.399   8.955
  178SLPC   C3320340   1.896   0.358  10.420
  178SLPC   H3X20341   1.794   0.400  10.420
  178SLPC   H3Y20342   1.886   0.254  10.383
  178SLPC   C3420343   1.979   0.436  10.318
  178SLPC   H4X20344   2.078   0.386  10.311
  178SLPC   H4Y20345   2.001   0.540  10.351
  178SLPC   C3520346   1.921   0.419  10.180
  178SLPC   H5X20347   1.894   0.312  10.167
  178SLPC   H5Y20348   1.994   0.433  10.098
  178SLPC   C3620349   1.804   0.516  10.161
  178SLPC   H6X20350   1.839   0.620  10.178
  178SLPC   H6Y20351   1.727   0.498  10.240
  178SLPC   C3720352   1.746   0.520  10.019
  178SLPC   H7X20353   1.706   0.624  10.014
  178SLPC   H7Y20354   1.668   0.444   9.994
  178SLPC   C3820355   1.837   0.513   9.895
  178SLPC   H8X20356   1.898   0.419   9.893
  178SLPC   H8Y20357   1.913   0.594   9.893
  178SLPC   C3920358   1.759   0.528   9.772
  178SLPC   H9X20359   1.693   0.617   9.772
  178SLPC   H9Y20360   1.685   0.448   9.749
  178SLPC  C31020361   1.848   0.545   9.643
  178SLPC  H10X20362   1.936   0.477   9.649
  178SLPC  H10Y20363   1.896   0.645   9.645
  178SLPC  C31120364   1.777   0.537   9.504
  178SLPC  H11X20365   1.692   0.609   9.495
  178SLPC  H11Y20366   1.730   0.437   9.494
  178SLPC  C31220367   1.876   0.567   9.394
  178SLPC  H12X20368   1.977   0.523   9.411
  178SLPC  H12Y20369   1.902   0.675   9.387
  178SLPC  C31320370   1.849   0.512   9.255
  178SLPC  H13X20371   1.848   0.402   9.265
  178SLPC  H13Y20372   1.928   0.525   9.178
  178SLPC  C31420373   1.707   0.562   9.207
  178SLPC  H14X20374   1.695   0.672   9.213
  178SLPC  H14Y20375   1.638   0.502   9.269
  178SLPC  C31520376   1.696   0.531   9.053
  178SLPC  H15X20377   1.755   0.444   9.019
  178SLPC  H15Y20378   1.592   0.509   9.021
  178SLPC  C31620379   1.748   0.652   8.964
  178SLPC  H16X20380   1.784   0.613   8.867
  178SLPC  H16Y20381   1.837   0.694   9.017
  178SLPC  C31720382   1.639   0.762   8.936
  178SLPC  H17X20383   1.610   0.809   9.033
  178SLPC  H17Y20384   1.549   0.712   8.894
  178SLPC  C31820385   1.680   0.873   8.838
  178SLPC  H18X20386   1.597   0.926   8.786
  178SLPC  H18Y20387   1.750   0.836   8.760
  178SLPC  H18Z20388   1.739   0.952   8.890
  179SLPC     N20389   3.036   4.232  10.384
  179SLPC   C1320390   2.970   4.312  10.489
  179SLPC  H13A20391   2.876   4.273  10.525
  179SLPC  H13B20392   3.039   4.316  10.573
  179SLPC  H13C20393   2.951   4.415  10.465
  179SLPC   C1420394   3.175   4.301  10.366
  179SLPC  H14A20395   3.226   4.246  10.288
  179SLPC  H14B20396   3.161   4.399  10.323
  179SLPC  H14C20397   3.226   4.299  10.461
  179SLPC   C1520398   2.959   4.238  10.269
  179SLPC  H15A20399   2.939   4.338  10.234
  179SLPC  H15B20400   3.004   4.183  10.187
  179SLPC  H15C20401   2.869   4.185  10.296
  179SLPC   C1220402   3.049   4.086  10.434
  179SLPC  H12A20403   2.948   4.052  10.447
  179SLPC  H12B20404   3.103   4.105  10.526
  179SLPC   C1120405   3.134   3.983  10.350
  179SLPC  H11A20406   3.109   3.999  10.242
  179SLPC  H11B20407   3.105   3.881  10.384
  179SLPC     P20408   3.385   3.909  10.312
  179SLPC   O1320409   3.515   3.960  10.359
  179SLPC   O1420410   3.351   3.768  10.333
  179SLPC   O1220411   3.271   4.001  10.373
  179SLPC   O1120412   3.367   3.943  10.155
  179SLPC    C120413   3.406   4.075  10.114
  179SLPC    HA20414   3.369   4.150  10.187
  179SLPC    HB20415   3.515   4.096  10.102
  179SLPC    C220416   3.329   4.109   9.980
  179SLPC    HS20417   3.230   4.064  10.002
  179SLPC   O2120418   3.399   4.058   9.860
  179SLPC   C2120419   3.304   4.000   9.779
  179SLPC   O2220420   3.181   3.995   9.799
  179SLPC   C2220421   3.378   3.931   9.663
  179SLPC   H2R20422   3.480   3.975   9.659
  179SLPC   H2S20423   3.381   3.822   9.684
  179SLPC    C320424   3.308   4.264   9.968
  179SLPC    HX20425   3.403   4.312   9.936
  179SLPC    HY20426   3.270   4.306  10.064
  179SLPC   O3120427   3.208   4.286   9.861
  179SLPC   C3120428   3.080   4.268   9.885
  179SLPC   O3220429   3.043   4.218   9.991
  179SLPC   C3220430   2.997   4.307   9.756
  179SLPC   H2X20431   3.027   4.412   9.734
  179SLPC   H2Y20432   2.892   4.316   9.792
  179SLPC   C2320433   3.299   3.949   9.531
  179SLPC   H3R20434   3.286   4.058   9.511
  179SLPC   H3S20435   3.191   3.925   9.541
  179SLPC   C2420436   3.372   3.885   9.408
  179SLPC   H4R20437   3.362   3.777   9.432
  179SLPC   H4S20438   3.481   3.908   9.411
  179SLPC   C2520439   3.311   3.912   9.271
  179SLPC   H5R20440   3.280   4.018   9.266
  179SLPC   H5S20441   3.209   3.868   9.278
  179SLPC   C2620442   3.386   3.871   9.143
  179SLPC   H6R20443   3.422   3.767   9.160
  179SLPC   H6S20444   3.479   3.923   9.114
  179SLPC   C2720445   3.284   3.884   9.029
  179SLPC   H7R20446   3.184   3.870   9.075
  179SLPC   H7S20447   3.319   3.808   8.955
  179SLPC   C2820448   3.301   4.025   8.975
  179SLPC   H8R20449   3.411   4.045   8.978
  179SLPC   H8S20450   3.256   4.103   9.040
  179SLPC   C2920451   3.247   4.052   8.841
  179SLPC   H9R20452   3.139   4.070   8.839
  179SLPC  C21020453   3.318   4.098   8.735
  179SLPC  H10R20454   3.260   4.121   8.644
  179SLPC  C21120455   3.466   4.087   8.719
  179SLPC  H11R20456   3.490   4.046   8.619
  179SLPC  H11S20457   3.503   4.009   8.789
  179SLPC  C21220458   3.537   4.217   8.740
  179SLPC  H12R20459   3.504   4.274   8.827
  179SLPC  C21320460   3.630   4.285   8.670
  179SLPC  H13R20461   3.649   4.388   8.702
  179SLPC  C21420462   3.688   4.249   8.535
  179SLPC  H14R20463   3.660   4.331   8.465
  179SLPC  H14S20464   3.641   4.156   8.498
  179SLPC  C21520465   3.842   4.241   8.540
  179SLPC  H15R20466   3.888   4.322   8.600
  179SLPC  H15S20467   3.877   4.272   8.439
  179SLPC  C21620468   3.898   4.109   8.587
  179SLPC  H16R20469   3.891   4.036   8.504
  179SLPC  H16S20470   3.830   4.083   8.671
  179SLPC  C21720471   4.033   4.124   8.652
  179SLPC  H17R20472   4.048   4.023   8.695
  179SLPC  H17S20473   4.037   4.201   8.732
  179SLPC  C21820474   4.149   4.169   8.552
  179SLPC  H18R20475   4.143   4.274   8.515
  179SLPC  H18S20476   4.143   4.105   8.461
  179SLPC  H18T20477   4.245   4.170   8.608
  179SLPC   C3320478   3.016   4.215   9.635
  179SLPC   H3X20479   2.985   4.115   9.671
  179SLPC   H3Y20480   3.126   4.213   9.621
  179SLPC   C3420481   2.939   4.247   9.515
  179SLPC   H4X20482   2.950   4.356   9.498
  179SLPC   H4Y20483   2.834   4.211   9.523
  179SLPC   C3520484   2.990   4.174   9.388
  179SLPC   H5X20485   2.998   4.068   9.421
  179SLPC   H5Y20486   3.092   4.211   9.364
  179SLPC   C3620487   2.901   4.188   9.272
  179SLPC   H6X20488   2.908   4.294   9.239
  179SLPC   H6Y20489   2.796   4.173   9.305
  179SLPC   C3720490   2.940   4.104   9.157
  179SLPC   H7X20491   2.945   3.994   9.173
  179SLPC   H7Y20492   3.049   4.120   9.138
  179SLPC   C3820493   2.872   4.141   9.032
  179SLPC   H8X20494   2.910   4.086   8.943
  179SLPC   H8Y20495   2.867   4.251   9.013
  179SLPC   C3920496   2.720   4.108   9.039
  179SLPC   H9X20497   2.655   4.158   9.114
  179SLPC   H9Y20498   2.719   3.998   9.058
  179SLPC  C31020499   2.653   4.142   8.906
  179SLPC  H10X20500   2.733   4.135   8.830
  179SLPC  H10Y20501   2.613   4.244   8.918
  179SLPC  C31120502   2.545   4.049   8.861
  179SLPC  H11X20503   2.505   4.087   8.765
  179SLPC  H11Y20504   2.458   4.057   8.931
  179SLPC  C31220505   2.581   3.907   8.832
  179SLPC  H12X20506   2.598   3.859   8.931
  179SLPC  H12Y20507   2.674   3.913   8.772
  179SLPC  C31320508   2.485   3.816   8.753
  179SLPC  H13X20509   2.466   3.861   8.654
  179SLPC  H13Y20510   2.385   3.810   8.802
  179SLPC  C31420511   2.541   3.674   8.726
  179SLPC  H14X20512   2.550   3.629   8.827
  179SLPC  H14Y20513   2.637   3.698   8.677
  179SLPC  C31520514   2.463   3.588   8.623
  179SLPC  H15X20515   2.519   3.496   8.597
  179SLPC  H15Y20516   2.457   3.648   8.530
  179SLPC  C31620517   2.328   3.540   8.675
  179SLPC  H16X20518   2.254   3.623   8.673
  179SLPC  H16Y20519   2.342   3.503   8.779
  179SLPC  C31720520   2.282   3.417   8.594
  179SLPC  H17X20521   2.354   3.332   8.598
  179SLPC  H17Y20522   2.291   3.453   8.489
  179SLPC  C31820523   2.135   3.368   8.624
  179SLPC  H18X20524   2.124   3.332   8.729
  179SLPC  H18Y20525   2.133   3.279   8.558
  179SLPC  H18Z20526   2.065   3.447   8.589
  180SLPC     N20527   4.448   2.076  10.695
  180SLPC   C1320528   4.428   2.192  10.786
  180SLPC  H13A20529   4.326   2.226  10.793
  180SLPC  H13B20530   4.466   2.160  10.882
  180SLPC  H13C20531   4.492   2.276  10.762
  180SLPC   C1420532   4.416   2.106  10.555
  180SLPC  H14A20533   4.478   2.186  10.517
  180SLPC  H14B20534   4.419   2.015  10.496
  180SLPC  H14C20535   4.316   2.145  10.544
  180SLPC   C1520536   4.349   1.979  10.746
  180SLPC  H15A20537   4.250   2.020  10.735
  180SLPC  H15B20538   4.358   1.890  10.686
  180SLPC  H15C20539   4.367   1.955  10.850
  180SLPC   C1220540   4.593   2.029  10.711
  180SLPC  H12A20541   4.659   2.109  10.681
  180SLPC  H12B20542   4.606   1.948  10.641
  180SLPC   C1120543   4.644   1.966  10.843
  180SLPC  H11A20544   4.613   2.044  10.917
  180SLPC  H11B20545   4.755   1.965  10.836
  180SLPC     P20546   4.616   1.715  10.801
  180SLPC   O1320547   4.663   1.609  10.890
  180SLPC   O1420548   4.491   1.689  10.729
  180SLPC   O1220549   4.581   1.848  10.879
  180SLPC   O1120550   4.731   1.755  10.698
  180SLPC    C120551   4.789   1.654  10.621
  180SLPC    HA20552   4.859   1.597  10.686
  180SLPC    HB20553   4.712   1.581  10.586
  180SLPC    C220554   4.871   1.715  10.505
  180SLPC    HS20555   4.913   1.810  10.545
  180SLPC   O2120556   4.786   1.732  10.390
  180SLPC   C2120557   4.755   1.862  10.365
  180SLPC   O2220558   4.804   1.956  10.422
  180SLPC   C2220559   4.693   1.870  10.229
  180SLPC   H2R20560   4.676   1.974  10.196
  180SLPC   H2S20561   4.764   1.822  10.159
  180SLPC    C320562   4.987   1.614  10.473
  180SLPC    HX20563   5.057   1.611  10.560
  180SLPC    HY20564   5.052   1.657  10.394
  180SLPC   O3120565   4.941   1.481  10.437
  180SLPC   C3120566   4.919   1.469  10.308
  180SLPC   O3220567   4.951   1.546  10.220
  180SLPC   C3220568   4.853   1.333  10.285
  180SLPC   H2X20569   4.796   1.350  10.191
  180SLPC   H2Y20570   4.788   1.301  10.369
  180SLPC   C2320571   4.557   1.795  10.225
  180SLPC   H3R20572   4.474   1.866  10.245
  180SLPC   H3S20573   4.546   1.713  10.299
  180SLPC   C2420574   4.536   1.733  10.082
  180SLPC   H4R20575   4.620   1.661  10.075
  180SLPC   H4S20576   4.526   1.812  10.004
  180SLPC   C2520577   4.402   1.665  10.060
  180SLPC   H5R20578   4.399   1.622   9.957
  180SLPC   H5S20579   4.317   1.736  10.065
  180SLPC   C2620580   4.388   1.553  10.167
  180SLPC   H6R20581   4.365   1.608  10.261
  180SLPC   H6S20582   4.484   1.501  10.183
  180SLPC   C2720583   4.274   1.454  10.148
  180SLPC   H7R20584   4.186   1.514  10.118
  180SLPC   H7S20585   4.251   1.423  10.252
  180SLPC   C2820586   4.302   1.354  10.041
  180SLPC   H8R20587   4.320   1.401   9.943
  180SLPC   H8S20588   4.210   1.291  10.038
  180SLPC   C2920589   4.420   1.274  10.088
  180SLPC   H9R20590   4.417   1.237  10.191
  180SLPC  C21020591   4.519   1.224  10.014
  180SLPC  H10R20592   4.610   1.186  10.064
  180SLPC  C21120593   4.545   1.242   9.866
  180SLPC  H11R20594   4.453   1.248   9.804
  180SLPC  H11S20595   4.593   1.145   9.838
  180SLPC  C21220596   4.627   1.362   9.833
  180SLPC  H12R20597   4.666   1.431   9.909
  180SLPC  C21320598   4.672   1.389   9.709
  180SLPC  H13R20599   4.760   1.454   9.700
  180SLPC  C21420600   4.653   1.315   9.582
  180SLPC  H14R20601   4.547   1.309   9.551
  180SLPC  H14S20602   4.676   1.206   9.590
  180SLPC  C21520603   4.730   1.381   9.465
  180SLPC  H15R20604   4.839   1.383   9.487
  180SLPC  H15S20605   4.690   1.484   9.455
  180SLPC  C21620606   4.708   1.286   9.344
  180SLPC  H16R20607   4.602   1.264   9.318
  180SLPC  H16S20608   4.765   1.192   9.360
  180SLPC  C21720609   4.767   1.343   9.221
  180SLPC  H17R20610   4.873   1.366   9.248
  180SLPC  H17S20611   4.711   1.436   9.201
  180SLPC  C21820612   4.766   1.258   9.096
  180SLPC  H18R20613   4.808   1.155   9.102
  180SLPC  H18S20614   4.822   1.314   9.018
  180SLPC  H18T20615   4.662   1.243   9.061
  180SLPC   C3320616   4.959   1.218  10.268
  180SLPC   H3X20617   4.909   1.119  10.255
  180SLPC   H3Y20618   5.013   1.215  10.366
  180SLPC   C3420619   5.052   1.219  10.147
  180SLPC   H4X20620   5.129   1.139  10.152
  180SLPC   H4Y20621   5.100   1.319  10.138
  180SLPC   C3520622   4.980   1.201  10.010
  180SLPC   H5X20623   4.925   1.295   9.991
  180SLPC   H5Y20624   4.889   1.138  10.012
  180SLPC   C3620625   5.077   1.178   9.892
  180SLPC   H6X20626   5.121   1.078   9.913
  180SLPC   H6Y20627   5.157   1.255   9.884
  180SLPC   C3720628   5.017   1.170   9.750
  180SLPC   H7X20629   4.988   1.271   9.713
  180SLPC   H7Y20630   4.928   1.107   9.768
  180SLPC   C3820631   5.104   1.120   9.633
  180SLPC   H8X20632   5.135   1.019   9.668
  180SLPC   H8Y20633   5.199   1.178   9.638
  180SLPC   C3920634   5.034   1.128   9.502
  180SLPC   H9X20635   5.032   1.233   9.467
  180SLPC   H9Y20636   4.927   1.101   9.513
  180SLPC  C31020637   5.102   1.028   9.404
  180SLPC  H10X20638   5.068   0.930   9.443
  180SLPC  H10Y20639   5.213   1.031   9.418
  180SLPC  C31120640   5.056   1.058   9.260
  180SLPC  H11X20641   5.083   1.164   9.245
  180SLPC  H11Y20642   4.945   1.061   9.257
  180SLPC  C31220643   5.099   0.964   9.152
  180SLPC  H12X20644   5.072   0.858   9.171
  180SLPC  H12Y20645   5.206   0.990   9.136
  180SLPC  C31320646   5.053   0.992   8.998
  180SLPC  H13X20647   5.093   1.091   8.968
  180SLPC  H13Y20648   4.944   0.978   8.985
  180SLPC  C31420649   5.126   0.891   8.902
  180SLPC  H14X20650   5.093   0.791   8.937
  180SLPC  H14Y20651   5.233   0.914   8.922
  180SLPC  C31520652   5.091   0.918   8.751
  180SLPC  H15X20653   5.099   1.029   8.741
  180SLPC  H15Y20654   4.987   0.879   8.747
  180SLPC  C31620655   5.170   0.830   8.653
  180SLPC  H16X20656   5.145   0.726   8.680
  180SLPC  H16Y20657   5.277   0.860   8.653
  180SLPC  C31720658   5.117   0.852   8.513
  180SLPC  H17X20659   5.009   0.826   8.511
  180SLPC  H17Y20660   5.158   0.781   8.438
  180SLPC  C31820661   5.127   0.988   8.445
  180SLPC  H18X20662   5.230   1.031   8.447
  180SLPC  H18Y20663   5.061   1.069   8.482
  180SLPC  H18Z20664   5.112   0.986   8.335
  181SLPC     N20665   0.579   5.289  11.398
  181SLPC   C1320666   0.435   5.340  11.416
  181SLPC  H13A20667   0.407   5.428  11.361
  181SLPC  H13B20668   0.370   5.264  11.374
  181SLPC  H13C20669   0.426   5.362  11.522
  181SLPC   C1420670   0.592   5.180  11.497
  181SLPC  H14A20671   0.603   5.229  11.593
  181SLPC  H14B20672   0.508   5.113  11.492
  181SLPC  H14C20673   0.686   5.129  11.487
  181SLPC   C1520674   0.678   5.397  11.432
  181SLPC  H15A20675   0.681   5.462  11.345
  181SLPC  H15B20676   0.640   5.454  11.515
  181SLPC  H15C20677   0.774   5.351  11.445
  181SLPC   C1220678   0.613   5.232  11.262
  181SLPC  H12A20679   0.531   5.165  11.242
  181SLPC  H12B20680   0.697   5.164  11.260
  181SLPC   C1120681   0.622   5.334  11.145
  181SLPC  H11A20682   0.630   5.275  11.051
  181SLPC  H11B20683   0.723   5.381  11.155
  181SLPC     P20684   0.403   5.403  11.034
  181SLPC   O1320685   0.391   5.255  11.024
  181SLPC   O1420686   0.283   5.482  11.050
  181SLPC   O1220687   0.516   5.432  11.142
  181SLPC   O1120688   0.472   5.450  10.901
  181SLPC    C120689   0.570   5.548  10.885
  181SLPC    HA20690   0.620   5.569  10.982
  181SLPC    HB20691   0.652   5.514  10.819
  181SLPC    C220692   0.498   5.677  10.821
  181SLPC    HS20693   0.408   5.684  10.885
  181SLPC   O2120694   0.465   5.645  10.684
  181SLPC   C2120695   0.373   5.722  10.622
  181SLPC   O2220696   0.317   5.815  10.683
  181SLPC   C2220697   0.364   5.692  10.480
  181SLPC   H2R20698   0.451   5.636  10.438
  181SLPC   H2S20699   0.286   5.614  10.471
  181SLPC    C320700   0.581   5.803  10.839
  181SLPC    HX20701   0.629   5.797  10.939
  181SLPC    HY20702   0.506   5.884  10.834
  181SLPC   O3120703   0.680   5.814  10.726
  181SLPC   C3120704   0.803   5.776  10.752
  181SLPC   O3220705   0.854   5.760  10.860
  181SLPC   C3220706   0.874   5.764  10.612
  181SLPC   H2X20707   0.983   5.785  10.617
  181SLPC   H2Y20708   0.826   5.837  10.542
  181SLPC   C2320709   0.339   5.818  10.395
  181SLPC   H3R20710   0.432   5.878  10.406
  181SLPC   H3S20711   0.252   5.873  10.439
  181SLPC   C2420712   0.310   5.787  10.244
  181SLPC   H4R20713   0.219   5.724  10.240
  181SLPC   H4S20714   0.399   5.731  10.209
  181SLPC   C2520715   0.320   5.911  10.159
  181SLPC   H5R20716   0.418   5.961  10.175
  181SLPC   H5S20717   0.246   5.990  10.185
  181SLPC   C2620718   0.284   5.888  10.005
  181SLPC   H6R20719   0.348   5.810   9.959
  181SLPC   H6S20720   0.300   5.987   9.956
  181SLPC   C2720721   0.137   5.852   9.977
  181SLPC   H7R20722   0.073   5.938  10.008
  181SLPC   H7S20723   0.108   5.759  10.029
  181SLPC   C2820724   0.120   5.834   9.817
  181SLPC   H8R20725   0.018   5.789   9.815
  181SLPC   H8S20726   0.203   5.768   9.782
  181SLPC   C2920727   0.115   5.963   9.748
  181SLPC   H9R20728   0.102   6.053   9.809
  181SLPC  C21020729   0.121   5.972   9.616
  181SLPC  H10R20730   0.122   6.070   9.567
  181SLPC  C21120731   0.134   5.858   9.515
  181SLPC  H11R20732   0.054   5.876   9.440
  181SLPC  H11S20733   0.113   5.759   9.561
  181SLPC  C21220734   0.272   5.853   9.463
  181SLPC  H12R20735   0.345   5.843   9.545
  181SLPC  C21320736   0.312   5.857   9.334
  181SLPC  H13R20737   0.415   5.852   9.298
  181SLPC  C21420738   0.217   5.866   9.215
  181SLPC  H14R20739   0.109   5.882   9.234
  181SLPC  H14S20740   0.218   5.764   9.169
  181SLPC  C21520741   0.279   5.968   9.111
  181SLPC  H15R20742   0.386   5.950   9.090
  181SLPC  H15S20743   0.280   6.068   9.158
  181SLPC  C21620744   0.197   5.958   8.978
  181SLPC  H16R20745   0.087   5.961   8.995
  181SLPC  H16S20746   0.217   5.859   8.930
  181SLPC  C21720747   0.233   6.064   8.873
  181SLPC  H17R20748   0.342   6.053   8.860
  181SLPC  H17S20749   0.216   6.165   8.914
  181SLPC  C21820750   0.178   6.042   8.730
  181SLPC  H18R20751   0.067   6.033   8.718
  181SLPC  H18S20752   0.246   5.963   8.693
  181SLPC  H18T20753   0.211   6.125   8.664
  181SLPC   C3320754   0.847   5.621  10.548
  181SLPC   H3X20755   0.743   5.580  10.546
  181SLPC   H3Y20756   0.902   5.547  10.610
  181SLPC   C3420757   0.901   5.609  10.410
  181SLPC   H4X20758   0.901   5.501  10.380
  181SLPC   H4Y20759   1.005   5.646  10.410
  181SLPC   C3520760   0.818   5.683  10.293
  181SLPC   H5X20761   0.820   5.791  10.317
  181SLPC   H5Y20762   0.716   5.642  10.307
  181SLPC   C3620763   0.870   5.651  10.156
  181SLPC   H6X20764   0.866   5.541  10.149
  181SLPC   H6Y20765   0.976   5.679  10.139
  181SLPC   C3720766   0.789   5.700  10.033
  181SLPC   H7X20767   0.685   5.671  10.059
  181SLPC   H7Y20768   0.827   5.654   9.940
  181SLPC   C3820769   0.792   5.852  10.010
  181SLPC   H8X20770   0.890   5.870   9.961
  181SLPC   H8Y20771   0.781   5.899  10.110
  181SLPC   C3920772   0.670   5.895   9.921
  181SLPC   H9X20773   0.640   5.999   9.944
  181SLPC   H9Y20774   0.584   5.827   9.937
  181SLPC  C31020775   0.724   5.912   9.773
  181SLPC  H10X20776   0.749   5.808   9.741
  181SLPC  H10Y20777   0.819   5.970   9.770
  181SLPC  C31120778   0.633   5.963   9.672
  181SLPC  H11X20779   0.597   6.067   9.686
  181SLPC  H11Y20780   0.539   5.903   9.672
  181SLPC  C31220781   0.690   5.941   9.528
  181SLPC  H12X20782   0.611   5.948   9.450
  181SLPC  H12Y20783   0.731   5.838   9.534
  181SLPC  C31320784   0.807   6.042   9.495
  181SLPC  H13X20785   0.883   6.039   9.576
  181SLPC  H13Y20786   0.770   6.147   9.496
  181SLPC  C31420787   0.870   6.018   9.364
  181SLPC  H14X20788   0.805   6.046   9.278
  181SLPC  H14Y20789   0.909   5.915   9.351
  181SLPC  C31520790   0.990   6.114   9.354
  181SLPC  H15X20791   1.060   6.078   9.432
  181SLPC  H15Y20792   0.955   6.211   9.394
  181SLPC  C31620793   1.052   6.143   9.211
  181SLPC  H16X20794   1.137   6.215   9.218
  181SLPC  H16Y20795   0.971   6.192   9.153
  181SLPC  C31720796   1.105   6.016   9.145
  181SLPC  H17X20797   1.015   5.951   9.132
  181SLPC  H17Y20798   1.165   5.978   9.230
  181SLPC  C31820799   1.179   6.036   9.013
  181SLPC  H18X20800   1.281   6.070   9.037
  181SLPC  H18Y20801   1.127   6.105   8.943
  181SLPC  H18Z20802   1.191   5.937   8.963
  182SLPC     N20803   5.929   6.072  10.887
  182SLPC   C1320804   5.969   5.958  10.799
  182SLPC  H13A20805   5.994   5.988  10.699
  182SLPC  H13B20806   6.055   5.909  10.842
  182SLPC  H13C20807   5.896   5.880  10.788
  182SLPC   C1420808   5.866   6.011  11.016
  182SLPC  H14A20809   5.822   6.087  11.079
  182SLPC  H14B20810   5.787   5.941  10.992
  182SLPC  H14C20811   5.941   5.960  11.075
  182SLPC   C1520812   5.826   6.156  10.818
  182SLPC  H15A20813   5.785   6.238  10.875
  182SLPC  H15B20814   5.872   6.187  10.726
  182SLPC  H15C20815   5.739   6.100  10.786
  182SLPC   C1220816   6.050   6.155  10.931
  182SLPC  H12A20817   6.110   6.092  10.994
  182SLPC  H12B20818   6.010   6.236  10.991
  182SLPC   C1120819   6.125   6.216  10.810
  182SLPC  H11A20820   6.149   6.134  10.740
  182SLPC  H11B20821   6.220   6.257  10.849
  182SLPC     P20822   6.045   6.471  10.791
  182SLPC   O1320823   5.930   6.493  10.874
  182SLPC   O1420824   6.174   6.502  10.860
  182SLPC   O1220825   6.050   6.319  10.742
  182SLPC   O1120826   6.038   6.566  10.659
  182SLPC    C120827   5.996   6.518  10.533
  182SLPC    HA20828   6.041   6.583  10.455
  182SLPC    HB20829   6.028   6.415  10.506
  182SLPC    C220830   5.839   6.530  10.523
  182SLPC    HS20831   5.793   6.460  10.595
  182SLPC   O2120832   5.792   6.508  10.389
  182SLPC   C2120833   5.648   6.512  10.377
  182SLPC   O2220834   5.570   6.500  10.472
  182SLPC   C2220835   5.612   6.527  10.226
  182SLPC   H2R20836   5.501   6.515  10.230
  182SLPC   H2S20837   5.622   6.632  10.192
  182SLPC    C320838   5.809   6.669  10.584
  182SLPC    HX20839   5.821   6.664  10.695
  182SLPC    HY20840   5.699   6.682  10.572
  182SLPC   O3120841   5.894   6.770  10.524
  182SLPC   C3120842   5.850   6.797  10.402
  182SLPC   O3220843   5.731   6.782  10.363
  182SLPC   C3220844   5.967   6.846  10.319
  182SLPC   H2X20845   6.055   6.787  10.355
  182SLPC   H2Y20846   6.005   6.942  10.360
  182SLPC   C2320847   5.677   6.430  10.121
  182SLPC   H3R20848   5.787   6.447  10.123
  182SLPC   H3S20849   5.641   6.460  10.021
  182SLPC   C2420850   5.649   6.282  10.133
  182SLPC   H4R20851   5.548   6.263  10.091
  182SLPC   H4S20852   5.658   6.259  10.241
  182SLPC   C2520853   5.757   6.192  10.060
  182SLPC   H5R20854   5.751   6.086  10.094
  182SLPC   H5S20855   5.857   6.224  10.095
  182SLPC   C2620856   5.752   6.186   9.909
  182SLPC   H6R20857   5.752   6.281   9.851
  182SLPC   H6S20858   5.658   6.137   9.876
  182SLPC   C2720859   5.874   6.122   9.845
  182SLPC   H7R20860   5.966   6.178   9.874
  182SLPC   H7S20861   5.873   6.146   9.737
  182SLPC   C2820862   5.901   5.973   9.871
  182SLPC   H8R20863   5.915   5.953   9.980
  182SLPC   H8S20864   5.997   5.938   9.827
  182SLPC   C2920865   5.796   5.875   9.831
  182SLPC   H9R20866   5.725   5.836   9.906
  182SLPC  C21020867   5.777   5.825   9.707
  182SLPC  H10R20868   5.699   5.749   9.689
  182SLPC  C21120869   5.851   5.868   9.585
  182SLPC  H11R20870   5.860   5.774   9.525
  182SLPC  H11S20871   5.955   5.904   9.597
  182SLPC  C21220872   5.765   5.970   9.516
  182SLPC  H12R20873   5.729   6.053   9.577
  182SLPC  C21320874   5.728   5.969   9.382
  182SLPC  H13R20875   5.687   6.063   9.342
  182SLPC  C21420876   5.762   5.864   9.281
  182SLPC  H14R20877   5.851   5.803   9.305
  182SLPC  H14S20878   5.776   5.925   9.189
  182SLPC  C21520879   5.647   5.765   9.262
  182SLPC  H15R20880   5.552   5.808   9.224
  182SLPC  H15S20881   5.619   5.710   9.354
  182SLPC  C21620882   5.675   5.668   9.153
  182SLPC  H16R20883   5.590   5.596   9.153
  182SLPC  H16S20884   5.767   5.618   9.192
  182SLPC  C21720885   5.699   5.743   9.028
  182SLPC  H17R20886   5.800   5.791   9.020
  182SLPC  H17S20887   5.627   5.827   9.016
  182SLPC  C21820888   5.683   5.647   8.914
  182SLPC  H18R20889   5.695   5.705   8.820
  182SLPC  H18S20890   5.591   5.586   8.903
  182SLPC  H18T20891   5.769   5.577   8.921
  182SLPC   C3320892   5.961   6.849  10.163
  182SLPC   H3X20893   6.061   6.883  10.131
  182SLPC   H3Y20894   5.888   6.922  10.123
  182SLPC   C3420895   5.947   6.707  10.096
  182SLPC   H4X20896   5.846   6.670  10.125
  182SLPC   H4Y20897   6.020   6.638  10.144
  182SLPC   C3520898   5.937   6.716   9.945
  182SLPC   H5X20899   6.037   6.750   9.910
  182SLPC   H5Y20900   5.864   6.797   9.927
  182SLPC   C3620901   5.894   6.583   9.882
  182SLPC   H6X20902   5.794   6.543   9.912
  182SLPC   H6Y20903   5.957   6.502   9.924
  182SLPC   C3720904   5.927   6.582   9.737
  182SLPC   H7X20905   6.037   6.597   9.724
  182SLPC   H7Y20906   5.879   6.667   9.685
  182SLPC   C3820907   5.903   6.448   9.661
  182SLPC   H8X20908   5.797   6.415   9.668
  182SLPC   H8Y20909   5.961   6.362   9.701
  182SLPC   C3920910   5.930   6.465   9.509
  182SLPC   H9X20911   6.036   6.497   9.502
  182SLPC   H9Y20912   5.864   6.541   9.462
  182SLPC  C31020913   5.895   6.335   9.444
  182SLPC  H10X20914   5.784   6.336   9.451
  182SLPC  H10Y20915   5.938   6.253   9.505
  182SLPC  C31120916   5.952   6.329   9.304
  182SLPC  H11X20917   6.059   6.358   9.315
  182SLPC  H11Y20918   5.905   6.409   9.243
  182SLPC  C31220919   5.937   6.196   9.236
  182SLPC  H12X20920   5.832   6.163   9.219
  182SLPC  H12Y20921   5.999   6.122   9.289
  182SLPC  C31320922   5.991   6.216   9.089
  182SLPC  H13X20923   6.096   6.250   9.086
  182SLPC  H13Y20924   5.925   6.292   9.042
  182SLPC  C31420925   5.995   6.086   9.005
  182SLPC  H14X20926   5.894   6.040   8.998
  182SLPC  H14Y20927   6.059   6.013   9.060
  182SLPC  C31520928   6.042   6.101   8.857
  182SLPC  H15X20929   5.972   6.166   8.799
  182SLPC  H15Y20930   6.037   6.002   8.808
  182SLPC  C31620931   6.187   6.147   8.841
  182SLPC  H16X20932   6.253   6.066   8.878
  182SLPC  H16Y20933   6.194   6.234   8.909
  182SLPC  C31720934   6.226   6.182   8.701
  182SLPC  H17X20935   6.305   6.260   8.700
  182SLPC  H17Y20936   6.141   6.220   8.640
  182SLPC  C31820937   6.297   6.073   8.618
  182SLPC  H18X20938   6.257   5.976   8.655
  182SLPC  H18Y20939   6.405   6.080   8.642
  182SLPC  H18Z20940   6.279   6.090   8.509
  183SLPC     N20941   1.043   1.278  11.057
  183SLPC   C1320942   1.143   1.264  11.163
  183SLPC  H13A20943   1.125   1.328  11.248
  183SLPC  H13B20944   1.137   1.167  11.210
  183SLPC  H13C20945   1.245   1.267  11.127
  183SLPC   C1420946   0.921   1.213  11.109
  183SLPC  H14A20947   0.930   1.112  11.146
  183SLPC  H14B20948   0.871   1.266  11.189
  183SLPC  H14C20949   0.851   1.217  11.026
  183SLPC   C1520950   1.087   1.208  10.937
  183SLPC  H15A20951   1.080   1.102  10.953
  183SLPC  H15B20952   1.028   1.240  10.852
  183SLPC  H15C20953   1.188   1.240  10.916
  183SLPC   C1220954   1.015   1.426  11.027
  183SLPC  H12A20955   1.106   1.458  10.978
  183SLPC  H12B20956   1.008   1.486  11.116
  183SLPC   C1120957   0.888   1.457  10.942
  183SLPC  H11A20958   0.894   1.565  10.917
  183SLPC  H11B20959   0.802   1.455  11.013
  183SLPC     P20960   0.753   1.299  10.792
  183SLPC   O1320961   0.763   1.168  10.860
  183SLPC   O1420962   0.638   1.385  10.813
  183SLPC   O1220963   0.882   1.376  10.825
  183SLPC   O1120964   0.759   1.283  10.636
  183SLPC    C120965   0.651   1.213  10.579
  183SLPC    HA20966   0.637   1.116  10.632
  183SLPC    HB20967   0.553   1.265  10.585
  183SLPC    C220968   0.676   1.179  10.426
  183SLPC    HS20969   0.584   1.140  10.379
  183SLPC   O2120970   0.784   1.088  10.425
  183SLPC   C2120971   0.743   0.963  10.406
  183SLPC   O2220972   0.627   0.928  10.406
  183SLPC   C2220973   0.862   0.881  10.357
  183SLPC   H2R20974   0.924   0.868  10.448
  183SLPC   H2S20975   0.835   0.777  10.328
  183SLPC    C320976   0.709   1.302  10.344
  183SLPC    HX20977   0.799   1.337  10.399
  183SLPC    HY20978   0.623   1.370  10.356
  183SLPC   O3120979   0.735   1.276  10.209
  183SLPC   C3120980   0.646   1.311  10.115
  183SLPC   O3220981   0.540   1.366  10.144
  183SLPC   C3220982   0.697   1.260   9.977
  183SLPC   H2X20983   0.690   1.151   9.992
  183SLPC   H2Y20984   0.804   1.290   9.966
  183SLPC   C2320985   0.956   0.932  10.241
  183SLPC   H3R20986   1.043   0.863  10.231
  183SLPC   H3S20987   0.984   1.035  10.273
  183SLPC   C2420988   0.895   0.932  10.100
  183SLPC   H4R20989   0.978   0.962  10.032
  183SLPC   H4S20990   0.832   1.023  10.094
  183SLPC   C2520991   0.830   0.797  10.061
  183SLPC   H5R20992   0.731   0.805  10.111
  183SLPC   H5S20993   0.878   0.707  10.104
  183SLPC   C2620994   0.810   0.776   9.903
  183SLPC   H6R20995   0.790   0.671   9.873
  183SLPC   H6S20996   0.910   0.786   9.854
  183SLPC   C2720997   0.728   0.878   9.831
  183SLPC   H7R20998   0.788   0.971   9.819
  183SLPC   H7S20999   0.637   0.908   9.887
  183SLPC   C2821000   0.669   0.859   9.684
  183SLPC   H8R21001   0.753   0.864   9.611
  183SLPC   H8S21002   0.593   0.938   9.664
  183SLPC   C2921003   0.610   0.721   9.675
  183SLPC   H9R21004   0.644   0.654   9.755
  183SLPC  C21021005   0.529   0.677   9.578
  183SLPC  H10R21006   0.501   0.570   9.574
  183SLPC  C21121007   0.473   0.755   9.453
  183SLPC  H11R21008   0.540   0.764   9.365
  183SLPC  H11S21009   0.472   0.864   9.473
  183SLPC  C21221010   0.343   0.698   9.400
  183SLPC  H12R21011   0.253   0.726   9.457
  183SLPC  C21321012   0.330   0.605   9.305
  183SLPC  H13R21013   0.230   0.560   9.294
  183SLPC  C21421014   0.444   0.548   9.224
  183SLPC  H14R21015   0.525   0.523   9.296
  183SLPC  H14S21016   0.487   0.625   9.155
  183SLPC  C21521017   0.418   0.417   9.137
  183SLPC  H15R21018   0.519   0.380   9.108
  183SLPC  H15S21019   0.358   0.445   9.048
  183SLPC  C21621020   0.345   0.310   9.220
  183SLPC  H16R21021   0.242   0.337   9.253
  183SLPC  H16S21022   0.396   0.289   9.316
  183SLPC  C21721023   0.340   0.173   9.150
  183SLPC  H17R21024   0.286   0.104   9.218
  183SLPC  H17S21025   0.431   0.111   9.133
  183SLPC  C21821026   0.257   0.178   9.018
  183SLPC  H18R21027   0.254   0.077   8.971
  183SLPC  H18S21028   0.301   0.241   8.938
  183SLPC  H18T21029   0.155   0.212   9.042
  183SLPC   C3321030   0.614   1.308   9.859
  183SLPC   H3X21031   0.626   1.417   9.843
  183SLPC   H3Y21032   0.508   1.287   9.882
  183SLPC   C3421033   0.650   1.244   9.723
  183SLPC   H4X21034   0.654   1.136   9.750
  183SLPC   H4Y21035   0.748   1.288   9.697
  183SLPC   C3521036   0.536   1.285   9.633
  183SLPC   H5X21037   0.533   1.396   9.627
  183SLPC   H5Y21038   0.440   1.246   9.673
  183SLPC   C3621039   0.566   1.234   9.491
  183SLPC   H6X21040   0.575   1.123   9.489
  183SLPC   H6Y21041   0.665   1.279   9.468
  183SLPC   C3721042   0.454   1.268   9.398
  183SLPC   H7X21043   0.428   1.375   9.413
  183SLPC   H7Y21044   0.363   1.215   9.434
  183SLPC   C3821045   0.473   1.226   9.255
  183SLPC   H8X21046   0.547   1.297   9.212
  183SLPC   H8Y21047   0.381   1.236   9.193
  183SLPC   C3921048   0.521   1.082   9.238
  183SLPC   H9X21049   0.454   1.033   9.313
  183SLPC   H9Y21050   0.625   1.083   9.279
  183SLPC  C31021051   0.500   1.031   9.100
  183SLPC  H10X21052   0.560   1.103   9.041
  183SLPC  H10Y21053   0.395   1.053   9.069
  183SLPC  C31121054   0.539   0.883   9.092
  183SLPC  H11X21055   0.463   0.830   9.152
  183SLPC  H11Y21056   0.642   0.875   9.135
  183SLPC  C31221057   0.541   0.825   8.948
  183SLPC  H12X21058   0.547   0.714   8.949
  183SLPC  H12Y21059   0.631   0.865   8.898
  183SLPC  C31321060   0.426   0.871   8.853
  183SLPC  H13X21061   0.436   0.833   8.749
  183SLPC  H13Y21062   0.430   0.982   8.848
  183SLPC  C31421063   0.282   0.821   8.907
  183SLPC  H14X21064   0.203   0.893   8.879
  183SLPC  H14Y21065   0.282   0.830   9.018
  183SLPC  C31521066   0.244   0.675   8.857
  183SLPC  H15X21067   0.327   0.609   8.891
  183SLPC  H15Y21068   0.231   0.670   8.747
  183SLPC  C31621069   0.120   0.628   8.937
  183SLPC  H16X21070   0.044   0.708   8.924
  183SLPC  H16Y21071   0.145   0.622   9.045
  183SLPC  C31721072   0.055   0.497   8.886
  183SLPC  H17X21073   0.135   0.420   8.878
  183SLPC  H17Y21074   0.021   0.518   8.783
  183SLPC  C31821075  -0.068   0.466   8.980
  183SLPC  H18X21076  -0.038   0.470   9.087
  183SLPC  H18Y21077  -0.118   0.371   8.954
  183SLPC  H18Z21078  -0.148   0.543   8.976
  184SLPC     N21079   2.484   5.830  10.775
  184SLPC   C1321080   2.550   5.951  10.847
  184SLPC  H13A21081   2.536   5.943  10.954
  184SLPC  H13B21082   2.649   5.982  10.818
  184SLPC  H13C21083   2.503   6.046  10.830
  184SLPC   C1421084   2.447   5.873  10.640
  184SLPC  H14A21085   2.530   5.931  10.602
  184SLPC  H14B21086   2.419   5.787  10.581
  184SLPC  H14C21087   2.365   5.942  10.650
  184SLPC   C1521088   2.363   5.778  10.856
  184SLPC  H15A21089   2.280   5.842  10.830
  184SLPC  H15B21090   2.331   5.685  10.812
  184SLPC  H15C21091   2.388   5.765  10.960
  184SLPC   C1221092   2.590   5.723  10.775
  184SLPC  H12A21093   2.543   5.638  10.728
  184SLPC  H12B21094   2.611   5.679  10.872
  184SLPC   C1121095   2.724   5.745  10.707
  184SLPC  H11A21096   2.793   5.812  10.762
  184SLPC  H11B21097   2.702   5.789  10.607
  184SLPC     P21098   2.905   5.595  10.590
  184SLPC   O1321099   3.015   5.683  10.648
  184SLPC   O1421100   2.933   5.452  10.561
  184SLPC   O1221101   2.783   5.615  10.690
  184SLPC   O1121102   2.853   5.656  10.452
  184SLPC    C121103   2.737   5.619  10.374
  184SLPC    HA21104   2.656   5.615  10.449
  184SLPC    HB21105   2.707   5.698  10.302
  184SLPC    C221106   2.736   5.481  10.306
  184SLPC    HS21107   2.727   5.406  10.387
  184SLPC   O2121108   2.855   5.477  10.227
  184SLPC   C2121109   2.906   5.354  10.216
  184SLPC   O2221110   2.886   5.259  10.284
  184SLPC   C2221111   2.995   5.353  10.090
  184SLPC   H2R21112   2.930   5.377  10.004
  184SLPC   H2S21113   3.076   5.428  10.101
  184SLPC    C321114   2.609   5.462  10.220
  184SLPC    HX21115   2.620   5.507  10.119
  184SLPC    HY21116   2.535   5.526  10.272
  184SLPC   O3121117   2.569   5.327  10.209
  184SLPC   C3121118   2.457   5.304  10.134
  184SLPC   O3221119   2.389   5.395  10.097
  184SLPC   C3221120   2.439   5.154  10.107
  184SLPC   H2X21121   2.341   5.122  10.148
  184SLPC   H2Y21122   2.515   5.104  10.171
  184SLPC   C2321123   3.050   5.212  10.078
  184SLPC   H3R21124   2.963   5.143  10.080
  184SLPC   H3S21125   3.105   5.190  10.173
  184SLPC   C2421126   3.136   5.187   9.951
  184SLPC   H4R21127   3.198   5.098   9.970
  184SLPC   H4S21128   3.207   5.272   9.946
  184SLPC   C2521129   3.054   5.154   9.819
  184SLPC   H5R21130   3.004   5.245   9.779
  184SLPC   H5S21131   2.966   5.096   9.853
  184SLPC   C2621132   3.135   5.076   9.720
  184SLPC   H6R21133   3.133   4.968   9.747
  184SLPC   H6S21134   3.239   5.113   9.735
  184SLPC   C2721135   3.074   5.086   9.584
  184SLPC   H7R21136   3.084   5.185   9.534
  184SLPC   H7S21137   2.966   5.058   9.576
  184SLPC   C2821138   3.125   4.976   9.488
  184SLPC   H8R21139   3.068   4.973   9.392
  184SLPC   H8S21140   3.109   4.873   9.524
  184SLPC   C2921141   3.273   5.003   9.444
  184SLPC   H9R21142   3.345   5.005   9.527
  184SLPC  C21021143   3.316   5.029   9.316
  184SLPC  H10R21144   3.425   5.043   9.305
  184SLPC  C21121145   3.232   5.024   9.191
  184SLPC  H11R21146   3.153   4.946   9.201
  184SLPC  H11S21147   3.296   4.984   9.109
  184SLPC  C21221148   3.169   5.144   9.141
  184SLPC  H12R21149   3.079   5.167   9.199
  184SLPC  C21321150   3.207   5.225   9.038
  184SLPC  H13R21151   3.159   5.321   9.014
  184SLPC  C21421152   3.335   5.219   8.965
  184SLPC  H14R21153   3.397   5.131   8.992
  184SLPC  H14S21154   3.401   5.304   8.996
  184SLPC  C21521155   3.314   5.224   8.813
  184SLPC  H15R21156   3.254   5.315   8.792
  184SLPC  H15S21157   3.265   5.132   8.774
  184SLPC  C21621158   3.447   5.242   8.735
  184SLPC  H16R21159   3.473   5.349   8.749
  184SLPC  H16S21160   3.418   5.225   8.629
  184SLPC  C21721161   3.554   5.143   8.772
  184SLPC  H17R21162   3.513   5.040   8.778
  184SLPC  H17S21163   3.588   5.167   8.875
  184SLPC  C21821164   3.673   5.154   8.668
  184SLPC  H18R21165   3.624   5.136   8.569
  184SLPC  H18S21166   3.754   5.080   8.684
  184SLPC  H18T21167   3.725   5.252   8.658
  184SLPC   C3321168   2.448   5.114   9.960
  184SLPC   H3X21169   2.358   5.159   9.913
  184SLPC   H3Y21170   2.433   5.004   9.958
  184SLPC   C3421171   2.581   5.162   9.899
  184SLPC   H4X21172   2.672   5.124   9.951
  184SLPC   H4Y21173   2.596   5.272   9.894
  184SLPC   C3521174   2.610   5.111   9.758
  184SLPC   H5X21175   2.596   5.001   9.762
  184SLPC   H5Y21176   2.713   5.123   9.719
  184SLPC   C3621177   2.518   5.170   9.649
  184SLPC   H6X21178   2.525   5.279   9.669
  184SLPC   H6Y21179   2.413   5.135   9.658
  184SLPC   C3721180   2.563   5.126   9.504
  184SLPC   H7X21181   2.548   5.016   9.492
  184SLPC   H7Y21182   2.670   5.146   9.481
  184SLPC   C3821183   2.484   5.204   9.400
  184SLPC   H8X21184   2.538   5.300   9.385
  184SLPC   H8Y21185   2.381   5.228   9.434
  184SLPC   C3921186   2.485   5.127   9.265
  184SLPC   H9X21187   2.432   5.032   9.287
  184SLPC   H9Y21188   2.589   5.111   9.231
  184SLPC  C31021189   2.405   5.195   9.153
  184SLPC  H10X21190   2.422   5.305   9.161
  184SLPC  H10Y21191   2.297   5.191   9.180
  184SLPC  C31121192   2.439   5.132   9.014
  184SLPC  H11X21193   2.433   5.022   9.026
  184SLPC  H11Y21194   2.546   5.151   8.991
  184SLPC  C31221195   2.339   5.172   8.909
  184SLPC  H12X21196   2.332   5.280   8.934
  184SLPC  H12Y21197   2.240   5.127   8.929
  184SLPC  C31321198   2.403   5.151   8.769
  184SLPC  H13X21199   2.380   5.051   8.727
  184SLPC  H13Y21200   2.512   5.173   8.771
  184SLPC  C31421201   2.353   5.249   8.663
  184SLPC  H14X21202   2.352   5.348   8.715
  184SLPC  H14Y21203   2.244   5.229   8.647
  184SLPC  C31521204   2.428   5.268   8.525
  184SLPC  H15X21205   2.387   5.192   8.454
  184SLPC  H15Y21206   2.536   5.246   8.542
  184SLPC  C31621207   2.422   5.408   8.472
  184SLPC  H16X21208   2.434   5.486   8.551
  184SLPC  H16Y21209   2.327   5.428   8.419
  184SLPC  C31721210   2.530   5.426   8.365
  184SLPC  H17X21211   2.511   5.355   8.282
  184SLPC  H17Y21212   2.631   5.400   8.402
  184SLPC  C31821213   2.533   5.567   8.304
  184SLPC  H18X21214   2.554   5.644   8.381
  184SLPC  H18Y21215   2.439   5.600   8.256
  184SLPC  H18Z21216   2.619   5.575   8.234
  185SLPC     N21217   1.083   1.730   6.318
  185SLPC   C1321218   1.004   1.628   6.241
  185SLPC  H13A21219   1.066   1.556   6.190
  185SLPC  H13B21220   0.952   1.571   6.316
  185SLPC  H13C21221   0.935   1.682   6.177
  185SLPC   C1421222   0.983   1.814   6.390
  185SLPC  H14A21223   0.912   1.753   6.444
  185SLPC  H14B21224   1.039   1.873   6.461
  185SLPC  H14C21225   0.933   1.882   6.323
  185SLPC   C1521226   1.159   1.824   6.229
  185SLPC  H15A21227   1.238   1.789   6.164
  185SLPC  H15B21228   1.078   1.872   6.177
  185SLPC  H15C21229   1.203   1.893   6.299
  185SLPC   C1221230   1.172   1.656   6.405
  185SLPC  H12A21231   1.253   1.618   6.345
  185SLPC  H12B21232   1.130   1.566   6.448
  185SLPC   C1121233   1.230   1.742   6.519
  185SLPC  H11A21234   1.292   1.670   6.578
  185SLPC  H11B21235   1.145   1.788   6.573
  185SLPC     P21236   1.467   1.862   6.477
  185SLPC   O1321237   1.520   1.744   6.406
  185SLPC   O1421238   1.504   1.998   6.432
  185SLPC   O1221239   1.310   1.853   6.468
  185SLPC   O1121240   1.505   1.845   6.627
  185SLPC    C121241   1.454   1.946   6.722
  185SLPC    HA21242   1.512   2.040   6.710
  185SLPC    HB21243   1.343   1.959   6.726
  185SLPC    C221244   1.469   1.902   6.870
  185SLPC    HS21245   1.577   1.887   6.893
  185SLPC   O2121246   1.396   1.787   6.895
  185SLPC   C2121247   1.457   1.671   6.907
  185SLPC   O2221248   1.575   1.656   6.910
  185SLPC   C2221249   1.346   1.562   6.906
  185SLPC   H2R21250   1.252   1.618   6.926
  185SLPC   H2S21251   1.345   1.525   6.801
  185SLPC    C321252   1.418   2.014   6.964
  185SLPC    HX21253   1.312   2.035   6.941
  185SLPC    HY21254   1.473   2.109   6.944
  185SLPC   O3121255   1.454   1.988   7.101
  185SLPC   C3121256   1.357   1.949   7.176
  185SLPC   O3221257   1.240   1.928   7.138
  185SLPC   C3221258   1.420   1.913   7.312
  185SLPC   H2X21259   1.397   2.001   7.376
  185SLPC   H2Y21260   1.531   1.905   7.312
  185SLPC   C2321261   1.365   1.445   7.005
  185SLPC   H3R21262   1.467   1.401   6.999
  185SLPC   H3S21263   1.292   1.364   6.982
  185SLPC   C2421264   1.353   1.489   7.152
  185SLPC   H4R21265   1.267   1.555   7.174
  185SLPC   H4S21266   1.435   1.560   7.179
  185SLPC   C2521267   1.341   1.369   7.245
  185SLPC   H5R21268   1.439   1.346   7.291
  185SLPC   H5S21269   1.290   1.281   7.200
  185SLPC   C2621270   1.247   1.404   7.364
  185SLPC   H6R21271   1.148   1.428   7.319
  185SLPC   H6S21272   1.271   1.505   7.405
  185SLPC   C2721273   1.222   1.304   7.477
  185SLPC   H7R21274   1.267   1.205   7.451
  185SLPC   H7S21275   1.114   1.283   7.493
  185SLPC   C2821276   1.285   1.356   7.611
  185SLPC   H8R21277   1.393   1.376   7.593
  185SLPC   H8S21278   1.286   1.272   7.684
  185SLPC   C2921279   1.208   1.471   7.668
  185SLPC   H9R21280   1.165   1.544   7.598
  185SLPC  C21021281   1.185   1.496   7.803
  185SLPC  H10R21282   1.128   1.587   7.827
  185SLPC  C21121283   1.242   1.422   7.917
  185SLPC  H11R21284   1.333   1.363   7.897
  185SLPC  H11S21285   1.169   1.348   7.957
  185SLPC  C21221286   1.278   1.523   8.023
  185SLPC  H12R21287   1.353   1.599   7.993
  185SLPC  C21321288   1.242   1.513   8.149
  185SLPC  H13R21289   1.257   1.586   8.230
  185SLPC  C21421290   1.157   1.399   8.206
  185SLPC  H14R21291   1.102   1.337   8.131
  185SLPC  H14S21292   1.083   1.445   8.275
  185SLPC  C21521293   1.231   1.297   8.298
  185SLPC  H15R21294   1.328   1.283   8.246
  185SLPC  H15S21295   1.167   1.206   8.301
  185SLPC  C21621296   1.266   1.355   8.439
  185SLPC  H16R21297   1.172   1.402   8.477
  185SLPC  H16S21298   1.351   1.426   8.440
  185SLPC  C21721299   1.317   1.236   8.526
  185SLPC  H17R21300   1.363   1.281   8.617
  185SLPC  H17S21301   1.401   1.190   8.471
  185SLPC  C21821302   1.212   1.144   8.582
  185SLPC  H18R21303   1.141   1.211   8.635
  185SLPC  H18S21304   1.262   1.073   8.652
  185SLPC  H18T21305   1.156   1.096   8.499
  185SLPC   C3321306   1.355   1.795   7.387
  185SLPC   H3X21307   1.362   1.705   7.323
  185SLPC   H3Y21308   1.249   1.812   7.414
  185SLPC   C3421309   1.426   1.767   7.514
  185SLPC   H4X21310   1.536   1.762   7.501
  185SLPC   H4Y21311   1.388   1.666   7.541
  185SLPC   C3521312   1.407   1.878   7.624
  185SLPC   H5X21313   1.300   1.902   7.637
  185SLPC   H5Y21314   1.441   1.971   7.573
  185SLPC   C3621315   1.465   1.851   7.763
  185SLPC   H6X21316   1.571   1.816   7.755
  185SLPC   H6Y21317   1.400   1.781   7.819
  185SLPC   C3721318   1.482   1.985   7.841
  185SLPC   H7X21319   1.380   2.027   7.852
  185SLPC   H7Y21320   1.551   2.061   7.799
  185SLPC   C3821321   1.555   1.969   7.974
  185SLPC   H8X21322   1.575   2.070   8.015
  185SLPC   H8Y21323   1.650   1.914   7.957
  185SLPC   C3921324   1.472   1.890   8.077
  185SLPC   H9X21325   1.528   1.800   8.110
  185SLPC   H9Y21326   1.374   1.859   8.036
  185SLPC  C31021327   1.441   1.976   8.206
  185SLPC  H10X21328   1.408   2.080   8.185
  185SLPC  H10Y21329   1.538   1.994   8.258
  185SLPC  C31121330   1.335   1.902   8.303
  185SLPC  H11X21331   1.345   1.938   8.407
  185SLPC  H11Y21332   1.354   1.793   8.305
  185SLPC  C31221333   1.186   1.931   8.270
  185SLPC  H12X21334   1.152   1.887   8.174
  185SLPC  H12Y21335   1.176   2.040   8.251
  185SLPC  C31321336   1.093   1.909   8.385
  185SLPC  H13X21337   0.985   1.913   8.360
  185SLPC  H13Y21338   1.112   1.984   8.465
  185SLPC  C31421339   1.120   1.773   8.456
  185SLPC  H14X21340   1.221   1.783   8.503
  185SLPC  H14Y21341   1.117   1.692   8.380
  185SLPC  C31521342   1.018   1.742   8.564
  185SLPC  H15X21343   1.039   1.649   8.621
  185SLPC  H15Y21344   0.918   1.725   8.519
  185SLPC  C31621345   0.998   1.854   8.672
  185SLPC  H16X21346   0.960   1.945   8.621
  185SLPC  H16Y21347   1.090   1.871   8.732
  185SLPC  C31721348   0.887   1.813   8.776
  185SLPC  H17X21349   0.898   1.876   8.867
  185SLPC  H17Y21350   0.910   1.706   8.798
  185SLPC  C31821351   0.740   1.819   8.723
  185SLPC  H18X21352   0.741   1.754   8.633
  185SLPC  H18Y21353   0.697   1.920   8.703
  185SLPC  H18Z21354   0.671   1.775   8.799
  186SLPC     N21355   2.430   4.118   6.010
  186SLPC   C1321356   2.539   4.115   5.916
  186SLPC  H13A21357   2.602   4.030   5.938
  186SLPC  H13B21358   2.504   4.104   5.814
  186SLPC  H13C21359   2.609   4.198   5.927
  186SLPC   C1421360   2.358   3.988   5.997
  186SLPC  H14A21361   2.411   3.902   6.037
  186SLPC  H14B21362   2.258   3.996   6.038
  186SLPC  H14C21363   2.340   3.954   5.897
  186SLPC   C1521364   2.339   4.227   5.977
  186SLPC  H15A21365   2.390   4.322   5.964
  186SLPC  H15B21366   2.291   4.218   5.881
  186SLPC  H15C21367   2.258   4.234   6.049
  186SLPC   C1221368   2.478   4.138   6.152
  186SLPC  H12A21369   2.517   4.236   6.171
  186SLPC  H12B21370   2.565   4.078   6.174
  186SLPC   C1121371   2.383   4.136   6.271
  186SLPC  H11A21372   2.439   4.160   6.364
  186SLPC  H11B21373   2.346   4.032   6.271
  186SLPC     P21374   2.120   4.192   6.258
  186SLPC   O1321375   2.035   4.312   6.226
  186SLPC   O1421376   2.105   4.066   6.180
  186SLPC   O1221377   2.278   4.232   6.262
  186SLPC   O1121378   2.092   4.154   6.415
  186SLPC    C121379   2.176   4.208   6.515
  186SLPC    HA21380   2.234   4.123   6.559
  186SLPC    HB21381   2.244   4.287   6.478
  186SLPC    C221382   2.088   4.277   6.631
  186SLPC    HS21383   2.159   4.326   6.700
  186SLPC   O2121384   2.012   4.176   6.707
  186SLPC   C2121385   2.097   4.102   6.784
  186SLPC   O2221386   2.211   4.126   6.800
  186SLPC   C2221387   2.022   3.979   6.833
  186SLPC   H2R21388   2.005   3.913   6.745
  186SLPC   H2S21389   2.092   3.923   6.899
  186SLPC    C321390   1.986   4.372   6.565
  186SLPC    HX21391   1.923   4.315   6.493
  186SLPC    HY21392   2.050   4.439   6.503
  186SLPC   O3121393   1.894   4.431   6.665
  186SLPC   C3121394   1.937   4.536   6.723
  186SLPC   O3221395   2.037   4.600   6.699
  186SLPC   C3221396   1.838   4.586   6.835
  186SLPC   H2X21397   1.753   4.515   6.850
  186SLPC   H2Y21398   1.802   4.679   6.787
  186SLPC   C2321399   1.891   4.021   6.898
  186SLPC   H3R21400   1.828   3.930   6.916
  186SLPC   H3S21401   1.828   4.084   6.832
  186SLPC   C2421402   1.903   4.082   7.044
  186SLPC   H4R21403   1.831   4.164   7.061
  186SLPC   H4S21404   2.004   4.127   7.051
  186SLPC   C2521405   1.903   3.985   7.161
  186SLPC   H5R21406   1.991   3.921   7.144
  186SLPC   H5S21407   1.813   3.920   7.151
  186SLPC   C2621408   1.911   4.032   7.308
  186SLPC   H6R21409   2.016   4.064   7.327
  186SLPC   H6S21410   1.893   3.937   7.363
  186SLPC   C2721411   1.809   4.134   7.354
  186SLPC   H7R21412   1.710   4.101   7.315
  186SLPC   H7S21413   1.831   4.230   7.302
  186SLPC   C2821414   1.816   4.168   7.509
  186SLPC   H8R21415   1.923   4.157   7.536
  186SLPC   H8S21416   1.773   4.077   7.555
  186SLPC   C2921417   1.749   4.286   7.557
  186SLPC   H9R21418   1.673   4.331   7.492
  186SLPC  C21021419   1.744   4.320   7.689
  186SLPC  H10R21420   1.703   4.422   7.700
  186SLPC  C21121421   1.797   4.267   7.818
  186SLPC  H11R21422   1.794   4.354   7.887
  186SLPC  H11S21423   1.904   4.240   7.807
  186SLPC  C21221424   1.727   4.141   7.866
  186SLPC  H12R21425   1.730   4.059   7.793
  186SLPC  C21321426   1.670   4.116   7.985
  186SLPC  H13R21427   1.646   4.010   8.001
  186SLPC  C21421428   1.664   4.213   8.101
  186SLPC  H14R21429   1.572   4.182   8.154
  186SLPC  H14S21430   1.661   4.320   8.070
  186SLPC  C21521431   1.778   4.187   8.194
  186SLPC  H15R21432   1.871   4.224   8.146
  186SLPC  H15S21433   1.800   4.079   8.207
  186SLPC  C21621434   1.773   4.273   8.325
  186SLPC  H16R21435   1.694   4.349   8.308
  186SLPC  H16S21436   1.867   4.330   8.342
  186SLPC  C21721437   1.739   4.196   8.456
  186SLPC  H17R21438   1.832   4.138   8.477
  186SLPC  H17S21439   1.653   4.129   8.432
  186SLPC  C21821440   1.714   4.296   8.573
  186SLPC  H18R21441   1.658   4.241   8.652
  186SLPC  H18S21442   1.633   4.365   8.542
  186SLPC  H18T21443   1.799   4.350   8.620
  186SLPC   C3321444   1.909   4.618   6.964
  186SLPC   H3X21445   1.834   4.650   7.039
  186SLPC   H3Y21446   1.979   4.703   6.950
  186SLPC   C3421447   1.987   4.502   7.031
  186SLPC   H4X21448   2.079   4.502   6.970
  186SLPC   H4Y21449   1.954   4.397   7.018
  186SLPC   C3521450   2.012   4.529   7.174
  186SLPC   H5X21451   1.920   4.513   7.236
  186SLPC   H5Y21452   2.049   4.633   7.186
  186SLPC   C3621453   2.118   4.435   7.229
  186SLPC   H6X21454   2.204   4.438   7.158
  186SLPC   H6Y21455   2.083   4.330   7.223
  186SLPC   C3721456   2.164   4.479   7.365
  186SLPC   H7X21457   2.160   4.588   7.383
  186SLPC   H7Y21458   2.268   4.443   7.379
  186SLPC   C3821459   2.079   4.404   7.469
  186SLPC   H8X21460   2.095   4.294   7.461
  186SLPC   H8Y21461   1.973   4.431   7.450
  186SLPC   C3921462   2.116   4.439   7.614
  186SLPC   H9X21463   2.222   4.419   7.640
  186SLPC   H9Y21464   2.059   4.377   7.686
  186SLPC  C31021465   2.080   4.591   7.645
  186SLPC  H10X21466   1.984   4.621   7.596
  186SLPC  H10Y21467   2.160   4.648   7.593
  186SLPC  C31121468   2.078   4.636   7.794
  186SLPC  H11X21469   2.078   4.746   7.814
  186SLPC  H11Y21470   2.176   4.603   7.835
  186SLPC  C31221471   1.973   4.588   7.893
  186SLPC  H12X21472   2.002   4.484   7.916
  186SLPC  H12Y21473   1.874   4.589   7.841
  186SLPC  C31321474   1.979   4.653   8.036
  186SLPC  H13X21475   1.940   4.757   8.036
  186SLPC  H13Y21476   2.087   4.655   8.062
  186SLPC  C31421477   1.907   4.580   8.140
  186SLPC  H14X21478   1.935   4.473   8.155
  186SLPC  H14Y21479   1.800   4.562   8.115
  186SLPC  C31521480   1.931   4.660   8.263
  186SLPC  H15X21481   1.871   4.620   8.348
  186SLPC  H15Y21482   1.900   4.766   8.256
  186SLPC  C31621483   2.077   4.657   8.313
  186SLPC  H16X21484   2.139   4.730   8.256
  186SLPC  H16Y21485   2.119   4.559   8.285
  186SLPC  C31721486   2.086   4.662   8.468
  186SLPC  H17X21487   2.193   4.654   8.494
  186SLPC  H17Y21488   2.034   4.583   8.526
  186SLPC  C31821489   2.045   4.806   8.524
  186SLPC  H18X21490   1.941   4.831   8.494
  186SLPC  H18Y21491   2.103   4.894   8.490
  186SLPC  H18Z21492   2.047   4.805   8.635
  187SLPC     N21493   2.484   1.068   6.200
  187SLPC   C1321494   2.430   1.014   6.072
  187SLPC  H13A21495   2.508   1.020   5.998
  187SLPC  H13B21496   2.377   0.920   6.076
  187SLPC  H13C21497   2.362   1.083   6.023
  187SLPC   C1421498   2.368   1.123   6.277
  187SLPC  H14A21499   2.319   1.199   6.218
  187SLPC  H14B21500   2.309   1.034   6.297
  187SLPC  H14C21501   2.399   1.156   6.375
  187SLPC   C1521502   2.570   1.189   6.165
  187SLPC  H15A21503   2.506   1.254   6.107
  187SLPC  H15B21504   2.604   1.233   6.258
  187SLPC  H15C21505   2.650   1.161   6.098
  187SLPC   C1221506   2.556   0.963   6.285
  187SLPC  H12A21507   2.614   0.899   6.221
  187SLPC  H12B21508   2.479   0.904   6.332
  187SLPC   C1121509   2.656   1.009   6.401
  187SLPC  H11A21510   2.753   1.034   6.353
  187SLPC  H11B21511   2.682   0.927   6.472
  187SLPC     P21512   2.684   1.211   6.564
  187SLPC   O1321513   2.825   1.201   6.523
  187SLPC   O1421514   2.621   1.344   6.567
  187SLPC   O1221515   2.609   1.127   6.468
  187SLPC   O1121516   2.664   1.144   6.702
  187SLPC    C121517   2.551   1.075   6.742
  187SLPC    HA21518   2.477   1.154   6.768
  187SLPC    HB21519   2.508   1.007   6.666
  187SLPC    C221520   2.578   0.982   6.867
  187SLPC    HS21521   2.489   0.915   6.878
  187SLPC   O2121522   2.603   1.054   6.994
  187SLPC   C2121523   2.493   1.113   7.039
  187SLPC   O2221524   2.383   1.121   6.982
  187SLPC   C2221525   2.528   1.156   7.185
  187SLPC   H2R21526   2.638   1.156   7.199
  187SLPC   H2S21527   2.481   1.257   7.185
  187SLPC    C321528   2.701   0.887   6.844
  187SLPC    HX21529   2.789   0.953   6.827
  187SLPC    HY21530   2.679   0.845   6.744
  187SLPC   O3121531   2.703   0.786   6.942
  187SLPC   C3121532   2.816   0.765   7.004
  187SLPC   O3221533   2.923   0.814   6.986
  187SLPC   C3221534   2.768   0.656   7.102
  187SLPC   H2X21535   2.772   0.557   7.051
  187SLPC   H2Y21536   2.665   0.677   7.138
  187SLPC   C2321537   2.472   1.051   7.289
  187SLPC   H3R21538   2.511   1.077   7.390
  187SLPC   H3S21539   2.511   0.955   7.248
  187SLPC   C2421540   2.314   1.056   7.297
  187SLPC   H4R21541   2.275   0.983   7.372
  187SLPC   H4S21542   2.286   1.017   7.197
  187SLPC   C2521543   2.247   1.192   7.320
  187SLPC   H5R21544   2.138   1.176   7.308
  187SLPC   H5S21545   2.273   1.274   7.249
  187SLPC   C2621546   2.273   1.255   7.462
  187SLPC   H6R21547   2.243   1.361   7.475
  187SLPC   H6S21548   2.383   1.246   7.480
  187SLPC   C2721549   2.204   1.177   7.573
  187SLPC   H7R21550   2.256   1.079   7.576
  187SLPC   H7S21551   2.101   1.165   7.533
  187SLPC   C2821552   2.209   1.253   7.710
  187SLPC   H8R21553   2.149   1.346   7.715
  187SLPC   H8S21554   2.314   1.286   7.729
  187SLPC   C2921555   2.153   1.157   7.815
  187SLPC   H9R21556   2.043   1.156   7.813
  187SLPC  C21021557   2.210   1.087   7.914
  187SLPC  H10R21558   2.148   1.037   7.990
  187SLPC  C21121559   2.359   1.058   7.938
  187SLPC  H11R21560   2.404   1.036   7.838
  187SLPC  H11S21561   2.360   0.965   7.998
  187SLPC  C21221562   2.452   1.157   7.999
  187SLPC  H12R21563   2.490   1.229   7.925
  187SLPC  C21321564   2.499   1.151   8.127
  187SLPC  H13R21565   2.562   1.230   8.171
  187SLPC  C21421566   2.450   1.046   8.224
  187SLPC  H14R21567   2.506   0.952   8.204
  187SLPC  H14S21568   2.346   1.017   8.196
  187SLPC  C21521569   2.460   1.088   8.373
  187SLPC  H15R21570   2.410   1.185   8.391
  187SLPC  H15S21571   2.566   1.110   8.396
  187SLPC  C21621572   2.405   0.977   8.469
  187SLPC  H16R21573   2.444   0.975   8.573
  187SLPC  H16S21574   2.458   0.887   8.434
  187SLPC  C21721575   2.251   0.961   8.471
  187SLPC  H17R21576   2.214   0.942   8.368
  187SLPC  H17S21577   2.204   1.051   8.516
  187SLPC  C21821578   2.197   0.844   8.556
  187SLPC  H18R21579   2.092   0.829   8.523
  187SLPC  H18S21580   2.212   0.874   8.662
  187SLPC  H18T21581   2.250   0.750   8.531
  187SLPC   C3321582   2.849   0.655   7.230
  187SLPC   H3X21583   2.841   0.749   7.289
  187SLPC   H3Y21584   2.957   0.634   7.220
  187SLPC   C3421585   2.797   0.550   7.332
  187SLPC   H4X21586   2.827   0.448   7.301
  187SLPC   H4Y21587   2.687   0.566   7.335
  187SLPC   C3521588   2.872   0.575   7.465
  187SLPC   H5X21589   2.872   0.682   7.495
  187SLPC   H5Y21590   2.976   0.546   7.438
  187SLPC   C3621591   2.820   0.487   7.580
  187SLPC   H6X21592   2.791   0.391   7.534
  187SLPC   H6Y21593   2.730   0.537   7.622
  187SLPC   C3721594   2.920   0.469   7.694
  187SLPC   H7X21595   3.007   0.408   7.662
  187SLPC   H7Y21596   2.942   0.569   7.738
  187SLPC   C3821597   2.853   0.393   7.806
  187SLPC   H8X21598   2.801   0.298   7.781
  187SLPC   H8Y21599   2.776   0.454   7.858
  187SLPC   C3921600   2.962   0.363   7.914
  187SLPC   H9X21601   2.992   0.461   7.956
  187SLPC   H9Y21602   3.041   0.304   7.863
  187SLPC  C31021603   2.912   0.284   8.040
  187SLPC  H10X21604   2.861   0.199   7.989
  187SLPC  H10Y21605   2.831   0.339   8.093
  187SLPC  C31121606   3.024   0.234   8.128
  187SLPC  H11X21607   3.093   0.317   8.155
  187SLPC  H11Y21608   3.086   0.161   8.072
  187SLPC  C31221609   2.968   0.157   8.246
  187SLPC  H12X21610   3.051   0.105   8.298
  187SLPC  H12Y21611   2.906   0.081   8.195
  187SLPC  C31321612   2.898   0.247   8.346
  187SLPC  H13X21613   2.805   0.279   8.294
  187SLPC  H13Y21614   2.951   0.343   8.369
  187SLPC  C31421615   2.864   0.173   8.475
  187SLPC  H14X21616   2.969   0.147   8.501
  187SLPC  H14Y21617   2.800   0.084   8.456
  187SLPC  C31521618   2.780   0.259   8.572
  187SLPC  H15X21619   2.679   0.261   8.526
  187SLPC  H15Y21620   2.827   0.360   8.572
  187SLPC  C31621621   2.759   0.200   8.715
  187SLPC  H16X21622   2.740   0.091   8.708
  187SLPC  H16Y21623   2.664   0.249   8.745
  187SLPC  C31721624   2.878   0.235   8.805
  187SLPC  H17X21625   2.869   0.344   8.825
  187SLPC  H17Y21626   2.975   0.214   8.756
  187SLPC  C31821627   2.878   0.162   8.939
  187SLPC  H18X21628   2.911   0.059   8.914
  187SLPC  H18Y21629   2.782   0.152   8.994
  187SLPC  H18Z21630   2.953   0.206   9.008
  188SLPC     N21631   4.333   2.313   6.334
  188SLPC   C1321632   4.226   2.224   6.388
  188SLPC  H13A21633   4.256   2.121   6.399
  188SLPC  H13B21634   4.208   2.252   6.491
  188SLPC  H13C21635   4.135   2.228   6.330
  188SLPC   C1421636   4.355   2.271   6.190
  188SLPC  H14A21637   4.448   2.313   6.154
  188SLPC  H14B21638   4.383   2.167   6.185
  188SLPC  H14C21639   4.274   2.288   6.120
  188SLPC   C1521640   4.467   2.298   6.400
  188SLPC  H15A21641   4.532   2.378   6.369
  188SLPC  H15B21642   4.463   2.307   6.508
  188SLPC  H15C21643   4.511   2.200   6.386
  188SLPC   C1221644   4.291   2.459   6.355
  188SLPC  H12A21645   4.364   2.519   6.302
  188SLPC  H12B21646   4.287   2.486   6.460
  188SLPC   C1121647   4.156   2.493   6.298
  188SLPC  H11A21648   4.084   2.410   6.317
  188SLPC  H11B21649   4.160   2.508   6.188
  188SLPC     P21650   4.081   2.640   6.502
  188SLPC   O1321651   4.183   2.581   6.586
  188SLPC   O1421652   4.048   2.787   6.520
  188SLPC   O1221653   4.124   2.623   6.352
  188SLPC   O1121654   3.942   2.561   6.500
  188SLPC    C121655   3.836   2.595   6.420
  188SLPC    HA21656   3.862   2.668   6.341
  188SLPC    HB21657   3.802   2.499   6.375
  188SLPC    C221658   3.717   2.637   6.505
  188SLPC    HS21659   3.742   2.736   6.547
  188SLPC   O2121660   3.687   2.533   6.603
  188SLPC   C2121661   3.730   2.551   6.725
  188SLPC   O2221662   3.795   2.647   6.758
  188SLPC   C2221663   3.649   2.451   6.814
  188SLPC   H2R21664   3.543   2.472   6.786
  188SLPC   H2S21665   3.688   2.350   6.790
  188SLPC    C321666   3.593   2.673   6.423
  188SLPC    HX21667   3.571   2.575   6.375
  188SLPC    HY21668   3.611   2.755   6.350
  188SLPC   O3121669   3.488   2.719   6.510
  188SLPC   C3121670   3.391   2.638   6.531
  188SLPC   O3221671   3.378   2.521   6.495
  188SLPC   C3221672   3.300   2.717   6.629
  188SLPC   H2X21673   3.225   2.644   6.667
  188SLPC   H2Y21674   3.246   2.790   6.565
  188SLPC   C2321675   3.680   2.484   6.967
  188SLPC   H3R21676   3.653   2.590   6.989
  188SLPC   H3S21677   3.782   2.451   6.994
  188SLPC   C2421678   3.589   2.408   7.067
  188SLPC   H4R21679   3.599   2.298   7.051
  188SLPC   H4S21680   3.483   2.436   7.049
  188SLPC   C2521681   3.632   2.429   7.214
  188SLPC   H5R21682   3.709   2.504   7.242
  188SLPC   H5S21683   3.683   2.335   7.243
  188SLPC   C2621684   3.513   2.439   7.318
  188SLPC   H6R21685   3.450   2.347   7.324
  188SLPC   H6S21686   3.457   2.527   7.281
  188SLPC   C2721687   3.563   2.486   7.458
  188SLPC   H7R21688   3.612   2.585   7.443
  188SLPC   H7S21689   3.630   2.407   7.498
  188SLPC   C2821690   3.453   2.494   7.564
  188SLPC   H8R21691   3.500   2.500   7.665
  188SLPC   H8S21692   3.399   2.398   7.578
  188SLPC   C2921693   3.354   2.607   7.540
  188SLPC   H9R21694   3.265   2.570   7.489
  188SLPC  C21021695   3.360   2.736   7.569
  188SLPC  H10R21696   3.281   2.799   7.526
  188SLPC  C21121697   3.465   2.805   7.654
  188SLPC  H11R21698   3.498   2.732   7.731
  188SLPC  H11S21699   3.418   2.888   7.712
  188SLPC  C21221700   3.582   2.856   7.574
  188SLPC  H12R21701   3.603   2.780   7.498
  188SLPC  C21321702   3.633   2.982   7.579
  188SLPC  H13R21703   3.720   2.999   7.514
  188SLPC  C21421704   3.604   3.089   7.680
  188SLPC  H14R21705   3.598   3.030   7.774
  188SLPC  H14S21706   3.511   3.142   7.647
  188SLPC  C21521707   3.714   3.196   7.704
  188SLPC  H15R21708   3.706   3.271   7.622
  188SLPC  H15S21709   3.817   3.155   7.701
  188SLPC  C21621710   3.692   3.263   7.843
  188SLPC  H16R21711   3.583   3.274   7.859
  188SLPC  H16S21712   3.733   3.366   7.840
  188SLPC  C21721713   3.752   3.202   7.974
  188SLPC  H17R21714   3.714   3.098   7.990
  188SLPC  H17S21715   3.722   3.265   8.061
  188SLPC  C21821716   3.901   3.199   7.980
  188SLPC  H18R21717   3.943   3.239   7.886
  188SLPC  H18S21718   3.940   3.095   7.987
  188SLPC  H18T21719   3.925   3.257   8.072
  188SLPC   C3321720   3.375   2.774   6.744
  188SLPC   H3X21721   3.460   2.841   6.717
  188SLPC   H3Y21722   3.442   2.699   6.792
  188SLPC   C3421723   3.296   2.840   6.854
  188SLPC   H4X21724   3.205   2.778   6.869
  188SLPC   H4Y21725   3.263   2.938   6.814
  188SLPC   C3521726   3.348   2.839   6.998
  188SLPC   H5X21727   3.454   2.871   7.007
  188SLPC   H5Y21728   3.342   2.735   7.038
  188SLPC   C3621729   3.260   2.936   7.089
  188SLPC   H6X21730   3.151   2.915   7.084
  188SLPC   H6Y21731   3.266   3.034   7.036
  188SLPC   C3721732   3.304   2.951   7.230
  188SLPC   H7X21733   3.411   2.981   7.232
  188SLPC   H7Y21734   3.299   2.856   7.288
  188SLPC   C3821735   3.226   3.062   7.304
  188SLPC   H8X21736   3.126   3.014   7.313
  188SLPC   H8Y21737   3.208   3.155   7.247
  188SLPC   C3921738   3.282   3.091   7.446
  188SLPC   H9X21739   3.371   3.157   7.439
  188SLPC   H9Y21740   3.316   2.994   7.487
  188SLPC  C31021741   3.189   3.141   7.555
  188SLPC  H10X21742   3.105   3.070   7.545
  188SLPC  H10Y21743   3.148   3.240   7.525
  188SLPC  C31121744   3.259   3.154   7.688
  188SLPC  H11X21745   3.335   3.234   7.679
  188SLPC  H11Y21746   3.318   3.062   7.708
  188SLPC  C31221747   3.170   3.192   7.812
  188SLPC  H12X21748   3.092   3.118   7.841
  188SLPC  H12Y21749   3.109   3.279   7.778
  188SLPC  C31321750   3.232   3.224   7.944
  188SLPC  H13X21751   3.152   3.232   8.021
  188SLPC  H13Y21752   3.283   3.322   7.930
  188SLPC  C31421753   3.342   3.124   7.981
  188SLPC  H14X21754   3.387   3.155   8.077
  188SLPC  H14Y21755   3.421   3.114   7.904
  188SLPC  C31521756   3.281   2.983   8.005
  188SLPC  H15X21757   3.210   2.962   7.921
  188SLPC  H15Y21758   3.220   2.982   8.098
  188SLPC  C31621759   3.379   2.867   8.016
  188SLPC  H16X21760   3.436   2.855   8.111
  188SLPC  H16Y21761   3.455   2.878   7.936
  188SLPC  C31721762   3.316   2.727   7.993
  188SLPC  H17X21763   3.256   2.731   7.899
  188SLPC  H17Y21764   3.247   2.713   8.078
  188SLPC  C31821765   3.412   2.611   7.992
  188SLPC  H18X21766   3.370   2.516   7.955
  188SLPC  H18Y21767   3.445   2.588   8.096
  188SLPC  H18Z21768   3.508   2.630   7.939
  189SLPC     N21769   5.835   4.958   6.070
  189SLPC   C1321770   5.820   4.971   6.220
  189SLPC  H13A21771   5.735   5.034   6.243
  189SLPC  H13B21772   5.815   4.875   6.269
  189SLPC  H13C21773   5.904   5.018   6.268
  189SLPC   C1421774   5.823   5.090   6.013
  189SLPC  H14A21775   5.736   5.146   6.045
  189SLPC  H14B21776   5.907   5.149   6.044
  189SLPC  H14C21777   5.821   5.080   5.905
  189SLPC   C1521778   5.734   4.872   6.012
  189SLPC  H15A21779   5.701   4.796   6.082
  189SLPC  H15B21780   5.647   4.926   5.976
  189SLPC  H15C21781   5.777   4.821   5.927
  189SLPC   C1221782   5.969   4.894   6.047
  189SLPC  H12A21783   6.003   4.883   5.945
  189SLPC  H12B21784   5.961   4.791   6.079
  189SLPC   C1121785   6.093   4.955   6.118
  189SLPC  H11A21786   6.116   5.056   6.078
  189SLPC  H11B21787   6.173   4.887   6.084
  189SLPC     P21788   6.193   5.035   6.350
  189SLPC   O1321789   6.327   4.971   6.334
  189SLPC   O1421790   6.182   5.181   6.311
  189SLPC   O1221791   6.087   4.955   6.265
  189SLPC   O1121792   6.145   5.015   6.500
  189SLPC    C121793   6.001   5.025   6.512
  189SLPC    HA21794   5.962   5.128   6.495
  189SLPC    HB21795   5.948   4.948   6.451
  189SLPC    C221796   5.939   4.986   6.650
  189SLPC    HS21797   5.836   5.027   6.640
  189SLPC   O2121798   6.010   5.050   6.761
  189SLPC   C2121799   5.941   5.077   6.869
  189SLPC   O2221800   5.814   5.065   6.874
  189SLPC   C2221801   6.030   5.127   6.983
  189SLPC   H2R21802   6.129   5.160   6.943
  189SLPC   H2S21803   5.987   5.223   7.019
  189SLPC    C321804   5.920   4.832   6.669
  189SLPC    HX21805   6.022   4.790   6.655
  189SLPC    HY21806   5.855   4.795   6.587
  189SLPC   O3121807   5.873   4.799   6.801
  189SLPC   C3121808   5.738   4.799   6.805
  189SLPC   O3221809   5.662   4.834   6.715
  189SLPC   C3221810   5.678   4.745   6.940
  189SLPC   H2X21811   5.762   4.724   7.009
  189SLPC   H2Y21812   5.625   4.651   6.916
  189SLPC   C2321813   6.042   5.020   7.091
  189SLPC   H3R21814   6.125   5.045   7.161
  189SLPC   H3S21815   6.043   4.917   7.049
  189SLPC   C2421816   5.924   5.025   7.186
  189SLPC   H4R21817   5.829   4.994   7.137
  189SLPC   H4S21818   5.920   5.133   7.212
  189SLPC   C2521819   5.951   4.945   7.318
  189SLPC   H5R21820   6.037   4.996   7.367
  189SLPC   H5S21821   5.973   4.840   7.291
  189SLPC   C2621822   5.824   4.954   7.402
  189SLPC   H6R21823   5.750   4.895   7.344
  189SLPC   H6S21824   5.779   5.055   7.408
  189SLPC   C2721825   5.849   4.903   7.541
  189SLPC   H7R21826   5.915   4.976   7.591
  189SLPC   H7S21827   5.910   4.810   7.545
  189SLPC   C2821828   5.715   4.863   7.613
  189SLPC   H8R21829   5.655   4.956   7.615
  189SLPC   H8S21830   5.732   4.842   7.721
  189SLPC   C2921831   5.645   4.742   7.555
  189SLPC   H9R21832   5.618   4.731   7.449
  189SLPC  C21021833   5.590   4.642   7.630
  189SLPC  H10R21834   5.533   4.562   7.581
  189SLPC  C21121835   5.590   4.632   7.782
  189SLPC  H11R21836   5.694   4.620   7.820
  189SLPC  H11S21837   5.537   4.537   7.805
  189SLPC  C21221838   5.522   4.739   7.862
  189SLPC  H12R21839   5.539   4.842   7.828
  189SLPC  C21321840   5.436   4.730   7.970
  189SLPC  H13R21841   5.385   4.824   7.997
  189SLPC  C21421842   5.393   4.600   8.042
  189SLPC  H14R21843   5.418   4.513   7.977
  189SLPC  H14S21844   5.283   4.596   8.052
  189SLPC  C21521845   5.456   4.571   8.182
  189SLPC  H15R21846   5.560   4.608   8.189
  189SLPC  H15S21847   5.453   4.461   8.194
  189SLPC  C21621848   5.367   4.626   8.295
  189SLPC  H16R21849   5.259   4.603   8.281
  189SLPC  H16S21850   5.382   4.735   8.308
  189SLPC  C21721851   5.400   4.555   8.426
  189SLPC  H17R21852   5.502   4.582   8.460
  189SLPC  H17S21853   5.386   4.446   8.405
  189SLPC  C21821854   5.306   4.606   8.533
  189SLPC  H18R21855   5.297   4.528   8.612
  189SLPC  H18S21856   5.210   4.634   8.486
  189SLPC  H18T21857   5.348   4.697   8.580
  189SLPC   C3321858   5.591   4.852   7.010
  189SLPC   H3X21859   5.512   4.871   6.933
  189SLPC   H3Y21860   5.645   4.946   7.033
  189SLPC   C3421861   5.519   4.815   7.146
  189SLPC   H4X21862   5.480   4.911   7.185
  189SLPC   H4Y21863   5.593   4.772   7.217
  189SLPC   C3521864   5.395   4.728   7.136
  189SLPC   H5X21865   5.437   4.641   7.082
  189SLPC   H5Y21866   5.315   4.773   7.073
  189SLPC   C3621867   5.328   4.688   7.267
  189SLPC   H6X21868   5.405   4.669   7.345
  189SLPC   H6Y21869   5.271   4.593   7.260
  189SLPC   C3721870   5.236   4.801   7.331
  189SLPC   H7X21871   5.166   4.823   7.248
  189SLPC   H7Y21872   5.297   4.890   7.356
  189SLPC   C3821873   5.165   4.746   7.452
  189SLPC   H8X21874   5.235   4.708   7.529
  189SLPC   H8Y21875   5.097   4.662   7.425
  189SLPC   C3921876   5.071   4.853   7.519
  189SLPC   H9X21877   4.998   4.886   7.442
  189SLPC   H9Y21878   5.127   4.946   7.540
  189SLPC  C31021879   4.998   4.803   7.642
  189SLPC  H10X21880   4.953   4.703   7.626
  189SLPC  H10Y21881   4.918   4.876   7.666
  189SLPC  C31121882   5.091   4.785   7.771
  189SLPC  H11X21883   5.169   4.860   7.746
  189SLPC  H11Y21884   5.139   4.689   7.799
  189SLPC  C31221885   5.016   4.834   7.904
  189SLPC  H12X21886   4.983   4.940   7.896
  189SLPC  H12Y21887   5.092   4.826   7.985
  189SLPC  C31321888   4.905   4.741   7.952
  189SLPC  H13X21889   4.925   4.635   7.928
  189SLPC  H13Y21890   4.811   4.770   7.899
  189SLPC  C31421891   4.888   4.744   8.104
  189SLPC  H14X21892   4.863   4.848   8.136
  189SLPC  H14Y21893   4.989   4.729   8.147
  189SLPC  C31521894   4.794   4.631   8.154
  189SLPC  H15X21895   4.810   4.531   8.106
  189SLPC  H15Y21896   4.686   4.648   8.136
  189SLPC  C31621897   4.803   4.598   8.300
  189SLPC  H16X21898   4.746   4.503   8.316
  189SLPC  H16Y21899   4.758   4.674   8.367
  189SLPC  C31721900   4.940   4.569   8.356
  189SLPC  H17X21901   5.003   4.660   8.367
  189SLPC  H17Y21902   4.992   4.494   8.293
  189SLPC  C31821903   4.923   4.495   8.487
  189SLPC  H18X21904   4.917   4.566   8.573
  189SLPC  H18Y21905   5.013   4.430   8.500
  189SLPC  H18Z21906   4.838   4.425   8.482
  190SLPC     N21907   6.062   4.180   6.571
  190SLPC   C1321908   6.054   4.325   6.543
  190SLPC  H13A21909   6.116   4.337   6.455
  190SLPC  H13B21910   5.953   4.355   6.519
  190SLPC  H13C21911   6.098   4.385   6.621
  190SLPC   C1421912   5.996   4.096   6.461
  190SLPC  H14A21913   6.062   4.081   6.376
  190SLPC  H14B21914   5.973   3.997   6.495
  190SLPC  H14C21915   5.905   4.144   6.429
  190SLPC   C1521916   5.974   4.150   6.693
  190SLPC  H15A21917   5.997   4.047   6.716
  190SLPC  H15B21918   6.000   4.218   6.773
  190SLPC  H15C21919   5.869   4.162   6.672
  190SLPC   C1221920   6.208   4.136   6.596
  190SLPC  H12A21921   6.197   4.039   6.641
  190SLPC  H12B21922   6.252   4.186   6.681
  190SLPC   C1121923   6.308   4.143   6.481
  190SLPC  H11A21924   6.409   4.151   6.526
  190SLPC  H11B21925   6.293   4.236   6.421
  190SLPC     P21926   6.385   3.924   6.361
  190SLPC   O1321927   6.388   3.905   6.210
  190SLPC   O1421928   6.518   3.959   6.421
  190SLPC   O1221929   6.270   4.028   6.397
  190SLPC   O1121930   6.329   3.796   6.428
  190SLPC    C121931   6.201   3.748   6.405
  190SLPC    HA21932   6.150   3.802   6.323
  190SLPC    HB21933   6.207   3.640   6.380
  190SLPC    C221934   6.117   3.761   6.529
  190SLPC    HS21935   6.111   3.872   6.541
  190SLPC   O2121936   6.198   3.703   6.636
  190SLPC   C2121937   6.194   3.771   6.747
  190SLPC   O2221938   6.133   3.876   6.769
  190SLPC   C2221939   6.265   3.694   6.858
  190SLPC   H2R21940   6.206   3.601   6.869
  190SLPC   H2S21941   6.361   3.659   6.816
  190SLPC    C321942   5.970   3.697   6.518
  190SLPC    HX21943   5.991   3.593   6.485
  190SLPC    HY21944   5.915   3.757   6.441
  190SLPC   O3121945   5.901   3.702   6.646
  190SLPC   C3121946   5.813   3.793   6.660
  190SLPC   O3221947   5.789   3.890   6.589
  190SLPC   C3221948   5.739   3.753   6.785
  190SLPC   H2X21949   5.789   3.679   6.852
  190SLPC   H2Y21950   5.650   3.704   6.740
  190SLPC   C2321951   6.280   3.777   6.993
  190SLPC   H3R21952   6.311   3.879   6.961
  190SLPC   H3S21953   6.358   3.727   7.055
  190SLPC   C2421954   6.154   3.787   7.078
  190SLPC   H4R21955   6.127   3.688   7.120
  190SLPC   H4S21956   6.068   3.814   7.011
  190SLPC   C2521957   6.167   3.886   7.196
  190SLPC   H5R21958   6.172   3.985   7.146
  190SLPC   H5S21959   6.262   3.857   7.245
  190SLPC   C2621960   6.050   3.890   7.293
  190SLPC   H6R21961   6.057   3.973   7.366
  190SLPC   H6S21962   6.054   3.802   7.361
  190SLPC   C2721963   5.909   3.899   7.232
  190SLPC   H7R21964   5.888   3.806   7.173
  190SLPC   H7S21965   5.906   3.980   7.155
  190SLPC   C2821966   5.795   3.922   7.334
  190SLPC   H8R21967   5.706   3.929   7.268
  190SLPC   H8S21968   5.812   4.020   7.384
  190SLPC   C2921969   5.793   3.801   7.428
  190SLPC   H9R21970   5.735   3.717   7.387
  190SLPC  C21021971   5.842   3.795   7.555
  190SLPC  H10R21972   5.822   3.699   7.606
  190SLPC  C21121973   5.917   3.900   7.632
  190SLPC  H11R21974   5.856   3.958   7.705
  190SLPC  H11S21975   5.965   3.977   7.569
  190SLPC  C21221976   6.022   3.835   7.710
  190SLPC  H12R21977   6.070   3.753   7.655
  190SLPC  C21321978   6.039   3.844   7.845
  190SLPC  H13R21979   6.141   3.817   7.876
  190SLPC  C21421980   5.951   3.925   7.953
  190SLPC  H14R21981   5.869   3.874   8.008
  190SLPC  H14S21982   5.906   4.014   7.904
  190SLPC  C21521983   6.031   3.977   8.076
  190SLPC  H15R21984   6.118   4.041   8.049
  190SLPC  H15S21985   6.077   3.888   8.123
  190SLPC  C21621986   5.951   4.054   8.182
  190SLPC  H16R21987   5.880   3.993   8.241
  190SLPC  H16S21988   5.886   4.134   8.138
  190SLPC  C21721989   6.030   4.125   8.290
  190SLPC  H17R21990   6.102   4.193   8.238
  190SLPC  H17S21991   6.076   4.044   8.350
  190SLPC  C21821992   5.934   4.198   8.383
  190SLPC  H18R21993   5.859   4.122   8.414
  190SLPC  H18S21994   5.883   4.281   8.330
  190SLPC  H18T21995   5.989   4.227   8.475
  190SLPC   C3321996   5.687   3.883   6.858
  190SLPC   H3X21997   5.622   3.941   6.788
  190SLPC   H3Y21998   5.779   3.940   6.880
  190SLPC   C3421999   5.602   3.846   6.977
  190SLPC   H4X22000   5.604   3.938   7.040
  190SLPC   H4Y22001   5.646   3.760   7.032
  190SLPC   C3522002   5.459   3.829   6.947
  190SLPC   H5X22003   5.451   3.718   6.938
  190SLPC   H5Y22004   5.415   3.876   6.856
  190SLPC   C3622005   5.364   3.874   7.066
  190SLPC   H6X22006   5.258   3.853   7.040
  190SLPC   H6Y22007   5.370   3.984   7.080
  190SLPC   C3722008   5.399   3.809   7.200
  190SLPC   H7X22009   5.490   3.854   7.244
  190SLPC   H7Y22010   5.424   3.701   7.186
  190SLPC   C3822011   5.282   3.806   7.301
  190SLPC   H8X22012   5.190   3.757   7.260
  190SLPC   H8Y22013   5.241   3.908   7.318
  190SLPC   C3922014   5.315   3.757   7.446
  190SLPC   H9X22015   5.419   3.788   7.470
  190SLPC   H9Y22016   5.312   3.646   7.445
  190SLPC  C31022017   5.214   3.803   7.551
  190SLPC  H10X22018   5.113   3.770   7.520
  190SLPC  H10Y22019   5.226   3.913   7.558
  190SLPC  C31122020   5.225   3.746   7.695
  190SLPC  H11X22021   5.320   3.780   7.741
  190SLPC  H11Y22022   5.246   3.637   7.698
  190SLPC  C31222023   5.101   3.795   7.773
  190SLPC  H12X22024   5.023   3.736   7.719
  190SLPC  H12Y22025   5.084   3.902   7.749
  190SLPC  C31322026   5.103   3.763   7.923
  190SLPC  H13X22027   5.174   3.836   7.967
  190SLPC  H13Y22028   5.137   3.659   7.945
  190SLPC  C31422029   4.960   3.774   7.984
  190SLPC  H14X22030   4.883   3.705   7.944
  190SLPC  H14Y22031   4.923   3.877   7.969
  190SLPC  C31522032   4.967   3.738   8.135
  190SLPC  H15X22033   5.016   3.638   8.141
  190SLPC  H15Y22034   4.859   3.734   8.161
  190SLPC  C31622035   5.041   3.837   8.228
  190SLPC  H16X22036   5.005   3.938   8.199
  190SLPC  H16Y22037   5.146   3.833   8.194
  190SLPC  C31722038   5.041   3.791   8.381
  190SLPC  H17X22039   5.078   3.689   8.403
  190SLPC  H17Y22040   4.941   3.787   8.430
  190SLPC  C31822041   5.116   3.891   8.478
  190SLPC  H18X22042   5.224   3.877   8.456
  190SLPC  H18Y22043   5.104   3.879   8.587
  190SLPC  H18Z22044   5.091   3.994   8.445
  191SLPC     N22045   6.149   5.926   5.849
  191SLPC   C1322046   6.195   5.964   5.986
  191SLPC  H13A22047   6.114   5.939   6.053
  191SLPC  H13B22048   6.292   5.925   6.013
  191SLPC  H13C22049   6.209   6.071   5.981
  191SLPC   C1422050   6.102   5.784   5.841
  191SLPC  H14A22051   6.154   5.725   5.915
  191SLPC  H14B22052   5.998   5.791   5.867
  191SLPC  H14C22053   6.111   5.742   5.742
  191SLPC   C1522054   6.270   5.937   5.763
  191SLPC  H15A22055   6.350   5.872   5.794
  191SLPC  H15B22056   6.245   5.891   5.668
  191SLPC  H15C22057   6.304   6.039   5.750
  191SLPC   C1222058   6.040   6.014   5.798
  191SLPC  H12A22059   5.999   5.952   5.719
  191SLPC  H12B22060   6.091   6.101   5.761
  191SLPC   C1122061   5.924   6.035   5.893
  191SLPC  H11A22062   5.859   6.108   5.840
  191SLPC  H11B22063   5.955   6.104   5.973
  191SLPC     P22064   5.735   5.855   5.860
  191SLPC   O1322065   5.771   5.835   5.720
  191SLPC   O1422066   5.691   5.727   5.929
  191SLPC   O1222067   5.856   5.919   5.941
  191SLPC   O1122068   5.624   5.959   5.868
  191SLPC    C122069   5.514   5.945   5.965
  191SLPC    HA22070   5.425   6.002   5.930
  191SLPC    HB22071   5.463   5.847   5.961
  191SLPC    C222072   5.524   5.976   6.114
  191SLPC    HS22073   5.422   6.013   6.137
  191SLPC   O2122074   5.623   6.075   6.136
  191SLPC   C2122075   5.602   6.195   6.087
  191SLPC   O2222076   5.497   6.234   6.034
  191SLPC   C2222077   5.718   6.294   6.122
  191SLPC   H2R22078   5.814   6.248   6.155
  191SLPC   H2S22079   5.740   6.357   6.033
  191SLPC    C322080   5.544   5.857   6.207
  191SLPC    HX22081   5.635   5.799   6.181
  191SLPC    HY22082   5.459   5.792   6.178
  191SLPC   O3122083   5.545   5.896   6.348
  191SLPC   C3122084   5.652   5.928   6.413
  191SLPC   O3222085   5.760   5.939   6.361
  191SLPC   C3222086   5.628   5.925   6.566
  191SLPC   H2X22087   5.588   5.825   6.591
  191SLPC   H2Y22088   5.566   6.011   6.600
  191SLPC   C2322089   5.668   6.385   6.235
  191SLPC   H3R22090   5.559   6.402   6.225
  191SLPC   H3S22091   5.716   6.484   6.229
  191SLPC   C2422092   5.683   6.324   6.374
  191SLPC   H4R22093   5.785   6.279   6.379
  191SLPC   H4S22094   5.621   6.233   6.390
  191SLPC   C2522095   5.648   6.430   6.481
  191SLPC   H5R22096   5.538   6.443   6.483
  191SLPC   H5S22097   5.675   6.531   6.443
  191SLPC   C2622098   5.687   6.384   6.624
  191SLPC   H6R22099   5.794   6.400   6.650
  191SLPC   H6S22100   5.659   6.278   6.642
  191SLPC   C2722101   5.595   6.462   6.712
  191SLPC   H7R22102   5.489   6.435   6.694
  191SLPC   H7S22103   5.597   6.571   6.689
  191SLPC   C2822104   5.630   6.443   6.859
  191SLPC   H8R22105   5.615   6.337   6.888
  191SLPC   H8S22106   5.542   6.489   6.910
  191SLPC   C2922107   5.758   6.502   6.918
  191SLPC   H9R22108   5.849   6.441   6.912
  191SLPC  C21022109   5.765   6.626   6.981
  191SLPC  H10R22110   5.866   6.659   7.009
  191SLPC  C21122111   5.659   6.736   7.007
  191SLPC  H11R22112   5.574   6.722   6.936
  191SLPC  H11S22113   5.693   6.836   6.975
  191SLPC  C21222114   5.610   6.737   7.149
  191SLPC  H12R22115   5.693   6.741   7.221
  191SLPC  C21322116   5.484   6.735   7.193
  191SLPC  H13R22117   5.470   6.736   7.302
  191SLPC  C21422118   5.358   6.747   7.106
  191SLPC  H14R22119   5.264   6.726   7.160
  191SLPC  H14S22120   5.354   6.667   7.030
  191SLPC  C21522121   5.347   6.883   7.037
  191SLPC  H15R22122   5.275   6.893   6.953
  191SLPC  H15S22123   5.442   6.901   6.982
  191SLPC  C21622124   5.317   7.004   7.132
  191SLPC  H16R22125   5.389   7.010   7.217
  191SLPC  H16S22126   5.216   6.996   7.177
  191SLPC  C21722127   5.315   7.145   7.067
  191SLPC  H17R22128   5.265   7.222   7.130
  191SLPC  H17S22129   5.248   7.152   6.979
  191SLPC  C21822130   5.457   7.183   7.012
  191SLPC  H18R22131   5.470   7.136   6.912
  191SLPC  H18S22132   5.540   7.133   7.066
  191SLPC  H18T22133   5.470   7.293   7.003
  191SLPC   C3322134   5.761   5.952   6.633
  191SLPC   H3X22135   5.792   6.058   6.622
  191SLPC   H3Y22136   5.842   5.888   6.590
  191SLPC   C3422137   5.733   5.923   6.780
  191SLPC   H4X22138   5.737   5.817   6.812
  191SLPC   H4Y22139   5.630   5.955   6.809
  191SLPC   C3522140   5.840   5.990   6.868
  191SLPC   H5X22141   5.851   6.098   6.846
  191SLPC   H5Y22142   5.936   5.938   6.846
  191SLPC   C3622143   5.803   5.987   7.013
  191SLPC   H6X22144   5.752   5.890   7.030
  191SLPC   H6Y22145   5.720   6.058   7.034
  191SLPC   C3722146   5.931   5.992   7.099
  191SLPC   H7X22147   5.988   6.084   7.073
  191SLPC   H7Y22148   5.994   5.906   7.065
  191SLPC   C3822149   5.921   5.982   7.255
  191SLPC   H8X22150   6.022   5.958   7.293
  191SLPC   H8Y22151   5.857   5.897   7.285
  191SLPC   C3922152   5.856   6.105   7.323
  191SLPC   H9X22153   5.831   6.076   7.427
  191SLPC   H9Y22154   5.757   6.110   7.271
  191SLPC  C31022155   5.927   6.237   7.319
  191SLPC  H10X22156   5.927   6.266   7.212
  191SLPC  H10Y22157   6.033   6.224   7.350
  191SLPC  C31122158   5.856   6.357   7.396
  191SLPC  H11X22159   5.855   6.350   7.507
  191SLPC  H11Y22160   5.748   6.348   7.371
  191SLPC  C31222161   5.924   6.488   7.365
  191SLPC  H12X22162   5.899   6.511   7.259
  191SLPC  H12Y22163   6.033   6.466   7.356
  191SLPC  C31322164   5.893   6.601   7.463
  191SLPC  H13X22165   5.920   6.699   7.417
  191SLPC  H13Y22166   5.947   6.582   7.558
  191SLPC  C31422167   5.740   6.604   7.490
  191SLPC  H14X22168   5.708   6.513   7.545
  191SLPC  H14Y22169   5.691   6.589   7.391
  191SLPC  C31522170   5.684   6.724   7.566
  191SLPC  H15X22171   5.573   6.722   7.568
  191SLPC  H15Y22172   5.722   6.818   7.520
  191SLPC  C31622173   5.737   6.745   7.707
  191SLPC  H16X22174   5.845   6.721   7.711
  191SLPC  H16Y22175   5.696   6.660   7.765
  191SLPC  C31722176   5.704   6.880   7.770
  191SLPC  H17X22177   5.598   6.899   7.744
  191SLPC  H17Y22178   5.758   6.951   7.704
  191SLPC  C31822179   5.736   6.896   7.917
  191SLPC  H18X22180   5.681   6.817   7.972
  191SLPC  H18Y22181   5.687   6.991   7.949
  191SLPC  H18Z22182   5.843   6.898   7.948
  192SLPC     N22183   5.530   0.076   6.341
  192SLPC   C1322184   5.430  -0.034   6.359
  192SLPC  H13A22185   5.475  -0.131   6.378
  192SLPC  H13B22186   5.361  -0.013   6.439
  192SLPC  H13C22187   5.368  -0.038   6.270
  192SLPC   C1422188   5.450   0.190   6.281
  192SLPC  H14A22189   5.509   0.258   6.222
  192SLPC  H14B22190   5.368   0.166   6.215
  192SLPC  H14C22191   5.394   0.233   6.362
  192SLPC   C1522192   5.634   0.045   6.244
  192SLPC  H15A22193   5.694   0.136   6.249
  192SLPC  H15B22194   5.706  -0.031   6.269
  192SLPC  H15C22195   5.587   0.023   6.149
  192SLPC   C1222196   5.578   0.122   6.480
  192SLPC  H12A22197   5.494   0.154   6.541
  192SLPC  H12B22198   5.637   0.209   6.456
  192SLPC   C1122199   5.679   0.035   6.561
  192SLPC  H11A22200   5.649  -0.071   6.549
  192SLPC  H11B22201   5.663   0.072   6.665
  192SLPC     P22202   5.911   0.172   6.528
  192SLPC   O1322203   6.050   0.132   6.503
  192SLPC   O1422204   5.861   0.285   6.447
  192SLPC   O1222205   5.810   0.052   6.513
  192SLPC   O1122206   5.894   0.202   6.686
  192SLPC    C122207   5.911   0.099   6.783
  192SLPC    HA22208   5.814   0.079   6.835
  192SLPC    HB22209   5.935   0.008   6.724
  192SLPC    C222210   6.013   0.120   6.910
  192SLPC    HS22211   6.011   0.032   6.977
  192SLPC   O2122212   5.957   0.230   6.991
  192SLPC   C2122213   5.893   0.200   7.104
  192SLPC   O2222214   5.872   0.092   7.154
  192SLPC   C2222215   5.853   0.332   7.167
  192SLPC   H2R22216   5.947   0.374   7.209
  192SLPC   H2S22217   5.816   0.397   7.085
  192SLPC    C322218   6.161   0.149   6.864
  192SLPC    HX22219   6.155   0.232   6.791
  192SLPC    HY22220   6.199   0.069   6.797
  192SLPC   O3122221   6.252   0.153   6.981
  192SLPC   C3122222   6.258   0.280   7.032
  192SLPC   O3222223   6.198   0.373   6.992
  192SLPC   C3222224   6.356   0.287   7.150
  192SLPC   H2X22225   6.424   0.374   7.137
  192SLPC   H2Y22226   6.413   0.192   7.156
  192SLPC   C2322227   5.753   0.306   7.282
  192SLPC   H3R22228   5.794   0.228   7.350
  192SLPC   H3S22229   5.663   0.269   7.229
  192SLPC   C2422230   5.726   0.436   7.356
  192SLPC   H4R22231   5.652   0.498   7.302
  192SLPC   H4S22232   5.820   0.495   7.364
  192SLPC   C2522233   5.657   0.414   7.491
  192SLPC   H5R22234   5.648   0.512   7.541
  192SLPC   H5S22235   5.730   0.357   7.553
  192SLPC   C2622236   5.522   0.345   7.481
  192SLPC   H6R22237   5.526   0.234   7.469
  192SLPC   H6S22238   5.466   0.371   7.389
  192SLPC   C2722239   5.439   0.386   7.600
  192SLPC   H7R22240   5.429   0.496   7.589
  192SLPC   H7S22241   5.500   0.355   7.687
  192SLPC   C2822242   5.300   0.322   7.601
  192SLPC   H8R22243   5.254   0.365   7.509
  192SLPC   H8S22244   5.249   0.371   7.686
  192SLPC   C2922245   5.296   0.168   7.609
  192SLPC   H9R22246   5.313   0.105   7.520
  192SLPC  C21022247   5.267   0.086   7.713
  192SLPC  H10R22248   5.294  -0.020   7.718
  192SLPC  C21122249   5.221   0.128   7.846
  192SLPC  H11R22250   5.138   0.058   7.868
  192SLPC  H11S22251   5.173   0.228   7.841
  192SLPC  C21222252   5.328   0.118   7.953
  192SLPC  H12R22253   5.434   0.108   7.925
  192SLPC  C21322254   5.300   0.133   8.084
  192SLPC  H13R22255   5.389   0.138   8.148
  192SLPC  C21422256   5.164   0.144   8.145
  192SLPC  H14R22257   5.146   0.076   8.230
  192SLPC  H14S22258   5.081   0.119   8.075
  192SLPC  C21522259   5.124   0.285   8.198
  192SLPC  H15R22260   5.018   0.280   8.232
  192SLPC  H15S22261   5.131   0.363   8.119
  192SLPC  C21622262   5.205   0.333   8.315
  192SLPC  H16R22263   5.307   0.349   8.274
  192SLPC  H16S22264   5.209   0.246   8.384
  192SLPC  C21722265   5.140   0.449   8.389
  192SLPC  H17R22266   5.203   0.473   8.478
  192SLPC  H17S22267   5.133   0.539   8.324
  192SLPC  C21822268   5.003   0.429   8.458
  192SLPC  H18R22269   4.926   0.458   8.383
  192SLPC  H18S22270   4.986   0.467   8.561
  192SLPC  H18T22271   4.996   0.323   8.489
  192SLPC   C3322272   6.268   0.306   7.272
  192SLPC   H3X22273   6.203   0.217   7.287
  192SLPC   H3Y22274   6.197   0.391   7.266
  192SLPC   C3422275   6.352   0.335   7.400
  192SLPC   H4X22276   6.393   0.438   7.393
  192SLPC   H4Y22277   6.439   0.265   7.407
  192SLPC   C3522278   6.268   0.292   7.527
  192SLPC   H5X22279   6.223   0.193   7.505
  192SLPC   H5Y22280   6.180   0.360   7.533
  192SLPC   C3622281   6.360   0.286   7.652
  192SLPC   H6X22282   6.417   0.381   7.657
  192SLPC   H6Y22283   6.435   0.204   7.644
  192SLPC   C3722284   6.269   0.271   7.777
  192SLPC   H7X22285   6.231   0.166   7.772
  192SLPC   H7Y22286   6.189   0.347   7.768
  192SLPC   C3822287   6.336   0.298   7.912
  192SLPC   H8X22288   6.373   0.402   7.907
  192SLPC   H8Y22289   6.420   0.226   7.921
  192SLPC   C3922290   6.231   0.298   8.027
  192SLPC   H9X22291   6.158   0.381   8.015
  192SLPC   H9Y22292   6.288   0.319   8.119
  192SLPC  C31022293   6.161   0.164   8.040
  192SLPC  H10X22294   6.243   0.094   8.067
  192SLPC  H10Y22295   6.110   0.129   7.949
  192SLPC  C31122296   6.065   0.154   8.151
  192SLPC  H11X22297   6.042   0.050   8.183
  192SLPC  H11Y22298   5.962   0.191   8.134
  192SLPC  C31222299   6.098   0.242   8.275
  192SLPC  H12X22300   6.091   0.349   8.247
  192SLPC  H12Y22301   6.205   0.223   8.298
  192SLPC  C31322302   6.013   0.222   8.405
  192SLPC  H13X22303   6.040   0.123   8.448
  192SLPC  H13Y22304   5.912   0.197   8.366
  192SLPC  C31422305   6.016   0.350   8.493
  192SLPC  H14X22306   6.011   0.441   8.430
  192SLPC  H14Y22307   6.119   0.354   8.536
  192SLPC  C31522308   5.919   0.366   8.602
  192SLPC  H15X22309   5.927   0.274   8.663
  192SLPC  H15Y22310   5.815   0.364   8.565
  192SLPC  C31622311   5.953   0.491   8.688
  192SLPC  H16X22312   5.987   0.580   8.632
  192SLPC  H16Y22313   6.030   0.461   8.762
  192SLPC  C31722314   5.823   0.546   8.765
  192SLPC  H17X22315   5.782   0.475   8.840
  192SLPC  H17Y22316   5.744   0.577   8.694
  192SLPC  C31822317   5.856   0.675   8.848
  192SLPC  H18X22318   5.768   0.707   8.908
  192SLPC  H18Y22319   5.852   0.759   8.775
  192SLPC  H18Z22320   5.951   0.666   8.904
  193SOD    SOD22321   4.019   5.869   6.021
  194SOD    SOD22322   3.664   1.195   0.848
  195SOD    SOD22323   2.445   3.212  12.707
  196SOD    SOD22324   4.530   6.487   5.787
  197SOD    SOD22325   5.321   4.201  12.309
  198SOD    SOD22326   4.300   3.903  11.361
  199SOD    SOD22327   5.016   5.771   4.376
  200SOD    SOD22328   4.525   4.367  14.716
  201SOD    SOD22329   3.644   2.968  13.149
  202SOD    SOD22330   0.602   1.036  11.005
  203SOD    SOD22331   2.922   4.841   4.797
  204SOD    SOD22332   5.390   4.748  13.918
  205SOD    SOD22333   1.687   0.252   2.497
  206SOD    SOD22334   1.923   2.160   0.603
  207SOD    SOD22335   0.855   1.842   1.034
  208SOD    SOD22336   1.766   2.421   3.430
  209SOD    SOD22337   3.664   5.965  15.635
  210SOD    SOD22338   5.759   3.150   4.895
  211SOD    SOD22339   0.788   1.835  11.553
  212SOD    SOD22340   3.835   1.055  12.897
  213SOD    SOD22341   0.916   4.739  11.728
  214SOD    SOD22342   0.927   2.964   6.694
  215SOD    SOD22343   5.115   5.513  13.286
  216SOD    SOD22344   5.288   3.014  11.495
  217SOD    SOD22345   5.099   1.870   5.277
  218SOD    SOD22346   0.032   4.928   1.517
  219SOD    SOD22347   0.798   2.939   5.245
  220SOD    SOD22348   1.983   5.696  10.680
  221SOD    SOD22349   6.664   4.931  16.752
  222SOD    SOD22350   4.997   4.512  12.953
  223SOD    SOD22351   1.800   0.845   2.989
  224SOD    SOD22352   6.304   2.226   3.385
  225SOD    SOD22353   5.750   1.262   2.853
  226SOD    SOD22354   0.614   5.437  12.417
  227SOD    SOD22355   3.819   0.232  12.757
  228SOD    SOD22356   0.406   2.156   2.731
  229SOD    SOD22357   4.388   3.356  10.643
  230SOD    SOD22358   0.360   6.599  15.295
  231SOD    SOD22359   6.602   1.797   2.072
  232SOD    SOD22360   1.370   4.635   6.300
  233SOD    SOD22361   2.443   0.080   1.086
  234SOD    SOD22362   3.926   1.526  11.847
  235SOD    SOD22363   3.617   0.183  16.191
  236SOD    SOD22364   2.583   6.425   3.258
  237SOD    SOD22365   6.812   4.265  10.630
  238SOD    SOD22366   2.138   5.691  13.497
  239SOD    SOD22367   5.344   1.371  14.731
  240SOD    SOD22368   4.583   3.176  16.860
  241SOD    SOD22369   4.266   2.045   4.315
  242SOD    SOD22370   4.514   4.820  16.837
  243SOD    SOD22371   0.780   2.201   6.568
  244SOD    SOD22372   4.593   6.283  15.140
  245SOD    SOD22373   5.763   5.289  14.613
  246SOD    SOD22374   1.957   1.591   5.861
  247SOD    SOD22375   2.913   1.273   3.491
  248SOD    SOD22376   6.303   0.172  15.687
  249SOD    SOD22377   4.657   5.059   5.399
  250SOD    SOD22378   2.765   3.606   4.461
  251SOD    SOD22379   3.641   3.642   3.403
  252SOD    SOD22380   5.731   5.234  10.750
  253SOD    SOD22381   4.964   1.379   4.944
  254SOD    SOD22382   1.656   6.109   6.343
  255SOD    SOD22383   6.403   5.593   2.160
  256SOD    SOD22384   1.268   2.118  13.552
  257SOD    SOD22385   4.003   4.977   3.757
  258SOD    SOD22386   4.704   3.930  12.191
  259SOD    SOD22387   0.431   3.927  15.279
  260SOD    SOD22388   2.485   0.225   5.848
  261SOD    SOD22389   4.457   1.987  13.612
  262SOD    SOD22390   2.059   0.729   2.558
  263SOD    SOD22391   0.376   6.523   6.155
  264SOD    SOD22392   6.456   4.536   3.631
  265SOD    SOD22393   6.114   0.464   4.002
  266CLA    CLA22394   2.817   0.405   3.030
  267CLA    CLA22395   0.308   5.576  16.930
  268CLA    CLA22396   2.575   2.947  16.125
  269CLA    CLA22397   5.991   5.054  15.880
  270CLA    CLA22398   3.065   1.470   3.975
  271CLA    CLA22399   2.401   3.446  13.176
  272CLA    CLA22400   3.019   0.466   2.462
  273CLA    CLA22401   4.491   5.124   4.319
  274CLA    CLA22402   4.890   0.643  16.994
  275CLA    CLA22403   5.330   4.080  14.132
  276CLA    CLA22404   2.677   4.493   4.643
  277CLA    CLA22405   1.980   0.835   1.110
  278CLA    CLA22406   0.858   4.393  12.421
  279CLA    CLA22407   2.422   1.848   1.765
  280CLA    CLA22408   1.788   5.466   4.293
  281CLA    CLA22409   4.805   4.688   2.836
  282CLA    CLA22410   0.842   4.596  15.999
  283CLA    CLA22411   4.631   0.982  12.797
  284CLA    CLA22412   0.221   0.771  14.819
  285CLA    CLA22413   0.193   6.156  15.456
  286CLA    CLA22414   6.373   0.240   3.707
  287CLA    CLA22415   2.059   2.807   0.921
  288CLA    CLA22416   3.221   0.924   4.885
  289CLA    CLA22417   1.270   5.491   5.759
  290CLA    CLA22418   4.809   1.375   4.448
  291CLA    CLA22419   4.039   3.213  12.548
  292CLA    CLA22420   1.557   3.376   3.955
  293CLA    CLA22421   1.951   6.332   5.277
  294CLA    CLA22422   3.775   6.680  15.828
  295CLA    CLA22423   2.073   0.339  11.454
  296CLA    CLA22424   3.908   1.295  12.212
  297CLA    CLA22425   3.934   3.901  13.386
  298CLA    CLA22426   3.274   0.305  13.485
  299CLA    CLA22427   1.294   5.119  14.621
  300CLA    CLA22428   4.126   0.116  12.336
  301CLA    CLA22429   0.533   3.523  14.773
  302CLA    CLA22430   1.104   2.118   4.397
  303CLA    CLA22431   1.184   3.698  13.979
  304CLA    CLA22432   2.723   2.425   3.689
  305CLA    CLA22433   5.202   1.619   0.441
  306CLA    CLA22434   2.096   1.313   0.824
  307CLA    CLA22435   5.201   0.474   0.895
  308CLA    CLA22436   1.236   5.359  13.150
  309CLA    CLA22437   0.967   1.870  15.629
  310CLA    CLA22438   6.147   4.722   5.416
  311CLA    CLA22439   4.032   2.854   3.660
  312CLA    CLA22440   5.384   2.717  11.980
  313CLA    CLA22441   2.159   0.097   3.546
  314CLA    CLA22442   5.362   0.380  11.855
  315CLA    CLA22443   0.363   2.143   2.464
  316CLA    CLA22444   1.616   1.861  15.555
  317CLA    CLA22445   0.104   3.746   1.434
  318CLA    CLA22446   0.811   5.876  17.192
  319TIP3   OH222447   1.948   6.149  11.685
  319TIP3    H122448   1.947   6.060  11.650
  319TIP3    H222449   2.027   6.153  11.738
  320TIP3   OH222450   5.179   5.545   3.839
  320TIP3    H122451   5.103   5.601   3.827
  320TIP3    H222452   5.244   5.601   3.881
  321TIP3   OH222453   1.378   0.059   5.216
  321TIP3    H122454   1.388   0.012   5.298
  321TIP3    H222455   1.426   0.141   5.228
  322TIP3   OH222456   0.706   6.063   3.778
  322TIP3    H122457   0.665   6.147   3.797
  322TIP3    H222458   0.709   6.018   3.862
  323TIP3   OH222459   2.659   5.931   3.358
  323TIP3    H122460   2.670   5.854   3.302
  323TIP3    H222461   2.718   5.997   3.322
  324TIP3   OH222462   6.283   4.236  10.245
  324TIP3    H122463   6.361   4.206  10.292
  324TIP3    H222464   6.310   4.317  10.201
  325TIP3   OH222465   4.049   2.302   2.406
  325TIP3    H122466   4.075   2.228   2.462
  325TIP3    H222467   4.020   2.369   2.468
  326TIP3   OH222468   3.514   6.307   0.966
  326TIP3    H122469   3.533   6.401   0.958
  326TIP3    H222470   3.506   6.276   0.876
  327TIP3   OH222471   6.526   0.793   0.427
  327TIP3    H122472   6.518   0.888   0.436
  327TIP3    H222473   6.435   0.761   0.425
  328TIP3   OH222474   6.047   6.350   3.126
  328TIP3    H122475   5.984   6.282   3.150
  328TIP3    H222476   6.028   6.423   3.186
  329TIP3   OH222477   0.407   3.321   6.211
  329TIP3    H122478   0.448   3.272   6.283
  329TIP3    H222479   0.359   3.392   6.254
  330TIP3   OH222480   4.202   6.181  10.903
  330TIP3    H122481   4.262   6.197  10.829
  330TIP3    H222482   4.164   6.095  10.883
  331TIP3   OH222483   2.678   0.930   3.820
  331TIP3    H122484   2.674   0.906   3.913
  331TIP3    H222485   2.593   0.969   3.802
  332TIP3   OH222486   1.523   0.977  15.071
  332TIP3    H122487   1.478   0.900  15.107
  332TIP3    H222488   1.583   0.941  15.005
  333TIP3   OH222489   5.472   1.774   5.210
  333TIP3    H122490   5.503   1.796   5.123
  333TIP3    H222491   5.550   1.742   5.256
  334TIP3   OH222492   0.928   6.299   1.429
  334TIP3    H122493   0.972   6.241   1.491
  334TIP3    H222494   0.977   6.289   1.347
  335TIP3   OH222495   5.484   3.068  11.642
  335TIP3    H122496   5.490   3.034  11.731
  335TIP3    H222497   5.575   3.076  11.613
  336TIP3   OH222498   4.885   0.727  15.437
  336TIP3    H122499   4.832   0.805  15.455
  336TIP3    H222500   4.933   0.749  15.357
  337TIP3   OH222501   0.408   3.422   1.248
  337TIP3    H122502   0.367   3.492   1.196
  337TIP3    H222503   0.490   3.461   1.278
  338TIP3   OH222504   1.361   2.247  14.020
  338TIP3    H122505   1.311   2.169  14.042
  338TIP3    H222506   1.412   2.267  14.098
  339TIP3   OH222507   2.111   6.265  16.915
  339TIP3    H122508   2.027   6.270  16.960
  339TIP3    H222509   2.088   6.246  16.824
  340TIP3   OH222510   0.883   3.375  12.348
  340TIP3    H122511   0.831   3.440  12.394
  340TIP3    H222512   0.836   3.292  12.361
  341TIP3   OH222513   6.362   6.358  12.550
  341TIP3    H122514   6.335   6.392  12.466
  341TIP3    H222515   6.294   6.386  12.611
  342TIP3   OH222516   3.984   2.563  13.579
  342TIP3    H122517   3.999   2.470  13.595
  342TIP3    H222518   3.921   2.589  13.646
  343TIP3   OH222519   5.928   1.457  11.768
  343TIP3    H122520   5.938   1.524  11.700
  343TIP3    H222521   6.006   1.468  11.823
  344TIP3   OH222522   6.592   1.760  16.556
  344TIP3    H122523   6.650   1.829  16.587
  344TIP3    H222524   6.635   1.679  16.583
  345TIP3   OH222525   1.223   2.189  11.562
  345TIP3    H122526   1.143   2.163  11.518
  345TIP3    H222527   1.276   2.109  11.564
  346TIP3   OH222528   2.113   0.397  12.501
  346TIP3    H122529   2.133   0.453  12.576
  346TIP3    H222530   2.171   0.321  12.512
  347TIP3   OH222531   0.277   6.119   3.318
  347TIP3    H122532   0.285   6.210   3.290
  347TIP3    H222533   0.184   6.107   3.336
  348TIP3   OH222534   5.553   6.617  14.213
  348TIP3    H122535   5.507   6.534  14.225
  348TIP3    H222536   5.484   6.679  14.188
  349TIP3   OH222537   0.239   0.078   4.636
  349TIP3    H122538   0.299   0.099   4.564
  349TIP3    H222539   0.296   0.044   4.705
  350TIP3   OH222540   1.694   4.102  12.026
  350TIP3    H122541   1.648   4.184  12.009
  350TIP3    H222542   1.635   4.052  12.082
  351TIP3   OH222543   3.737   5.868  14.209
  351TIP3    H122544   3.816   5.887  14.158
  351TIP3    H222545   3.697   5.954  14.223
  352TIP3   OH222546   0.655   0.677  15.744
  352TIP3    H122547   0.642   0.591  15.782
  352TIP3    H222548   0.748   0.680  15.721
  353TIP3   OH222549   5.651   2.895   1.569
  353TIP3    H122550   5.584   2.832   1.545
  353TIP3    H222551   5.692   2.920   1.485
  354TIP3   OH222552   1.894   5.014  16.451
  354TIP3    H122553   1.842   5.042  16.375
  354TIP3    H222554   1.933   5.095  16.485
  355TIP3   OH222555   4.855   2.505  15.230
  355TIP3    H122556   4.824   2.437  15.291
  355TIP3    H222557   4.794   2.577  15.242
  356TIP3   OH222558   6.363   2.110   4.143
  356TIP3    H122559   6.411   2.173   4.197
  356TIP3    H222560   6.323   2.050   4.206
  357TIP3   OH222561   0.838   3.869  12.647
  357TIP3    H122562   0.755   3.903  12.681
  357TIP3    H222563   0.850   3.912  12.563
  358TIP3   OH222564   0.750   3.703  16.887
  358TIP3    H122565   0.804   3.669  16.815
  358TIP3    H222566   0.716   3.786  16.853
  359TIP3   OH222567   5.808   5.035  16.979
  359TIP3    H122568   5.886   5.035  16.923
  359TIP3    H222569   5.747   5.093  16.934
  360TIP3   OH222570   2.890   3.823   1.345
  360TIP3    H122571   2.797   3.832   1.325
  360TIP3    H222572   2.935   3.862   1.270
  361TIP3   OH222573   0.287   3.255   0.144
  361TIP3    H122574   0.314   3.234   0.233
  361TIP3    H222575   0.194   3.277   0.152
  362TIP3   OH222576   4.181   0.038  10.250
  362TIP3    H122577   4.185   0.092  10.171
  362TIP3    H222578   4.236   0.084  10.314
  363TIP3   OH222579   0.693   0.544  13.689
  363TIP3    H122580   0.708   0.591  13.771
  363TIP3    H222581   0.706   0.610  13.621
  364TIP3   OH222582   0.457   2.509   3.919
  364TIP3    H122583   0.406   2.469   3.848
  364TIP3    H222584   0.537   2.539   3.877
  365TIP3   OH222585   2.045   6.415   5.707
  365TIP3    H122586   2.104   6.445   5.638
  365TIP3    H222587   1.959   6.411   5.665
  366TIP3   OH222588   4.956   5.546  15.631
  366TIP3    H122589   4.911   5.618  15.675
  366TIP3    H222590   4.935   5.469  15.684
  367TIP3   OH222591   1.068   0.315  11.073
  367TIP3    H122592   1.138   0.372  11.105
  367TIP3    H222593   1.099   0.227  11.092
  368TIP3   OH222594   0.222   2.304   6.068
  368TIP3    H122595   0.145   2.275   6.019
  368TIP3    H222596   0.293   2.249   6.037
  369TIP3   OH222597   3.249   0.922   4.446
  369TIP3    H122598   3.244   0.833   4.479
  369TIP3    H222599   3.185   0.971   4.497
  370TIP3   OH222600   2.198   4.774  14.198
  370TIP3    H122601   2.165   4.846  14.251
  370TIP3    H222602   2.218   4.705  14.262
  371TIP3   OH222603   6.296   2.496   1.640
  371TIP3    H122604   6.317   2.419   1.693
  371TIP3    H222605   6.328   2.475   1.552
  372TIP3   OH222606   1.367   4.720  12.188
  372TIP3    H122607   1.330   4.807  12.204
  372TIP3    H222608   1.389   4.687  12.275
  373TIP3   OH222609   0.074   4.422  11.912
  373TIP3    H122610  -0.007   4.459  11.945
  373TIP3    H222611   0.096   4.352  11.973
  374TIP3   OH222612   6.215   3.046   4.765
  374TIP3    H122613   6.186   3.123   4.717
  374TIP3    H222614   6.190   2.972   4.710
  375TIP3   OH222615   1.803   5.710  16.480
  375TIP3    H122616   1.887   5.747  16.508
  375TIP3    H222617   1.775   5.656  16.554
  376TIP3   OH222618   2.616   3.847   5.709
  376TIP3    H122619   2.552   3.885   5.648
  376TIP3    H222620   2.568   3.777   5.753
  377TIP3   OH222621   1.778   0.916  17.116
  377TIP3    H122622   1.694   0.871  17.109
  377TIP3    H222623   1.775   0.983  17.047
  378TIP3   OH222624   0.128   0.660   3.612
  378TIP3    H122625   0.154   0.570   3.632
  378TIP3    H222626   0.189   0.715   3.661
  379TIP3   OH222627   2.695   6.069   6.480
  379TIP3    H122628   2.621   6.009   6.485
  379TIP3    H222629   2.688   6.109   6.394
  380TIP3   OH222630   2.870   1.422  15.715
  380TIP3    H122631   2.853   1.370  15.636
  380TIP3    H222632   2.934   1.371  15.764
  381TIP3   OH222633   3.853   5.115  16.748
  381TIP3    H122634   3.886   5.112  16.658
  381TIP3    H222635   3.867   5.206  16.776
  382TIP3   OH222636   0.670   0.599  11.434
  382TIP3    H122637   0.740   0.535  11.447
  382TIP3    H222638   0.633   0.576  11.349
  383TIP3   OH222639   4.718   6.317   5.769
  383TIP3    H122640   4.808   6.285   5.774
  383TIP3    H222641   4.664   6.240   5.783
  384TIP3   OH222642   0.130   5.580   1.563
  384TIP3    H122643   0.133   5.638   1.487
  384TIP3    H222644   0.055   5.522   1.546
  385TIP3   OH222645   5.329   0.718   3.027
  385TIP3    H122646   5.383   0.794   3.003
  385TIP3    H222647   5.381   0.643   2.998
  386TIP3   OH222648   2.251   5.122  12.611
  386TIP3    H122649   2.306   5.200  12.610
  386TIP3    H222650   2.276   5.075  12.690
  387TIP3   OH222651   3.424   4.528  12.692
  387TIP3    H122652   3.420   4.504  12.599
  387TIP3    H222653   3.446   4.621  12.692
  388TIP3   OH222654   4.583   1.583  14.942
  388TIP3    H122655   4.649   1.652  14.930
  388TIP3    H222656   4.612   1.536  15.020
  389TIP3   OH222657   5.827   2.180   1.449
  389TIP3    H122658   5.797   2.263   1.414
  389TIP3    H222659   5.920   2.176   1.425
  390TIP3   OH222660   4.402   0.455  11.186
  390TIP3    H122661   4.387   0.509  11.109
  390TIP3    H222662   4.387   0.365  11.156
  391TIP3   OH222663   1.721   3.353  11.226
  391TIP3    H122664   1.700   3.292  11.156
  391TIP3    H222665   1.686   3.312  11.305
  392TIP3   OH222666   1.619   1.049   6.308
  392TIP3    H122667   1.687   1.006   6.361
  392TIP3    H222668   1.537   1.027   6.352
  393TIP3   OH222669   2.708   1.400  16.420
  393TIP3    H122670   2.664   1.345  16.355
  393TIP3    H222671   2.787   1.352  16.443
  394TIP3   OH222672   2.181   2.475   0.692
  394TIP3    H122673   2.228   2.428   0.623
  394TIP3    H222674   2.181   2.567   0.664
  395TIP3   OH222675   6.042   1.664  12.148
  395TIP3    H122676   5.952   1.685  12.124
  395TIP3    H222677   6.087   1.748  12.152
  396TIP3   OH222678   6.376   3.896   4.076
  396TIP3    H122679   6.369   3.877   3.982
  396TIP3    H222680   6.466   3.926   4.088
  397TIP3   OH222681   2.608   1.372  11.853
  397TIP3    H122682   2.623   1.278  11.844
  397TIP3    H222683   2.637   1.393  11.941
  398TIP3   OH222684   6.816   6.394  11.940
  398TIP3    H122685   6.753   6.418  11.873
  398TIP3    H222686   6.902   6.407  11.900
  399TIP3   OH222687   6.311   3.765   3.529
  399TIP3    H122688   6.270   3.726   3.452
  399TIP3    H222689   6.243   3.822   3.566
  400TIP3   OH222690   2.777   4.006   6.512
  400TIP3    H122691   2.746   4.004   6.422
  400TIP3    H222692   2.872   4.000   6.505
  401TIP3   OH222693   3.557   0.225   4.288
  401TIP3    H122694   3.565   0.302   4.232
  401TIP3    H222695   3.548   0.261   4.377
  402TIP3   OH222696   3.312   4.656   2.154
  402TIP3    H122697   3.288   4.618   2.239
  402TIP3    H222698   3.250   4.617   2.092
  403TIP3   OH222699   2.118   1.532  12.502
  403TIP3    H122700   2.194   1.481  12.475
  403TIP3    H222701   2.045   1.472  12.496
  404TIP3   OH222702   2.168   4.610  17.000
  404TIP3    H122703   2.115   4.562  17.063
  404TIP3    H222704   2.110   4.625  16.925
  405TIP3   OH222705   5.651   2.240  15.728
  405TIP3    H122706   5.665   2.334  15.741
  405TIP3    H222707   5.738   2.201  15.738
  406TIP3   OH222708   3.923   3.427  17.148
  406TIP3    H122709   3.892   3.425  17.239
  406TIP3    H222710   3.843   3.437  17.097
  407TIP3   OH222711   3.327   0.083   1.871
  407TIP3    H122712   3.384   0.110   1.943
  407TIP3    H222713   3.239   0.085   1.907
  408TIP3   OH222714   4.418   2.861   5.091
  408TIP3    H122715   4.353   2.930   5.077
  408TIP3    H222716   4.488   2.881   5.029
  409TIP3   OH222717   1.473   2.293  14.306
  409TIP3    H122718   1.392   2.319  14.349
  409TIP3    H222719   1.531   2.265  14.377
  410TIP3   OH222720   4.821   2.804  10.394
  410TIP3    H122721   4.894   2.796  10.334
  410TIP3    H222722   4.849   2.759  10.474
  411TIP3   OH222723   2.250   2.861   1.778
  411TIP3    H122724   2.316   2.914   1.733
  411TIP3    H222725   2.264   2.773   1.744
  412TIP3   OH222726   5.775   1.693  13.174
  412TIP3    H122727   5.774   1.729  13.085
  412TIP3    H222728   5.859   1.648  13.181
  413TIP3   OH222729   0.838   1.534  17.212
  413TIP3    H122730   0.868   1.461  17.267
  413TIP3    H222731   0.851   1.612  17.266
  414TIP3   OH222732   3.504   6.588   6.240
  414TIP3    H122733   3.590   6.553   6.213
  414TIP3    H222734   3.523   6.642   6.316
  415TIP3   OH222735   1.642   2.992   3.026
  415TIP3    H122736   1.708   2.924   3.038
  415TIP3    H222737   1.558   2.946   3.029
  416TIP3   OH222738   4.344   4.228   4.437
  416TIP3    H122739   4.332   4.149   4.491
  416TIP3    H222740   4.258   4.270   4.437
  417TIP3   OH222741   0.652   6.133   0.353
  417TIP3    H122742   0.645   6.106   0.261
  417TIP3    H222743   0.563   6.124   0.387
  418TIP3   OH222744   0.735   1.856  16.914
  418TIP3    H122745   0.811   1.895  16.958
  418TIP3    H222746   0.733   1.766  16.946
  419TIP3   OH222747   4.144   3.640   2.225
  419TIP3    H122748   4.235   3.668   2.223
  419TIP3    H222749   4.138   3.571   2.159
  420TIP3   OH222750   1.132   0.207   4.409
  420TIP3    H122751   1.218   0.185   4.443
  420TIP3    H222752   1.111   0.292   4.448
  421TIP3   OH222753   5.799   2.616  14.067
  421TIP3    H122754   5.806   2.544  14.004
  421TIP3    H222755   5.733   2.587  14.129
  422TIP3   OH222756   0.982   5.433   5.380
  422TIP3    H122757   1.030   5.492   5.438
  422TIP3    H222758   1.035   5.430   5.300
  423TIP3   OH222759   4.076   3.633   5.642
  423TIP3    H122760   4.029   3.703   5.687
  423TIP3    H222761   4.009   3.567   5.623
  424TIP3   OH222762   2.411   1.395  13.563
  424TIP3    H122763   2.323   1.433  13.575
  424TIP3    H222764   2.462   1.465  13.522
  425TIP3   OH222765   6.045   5.187  16.573
  425TIP3    H122766   5.991   5.121  16.615
  425TIP3    H222767   6.056   5.255  16.640
  426TIP3   OH222768   3.660   2.407   3.028
  426TIP3    H122769   3.611   2.434   3.106
  426TIP3    H222770   3.675   2.489   2.981
  427TIP3   OH222771   6.801   5.195  12.179
  427TIP3    H122772   6.830   5.155  12.097
  427TIP3    H222773   6.799   5.123  12.242
  428TIP3   OH222774   5.299   3.328  16.185
  428TIP3    H122775   5.356   3.400  16.159
  428TIP3    H222776   5.354   3.273  16.241
  429TIP3   OH222777   6.774   4.043  14.669
  429TIP3    H122778   6.780   3.960  14.716
  429TIP3    H222779   6.780   4.019  14.577
  430TIP3   OH222780   0.397   0.930  13.968
  430TIP3    H122781   0.305   0.955  13.965
  430TIP3    H222782   0.412   0.901  14.058
  431TIP3   OH222783   5.538   2.704  16.534
  431TIP3    H122784   5.469   2.756  16.576
  431TIP3    H222785   5.494   2.623  16.507
  432TIP3   OH222786   5.667   6.269  14.118
  432TIP3    H122787   5.762   6.277  14.125
  432TIP3    H222788   5.648   6.279  14.025
  433TIP3   OH222789   6.635   0.192  16.078
  433TIP3    H122790   6.664   0.262  16.020
  433TIP3    H222791   6.701   0.123  16.068
  434TIP3   OH222792   3.961   3.381  14.168
  434TIP3    H122793   4.041   3.433  14.163
  434TIP3    H222794   3.992   3.291  14.170
  435TIP3   OH222795   6.561   2.484  16.500
  435TIP3    H122796   6.654   2.480  16.520
  435TIP3    H222797   6.527   2.399  16.529
  436TIP3   OH222798   2.861   1.921   3.877
  436TIP3    H122799   2.924   1.992   3.874
  436TIP3    H222800   2.896   1.861   3.944
  437TIP3   OH222801   0.811   5.234  12.695
  437TIP3    H122802   0.898   5.268  12.672
  437TIP3    H222803   0.806   5.243  12.790
  438TIP3   OH222804   2.628   3.157  12.093
  438TIP3    H122805   2.619   3.085  12.032
  438TIP3    H222806   2.701   3.209  12.059
  439TIP3   OH222807   0.485   4.591  12.367
  439TIP3    H122808   0.501   4.582  12.273
  439TIP3    H222809   0.493   4.684  12.385
  440TIP3   OH222810   0.671   0.002   3.590
  440TIP3    H122811   0.742  -0.063   3.592
  440TIP3    H222812   0.709   0.080   3.629
  441TIP3   OH222813   2.202   6.687   5.476
  441TIP3    H122814   2.224   6.705   5.567
  441TIP3    H222815   2.286   6.667   5.434
  442TIP3   OH222816   6.322   4.127   1.354
  442TIP3    H122817   6.243   4.160   1.312
  442TIP3    H222818   6.318   4.032   1.340
  443TIP3   OH222819   2.042   5.694   1.484
  443TIP3    H122820   2.040   5.689   1.580
  443TIP3    H222821   2.028   5.787   1.465
  444TIP3   OH222822   1.516   6.632  13.202
  444TIP3    H122823   1.560   6.562  13.250
  444TIP3    H222824   1.514   6.601  13.111
  445TIP3   OH222825   2.816   2.181  13.782
  445TIP3    H122826   2.750   2.234  13.827
  445TIP3    H222827   2.813   2.213  13.692
  446TIP3   OH222828   4.182   3.024   5.086
  446TIP3    H122829   4.146   2.966   5.153
  446TIP3    H222830   4.112   3.087   5.068
  447TIP3   OH222831   4.723   2.305  17.008
  447TIP3    H122832   4.734   2.396  17.034
  447TIP3    H222833   4.799   2.260  17.045
  448TIP3   OH222834   2.206   3.557   4.290
  448TIP3    H122835   2.275   3.517   4.343
  448TIP3    H222836   2.144   3.592   4.353
  449TIP3   OH222837   2.412   6.143   1.511
  449TIP3    H122838   2.495   6.102   1.535
  449TIP3    H222839   2.407   6.133   1.416
  450TIP3   OH222840   0.093   4.189   2.123
  450TIP3    H122841   0.159   4.210   2.057
  450TIP3    H222842   0.046   4.114   2.087
  451TIP3   OH222843   6.555   2.751  15.188
  451TIP3    H122844   6.632   2.805  15.205
  451TIP3    H222845   6.583   2.662  15.211
  452TIP3   OH222846   3.436   2.726  15.863
  452TIP3    H122847   3.410   2.701  15.951
  452TIP3    H222848   3.382   2.803  15.843
  453TIP3   OH222849   0.488   1.540  10.986
  453TIP3    H122850   0.412   1.483  10.977
  453TIP3    H222851   0.559   1.495  10.940
  454TIP3   OH222852   2.089   6.129  12.088
  454TIP3    H122853   2.102   6.043  12.129
  454TIP3    H222854   1.995   6.147  12.099
  455TIP3   OH222855   1.498   4.803   5.568
  455TIP3    H122856   1.514   4.874   5.630
  455TIP3    H222857   1.520   4.839   5.483
  456TIP3   OH222858   5.707   4.922  14.109
  456TIP3    H122859   5.772   4.859  14.140
  456TIP3    H222860   5.745   4.959  14.029
  457TIP3   OH222861   3.200   3.138   2.817
  457TIP3    H122862   3.136   3.183   2.871
  457TIP3    H222863   3.164   3.049   2.807
  458TIP3   OH222864   6.310   6.819   0.295
  458TIP3    H122865   6.240   6.828   0.230
  458TIP3    H222866   6.357   6.902   0.292
  459TIP3   OH222867   4.399   0.935  13.483
  459TIP3    H122868   4.367   0.846  13.471
  459TIP3    H222869   4.386   0.954  13.576
  460TIP3   OH222870   2.431   2.065  15.840
  460TIP3    H122871   2.462   2.092  15.753
  460TIP3    H222872   2.461   1.974  15.849
  461TIP3   OH222873   4.054   5.053  15.953
  461TIP3    H122874   4.061   5.005  16.036
  461TIP3    H222875   4.087   4.992  15.887
  462TIP3   OH222876   4.983   5.105   4.741
  462TIP3    H122877   4.913   5.133   4.800
  462TIP3    H222878   4.962   5.013   4.722
  463TIP3   OH222879   5.165   2.316  12.543
  463TIP3    H122880   5.111   2.360  12.609
  463TIP3    H222881   5.144   2.359  12.461
  464TIP3   OH222882   3.100   6.456   1.461
  464TIP3    H122883   3.014   6.449   1.501
  464TIP3    H222884   3.156   6.399   1.513
  465TIP3   OH222885   4.780   3.190   3.653
  465TIP3    H122886   4.734   3.117   3.612
  465TIP3    H222887   4.873   3.171   3.641
  466TIP3   OH222888   0.440   5.839  13.007
  466TIP3    H122889   0.364   5.823  12.952
  466TIP3    H222890   0.515   5.818  12.951
  467TIP3   OH222891   5.816   2.906  11.855
  467TIP3    H122892   5.840   2.976  11.795
  467TIP3    H222893   5.886   2.841  11.847
  468TIP3   OH222894   3.872   2.951  10.044
  468TIP3    H122895   3.930   2.956  10.121
  468TIP3    H222896   3.901   3.022   9.988
  469TIP3   OH222897   3.575   0.714  10.920
  469TIP3    H122898   3.480   0.726  10.930
  469TIP3    H222899   3.592   0.736  10.828
  470TIP3   OH222900   5.192   0.551  13.834
  470TIP3    H122901   5.173   0.634  13.876
  470TIP3    H222902   5.287   0.542  13.839
  471TIP3   OH222903   1.055   3.578   3.057
  471TIP3    H122904   1.070   3.510   3.123
  471TIP3    H222905   1.136   3.629   3.056
  472TIP3   OH222906   0.616   0.542  11.168
  472TIP3    H122907   0.612   0.507  11.079
  472TIP3    H222908   0.709   0.535  11.192
  473TIP3   OH222909   0.866   6.763   6.393
  473TIP3    H122910   0.892   6.685   6.441
  473TIP3    H222911   0.932   6.772   6.324
  474TIP3   OH222912   4.840   0.910   1.862
  474TIP3    H122913   4.880   0.832   1.825
  474TIP3    H222914   4.912   0.974   1.868
  475TIP3   OH222915   3.198   4.336   1.563
  475TIP3    H122916   3.143   4.286   1.623
  475TIP3    H222917   3.167   4.311   1.476
  476TIP3   OH222918   0.829   4.043  17.273
  476TIP3    H122919   0.761   3.999  17.220
  476TIP3    H222920   0.824   4.000  17.358
  477TIP3   OH222921   3.521   2.826   3.340
  477TIP3    H122922   3.440   2.852   3.385
  477TIP3    H222923   3.582   2.805   3.410
  478TIP3   OH222924   1.304   1.755   3.874
  478TIP3    H122925   1.335   1.822   3.813
  478TIP3    H222926   1.314   1.795   3.960
  479TIP3   OH222927   3.024   2.516  14.769
  479TIP3    H122928   3.071   2.519  14.853
  479TIP3    H222929   3.071   2.450  14.718
  480TIP3   OH222930   5.659   6.622   6.027
  480TIP3    H122931   5.709   6.603   6.106
  480TIP3    H222932   5.725   6.655   5.965
  481TIP3   OH222933   0.272   2.359  12.791
  481TIP3    H122934   0.284   2.445  12.751
  481TIP3    H222935   0.276   2.298  12.717
  482TIP3   OH222936   5.328   1.359   2.688
  482TIP3    H122937   5.326   1.344   2.783
  482TIP3    H222938   5.299   1.450   2.678
  483TIP3   OH222939   5.032   0.667   3.050
  483TIP3    H122940   5.127   0.678   3.051
  483TIP3    H222941   4.999   0.740   2.999
  484TIP3   OH222942   3.535   2.465  13.657
  484TIP3    H122943   3.557   2.537  13.715
  484TIP3    H222944   3.455   2.428  13.694
  485TIP3   OH222945   1.088   0.239  16.342
  485TIP3    H122946   1.090   0.216  16.435
  485TIP3    H222947   1.162   0.191  16.304
  486TIP3   OH222948   3.764   2.239   5.371
  486TIP3    H122949   3.825   2.165   5.369
  486TIP3    H222950   3.810   2.309   5.324
  487TIP3   OH222951   6.462   6.687   5.862
  487TIP3    H122952   6.543   6.684   5.912
  487TIP3    H222953   6.395   6.713   5.926
  488TIP3   OH222954   0.373   4.096  11.189
  488TIP3    H122955   0.342   4.009  11.217
  488TIP3    H222956   0.327   4.112  11.106
  489TIP3   OH222957   0.318   5.737   0.645
  489TIP3    H122958   0.296   5.688   0.566
  489TIP3    H222959   0.292   5.679   0.717
  490TIP3   OH222960   6.612   1.408   5.015
  490TIP3    H122961   6.577   1.338   4.958
  490TIP3    H222962   6.589   1.489   4.970
  491TIP3   OH222963   0.513   2.866  17.261
  491TIP3    H122964   0.463   2.865  17.342
  491TIP3    H222965   0.501   2.954  17.226
  492TIP3   OH222966   0.230   2.144   0.999
  492TIP3    H122967   0.198   2.163   0.911
  492TIP3    H222968   0.273   2.059   0.992
  493TIP3   OH222969   1.521   1.796  16.689
  493TIP3    H122970   1.517   1.869  16.627
  493TIP3    H222971   1.614   1.785  16.708
  494TIP3   OH222972   4.942   2.693  13.799
  494TIP3    H122973   5.032   2.659  13.802
  494TIP3    H222974   4.951   2.786  13.818
  495TIP3   OH222975   0.482   6.661   0.818
  495TIP3    H122976   0.411   6.605   0.789
  495TIP3    H222977   0.518   6.699   0.738
  496TIP3   OH222978   5.131   1.228  13.573
  496TIP3    H122979   5.208   1.174  13.590
  496TIP3    H222980   5.148   1.267  13.488
  497TIP3   OH222981   2.405   2.856   0.135
  497TIP3    H122982   2.377   2.938   0.175
  497TIP3    H222983   2.453   2.882   0.056
  498TIP3   OH222984   5.205   0.125  15.093
  498TIP3    H122985   5.184   0.072  15.170
  498TIP3    H222986   5.129   0.182  15.082
  499TIP3   OH222987   5.212   6.385   4.589
  499TIP3    H122988   5.300   6.421   4.597
  499TIP3    H222989   5.222   6.292   4.611
  500TIP3   OH222990   0.135   0.022   2.622
  500TIP3    H122991   0.184   0.060   2.549
  500TIP3    H222992   0.173   0.063   2.700
  501TIP3   OH222993   3.456   3.762   0.818
  501TIP3    H122994   3.363   3.737   0.818
  501TIP3    H222995   3.479   3.767   0.725
  502TIP3   OH222996   4.837   5.822  15.351
  502TIP3    H122997   4.774   5.778  15.408
  502TIP3    H222998   4.849   5.763  15.277
  503TIP3   OH222999   5.171   1.007   5.171
  503TIP3    H123000   5.121   1.020   5.251
  503TIP3    H223001   5.232   0.936   5.192
  504TIP3   OH223002   4.026   0.468   2.336
  504TIP3    H123003   4.079   0.424   2.402
  504TIP3    H223004   4.088   0.487   2.265
  505TIP3   OH223005   6.364   0.415  16.829
  505TIP3    H123006   6.297   0.400  16.763
  505TIP3    H223007   6.431   0.350  16.812
  506TIP3   OH223008   5.406   3.379  10.265
  506TIP3    H123009   5.362   3.334  10.336
  506TIP3    H223010   5.343   3.444  10.234
  507TIP3   OH223011   0.876   2.786  14.113
  507TIP3    H123012   0.862   2.860  14.172
  507TIP3    H223013   0.797   2.783  14.060
  508TIP3   OH223014   5.987   6.380   4.440
  508TIP3    H123015   5.958   6.426   4.519
  508TIP3    H223016   5.972   6.288   4.458
  509TIP3   OH223017   4.740   0.363   5.556
  509TIP3    H123018   4.773   0.369   5.466
  509TIP3    H223019   4.666   0.302   5.550
  510TIP3   OH223020   6.284   2.661   0.906
  510TIP3    H123021   6.347   2.690   0.841
  510TIP3    H223022   6.334   2.658   0.988
  511TIP3   OH223023   2.471   6.522   0.982
  511TIP3    H123024   2.416   6.444   0.977
  511TIP3    H223025   2.552   6.498   0.938
  512TIP3   OH223026   2.734   0.548  14.863
  512TIP3    H123027   2.778   0.511  14.787
  512TIP3    H223028   2.643   0.558  14.835
  513TIP3   OH223029   3.884   0.382   3.486
  513TIP3    H123030   3.932   0.306   3.452
  513TIP3    H223031   3.945   0.423   3.547
  514TIP3   OH223032   6.077   6.473   3.845
  514TIP3    H123033   6.078   6.380   3.821
  514TIP3    H223034   6.138   6.480   3.918
  515TIP3   OH223035   6.414   2.398   0.477
  515TIP3    H123036   6.439   2.484   0.510
  515TIP3    H223037   6.369   2.418   0.394
  516TIP3   OH223038   5.904   1.348  15.806
  516TIP3    H123039   5.907   1.411  15.733
  516TIP3    H223040   5.947   1.269  15.771
  517TIP3   OH223041   0.910   4.917   1.951
  517TIP3    H123042   0.920   4.833   1.996
  517TIP3    H223043   0.817   4.922   1.929
  518TIP3   OH223044   4.161   4.895  15.765
  518TIP3    H123045   4.145   4.801  15.773
  518TIP3    H223046   4.168   4.910  15.671
  519TIP3   OH223047   3.276   4.573  12.252
  519TIP3    H123048   3.318   4.492  12.279
  519TIP3    H223049   3.195   4.577  12.303
  520TIP3   OH223050   0.592   1.863  12.656
  520TIP3    H123051   0.646   1.916  12.597
  520TIP3    H223052   0.656   1.817  12.711
  521TIP3   OH223053   5.234   2.958   3.124
  521TIP3    H123054   5.148   2.999   3.113
  521TIP3    H223055   5.228   2.913   3.209
  522TIP3   OH223056   5.606   2.307  14.632
  522TIP3    H123057   5.700   2.293  14.625
  522TIP3    H223058   5.567   2.227  14.595
  523TIP3   OH223059   2.833   3.397  14.665
  523TIP3    H123060   2.862   3.482  14.700
  523TIP3    H223061   2.818   3.343  14.743
  524TIP3   OH223062   3.722   5.388   0.011
  524TIP3    H123063   3.634   5.391   0.050
  524TIP3    H223064   3.779   5.360   0.083
  525TIP3   OH223065   5.194   4.698  15.166
  525TIP3    H123066   5.286   4.699  15.143
  525TIP3    H223067   5.160   4.782  15.134
  526TIP3   OH223068   5.890   4.167  11.905
  526TIP3    H123069   5.980   4.139  11.921
  526TIP3    H223070   5.874   4.146  11.813
  527TIP3   OH223071   0.486   0.178  11.560
  527TIP3    H123072   0.395   0.169  11.589
  527TIP3    H223073   0.537   0.143  11.633
  528TIP3   OH223074   4.011   1.459  15.256
  528TIP3    H123075   4.018   1.515  15.179
  528TIP3    H223076   4.097   1.466  15.299
  529TIP3   OH223077   3.912   2.894   6.725
  529TIP3    H123078   3.963   2.871   6.647
  529TIP3    H223079   3.875   2.810   6.753
  530TIP3   OH223080   0.466   5.041   1.890
  530TIP3    H123081   0.520   5.115   1.863
  530TIP3    H223082   0.529   4.971   1.910
  531TIP3   OH223083   4.037   2.709  17.109
  531TIP3    H123084   3.995   2.664  17.036
  531TIP3    H223085   4.101   2.767  17.068
  532TIP3   OH223086   3.279   6.431  16.073
  532TIP3    H123087   3.185   6.419  16.060
  532TIP3    H223088   3.306   6.359  16.130
  533TIP3   OH223089   4.774   4.056  16.303
  533TIP3    H123090   4.841   4.124  16.298
  533TIP3    H223091   4.818   3.976  16.275
  534TIP3   OH223092   6.447   2.140   3.737
  534TIP3    H123093   6.403   2.057   3.753
  534TIP3    H223094   6.503   2.124   3.661
  535TIP3   OH223095   6.478   3.393  10.732
  535TIP3    H123096   6.504   3.473  10.778
  535TIP3    H223097   6.469   3.419  10.641
  536TIP3   OH223098   2.642   1.967   3.718
  536TIP3    H123099   2.577   2.002   3.779
  536TIP3    H223100   2.713   1.936   3.775
  537TIP3   OH223101   2.657   2.483  13.030
  537TIP3    H123102   2.666   2.525  12.944
  537TIP3    H223103   2.568   2.506  13.058
  538TIP3   OH223104   3.556   5.932   2.856
  538TIP3    H123105   3.577   5.853   2.807
  538TIP3    H223106   3.609   5.926   2.935
  539TIP3   OH223107   2.673   4.514  10.716
  539TIP3    H123108   2.739   4.449  10.739
  539TIP3    H223109   2.626   4.531  10.797
  540TIP3   OH223110   5.160   2.933  11.962
  540TIP3    H123111   5.106   2.904  12.036
  540TIP3    H223112   5.235   2.873  11.962
  541TIP3   OH223113   5.829   0.116   5.124
  541TIP3    H123114   5.805   0.198   5.167
  541TIP3    H223115   5.840   0.053   5.196
  542TIP3   OH223116   1.496   0.385  15.909
  542TIP3    H123117   1.512   0.291  15.915
  542TIP3    H223118   1.430   0.402  15.977
  543TIP3   OH223119   0.604   2.206   1.056
  543TIP3    H123120   0.549   2.272   1.097
  543TIP3    H223121   0.566   2.122   1.083
  544TIP3   OH223122   5.159   4.950  16.352
  544TIP3    H123123   5.159   5.033  16.304
  544TIP3    H223124   5.099   4.964  16.425
  545TIP3   OH223125   1.601   2.593   3.712
  545TIP3    H123126   1.556   2.513   3.683
  545TIP3    H223127   1.661   2.563   3.781
  546TIP3   OH223128   0.591   0.129   6.142
  546TIP3    H123129   0.630   0.095   6.222
  546TIP3    H223130   0.575   0.052   6.088
  547TIP3   OH223131   0.025   3.438   6.124
  547TIP3    H123132  -0.043   3.373   6.138
  547TIP3    H223133   0.044   3.472   6.212
  548TIP3   OH223134   3.243   0.308  11.534
  548TIP3    H123135   3.187   0.231  11.519
  548TIP3    H223136   3.332   0.274  11.525
  549TIP3   OH223137   6.030   2.239   5.666
  549TIP3    H123138   6.029   2.333   5.647
  549TIP3    H223139   6.056   2.198   5.583
  550TIP3   OH223140   5.533   6.205  12.152
  550TIP3    H123141   5.554   6.156  12.072
  550TIP3    H223142   5.601   6.178  12.215
  551TIP3   OH223143   6.180   6.699   4.200
  551TIP3    H123144   6.270   6.714   4.227
  551TIP3    H223145   6.128   6.759   4.254
  552TIP3   OH223146   2.544   1.282  13.788
  552TIP3    H123147   2.499   1.322  13.713
  552TIP3    H223148   2.605   1.349  13.818
  553TIP3   OH223149   4.385   0.636  13.434
  553TIP3    H123150   4.335   0.598  13.506
  553TIP3    H223151   4.332   0.619  13.356
  554TIP3   OH223152   1.829   1.036  16.865
  554TIP3    H123153   1.779   1.074  16.793
  554TIP3    H223154   1.920   1.041  16.836
  555TIP3   OH223155   4.390   3.113   3.684
  555TIP3    H123156   4.344   3.055   3.745
  555TIP3    H223157   4.321   3.150   3.629
  556TIP3   OH223158   5.834   6.636   0.978
  556TIP3    H123159   5.855   6.614   0.888
  556TIP3    H223160   5.754   6.588   0.997
  557TIP3   OH223161   1.877   3.558  16.832
  557TIP3    H123162   1.801   3.508  16.804
  557TIP3    H223163   1.909   3.600  16.751
  558TIP3   OH223164   4.021   4.595  16.913
  558TIP3    H123165   4.087   4.533  16.881
  558TIP3    H223166   3.970   4.618  16.835
  559TIP3   OH223167   1.234   2.997  14.464
  559TIP3    H123168   1.321   2.963  14.444
  559TIP3    H223169   1.179   2.963  14.393
  560TIP3   OH223170   4.256   4.557   1.594
  560TIP3    H123171   4.239   4.630   1.654
  560TIP3    H223172   4.190   4.566   1.526
  561TIP3   OH223173   4.433   3.442   4.528
  561TIP3    H123174   4.376   3.411   4.599
  561TIP3    H223175   4.428   3.373   4.462
  562TIP3   OH223176   1.521   5.675   4.845
  562TIP3    H123177   1.549   5.652   4.756
  562TIP3    H223178   1.484   5.594   4.881
  563TIP3   OH223179   6.431   0.362  15.728
  563TIP3    H123180   6.493   0.393  15.661
  563TIP3    H223181   6.415   0.440  15.782
  564TIP3   OH223182   1.341   0.521   2.322
  564TIP3    H123183   1.298   0.506   2.238
  564TIP3    H223184   1.358   0.433   2.356
  565TIP3   OH223185   0.677   3.099   3.909
  565TIP3    H123186   0.598   3.137   3.871
  565TIP3    H223187   0.649   3.065   3.994
  566TIP3   OH223188   5.095   0.370   2.464
  566TIP3    H123189   5.188   0.351   2.478
  566TIP3    H223190   5.053   0.284   2.462
  567TIP3   OH223191   1.137   4.965   6.493
  567TIP3    H123192   1.054   4.928   6.524
  567TIP3    H223193   1.163   4.908   6.420
  568TIP3   OH223194   2.068   4.684   1.055
  568TIP3    H123195   2.043   4.771   1.023
  568TIP3    H223196   2.163   4.687   1.060
  569TIP3   OH223197   4.292   2.381  15.124
  569TIP3    H123198   4.244   2.404  15.044
  569TIP3    H223199   4.237   2.412  15.195
  570TIP3   OH223200   1.963   0.215   4.362
  570TIP3    H123201   2.038   0.218   4.302
  570TIP3    H223202   1.925   0.128   4.349
  571TIP3   OH223203   4.248   0.956  12.616
  571TIP3    H123204   4.197   0.987  12.542
  571TIP3    H223205   4.282   1.036  12.657
  572TIP3   OH223206   0.089   2.561  12.387
  572TIP3    H123207   0.085   2.468  12.364
  572TIP3    H223208   0.169   2.568  12.440
  573TIP3   OH223209   1.521   4.222   0.817
  573TIP3    H123210   1.601   4.211   0.868
  573TIP3    H223211   1.464   4.152   0.848
  574TIP3   OH223212   4.989   0.146   2.552
  574TIP3    H123213   4.952   0.139   2.640
  574TIP3    H223214   5.081   0.124   2.562
  575TIP3   OH223215   3.628   2.341  16.717
  575TIP3    H123216   3.582   2.418  16.748
  575TIP3    H223217   3.721   2.364  16.722
  576TIP3   OH223218   5.040   0.441   5.147
  576TIP3    H123219   5.056   0.409   5.058
  576TIP3    H223220   5.023   0.535   5.136
  577TIP3   OH223221   6.269   0.182   5.379
  577TIP3    H123222   6.198   0.173   5.443
  577TIP3    H223223   6.280   0.276   5.368
  578TIP3   OH223224   1.755   5.991  16.216
  578TIP3    H123225   1.696   6.054  16.176
  578TIP3    H223226   1.820   6.045  16.260
  579TIP3   OH223227   2.553   6.140  13.200
  579TIP3    H123228   2.481   6.140  13.263
  579TIP3    H223229   2.519   6.093  13.124
  580TIP3   OH223230   1.296   5.201  11.906
  580TIP3    H123231   1.203   5.189  11.887
  580TIP3    H223232   1.336   5.116  11.888
  581TIP3   OH223233   6.418   2.598   2.490
  581TIP3    H123234   6.390   2.683   2.457
  581TIP3    H223235   6.422   2.542   2.412
  582TIP3   OH223236   2.153   4.144   5.598
  582TIP3    H123237   2.082   4.199   5.630
  582TIP3    H223238   2.181   4.186   5.516
  583TIP3   OH223239   2.100   0.453   0.308
  583TIP3    H123240   2.073   0.505   0.383
  583TIP3    H223241   2.189   0.483   0.289
  584TIP3   OH223242   1.579   2.295   3.389
  584TIP3    H123243   1.628   2.213   3.385
  584TIP3    H223244   1.500   2.279   3.337
  585TIP3   OH223245   4.561   3.027  12.242
  585TIP3    H123246   4.493   3.045  12.177
  585TIP3    H223247   4.515   2.982  12.313
  586TIP3   OH223248   5.105   3.614   1.585
  586TIP3    H123249   5.102   3.573   1.498
  586TIP3    H223250   5.053   3.694   1.576
  587TIP3   OH223251   1.257   0.639   5.469
  587TIP3    H123252   1.204   0.568   5.505
  587TIP3    H223253   1.307   0.599   5.399
  588TIP3   OH223254   5.180   3.896  13.267
  588TIP3    H123255   5.086   3.885  13.283
  588TIP3    H223256   5.185   3.935  13.179
  589TIP3   OH223257   1.437   2.747   4.441
  589TIP3    H123258   1.361   2.711   4.487
  589TIP3    H223259   1.496   2.672   4.429
  590TIP3   OH223260   4.896   2.171   5.774
  590TIP3    H123261   4.927   2.213   5.854
  590TIP3    H223262   4.975   2.145   5.728
  591TIP3   OH223263   6.205   5.294  14.882
  591TIP3    H123264   6.181   5.241  14.958
  591TIP3    H223265   6.124   5.300  14.831
  592TIP3   OH223266   5.626   4.527  12.913
  592TIP3    H123267   5.710   4.573  12.913
  592TIP3    H223268   5.650   4.434  12.916
  593TIP3   OH223269   4.483   3.276  10.452
  593TIP3    H123270   4.455   3.280  10.360
  593TIP3    H223271   4.546   3.204  10.455
  594TIP3   OH223272   3.197   5.161  14.602
  594TIP3    H123273   3.273   5.175  14.658
  594TIP3    H223274   3.201   5.068  14.578
  595TIP3   OH223275   4.934   0.234  14.295
  595TIP3    H123276   4.885   0.153  14.282
  595TIP3    H223277   4.983   0.221  14.376
  596TIP3   OH223278   2.455   4.775   4.929
  596TIP3    H123279   2.484   4.847   4.985
  596TIP3    H223280   2.360   4.783   4.928
  597TIP3   OH223281   4.193   3.021  12.945
  597TIP3    H123282   4.191   2.956  13.015
  597TIP3    H223283   4.283   3.021  12.914
  598TIP3   OH223284   4.795   5.348   3.555
  598TIP3    H123285   4.781   5.361   3.649
  598TIP3    H223286   4.874   5.296   3.550
  599TIP3   OH223287   0.323   3.948   3.659
  599TIP3    H123288   0.359   3.910   3.579
  599TIP3    H223289   0.395   3.997   3.697
  600TIP3   OH223290   5.344   4.955  12.791
  600TIP3    H123291   5.414   4.899  12.824
  600TIP3    H223292   5.281   4.960  12.863
  601TIP3   OH223293   3.006   3.951  16.946
  601TIP3    H123294   3.003   4.010  16.871
  601TIP3    H223295   3.084   3.977  16.995
  602TIP3   OH223296   2.447   3.203   1.710
  602TIP3    H123297   2.505   3.131   1.689
  602TIP3    H223298   2.498   3.282   1.690
  603TIP3   OH223299   2.477   2.943  17.135
  603TIP3    H123300   2.415   3.011  17.162
  603TIP3    H223301   2.453   2.922  17.045
  604TIP3   OH223302   1.643   2.647  15.689
  604TIP3    H123303   1.589   2.576  15.653
  604TIP3    H223304   1.596   2.674  15.768
  605TIP3   OH223305   0.022   4.815   4.727
  605TIP3    H123306   0.116   4.795   4.722
  605TIP3    H223307   0.002   4.856   4.643
  606TIP3   OH223308   6.045   1.356  12.917
  606TIP3    H123309   6.032   1.273  12.964
  606TIP3    H223310   6.114   1.336  12.853
  607TIP3   OH223311   5.013   5.999  15.213
  607TIP3    H123312   4.981   5.986  15.124
  607TIP3    H223313   4.973   5.928  15.263
  608TIP3   OH223314   6.392   0.009   0.570
  608TIP3    H123315   6.445  -0.071   0.572
  608TIP3    H223316   6.374   0.024   0.477
  609TIP3   OH223317   1.931   3.983   0.814
  609TIP3    H123318   1.964   4.064   0.776
  609TIP3    H223319   1.856   3.959   0.759
  610TIP3   OH223320   6.606   1.176   4.423
  610TIP3    H123321   6.623   1.237   4.495
  610TIP3    H223322   6.594   1.091   4.466
  611TIP3   OH223323   1.168   3.624  17.113
  611TIP3    H123324   1.125   3.571  17.046
  611TIP3    H223325   1.106   3.695  17.130
  612TIP3   OH223326   2.168   6.494  14.702
  612TIP3    H123327   2.164   6.483  14.797
  612TIP3    H223328   2.255   6.528  14.686
  613TIP3   OH223329   0.229   1.031  13.487
  613TIP3    H123330   0.209   1.105  13.545
  613TIP3    H223331   0.324   1.034  13.478
  614TIP3   OH223332   6.223   1.955   0.169
  614TIP3    H123333   6.258   2.041   0.193
  614TIP3    H223334   6.150   1.975   0.110
  615TIP3   OH223335   6.817   6.557   0.935
  615TIP3    H123336   6.814   6.556   1.031
  615TIP3    H223337   6.761   6.631   0.911
  616TIP3   OH223338   4.654   4.204  14.561
  616TIP3    H123339   4.615   4.247  14.485
  616TIP3    H223340   4.727   4.153  14.526
  617TIP3   OH223341   6.512   2.807   0.064
  617TIP3    H123342   6.482   2.781   0.151
  617TIP3    H223343   6.432   2.836   0.019
  618TIP3   OH223344   6.108   3.486  12.812
  618TIP3    H123345   6.081   3.518  12.898
  618TIP3    H223346   6.036   3.429  12.784
  619TIP3   OH223347   4.002   4.187   5.495
  619TIP3    H123348   3.941   4.261   5.485
  619TIP3    H223349   3.947   4.109   5.486
  620TIP3   OH223350   2.974   4.563  14.678
  620TIP3    H123351   2.887   4.579  14.716
  620TIP3    H223352   3.034   4.585  14.749
  621TIP3   OH223353   4.517   2.083   0.386
  621TIP3    H123354   4.590   2.042   0.433
  621TIP3    H223355   4.439   2.048   0.428
  622TIP3   OH223356   2.720   5.132  13.113
  622TIP3    H123357   2.766   5.135  13.029
  622TIP3    H223358   2.790   5.130  13.179
  623TIP3   OH223359   4.705   5.753  16.651
  623TIP3    H123360   4.708   5.761  16.747
  623TIP3    H223361   4.741   5.836  16.619
  624TIP3   OH223362   0.568   0.184   2.185
  624TIP3    H123363   0.486   0.178   2.136
  624TIP3    H223364   0.628   0.230   2.127
  625TIP3   OH223365   0.837   2.932  16.653
  625TIP3    H123366   0.835   2.893  16.740
  625TIP3    H223367   0.891   2.873  16.601
  626TIP3   OH223368   4.669   5.660  15.477
  626TIP3    H123369   4.665   5.589  15.412
  626TIP3    H223370   4.685   5.616  15.560
  627TIP3   OH223371   3.853   1.275  12.807
  627TIP3    H123372   3.835   1.346  12.869
  627TIP3    H223373   3.840   1.315  12.721
  628TIP3   OH223374   5.492   1.772  16.552
  628TIP3    H123375   5.488   1.723  16.634
  628TIP3    H223376   5.569   1.738  16.506
  629TIP3   OH223377   5.205   3.230   1.668
  629TIP3    H123378   5.131   3.253   1.724
  629TIP3    H223379   5.166   3.213   1.582
  630TIP3   OH223380   3.261   1.740  16.723
  630TIP3    H123381   3.245   1.651  16.752
  630TIP3    H223382   3.243   1.794  16.800
  631TIP3   OH223383   2.873   2.738   1.554
  631TIP3    H123384   2.780   2.755   1.539
  631TIP3    H223385   2.914   2.753   1.469
  632TIP3   OH223386   3.372   1.209   2.706
  632TIP3    H123387   3.308   1.157   2.756
  632TIP3    H223388   3.365   1.297   2.742
  633TIP3   OH223389   5.538   2.249   3.276
  633TIP3    H123390   5.492   2.276   3.196
  633TIP3    H223391   5.474   2.196   3.324
  634TIP3   OH223392   5.505   5.855  16.139
  634TIP3    H123393   5.431   5.845  16.079
  634TIP3    H223394   5.516   5.769  16.179
  635TIP3   OH223395   0.868   1.706   0.103
  635TIP3    H123396   0.947   1.753   0.130
  635TIP3    H223397   0.801   1.732   0.166
  636TIP3   OH223398   4.651   1.569   5.108
  636TIP3    H123399   4.653   1.629   5.182
  636TIP3    H223400   4.714   1.605   5.045
  637TIP3   OH223401   6.611   1.883  10.938
  637TIP3    H123402   6.631   1.790  10.937
  637TIP3    H223403   6.657   1.918  10.861
  638TIP3   OH223404   0.950   2.822  11.963
  638TIP3    H123405   1.000   2.748  11.997
  638TIP3    H223406   0.946   2.807  11.869
  639TIP3   OH223407   1.403   6.045  11.049
  639TIP3    H123408   1.458   5.978  11.088
  639TIP3    H223409   1.379   6.011  10.963
  640TIP3   OH223410   2.307   5.463   3.070
  640TIP3    H123411   2.216   5.491   3.082
  640TIP3    H223412   2.306   5.369   3.083
  641TIP3   OH223413   2.172   2.605   4.150
  641TIP3    H123414   2.112   2.539   4.186
  641TIP3    H223415   2.257   2.561   4.147
  642TIP3   OH223416   2.113   0.005  14.553
  642TIP3    H123417   2.197  -0.036  14.532
  642TIP3    H223418   2.057  -0.016  14.479
  643TIP3   OH223419   2.688   4.290  12.538
  643TIP3    H123420   2.649   4.324  12.458
  643TIP3    H223421   2.718   4.202  12.515
  644TIP3   OH223422   5.647   5.437   5.140
  644TIP3    H123423   5.590   5.403   5.071
  644TIP3    H223424   5.587   5.471   5.206
  645TIP3   OH223425   5.078   6.656  13.651
  645TIP3    H123426   5.027   6.653  13.570
  645TIP3    H223427   5.086   6.750  13.670
  646TIP3   OH223428   0.324   1.017  15.227
  646TIP3    H123429   0.328   0.933  15.183
  646TIP3    H223430   0.302   0.995  15.318
  647TIP3   OH223431   4.611   4.146   5.457
  647TIP3    H123432   4.632   4.075   5.517
  647TIP3    H223433   4.646   4.117   5.373
  648TIP3   OH223434   1.427   1.484  17.270
  648TIP3    H123435   1.425   1.483  17.365
  648TIP3    H223436   1.389   1.399  17.244
  649TIP3   OH223437   5.028   2.074  11.093
  649TIP3    H123438   4.950   2.023  11.116
  649TIP3    H223439   5.002   2.165  11.105
  650TIP3   OH223440   1.617   3.517   2.049
  650TIP3    H123441   1.591   3.596   2.097
  650TIP3    H223442   1.643   3.455   2.117
  651TIP3   OH223443   5.664   0.192  13.698
  651TIP3    H123444   5.754   0.163  13.714
  651TIP3    H223445   5.620   0.115  13.662
  652TIP3   OH223446   5.137   0.616  13.355
  652TIP3    H123447   5.052   0.575  13.340
  652TIP3    H223448   5.182   0.610  13.271
  653TIP3   OH223449   0.195   2.300  15.711
  653TIP3    H123450   0.202   2.378  15.655
  653TIP3    H223451   0.285   2.275  15.729
  654TIP3   OH223452   1.638   3.647  14.958
  654TIP3    H123453   1.553   3.676  14.990
  654TIP3    H223454   1.658   3.706  14.886
  655TIP3   OH223455   0.995   6.664   4.478
  655TIP3    H123456   1.085   6.696   4.478
  655TIP3    H223457   0.995   6.592   4.542
  656TIP3   OH223458   2.854   1.531   4.345
  656TIP3    H123459   2.830   1.617   4.378
  656TIP3    H223460   2.950   1.531   4.345
  657TIP3   OH223461   5.123   5.177  11.875
  657TIP3    H123462   5.160   5.109  11.932
  657TIP3    H223463   5.029   5.173  11.891
  658TIP3   OH223464   3.474   5.051  11.394
  658TIP3    H123465   3.392   5.100  11.401
  658TIP3    H223466   3.448   4.959  11.398
  659TIP3   OH223467   6.438   2.926  13.396
  659TIP3    H123468   6.419   2.926  13.490
  659TIP3    H223469   6.361   2.884  13.357
  660TIP3   OH223470   0.101   2.201   0.024
  660TIP3    H123471   0.058   2.257   0.089
  660TIP3    H223472   0.089   2.247  -0.059
  661TIP3   OH223473   1.296   6.395   2.700
  661TIP3    H123474   1.368   6.399   2.636
  661TIP3    H223475   1.218   6.376   2.647
  662TIP3   OH223476   3.753   2.342  13.924
  662TIP3    H123477   3.684   2.407  13.941
  662TIP3    H223478   3.832   2.381  13.962
  663TIP3   OH223479   3.172   0.199  12.500
  663TIP3    H123480   3.239   0.137  12.472
  663TIP3    H223481   3.089   0.157  12.479
  664TIP3   OH223482   6.567   6.597  11.031
  664TIP3    H123483   6.514   6.618  10.954
  664TIP3    H223484   6.654   6.631  11.009
  665TIP3   OH223485   2.966   0.780   3.520
  665TIP3    H123486   2.999   0.778   3.430
  665TIP3    H223487   3.000   0.699   3.560
  666TIP3   OH223488   5.548   5.675  16.368
  666TIP3    H123489   5.618   5.628  16.323
  666TIP3    H223490   5.591   5.753  16.403
  667TIP3   OH223491   5.999   2.018  14.678
  667TIP3    H123492   5.988   2.109  14.650
  667TIP3    H223493   6.088   1.995  14.650
  668TIP3   OH223494   6.382   4.144  11.316
  668TIP3    H123495   6.471   4.168  11.340
  668TIP3    H223496   6.328   4.174  11.389
  669TIP3   OH223497   5.573   0.508   5.829
  669TIP3    H123498   5.542   0.483   5.916
  669TIP3    H223499   5.661   0.543   5.843
  670TIP3   OH223500   4.306   5.796   3.193
  670TIP3    H123501   4.362   5.737   3.141
  670TIP3    H223502   4.221   5.752   3.197
  671TIP3   OH223503   2.593   5.869   2.671
  671TIP3    H123504   2.576   5.912   2.587
  671TIP3    H223505   2.523   5.900   2.728
  672TIP3   OH223506   3.938   6.583  16.107
  672TIP3    H123507   3.913   6.623  16.023
  672TIP3    H223508   3.980   6.654  16.156
  673TIP3   OH223509   1.890   6.704  15.982
  673TIP3    H123510   1.807   6.747  15.963
  673TIP3    H223511   1.919   6.742  16.064
  674TIP3   OH223512   2.962   4.581   0.300
  674TIP3    H123513   2.967   4.513   0.367
  674TIP3    H223514   2.902   4.646   0.337
  675TIP3   OH223515   5.564   6.146   5.682
  675TIP3    H123516   5.609   6.112   5.759
  675TIP3    H223517   5.508   6.074   5.654
  676TIP3   OH223518   0.908   5.226  15.882
  676TIP3    H123519   0.980   5.227  15.819
  676TIP3    H223520   0.936   5.285  15.953
  677TIP3   OH223521   4.044   5.307  15.457
  677TIP3    H123522   3.960   5.304  15.504
  677TIP3    H223523   4.028   5.369  15.385
  678TIP3   OH223524   0.920   3.365  17.100
  678TIP3    H123525   0.831   3.374  17.068
  678TIP3    H223526   0.972   3.423  17.044
  679TIP3   OH223527   0.927   2.667   2.085
  679TIP3    H123528   0.898   2.576   2.082
  679TIP3    H223529   1.018   2.664   2.057
  680TIP3   OH223530   5.265   6.171  14.626
  680TIP3    H123531   5.345   6.195  14.578
  680TIP3    H223532   5.289   6.182  14.718
  681TIP3   OH223533   1.252   3.457  12.249
  681TIP3    H123534   1.212   3.371  12.235
  681TIP3    H223535   1.192   3.502  12.307
  682TIP3   OH223536   4.136   3.756  11.301
  682TIP3    H123537   4.133   3.661  11.296
  682TIP3    H223538   4.049   3.785  11.273
  683TIP3   OH223539   6.137   4.988  13.108
  683TIP3    H123540   6.213   4.933  13.094
  683TIP3    H223541   6.173   5.074  13.130
  684TIP3   OH223542   2.999   2.815   4.747
  684TIP3    H123543   2.987   2.795   4.654
  684TIP3    H223544   2.909   2.826   4.780
  685TIP3   OH223545   6.800   4.686   3.894
  685TIP3    H123546   6.839   4.771   3.917
  685TIP3    H223547   6.719   4.682   3.944
  686TIP3   OH223548   1.069   0.109  15.379
  686TIP3    H123549   1.029   0.080  15.298
  686TIP3    H223550   1.037   0.199  15.391
  687TIP3   OH223551   4.929   5.238  13.295
  687TIP3    H123552   4.900   5.247  13.386
  687TIP3    H223553   4.853   5.265  13.243
  688TIP3   OH223554   4.294   5.704  15.403
  688TIP3    H123555   4.341   5.786  15.423
  688TIP3    H223556   4.284   5.662  15.488
  689TIP3   OH223557   2.447   2.615  16.850
  689TIP3    H123558   2.428   2.707  16.870
  689TIP3    H223559   2.365   2.580  16.814
  690TIP3   OH223560   1.272   2.024   3.990
  690TIP3    H123561   1.302   2.113   3.973
  690TIP3    H223562   1.352   1.973   3.998
  691TIP3   OH223563   2.584   5.302  16.305
  691TIP3    H123564   2.660   5.322  16.251
  691TIP3    H223565   2.511   5.346  16.262
  692TIP3   OH223566   5.547   5.880   4.028
  692TIP3    H123567   5.534   5.975   4.032
  692TIP3    H223568   5.612   5.867   3.960
  693TIP3   OH223569   4.086   5.297   1.671
  693TIP3    H123570   4.006   5.265   1.630
  693TIP3    H223571   4.132   5.218   1.698
  694TIP3   OH223572   0.421   3.772  15.467
  694TIP3    H123573   0.351   3.708  15.451
  694TIP3    H223574   0.485   3.724  15.519
  695TIP3   OH223575   4.626   5.419  14.937
  695TIP3    H123576   4.680   5.497  14.932
  695TIP3    H223577   4.621   5.399  15.030
  696TIP3   OH223578   3.574   0.322  14.146
  696TIP3    H123579   3.618   0.237  14.147
  696TIP3    H223580   3.539   0.330  14.057
  697TIP3   OH223581   0.216   6.647   2.222
  697TIP3    H123582   0.123   6.624   2.218
  697TIP3    H223583   0.224   6.723   2.164
  698TIP3   OH223584   6.180   2.883  12.708
  698TIP3    H123585   6.250   2.940  12.740
  698TIP3    H223586   6.221   2.832  12.638
  699TIP3   OH223587   2.613   5.517  16.857
  699TIP3    H123588   2.616   5.501  16.951
  699TIP3    H223589   2.580   5.435  16.820
  700TIP3   OH223590   4.757   2.392  11.785
  700TIP3    H123591   4.697   2.376  11.857
  700TIP3    H223592   4.794   2.306  11.765
  701TIP3   OH223593   6.244   3.243   2.905
  701TIP3    H123594   6.203   3.315   2.857
  701TIP3    H223595   6.261   3.279   2.992
  702TIP3   OH223596   4.989   5.979  14.948
  702TIP3    H123597   4.895   5.977  14.929
  702TIP3    H223598   5.030   5.936  14.873
  703TIP3   OH223599   4.713   0.657  14.114
  703TIP3    H123600   4.757   0.741  14.106
  703TIP3    H223601   4.656   0.652  14.037
  704TIP3   OH223602   2.949   6.179   2.280
  704TIP3    H123603   2.967   6.168   2.187
  704TIP3    H223604   3.033   6.204   2.319
  705TIP3   OH223605   1.208   5.825  11.927
  705TIP3    H123606   1.261   5.850  11.852
  705TIP3    H223607   1.269   5.825  12.001
  706TIP3   OH223608   2.902   6.719   4.208
  706TIP3    H123609   2.892   6.778   4.134
  706TIP3    H223610   2.813   6.691   4.229
  707TIP3   OH223611   3.351   4.940   2.151
  707TIP3    H123612   3.274   4.915   2.102
  707TIP3    H223613   3.425   4.910   2.098
  708TIP3   OH223614   2.106   4.025  15.296
  708TIP3    H123615   2.179   4.081  15.324
  708TIP3    H223616   2.028   4.079  15.310
  709TIP3   OH223617   0.155   6.110   6.047
  709TIP3    H123618   0.106   6.139   5.970
  709TIP3    H223619   0.152   6.014   6.043
  710TIP3   OH223620   4.015   2.574  11.797
  710TIP3    H123621   3.967   2.512  11.852
  710TIP3    H223622   4.055   2.635  11.859
  711TIP3   OH223623   5.803   3.980  14.727
  711TIP3    H123624   5.778   3.903  14.676
  711TIP3    H223625   5.889   4.005  14.693
  712TIP3   OH223626   3.038   2.292   6.294
  712TIP3    H123627   2.983   2.217   6.318
  712TIP3    H223628   2.977   2.357   6.260
  713TIP3   OH223629   3.582   5.373  15.836
  713TIP3    H123630   3.549   5.283  15.834
  713TIP3    H223631   3.630   5.380  15.919
  714TIP3   OH223632   4.990   0.807   5.500
  714TIP3    H123633   4.905   0.812   5.456
  714TIP3    H223634   5.028   0.725   5.470
  715TIP3   OH223635   3.482   1.763   4.079
  715TIP3    H123636   3.467   1.772   3.986
  715TIP3    H223637   3.542   1.834   4.101
  716TIP3   OH223638   1.324   5.466  15.151
  716TIP3    H123639   1.229   5.476  15.141
  716TIP3    H223640   1.361   5.512  15.076
  717TIP3   OH223641   1.342   2.534  16.751
  717TIP3    H123642   1.403   2.570  16.686
  717TIP3    H223643   1.392   2.532  16.833
  718TIP3   OH223644   6.071   2.737   5.592
  718TIP3    H123645   6.018   2.680   5.648
  718TIP3    H223646   6.061   2.700   5.504
  719TIP3   OH223647   5.099   6.207  12.182
  719TIP3    H123648   5.081   6.178  12.092
  719TIP3    H223649   5.150   6.136  12.221
  720TIP3   OH223650   3.403   1.747   2.400
  720TIP3    H123651   3.432   1.792   2.321
  720TIP3    H223652   3.330   1.692   2.371
  721TIP3   OH223653   5.419   2.085   2.848
  721TIP3    H123654   5.325   2.102   2.854
  721TIP3    H223655   5.448   2.081   2.939
  722TIP3   OH223656   5.131   1.474  12.009
  722TIP3    H123657   5.075   1.551  12.013
  722TIP3    H223658   5.071   1.400  12.004
  723TIP3   OH223659   6.319   2.950   4.166
  723TIP3    H123660   6.410   2.969   4.143
  723TIP3    H223661   6.267   3.006   4.108
  724TIP3   OH223662   2.164   2.739   0.599
  724TIP3    H123663   2.122   2.782   0.673
  724TIP3    H223664   2.227   2.804   0.566
  725TIP3   OH223665   6.116   6.378  11.203
  725TIP3    H123666   6.174   6.417  11.137
  725TIP3    H223667   6.170   6.310  11.244
  726TIP3   OH223668   4.079   1.300  11.083
  726TIP3    H123669   4.042   1.268  11.166
  726TIP3    H223670   4.149   1.238  11.063
  727TIP3   OH223671   2.807   2.020   2.443
  727TIP3    H123672   2.894   1.989   2.416
  727TIP3    H223673   2.768   2.056   2.364
  728TIP3   OH223674   4.658   5.384  16.348
  728TIP3    H123675   4.612   5.328  16.411
  728TIP3    H223676   4.657   5.471  16.388
  729TIP3   OH223677   4.700   0.708   4.317
  729TIP3    H123678   4.759   0.730   4.245
  729TIP3    H223679   4.613   0.729   4.283
  730TIP3   OH223680   4.235   6.559   2.605
  730TIP3    H123681   4.223   6.464   2.604
  730TIP3    H223682   4.199   6.590   2.522
  731TIP3   OH223683   2.930   0.014  16.770
  731TIP3    H123684   2.901   0.008  16.861
  731TIP3    H223685   2.975  -0.069  16.755
  732TIP3   OH223686   4.724   4.026  11.641
  732TIP3    H123687   4.775   4.070  11.573
  732TIP3    H223688   4.777   3.951  11.667
  733TIP3   OH223689   6.189   6.644   2.249
  733TIP3    H123690   6.145   6.610   2.326
  733TIP3    H223691   6.276   6.668   2.279
  734TIP3   OH223692   1.057   0.609   2.096
  734TIP3    H123693   1.023   0.685   2.048
  734TIP3    H223694   1.031   0.625   2.187
  735TIP3   OH223695   6.557   6.809  11.686
  735TIP3    H123696   6.541   6.739  11.622
  735TIP3    H223697   6.485   6.801  11.749
  736TIP3   OH223698   2.795   6.677   1.625
  736TIP3    H123699   2.726   6.641   1.569
  736TIP3    H223700   2.777   6.641   1.712
  737TIP3   OH223701   2.810   4.894   5.715
  737TIP3    H123702   2.791   4.937   5.798
  737TIP3    H223703   2.849   4.810   5.740
  738TIP3   OH223704   2.560   0.530  16.846
  738TIP3    H123705   2.486   0.544  16.904
  738TIP3    H223706   2.523   0.531  16.758
  739TIP3   OH223707   3.810   0.052   0.278
  739TIP3    H123708   3.762   0.125   0.240
  739TIP3    H223709   3.833   0.082   0.366
  740TIP3   OH223710   6.638   6.327   6.065
  740TIP3    H123711   6.702   6.266   6.102
  740TIP3    H223712   6.595   6.278   5.995
  741TIP3   OH223713   3.791   5.030   3.669
  741TIP3    H123714   3.765   5.032   3.577
  741TIP3    H223715   3.716   4.991   3.715
  742TIP3   OH223716   1.544   2.264   4.933
  742TIP3    H123717   1.499   2.326   4.990
  742TIP3    H223718   1.510   2.281   4.846
  743TIP3   OH223719   0.731   6.574  11.067
  743TIP3    H123720   0.644   6.568  11.028
  743TIP3    H223721   0.761   6.663  11.046
  744TIP3   OH223722   1.468   4.536  16.293
  744TIP3    H123723   1.479   4.577  16.378
  744TIP3    H223724   1.379   4.558  16.267
  745TIP3   OH223725   0.880   6.178   2.327
  745TIP3    H123726   0.829   6.154   2.250
  745TIP3    H223727   0.819   6.227   2.381
  746TIP3   OH223728   0.423   3.725  11.326
  746TIP3    H123729   0.465   3.764  11.250
  746TIP3    H223730   0.363   3.793  11.358
  747TIP3   OH223731   3.264   2.733   1.827
  747TIP3    H123732   3.339   2.772   1.783
  747TIP3    H223733   3.188   2.775   1.787
  748TIP3   OH223734   0.726   4.998  12.040
  748TIP3    H123735   0.708   4.920  11.988
  748TIP3    H223736   0.815   4.985  12.072
  749TIP3   OH223737   6.423   3.250  11.279
  749TIP3    H123738   6.478   3.255  11.201
  749TIP3    H223739   6.447   3.168  11.321
  750TIP3   OH223740   3.577   1.061   1.600
  750TIP3    H123741   3.639   0.993   1.572
  750TIP3    H223742   3.527   1.081   1.521
  751TIP3   OH223743   4.389   2.964  15.284
  751TIP3    H123744   4.450   2.989  15.214
  751TIP3    H223745   4.437   2.981  15.365
  752TIP3   OH223746   1.433   3.647   4.498
  752TIP3    H123747   1.528   3.640   4.505
  752TIP3    H223748   1.412   3.733   4.534
  753TIP3   OH223749   4.141   5.949  13.405
  753TIP3    H123750   4.120   5.869  13.357
  753TIP3    H223751   4.168   6.012  13.337
  754TIP3   OH223752   4.884   6.659   5.825
  754TIP3    H123753   4.881   6.752   5.843
  754TIP3    H223754   4.794   6.629   5.837
  755TIP3   OH223755   5.795   3.795  13.646
  755TIP3    H123756   5.768   3.704  13.647
  755TIP3    H223757   5.884   3.795  13.683
  756TIP3   OH223758   4.170   2.495  15.331
  756TIP3    H123759   4.226   2.562  15.369
  756TIP3    H223760   4.101   2.543  15.287
  757TIP3   OH223761   2.018   1.286   2.359
  757TIP3    H123762   2.096   1.232   2.364
  757TIP3    H223763   1.946   1.223   2.349
  758TIP3   OH223764   6.546   4.812   1.858
  758TIP3    H123765   6.546   4.783   1.949
  758TIP3    H223766   6.515   4.736   1.808
  759TIP3   OH223767   2.664   3.930   1.052
  759TIP3    H123768   2.699   3.890   1.131
  759TIP3    H223769   2.572   3.904   1.050
  760TIP3   OH223770   6.300   4.600   5.670
  760TIP3    H123771   6.348   4.667   5.718
  760TIP3    H223772   6.241   4.649   5.612
  761TIP3   OH223773   0.209   1.767  14.702
  761TIP3    H123774   0.292   1.811  14.718
  761TIP3    H223775   0.198   1.770  14.607
  762TIP3   OH223776   4.186   5.084   6.311
  762TIP3    H123777   4.241   5.052   6.383
  762TIP3    H223778   4.195   5.018   6.242
  763TIP3   OH223779   6.022   3.414  14.376
  763TIP3    H123780   5.931   3.436  14.394
  763TIP3    H223781   6.070   3.496  14.385
  764TIP3   OH223782   2.140   1.704  12.727
  764TIP3    H123783   2.156   1.645  12.653
  764TIP3    H223784   2.226   1.740  12.748
  765TIP3   OH223785   6.185   5.884   2.655
  765TIP3    H123786   6.194   5.803   2.605
  765TIP3    H223787   6.181   5.856   2.746
  766TIP3   OH223788   5.675   0.452   6.562
  766TIP3    H123789   5.606   0.460   6.496
  766TIP3    H223790   5.741   0.396   6.522
  767TIP3   OH223791   6.730   3.630   2.678
  767TIP3    H123792   6.776   3.655   2.758
  767TIP3    H223793   6.799   3.606   2.616
  768TIP3   OH223794   5.102   1.308  10.675
  768TIP3    H123795   5.113   1.335  10.583
  768TIP3    H223796   5.060   1.383  10.717
  769TIP3   OH223797   3.130   1.971  13.010
  769TIP3    H123798   3.224   1.970  13.024
  769TIP3    H223799   3.099   1.888  13.047
  770TIP3   OH223800   0.817   3.506   5.168
  770TIP3    H123801   0.774   3.579   5.213
  770TIP3    H223802   0.836   3.443   5.238
  771TIP3   OH223803   5.700   0.677   3.132
  771TIP3    H123804   5.791   0.701   3.118
  771TIP3    H223805   5.698   0.582   3.119
  772TIP3   OH223806   1.521   0.547  11.061
  772TIP3    H123807   1.468   0.483  11.014
  772TIP3    H223808   1.472   0.629  11.055
  773TIP3   OH223809   3.248   4.323  14.799
  773TIP3    H123810   3.333   4.337  14.841
  773TIP3    H223811   3.193   4.395  14.830
  774TIP3   OH223812   4.160   4.341   3.274
  774TIP3    H123813   4.160   4.352   3.179
  774TIP3    H223814   4.178   4.429   3.308
  775TIP3   OH223815   3.076   4.005   2.526
  775TIP3    H123816   3.019   4.059   2.580
  775TIP3    H223817   3.017   3.946   2.480
  776TIP3   OH223818   3.433   1.623  10.992
  776TIP3    H123819   3.455   1.713  10.968
  776TIP3    H223820   3.476   1.569  10.926
  777TIP3   OH223821   0.530   2.608   5.106
  777TIP3    H123822   0.603   2.669   5.113
  777TIP3    H223823   0.491   2.606   5.194
  778TIP3   OH223824   0.163   1.991  12.829
  778TIP3    H123825   0.235   1.949  12.877
  778TIP3    H223826   0.098   1.922  12.819
  779TIP3   OH223827   5.893   6.778  12.950
  779TIP3    H123828   5.829   6.844  12.980
  779TIP3    H223829   5.896   6.714  13.021
  780TIP3   OH223830   3.877   4.025   0.978
  780TIP3    H123831   3.811   4.094   0.977
  780TIP3    H223832   3.933   4.045   0.903
  781TIP3   OH223833   3.942   6.740  15.366
  781TIP3    H123834   3.984   6.725  15.451
  781TIP3    H223835   3.996   6.807  15.324
  782TIP3   OH223836   0.129   4.988   5.419
  782TIP3    H123837   0.181   5.068   5.411
  782TIP3    H223838   0.050   5.006   5.368
  783TIP3   OH223839   4.908   5.345  17.190
  783TIP3    H123840   4.849   5.285  17.145
  783TIP3    H223841   4.855   5.379  17.263
  784TIP3   OH223842   6.141   0.298  11.197
  784TIP3    H123843   6.079   0.369  11.211
  784TIP3    H223844   6.128   0.239  11.272
  785TIP3   OH223845   5.173   3.684   5.383
  785TIP3    H123846   5.101   3.621   5.374
  785TIP3    H223847   5.206   3.696   5.294
  786TIP3   OH223848   4.896   2.749   1.559
  786TIP3    H123849   4.830   2.793   1.506
  786TIP3    H223850   4.876   2.776   1.649
  787TIP3   OH223851   5.238   3.243  11.510
  787TIP3    H123852   5.147   3.272  11.515
  787TIP3    H223853   5.279   3.283  11.587
  788TIP3   OH223854   2.989   6.537  13.777
  788TIP3    H123855   2.906   6.572  13.810
  788TIP3    H223856   3.047   6.538  13.853
  789TIP3   OH223857   3.738   1.701  13.147
  789TIP3    H123858   3.652   1.696  13.104
  789TIP3    H223859   3.719   1.695  13.240
  790TIP3   OH223860   4.547   1.109   3.663
  790TIP3    H123861   4.633   1.088   3.698
  790TIP3    H223862   4.500   1.026   3.663
  791TIP3   OH223863   6.319   1.325  13.701
  791TIP3    H123864   6.231   1.309  13.667
  791TIP3    H223865   6.328   1.421  13.699
  792TIP3   OH223866   2.836   0.128  15.525
  792TIP3    H123867   2.822   0.034  15.538
  792TIP3    H223868   2.930   0.135  15.509
  793TIP3   OH223869   3.073   1.564   0.352
  793TIP3    H123870   3.107   1.635   0.407
  793TIP3    H223871   3.142   1.498   0.351
  794TIP3   OH223872   2.027   1.960   0.458
  794TIP3    H123873   1.965   1.948   0.385
  794TIP3    H223874   2.096   1.897   0.440
  795TIP3   OH223875   3.698   4.159   5.687
  795TIP3    H123876   3.742   4.092   5.740
  795TIP3    H223877   3.749   4.238   5.702
  796TIP3   OH223878   4.052   0.560   0.388
  796TIP3    H123879   4.012   0.561   0.301
  796TIP3    H223880   4.141   0.527   0.373
  797TIP3   OH223881   5.174   1.466   2.264
  797TIP3    H123882   5.224   1.446   2.185
  797TIP3    H223883   5.234   1.520   2.317
  798TIP3   OH223884   4.820   5.309  13.852
  798TIP3    H123885   4.797   5.240  13.915
  798TIP3    H223886   4.915   5.304  13.845
  799TIP3   OH223887   5.507   0.582  12.568
  799TIP3    H123888   5.450   0.535  12.507
  799TIP3    H223889   5.472   0.671  12.570
  800TIP3   OH223890   5.353   2.508   4.851
  800TIP3    H123891   5.276   2.464   4.815
  800TIP3    H223892   5.422   2.493   4.787
  801TIP3   OH223893   6.266   3.606  11.672
  801TIP3    H123894   6.185   3.649  11.648
  801TIP3    H223895   6.295   3.561  11.593
  802TIP3   OH223896   5.707   5.424  10.896
  802TIP3    H123897   5.643   5.450  10.963
  802TIP3    H223898   5.761   5.502  10.883
  803TIP3   OH223899   0.711   6.623  16.278
  803TIP3    H123900   0.795   6.614  16.324
  803TIP3    H223901   0.731   6.675  16.201
  804TIP3   OH223902   2.858   6.189   0.442
  804TIP3    H123903   2.828   6.103   0.468
  804TIP3    H223904   2.822   6.202   0.354
  805TIP3   OH223905   1.385   6.083   4.173
  805TIP3    H123906   1.451   6.142   4.209
  805TIP3    H223907   1.405   5.998   4.211
  806TIP3   OH223908   0.597   2.126  13.269
  806TIP3    H123909   0.567   2.113  13.179
  806TIP3    H223910   0.574   2.044  13.314
  807TIP3   OH223911   5.078   1.193   5.002
  807TIP3    H123912   5.111   1.133   5.069
  807TIP3    H223913   5.111   1.157   4.919
  808TIP3   OH223914   1.907   6.431   2.852
  808TIP3    H123915   1.867   6.515   2.828
  808TIP3    H223916   1.921   6.438   2.946
  809TIP3   OH223917   2.412   2.246   5.218
  809TIP3    H123918   2.431   2.204   5.302
  809TIP3    H223919   2.316   2.244   5.211
  810TIP3   OH223920   2.892   5.620   2.915
  810TIP3    H123921   2.878   5.659   2.829
  810TIP3    H223922   2.946   5.683   2.962
  811TIP3   OH223923   3.422   5.776   5.518
  811TIP3    H123924   3.378   5.802   5.437
  811TIP3    H223925   3.379   5.828   5.586
  812TIP3   OH223926   0.117   6.396   3.928
  812TIP3    H123927   0.167   6.315   3.929
  812TIP3    H223928   0.085   6.406   4.018
  813TIP3   OH223929   4.871   2.399   2.276
  813TIP3    H123930   4.840   2.432   2.192
  813TIP3    H223931   4.809   2.434   2.340
  814TIP3   OH223932   4.848   1.400   0.668
  814TIP3    H123933   4.803   1.360   0.742
  814TIP3    H223934   4.837   1.337   0.596
  815TIP3   OH223935   4.453   0.324   4.546
  815TIP3    H123936   4.505   0.402   4.528
  815TIP3    H223937   4.368   0.342   4.506
  816TIP3   OH223938   0.690   5.076   6.226
  816TIP3    H123939   0.772   5.056   6.272
  816TIP3    H223940   0.708   5.156   6.178
  817TIP3   OH223941   0.198   4.020  15.279
  817TIP3    H123942   0.139   3.996  15.208
  817TIP3    H223943   0.152   3.994  15.359
  818TIP3   OH223944   2.239   5.490   6.643
  818TIP3    H123945   2.323   5.450   6.665
  818TIP3    H223946   2.236   5.569   6.697
  819TIP3   OH223947   5.618   6.747  12.207
  819TIP3    H123948   5.540   6.754  12.153
  819TIP3    H223949   5.659   6.665  12.180
  820TIP3   OH223950   5.118   2.521  12.364
  820TIP3    H123951   5.090   2.606  12.330
  820TIP3    H223952   5.077   2.457  12.305
  821TIP3   OH223953   1.876   3.269  14.520
  821TIP3    H123954   1.788   3.236  14.499
  821TIP3    H223955   1.863   3.362  14.537
  822TIP3   OH223956   0.823   6.075   3.522
  822TIP3    H123957   0.770   6.047   3.596
  822TIP3    H223958   0.760   6.110   3.459
  823TIP3   OH223959   3.700   1.411   2.274
  823TIP3    H123960   3.714   1.431   2.367
  823TIP3    H223961   3.627   1.468   2.248
  824TIP3   OH223962   6.289   4.001   4.339
  824TIP3    H123963   6.294   4.081   4.287
  824TIP3    H223964   6.304   3.930   4.277
  825TIP3   OH223965   2.399   2.883   3.958
  825TIP3    H123966   2.358   2.813   3.906
  825TIP3    H223967   2.445   2.837   4.028
  826TIP3   OH223968   4.328   4.087  15.331
  826TIP3    H123969   4.385   4.067  15.256
  826TIP3    H223970   4.283   4.168  15.307
  827TIP3   OH223971   0.983   1.857   2.739
  827TIP3    H123972   0.958   1.889   2.652
  827TIP3    H223973   0.931   1.910   2.800
  828TIP3   OH223974   0.816   0.484  16.700
  828TIP3    H123975   0.756   0.537  16.647
  828TIP3    H223976   0.892   0.470  16.643
  829TIP3   OH223977   0.026   3.743  13.360
  829TIP3    H123978   0.035   3.758  13.454
  829TIP3    H223979   0.033   3.648  13.349
  830TIP3   OH223980   5.037   6.598  14.573
  830TIP3    H123981   5.121   6.565  14.542
  830TIP3    H223982   5.000   6.525  14.623
  831TIP3   OH223983   5.928   0.293  14.304
  831TIP3    H123984   5.953   0.287  14.396
  831TIP3    H223985   5.832   0.299  14.306
  832TIP3   OH223986   2.726   2.710   0.738
  832TIP3    H123987   2.660   2.646   0.765
  832TIP3    H223988   2.810   2.666   0.749
  833TIP3   OH223989   0.217   4.441   0.427
  833TIP3    H123990   0.284   4.432   0.359
  833TIP3    H223991   0.165   4.361   0.421
  834TIP3   OH223992   0.888   1.201   3.316
  834TIP3    H123993   0.910   1.295   3.315
  834TIP3    H223994   0.862   1.183   3.226
  835TIP3   OH223995   4.727   2.235  14.491
  835TIP3    H123996   4.657   2.274  14.439
  835TIP3    H223997   4.795   2.212  14.427
  836TIP3   OH223998   5.562   3.359  12.184
  836TIP3    H123999   5.585   3.279  12.232
  836TIP3    H224000   5.539   3.328  12.097
  837TIP3   OH224001   1.614   4.751  10.451
  837TIP3    H124002   1.575   4.669  10.484
  837TIP3    H224003   1.687   4.723  10.396
  838TIP3   OH224004   1.195   2.436  14.646
  838TIP3    H124005   1.263   2.457  14.583
  838TIP3    H224006   1.219   2.486  14.724
  839TIP3   OH224007   3.013   5.151  11.279
  839TIP3    H124008   3.092   5.205  11.276
  839TIP3    H224009   2.955   5.192  11.215
  840TIP3   OH224010   3.159   1.711  11.749
  840TIP3    H124011   3.185   1.669  11.667
  840TIP3    H224012   3.142   1.802  11.725
  841TIP3   OH224013   5.233   3.365   2.433
  841TIP3    H124014   5.242   3.459   2.453
  841TIP3    H224015   5.319   3.328   2.456
  842TIP3   OH224016   1.616   1.308   6.185
  842TIP3    H124017   1.599   1.214   6.189
  842TIP3    H224018   1.556   1.347   6.249
  843TIP3   OH224019   5.033   1.380  12.323
  843TIP3    H124020   4.960   1.432  12.288
  843TIP3    H224021   4.992   1.299  12.353
  844TIP3   OH224022   5.249   0.912   1.997
  844TIP3    H124023   5.241   0.817   1.995
  844TIP3    H224024   5.159   0.944   1.998
  845TIP3   OH224025   3.441   5.158   2.260
  845TIP3    H124026   3.361   5.210   2.268
  845TIP3    H224027   3.409   5.070   2.236
  846TIP3   OH224028   4.438   6.629   0.284
  846TIP3    H124029   4.492   6.596   0.212
  846TIP3    H224030   4.501   6.660   0.349
  847TIP3   OH224031   6.490   2.469  11.870
  847TIP3    H124032   6.580   2.477  11.901
  847TIP3    H224033   6.452   2.401  11.925
  848TIP3   OH224034   0.656   4.666   3.599
  848TIP3    H124035   0.749   4.669   3.619
  848TIP3    H224036   0.646   4.586   3.547
  849TIP3   OH224037   0.468   6.145  16.543
  849TIP3    H124038   0.499   6.148  16.453
  849TIP3    H224039   0.541   6.109  16.593
  850TIP3   OH224040   0.532   1.081   1.328
  850TIP3    H124041   0.447   1.120   1.349
  850TIP3    H224042   0.542   1.094   1.234
  851TIP3   OH224043   6.114   6.611  16.584
  851TIP3    H124044   6.180   6.566  16.637
  851TIP3    H224045   6.031   6.591  16.627
  852TIP3   OH224046   1.121   1.812   0.128
  852TIP3    H124047   1.177   1.844   0.198
  852TIP3    H224048   1.146   1.864   0.051
  853TIP3   OH224049   3.983   5.074  14.027
  853TIP3    H124050   4.071   5.104  14.051
  853TIP3    H224051   3.955   5.133  13.957
  854TIP3   OH224052   3.803   4.401  14.404
  854TIP3    H124053   3.875   4.370  14.349
  854TIP3    H224054   3.724   4.368  14.362
  855TIP3   OH224055   2.448   1.977   5.143
  855TIP3    H124056   2.536   2.010   5.158
  855TIP3    H224057   2.426   1.930   5.224
  856TIP3   OH224058   5.364   2.450   3.109
  856TIP3    H124059   5.300   2.516   3.133
  856TIP3    H224060   5.448   2.494   3.116
  857TIP3   OH224061   1.294   2.026  11.301
  857TIP3    H124062   1.250   1.989  11.225
  857TIP3    H224063   1.277   1.963  11.372
  858TIP3   OH224064   3.400   4.401  16.821
  858TIP3    H124065   3.436   4.360  16.900
  858TIP3    H224066   3.305   4.391  16.830
  859TIP3   OH224067   0.782   4.910   2.954
  859TIP3    H124068   0.739   4.977   2.899
  859TIP3    H224069   0.760   4.827   2.912
  860TIP3   OH224070   1.555   2.921   2.369
  860TIP3    H124071   1.504   3.002   2.374
  860TIP3    H224072   1.560   2.901   2.276
  861TIP3   OH224073   6.256   4.617  12.044
  861TIP3    H124074   6.241   4.647  11.954
  861TIP3    H224075   6.304   4.535  12.034
  862TIP3   OH224076   2.652   6.386  16.553
  862TIP3    H124077   2.685   6.426  16.472
  862TIP3    H224078   2.703   6.306  16.563
  863TIP3   OH224079   2.551   6.486  12.985
  863TIP3    H124080   2.456   6.475  12.981
  863TIP3    H224081   2.566   6.578  12.963
  864TIP3   OH224082   4.701   5.583   4.698
  864TIP3    H124083   4.679   5.509   4.641
  864TIP3    H224084   4.792   5.567   4.723
  865TIP3   OH224085   0.953   3.900   5.465
  865TIP3    H124086   0.918   3.865   5.547
  865TIP3    H224087   0.980   3.990   5.486
  866TIP3   OH224088   0.678   4.217   5.000
  866TIP3    H124089   0.643   4.191   5.085
  866TIP3    H224090   0.669   4.312   4.998
  867TIP3   OH224091   0.496   5.549   3.148
  867TIP3    H124092   0.500   5.482   3.080
  867TIP3    H224093   0.470   5.501   3.227
  868TIP3   OH224094   3.286   2.962   0.397
  868TIP3    H124095   3.319   2.963   0.487
  868TIP3    H224096   3.208   2.907   0.400
  869TIP3   OH224097   4.670   5.506   3.365
  869TIP3    H124098   4.589   5.499   3.416
  869TIP3    H224099   4.738   5.469   3.422
  870TIP3   OH224100   6.673   1.629  15.022
  870TIP3    H124101   6.585   1.593  15.034
  870TIP3    H224102   6.727   1.579  15.082
  871TIP3   OH224103   1.609   5.513   0.298
  871TIP3    H124104   1.613   5.508   0.203
  871TIP3    H224105   1.548   5.585   0.315
  872TIP3   OH224106   3.199   4.325  15.544
  872TIP3    H124107   3.156   4.268  15.607
  872TIP3    H224108   3.213   4.407  15.591
  873TIP3   OH224109   3.893   5.181   1.500
  873TIP3    H124110   3.859   5.092   1.509
  873TIP3    H224111   3.907   5.192   1.406
  874TIP3   OH224112   5.129   5.507  15.387
  874TIP3    H124113   5.079   5.587  15.403
  874TIP3    H224114   5.085   5.440  15.441
  875TIP3   OH224115   0.699   3.662  11.387
  875TIP3    H124116   0.642   3.676  11.312
  875TIP3    H224117   0.657   3.710  11.458
  876TIP3   OH224118   3.644   3.973  14.804
  876TIP3    H124119   3.577   4.040  14.816
  876TIP3    H224120   3.680   3.989  14.717
  877TIP3   OH224121   2.478   3.900  13.790
  877TIP3    H124122   2.459   3.911  13.697
  877TIP3    H224123   2.405   3.848  13.823
  878TIP3   OH224124   5.012   3.891   0.536
  878TIP3    H124125   5.023   3.983   0.510
  878TIP3    H224126   5.098   3.852   0.523
  879TIP3   OH224127   4.398   0.529   4.826
  879TIP3    H124128   4.380   0.436   4.816
  879TIP3    H224129   4.370   0.549   4.916
  880TIP3   OH224130   3.729   2.025   1.550
  880TIP3    H124131   3.633   2.025   1.556
  880TIP3    H224132   3.757   2.088   1.616
  881TIP3   OH224133   3.128   5.906  15.616
  881TIP3    H124134   3.076   5.826  15.612
  881TIP3    H224135   3.133   5.926  15.710
  882TIP3   OH224136   1.290   1.871  11.551
  882TIP3    H124137   1.237   1.793  11.566
  882TIP3    H224138   1.378   1.845  11.580
  883TIP3   OH224139   2.380   4.536   0.558
  883TIP3    H124140   2.452   4.478   0.581
  883TIP3    H224141   2.315   4.479   0.516
  884TIP3   OH224142   5.732   1.507   1.721
  884TIP3    H124143   5.727   1.599   1.698
  884TIP3    H224144   5.763   1.506   1.811
  885TIP3   OH224145   2.849   4.840  15.804
  885TIP3    H124146   2.767   4.847  15.854
  885TIP3    H224147   2.821   4.826  15.714
  886TIP3   OH224148   6.173   5.443   3.731
  886TIP3    H124149   6.161   5.533   3.761
  886TIP3    H224150   6.240   5.407   3.788
  887TIP3   OH224151   4.090   4.815  13.509
  887TIP3    H124152   4.088   4.856  13.595
  887TIP3    H224153   4.003   4.776  13.499
  888TIP3   OH224154   1.601   1.868  12.392
  888TIP3    H124155   1.681   1.846  12.345
  888TIP3    H224156   1.580   1.957  12.364
  889TIP3   OH224157   5.785   4.912   1.350
  889TIP3    H124158   5.766   4.832   1.301
  889TIP3    H224159   5.780   4.982   1.284
  890TIP3   OH224160   4.267   4.223  14.165
  890TIP3    H124161   4.320   4.301  14.181
  890TIP3    H224162   4.205   4.249  14.097
  891TIP3   OH224163   1.635   4.368   3.945
  891TIP3    H124164   1.718   4.347   3.989
  891TIP3    H224165   1.577   4.296   3.967
  892TIP3   OH224166   6.738   5.800   6.199
  892TIP3    H124167   6.700   5.862   6.262
  892TIP3    H224168   6.820   5.772   6.240
  893TIP3   OH224169   1.536   2.746  13.231
  893TIP3    H124170   1.526   2.838  13.257
  893TIP3    H224171   1.447   2.718  13.209
  894TIP3   OH224172   0.994   5.592  14.589
  894TIP3    H124173   1.062   5.534  14.622
  894TIP3    H224174   0.912   5.545  14.607
  895TIP3   OH224175   5.819   1.985   3.998
  895TIP3    H124176   5.799   1.996   4.091
  895TIP3    H224177   5.904   1.941   3.997
  896TIP3   OH224178   2.509   5.281   3.827
  896TIP3    H124179   2.548   5.368   3.834
  896TIP3    H224180   2.554   5.229   3.894
  897TIP3   OH224181   0.842   0.987   2.226
  897TIP3    H124182   0.793   0.913   2.261
  897TIP3    H224183   0.929   0.979   2.264
  898TIP3   OH224184   4.717   3.306   1.611
  898TIP3    H124185   4.773   3.318   1.534
  898TIP3    H224186   4.715   3.391   1.654
  899TIP3   OH224187   3.511   1.800  16.174
  899TIP3    H124188   3.604   1.819  16.160
  899TIP3    H224189   3.480   1.871  16.230
  900TIP3   OH224190   0.361   2.334   4.551
  900TIP3    H124191   0.404   2.337   4.466
  900TIP3    H224192   0.277   2.379   4.537
  901TIP3   OH224193   1.769   6.654   2.851
  901TIP3    H124194   1.719   6.711   2.910
  901TIP3    H224195   1.716   6.651   2.771
  902TIP3   OH224196   5.448   3.859  13.785
  902TIP3    H124197   5.511   3.903  13.729
  902TIP3    H224198   5.445   3.769  13.752
  903TIP3   OH224199   3.550   3.741  14.520
  903TIP3    H124200   3.520   3.662  14.475
  903TIP3    H224201   3.482   3.761  14.583
  904TIP3   OH224202   2.205   2.157  13.158
  904TIP3    H124203   2.212   2.114  13.073
  904TIP3    H224204   2.277   2.220  13.159
  905TIP3   OH224205   3.699   3.798  10.873
  905TIP3    H124206   3.687   3.783  10.780
  905TIP3    H224207   3.712   3.893  10.881
  906TIP3   OH224208   6.555   5.734  17.209
  906TIP3    H124209   6.513   5.725  17.294
  906TIP3    H224210   6.554   5.828  17.191
  907TIP3   OH224211   2.101   6.665  12.712
  907TIP3    H124212   2.068   6.755  12.716
  907TIP3    H224213   2.022   6.610  12.715
  908TIP3   OH224214   6.183   6.745  14.970
  908TIP3    H124215   6.221   6.725  15.056
  908TIP3    H224216   6.207   6.671  14.915
  909TIP3   OH224217   4.054   5.165  13.641
  909TIP3    H124218   4.013   5.084  13.674
  909TIP3    H224219   4.006   5.235  13.685
  910TIP3   OH224220   6.186   0.401  13.382
  910TIP3    H124221   6.206   0.494  13.391
  910TIP3    H224222   6.162   0.390  13.290
  911TIP3   OH224223   1.237   6.363   6.481
  911TIP3    H124224   1.158   6.344   6.429
  911TIP3    H224225   1.210   6.345   6.571
  912TIP3   OH224226   6.500   0.367   2.959
  912TIP3    H124227   6.423   0.416   2.931
  912TIP3    H224228   6.467   0.280   2.982
  913TIP3   OH224229   5.622   6.524  11.976
  913TIP3    H124230   5.631   6.595  11.913
  913TIP3    H224231   5.560   6.463  11.936
  914TIP3   OH224232   3.186   5.360  12.524
  914TIP3    H124233   3.247   5.286  12.523
  914TIP3    H224234   3.235   5.432  12.484
  915TIP3   OH224235   4.671   4.547  14.738
  915TIP3    H124236   4.742   4.540  14.802
  915TIP3    H224237   4.639   4.637  14.745
  916TIP3   OH224238   1.501   6.591   5.427
  916TIP3    H124239   1.556   6.669   5.432
  916TIP3    H224240   1.521   6.543   5.507
  917TIP3   OH224241   2.480   5.091  15.066
  917TIP3    H124242   2.392   5.067  15.095
  917TIP3    H224243   2.481   5.187  15.067
  918TIP3   OH224244   3.582   1.866   2.238
  918TIP3    H124245   3.659   1.871   2.181
  918TIP3    H224246   3.575   1.954   2.276
  919TIP3   OH224247   3.885   1.278  14.362
  919TIP3    H124248   3.977   1.269  14.386
  919TIP3    H224249   3.840   1.212  14.414
  920TIP3   OH224250   1.700   1.724   5.604
  920TIP3    H124251   1.627   1.775   5.640
  920TIP3    H224252   1.775   1.782   5.608
  921TIP3   OH224253   5.888   0.508   4.028
  921TIP3    H124254   5.810   0.512   3.972
  921TIP3    H224255   5.882   0.585   4.084
  922TIP3   OH224256   5.312   2.551   1.816
  922TIP3    H124257   5.368   2.622   1.787
  922TIP3    H224258   5.341   2.533   1.906
  923TIP3   OH224259   2.046   5.031   4.304
  923TIP3    H124260   1.985   4.980   4.249
  923TIP3    H224261   1.988   5.081   4.363
  924TIP3   OH224262   3.592   0.338  16.421
  924TIP3    H124263   3.667   0.396  16.427
  924TIP3    H224264   3.518   0.396  16.402
  925TIP3   OH224265   6.293   5.038   1.522
  925TIP3    H124266   6.363   5.051   1.586
  925TIP3    H224267   6.332   5.065   1.438
  926TIP3   OH224268   2.994   1.403   2.095
  926TIP3    H124269   2.998   1.481   2.151
  926TIP3    H224270   2.908   1.408   2.054
  927TIP3   OH224271   0.142   4.034   3.827
  927TIP3    H124272   0.164   4.014   3.918
  927TIP3    H224273   0.209   3.988   3.776
  928TIP3   OH224274   2.338   5.957  15.473
  928TIP3    H124275   2.338   6.034  15.416
  928TIP3    H224276   2.255   5.963  15.521
  929TIP3   OH224277   1.166   3.386  13.215
  929TIP3    H124278   1.162   3.337  13.297
  929TIP3    H224279   1.251   3.361  13.177
  930TIP3   OH224280   2.595   1.840   4.957
  930TIP3    H124281   2.684   1.842   4.990
  930TIP3    H224282   2.545   1.891   5.021
  931TIP3   OH224283   4.512   6.000  14.225
  931TIP3    H124284   4.469   5.993  14.310
  931TIP3    H224285   4.605   5.982  14.243
  932TIP3   OH224286   1.045   5.214  11.791
  932TIP3    H124287   1.047   5.303  11.826
  932TIP3    H224288   1.006   5.223  11.704
  933TIP3   OH224289   6.533   5.249   4.385
  933TIP3    H124290   6.538   5.162   4.344
  933TIP3    H224291   6.466   5.296   4.335
  934TIP3   OH224292   4.244   0.584  17.167
  934TIP3    H124293   4.182   0.511  17.179
  934TIP3    H224294   4.300   0.580  17.245
  935TIP3   OH224295   3.683   3.355   0.767
  935TIP3    H124296   3.591   3.381   0.764
  935TIP3    H224297   3.696   3.322   0.856
  936TIP3   OH224298   2.342   6.451   6.125
  936TIP3    H124299   2.372   6.488   6.042
  936TIP3    H224300   2.332   6.357   6.107
  937TIP3   OH224301   4.448   2.059  12.350
  937TIP3    H124302   4.435   2.130  12.413
  937TIP3    H224303   4.392   1.989  12.382
  938TIP3   OH224304   6.141   0.607  17.254
  938TIP3    H124305   6.173   0.539  17.195
  938TIP3    H224306   6.219   0.633  17.304
  939TIP3   OH224307   4.699   2.329   2.673
  939TIP3    H124308   4.793   2.344   2.665
  939TIP3    H224309   4.685   2.243   2.633
  940TIP3   OH224310   6.688   4.561   2.542
  940TIP3    H124311   6.721   4.473   2.558
  940TIP3    H224312   6.766   4.615   2.531
  941TIP3   OH224313   3.706   6.526   1.309
  941TIP3    H124314   3.634   6.551   1.367
  941TIP3    H224315   3.780   6.511   1.368
  942TIP3   OH224316   0.123   3.853   0.491
  942TIP3    H124317   0.152   3.762   0.496
  942TIP3    H224318   0.038   3.853   0.534
  943TIP3   OH224319   3.250   5.543   4.460
  943TIP3    H124320   3.344   5.530   4.468
  943TIP3    H224321   3.225   5.593   4.538
  944TIP3   OH224322   3.502   5.565   2.500
  944TIP3    H124323   3.434   5.599   2.558
  944TIP3    H224324   3.486   5.471   2.497
  945TIP3   OH224325   1.720   2.673   5.901
  945TIP3    H124326   1.699   2.736   5.971
  945TIP3    H224327   1.796   2.712   5.857
  946TIP3   OH224328   2.684   2.508  14.344
  946TIP3    H124329   2.684   2.422  14.302
  946TIP3    H224330   2.769   2.514  14.387
  947TIP3   OH224331   1.902   5.089   6.054
  947TIP3    H124332   1.961   5.014   6.059
  947TIP3    H224333   1.817   5.055   6.080
  948TIP3   OH224334   1.048   4.066  16.161
  948TIP3    H124335   1.056   4.113  16.244
  948TIP3    H224336   0.993   4.122  16.107
  949TIP3   OH224337   5.686   5.739  16.682
  949TIP3    H124338   5.753   5.762  16.746
  949TIP3    H224339   5.719   5.773  16.599
  950TIP3   OH224340   3.818   5.000  15.778
  950TIP3    H124341   3.866   5.038  15.852
  950TIP3    H224342   3.787   4.915  15.810
  951TIP3   OH224343   0.469   1.040  15.494
  951TIP3    H124344   0.517   1.018  15.574
  951TIP3    H224345   0.482   1.134  15.483
  952TIP3   OH224346   4.718   5.591   5.004
  952TIP3    H124347   4.668   5.608   5.084
  952TIP3    H224348   4.660   5.538   4.950
  953TIP3   OH224349   2.465   1.861  11.753
  953TIP3    H124350   2.434   1.901  11.835
  953TIP3    H224351   2.490   1.772  11.779
  954TIP3   OH224352   4.480   2.547   4.874
  954TIP3    H124353   4.417   2.617   4.860
  954TIP3    H224354   4.485   2.502   4.790
  955TIP3   OH224355   0.142   3.393  15.532
  955TIP3    H124356   0.157   3.479  15.493
  955TIP3    H224357   0.052   3.370  15.509
  956TIP3   OH224358   4.838   1.744  11.827
  956TIP3    H124359   4.926   1.758  11.791
  956TIP3    H224360   4.779   1.775  11.758
  957TIP3   OH224361   3.054   6.742  15.927
  957TIP3    H124362   2.964   6.770  15.938
  957TIP3    H224363   3.079   6.773  15.840
  958TIP3   OH224364   5.493   2.541   3.611
  958TIP3    H124365   5.416   2.535   3.668
  958TIP3    H224366   5.548   2.468   3.638
  959TIP3   OH224367   0.965   1.945   5.150
  959TIP3    H124368   1.033   1.981   5.093
  959TIP3    H224369   0.886   1.944   5.096
  960TIP3   OH224370   4.695   2.124   6.095
  960TIP3    H124371   4.738   2.173   6.165
  960TIP3    H224372   4.740   2.153   6.015
  961TIP3   OH224373   0.881   4.693   2.789
  961TIP3    H124374   0.974   4.713   2.801
  961TIP3    H224375   0.880   4.611   2.739
  962TIP3   OH224376   6.414   5.470  12.959
  962TIP3    H124377   6.425   5.468  13.054
  962TIP3    H224378   6.493   5.428  12.925
  963TIP3   OH224379   4.379   0.034  17.200
  963TIP3    H124380   4.420  -0.031  17.143
  963TIP3    H224381   4.311   0.074  17.146
  964TIP3   OH224382   4.994   1.371   2.461
  964TIP3    H124383   4.939   1.448   2.476
  964TIP3    H224384   5.045   1.394   2.383
  965TIP3   OH224385   4.115   1.400   1.863
  965TIP3    H124386   4.042   1.372   1.807
  965TIP3    H224387   4.079   1.471   1.916
  966TIP3   OH224388   6.305   3.168  13.428
  966TIP3    H124389   6.364   3.102  13.393
  966TIP3    H224390   6.259   3.202  13.351
  967TIP3   OH224391   0.113   4.482   2.799
  967TIP3    H124392   0.185   4.460   2.857
  967TIP3    H224393   0.131   4.434   2.719
  968TIP3   OH224394   1.587   6.451  13.673
  968TIP3    H124395   1.580   6.541  13.703
  968TIP3    H224396   1.609   6.401  13.752
  969TIP3   OH224397   4.506   6.150  16.753
  969TIP3    H124398   4.513   6.217  16.821
  969TIP3    H224399   4.448   6.190  16.687
  970TIP3   OH224400   1.873   5.253  13.429
  970TIP3    H124401   1.914   5.263  13.515
  970TIP3    H224402   1.853   5.342  13.402
  971TIP3   OH224403   3.046   5.865   0.226
  971TIP3    H124404   2.983   5.797   0.247
  971TIP3    H224405   2.997   5.928   0.173
  972TIP3   OH224406   0.475   4.799  11.927
  972TIP3    H124407   0.415   4.830  11.995
  972TIP3    H224408   0.461   4.858  11.853
  973TIP3   OH224409   2.420   1.946   0.885
  973TIP3    H124410   2.432   1.997   0.805
  973TIP3    H224411   2.423   2.011   0.956
  974TIP3   OH224412   4.792   1.455   3.006
  974TIP3    H124413   4.792   1.541   2.963
  974TIP3    H224414   4.809   1.475   3.098
  975TIP3   OH224415   0.493   4.131  15.138
  975TIP3    H124416   0.491   4.146  15.044
  975TIP3    H224417   0.427   4.190  15.174
  976TIP3   OH224418   1.152   2.931   0.495
  976TIP3    H124419   1.234   2.945   0.543
  976TIP3    H224420   1.090   2.990   0.537
  977TIP3   OH224421   4.412   0.017   2.515
  977TIP3    H124422   4.453  -0.035   2.445
  977TIP3    H224423   4.443  -0.024   2.596
  978TIP3   OH224424   6.367   1.648   1.757
  978TIP3    H124425   6.283   1.651   1.710
  978TIP3    H224426   6.420   1.586   1.707
  979TIP3   OH224427   0.400   1.514   4.881
  979TIP3    H124428   0.344   1.452   4.928
  979TIP3    H224429   0.399   1.484   4.790
  980TIP3   OH224430   3.635   5.362  16.477
  980TIP3    H124431   3.611   5.401  16.561
  980TIP3    H224432   3.730   5.374  16.472
  981TIP3   OH224433   5.772   1.776  16.500
  981TIP3    H124434   5.712   1.845  16.530
  981TIP3    H224435   5.836   1.822  16.446
  982TIP3   OH224436   5.422   0.782  13.748
  982TIP3    H124437   5.507   0.740  13.736
  982TIP3    H224438   5.377   0.767  13.664
  983TIP3   OH224439   2.402   3.840  15.225
  983TIP3    H124440   2.385   3.794  15.307
  983TIP3    H224441   2.496   3.828  15.210
  984TIP3   OH224442   5.490   2.518   3.922
  984TIP3    H124443   5.507   2.612   3.909
  984TIP3    H224444   5.546   2.493   3.995
  985TIP3   OH224445   4.641   6.683   0.460
  985TIP3    H124446   4.637   6.673   0.555
  985TIP3    H224447   4.684   6.767   0.446
  986TIP3   OH224448   5.084   5.678  11.213
  986TIP3    H124449   5.089   5.703  11.121
  986TIP3    H224450   5.165   5.711  11.252
  987TIP3   OH224451   5.759   4.087  14.158
  987TIP3    H124452   5.762   4.031  14.080
  987TIP3    H224453   5.850   4.097  14.184
  988TIP3   OH224454   2.417   4.757   3.929
  988TIP3    H124455   2.378   4.788   4.011
  988TIP3    H224456   2.510   4.778   3.938
  989TIP3   OH224457   4.653   6.635  12.054
  989TIP3    H124458   4.679   6.686  12.130
  989TIP3    H224459   4.707   6.670  11.982
  990TIP3   OH224460   6.669   3.392   2.071
  990TIP3    H124461   6.727   3.398   2.147
  990TIP3    H224462   6.729   3.383   1.997
  991TIP3   OH224463   5.077   4.332  15.809
  991TIP3    H124464   4.986   4.359  15.793
  991TIP3    H224465   5.099   4.276  15.734
  992TIP3   OH224466   0.683   3.859  17.107
  992TIP3    H124467   0.698   3.782  17.053
  992TIP3    H224468   0.588   3.870  17.109
  993TIP3   OH224469   4.435   0.102  14.491
  993TIP3    H124470   4.392   0.185  14.468
  993TIP3    H224471   4.506   0.093  14.427
  994TIP3   OH224472   6.641   5.529   1.003
  994TIP3    H124473   6.553   5.557   0.976
  994TIP3    H224474   6.690   5.610   1.012
  995TIP3   OH224475   5.495   5.706  13.230
  995TIP3    H124476   5.578   5.677  13.192
  995TIP3    H224477   5.519   5.748  13.312
  996TIP3   OH224478   4.893   0.565   4.692
  996TIP3    H124479   4.813   0.597   4.733
  996TIP3    H224480   4.914   0.485   4.741
  997TIP3   OH224481   5.358   5.923   5.589
  997TIP3    H124482   5.398   5.963   5.513
  997TIP3    H224483   5.267   5.952   5.587
  998TIP3   OH224484   6.347   0.867   0.798
  998TIP3    H124485   6.340   0.836   0.707
  998TIP3    H224486   6.260   0.852   0.835
  999TIP3   OH224487   1.901   1.406  12.885
  999TIP3    H124488   1.922   1.497  12.904
  999TIP3    H224489   1.978   1.356  12.914
 1000TIP3   OH224490   5.557   2.043  16.150
 1000TIP3    H124491   5.475   2.061  16.196
 1000TIP3    H224492   5.581   2.127  16.110
 1001TIP3   OH224493   4.876   5.689  16.098
 1001TIP3    H124494   4.969   5.688  16.123
 1001TIP3    H224495   4.842   5.605  16.127
 1002TIP3   OH224496   5.100   0.068  17.215
 1002TIP3    H124497   5.195   0.075  17.205
 1002TIP3    H224498   5.085  -0.024  17.236
 1003TIP3   OH224499   0.234   5.060   2.363
 1003TIP3    H124500   0.145   5.077   2.393
 1003TIP3    H224501   0.228   5.062   2.267
 1004TIP3   OH224502   5.633   5.026  10.923
 1004TIP3    H124503   5.558   4.973  10.897
 1004TIP3    H224504   5.701   4.962  10.944
 1005TIP3   OH224505   3.064   3.928   2.052
 1005TIP3    H124506   3.101   3.995   1.995
 1005TIP3    H224507   3.139   3.874   2.077
 1006TIP3   OH224508   6.216   0.572   6.144
 1006TIP3    H124509   6.181   0.660   6.158
 1006TIP3    H224510   6.311   0.581   6.154
 1007TIP3   OH224511   4.079   6.611  16.831
 1007TIP3    H124512   4.005   6.650  16.785
 1007TIP3    H224513   4.080   6.655  16.916
 1008TIP3   OH224514   0.007   0.587   4.811
 1008TIP3    H124515  -0.052   0.657   4.838
 1008TIP3    H224516   0.080   0.592   4.873
 1009TIP3   OH224517   2.992   5.908  15.974
 1009TIP3    H124518   3.022   5.967  15.905
 1009TIP3    H224519   3.071   5.888  16.025
 1010TIP3   OH224520   3.199   0.704  12.825
 1010TIP3    H124521   3.267   0.672  12.766
 1010TIP3    H224522   3.128   0.641  12.816
 1011TIP3   OH224523   5.696   5.650   4.801
 1011TIP3    H124524   5.749   5.719   4.840
 1011TIP3    H224525   5.640   5.695   4.738
 1012TIP3   OH224526   0.502   2.861  14.189
 1012TIP3    H124527   0.492   2.772  14.157
 1012TIP3    H224528   0.572   2.856  14.254
 1013TIP3   OH224529   2.760   3.268  16.973
 1013TIP3    H124530   2.689   3.250  17.035
 1013TIP3    H224531   2.721   3.251  16.887
 1014TIP3   OH224532   5.459   3.063   3.289
 1014TIP3    H124533   5.540   3.047   3.338
 1014TIP3    H224534   5.411   2.981   3.294
 1015TIP3   OH224535   4.226   5.830   1.163
 1015TIP3    H124536   4.244   5.910   1.114
 1015TIP3    H224537   4.248   5.852   1.254
 1016TIP3   OH224538   0.118   6.702   0.367
 1016TIP3    H124539   0.081   6.669   0.449
 1016TIP3    H224540   0.058   6.671   0.300
 1017TIP3   OH224541   4.790   5.558  12.029
 1017TIP3    H124542   4.729   5.614  11.982
 1017TIP3    H224543   4.876   5.594  12.009
 1018TIP3   OH224544   4.578   0.588   0.344
 1018TIP3    H124545   4.545   0.528   0.411
 1018TIP3    H224546   4.518   0.577   0.270
 1019TIP3   OH224547   6.089   4.557   1.237
 1019TIP3    H124548   6.161   4.494   1.242
 1019TIP3    H224549   6.047   4.552   1.323
 1020TIP3   OH224550   6.289   2.649   3.333
 1020TIP3    H124551   6.289   2.679   3.424
 1020TIP3    H224552   6.226   2.706   3.289
 1021TIP3   OH224553   3.385   5.341  13.635
 1021TIP3    H124554   3.437   5.401  13.581
 1021TIP3    H224555   3.296   5.375  13.628
 1022TIP3   OH224556   3.569   2.572  15.012
 1022TIP3    H124557   3.532   2.659  15.028
 1022TIP3    H224558   3.559   2.559  14.917
 1023TIP3   OH224559   1.709   1.039  13.055
 1023TIP3    H124560   1.796   1.049  13.095
 1023TIP3    H224561   1.671   0.964  13.102
 1024TIP3   OH224562   0.039   1.262   4.072
 1024TIP3    H124563   0.114   1.203   4.061
 1024TIP3    H224564   0.030   1.305   3.987
 1025TIP3   OH224565   5.162   4.330  12.625
 1025TIP3    H124566   5.124   4.407  12.666
 1025TIP3    H224567   5.200   4.362  12.543
 1026TIP3   OH224568   5.557   4.856   3.307
 1026TIP3    H124569   5.640   4.832   3.350
 1026TIP3    H224570   5.577   4.937   3.261
 1027TIP3   OH224571   2.250   5.189  16.002
 1027TIP3    H124572   2.317   5.140  16.050
 1027TIP3    H224573   2.300   5.238  15.936
 1028TIP3   OH224574   4.580   1.217   0.006
 1028TIP3    H124575   4.661   1.176   0.034
 1028TIP3    H224576   4.521   1.144  -0.012
 1029TIP3   OH224577   5.696   2.285  11.972
 1029TIP3    H124578   5.739   2.208  12.008
 1029TIP3    H224579   5.761   2.355  11.981
 1030TIP3   OH224580   3.088   0.733   4.058
 1030TIP3    H124581   3.149   0.802   4.084
 1030TIP3    H224582   3.024   0.778   4.004
 1031TIP3   OH224583   6.547   2.068   5.464
 1031TIP3    H124584   6.616   2.082   5.400
 1031TIP3    H224585   6.521   1.976   5.452
 1032TIP3   OH224586   0.774   0.757   2.475
 1032TIP3    H124587   0.716   0.834   2.476
 1032TIP3    H224588   0.723   0.689   2.518
 1033TIP3   OH224589   1.779   0.123   3.973
 1033TIP3    H124590   1.829   0.042   3.985
 1033TIP3    H224591   1.833   0.191   4.013
 1034TIP3   OH224592   1.657   3.739  10.890
 1034TIP3    H124593   1.582   3.798  10.882
 1034TIP3    H224594   1.725   3.793  10.931
 1035TIP3   OH224595   1.625   1.060   0.893
 1035TIP3    H124596   1.666   0.981   0.859
 1035TIP3    H224597   1.562   1.085   0.825
 1036TIP3   OH224598   3.180   0.653   4.528
 1036TIP3    H124599   3.115   0.687   4.589
 1036TIP3    H224600   3.134   0.649   4.444
 1037TIP3   OH224601   1.139   3.625  15.024
 1037TIP3    H124602   1.072   3.676  14.980
 1037TIP3    H224603   1.222   3.665  14.995
 1038TIP3   OH224604   5.323   6.012  12.160
 1038TIP3    H124605   5.390   6.079  12.175
 1038TIP3    H224606   5.312   5.970  12.246
 1039TIP3   OH224607   0.482   3.173   5.502
 1039TIP3    H124608   0.414   3.111   5.528
 1039TIP3    H224609   0.491   3.231   5.578
 1040TIP3   OH224610   4.766   1.693   1.866
 1040TIP3    H124611   4.743   1.621   1.808
 1040TIP3    H224612   4.859   1.679   1.887
 1041TIP3   OH224613   5.124   6.532  11.875
 1041TIP3    H124614   5.150   6.442  11.854
 1041TIP3    H224615   5.153   6.545  11.965
 1042TIP3   OH224616   5.999   0.368  10.915
 1042TIP3    H124617   5.975   0.454  10.881
 1042TIP3    H224618   6.015   0.384  11.009
 1043TIP3   OH224619   3.364   2.686   1.522
 1043TIP3    H124620   3.347   2.698   1.428
 1043TIP3    H224621   3.455   2.657   1.527
 1044TIP3   OH224622   1.086   4.420   1.563
 1044TIP3    H124623   1.029   4.448   1.635
 1044TIP3    H224624   1.027   4.407   1.489
 1045TIP3   OH224625   2.363   2.216  12.382
 1045TIP3    H124626   2.292   2.273  12.353
 1045TIP3    H224627   2.323   2.129  12.388
 1046TIP3   OH224628   3.979   0.370  17.173
 1046TIP3    H124629   3.887   0.394  17.180
 1046TIP3    H224630   3.978   0.277  17.151
 1047TIP3   OH224631   0.891   5.689   5.260
 1047TIP3    H124632   0.909   5.624   5.327
 1047TIP3    H224633   0.967   5.687   5.202
 1048TIP3   OH224634   0.644   5.700   3.819
 1048TIP3    H124635   0.701   5.692   3.743
 1048TIP3    H224636   0.556   5.698   3.784
 1049TIP3   OH224637   4.161   0.292   1.543
 1049TIP3    H124638   4.115   0.215   1.509
 1049TIP3    H224639   4.222   0.316   1.474
 1050TIP3   OH224640   6.714   1.765  14.711
 1050TIP3    H124641   6.696   1.740  14.802
 1050TIP3    H224642   6.805   1.795  14.712
 1051TIP3   OH224643   4.086   3.684   4.799
 1051TIP3    H124644   4.095   3.659   4.891
 1051TIP3    H224645   4.063   3.777   4.802
 1052TIP3   OH224646   3.252   2.198  12.688
 1052TIP3    H124647   3.289   2.149  12.614
 1052TIP3    H224648   3.319   2.192  12.756
 1053TIP3   OH224649   2.636   5.752  17.021
 1053TIP3    H124650   2.579   5.820  16.985
 1053TIP3    H224651   2.682   5.716  16.944
 1054TIP3   OH224652   3.675   1.124  12.377
 1054TIP3    H124653   3.745   1.061  12.394
 1054TIP3    H224654   3.718   1.192  12.325
 1055TIP3   OH224655   0.184   6.652   4.235
 1055TIP3    H124656   0.234   6.597   4.296
 1055TIP3    H224657   0.101   6.607   4.224
 1056TIP3   OH224658   6.186   3.536  14.726
 1056TIP3    H124659   6.239   3.457  14.728
 1056TIP3    H224660   6.209   3.583  14.806
 1057TIP3   OH224661   1.603   0.047  15.398
 1057TIP3    H124662   1.539  -0.024  15.392
 1057TIP3    H224663   1.688   0.004  15.394
 1058TIP3   OH224664   6.777   5.752   4.450
 1058TIP3    H124665   6.711   5.683   4.441
 1058TIP3    H224666   6.840   5.735   4.380
 1059TIP3   OH224667   4.510   1.442  12.046
 1059TIP3    H124668   4.603   1.444  12.066
 1059TIP3    H224669   4.497   1.359  12.000
 1060TIP3   OH224670   1.415   1.915   4.840
 1060TIP3    H124671   1.425   1.909   4.935
 1060TIP3    H224672   1.467   1.842   4.806
 1061TIP3   OH224673   4.764   4.219  12.732
 1061TIP3    H124674   4.702   4.245  12.664
 1061TIP3    H224675   4.716   4.231  12.814
 1062TIP3   OH224676   5.625   1.688   4.075
 1062TIP3    H124677   5.559   1.754   4.098
 1062TIP3    H224678   5.605   1.664   3.985
 1063TIP3   OH224679   4.029   6.688   5.137
 1063TIP3    H124680   4.070   6.705   5.053
 1063TIP3    H224681   4.102   6.667   5.196
 1064TIP3   OH224682   3.634   0.666  12.272
 1064TIP3    H124683   3.686   0.718  12.334
 1064TIP3    H224684   3.682   0.583  12.264
 1065TIP3   OH224685   5.855   1.426   3.540
 1065TIP3    H124686   5.765   1.404   3.565
 1065TIP3    H224687   5.850   1.446   3.447
 1066TIP3   OH224688   4.613   6.008   2.074
 1066TIP3    H124689   4.666   6.088   2.073
 1066TIP3    H224690   4.677   5.937   2.081
 1067TIP3   OH224691   6.707   0.691   6.596
 1067TIP3    H124692   6.745   0.706   6.510
 1067TIP3    H224693   6.642   0.622   6.582
 1068TIP3   OH224694   0.017   0.987  13.806
 1068TIP3    H124695   0.043   0.923  13.740
 1068TIP3    H224696  -0.076   1.002  13.790
 1069TIP3   OH224697   2.740   0.226   2.579
 1069TIP3    H124698   2.683   0.297   2.609
 1069TIP3    H224699   2.820   0.271   2.550
 1070TIP3   OH224700   3.843   3.881   6.653
 1070TIP3    H124701   3.914   3.828   6.691
 1070TIP3    H224702   3.878   3.911   6.569
 1071TIP3   OH224703   3.517   2.218   4.763
 1071TIP3    H124704   3.559   2.195   4.681
 1071TIP3    H224705   3.438   2.267   4.738
 1072TIP3   OH224706   4.682   1.334   3.493
 1072TIP3    H124707   4.612   1.316   3.555
 1072TIP3    H224708   4.642   1.321   3.407
 1073TIP3   OH224709   2.034   3.321   4.487
 1073TIP3    H124710   1.947   3.318   4.528
 1073TIP3    H224711   2.094   3.335   4.560
 1074TIP3   OH224712   5.039   6.124  16.722
 1074TIP3    H124713   5.099   6.114  16.647
 1074TIP3    H224714   5.094   6.160  16.791
 1075TIP3   OH224715   2.397   5.741  14.576
 1075TIP3    H124716   2.369   5.757  14.486
 1075TIP3    H224717   2.321   5.764  14.629
 1076TIP3   OH224718   0.078   3.117  16.820
 1076TIP3    H124719   0.132   3.117  16.899
 1076TIP3    H224720   0.104   3.037  16.774
 1077TIP3   OH224721   1.784   6.691  17.133
 1077TIP3    H124722   1.857   6.749  17.156
 1077TIP3    H224723   1.798   6.671  17.041
 1078TIP3   OH224724   5.372   1.141   5.395
 1078TIP3    H124725   5.415   1.086   5.330
 1078TIP3    H224726   5.313   1.081   5.441
 1079TIP3   OH224727   5.131   1.546   3.549
 1079TIP3    H124728   5.082   1.620   3.512
 1079TIP3    H224729   5.067   1.474   3.550
 1080TIP3   OH224730   3.803   6.694   0.078
 1080TIP3    H124731   3.794   6.766   0.140
 1080TIP3    H224732   3.844   6.624   0.128
 1081TIP3   OH224733   4.346   0.700   1.404
 1081TIP3    H124734   4.335   0.703   1.499
 1081TIP3    H224735   4.407   0.772   1.385
 1082TIP3   OH224736   5.236   2.639  13.369
 1082TIP3    H124737   5.284   2.696  13.429
 1082TIP3    H224738   5.215   2.561  13.421
 1083TIP3   OH224739   1.351   1.176   5.022
 1083TIP3    H124740   1.295   1.187   4.944
 1083TIP3    H224741   1.396   1.260   5.030
 1084TIP3   OH224742   5.352   3.891   0.205
 1084TIP3    H124743   5.305   3.972   0.228
 1084TIP3    H224744   5.411   3.918   0.135
 1085TIP3   OH224745   0.429   0.999  13.073
 1085TIP3    H124746   0.363   1.033  13.012
 1085TIP3    H224747   0.389   0.920  13.109
 1086TIP3   OH224748   1.828   4.636  16.371
 1086TIP3    H124749   1.803   4.711  16.317
 1086TIP3    H224750   1.844   4.673  16.458
 1087TIP3   OH224751   2.680   1.531   1.102
 1087TIP3    H124752   2.703   1.613   1.146
 1087TIP3    H224753   2.763   1.496   1.072
 1088TIP3   OH224754   0.331   4.594  15.780
 1088TIP3    H124755   0.322   4.504  15.748
 1088TIP3    H224756   0.425   4.606  15.793
 1089TIP3   OH224757   1.062   0.214  13.919
 1089TIP3    H124758   1.015   0.138  13.952
 1089TIP3    H224759   1.003   0.252  13.853
 1090TIP3   OH224760   6.803   6.296   1.952
 1090TIP3    H124761   6.744   6.262   1.885
 1090TIP3    H224762   6.745   6.331   2.019
 1091TIP3   OH224763   3.965   2.450   1.799
 1091TIP3    H124764   3.943   2.504   1.724
 1091TIP3    H224765   3.932   2.363   1.778
 1092TIP3   OH224766   3.695   2.152  12.225
 1092TIP3    H124767   3.644   2.175  12.147
 1092TIP3    H224768   3.720   2.235  12.263
 1093TIP3   OH224769   3.607   4.751   0.212
 1093TIP3    H124770   3.551   4.815   0.257
 1093TIP3    H224771   3.690   4.797   0.198
 1094TIP3   OH224772   4.922   2.243  14.723
 1094TIP3    H124773   4.979   2.168  14.706
 1094TIP3    H224774   4.849   2.233  14.663
 1095TIP3   OH224775   5.319   6.795   1.028
 1095TIP3    H124776   5.368   6.751   1.098
 1095TIP3    H224777   5.267   6.726   0.988
 1096TIP3   OH224778   2.033   3.292  14.257
 1096TIP3    H124779   1.951   3.324  14.220
 1096TIP3    H224780   2.006   3.225  14.320
 1097TIP3   OH224781   6.742   2.714  14.477
 1097TIP3    H124782   6.685   2.781  14.515
 1097TIP3    H224783   6.691   2.675  14.407
 1098TIP3   OH224784   2.217   3.713  13.788
 1098TIP3    H124785   2.174   3.798  13.780
 1098TIP3    H224786   2.175   3.672  13.863
 1099TIP3   OH224787   5.460   3.407  11.706
 1099TIP3    H124788   5.451   3.313  11.724
 1099TIP3    H224789   5.553   3.424  11.716
 1100TIP3   OH224790   3.193   2.010   5.195
 1100TIP3    H124791   3.109   2.043   5.164
 1100TIP3    H224792   3.185   1.914   5.189
 1101TIP3   OH224793   3.648   1.203   5.871
 1101TIP3    H124794   3.644   1.281   5.926
 1101TIP3    H224795   3.653   1.237   5.782
 1102TIP3   OH224796   0.819   6.056   0.986
 1102TIP3    H124797   0.851   5.975   0.947
 1102TIP3    H224798   0.794   6.111   0.912
 1103TIP3   OH224799   2.132   2.181   0.721
 1103TIP3    H124800   2.190   2.257   0.732
 1103TIP3    H224801   2.192   2.107   0.708
 1104TIP3   OH224802   2.208   4.993   2.430
 1104TIP3    H124803   2.221   5.064   2.367
 1104TIP3    H224804   2.183   5.036   2.512
 1105TIP3   OH224805   5.782   2.669   1.244
 1105TIP3    H124806   5.874   2.689   1.262
 1105TIP3    H224807   5.735   2.747   1.274
 1106TIP3   OH224808   6.484   3.050  16.971
 1106TIP3    H124809   6.545   3.030  17.042
 1106TIP3    H224810   6.540   3.066  16.895
 1107TIP3   OH224811   4.995   2.520   4.992
 1107TIP3    H124812   5.001   2.587   4.924
 1107TIP3    H224813   4.906   2.485   4.984
 1108TIP3   OH224814   1.140   4.821  11.566
 1108TIP3    H124815   1.210   4.826  11.631
 1108TIP3    H224816   1.109   4.911  11.556
 1109TIP3   OH224817   5.897   0.610  15.528
 1109TIP3    H124818   5.884   0.535  15.586
 1109TIP3    H224819   5.963   0.663  15.572
 1110TIP3   OH224820   3.363   0.005  17.274
 1110TIP3    H124821   3.355   0.100  17.273
 1110TIP3    H224822   3.438  -0.014  17.218
 1111TIP3   OH224823   2.147   1.774   0.671
 1111TIP3    H124824   2.229   1.736   0.638
 1111TIP3    H224825   2.078   1.725   0.625
 1112TIP3   OH224826   6.132   5.819  16.100
 1112TIP3    H124827   6.116   5.799  16.192
 1112TIP3    H224828   6.137   5.734  16.057
 1113TIP3   OH224829   1.696   4.205   3.042
 1113TIP3    H124830   1.739   4.147   3.105
 1113TIP3    H224831   1.690   4.289   3.088
 1114TIP3   OH224832   4.968   2.091   1.910
 1114TIP3    H124833   4.954   2.050   1.825
 1114TIP3    H224834   4.898   2.056   1.966
 1115TIP3   OH224835   1.257   2.781   2.222
 1115TIP3    H124836   1.278   2.778   2.316
 1115TIP3    H224837   1.295   2.701   2.186
 1116TIP3   OH224838   6.618   6.111  14.938
 1116TIP3    H124839   6.592   6.043  15.000
 1116TIP3    H224840   6.585   6.081  14.854
 1117TIP3   OH224841   1.918   4.742  15.973
 1117TIP3    H124842   1.885   4.681  15.907
 1117TIP3    H224843   1.929   4.825  15.927
 1118TIP3   OH224844   3.264   0.269  14.176
 1118TIP3    H124845   3.264   0.363  14.162
 1118TIP3    H224846   3.175   0.241  14.155
 1119TIP3   OH224847   2.002   5.633   1.743
 1119TIP3    H124848   1.917   5.676   1.754
 1119TIP3    H224849   1.982   5.551   1.698
 1120TIP3   OH224850   5.753   3.255   4.691
 1120TIP3    H124851   5.725   3.334   4.735
 1120TIP3    H224852   5.821   3.284   4.630
 1121TIP3   OH224853   3.655   1.786   4.538
 1121TIP3    H124854   3.566   1.796   4.503
 1121TIP3    H224855   3.645   1.799   4.632
 1122TIP3   OH224856   2.972   6.459   3.205
 1122TIP3    H124857   2.894   6.513   3.212
 1122TIP3    H224858   2.974   6.408   3.286
 1123TIP3   OH224859   6.437   3.466  14.980
 1123TIP3    H124860   6.520   3.476  14.933
 1123TIP3    H224861   6.387   3.405  14.926
 1124TIP3   OH224862   3.918   2.264  15.987
 1124TIP3    H124863   3.855   2.328  15.953
 1124TIP3    H224864   3.894   2.255  16.080
 1125TIP3   OH224865   5.173   3.125   4.490
 1125TIP3    H124866   5.243   3.190   4.483
 1125TIP3    H224867   5.148   3.126   4.583
 1126TIP3   OH224868   6.456   1.296  14.631
 1126TIP3    H124869   6.376   1.252  14.602
 1126TIP3    H224870   6.488   1.340  14.553
 1127TIP3   OH224871   5.956   6.138   5.251
 1127TIP3    H124872   5.896   6.066   5.271
 1127TIP3    H224873   6.018   6.100   5.189
 1128TIP3   OH224874   1.067   3.105  13.723
 1128TIP3    H124875   1.119   3.183  13.743
 1128TIP3    H224876   0.977   3.136  13.720
 1129TIP3   OH224877   4.085   2.529   2.598
 1129TIP3    H124878   4.169   2.513   2.555
 1129TIP3    H224879   4.105   2.592   2.668
 1130TIP3   OH224880   4.510   4.485  15.123
 1130TIP3    H124881   4.590   4.446  15.088
 1130TIP3    H224882   4.439   4.435  15.082
 1131TIP3   OH224883   4.989   4.994  16.563
 1131TIP3    H124884   4.963   5.039  16.644
 1131TIP3    H224885   4.910   4.997  16.509
 1132TIP3   OH224886   0.851   0.302  13.760
 1132TIP3    H124887   0.793   0.368  13.721
 1132TIP3    H224888   0.797   0.255  13.823
 1133TIP3   OH224889   5.394   6.540  15.661
 1133TIP3    H124890   5.306   6.515  15.637
 1133TIP3    H224891   5.408   6.625  15.618
 1134TIP3   OH224892   1.765   2.128   1.863
 1134TIP3    H124893   1.858   2.148   1.850
 1134TIP3    H224894   1.720   2.180   1.796
 1135TIP3   OH224895   5.334   1.424   4.215
 1135TIP3    H124896   5.263   1.469   4.260
 1135TIP3    H224897   5.294   1.343   4.182
 1136TIP3   OH224898   0.364   0.002  16.707
 1136TIP3    H124899   0.439  -0.052  16.680
 1136TIP3    H224900   0.324   0.029  16.624
 1137TIP3   OH224901   3.031   2.731   0.359
 1137TIP3    H124902   2.951   2.763   0.318
 1137TIP3    H224903   3.076   2.683   0.288
 1138TIP3   OH224904   5.092   1.903  12.223
 1138TIP3    H124905   5.180   1.879  12.250
 1138TIP3    H224906   5.071   1.980  12.276
 1139TIP3   OH224907   3.894   2.273  14.625
 1139TIP3    H124908   3.832   2.202  14.610
 1139TIP3    H224909   3.930   2.291  14.538
 1140TIP3   OH224910   1.187   4.598   0.565
 1140TIP3    H124911   1.130   4.619   0.490
 1140TIP3    H224912   1.158   4.657   0.634
 1141TIP3   OH224913   5.938   4.222  14.518
 1141TIP3    H124914   5.853   4.201  14.557
 1141TIP3    H224915   5.994   4.149  14.542
 1142TIP3   OH224916   1.049   0.268   0.526
 1142TIP3    H124917   1.090   0.355   0.520
 1142TIP3    H224918   0.964   0.284   0.566
 1143TIP3   OH224919   1.563   4.126   5.830
 1143TIP3    H124920   1.567   4.116   5.734
 1143TIP3    H224921   1.655   4.139   5.856
 1144TIP3   OH224922   4.283   4.154  11.999
 1144TIP3    H124923   4.362   4.119  11.958
 1144TIP3    H224924   4.248   4.081  12.050
 1145TIP3   OH224925   0.339   0.441   4.242
 1145TIP3    H124926   0.293   0.380   4.299
 1145TIP3    H224927   0.288   0.521   4.246
 1146TIP3   OH224928   4.297   1.462  13.009
 1146TIP3    H124929   4.248   1.529  12.962
 1146TIP3    H224930   4.388   1.476  12.982
 1147TIP3   OH224931   2.641   3.051   4.648
 1147TIP3    H124932   2.617   2.964   4.618
 1147TIP3    H224933   2.728   3.066   4.611
 1148TIP3   OH224934   5.194   0.839  12.944
 1148TIP3    H124935   5.257   0.865  12.877
 1148TIP3    H224936   5.240   0.855  13.027
 1149TIP3   OH224937   6.033   5.054  12.542
 1149TIP3    H124938   6.057   4.967  12.576
 1149TIP3    H224939   6.037   5.044  12.447
 1150TIP3   OH224940   6.214   1.095  15.920
 1150TIP3    H124941   6.162   1.124  15.846
 1150TIP3    H224942   6.151   1.087  15.992
 1151TIP3   OH224943   6.034   5.140   3.875
 1151TIP3    H124944   6.050   5.046   3.868
 1151TIP3    H224945   6.093   5.169   3.944
 1152TIP3   OH224946   4.459   3.193  12.048
 1152TIP3    H124947   4.374   3.158  12.024
 1152TIP3    H224948   4.466   3.275  11.999
 1153TIP3   OH224949   1.566   6.533   1.768
 1153TIP3    H124950   1.594   6.476   1.696
 1153TIP3    H224951   1.541   6.472   1.838
 1154TIP3   OH224952   3.411   1.972  14.225
 1154TIP3    H124953   3.503   1.974  14.198
 1154TIP3    H224954   3.386   1.880  14.218
 1155TIP3   OH224955   5.980   1.081   0.822
 1155TIP3    H124956   5.984   0.990   0.791
 1155TIP3    H224957   5.887   1.104   0.818
 1156TIP3   OH224958   0.509   5.981   0.741
 1156TIP3    H124959   0.444   5.912   0.754
 1156TIP3    H224960   0.588   5.935   0.714
 1157TIP3   OH224961   0.015   6.119  13.524
 1157TIP3    H124962   0.014   6.039  13.471
 1157TIP3    H224963  -0.040   6.097  13.600
 1158TIP3   OH224964   4.224   0.177   1.091
 1158TIP3    H124965   4.191   0.096   1.131
 1158TIP3    H224966   4.145   0.227   1.071
 1159TIP3   OH224967   5.464   4.637   2.804
 1159TIP3    H124968   5.438   4.655   2.894
 1159TIP3    H224969   5.386   4.598   2.764
 1160TIP3   OH224970   5.744   5.543  14.623
 1160TIP3    H124971   5.780   5.613  14.569
 1160TIP3    H224972   5.706   5.588  14.698
 1161TIP3   OH224973   1.860   6.305  15.283
 1161TIP3    H124974   1.834   6.216  15.259
 1161TIP3    H224975   1.778   6.352  15.295
 1162TIP3   OH224976   3.391   6.763   6.070
 1162TIP3    H124977   3.299   6.745   6.088
 1162TIP3    H224978   3.439   6.711   6.134
 1163TIP3   OH224979   2.431   4.107  13.577
 1163TIP3    H124980   2.371   4.049  13.530
 1163TIP3    H224981   2.518   4.074  13.556
 1164TIP3   OH224982   2.649   2.644   1.076
 1164TIP3    H124983   2.608   2.669   0.994
 1164TIP3    H224984   2.595   2.686   1.144
 1165TIP3   OH224985   0.827   4.957  13.418
 1165TIP3    H124986   0.801   4.897  13.488
 1165TIP3    H224987   0.822   5.044  13.458
 1166TIP3   OH224988   3.667   0.917   1.171
 1166TIP3    H124989   3.572   0.916   1.163
 1166TIP3    H224990   3.692   0.824   1.179
 1167TIP3   OH224991   1.340   3.514   2.225
 1167TIP3    H124992   1.369   3.519   2.316
 1167TIP3    H224993   1.372   3.594   2.184
 1168TIP3   OH224994   0.616   6.490   6.139
 1168TIP3    H124995   0.680   6.443   6.191
 1168TIP3    H224996   0.666   6.558   6.094
 1169TIP3   OH224997   4.261   6.603  12.692
 1169TIP3    H124998   4.203   6.594  12.616
 1169TIP3    H224999   4.288   6.695  12.690
 1170TIP3   OH225000   2.613   1.339   4.467
 1170TIP3    H125001   2.689   1.394   4.488
 1170TIP3    H225002   2.561   1.338   4.548
 1171TIP3   OH225003   5.105   2.629  11.456
 1171TIP3    H125004   5.066   2.580  11.527
 1171TIP3    H225005   5.194   2.650  11.487
 1172TIP3   OH225006   1.307   3.149  12.343
 1172TIP3    H125007   1.330   3.205  12.418
 1172TIP3    H225008   1.385   3.095  12.330
 1173TIP3   OH225009   0.360   4.738  15.018
 1173TIP3    H125010   0.393   4.654  15.049
 1173TIP3    H225011   0.419   4.762  14.947
 1174TIP3   OH225012   4.749   1.587  14.290
 1174TIP3    H125013   4.782   1.659  14.236
 1174TIP3    H225014   4.734   1.516  14.228
 1175TIP3   OH225015   4.177   0.771   0.220
 1175TIP3    H125016   4.167   0.682   0.187
 1175TIP3    H225017   4.105   0.781   0.283
 1176TIP3   OH225018   6.725   6.133  16.025
 1176TIP3    H125019   6.645   6.108  15.979
 1176TIP3    H225020   6.695   6.166  16.110
 1177TIP3   OH225021   3.106   5.190  16.497
 1177TIP3    H125022   3.135   5.280  16.480
 1177TIP3    H225023   3.047   5.171  16.425
 1178TIP3   OH225024   2.539   5.271  12.439
 1178TIP3    H125025   2.536   5.245  12.532
 1178TIP3    H225026   2.587   5.201  12.396
 1179TIP3   OH225027   4.034   0.535  15.892
 1179TIP3    H125028   3.997   0.617  15.859
 1179TIP3    H225029   4.085   0.560  15.968
 1180TIP3   OH225030   2.702   4.918   0.674
 1180TIP3    H125031   2.611   4.928   0.700
 1180TIP3    H225032   2.731   5.006   0.651
 1181TIP3   OH225033   6.055   1.234  13.296
 1181TIP3    H125034   6.127   1.178  13.328
 1181TIP3    H225035   6.070   1.319  13.338
 1182TIP3   OH225036   4.630   3.787  14.927
 1182TIP3    H125037   4.554   3.749  14.970
 1182TIP3    H225038   4.594   3.835  14.852
 1183TIP3   OH225039   5.994   1.333   3.301
 1183TIP3    H125040   6.036   1.395   3.362
 1183TIP3    H225041   6.066   1.293   3.254
 1184TIP3   OH225042   2.882   4.664   4.119
 1184TIP3    H125043   2.972   4.644   4.093
 1184TIP3    H225044   2.872   4.622   4.205
 1185TIP3   OH225045   4.395   4.003  14.083
 1185TIP3    H125046   4.356   4.066  14.144
 1185TIP3    H225047   4.322   3.971  14.031
 1186TIP3   OH225048   4.921   1.531  12.613
 1186TIP3    H125049   4.877   1.447  12.622
 1186TIP3    H225050   4.852   1.591  12.584
 1187TIP3   OH225051   5.208   4.862   2.731
 1187TIP3    H125052   5.206   4.844   2.825
 1187TIP3    H225053   5.159   4.943   2.721
 1188TIP3   OH225054   1.423   6.481  11.906
 1188TIP3    H125055   1.494   6.440  11.955
 1188TIP3    H225056   1.410   6.423  11.831
 1189TIP3   OH225057   0.873   3.506   2.862
 1189TIP3    H125058   0.914   3.442   2.804
 1189TIP3    H225059   0.938   3.522   2.930
 1190TIP3   OH225060   2.848   6.268   4.796
 1190TIP3    H125061   2.935   6.271   4.756
 1190TIP3    H225062   2.797   6.331   4.747
 1191TIP3   OH225063   6.442   6.707   1.035
 1191TIP3    H125064   6.350   6.716   1.010
 1191TIP3    H225065   6.440   6.704   1.131
 1192TIP3   OH225066   4.439   4.412  11.148
 1192TIP3    H125067   4.469   4.439  11.061
 1192TIP3    H225068   4.512   4.361  11.183
 1193TIP3   OH225069   5.176   1.940   0.503
 1193TIP3    H125070   5.223   1.859   0.481
 1193TIP3    H225071   5.246   2.004   0.516
 1194TIP3   OH225072   2.626   6.800   2.662
 1194TIP3    H125073   2.667   6.881   2.631
 1194TIP3    H225074   2.696   6.754   2.707
 1195TIP3   OH225075   2.212   3.145  16.140
 1195TIP3    H125076   2.181   3.105  16.221
 1195TIP3    H225077   2.150   3.116  16.073
 1196TIP3   OH225078   4.308   0.963   3.600
 1196TIP3    H125079   4.244   0.968   3.671
 1196TIP3    H225080   4.302   1.048   3.556
 1197TIP3   OH225081   5.758   2.804  12.530
 1197TIP3    H125082   5.843   2.759  12.534
 1197TIP3    H225083   5.728   2.788  12.440
 1198TIP3   OH225084   5.702   2.324   4.029
 1198TIP3    H125085   5.788   2.360   4.051
 1198TIP3    H225086   5.720   2.261   3.959
 1199TIP3   OH225087   0.665   0.724   1.891
 1199TIP3    H125088   0.701   0.638   1.869
 1199TIP3    H225089   0.706   0.746   1.975
 1200TIP3   OH225090   6.331   6.632   6.132
 1200TIP3    H125091   6.243   6.660   6.160
 1200TIP3    H225092   6.344   6.548   6.175
 1201TIP3   OH225093   5.475   4.672   3.530
 1201TIP3    H125094   5.420   4.669   3.452
 1201TIP3    H225095   5.547   4.611   3.512
 1202TIP3   OH225096   1.821   0.169  14.574
 1202TIP3    H125097   1.854   0.084  14.601
 1202TIP3    H225098   1.823   0.222  14.654
 1203TIP3   OH225099   3.113   5.746   1.104
 1203TIP3    H125100   3.089   5.707   1.019
 1203TIP3    H225101   3.046   5.715   1.164
 1204TIP3   OH225102   2.631   0.115  17.205
 1204TIP3    H125103   2.589   0.172  17.142
 1204TIP3    H225104   2.567   0.046  17.222
 1205TIP3   OH225105   6.585   3.221  16.075
 1205TIP3    H125106   6.523   3.290  16.098
 1205TIP3    H225107   6.666   3.246  16.120
 1206TIP3   OH225108   2.974   0.591   4.320
 1206TIP3    H125109   2.905   0.527   4.303
 1206TIP3    H225110   2.993   0.629   4.234
 1207TIP3   OH225111   4.467   4.959  15.042
 1207TIP3    H125112   4.407   5.030  15.021
 1207TIP3    H225113   4.554   4.996  15.027
 1208TIP3   OH225114   2.293   6.732   4.913
 1208TIP3    H125115   2.365   6.771   4.863
 1208TIP3    H225116   2.336   6.686   4.984
 1209TIP3   OH225117   0.638   0.781   3.454
 1209TIP3    H125118   0.652   0.821   3.540
 1209TIP3    H225119   0.713   0.723   3.442
 1210TIP3   OH225120   3.729   3.659  13.786
 1210TIP3    H125121   3.650   3.688  13.741
 1210TIP3    H225122   3.792   3.643  13.715
 1211TIP3   OH225123   6.310   4.532   3.193
 1211TIP3    H125124   6.382   4.575   3.148
 1211TIP3    H225125   6.274   4.472   3.128
 1212TIP3   OH225126   0.407   2.842   0.227
 1212TIP3    H125127   0.328   2.883   0.261
 1212TIP3    H225128   0.429   2.775   0.292
 1213TIP3   OH225129   2.799   0.395  16.830
 1213TIP3    H125130   2.725   0.449  16.856
 1213TIP3    H225131   2.772   0.355  16.747
 1214TIP3   OH225132   3.577   1.890   0.637
 1214TIP3    H125133   3.527   1.966   0.607
 1214TIP3    H225134   3.556   1.821   0.574
 1215TIP3   OH225135   2.688   4.399   5.981
 1215TIP3    H125136   2.696   4.377   6.074
 1215TIP3    H225137   2.690   4.494   5.978
 1216TIP3   OH225138   1.451   0.102   3.616
 1216TIP3    H125139   1.384   0.087   3.549
 1216TIP3    H225140   1.525   0.049   3.588
 1217TIP3   OH225141   5.048   1.898  10.225
 1217TIP3    H125142   5.053   1.804  10.207
 1217TIP3    H225143   5.069   1.905  10.318
 1218TIP3   OH225144   1.790   2.502  13.593
 1218TIP3    H125145   1.828   2.541  13.672
 1218TIP3    H225146   1.733   2.569  13.557
 1219TIP3   OH225147   3.043   0.992   6.834
 1219TIP3    H125148   2.995   0.940   6.898
 1219TIP3    H225149   3.129   1.006   6.873
 1220TIP3   OH225150   4.426   6.321   4.901
 1220TIP3    H125151   4.395   6.235   4.930
 1220TIP3    H225152   4.389   6.383   4.964
 1221TIP3   OH225153   4.168   2.867  14.273
 1221TIP3    H125154   4.229   2.938  14.254
 1221TIP3    H225155   4.199   2.830  14.356
 1222TIP3   OH225156   5.345   3.641  12.787
 1222TIP3    H125157   5.437   3.645  12.813
 1222TIP3    H225158   5.299   3.620  12.868
 1223TIP3   OH225159   5.723   0.735  13.743
 1223TIP3    H125160   5.731   0.640  13.738
 1223TIP3    H225161   5.744   0.766  13.655
 1224TIP3   OH225162   1.390   6.064  16.973
 1224TIP3    H125163   1.308   6.106  16.950
 1224TIP3    H225164   1.434   6.050  16.889
 1225TIP3   OH225165   6.728   2.797  13.404
 1225TIP3    H125166   6.771   2.848  13.336
 1225TIP3    H225167   6.639   2.833  13.409
 1226TIP3   OH225168   5.531   0.331  15.305
 1226TIP3    H125169   5.539   0.241  15.273
 1226TIP3    H225170   5.437   0.344  15.316
 1227TIP3   OH225171   4.126   2.032   0.216
 1227TIP3    H125172   4.199   1.973   0.200
 1227TIP3    H225173   4.057   2.003   0.157
 1228TIP3   OH225174   6.310   1.514  14.450
 1228TIP3    H125175   6.348   1.501  14.363
 1228TIP3    H225176   6.258   1.594  14.442
 1229TIP3   OH225177   4.090   3.849   1.731
 1229TIP3    H125178   4.056   3.938   1.721
 1229TIP3    H225179   4.034   3.810   1.798
 1230TIP3   OH225180   1.396   2.946   4.978
 1230TIP3    H125181   1.439   2.931   5.062
 1230TIP3    H225182   1.334   3.017   4.995
 1231TIP3   OH225183   4.838   1.529  12.237
 1231TIP3    H125184   4.821   1.560  12.326
 1231TIP3    H225185   4.866   1.607  12.189
 1232TIP3   OH225186   1.977   5.163   0.525
 1232TIP3    H125187   2.065   5.201   0.523
 1232TIP3    H225188   1.942   5.180   0.438
 1233TIP3   OH225189   2.581   4.320   3.038
 1233TIP3    H125190   2.603   4.231   3.065
 1233TIP3    H225191   2.616   4.375   3.107
 1234TIP3   OH225192   6.074   6.463   6.120
 1234TIP3    H125193   6.162   6.427   6.111
 1234TIP3    H225194   6.018   6.403   6.070
 1235TIP3   OH225195   3.191   1.366  17.104
 1235TIP3    H125196   3.161   1.360  17.195
 1235TIP3    H225197   3.286   1.355  17.110
 1236TIP3   OH225198   0.407   5.397  16.450
 1236TIP3    H125199   0.353   5.352  16.385
 1236TIP3    H225200   0.360   5.385  16.532
 1237TIP3   OH225201   0.126   4.482   4.079
 1237TIP3    H125202   0.132   4.386   4.072
 1237TIP3    H225203   0.097   4.510   3.992
 1238TIP3   OH225204   0.230   2.842  15.166
 1238TIP3    H125205   0.215   2.925  15.211
 1238TIP3    H225206   0.259   2.867  15.078
 1239TIP3   OH225207   1.174   3.736   0.511
 1239TIP3    H125208   1.266   3.722   0.487
 1239TIP3    H225209   1.176   3.745   0.607
 1240TIP3   OH225210   0.155   4.598  11.043
 1240TIP3    H125211   0.165   4.508  11.011
 1240TIP3    H225212   0.129   4.648  10.966
 1241TIP3   OH225213   5.574   0.800   5.445
 1241TIP3    H125214   5.619   0.854   5.379
 1241TIP3    H225215   5.614   0.825   5.528
 1242TIP3   OH225216   3.902   3.216  14.987
 1242TIP3    H125217   3.894   3.124  15.014
 1242TIP3    H225218   3.833   3.261  15.035
 1243TIP3   OH225219   4.091   1.104  14.850
 1243TIP3    H125220   4.133   1.186  14.825
 1243TIP3    H225221   4.096   1.103  14.945
 1244TIP3   OH225222   3.077   3.792   4.464
 1244TIP3    H125223   3.066   3.826   4.553
 1244TIP3    H225224   3.172   3.788   4.451
 1245TIP3   OH225225   1.027   2.205   0.839
 1245TIP3    H125226   0.979   2.124   0.856
 1245TIP3    H225227   0.968   2.274   0.868
 1246TIP3   OH225228   5.227   2.624   6.521
 1246TIP3    H125229   5.271   2.547   6.558
 1246TIP3    H225230   5.138   2.619   6.554
 1247TIP3   OH225231   2.706   3.577   4.003
 1247TIP3    H125232   2.617   3.540   3.997
 1247TIP3    H225233   2.693   3.663   4.043
 1248TIP3   OH225234   2.106   1.542   3.343
 1248TIP3    H125235   2.188   1.512   3.383
 1248TIP3    H225236   2.120   1.530   3.249
 1249TIP3   OH225237   5.153   4.894   4.868
 1249TIP3    H125238   5.148   4.948   4.947
 1249TIP3    H225239   5.244   4.863   4.866
 1250TIP3   OH225240   6.438   6.328  17.207
 1250TIP3    H125241   6.509   6.340  17.144
 1250TIP3    H225242   6.472   6.266  17.271
 1251TIP3   OH225243   4.600   4.595   4.415
 1251TIP3    H125244   4.534   4.651   4.374
 1251TIP3    H225245   4.573   4.506   4.395
 1252TIP3   OH225246   2.834   2.747   2.634
 1252TIP3    H125247   2.773   2.720   2.566
 1252TIP3    H225248   2.780   2.755   2.713
 1253TIP3   OH225249   5.692   0.923   5.984
 1253TIP3    H125250   5.691   0.878   6.068
 1253TIP3    H225251   5.705   1.015   6.006
 1254TIP3   OH225252   1.638   6.301  14.734
 1254TIP3    H125253   1.558   6.251  14.754
 1254TIP3    H225254   1.642   6.368  14.802
 1255TIP3   OH225255   3.844   3.801  14.841
 1255TIP3    H125256   3.767   3.857  14.843
 1255TIP3    H225257   3.888   3.817  14.925
 1256TIP3   OH225258   4.370   2.712   4.545
 1256TIP3    H125259   4.430   2.646   4.509
 1256TIP3    H225260   4.422   2.793   4.546
 1257TIP3   OH225261   1.297   4.964   0.733
 1257TIP3    H125262   1.267   4.965   0.642
 1257TIP3    H225263   1.383   5.006   0.731
 1258TIP3   OH225264   2.452   1.334   4.671
 1258TIP3    H125265   2.439   1.343   4.765
 1258TIP3    H225266   2.364   1.341   4.634
 1259TIP3   OH225267   1.265   2.524  11.175
 1259TIP3    H125268   1.251   2.454  11.239
 1259TIP3    H225269   1.286   2.601  11.227
 1260TIP3   OH225270   6.810   2.457  10.306
 1260TIP3    H125271   6.810   2.538  10.255
 1260TIP3    H225272   6.890   2.462  10.359
 1261TIP3   OH225273   4.185   1.717  15.343
 1261TIP3    H125274   4.226   1.799  15.316
 1261TIP3    H225275   4.094   1.740  15.360
 1262TIP3   OH225276   5.425   4.182   4.656
 1262TIP3    H125277   5.341   4.225   4.669
 1262TIP3    H225278   5.429   4.114   4.724
 1263TIP3   OH225279   4.585   3.624  17.143
 1263TIP3    H125280   4.667   3.632  17.191
 1263TIP3    H225281   4.562   3.531  17.150
 1264TIP3   OH225282   2.426   1.453  17.280
 1264TIP3    H125283   2.478   1.525  17.314
 1264TIP3    H225284   2.489   1.395  17.238
 1265TIP3   OH225285   5.486   4.410   1.512
 1265TIP3    H125286   5.409   4.384   1.462
 1265TIP3    H225287   5.559   4.363   1.470
 1266TIP3   OH225288   0.016   5.390   0.324
 1266TIP3    H125289   0.000   5.297   0.342
 1266TIP3    H225290   0.071   5.390   0.245
 1267TIP3   OH225291   1.655   3.774  11.398
 1267TIP3    H125292   1.634   3.844  11.335
 1267TIP3    H225293   1.699   3.707  11.345
 1268TIP3   OH225294   4.865   4.759   2.185
 1268TIP3    H125295   4.913   4.757   2.102
 1268TIP3    H225296   4.916   4.702   2.243
 1269TIP3   OH225297   3.600   3.339  15.708
 1269TIP3    H125298   3.571   3.301  15.791
 1269TIP3    H225299   3.565   3.280  15.642
 1270TIP3   OH225300   3.119   1.474  13.069
 1270TIP3    H125301   3.079   1.467  12.983
 1270TIP3    H225302   3.055   1.436  13.129
 1271TIP3   OH225303   0.999   3.658  12.716
 1271TIP3    H125304   0.991   3.740  12.668
 1271TIP3    H225305   0.911   3.639  12.746
 1272TIP3   OH225306   4.123   3.735   3.823
 1272TIP3    H125307   4.196   3.744   3.762
 1272TIP3    H225308   4.115   3.641   3.838
 1273TIP3   OH225309   5.421   5.918   5.132
 1273TIP3    H125310   5.502   5.936   5.085
 1273TIP3    H225311   5.434   5.832   5.172
 1274TIP3   OH225312   5.207   1.817  16.344
 1274TIP3    H125313   5.137   1.771  16.389
 1274TIP3    H225314   5.271   1.748  16.324
 1275TIP3   OH225315   1.659   2.968  11.228
 1275TIP3    H125316   1.650   3.038  11.162
 1275TIP3    H225317   1.751   2.944  11.225
 1276TIP3   OH225318   6.462   1.256   3.779
 1276TIP3    H125319   6.475   1.168   3.743
 1276TIP3    H225320   6.519   1.260   3.855
 1277TIP3   OH225321   0.144   0.686   0.613
 1277TIP3    H125322   0.063   0.634   0.613
 1277TIP3    H225323   0.214   0.621   0.604
 1278TIP3   OH225324   1.205   0.837  16.869
 1278TIP3    H125325   1.244   0.819  16.784
 1278TIP3    H225326   1.120   0.792  16.866
 1279TIP3   OH225327   3.201   2.175   4.357
 1279TIP3    H125328   3.183   2.126   4.277
 1279TIP3    H225329   3.243   2.255   4.327
 1280TIP3   OH225330   2.031   2.102  11.298
 1280TIP3    H125331   2.118   2.064  11.293
 1280TIP3    H225332   2.011   2.128  11.208
 1281TIP3   OH225333   5.760   5.604  16.211
 1281TIP3    H125334   5.808   5.684  16.192
 1281TIP3    H225335   5.825   5.534  16.201
 1282TIP3   OH225336   4.362   5.922   3.712
 1282TIP3    H125337   4.280   5.919   3.762
 1282TIP3    H225338   4.381   5.830   3.693
 1283TIP3   OH225339   0.148   5.836  11.221
 1283TIP3    H125340   0.157   5.744  11.246
 1283TIP3    H225341   0.223   5.853  11.164
 1284TIP3   OH225342   6.690   4.961  12.499
 1284TIP3    H125343   6.721   4.927  12.415
 1284TIP3    H225344   6.610   4.911  12.517
 1285TIP3   OH225345   5.817   5.513  15.320
 1285TIP3    H125346   5.848   5.429  15.353
 1285TIP3    H225347   5.770   5.552  15.393
 1286TIP3   OH225348   1.336   3.258  14.509
 1286TIP3    H125349   1.317   3.164  14.505
 1286TIP3    H225350   1.339   3.286  14.418
 1287TIP3   OH225351   6.504   5.183   0.618
 1287TIP3    H125352   6.486   5.257   0.560
 1287TIP3    H225353   6.590   5.151   0.590
 1288TIP3   OH225354   0.053   2.056   6.649
 1288TIP3    H125355   0.097   2.120   6.594
 1288TIP3    H225356   0.088   1.972   6.619
 1289TIP3   OH225357   6.616   4.483   4.787
 1289TIP3    H125358   6.627   4.574   4.812
 1289TIP3    H225359   6.636   4.481   4.693
 1290TIP3   OH225360   5.439   0.288   4.333
 1290TIP3    H125361   5.358   0.333   4.355
 1290TIP3    H225362   5.497   0.306   4.407
 1291TIP3   OH225363   0.754   5.239  14.470
 1291TIP3    H125364   0.719   5.199  14.550
 1291TIP3    H225365   0.846   5.256  14.490
 1292TIP3   OH225366   5.200   6.672   3.450
 1292TIP3    H125367   5.143   6.715   3.514
 1292TIP3    H225368   5.147   6.600   3.415
 1293TIP3   OH225369   3.604   0.654  13.165
 1293TIP3    H125370   3.569   0.673  13.252
 1293TIP3    H225371   3.527   0.640  13.111
 1294TIP3   OH225372   4.547   6.613   2.355
 1294TIP3    H125373   4.638   6.640   2.365
 1294TIP3    H225374   4.536   6.541   2.417
 1295TIP3   OH225375   2.361   2.663  15.546
 1295TIP3    H125376   2.418   2.611  15.489
 1295TIP3    H225377   2.287   2.604  15.565
 1296TIP3   OH225378   3.837   1.044  14.914
 1296TIP3    H125379   3.899   1.105  14.874
 1296TIP3    H225380   3.838   1.066  15.007
 1297TIP3   OH225381   5.408   2.255  15.548
 1297TIP3    H125382   5.494   2.285  15.577
 1297TIP3    H225383   5.403   2.165  15.580
 1298TIP3   OH225384   0.370   5.764   5.328
 1298TIP3    H125385   0.312   5.839   5.339
 1298TIP3    H225386   0.362   5.741   5.235
 1299TIP3   OH225387   4.090   2.866  11.651
 1299TIP3    H125388   4.048   2.781  11.638
 1299TIP3    H225389   4.179   2.854  11.618
 1300TIP3   OH225390   5.794   4.190  13.667
 1300TIP3    H125391   5.824   4.167  13.579
 1300TIP3    H225392   5.711   4.142  13.677
 1301TIP3   OH225393   5.403   4.317  11.626
 1301TIP3    H125394   5.436   4.383  11.565
 1301TIP3    H225395   5.481   4.266  11.650
 1302TIP3   OH225396   2.806   1.309   3.923
 1302TIP3    H125397   2.863   1.384   3.942
 1302TIP3    H225398   2.754   1.298   4.002
 1303TIP3   OH225399   5.153   3.623   3.455
 1303TIP3    H125400   5.218   3.691   3.474
 1303TIP3    H225401   5.118   3.599   3.541
 1304TIP3   OH225402   4.031   4.901  13.776
 1304TIP3    H125403   3.951   4.905  13.828
 1304TIP3    H225404   4.100   4.877  13.838
 1305TIP3   OH225405   3.510   5.838   0.476
 1305TIP3    H125406   3.544   5.897   0.409
 1305TIP3    H225407   3.418   5.826   0.453
 1306TIP3   OH225408   3.427   3.535  15.445
 1306TIP3    H125409   3.389   3.510  15.361
 1306TIP3    H225410   3.469   3.620  15.427
 1307TIP3   OH225411   4.528   5.863  15.188
 1307TIP3    H125412   4.472   5.939  15.200
 1307TIP3    H225413   4.613   5.891  15.223
 1308TIP3   OH225414   3.017   6.377  10.451
 1308TIP3    H125415   2.989   6.287  10.434
 1308TIP3    H225416   2.999   6.390  10.544
 1309TIP3   OH225417   2.444   4.739  13.299
 1309TIP3    H125418   2.491   4.656  13.306
 1309TIP3    H225419   2.513   4.804  13.290
 1310TIP3   OH225420   6.021   6.171  15.124
 1310TIP3    H125421   6.083   6.101  15.101
 1310TIP3    H225422   5.971   6.135  15.197
 1311TIP3   OH225423   5.859   0.102   0.991
 1311TIP3    H125424   5.834   0.015   1.021
 1311TIP3    H225425   5.777   0.143   0.964
 1312TIP3   OH225426   6.431   3.499  12.399
 1312TIP3    H125427   6.501   3.509  12.335
 1312TIP3    H225428   6.464   3.542  12.478
 1313TIP3   OH225429   2.558   3.520   4.531
 1313TIP3    H125430   2.591   3.483   4.613
 1313TIP3    H225431   2.489   3.580   4.557
 1314TIP3   OH225432   6.474   2.275   4.357
 1314TIP3    H125433   6.455   2.237   4.443
 1314TIP3    H225434   6.569   2.285   4.355
 1315TIP3   OH225435   1.103   5.922  15.851
 1315TIP3    H125436   1.117   5.839  15.896
 1315TIP3    H225437   1.052   5.975  15.912
 1316TIP3   OH225438   6.196   1.920   5.549
 1316TIP3    H125439   6.214   1.876   5.632
 1316TIP3    H225440   6.133   1.863   5.505
 1317TIP3   OH225441   6.735   5.322  11.588
 1317TIP3    H125442   6.660   5.302  11.532
 1317TIP3    H225443   6.711   5.402  11.634
 1318TIP3   OH225444   4.606   6.197  12.803
 1318TIP3    H125445   4.576   6.115  12.763
 1318TIP3    H225446   4.529   6.253  12.803
 1319TIP3   OH225447   0.727   0.457  15.246
 1319TIP3    H125448   0.699   0.394  15.312
 1319TIP3    H225449   0.675   0.435  15.168
 1320TIP3   OH225450   6.599   0.719  12.796
 1320TIP3    H125451   6.541   0.795  12.790
 1320TIP3    H225452   6.615   0.708  12.889
 1321TIP3   OH225453   4.241   0.544  16.661
 1321TIP3    H125454   4.281   0.561  16.746
 1321TIP3    H225455   4.278   0.461  16.632
 1322TIP3   OH225456   4.387   1.390   0.096
 1322TIP3    H125457   4.371   1.335   0.172
 1322TIP3    H225458   4.473   1.363   0.064
 1323TIP3   OH225459   0.546   3.377   2.562
 1323TIP3    H125460   0.569   3.436   2.490
 1323TIP3    H225461   0.483   3.426   2.615
 1324TIP3   OH225462   4.324   3.517  12.782
 1324TIP3    H125463   4.228   3.526  12.780
 1324TIP3    H225464   4.340   3.427  12.754
 1325TIP3   OH225465   6.200   3.032  11.335
 1325TIP3    H125466   6.258   3.090  11.384
 1325TIP3    H225467   6.238   3.028  11.248
 1326TIP3   OH225468   2.423   6.335   1.717
 1326TIP3    H125469   2.407   6.276   1.644
 1326TIP3    H225470   2.374   6.296   1.790
 1327TIP3   OH225471   2.855   0.398  15.656
 1327TIP3    H125472   2.785   0.462  15.644
 1327TIP3    H225473   2.850   0.342  15.578
 1328TIP3   OH225474   6.425   0.022  14.012
 1328TIP3    H125475   6.490   0.030  13.941
 1328TIP3    H225476   6.477  -0.002  14.089
 1329TIP3   OH225477   5.071   6.497  12.873
 1329TIP3    H125478   5.052   6.569  12.813
 1329TIP3    H225479   5.140   6.447  12.829
 1330TIP3   OH225480   0.296   0.826  12.296
 1330TIP3    H125481   0.205   0.854  12.305
 1330TIP3    H225482   0.297   0.772  12.217
 1331TIP3   OH225483   2.444   3.929   0.774
 1331TIP3    H125484   2.407   3.939   0.862
 1331TIP3    H225485   2.386   3.866   0.731
 1332TIP3   OH225486   1.267   1.202  12.845
 1332TIP3    H125487   1.294   1.160  12.764
 1332TIP3    H225488   1.348   1.215  12.894
 1333TIP3   OH225489   1.512   1.295  15.943
 1333TIP3    H125490   1.485   1.386  15.929
 1333TIP3    H225491   1.439   1.243  15.912
 1334TIP3   OH225492   0.010   1.044   1.183
 1334TIP3    H125493  -0.035   1.022   1.265
 1334TIP3    H225494   0.021   0.960   1.139
 1335TIP3   OH225495   5.376   4.018   1.596
 1335TIP3    H125496   5.354   4.032   1.688
 1335TIP3    H225497   5.339   3.932   1.575
 1336TIP3   OH225498   0.960   1.635   0.844
 1336TIP3    H125499   1.035   1.666   0.894
 1336TIP3    H225500   0.988   1.552   0.807
 1337TIP3   OH225501   3.579   3.523   2.547
 1337TIP3    H125502   3.487   3.549   2.543
 1337TIP3    H225503   3.581   3.453   2.613
 1338TIP3   OH225504   0.823   6.108  12.071
 1338TIP3    H125505   0.744   6.080  12.025
 1338TIP3    H225506   0.792   6.134  12.158
 1339TIP3   OH225507   4.534   6.442  16.214
 1339TIP3    H125508   4.503   6.362  16.257
 1339TIP3    H225509   4.593   6.410  16.145
 1340TIP3   OH225510   0.405   5.935   5.726
 1340TIP3    H125511   0.394   5.844   5.700
 1340TIP3    H225512   0.413   5.932   5.821
 1341TIP3   OH225513   5.454   4.471   0.861
 1341TIP3    H125514   5.405   4.553   0.852
 1341TIP3    H225515   5.387   4.405   0.879
 1342TIP3   OH225516   0.981   1.375  16.273
 1342TIP3    H125517   0.971   1.460  16.230
 1342TIP3    H225518   1.005   1.315  16.202
 1343TIP3   OH225519   0.369   3.142  13.540
 1343TIP3    H125520   0.317   3.121  13.462
 1343TIP3    H225521   0.388   3.057  13.579
 1344TIP3   OH225522   1.416   0.650  14.673
 1344TIP3    H125523   1.349   0.660  14.741
 1344TIP3    H225524   1.368   0.655  14.591
 1345TIP3   OH225525   3.461   6.122  12.999
 1345TIP3    H125526   3.377   6.079  13.012
 1345TIP3    H225527   3.526   6.053  13.015
 1346TIP3   OH225528   5.962   5.373   0.100
 1346TIP3    H125529   5.895   5.313   0.069
 1346TIP3    H225530   5.948   5.379   0.194
 1347TIP3   OH225531   6.618   6.093  11.465
 1347TIP3    H125532   6.712   6.091  11.445
 1347TIP3    H225533   6.605   6.020  11.525
 1348TIP3   OH225534   2.339   2.946   4.264
 1348TIP3    H125535   2.340   2.858   4.301
 1348TIP3    H225536   2.263   2.988   4.305
 1349TIP3   OH225537   6.243   1.933  14.599
 1349TIP3    H125538   6.272   1.887  14.678
 1349TIP3    H225539   6.302   2.008  14.592
 1350TIP3   OH225540   5.260   2.057  14.316
 1350TIP3    H125541   5.328   2.124  14.311
 1350TIP3    H225542   5.304   1.976  14.292
 1351TIP3   OH225543   1.475   5.314  14.071
 1351TIP3    H125544   1.466   5.262  13.991
 1351TIP3    H225545   1.417   5.272  14.134
 1352TIP3   OH225546   4.279   3.500   0.679
 1352TIP3    H125547   4.254   3.425   0.733
 1352TIP3    H225548   4.289   3.464   0.591
 1353TIP3   OH225549   0.490   3.556   1.991
 1353TIP3    H125550   0.558   3.501   1.954
 1353TIP3    H225551   0.426   3.495   2.028
 1354TIP3   OH225552   0.468   4.817   1.243
 1354TIP3    H125553   0.466   4.727   1.275
 1354TIP3    H225554   0.417   4.867   1.307
 1355TIP3   OH225555   1.987   0.748  16.750
 1355TIP3    H125556   1.991   0.677  16.814
 1355TIP3    H225557   1.926   0.717  16.684
 1356TIP3   OH225558   0.441   4.895   2.904
 1356TIP3    H125559   0.514   4.840   2.933
 1356TIP3    H225560   0.467   4.984   2.930
 1357TIP3   OH225561   6.360   4.152  13.017
 1357TIP3    H125562   6.276   4.107  13.018
 1357TIP3    H225563   6.410   4.107  12.948
 1358TIP3   OH225564   6.061   3.340   1.723
 1358TIP3    H125565   6.147   3.366   1.756
 1358TIP3    H225566   6.002   3.352   1.797
 1359TIP3   OH225567   4.434   4.183  11.728
 1359TIP3    H125568   4.505   4.187  11.664
 1359TIP3    H225569   4.354   4.186  11.676
 1360TIP3   OH225570   3.781   5.348   5.347
 1360TIP3    H125571   3.760   5.441   5.340
 1360TIP3    H225572   3.865   5.339   5.302
 1361TIP3   OH225573   1.502   6.402   0.138
 1361TIP3    H125574   1.412   6.391   0.108
 1361TIP3    H225575   1.555   6.398   0.059
 1362TIP3   OH225576   5.609   4.366  16.798
 1362TIP3    H125577   5.528   4.357  16.748
 1362TIP3    H225578   5.674   4.393  16.733
 1363TIP3   OH225579   5.239   2.594  13.873
 1363TIP3    H125580   5.324   2.638  13.880
 1363TIP3    H225581   5.241   2.551  13.788
 1364TIP3   OH225582   4.135   6.125   0.801
 1364TIP3    H125583   4.067   6.162   0.857
 1364TIP3    H225584   4.141   6.185   0.727
 1365TIP3   OH225585   6.550   2.055  15.302
 1365TIP3    H125586   6.635   2.072  15.343
 1365TIP3    H225587   6.541   1.960  15.306
 1366TIP3   OH225588   2.466   0.219   2.045
 1366TIP3    H125589   2.388   0.210   2.100
 1366TIP3    H225590   2.539   0.192   2.101
 1367TIP3   OH225591   0.688   4.223   6.482
 1367TIP3    H125592   0.679   4.243   6.576
 1367TIP3    H225593   0.759   4.280   6.452
 1368TIP3   OH225594   3.783   5.249  10.926
 1368TIP3    H125595   3.850   5.192  10.888
 1368TIP3    H225596   3.704   5.229  10.877
 1369TIP3   OH225597   1.210   1.523  12.375
 1369TIP3    H125598   1.256   1.440  12.388
 1369TIP3    H225599   1.252   1.562  12.298
 1370TIP3   OH225600   1.377   5.470  16.916
 1370TIP3    H125601   1.417   5.386  16.894
 1370TIP3    H225602   1.283   5.455  16.904
 1371TIP3   OH225603   6.770   0.708  13.973
 1371TIP3    H125604   6.706   0.766  13.931
 1371TIP3    H225605   6.789   0.749  14.057
 1372TIP3   OH225606   4.826   4.894   5.381
 1372TIP3    H125607   4.856   4.886   5.472
 1372TIP3    H225608   4.841   4.807   5.343
 1373TIP3   OH225609   1.322   1.241  13.196
 1373TIP3    H125610   1.268   1.236  13.275
 1373TIP3    H225611   1.326   1.151  13.164
 1374TIP3   OH225612   0.818   2.597  11.534
 1374TIP3    H125613   0.839   2.690  11.527
 1374TIP3    H225614   0.901   2.553  11.514
 1375TIP3   OH225615   6.103   3.829  13.181
 1375TIP3    H125616   6.035   3.804  13.244
 1375TIP3    H225617   6.178   3.854  13.235
 1376TIP3   OH225618   3.439   2.477  16.037
 1376TIP3    H125619   3.448   2.520  16.122
 1376TIP3    H225620   3.362   2.518  15.998
 1377TIP3   OH225621   6.414   6.398  13.325
 1377TIP3    H125622   6.455   6.330  13.378
 1377TIP3    H225623   6.479   6.422  13.260
 1378TIP3   OH225624   3.342   6.690  15.072
 1378TIP3    H125625   3.327   6.773  15.116
 1378TIP3    H225626   3.275   6.632  15.106
 1379TIP3   OH225627   4.949   5.328  12.904
 1379TIP3    H125628   4.894   5.249  12.905
 1379TIP3    H225629   5.020   5.308  12.965
 1380TIP3   OH225630   4.131   0.638   4.278
 1380TIP3    H125631   4.171   0.725   4.282
 1380TIP3    H225632   4.179   0.594   4.207
 1381TIP3   OH225633   2.102   3.125  13.231
 1381TIP3    H125634   2.192   3.111  13.262
 1381TIP3    H225635   2.051   3.137  13.311
 1382TIP3   OH225636   5.875   0.900   2.547
 1382TIP3    H125637   5.881   0.862   2.635
 1382TIP3    H225638   5.825   0.836   2.496
 1383TIP3   OH225639   3.025   3.517   5.343
 1383TIP3    H125640   2.998   3.432   5.377
 1383TIP3    H225641   3.068   3.497   5.260
 1384TIP3   OH225642   2.438   3.432   3.150
 1384TIP3    H125643   2.364   3.492   3.157
 1384TIP3    H225644   2.515   3.489   3.143
 1385TIP3   OH225645   0.716   5.293   3.083
 1385TIP3    H125646   0.651   5.331   3.025
 1385TIP3    H225647   0.726   5.357   3.154
 1386TIP3   OH225648   5.007   5.559   0.510
 1386TIP3    H125649   4.927   5.561   0.458
 1386TIP3    H225650   5.077   5.551   0.445
 1387TIP3   OH225651   5.806   1.281   4.893
 1387TIP3    H125652   5.859   1.205   4.868
 1387TIP3    H225653   5.857   1.356   4.863
 1388TIP3   OH225654   5.766   1.639  11.892
 1388TIP3    H125655   5.833   1.578  11.860
 1388TIP3    H225656   5.751   1.698  11.818
 1389TIP3   OH225657   0.907   2.712   3.001
 1389TIP3    H125658   0.967   2.786   2.998
 1389TIP3    H225659   0.838   2.733   2.938
 1390TIP3   OH225660   3.307   3.937   5.455
 1390TIP3    H125661   3.290   3.844   5.465
 1390TIP3    H225662   3.388   3.952   5.503
 1391TIP3   OH225663   4.124   6.722  12.094
 1391TIP3    H125664   4.058   6.727  12.025
 1391TIP3    H225665   4.106   6.798  12.150
 1392TIP3   OH225666   1.275   6.709  13.321
 1392TIP3    H125667   1.254   6.767  13.248
 1392TIP3    H225668   1.352   6.660  13.291
 1393TIP3   OH225669   3.399   0.877  11.153
 1393TIP3    H125670   3.445   0.951  11.114
 1393TIP3    H225671   3.378   0.820  11.079
 1394TIP3   OH225672   6.655   0.802   4.818
 1394TIP3    H125673   6.563   0.780   4.836
 1394TIP3    H225674   6.675   0.872   4.881
 1395TIP3   OH225675   6.455   5.621   3.200
 1395TIP3    H125676   6.491   5.544   3.244
 1395TIP3    H225677   6.380   5.587   3.151
 1396TIP3   OH225678   2.496   0.038   1.829
 1396TIP3    H125679   2.481   0.104   1.896
 1396TIP3    H225680   2.413  -0.009   1.822
 1397TIP3   OH225681   4.653   1.600  15.210
 1397TIP3    H125682   4.685   1.640  15.291
 1397TIP3    H225683   4.728   1.600  15.151
 1398TIP3   OH225684   0.976   3.482   6.136
 1398TIP3    H125685   1.007   3.569   6.159
 1398TIP3    H225686   1.025   3.423   6.193
 1399TIP3   OH225687   3.808   2.653   1.625
 1399TIP3    H125688   3.831   2.652   1.532
 1399TIP3    H225689   3.724   2.699   1.628
 1400TIP3   OH225690   4.852   2.497   0.002
 1400TIP3    H125691   4.823   2.478   0.091
 1400TIP3    H225692   4.874   2.411  -0.034
 1401TIP3   OH225693   3.454   0.668  13.400
 1401TIP3    H125694   3.481   0.752  13.436
 1401TIP3    H225695   3.371   0.649  13.443
 1402TIP3   OH225696   6.459   6.369   2.998
 1402TIP3    H125697   6.365   6.367   2.978
 1402TIP3    H225698   6.489   6.280   2.984
 1403TIP3   OH225699   5.598   3.616   2.578
 1403TIP3    H125700   5.622   3.538   2.529
 1403TIP3    H225701   5.597   3.587   2.670
 1404TIP3   OH225702   0.878   0.039  11.841
 1404TIP3    H125703   0.847   0.011  11.927
 1404TIP3    H225704   0.972   0.019  11.842
 1405TIP3   OH225705   3.130   0.032  13.638
 1405TIP3    H125706   3.164  -0.058  13.641
 1405TIP3    H225707   3.179   0.073  13.567
 1406TIP3   OH225708   2.560   5.712  12.883
 1406TIP3    H125709   2.604   5.794  12.863
 1406TIP3    H225710   2.627   5.645  12.872
 1407TIP3   OH225711   0.704   6.395   1.931
 1407TIP3    H125712   0.795   6.394   1.900
 1407TIP3    H225713   0.665   6.317   1.892
 1408TIP3   OH225714   0.633   1.164   2.723
 1408TIP3    H125715   0.619   1.123   2.808
 1408TIP3    H225716   0.704   1.227   2.738
 1409TIP3   OH225717   5.867   5.263  13.814
 1409TIP3    H125718   5.817   5.324  13.868
 1409TIP3    H225719   5.880   5.309  13.731
 1410TIP3   OH225720   4.493   1.132  11.599
 1410TIP3    H125721   4.497   1.220  11.637
 1410TIP3    H225722   4.439   1.142  11.521
 1411TIP3   OH225723   2.800   0.145   0.150
 1411TIP3    H125724   2.748   0.159   0.070
 1411TIP3    H225725   2.891   0.152   0.120
 1412TIP3   OH225726   2.407   5.841  16.539
 1412TIP3    H125727   2.489   5.852  16.589
 1412TIP3    H225728   2.428   5.774  16.474
 1413TIP3   OH225729   1.398   2.837   1.894
 1413TIP3    H125730   1.361   2.902   1.835
 1413TIP3    H225731   1.357   2.755   1.868
 1414TIP3   OH225732   3.895   3.458   0.403
 1414TIP3    H125733   3.811   3.412   0.408
 1414TIP3    H225734   3.877   3.545   0.438
 1415TIP3   OH225735   1.720   4.547  13.781
 1415TIP3    H125736   1.797   4.594  13.813
 1415TIP3    H225737   1.720   4.465  13.830
 1416TIP3   OH225738   4.815   1.491  14.706
 1416TIP3    H125739   4.886   1.538  14.751
 1416TIP3    H225740   4.764   1.560  14.664
 1417TIP3   OH225741   2.697   2.566  11.787
 1417TIP3    H125742   2.671   2.542  11.876
 1417TIP3    H225743   2.668   2.494  11.732
 1418TIP3   OH225744   6.164   5.678   3.871
 1418TIP3    H125745   6.093   5.742   3.870
 1418TIP3    H225746   6.237   5.721   3.826
 1419TIP3   OH225747   6.728   3.187   3.306
 1419TIP3    H125748   6.786   3.263   3.309
 1419TIP3    H225749   6.772   3.125   3.249
 1420TIP3   OH225750   5.180   3.258  13.459
 1420TIP3    H125751   5.153   3.321  13.526
 1420TIP3    H225752   5.109   3.259  13.396
 1421TIP3   OH225753   6.251   0.052  17.162
 1421TIP3    H125754   6.177   0.001  17.128
 1421TIP3    H225755   6.222   0.083  17.248
 1422TIP3   OH225756   6.574   1.275   3.256
 1422TIP3    H125757   6.618   1.255   3.173
 1422TIP3    H225758   6.602   1.204   3.315
 1423TIP3   OH225759   0.195   2.967  12.367
 1423TIP3    H125760   0.234   3.004  12.288
 1423TIP3    H225761   0.269   2.937  12.419
 1424TIP3   OH225762   5.549   0.882   5.105
 1424TIP3    H125763   5.562   0.975   5.122
 1424TIP3    H225764   5.632   0.853   5.067
 1425TIP3   OH225765   5.957   0.821   3.353
 1425TIP3    H125766   5.933   0.901   3.306
 1425TIP3    H225767   5.876   0.770   3.357
 1426TIP3   OH225768   1.295   3.732  12.390
 1426TIP3    H125769   1.360   3.767  12.450
 1426TIP3    H225770   1.224   3.701  12.447
 1427TIP3   OH225771   2.479   5.987  14.197
 1427TIP3    H125772   2.540   5.940  14.139
 1427TIP3    H225773   2.536   6.039  14.253
 1428TIP3   OH225774   5.637   6.376  16.363
 1428TIP3    H125775   5.682   6.339  16.287
 1428TIP3    H225776   5.565   6.427  16.326
 1429TIP3   OH225777   6.589   0.215  13.340
 1429TIP3    H125778   6.493   0.214  13.337
 1429TIP3    H225779   6.613   0.131  13.378
 1430TIP3   OH225780   2.360   1.387   3.402
 1430TIP3    H125781   2.404   1.408   3.484
 1430TIP3    H225782   2.336   1.295   3.409
 1431TIP3   OH225783   4.083   3.587  14.035
 1431TIP3    H125784   4.159   3.535  14.063
 1431TIP3    H225785   4.052   3.544  13.956
 1432TIP3   OH225786   1.100   0.045   3.127
 1432TIP3    H125787   1.109   0.026   3.034
 1432TIP3    H225788   1.183   0.084   3.152
 1433TIP3   OH225789   1.359   6.068  13.798
 1433TIP3    H125790   1.297   6.039  13.865
 1433TIP3    H225791   1.389   5.987  13.757
 1434TIP3   OH225792   2.599   1.848   0.425
 1434TIP3    H125793   2.536   1.861   0.354
 1434TIP3    H225794   2.591   1.755   0.447
 1435TIP3   OH225795   6.024   5.815  11.972
 1435TIP3    H125796   6.118   5.812  11.955
 1435TIP3    H225797   5.994   5.894  11.927
 1436TIP3   OH225798   0.030   4.491   1.752
 1436TIP3    H125799   0.008   4.402   1.724
 1436TIP3    H225800   0.116   4.507   1.714
 1437TIP3   OH225801   3.659   2.118  15.579
 1437TIP3    H125802   3.736   2.158  15.618
 1437TIP3    H225803   3.675   2.024  15.586
 1438TIP3   OH225804   3.320   1.000  13.709
 1438TIP3    H125805   3.332   1.085  13.667
 1438TIP3    H225806   3.232   0.973  13.682
 1439TIP3   OH225807   3.737   0.011   5.627
 1439TIP3    H125808   3.654   0.005   5.676
 1439TIP3    H225809   3.712   0.048   5.543
 1440TIP3   OH225810   6.049   1.801   6.240
 1440TIP3    H125811   6.141   1.783   6.221
 1440TIP3    H225812   6.036   1.769   6.329
 1441TIP3   OH225813   6.423   2.425  16.140
 1441TIP3    H125814   6.500   2.475  16.165
 1441TIP3    H225815   6.422   2.430  16.044
 1442TIP3   OH225816   5.738   1.719  15.891
 1442TIP3    H125817   5.787   1.795  15.922
 1442TIP3    H225818   5.747   1.654  15.961
 1443TIP3   OH225819   4.984   6.403  15.783
 1443TIP3    H125820   4.916   6.420  15.717
 1443TIP3    H225821   4.971   6.312  15.808
 1444TIP3   OH225822   5.006   1.466   1.522
 1444TIP3    H125823   5.051   1.385   1.545
 1444TIP3    H225824   5.074   1.533   1.524
 1445TIP3   OH225825   6.132   2.052   0.832
 1445TIP3    H125826   6.208   2.110   0.825
 1445TIP3    H225827   6.063   2.105   0.871
 1446TIP3   OH225828   4.676   6.008  13.834
 1446TIP3    H125829   4.612   6.067  13.873
 1446TIP3    H225830   4.635   5.978  13.753
 1447TIP3   OH225831   6.347   5.803   2.899
 1447TIP3    H125832   6.424   5.751   2.920
 1447TIP3    H225833   6.276   5.760   2.946
 1448TIP3   OH225834   4.337   3.104  10.735
 1448TIP3    H125835   4.301   3.075  10.819
 1448TIP3    H225836   4.293   3.050  10.670
 1449TIP3   OH225837   6.699   3.403  14.862
 1449TIP3    H125838   6.762   3.337  14.892
 1449TIP3    H225839   6.710   3.404  14.766
 1450TIP3   OH225840   3.837   5.739   4.335
 1450TIP3    H125841   3.926   5.759   4.366
 1450TIP3    H225842   3.784   5.737   4.415
 1451TIP3   OH225843   3.962   1.552  12.407
 1451TIP3    H125844   4.011   1.491  12.353
 1451TIP3    H225845   3.895   1.499  12.450
 1452TIP3   OH225846   2.657   3.493  12.966
 1452TIP3    H125847   2.610   3.467  13.045
 1452TIP3    H225848   2.745   3.458  12.979
 1453TIP3   OH225849   5.042   3.667  16.172
 1453TIP3    H125850   5.099   3.592  16.156
 1453TIP3    H225851   5.040   3.714  16.089
 1454TIP3   OH225852   1.490   1.896   5.109
 1454TIP3    H125853   1.420   1.833   5.127
 1454TIP3    H225854   1.564   1.863   5.159
 1455TIP3   OH225855   2.187   4.506  14.816
 1455TIP3    H125856   2.119   4.455  14.773
 1455TIP3    H225857   2.245   4.441  14.855
 1456TIP3   OH225858   6.553   4.463  10.961
 1456TIP3    H125859   6.491   4.418  10.904
 1456TIP3    H225860   6.566   4.549  10.920
 1457TIP3   OH225861   4.134   5.824  13.796
 1457TIP3    H125862   4.166   5.841  13.707
 1457TIP3    H225863   4.203   5.859  13.853
 1458TIP3   OH225864   6.803   4.534   0.334
 1458TIP3    H125865   6.893   4.536   0.368
 1458TIP3    H225866   6.749   4.523   0.412
 1459TIP3   OH225867   0.274   5.229  15.327
 1459TIP3    H125868   0.331   5.192  15.260
 1459TIP3    H225869   0.266   5.322  15.303
 1460TIP3   OH225870   3.628   5.251   4.364
 1460TIP3    H125871   3.692   5.181   4.353
 1460TIP3    H225872   3.560   5.214   4.419
 1461TIP3   OH225873   1.683   6.684  14.393
 1461TIP3    H125874   1.617   6.748  14.367
 1461TIP3    H225875   1.636   6.618  14.443
 1462TIP3   OH225876   0.597   2.864  12.662
 1462TIP3    H125877   0.692   2.857  12.655
 1462TIP3    H225878   0.576   2.817  12.743
 1463TIP3   OH225879   6.680   3.486  13.599
 1463TIP3    H125880   6.736   3.416  13.633
 1463TIP3    H225881   6.619   3.442  13.540
 1464TIP3   OH225882   4.938   2.049   2.741
 1464TIP3    H125883   4.935   1.954   2.752
 1464TIP3    H225884   4.928   2.063   2.647
 1465TIP3   OH225885   5.349   0.320   2.797
 1465TIP3    H125886   5.254   0.314   2.806
 1465TIP3    H225887   5.365   0.315   2.703
 1466TIP3   OH225888   6.439   0.476   1.192
 1466TIP3    H125889   6.347   0.500   1.181
 1466TIP3    H225890   6.443   0.383   1.172
 1467TIP3   OH225891   0.027   1.094   4.309
 1467TIP3    H125892   0.051   1.161   4.244
 1467TIP3    H225893  -0.044   1.134   4.359
 1468TIP3   OH225894   4.134   0.532   1.322
 1468TIP3    H125895   4.226   0.553   1.341
 1468TIP3    H225896   4.084   0.582   1.387
 1469TIP3   OH225897   4.592   3.411  10.736
 1469TIP3    H125898   4.590   3.498  10.776
 1469TIP3    H225899   4.646   3.359  10.795
 1470TIP3   OH225900   0.661   5.864   1.125
 1470TIP3    H125901   0.682   5.922   1.052
 1470TIP3    H225902   0.687   5.913   1.203
 1471TIP3   OH225903   1.003   3.944  16.859
 1471TIP3    H125904   0.986   3.887  16.934
 1471TIP3    H225905   0.923   3.939  16.806
 1472TIP3   OH225906   3.963   4.152  14.849
 1472TIP3    H125907   3.926   4.144  14.937
 1472TIP3    H225908   3.912   4.223  14.809
 1473TIP3   OH225909   2.163   5.811   1.898
 1473TIP3    H125910   2.100   5.746   1.865
 1473TIP3    H225911   2.239   5.759   1.924
 1474TIP3   OH225912   1.715   5.468   3.722
 1474TIP3    H125913   1.752   5.380   3.721
 1474TIP3    H225914   1.631   5.459   3.767
 1475TIP3   OH225915   1.893   3.154  11.734
 1475TIP3    H125916   1.902   3.112  11.648
 1475TIP3    H225917   1.834   3.096  11.783
 1476TIP3   OH225918   3.118   0.788  14.549
 1476TIP3    H125919   3.103   0.866  14.496
 1476TIP3    H225920   3.042   0.732  14.534
 1477TIP3   OH225921   3.130   3.596  14.458
 1477TIP3    H125922   3.104   3.506  14.480
 1477TIP3    H225923   3.183   3.587  14.379
 1478TIP3   OH225924   4.105   5.667   3.490
 1478TIP3    H125925   4.094   5.623   3.405
 1478TIP3    H225926   4.135   5.755   3.468
 1479TIP3   OH225927   5.266   3.819   6.120
 1479TIP3    H125928   5.349   3.860   6.143
 1479TIP3    H225929   5.222   3.806   6.203
 1480TIP3   OH225930   0.233   3.620  14.907
 1480TIP3    H125931   0.246   3.577  14.823
 1480TIP3    H225932   0.281   3.565  14.970
 1481TIP3   OH225933   0.481   5.424   1.568
 1481TIP3    H125934   0.408   5.366   1.544
 1481TIP3    H225935   0.533   5.372   1.629
 1482TIP3   OH225936   4.221   0.242   4.765
 1482TIP3    H125937   4.171   0.236   4.846
 1482TIP3    H225938   4.163   0.206   4.698
 1483TIP3   OH225939   1.287   0.400  15.403
 1483TIP3    H125940   1.295   0.333  15.336
 1483TIP3    H225941   1.377   0.422  15.426
 1484TIP3   OH225942   3.387   5.733   6.452
 1484TIP3    H125943   3.401   5.734   6.547
 1484TIP3    H225944   3.353   5.820   6.432
 1485TIP3   OH225945   5.411   1.254  11.368
 1485TIP3    H125946   5.383   1.345  11.372
 1485TIP3    H225947   5.351   1.213  11.305
 1486TIP3   OH225948   2.098   3.261  16.465
 1486TIP3    H125949   2.035   3.213  16.519
 1486TIP3    H225950   2.184   3.228  16.494
 1487TIP3   OH225951   3.181   5.113  12.711
 1487TIP3    H125952   3.093   5.086  12.684
 1487TIP3    H225953   3.220   5.034  12.748
 1488TIP3   OH225954   2.503   1.462  16.957
 1488TIP3    H125955   2.524   1.435  17.046
 1488TIP3    H225956   2.555   1.541  16.943
 1489TIP3   OH225957   3.516   5.272  15.250
 1489TIP3    H125958   3.581   5.238  15.312
 1489TIP3    H225959   3.567   5.296  15.173
 1490TIP3   OH225960   2.536   0.972   1.672
 1490TIP3    H125961   2.560   0.917   1.597
 1490TIP3    H225962   2.448   1.003   1.651
 1491TIP3   OH225963   2.374   2.702  15.812
 1491TIP3    H125964   2.292   2.743  15.840
 1491TIP3    H225965   2.360   2.679  15.720
 1492TIP3   OH225966   5.996   5.820  13.540
 1492TIP3    H125967   5.944   5.858  13.611
 1492TIP3    H225968   5.961   5.861  13.461
 1493TIP3   OH225969   0.924   1.812  15.264
 1493TIP3    H125970   0.853   1.778  15.210
 1493TIP3    H225971   0.880   1.853  15.339
 1494TIP3   OH225972   6.048   4.903  12.875
 1494TIP3    H125973   6.114   4.856  12.824
 1494TIP3    H225974   6.092   4.928  12.956
 1495TIP3   OH225975   2.048   6.181   5.904
 1495TIP3    H125976   2.026   6.110   5.843
 1495TIP3    H225977   2.041   6.261   5.852
 1496TIP3   OH225978   4.628   4.889  10.627
 1496TIP3    H125979   4.651   4.935  10.708
 1496TIP3    H225980   4.712   4.863  10.590
 1497TIP3   OH225981   1.152   6.183  14.906
 1497TIP3    H125982   1.202   6.135  14.971
 1497TIP3    H225983   1.080   6.125  14.883
 1498TIP3   OH225984   5.056   4.754   0.820
 1498TIP3    H125985   4.974   4.757   0.771
 1498TIP3    H225986   5.100   4.676   0.787
 1499TIP3   OH225987   2.778   5.763  12.263
 1499TIP3    H125988   2.774   5.677  12.305
 1499TIP3    H225989   2.831   5.817  12.323
 1500TIP3   OH225990   5.448   4.605   4.850
 1500TIP3    H125991   5.508   4.536   4.822
 1500TIP3    H225992   5.447   4.667   4.777
 1501TIP3   OH225993   0.530   0.383  13.830
 1501TIP3    H125994   0.490   0.336  13.756
 1501TIP3    H225995   0.567   0.462  13.791
 1502TIP3   OH225996   1.279   1.772   1.895
 1502TIP3    H125997   1.297   1.861   1.866
 1502TIP3    H225998   1.363   1.742   1.931
 1503TIP3   OH225999   1.165   1.776  11.277
 1503TIP3    H126000   1.134   1.841  11.213
 1503TIP3    H226001   1.218   1.715  11.225
 1504TIP3   OH226002   2.921   4.582  15.038
 1504TIP3    H126003   2.883   4.666  15.066
 1504TIP3    H226004   2.855   4.545  14.979
 1505TIP3   OH226005   0.815   5.494  13.978
 1505TIP3    H126006   0.892   5.439  13.968
 1505TIP3    H226007   0.799   5.496  14.072
 1506TIP3   OH226008   2.910   3.120   3.550
 1506TIP3    H126009   2.835   3.114   3.491
 1506TIP3    H226010   2.981   3.075   3.504
 1507TIP3   OH226011   3.580   3.207   1.381
 1507TIP3    H126012   3.504   3.152   1.398
 1507TIP3    H226013   3.545   3.296   1.378
 1508TIP3   OH226014   5.031   2.977   2.259
 1508TIP3    H126015   5.107   2.994   2.203
 1508TIP3    H226016   4.981   2.911   2.211
 1509TIP3   OH226017   1.961   2.922  16.115
 1509TIP3    H126018   1.868   2.908  16.096
 1509TIP3    H226019   1.986   2.996  16.059
 1510TIP3   OH226020   2.572   4.559  11.775
 1510TIP3    H126021   2.546   4.646  11.804
 1510TIP3    H226022   2.657   4.572  11.734
 1511TIP3   OH226023   3.702   4.396   2.615
 1511TIP3    H126024   3.719   4.461   2.546
 1511TIP3    H226025   3.731   4.313   2.577
 1512TIP3   OH226026   3.276   6.046   4.475
 1512TIP3    H126027   3.368   6.058   4.501
 1512TIP3    H226028   3.256   6.124   4.423
 1513TIP3   OH226029   1.551   6.817  11.414
 1513TIP3    H126030   1.530   6.725  11.427
 1513TIP3    H226031   1.470   6.855  11.378
 1514TIP3   OH226032   3.355   0.360   0.372
 1514TIP3    H126033   3.283   0.296   0.369
 1514TIP3    H226034   3.311   0.445   0.365
 1515TIP3   OH226035   2.390   6.406   6.454
 1515TIP3    H126036   2.412   6.383   6.364
 1515TIP3    H226037   2.310   6.356   6.472
 1516TIP3   OH226038   2.788   6.401  11.086
 1516TIP3    H126039   2.863   6.414  11.028
 1516TIP3    H226040   2.711   6.418  11.031
 1517TIP3   OH226041   4.766   3.492   4.612
 1517TIP3    H126042   4.798   3.479   4.522
 1517TIP3    H226043   4.687   3.544   4.601
 1518TIP3   OH226044   4.161   2.468   0.551
 1518TIP3    H126045   4.181   2.383   0.513
 1518TIP3    H226046   4.066   2.468   0.563
 1519TIP3   OH226047   0.544   1.637  15.415
 1519TIP3    H126048   0.632   1.631  15.452
 1519TIP3    H226049   0.523   1.731  15.419
 1520TIP3   OH226050   4.800   6.763   0.143
 1520TIP3    H126051   4.816   6.818   0.066
 1520TIP3    H226052   4.766   6.823   0.209
 1521TIP3   OH226053   3.281   5.798  11.184
 1521TIP3    H126054   3.306   5.706  11.182
 1521TIP3    H226055   3.286   5.822  11.277
 1522TIP3   OH226056   5.416   6.306  10.936
 1522TIP3    H126057   5.401   6.380  10.994
 1522TIP3    H226058   5.493   6.331  10.885
 1523TIP3   OH226059   6.664   3.671  16.697
 1523TIP3    H126060   6.667   3.766  16.693
 1523TIP3    H226061   6.608   3.651  16.772
 1524TIP3   OH226062   0.715   0.728   1.097
 1524TIP3    H126063   0.767   0.762   1.024
 1524TIP3    H226064   0.721   0.633   1.088
 1525TIP3   OH226065   0.819   5.160   1.761
 1525TIP3    H126066   0.899   5.200   1.727
 1525TIP3    H226067   0.851   5.087   1.814
 1526TIP3   OH226068   1.361   3.335   5.943
 1526TIP3    H126069   1.329   3.414   5.899
 1526TIP3    H226070   1.339   3.349   6.035
 1527TIP3   OH226071   6.221   5.915  15.862
 1527TIP3    H126072   6.149   5.861  15.828
 1527TIP3    H226073   6.209   5.914  15.957
 1528TIP3   OH226074   5.073   5.680  11.998
 1528TIP3    H126075   5.149   5.645  12.045
 1528TIP3    H226076   5.085   5.652  11.908
 1529TIP3   OH226077   5.726   5.318  14.833
 1529TIP3    H126078   5.799   5.375  14.857
 1529TIP3    H226079   5.653   5.350  14.886
 1530TIP3   OH226080   4.668   0.280  16.288
 1530TIP3    H126081   4.684   0.206  16.230
 1530TIP3    H226082   4.736   0.344  16.265
 1531TIP3   OH226083   4.761   3.988   4.363
 1531TIP3    H126084   4.745   3.920   4.298
 1531TIP3    H226085   4.688   3.980   4.424
 1532TIP3   OH226086   5.751   1.585   5.242
 1532TIP3    H126087   5.725   1.559   5.330
 1532TIP3    H226088   5.839   1.621   5.252
 1533TIP3   OH226089   1.015   1.770   2.069
 1533TIP3    H126090   1.096   1.732   2.035
 1533TIP3    H226091   1.041   1.856   2.103
 1534TIP3   OH226092   0.375   2.474  13.889
 1534TIP3    H126093   0.322   2.492  13.811
 1534TIP3    H226094   0.320   2.418  13.943
 1535TIP3   OH226095   2.472   3.309  17.062
 1535TIP3    H126096   2.472   3.330  16.969
 1535TIP3    H226097   2.420   3.229  17.068
 1536TIP3   OH226098   6.573   2.883   5.765
 1536TIP3    H126099   6.531   2.968   5.750
 1536TIP3    H226100   6.520   2.821   5.716
 1537TIP3   OH226101   0.642   2.857  11.825
 1537TIP3    H126102   0.593   2.873  11.906
 1537TIP3    H226103   0.682   2.941  11.804
 1538TIP3   OH226104   2.396   5.900   5.380
 1538TIP3    H126105   2.469   5.875   5.437
 1538TIP3    H226106   2.321   5.853   5.416
 1539TIP3   OH226107   3.490   3.977  13.147
 1539TIP3    H126108   3.505   4.072  13.147
 1539TIP3    H226109   3.420   3.964  13.083
 1540TIP3   OH226110   5.705   1.154  13.342
 1540TIP3    H126111   5.767   1.225  13.325
 1540TIP3    H226112   5.650   1.187  13.413
 1541TIP3   OH226113   5.866   5.583   5.084
 1541TIP3    H126114   5.784   5.535   5.095
 1541TIP3    H226115   5.840   5.665   5.042
 1542TIP3   OH226116   2.345   1.588   5.950
 1542TIP3    H126117   2.362   1.542   5.868
 1542TIP3    H226118   2.347   1.681   5.927
 1543TIP3   OH226119   4.570   4.170  15.833
 1543TIP3    H126120   4.534   4.209  15.912
 1543TIP3    H226121   4.513   4.202  15.762
 1544TIP3   OH226122   2.133   1.391   3.807
 1544TIP3    H126123   2.217   1.362   3.773
 1544TIP3    H226124   2.153   1.431   3.891
 1545TIP3   OH226125   5.032   4.702  11.855
 1545TIP3    H126126   5.061   4.704  11.946
 1545TIP3    H226127   5.021   4.794  11.832
 1546TIP3   OH226128   3.644   4.604  13.606
 1546TIP3    H126129   3.650   4.616  13.701
 1546TIP3    H226130   3.572   4.661  13.579
 1547TIP3   OH226131   5.291   2.207  15.936
 1547TIP3    H126132   5.254   2.184  15.850
 1547TIP3    H226133   5.271   2.132  15.991
 1548TIP3   OH226134   1.686   3.682  16.359
 1548TIP3    H126135   1.617   3.666  16.424
 1548TIP3    H226136   1.753   3.731  16.406
 1549TIP3   OH226137   0.013   3.338  14.311
 1549TIP3    H126138   0.054   3.402  14.252
 1549TIP3    H226139   0.086   3.283  14.340
 1550TIP3   OH226140   0.723   5.230  15.030
 1550TIP3    H126141   0.720   5.143  14.990
 1550TIP3    H226142   0.786   5.278  14.976
 1551TIP3   OH226143   1.447   2.723   2.764
 1551TIP3    H126144   1.408   2.799   2.720
 1551TIP3    H226145   1.372   2.669   2.787
 1552TIP3   OH226146   6.568   4.603   5.426
 1552TIP3    H126147   6.544   4.692   5.450
 1552TIP3    H226148   6.509   4.547   5.476
 1553TIP3   OH226149   6.812   6.151   0.158
 1553TIP3    H126150   6.897   6.164   0.118
 1553TIP3    H226151   6.826   6.168   0.251
 1554TIP3   OH226152   3.091   5.470  16.836
 1554TIP3    H126153   3.148   5.481  16.912
 1554TIP3    H226154   3.151   5.466  16.762
 1555TIP3   OH226155   2.018   0.796   0.795
 1555TIP3    H126156   2.025   0.787   0.891
 1555TIP3    H226157   2.080   0.865   0.773
 1556TIP3   OH226158   4.448   4.795   4.326
 1556TIP3    H126159   4.396   4.804   4.246
 1556TIP3    H226160   4.449   4.883   4.363
 1557TIP3   OH226161   6.621   5.332   5.218
 1557TIP3    H126162   6.567   5.398   5.175
 1557TIP3    H226163   6.558   5.265   5.247
 1558TIP3   OH226164   5.645   2.780  11.671
 1558TIP3    H126165   5.668   2.847  11.735
 1558TIP3    H226166   5.658   2.823  11.586
 1559TIP3   OH226167   0.735   4.895   3.219
 1559TIP3    H126168   0.748   4.905   3.125
 1559TIP3    H226169   0.789   4.819   3.243
 1560TIP3   OH226170   3.141   5.757   5.688
 1560TIP3    H126171   3.164   5.791   5.774
 1560TIP3    H226172   3.048   5.777   5.679
 1561TIP3   OH226173   5.459   2.152  14.116
 1561TIP3    H126174   5.457   2.056  14.111
 1561TIP3    H226175   5.387   2.180  14.060
 1562TIP3   OH226176   4.989   6.445   0.317
 1562TIP3    H126177   5.015   6.371   0.371
 1562TIP3    H226178   4.937   6.407   0.247
 1563TIP3   OH226179   3.899   0.868   3.921
 1563TIP3    H126180   3.862   0.875   4.009
 1563TIP3    H226181   3.828   0.894   3.862
 1564TIP3   OH226182   0.537   5.070   3.190
 1564TIP3    H126183   0.592   5.005   3.235
 1564TIP3    H226184   0.599   5.135   3.157
 1565TIP3   OH226185   4.262   0.851   5.561
 1565TIP3    H126186   4.351   0.882   5.574
 1565TIP3    H226187   4.212   0.888   5.634
 1566TIP3   OH226188   4.252   4.825  16.816
 1566TIP3    H126189   4.169   4.795  16.853
 1566TIP3    H226190   4.247   4.801  16.724
 1567TIP3   OH226191   6.698   0.636   6.094
 1567TIP3    H126192   6.651   0.574   6.039
 1567TIP3    H226193   6.729   0.584   6.168
 1568TIP3   OH226194   0.470   6.570  10.973
 1568TIP3    H126195   0.405   6.542  10.908
 1568TIP3    H226196   0.422   6.632  11.029
 1569TIP3   OH226197   3.239   2.708   3.166
 1569TIP3    H126198   3.281   2.624   3.147
 1569TIP3    H226199   3.146   2.691   3.159
 1570TIP3   OH226200   0.572   6.413   3.514
 1570TIP3    H126201   0.541   6.350   3.449
 1570TIP3    H226202   0.641   6.462   3.470
 1571TIP3   OH226203   6.526   4.165   2.834
 1571TIP3    H126204   6.536   4.255   2.803
 1571TIP3    H226205   6.461   4.127   2.776
 1572TIP3   OH226206   4.746   2.048   0.851
 1572TIP3    H126207   4.684   1.983   0.819
 1572TIP3    H226208   4.725   2.058   0.944
 1573TIP3   OH226209   5.209   3.993  13.015
 1573TIP3    H126210   5.287   3.983  12.961
 1573TIP3    H226211   5.179   4.083  12.997
 1574TIP3   OH226212   0.353   5.862  14.166
 1574TIP3    H126213   0.369   5.934  14.227
 1574TIP3    H226214   0.277   5.817  14.201
 1575TIP3   OH226215   1.607   3.905  13.971
 1575TIP3    H126216   1.512   3.914  13.960
 1575TIP3    H226217   1.629   3.971  14.037
 1576TIP3   OH226218   4.927   5.894  11.591
 1576TIP3    H126219   4.940   5.799  11.583
 1576TIP3    H226220   4.917   5.908  11.685
 1577TIP3   OH226221   5.537   3.738   5.575
 1577TIP3    H126222   5.477   3.716   5.646
 1577TIP3    H226223   5.609   3.676   5.585
 1578TIP3   OH226224   0.838   1.195   1.073
 1578TIP3    H126225   0.922   1.199   1.028
 1578TIP3    H226226   0.773   1.209   1.004
 1579TIP3   OH226227   2.301   2.789   2.748
 1579TIP3    H126228   2.380   2.828   2.710
 1579TIP3    H226229   2.309   2.696   2.730
 1580TIP3   OH226230   0.462   0.455  11.646
 1580TIP3    H126231   0.388   0.395  11.650
 1580TIP3    H226232   0.529   0.407  11.596
 1581TIP3   OH226233   4.152   1.431  13.495
 1581TIP3    H126234   4.227   1.400  13.546
 1581TIP3    H226235   4.188   1.445  13.407
 1582TIP3   OH226236   0.108   2.024  11.856
 1582TIP3    H126237   0.020   2.045  11.824
 1582TIP3    H226238   0.159   2.104  11.838
 1583TIP3   OH226239   3.334   4.284  12.163
 1583TIP3    H126240   3.246   4.295  12.197
 1583TIP3    H226241   3.351   4.364  12.113
 1584TIP3   OH226242   1.353   1.785  12.752
 1584TIP3    H126243   1.408   1.756  12.825
 1584TIP3    H226244   1.356   1.881  12.758
 1585TIP3   OH226245   6.295   5.624   0.994
 1585TIP3    H126246   6.299   5.716   1.022
 1585TIP3    H226247   6.224   5.621   0.930
 1586TIP3   OH226248   3.240   4.702  16.988
 1586TIP3    H126249   3.185   4.641  16.939
 1586TIP3    H226250   3.324   4.658  16.996
 1587TIP3   OH226251   6.380   2.975  12.356
 1587TIP3    H126252   6.388   2.951  12.448
 1587TIP3    H226253   6.286   2.975  12.339
 1588TIP3   OH226254   1.704   4.210   4.975
 1588TIP3    H126255   1.693   4.116   4.961
 1588TIP3    H226256   1.752   4.217   5.057
 1589TIP3   OH226257   1.965   4.971  15.203
 1589TIP3    H126258   1.934   5.004  15.287
 1589TIP3    H226259   1.938   5.039  15.140
 1590TIP3   OH226260   5.537   4.138   2.863
 1590TIP3    H126261   5.456   4.154   2.814
 1590TIP3    H226262   5.573   4.225   2.878
 1591TIP3   OH226263   3.246   3.677   5.455
 1591TIP3    H126264   3.180   3.613   5.429
 1591TIP3    H226265   3.226   3.696   5.547
 1592TIP3   OH226266   1.379   4.890   3.651
 1592TIP3    H126267   1.456   4.889   3.708
 1592TIP3    H226268   1.321   4.955   3.691
 1593TIP3   OH226269   4.863   0.818   1.345
 1593TIP3    H126270   4.866   0.914   1.345
 1593TIP3    H226271   4.953   0.791   1.323
 1594TIP3   OH226272   3.059   3.423   1.197
 1594TIP3    H126273   3.147   3.451   1.221
 1594TIP3    H226274   3.069   3.331   1.172
 1595TIP3   OH226275   0.495   4.000   4.035
 1595TIP3    H126276   0.403   3.989   4.059
 1595TIP3    H226277   0.492   4.032   3.944
 1596TIP3   OH226278   5.057   5.253   3.449
 1596TIP3    H126279   5.099   5.170   3.469
 1596TIP3    H226280   5.120   5.320   3.476
 1597TIP3   OH226281   4.684   6.014   0.219
 1597TIP3    H126282   4.779   6.022   0.211
 1597TIP3    H226283   4.652   6.008   0.129
 1598TIP3   OH226284   6.580   6.029  15.419
 1598TIP3    H126285   6.628   5.947  15.434
 1598TIP3    H226286   6.610   6.088  15.488
 1599TIP3   OH226287   0.954   5.558   2.074
 1599TIP3    H126288   0.999   5.642   2.076
 1599TIP3    H226289   1.019   5.495   2.103
 1600TIP3   OH226290   3.860   1.533   0.400
 1600TIP3    H126291   3.892   1.461   0.455
 1600TIP3    H226292   3.913   1.609   0.428
 1601TIP3   OH226293   3.896   3.129  15.424
 1601TIP3    H126294   3.920   3.177  15.503
 1601TIP3    H226295   3.979   3.109  15.381
 1602TIP3   OH226296   1.585   4.506  10.602
 1602TIP3    H126297   1.528   4.443  10.645
 1602TIP3    H226298   1.646   4.452  10.551
 1603TIP3   OH226299   4.798   6.607   3.555
 1603TIP3    H126300   4.741   6.569   3.622
 1603TIP3    H226301   4.881   6.621   3.600
 1604TIP3   OH226302   6.641   6.717   2.163
 1604TIP3    H126303   6.675   6.803   2.135
 1604TIP3    H226304   6.548   6.732   2.178
 1605TIP3   OH226305   4.161   2.944  15.586
 1605TIP3    H126306   4.222   2.979  15.520
 1605TIP3    H226307   4.097   3.014  15.598
 1606TIP3   OH226308   4.595   6.194  13.425
 1606TIP3    H126309   4.568   6.281  13.455
 1606TIP3    H226310   4.685   6.185  13.456
 1607TIP3   OH226311   6.744   2.859  11.018
 1607TIP3    H126312   6.750   2.924  11.088
 1607TIP3    H226313   6.824   2.807  11.025
 1608TIP3   OH226314   1.355   3.479  13.870
 1608TIP3    H126315   1.331   3.560  13.915
 1608TIP3    H226316   1.450   3.484  13.862
 1609TIP3   OH226317   6.239   0.859   0.297
 1609TIP3    H126318   6.241   0.897   0.384
 1609TIP3    H226319   6.154   0.884   0.262
 1610TIP3   OH226320   0.644   4.655  16.251
 1610TIP3    H126321   0.581   4.713  16.209
 1610TIP3    H226322   0.728   4.679  16.211
 1611TIP3   OH226323   2.689   0.257   1.693
 1611TIP3    H126324   2.693   0.344   1.654
 1611TIP3    H226325   2.635   0.207   1.632
 1612TIP3   OH226326   6.616   6.119   4.417
 1612TIP3    H126327   6.565   6.066   4.356
 1612TIP3    H226328   6.597   6.080   4.503
 1613TIP3   OH226329   3.357   3.569  10.496
 1613TIP3    H126330   3.366   3.642  10.435
 1613TIP3    H226331   3.271   3.531  10.476
 1614TIP3   OH226332   2.265   5.748   2.526
 1614TIP3    H126333   2.327   5.816   2.552
 1614TIP3    H226334   2.215   5.786   2.454
 1615TIP3   OH226335   5.291   0.368  12.837
 1615TIP3    H126336   5.317   0.329  12.921
 1615TIP3    H226337   5.201   0.337  12.824
 1616TIP3   OH226338   5.920   5.836   1.826
 1616TIP3    H126339   5.883   5.808   1.909
 1616TIP3    H226340   5.994   5.892   1.849
 1617TIP3   OH226341   5.152   4.402   0.132
 1617TIP3    H126342   5.087   4.429   0.197
 1617TIP3    H226343   5.135   4.458   0.056
 1618TIP3   OH226344   0.540   2.730  13.319
 1618TIP3    H126345   0.553   2.774  13.404
 1618TIP3    H226346   0.624   2.690  13.299
 1619TIP3   OH226347   4.062   4.693  11.312
 1619TIP3    H126348   4.043   4.766  11.371
 1619TIP3    H226349   4.156   4.700  11.295
 1620TIP3   OH226350   0.583   5.752   0.084
 1620TIP3    H126351   0.560   5.678   0.029
 1620TIP3    H226352   0.649   5.800   0.035
 1621TIP3   OH226353   4.343   6.058   3.221
 1621TIP3    H126354   4.402   5.989   3.194
 1621TIP3    H226355   4.262   6.042   3.172
 1622TIP3   OH226356   2.724   0.662  15.854
 1622TIP3    H126357   2.709   0.650  15.760
 1622TIP3    H226358   2.636   0.662  15.892
 1623TIP3   OH226359   5.241   6.220   3.690
 1623TIP3    H126360   5.160   6.258   3.723
 1623TIP3    H226361   5.243   6.246   3.597
 1624TIP3   OH226362   3.603   3.581   4.691
 1624TIP3    H126363   3.691   3.616   4.680
 1624TIP3    H226364   3.590   3.523   4.617
 1625TIP3   OH226365   3.157   6.214  15.188
 1625TIP3    H126366   3.245   6.213  15.151
 1625TIP3    H226367   3.156   6.143  15.252
 1626TIP3   OH226368   3.031   4.191  11.032
 1626TIP3    H126369   3.033   4.124  10.964
 1626TIP3    H226370   3.076   4.151  11.106
 1627TIP3   OH226371   3.432   1.156   0.409
 1627TIP3    H126372   3.379   1.183   0.334
 1627TIP3    H226373   3.494   1.228   0.422
 1628TIP3   OH226374   0.152   5.718  12.228
 1628TIP3    H126375   0.118   5.629  12.222
 1628TIP3    H226376   0.121   5.751  12.312
 1629TIP3   OH226377   4.460   6.000   4.012
 1629TIP3    H126378   4.458   6.022   3.919
 1629TIP3    H226379   4.427   5.910   4.017
 1630TIP3   OH226380   3.068   5.091   4.193
 1630TIP3    H126381   3.070   5.158   4.262
 1630TIP3    H226382   2.991   5.039   4.212
 1631TIP3   OH226383   0.484   6.774   3.804
 1631TIP3    H126384   0.400   6.813   3.781
 1631TIP3    H226385   0.538   6.787   3.726
 1632TIP3   OH226386   6.495   0.416  13.683
 1632TIP3    H126387   6.544   0.427  13.765
 1632TIP3    H226388   6.523   0.489  13.628
 1633TIP3   OH226389   0.972   0.881   4.007
 1633TIP3    H126390   0.880   0.872   4.034
 1633TIP3    H226391   0.967   0.903   3.914
 1634TIP3   OH226392   5.905   2.915   4.949
 1634TIP3    H126393   5.857   2.907   5.032
 1634TIP3    H226394   5.914   2.826   4.918
 1635TIP3   OH226395   4.597   1.206   2.028
 1635TIP3    H126396   4.587   1.302   2.028
 1635TIP3    H226397   4.578   1.180   2.118
 1636TIP3   OH226398   5.718   3.307   3.993
 1636TIP3    H126399   5.661   3.231   3.994
 1636TIP3    H226400   5.698   3.353   4.075
 1637TIP3   OH226401   3.617   2.767   0.561
 1637TIP3    H126402   3.686   2.702   0.567
 1637TIP3    H226403   3.536   2.716   0.558
 1638TIP3   OH226404   2.538   1.469   3.728
 1638TIP3    H126405   2.604   1.537   3.738
 1638TIP3    H226406   2.460   1.505   3.771
 1639TIP3   OH226407   2.528   3.120   3.594
 1639TIP3    H126408   2.450   3.091   3.546
 1639TIP3    H226409   2.578   3.170   3.530
 1640TIP3   OH226410   3.512   4.867  15.849
 1640TIP3    H126411   3.603   4.864  15.878
 1640TIP3    H226412   3.474   4.785  15.880
 1641TIP3   OH226413   5.479   6.018  12.933
 1641TIP3    H126414   5.438   5.993  12.850
 1641TIP3    H226415   5.468   6.113  12.938
 1642TIP3   OH226416   3.499   2.583  10.305
 1642TIP3    H126417   3.448   2.650  10.349
 1642TIP3    H226418   3.571   2.630  10.263
 1643TIP3   OH226419   6.454   0.447   6.274
 1643TIP3    H126420   6.424   0.496   6.351
 1643TIP3    H226421   6.549   0.455   6.276
 1644TIP3   OH226422   0.555   4.746   0.801
 1644TIP3    H126423   0.635   4.793   0.826
 1644TIP3    H226424   0.586   4.668   0.756
 1645TIP3   OH226425   1.802   0.135  10.848
 1645TIP3    H126426   1.714   0.103  10.826
 1645TIP3    H226427   1.790   0.229  10.862
 1646TIP3   OH226428   5.295   6.203  12.383
 1646TIP3    H126429   5.212   6.230  12.342
 1646TIP3    H226430   5.306   6.262  12.457
 1647TIP3   OH226431   2.992   2.340   3.533
 1647TIP3    H126432   2.913   2.380   3.568
 1647TIP3    H226433   3.040   2.311   3.610
 1648TIP3   OH226434   1.761   0.897   0.727
 1648TIP3    H126435   1.728   0.810   0.702
 1648TIP3    H226436   1.854   0.883   0.744
 1649TIP3   OH226437   6.392   3.022   2.812
 1649TIP3    H126438   6.468   3.047   2.864
 1649TIP3    H226439   6.329   3.094   2.826
 1650TIP3   OH226440   5.741   3.213   5.840
 1650TIP3    H126441   5.730   3.208   5.935
 1650TIP3    H226442   5.742   3.307   5.822
 1651TIP3   OH226443   1.594   1.902  13.563
 1651TIP3    H126444   1.661   1.846  13.523
 1651TIP3    H226445   1.640   1.982  13.586
 1652TIP3   OH226446   0.977   6.707   0.790
 1652TIP3    H126447   1.065   6.704   0.828
 1652TIP3    H226448   0.992   6.719   0.697
 1653TIP3   OH226449   1.438   6.132   3.429
 1653TIP3    H126450   1.482   6.209   3.463
 1653TIP3    H226451   1.479   6.059   3.475
 1654TIP3   OH226452   1.257   6.080  11.712
 1654TIP3    H126453   1.165   6.058  11.702
 1654TIP3    H226454   1.300   6.041  11.637
 1655TIP3   OH226455   5.647   1.689  14.173
 1655TIP3    H126456   5.683   1.756  14.115
 1655TIP3    H226457   5.718   1.668  14.233
 1656TIP3   OH226458   6.477   1.407   4.276
 1656TIP3    H126459   6.450   1.494   4.308
 1656TIP3    H226460   6.482   1.353   4.355
 1657TIP3   OH226461   3.232   1.146  12.954
 1657TIP3    H126462   3.254   1.155  13.046
 1657TIP3    H226463   3.142   1.178  12.947
 1658TIP3   OH226464   6.453   6.698   3.366
 1658TIP3    H126465   6.429   6.607   3.344
 1658TIP3    H226466   6.369   6.741   3.382
 1659TIP3   OH226467   4.791   0.827  15.948
 1659TIP3    H126468   4.740   0.821  16.028
 1659TIP3    H226469   4.749   0.766  15.887
 1660TIP3   OH226470   6.619   0.207  12.011
 1660TIP3    H126471   6.581   0.262  12.080
 1660TIP3    H226472   6.681   0.264  11.966
 1661TIP3   OH226473   3.463   4.445  13.890
 1661TIP3    H126474   3.548   4.405  13.909
 1661TIP3    H226475   3.399   4.376  13.908
 1662TIP3   OH226476   2.854   2.185   0.823
 1662TIP3    H126477   2.808   2.101   0.829
 1662TIP3    H226478   2.862   2.202   0.729
 1663TIP3   OH226479   5.192   1.171  17.225
 1663TIP3    H126480   5.161   1.213  17.145
 1663TIP3    H226481   5.235   1.091  17.194
 1664TIP3   OH226482   0.009   1.831   3.150
 1664TIP3    H126483   0.058   1.750   3.141
 1664TIP3    H226484   0.068   1.889   3.199
 1665TIP3   OH226485   4.013   1.559   2.901
 1665TIP3    H126486   4.036   1.535   2.990
 1665TIP3    H226487   4.001   1.475   2.856
 1666TIP3   OH226488   5.665   2.753  13.467
 1666TIP3    H126489   5.722   2.720  13.397
 1666TIP3    H226490   5.702   2.718  13.547
 1667TIP3   OH226491   2.641   3.902   2.834
 1667TIP3    H126492   2.574   3.969   2.819
 1667TIP3    H226493   2.642   3.850   2.753
 1668TIP3   OH226494   0.098   2.137  14.867
 1668TIP3    H126495   0.113   2.051  14.907
 1668TIP3    H226496   0.110   2.199  14.939
 1669TIP3   OH226497   2.531   2.530  15.373
 1669TIP3    H126498   2.581   2.604  15.338
 1669TIP3    H226499   2.581   2.453  15.347
 1670TIP3   OH226500   6.331   3.047  13.932
 1670TIP3    H126501   6.362   3.137  13.923
 1670TIP3    H226502   6.400   3.002  13.981
 1671TIP3   OH226503   4.390   3.017  12.759
 1671TIP3    H126504   4.458   3.059  12.706
 1671TIP3    H226505   4.343   2.960  12.699
 1672TIP3   OH226506   1.606   6.799  13.954
 1672TIP3    H126507   1.696   6.770  13.968
 1672TIP3    H226508   1.588   6.860  14.025
 1673TIP3   OH226509   5.454   3.953  12.868
 1673TIP3    H126510   5.417   3.891  12.804
 1673TIP3    H226511   5.545   3.926  12.878
 1674TIP3   OH226512   0.280   2.049   3.141
 1674TIP3    H126513   0.192   2.079   3.119
 1674TIP3    H226514   0.328   2.128   3.164
 1675TIP3   OH226515   6.287   6.202  12.976
 1675TIP3    H126516   6.200   6.168  12.955
 1675TIP3    H226517   6.340   6.183  12.898
 1676TIP3   OH226518   2.832   4.108   2.649
 1676TIP3    H126519   2.785   4.188   2.627
 1676TIP3    H226520   2.807   4.089   2.739
 1677TIP3   OH226521   0.414   2.989   1.365
 1677TIP3    H126522   0.394   3.035   1.283
 1677TIP3    H226523   0.336   2.937   1.383
 1678TIP3   OH226524   0.261   2.163   4.156
 1678TIP3    H126525   0.307   2.134   4.077
 1678TIP3    H226526   0.184   2.210   4.122
 1679TIP3   OH226527   2.663   3.043   5.409
 1679TIP3    H126528   2.672   2.970   5.469
 1679TIP3    H226529   2.570   3.049   5.391
 1680TIP3   OH226530   2.330   4.774   1.917
 1680TIP3    H126531   2.309   4.809   1.830
 1680TIP3    H226532   2.252   4.792   1.969
 1681TIP3   OH226533   6.267   5.616  14.970
 1681TIP3    H126534   6.207   5.662  14.911
 1681TIP3    H226535   6.333   5.579  14.912
 1682TIP3   OH226536   1.077   3.063  15.285
 1682TIP3    H126537   1.153   3.056  15.227
 1682TIP3    H226538   1.032   2.979  15.277
 1683TIP3   OH226539   0.993   2.510  10.956
 1683TIP3    H126540   0.971   2.538  11.045
 1683TIP3    H226541   0.909   2.504  10.912
 1684TIP3   OH226542   6.117   5.283   2.026
 1684TIP3    H126543   6.126   5.359   1.969
 1684TIP3    H226544   6.195   5.231   2.009
 1685TIP3   OH226545   4.059   6.050  17.141
 1685TIP3    H126546   4.087   6.081  17.055
 1685TIP3    H226547   4.013   6.124  17.180
 1686TIP3   OH226548   2.055   4.599  11.411
 1686TIP3    H126549   2.087   4.508  11.410
 1686TIP3    H226550   2.068   4.629  11.321
 1687TIP3   OH226551   3.708   0.167   3.106
 1687TIP3    H126552   3.634   0.227   3.104
 1687TIP3    H226553   3.668   0.080   3.099
 1688TIP3   OH226554   5.084   1.836  16.767
 1688TIP3    H126555   5.124   1.754  16.797
 1688TIP3    H226556   5.155   1.900  16.771
 1689TIP3   OH226557   2.453   2.110   1.224
 1689TIP3    H126558   2.376   2.116   1.280
 1689TIP3    H226559   2.480   2.201   1.210
 1690TIP3   OH226560   3.511   0.482  13.587
 1690TIP3    H126561   3.450   0.413  13.561
 1690TIP3    H226562   3.514   0.540  13.510
 1691TIP3   OH226563   5.699   3.984  16.293
 1691TIP3    H126564   5.633   4.001  16.360
 1691TIP3    H226565   5.765   4.052  16.306
 1692TIP3   OH226566   0.553   5.554  16.252
 1692TIP3    H126567   0.483   5.499  16.288
 1692TIP3    H226568   0.572   5.618  16.321
 1693TIP3   OH226569   0.221   5.955   0.516
 1693TIP3    H126570   0.236   5.907   0.597
 1693TIP3    H226571   0.239   5.891   0.447
 1694TIP3   OH226572   2.489   5.740   2.238
 1694TIP3    H126573   2.498   5.655   2.282
 1694TIP3    H226574   2.480   5.718   2.145
 1695TIP3   OH226575   0.275   6.200   5.536
 1695TIP3    H126576   0.199   6.196   5.595
 1695TIP3    H226577   0.349   6.221   5.593
 1696TIP3   OH226578   5.805   4.315   4.000
 1696TIP3    H126579   5.872   4.259   4.038
 1696TIP3    H226580   5.852   4.373   3.941
 1697TIP3   OH226581   0.700   0.049  17.203
 1697TIP3    H126582   0.670   0.012  17.286
 1697TIP3    H226583   0.716   0.142  17.222
 1698TIP3   OH226584   2.555   1.629  13.346
 1698TIP3    H126585   2.557   1.588  13.260
 1698TIP3    H226586   2.475   1.683  13.345
 1699TIP3   OH226587   5.601   4.203   0.515
 1699TIP3    H126588   5.628   4.237   0.601
 1699TIP3    H226589   5.564   4.117   0.534
 1700TIP3   OH226590   2.373   0.302   0.973
 1700TIP3    H126591   2.426   0.345   1.040
 1700TIP3    H226592   2.383   0.356   0.895
 1701TIP3   OH226593   4.180   5.612  17.040
 1701TIP3    H126594   4.130   5.682  17.081
 1701TIP3    H226595   4.264   5.652  17.017
 1702TIP3   OH226596   6.444   4.062   5.545
 1702TIP3    H126597   6.473   3.973   5.567
 1702TIP3    H226598   6.469   4.074   5.454
 1703TIP3   OH226599   5.775   3.754   2.090
 1703TIP3    H126600   5.778   3.816   2.018
 1703TIP3    H226601   5.703   3.695   2.069
 1704TIP3   OH226602   5.579   5.771   5.524
 1704TIP3    H126603   5.637   5.785   5.599
 1704TIP3    H226604   5.498   5.817   5.547
 1705TIP3   OH226605   2.476   0.922  13.338
 1705TIP3    H126606   2.499   0.971  13.417
 1705TIP3    H226607   2.384   0.944  13.322
 1706TIP3   OH226608   4.533   6.228  13.893
 1706TIP3    H126609   4.566   6.288  13.825
 1706TIP3    H226610   4.571   6.261  13.974
 1707TIP3   OH226611   4.234   3.942  13.867
 1707TIP3    H126612   4.230   3.989  13.783
 1707TIP3    H226613   4.143   3.932  13.893
 1708TIP3   OH226614   1.621   3.469   0.549
 1708TIP3    H126615   1.664   3.426   0.623
 1708TIP3    H226616   1.615   3.561   0.576
 1709TIP3   OH226617   0.144   4.144  12.003
 1709TIP3    H126618   0.220   4.118  12.056
 1709TIP3    H226619   0.082   4.073  12.014
 1710TIP3   OH226620   0.615   5.884   5.053
 1710TIP3    H126621   0.579   5.808   5.007
 1710TIP3    H226622   0.656   5.937   4.985
 1711TIP3   OH226623   2.122   5.886  12.205
 1711TIP3    H126624   2.208   5.844  12.201
 1711TIP3    H226625   2.091   5.869  12.294
 1712TIP3   OH226626   2.044   0.713  12.517
 1712TIP3    H126627   2.038   0.764  12.436
 1712TIP3    H226628   2.131   0.733  12.552
 1713TIP3   OH226629   3.916   2.401   3.221
 1713TIP3    H126630   3.822   2.384   3.213
 1713TIP3    H226631   3.958   2.326   3.181
 1714TIP3   OH226632   3.332   6.569   4.175
 1714TIP3    H126633   3.343   6.593   4.267
 1714TIP3    H226634   3.420   6.549   4.145
 1715TIP3   OH226635   2.939   1.450   0.577
 1715TIP3    H126636   2.981   1.496   0.505
 1715TIP3    H226637   2.978   1.362   0.576
 1716TIP3   OH226638   1.382   1.035  13.757
 1716TIP3    H126639   1.367   1.039  13.851
 1716TIP3    H226640   1.337   0.956  13.729
 1717TIP3   OH226641   0.091   2.352  15.070
 1717TIP3    H126642   0.051   2.339  15.156
 1717TIP3    H226643   0.151   2.425  15.082
 1718TIP3   OH226644   6.590   4.681   4.122
 1718TIP3    H126645   6.520   4.669   4.057
 1718TIP3    H226646   6.586   4.602   4.176
 1719TIP3   OH226647   5.647   3.633   0.603
 1719TIP3    H126648   5.740   3.633   0.624
 1719TIP3    H226649   5.607   3.581   0.673
 1720TIP3   OH226650   2.912   4.376  15.962
 1720TIP3    H126651   2.917   4.453  16.020
 1720TIP3    H226652   2.881   4.305  16.019
 1721TIP3   OH226653   6.201   1.181  17.194
 1721TIP3    H126654   6.262   1.255  17.195
 1721TIP3    H226655   6.119   1.218  17.228
 1722TIP3   OH226656   4.538   2.046   4.724
 1722TIP3    H126657   4.591   2.106   4.777
 1722TIP3    H226658   4.517   1.974   4.783
 1723TIP3   OH226659   1.006   0.330   2.431
 1723TIP3    H126660   0.988   0.379   2.512
 1723TIP3    H226661   0.925   0.283   2.413
 1724TIP3   OH226662   6.318   2.692  12.544
 1724TIP3    H126663   6.253   2.626  12.566
 1724TIP3    H226664   6.333   2.680  12.450
 1725TIP3   OH226665   4.988   5.917  15.605
 1725TIP3    H126666   5.020   6.007  15.605
 1725TIP3    H226667   4.893   5.926  15.615
 1726TIP3   OH226668   1.250   0.601  13.252
 1726TIP3    H126669   1.202   0.554  13.184
 1726TIP3    H226670   1.186   0.611  13.323
 1727TIP3   OH226671   6.349   0.611  15.887
 1727TIP3    H126672   6.412   0.682  15.874
 1727TIP3    H226673   6.264   0.653  15.879
 1728TIP3   OH226674   6.037   0.919  15.681
 1728TIP3    H126675   5.965   0.864  15.713
 1728TIP3    H226676   6.086   0.861  15.622
 1729TIP3   OH226677   1.107   5.106   2.855
 1729TIP3    H126678   1.052   5.153   2.792
 1729TIP3    H226679   1.084   5.144   2.940
 1730TIP3   OH226680   0.381   1.423   3.311
 1730TIP3    H126681   0.393   1.468   3.394
 1730TIP3    H226682   0.461   1.373   3.299
 1731TIP3   OH226683   6.127   0.733  16.213
 1731TIP3    H126684   6.158   0.643  16.222
 1731TIP3    H226685   6.136   0.751  16.119
 1732TIP3   OH226686   6.505   5.303  12.621
 1732TIP3    H126687   6.447   5.229  12.638
 1732TIP3    H226688   6.446   5.374  12.595
 1733TIP3   OH226689   1.856   5.162   4.467
 1733TIP3    H126690   1.839   5.250   4.431
 1733TIP3    H226691   1.878   5.178   4.559
 1734TIP3   OH226692   1.403   3.186  15.794
 1734TIP3    H126693   1.426   3.132  15.719
 1734TIP3    H226694   1.344   3.131  15.846
 1735TIP3   OH226695   5.518   6.230   0.203
 1735TIP3    H126696   5.520   6.135   0.190
 1735TIP3    H226697   5.610   6.256   0.202
 1736TIP3   OH226698   3.130   6.331  13.429
 1736TIP3    H126699   3.077   6.300  13.355
 1736TIP3    H226700   3.208   6.370  13.388
 1737TIP3   OH226701   2.235   3.885   1.871
 1737TIP3    H126702   2.290   3.826   1.922
 1737TIP3    H226703   2.148   3.844   1.873
 1738TIP3   OH226704   0.017   0.781   1.069
 1738TIP3    H126705   0.013   0.758   1.162
 1738TIP3    H226706  -0.057   0.734   1.030
 1739TIP3   OH226707   6.493   5.592  13.986
 1739TIP3    H126708   6.449   5.554  14.062
 1739TIP3    H226709   6.502   5.685  14.007
 1740TIP3   OH226710   4.504   5.770   3.416
 1740TIP3    H126711   4.446   5.781   3.340
 1740TIP3    H226712   4.477   5.686   3.454
 1741TIP3   OH226713   1.742   2.192   6.476
 1741TIP3    H126714   1.651   2.165   6.490
 1741TIP3    H226715   1.788   2.165   6.555
 1742TIP3   OH226716   1.871   1.515   5.656
 1742TIP3    H126717   1.874   1.450   5.586
 1742TIP3    H226718   1.825   1.589   5.618
 1743TIP3   OH226719   6.022   5.573   4.648
 1743TIP3    H126720   6.046   5.553   4.557
 1743TIP3    H226721   6.103   5.604   4.688
 1744TIP3   OH226722   1.757   3.473   1.581
 1744TIP3    H126723   1.673   3.466   1.536
 1744TIP3    H226724   1.748   3.413   1.656
 1745TIP3   OH226725   5.251   0.443   3.959
 1745TIP3    H126726   5.257   0.495   3.878
 1745TIP3    H226727   5.339   0.408   3.971
 1746TIP3   OH226728   4.644   3.096   1.030
 1746TIP3    H126729   4.715   3.148   1.069
 1746TIP3    H226730   4.688   3.041   0.965
 1747TIP3   OH226731   0.270   0.045   2.050
 1747TIP3    H126732   0.293   0.127   2.094
 1747TIP3    H226733   0.319   0.047   1.968
 1748TIP3   OH226734   0.894   4.080   2.936
 1748TIP3    H126735   0.852   3.997   2.958
 1748TIP3    H226736   0.836   4.147   2.972
 1749TIP3   OH226737   6.723   2.251   4.089
 1749TIP3    H126738   6.734   2.343   4.065
 1749TIP3    H226739   6.768   2.203   4.019
 1750TIP3   OH226740   6.300   4.407  11.133
 1750TIP3    H126741   6.370   4.463  11.100
 1750TIP3    H226742   6.331   4.318  11.116
 1751TIP3   OH226743   0.516   4.285   4.197
 1751TIP3    H126744   0.480   4.292   4.108
 1751TIP3    H226745   0.568   4.204   4.195
 1752TIP3   OH226746   3.539   1.492  11.928
 1752TIP3    H126747   3.455   1.446  11.921
 1752TIP3    H226748   3.585   1.469  11.847
 1753TIP3   OH226749   3.352   0.101   4.205
 1753TIP3    H126750   3.392   0.056   4.130
 1753TIP3    H226751   3.425   0.145   4.248
 1754TIP3   OH226752   5.750   5.309   3.086
 1754TIP3    H126753   5.741   5.259   3.005
 1754TIP3    H226754   5.802   5.385   3.061
 1755TIP3   OH226755   3.602   1.183  16.293
 1755TIP3    H126756   3.626   1.231  16.213
 1755TIP3    H226757   3.507   1.195  16.300
 1756TIP3   OH226758   1.503   4.632   0.827
 1756TIP3    H126759   1.570   4.693   0.858
 1756TIP3    H226760   1.506   4.559   0.889
 1757TIP3   OH226761   6.696   6.625   6.032
 1757TIP3    H126762   6.668   6.533   6.021
 1757TIP3    H226763   6.713   6.634   6.126
 1758TIP3   OH226764   2.337   5.976   3.332
 1758TIP3    H126765   2.248   6.001   3.308
 1758TIP3    H226766   2.354   5.896   3.284
 1759TIP3   OH226767   3.509   4.198  13.696
 1759TIP3    H126768   3.593   4.211  13.741
 1759TIP3    H226769   3.456   4.149  13.758
 1760TIP3   OH226770   1.688   0.030   2.589
 1760TIP3    H126771   1.742  -0.033   2.541
 1760TIP3    H226772   1.620  -0.024   2.631
 1761TIP3   OH226773   3.315   6.631  14.408
 1761TIP3    H126774   3.408   6.650  14.422
 1761TIP3    H226775   3.315   6.564  14.339
 1762TIP3   OH226776   3.953   3.728   0.222
 1762TIP3    H126777   4.009   3.676   0.164
 1762TIP3    H226778   3.955   3.816   0.184
 1763TIP3   OH226779   0.010   2.127   3.855
 1763TIP3    H126780   0.022   2.041   3.894
 1763TIP3    H226781   0.059   2.123   3.772
 1764TIP3   OH226782   0.881   0.888  13.054
 1764TIP3    H126783   0.957   0.943  13.035
 1764TIP3    H226784   0.806   0.941  13.027
 1765TIP3   OH226785   0.379   6.646  15.967
 1765TIP3    H126786   0.311   6.585  15.937
 1765TIP3    H226787   0.413   6.606  16.047
 1766TIP3   OH226788   0.487   4.072   0.076
 1766TIP3    H126789   0.562   4.123   0.045
 1766TIP3    H226790   0.526   3.990   0.107
 1767TIP3   OH226791   0.200   4.026  17.264
 1767TIP3    H126792   0.190   3.941  17.307
 1767TIP3    H226793   0.284   4.059  17.297
 1768TIP3   OH226794   2.252   4.646  16.301
 1768TIP3    H126795   2.200   4.727  16.301
 1768TIP3    H226796   2.257   4.622  16.394
 1769TIP3   OH226797   5.142   4.610  16.592
 1769TIP3    H126798   5.122   4.552  16.518
 1769TIP3    H226799   5.207   4.671  16.557
 1770TIP3   OH226800   4.820   4.220  11.841
 1770TIP3    H126801   4.781   4.157  11.782
 1770TIP3    H226802   4.904   4.242  11.800
 1771TIP3   OH226803   3.754   4.066  14.553
 1771TIP3    H126804   3.810   4.023  14.488
 1771TIP3    H226805   3.665   4.056  14.518
 1772TIP3   OH226806   4.010   3.774  14.614
 1772TIP3    H126807   3.945   3.803  14.550
 1772TIP3    H226808   3.959   3.761  14.694
 1773TIP3   OH226809   4.446   2.133  14.471
 1773TIP3    H126810   4.433   2.039  14.471
 1773TIP3    H226811   4.537   2.146  14.499
 1774TIP3   OH226812   1.682   2.420  12.183
 1774TIP3    H126813   1.611   2.401  12.122
 1774TIP3    H226814   1.761   2.415  12.129
 1775TIP3   OH226815   3.361   2.612   2.077
 1775TIP3    H126816   3.432   2.668   2.107
 1775TIP3    H226817   3.316   2.665   2.011
 1776TIP3   OH226818   5.541   2.007   0.372
 1776TIP3    H126819   5.593   2.072   0.419
 1776TIP3    H226820   5.536   1.932   0.432
 1777TIP3   OH226821   2.697   5.995   5.652
 1777TIP3    H126822   2.636   5.923   5.637
 1777TIP3    H226823   2.643   6.074   5.651
 1778TIP3   OH226824   0.686   0.084  13.543
 1778TIP3    H126825   0.714   0.137  13.468
 1778TIP3    H226826   0.604   0.124  13.572
 1779TIP3   OH226827   0.726   3.222  13.357
 1779TIP3    H126828   0.806   3.263  13.390
 1779TIP3    H226829   0.717   3.142  13.407
 1780TIP3   OH226830   0.457   4.252  16.510
 1780TIP3    H126831   0.362   4.263  16.515
 1780TIP3    H226832   0.469   4.191  16.436
 1781TIP3   OH226833   6.382   6.144  16.451
 1781TIP3    H126834   6.325   6.142  16.374
 1781TIP3    H226835   6.322   6.132  16.525
 1782TIP3   OH226836   0.633   4.205   6.753
 1782TIP3    H126837   0.637   4.112   6.775
 1782TIP3    H226838   0.575   4.243   6.819
 1783TIP3   OH226839   3.273   4.351  16.464
 1783TIP3    H126840   3.275   4.433  16.514
 1783TIP3    H226841   3.318   4.373  16.382
 1784TIP3   OH226842   1.722   3.191  11.480
 1784TIP3    H126843   1.756   3.102  11.487
 1784TIP3    H226844   1.628   3.182  11.493
 1785TIP3   OH226845   3.277   5.571  11.803
 1785TIP3    H126846   3.230   5.509  11.748
 1785TIP3    H226847   3.212   5.637  11.827
 1786TIP3   OH226848   2.426   0.345  15.015
 1786TIP3    H126849   2.419   0.441  15.017
 1786TIP3    H226850   2.403   0.321  14.926
 1787TIP3   OH226851   0.071   0.534   5.422
 1787TIP3    H126852   0.090   0.627   5.420
 1787TIP3    H226853   0.144   0.493   5.376
 1788TIP3   OH226854   6.567   0.333  10.611
 1788TIP3    H126855   6.549   0.425  10.629
 1788TIP3    H226856   6.623   0.335  10.533
 1789TIP3   OH226857   0.070   2.706  13.601
 1789TIP3    H126858   0.029   2.749  13.526
 1789TIP3    H226859   0.042   2.757  13.677
 1790TIP3   OH226860   1.022   5.398  13.375
 1790TIP3    H126861   1.081   5.397  13.300
 1790TIP3    H226862   0.936   5.420  13.339
 1791TIP3   OH226863   1.726   3.249  15.554
 1791TIP3    H126864   1.650   3.193  15.538
 1791TIP3    H226865   1.726   3.310  15.480
 1792TIP3   OH226866   5.635   1.390   5.099
 1792TIP3    H126867   5.677   1.469   5.134
 1792TIP3    H226868   5.701   1.352   5.041
 1793TIP3   OH226869   1.361   1.042  15.772
 1793TIP3    H126870   1.339   0.965  15.824
 1793TIP3    H226871   1.352   1.013  15.681
 1794TIP3   OH226872   1.000   4.041  14.426
 1794TIP3    H126873   1.040   4.119  14.388
 1794TIP3    H226874   1.021   3.970  14.364
 1795TIP3   OH226875   4.558   0.797   0.639
 1795TIP3    H126876   4.546   0.796   0.734
 1795TIP3    H226877   4.651   0.815   0.627
 1796TIP3   OH226878   0.716   3.156   2.213
 1796TIP3    H126879   0.785   3.141   2.147
 1796TIP3    H226880   0.735   3.243   2.249
 1797TIP3   OH226881   3.426   3.751   5.262
 1797TIP3    H126882   3.380   3.734   5.180
 1797TIP3    H226883   3.358   3.742   5.330
 1798TIP3   OH226884   5.571   6.678  13.061
 1798TIP3    H126885   5.662   6.692  13.087
 1798TIP3    H226886   5.578   6.628  12.979
 1799TIP3   OH226887   0.783   3.499   0.750
 1799TIP3    H126888   0.716   3.473   0.813
 1799TIP3    H226889   0.767   3.444   0.674
 1800TIP3   OH226890   1.486   5.861   6.689
 1800TIP3    H126891   1.453   5.772   6.688
 1800TIP3    H226892   1.570   5.856   6.733
 1801TIP3   OH226893   1.575   6.597  14.960
 1801TIP3    H126894   1.492   6.617  14.917
 1801TIP3    H226895   1.570   6.503  14.980
 1802TIP3   OH226896   6.520   6.614  12.309
 1802TIP3    H126897   6.460   6.540  12.312
 1802TIP3    H226898   6.607   6.576  12.318
 1803TIP3   OH226899   3.930   1.304   2.130
 1803TIP3    H126900   3.844   1.336   2.158
 1803TIP3    H226901   3.966   1.375   2.079
 1804TIP3   OH226902   3.569   3.754   2.909
 1804TIP3    H126903   3.579   3.831   2.852
 1804TIP3    H226904   3.505   3.781   2.974
 1805TIP3   OH226905   3.737   2.518   0.014
 1805TIP3    H126906   3.743   2.533  -0.081
 1805TIP3    H226907   3.826   2.494   0.040
 1806TIP3   OH226908   6.102   4.364   2.686
 1806TIP3    H126909   6.059   4.299   2.741
 1806TIP3    H226910   6.035   4.432   2.672
 1807TIP3   OH226911   2.883   5.690  16.770
 1807TIP3    H126912   2.955   5.663  16.826
 1807TIP3    H226913   2.904   5.653  16.684
 1808TIP3   OH226914   6.520   2.178  13.252
 1808TIP3    H126915   6.544   2.214  13.337
 1808TIP3    H226916   6.602   2.178  13.202
 1809TIP3   OH226917   0.807   4.094   1.343
 1809TIP3    H126918   0.768   4.046   1.416
 1809TIP3    H226919   0.787   4.041   1.266
 1810TIP3   OH226920   3.062   3.210  14.641
 1810TIP3    H126921   3.116   3.242  14.569
 1810TIP3    H226922   2.978   3.254  14.628
 1811TIP3   OH226923   2.922   5.251  15.912
 1811TIP3    H126924   2.963   5.165  15.924
 1811TIP3    H226925   2.907   5.258  15.818
 1812TIP3   OH226926   2.644   5.180  15.572
 1812TIP3    H126927   2.724   5.195  15.623
 1812TIP3    H226928   2.656   5.094  15.533
 1813TIP3   OH226929   5.751   4.349   0.327
 1813TIP3    H126930   5.730   4.436   0.360
 1813TIP3    H226931   5.684   4.292   0.366
 1814TIP3   OH226932   3.221   3.214   5.383
 1814TIP3    H126933   3.187   3.278   5.445
 1814TIP3    H226934   3.201   3.129   5.422
 1815TIP3   OH226935   4.656   6.669  15.837
 1815TIP3    H126936   4.689   6.755  15.809
 1815TIP3    H226937   4.562   6.681  15.845
 1816TIP3   OH226938   4.278   2.017  16.830
 1816TIP3    H126939   4.301   2.012  16.923
 1816TIP3    H226940   4.308   2.104  16.803
 1817TIP3   OH226941   3.402   3.850   3.852
 1817TIP3    H126942   3.368   3.878   3.938
 1817TIP3    H226943   3.324   3.824   3.803
 1818TIP3   OH226944   6.742   0.420   5.607
 1818TIP3    H126945   6.804   0.467   5.551
 1818TIP3    H226946   6.736   0.333   5.568
 1819TIP3   OH226947   1.823   4.522   4.521
 1819TIP3    H126948   1.865   4.480   4.446
 1819TIP3    H226949   1.759   4.581   4.483
 1820TIP3   OH226950   5.712   3.389   5.449
 1820TIP3    H126951   5.689   3.480   5.432
 1820TIP3    H226952   5.652   3.361   5.518
 1821TIP3   OH226953   5.392   4.893  15.515
 1821TIP3    H126954   5.467   4.905  15.457
 1821TIP3    H226955   5.318   4.930  15.466
 1822TIP3   OH226956   4.436   6.558   5.065
 1822TIP3    H126957   4.521   6.601   5.071
 1822TIP3    H226958   4.407   6.551   5.156
 1823TIP3   OH226959   4.775   6.461  17.137
 1823TIP3    H126960   4.758   6.462  17.043
 1823TIP3    H226961   4.732   6.540  17.170
 1824TIP3   OH226962   4.484   4.753   3.835
 1824TIP3    H126963   4.529   4.835   3.856
 1824TIP3    H226964   4.505   4.737   3.743
 1825TIP3   OH226965   6.486   6.696   1.314
 1825TIP3    H126966   6.560   6.674   1.371
 1825TIP3    H226967   6.422   6.628   1.330
 1826TIP3   OH226968   3.832   1.434  13.079
 1826TIP3    H126969   3.819   1.495  13.151
 1826TIP3    H226970   3.758   1.449  13.020
 1827TIP3   OH226971   3.305   1.255  13.558
 1827TIP3    H126972   3.400   1.259  13.554
 1827TIP3    H226973   3.276   1.318  13.491
 1828TIP3   OH226974   2.543   3.440   3.471
 1828TIP3    H126975   2.619   3.480   3.513
 1828TIP3    H226976   2.577   3.360   3.431
 1829TIP3   OH226977   0.575   2.128   4.991
 1829TIP3    H126978   0.614   2.051   4.950
 1829TIP3    H226979   0.558   2.187   4.918
 1830TIP3   OH226980   4.636   0.067   2.199
 1830TIP3    H126981   4.638   0.008   2.274
 1830TIP3    H226982   4.648   0.154   2.237
 1831TIP3   OH226983   0.080   6.475   1.590
 1831TIP3    H126984   0.122   6.412   1.531
 1831TIP3    H226985   0.093   6.439   1.677
 1832TIP3   OH226986   1.420   6.308   0.982
 1832TIP3    H126987   1.421   6.401   0.958
 1832TIP3    H226988   1.463   6.264   0.908
 1833TIP3   OH226989   6.299   4.416   1.699
 1833TIP3    H126990   6.284   4.325   1.676
 1833TIP3    H226991   6.217   4.444   1.740
 1834TIP3   OH226992   3.554   3.366   4.529
 1834TIP3    H126993   3.526   3.308   4.600
 1834TIP3    H226994   3.475   3.382   4.478
 1835TIP3   OH226995   3.052   3.465  15.623
 1835TIP3    H126996   3.015   3.523  15.555
 1835TIP3    H226997   3.141   3.449  15.593
 1836TIP3   OH226998   2.010   3.982  16.282
 1836TIP3    H126999   1.995   4.041  16.208
 1836TIP3    H227000   2.104   3.987  16.299
 1837TIP3   OH227001   4.992   6.379  14.741
 1837TIP3    H127002   5.033   6.319  14.803
 1837TIP3    H227003   4.911   6.406  14.784
 1838TIP3   OH227004   2.448   2.938   1.211
 1838TIP3    H127005   2.531   2.951   1.167
 1838TIP3    H227006   2.397   3.017   1.192
 1839TIP3   OH227007   0.772   6.493   1.557
 1839TIP3    H127008   0.775   6.446   1.474
 1839TIP3    H227009   0.854   6.470   1.600
 1840TIP3   OH227010   2.016   3.119  15.946
 1840TIP3    H127011   1.934   3.167  15.939
 1840TIP3    H227012   2.070   3.154  15.876
 1841TIP3   OH227013   4.248   2.018   1.020
 1841TIP3    H127014   4.213   2.083   0.960
 1841TIP3    H227015   4.180   2.007   1.087
 1842TIP3   OH227016   2.779   0.344  14.678
 1842TIP3    H127017   2.699   0.380  14.641
 1842TIP3    H227018   2.824   0.303  14.604
 1843TIP3   OH227019   2.254   0.710   1.322
 1843TIP3    H127020   2.214   0.754   1.247
 1843TIP3    H227021   2.231   0.764   1.397
 1844TIP3   OH227022   5.909   4.218   1.648
 1844TIP3    H127023   5.814   4.215   1.657
 1844TIP3    H227024   5.924   4.216   1.553
 1845TIP3   OH227025   6.161   4.097  14.846
 1845TIP3    H127026   6.141   4.094  14.940
 1845TIP3    H227027   6.125   4.181  14.817
 1846TIP3   OH227028   6.260   2.658   0.408
 1846TIP3    H127029   6.207   2.714   0.465
 1846TIP3    H227030   6.326   2.717   0.372
 1847TIP3   OH227031   6.489   6.521   5.288
 1847TIP3    H127032   6.402   6.519   5.328
 1847TIP3    H227033   6.539   6.580   5.343
 1848TIP3   OH227034   3.699   5.737  12.306
 1848TIP3    H127035   3.617   5.775  12.275
 1848TIP3    H227036   3.704   5.762  12.398
 1849TIP3   OH227037   5.756   6.790   5.818
 1849TIP3    H127038   5.776   6.829   5.733
 1849TIP3    H227039   5.700   6.855   5.861
 1850TIP3   OH227040   1.062   6.541  14.242
 1850TIP3    H127041   1.107   6.620  14.210
 1850TIP3    H227042   1.124   6.470  14.223
 1851TIP3   OH227043   3.784   2.973   0.186
 1851TIP3    H127044   3.730   2.923   0.248
 1851TIP3    H227045   3.769   3.064   0.210
 1852TIP3   OH227046   3.460   5.498   6.325
 1852TIP3    H127047   3.381   5.459   6.286
 1852TIP3    H227048   3.428   5.578   6.367
 1853TIP3   OH227049   5.882   0.721  11.461
 1853TIP3    H127050   5.957   0.750  11.512
 1853TIP3    H227051   5.915   0.713  11.372
 1854TIP3   OH227052   0.679   4.458   1.541
 1854TIP3    H127053   0.713   4.546   1.559
 1854TIP3    H227054   0.757   4.402   1.541
 1855TIP3   OH227055   4.051   6.433  12.327
 1855TIP3    H127056   4.108   6.377  12.274
 1855TIP3    H227057   3.962   6.409  12.301
 1856TIP3   OH227058   5.221   1.563   3.810
 1856TIP3    H127059   5.292   1.499   3.811
 1856TIP3    H227060   5.202   1.576   3.717
 1857TIP3   OH227061   3.902   3.810   5.795
 1857TIP3    H127062   3.867   3.858   5.870
 1857TIP3    H227063   3.857   3.725   5.798
 1858TIP3   OH227064   3.869   6.055   4.627
 1858TIP3    H127065   3.894   6.081   4.715
 1858TIP3    H227066   3.926   5.982   4.605
 1859TIP3   OH227067   6.019   3.374   2.236
 1859TIP3    H127068   6.104   3.331   2.244
 1859TIP3    H227069   6.033   3.462   2.272
 1860TIP3   OH227070   0.787   3.450  11.735
 1860TIP3    H127071   0.851   3.508  11.776
 1860TIP3    H227072   0.788   3.473  11.642
 1861TIP3   OH227073   2.063   0.528  14.840
 1861TIP3    H127074   2.002   0.566  14.776
 1861TIP3    H227075   2.146   0.574  14.825
 1862TIP3   OH227076   5.126   5.874   2.649
 1862TIP3    H127077   5.073   5.839   2.721
 1862TIP3    H227078   5.211   5.892   2.688
 1863TIP3   OH227079   4.217   4.157  13.669
 1863TIP3    H127080   4.170   4.206  13.736
 1863TIP3    H227081   4.309   4.169  13.690
 1864TIP3   OH227082   4.608   5.695  12.616
 1864TIP3    H127083   4.693   5.651  12.618
 1864TIP3    H227084   4.556   5.644  12.554
 1865TIP3   OH227085   1.732   4.829  16.193
 1865TIP3    H127086   1.756   4.784  16.112
 1865TIP3    H227087   1.639   4.850  16.182
 1866TIP3   OH227088   5.526   5.823  13.465
 1866TIP3    H127089   5.511   5.753  13.528
 1866TIP3    H227090   5.455   5.885  13.480
 1867TIP3   OH227091   4.625   5.438  14.567
 1867TIP3    H127092   4.567   5.483  14.629
 1867TIP3    H227093   4.669   5.371  14.621
 1868TIP3   OH227094   6.372   4.880  12.992
 1868TIP3    H127095   6.452   4.932  12.997
 1868TIP3    H227096   6.378   4.835  12.908
 1869TIP3   OH227097   6.030   6.080   3.369
 1869TIP3    H127098   6.006   6.026   3.293
 1869TIP3    H227099   5.959   6.065   3.432
 1870TIP3   OH227100   6.763   5.385   2.000
 1870TIP3    H127101   6.809   5.466   1.978
 1870TIP3    H227102   6.763   5.383   2.096
 1871TIP3   OH227103   5.487   1.886   2.366
 1871TIP3    H127104   5.573   1.918   2.393
 1871TIP3    H227105   5.427   1.925   2.430
 1872TIP3   OH227106   3.147   3.370  15.354
 1872TIP3    H127107   3.157   3.279  15.382
 1872TIP3    H227108   3.123   3.365  15.262
 1873TIP3   OH227109   0.320   6.783  14.579
 1873TIP3    H127110   0.396   6.774  14.521
 1873TIP3    H227111   0.358   6.791  14.666
 1874TIP3   OH227112   0.751   0.501   3.478
 1874TIP3    H127113   0.826   0.474   3.423
 1874TIP3    H227114   0.674   0.475   3.427
 1875TIP3   OH227115   0.705   6.147  12.336
 1875TIP3    H127116   0.742   6.224  12.379
 1875TIP3    H227117   0.626   6.179  12.293
 1876TIP3   OH227118   3.561   0.688   5.281
 1876TIP3    H127119   3.538   0.699   5.189
 1876TIP3    H227120   3.557   0.594   5.296
 1877TIP3   OH227121   6.217   0.468  14.731
 1877TIP3    H127122   6.211   0.519  14.650
 1877TIP3    H227123   6.283   0.401  14.713
 1878TIP3   OH227124   2.215   3.413  16.272
 1878TIP3    H127125   2.163   3.374  16.342
 1878TIP3    H227126   2.215   3.347  16.202
 1879TIP3   OH227127   3.844   2.888   6.057
 1879TIP3    H127128   3.891   2.893   5.974
 1879TIP3    H227129   3.805   2.975   6.068
 1880TIP3   OH227130   0.081   1.024  14.945
 1880TIP3    H127131   0.113   0.937  14.922
 1880TIP3    H227132   0.160   1.072  14.971
 1881TIP3   OH227133   5.583   6.615  15.348
 1881TIP3    H127134   5.668   6.574  15.332
 1881TIP3    H227135   5.546   6.564  15.420
 1882TIP3   OH227136   4.053   3.599   1.339
 1882TIP3    H127137   4.058   3.692   1.319
 1882TIP3    H227138   3.967   3.572   1.307
 1883TIP3   OH227139   5.668   4.864   2.433
 1883TIP3    H127140   5.660   4.773   2.403
 1883TIP3    H227141   5.593   4.878   2.491
 1884TIP3   OH227142   0.326   4.271  13.508
 1884TIP3    H127143   0.233   4.295  13.511
 1884TIP3    H227144   0.371   4.345  13.550
 1885TIP3   OH227145   4.128   2.228   5.705
 1885TIP3    H127146   4.036   2.244   5.688
 1885TIP3    H227147   4.174   2.292   5.652
 1886TIP3   OH227148   6.220   6.360   4.930
 1886TIP3    H127149   6.163   6.391   5.000
 1886TIP3    H227150   6.252   6.440   4.888
 1887TIP3   OH227151   0.717   5.830  15.262
 1887TIP3    H127152   0.709   5.787  15.348
 1887TIP3    H227153   0.682   5.918  15.276
 1888TIP3   OH227154   0.391   1.867  12.936
 1888TIP3    H127155   0.410   1.791  12.881
 1888TIP3    H227156   0.420   1.841  13.023
 1889TIP3   OH227157   0.899   2.413   6.639
 1889TIP3    H127158   0.853   2.497   6.637
 1889TIP3    H227159   0.983   2.433   6.681
 1890TIP3   OH227160   0.779   1.733  11.766
 1890TIP3    H127161   0.747   1.651  11.804
 1890TIP3    H227162   0.707   1.794  11.776
 1891TIP3   OH227163   0.263   0.657   3.355
 1891TIP3    H127164   0.282   0.690   3.267
 1891TIP3    H227165   0.232   0.568   3.341
 1892TIP3   OH227166   6.764   1.717  11.345
 1892TIP3    H127167   6.819   1.785  11.384
 1892TIP3    H227168   6.794   1.712  11.254
 1893TIP3   OH227169   0.568   1.161   5.664
 1893TIP3    H127170   0.662   1.175   5.673
 1893TIP3    H227171   0.547   1.098   5.733
 1894TIP3   OH227172   0.858   0.853   0.897
 1894TIP3    H127173   0.895   0.825   0.814
 1894TIP3    H227174   0.807   0.931   0.876
 1895TIP3   OH227175   5.605   4.951   5.700
 1895TIP3    H127176   5.575   5.005   5.773
 1895TIP3    H227177   5.555   4.869   5.708
 1896TIP3   OH227178   1.846   6.067   3.315
 1896TIP3    H127179   1.917   6.017   3.274
 1896TIP3    H227180   1.808   6.006   3.379
 1897TIP3   OH227181   0.405   4.642   3.458
 1897TIP3    H127182   0.425   4.682   3.373
 1897TIP3    H227183   0.461   4.689   3.520
 1898TIP3   OH227184   2.562   6.608   2.189
 1898TIP3    H127185   2.636   6.654   2.229
 1898TIP3    H227186   2.524   6.558   2.261
 1899TIP3   OH227187   2.770   2.073   1.883
 1899TIP3    H127188   2.820   2.150   1.909
 1899TIP3    H227189   2.685   2.107   1.855
 1900TIP3   OH227190   5.304   0.592  16.381
 1900TIP3    H127191   5.392   0.630  16.379
 1900TIP3    H227192   5.292   0.564  16.472
 1901TIP3   OH227193   1.706   3.112   5.297
 1901TIP3    H127194   1.739   3.116   5.387
 1901TIP3    H227195   1.641   3.182   5.292
 1902TIP3   OH227196   3.917   1.805  12.246
 1902TIP3    H127197   3.960   1.873  12.299
 1902TIP3    H227198   3.950   1.722  12.283
 1903TIP3   OH227199   0.012   6.693  13.917
 1903TIP3    H127200  -0.052   6.644  13.968
 1903TIP3    H227201   0.049   6.757  13.978
 1904TIP3   OH227202   0.273   0.415   5.288
 1904TIP3    H127203   0.355   0.444   5.330
 1904TIP3    H227204   0.301   0.350   5.223
 1905TIP3   OH227205   2.391   5.956  16.128
 1905TIP3    H127206   2.371   5.864  16.110
 1905TIP3    H227207   2.433   5.955  16.214
 1906TIP3   OH227208   6.688   3.334  12.880
 1906TIP3    H127209   6.693   3.317  12.974
 1906TIP3    H227210   6.779   3.335  12.851
 1907TIP3   OH227211   0.764   0.960  13.586
 1907TIP3    H127212   0.779   0.865  13.582
 1907TIP3    H227213   0.677   0.969  13.623
 1908TIP3   OH227214   3.653   2.466  16.308
 1908TIP3    H127215   3.739   2.445  16.344
 1908TIP3    H227216   3.599   2.390  16.329
 1909TIP3   OH227217   0.829   4.374  13.530
 1909TIP3    H127218   0.914   4.408  13.502
 1909TIP3    H227219   0.795   4.327  13.454
 1910TIP3   OH227220   4.037   6.721  12.951
 1910TIP3    H127221   4.062   6.694  12.863
 1910TIP3    H227222   4.023   6.639  12.999
 1911TIP3   OH227223   0.531   5.255   3.588
 1911TIP3    H127224   0.575   5.170   3.589
 1911TIP3    H227225   0.592   5.314   3.632
 1912TIP3   OH227226   0.350   3.775  15.109
 1912TIP3    H127227   0.271   3.763  15.056
 1912TIP3    H227228   0.397   3.692  15.101
 1913TIP3   OH227229   5.825   4.114  13.232
 1913TIP3    H127230   5.756   4.173  13.264
 1913TIP3    H227231   5.778   4.039  13.196
 1914TIP3   OH227232   4.615   5.213   1.955
 1914TIP3    H127233   4.535   5.257   1.926
 1914TIP3    H227234   4.628   5.245   2.044
 1915TIP3   OH227235   4.969   6.546  13.368
 1915TIP3    H127236   5.001   6.600  13.295
 1915TIP3    H227237   5.008   6.460  13.353
 1916TIP3   OH227238   0.330   2.634   1.307
 1916TIP3    H127239   0.254   2.581   1.332
 1916TIP3    H227240   0.291   2.715   1.272
 1917TIP3   OH227241   1.650   1.748   5.337
 1917TIP3    H127242   1.657   1.733   5.431
 1917TIP3    H227243   1.689   1.671   5.296
 1918TIP3   OH227244   4.715   3.913  15.457
 1918TIP3    H127245   4.768   3.868  15.391
 1918TIP3    H227246   4.649   3.961  15.405
 1919TIP3   OH227247   6.593   1.805   0.207
 1919TIP3    H127248   6.679   1.785   0.244
 1919TIP3    H227249   6.601   1.895   0.176
 1920TIP3   OH227250   3.125   3.103   1.942
 1920TIP3    H127251   3.118   3.014   1.909
 1920TIP3    H227252   3.050   3.149   1.904
 1921TIP3   OH227253   3.385   2.174  12.384
 1921TIP3    H127254   3.477   2.162  12.363
 1921TIP3    H227255   3.353   2.086  12.404
 1922TIP3   OH227256   3.424   2.777  12.375
 1922TIP3    H127257   3.340   2.820  12.362
 1922TIP3    H227258   3.460   2.767  12.286
 1923TIP3   OH227259   4.211   1.308  11.619
 1923TIP3    H127260   4.293   1.350  11.593
 1923TIP3    H227261   4.142   1.360  11.577
 1924TIP3   OH227262   6.507   4.676  15.052
 1924TIP3    H127263   6.457   4.629  15.118
 1924TIP3    H227264   6.582   4.619  15.034
 1925TIP3   OH227265   1.627   4.017  16.751
 1925TIP3    H127266   1.644   4.110  16.769
 1925TIP3    H227267   1.555   3.994  16.808
 1926TIP3   OH227268   4.000   2.898  15.909
 1926TIP3    H127269   4.017   2.877  16.001
 1926TIP3    H227270   3.929   2.839  15.884
 1927TIP3   OH227271   3.802   2.166  14.303
 1927TIP3    H127272   3.876   2.205  14.351
 1927TIP3    H227273   3.761   2.241  14.259
 1928TIP3   OH227274   0.070   4.146   6.030
 1928TIP3    H127275   0.065   4.149   6.125
 1928TIP3    H227276   0.157   4.180   6.009
 1929TIP3   OH227277   5.885   0.766  16.656
 1929TIP3    H127278   5.870   0.677  16.689
 1929TIP3    H227279   5.930   0.811  16.727
 1930TIP3   OH227280   1.952   3.649   0.165
 1930TIP3    H127281   1.988   3.579   0.220
 1930TIP3    H227282   1.858   3.631   0.164
 1931TIP3   OH227283   3.327   1.172   6.080
 1931TIP3    H127284   3.286   1.157   6.165
 1931TIP3    H227285   3.359   1.262   6.084
 1932TIP3   OH227286   1.319   5.369  16.244
 1932TIP3    H127287   1.296   5.459  16.266
 1932TIP3    H227288   1.327   5.369  16.149
 1933TIP3   OH227289   2.509   6.026  12.455
 1933TIP3    H127290   2.565   6.095  12.420
 1933TIP3    H227291   2.514   5.955  12.392
 1934TIP3   OH227292   0.848   4.307  16.368
 1934TIP3    H127293   0.860   4.241  16.436
 1934TIP3    H227294   0.834   4.388  16.416
 1935TIP3   OH227295   5.247   4.375   6.115
 1935TIP3    H127296   5.225   4.290   6.079
 1935TIP3    H227297   5.231   4.437   6.043
 1936TIP3   OH227298   4.780   5.900   3.779
 1936TIP3    H127299   4.758   5.913   3.687
 1936TIP3    H227300   4.793   5.988   3.814
 1937TIP3   OH227301   6.152   3.205   3.466
 1937TIP3    H127302   6.164   3.300   3.457
 1937TIP3    H227303   6.058   3.192   3.455
 1938TIP3   OH227304   1.797   0.162   3.217
 1938TIP3    H127305   1.707   0.155   3.247
 1938TIP3    H227306   1.841   0.214   3.286
 1939TIP3   OH227307   4.594   0.752  13.310
 1939TIP3    H127308   4.518   0.699  13.335
 1939TIP3    H227309   4.633   0.780  13.393
 1940TIP3   OH227310   1.847   4.385  15.999
 1940TIP3    H127311   1.911   4.408  16.067
 1940TIP3    H227312   1.763   4.414  16.034
 1941TIP3   OH227313   5.836   0.386  15.665
 1941TIP3    H127314   5.881   0.342  15.737
 1941TIP3    H227315   5.765   0.327  15.641
 1942TIP3   OH227316   1.142   6.493  14.799
 1942TIP3    H127317   1.077   6.529  14.739
 1942TIP3    H227318   1.180   6.419  14.753
 1943TIP3   OH227319   3.131   4.921   5.531
 1943TIP3    H127320   3.081   4.918   5.449
 1943TIP3    H227321   3.089   4.991   5.581
 1944TIP3   OH227322   6.522   2.733   0.748
 1944TIP3    H127323   6.565   2.742   0.663
 1944TIP3    H227324   6.568   2.660   0.791
 1945TIP3   OH227325   1.967   5.705  12.864
 1945TIP3    H127326   2.051   5.730  12.902
 1945TIP3    H227327   1.911   5.689  12.940
 1946TIP3   OH227328   2.362   4.593  11.365
 1946TIP3    H127329   2.354   4.606  11.460
 1946TIP3    H227330   2.311   4.515  11.348
 1947TIP3   OH227331   4.675   4.629  13.244
 1947TIP3    H127332   4.736   4.564  13.280
 1947TIP3    H227333   4.658   4.689  13.316
 1948TIP3   OH227334   4.200   5.456  16.471
 1948TIP3    H127335   4.227   5.393  16.538
 1948TIP3    H227336   4.237   5.539  16.500
 1949TIP3   OH227337   4.471   0.587  11.814
 1949TIP3    H127338   4.519   0.669  11.804
 1949TIP3    H227339   4.386   0.612  11.850
 1950TIP3   OH227340   6.218   4.093  13.465
 1950TIP3    H127341   6.245   4.025  13.527
 1950TIP3    H227342   6.247   4.061  13.380
 1951TIP3   OH227343   2.098   5.977   4.101
 1951TIP3    H127344   2.137   6.061   4.124
 1951TIP3    H227345   2.063   5.991   4.013
 1952TIP3   OH227346   5.563   6.313  11.597
 1952TIP3    H127347   5.490   6.284  11.543
 1952TIP3    H227348   5.578   6.404  11.572
 1953TIP3   OH227349   6.067   0.991  16.145
 1953TIP3    H127350   6.101   0.924  16.204
 1953TIP3    H227351   5.974   0.972  16.137
 1954TIP3   OH227352   0.944   3.602   4.928
 1954TIP3    H127353   0.953   3.697   4.934
 1954TIP3    H227354   0.893   3.577   5.004
 1955TIP3   OH227355   0.659   6.297   5.157
 1955TIP3    H127356   0.689   6.209   5.174
 1955TIP3    H227357   0.568   6.298   5.187
 1956TIP3   OH227358   0.795   3.808   5.691
 1956TIP3    H127359   0.853   3.794   5.766
 1956TIP3    H227360   0.736   3.878   5.719
 1957TIP3   OH227361   3.385   1.412   4.752
 1957TIP3    H127362   3.477   1.390   4.744
 1957TIP3    H227363   3.357   1.433   4.663
 1958TIP3   OH227364   0.442   5.930   6.035
 1958TIP3    H127365   0.460   6.012   6.081
 1958TIP3    H227366   0.489   5.863   6.085
 1959TIP3   OH227367   5.020   0.548   3.546
 1959TIP3    H127368   5.046   0.616   3.484
 1959TIP3    H227369   4.927   0.563   3.561
 1960TIP3   OH227370   1.864   2.032  14.660
 1960TIP3    H127371   1.860   2.128  14.650
 1960TIP3    H227372   1.877   1.999  14.571
 1961TIP3   OH227373   2.110   6.271   4.559
 1961TIP3    H127374   2.046   6.343   4.562
 1961TIP3    H227375   2.058   6.195   4.533
 1962TIP3   OH227376   0.782   6.758   5.754
 1962TIP3    H127377   0.802   6.839   5.801
 1962TIP3    H227378   0.748   6.699   5.821
 1963TIP3   OH227379   4.756   0.958  14.104
 1963TIP3    H127380   4.845   0.951  14.138
 1963TIP3    H227381   4.700   0.929  14.177
 1964TIP3   OH227382   5.017   4.995  11.321
 1964TIP3    H127383   4.986   5.074  11.276
 1964TIP3    H227384   4.947   4.931  11.309
 1965TIP3   OH227385   5.136   1.349  16.171
 1965TIP3    H127386   5.100   1.438  16.169
 1965TIP3    H227387   5.170   1.335  16.083
 1966TIP3   OH227388   0.678   3.466  17.004
 1966TIP3    H127389   0.714   3.539  16.954
 1966TIP3    H227390   0.602   3.502  17.050
 1967TIP3   OH227391   4.563   4.009  15.197
 1967TIP3    H127392   4.504   4.024  15.123
 1967TIP3    H227393   4.647   3.987  15.156
 1968TIP3   OH227394   4.863   0.744  13.187
 1968TIP3    H127395   4.772   0.729  13.213
 1968TIP3    H227396   4.857   0.782  13.099
 1969TIP3   OH227397   4.589   4.746   2.173
 1969TIP3    H127398   4.684   4.746   2.182
 1969TIP3    H227399   4.559   4.811   2.237
 1970TIP3   OH227400   3.153   2.511  15.018
 1970TIP3    H127401   3.128   2.419  15.027
 1970TIP3    H227402   3.244   2.508  14.990
 1971TIP3   OH227403   3.432   5.391   1.310
 1971TIP3    H127404   3.515   5.381   1.355
 1971TIP3    H227405   3.398   5.302   1.300
 1972TIP3   OH227406   6.444   1.493  15.540
 1972TIP3    H127407   6.375   1.431  15.515
 1972TIP3    H227408   6.524   1.440  15.540
 1973TIP3   OH227409   1.873   0.408  11.685
 1973TIP3    H127410   1.955   0.397  11.637
 1973TIP3    H227411   1.814   0.448  11.620
 1974TIP3   OH227412   4.597   1.687  15.940
 1974TIP3    H127413   4.633   1.599  15.937
 1974TIP3    H227414   4.616   1.717  16.029
 1975TIP3   OH227415   5.348   1.152   1.787
 1975TIP3    H127416   5.425   1.100   1.812
 1975TIP3    H227417   5.357   1.164   1.693
 1976TIP3   OH227418   4.965   4.449   2.664
 1976TIP3    H127419   4.928   4.525   2.709
 1976TIP3    H227420   4.949   4.376   2.724
 1977TIP3   OH227421   0.149   1.139  15.758
 1977TIP3    H127422   0.141   1.211  15.696
 1977TIP3    H227423   0.060   1.106  15.768
 1978TIP3   OH227424   5.328   3.866  11.109
 1978TIP3    H127425   5.342   3.918  11.031
 1978TIP3    H227426   5.398   3.800  11.107
 1979TIP3   OH227427   0.082   1.338   0.417
 1979TIP3    H127428   0.160   1.371   0.372
 1979TIP3    H227429   0.094   1.243   0.418
 1980TIP3   OH227430   1.514   1.438   4.127
 1980TIP3    H127431   1.601   1.399   4.125
 1980TIP3    H227432   1.497   1.463   4.036
 1981TIP3   OH227433   2.837   6.353   4.303
 1981TIP3    H127434   2.771   6.410   4.340
 1981TIP3    H227435   2.801   6.265   4.312
 1982TIP3   OH227436   0.893   4.575   1.153
 1982TIP3    H127437   0.798   4.563   1.151
 1982TIP3    H227438   0.908   4.643   1.218
 1983TIP3   OH227439   6.028   6.106   4.076
 1983TIP3    H127440   6.111   6.060   4.092
 1983TIP3    H227441   5.964   6.058   4.127
 1984TIP3   OH227442   3.126   3.629  13.191
 1984TIP3    H127443   3.192   3.675  13.243
 1984TIP3    H227444   3.176   3.564  13.142
 1985TIP3   OH227445   4.730   5.594   2.589
 1985TIP3    H127446   4.718   5.593   2.494
 1985TIP3    H227447   4.804   5.653   2.603
 1986TIP3   OH227448   5.768   2.432   5.482
 1986TIP3    H127449   5.787   2.359   5.423
 1986TIP3    H227450   5.721   2.495   5.427
 1987TIP3   OH227451   2.127   6.102  14.502
 1987TIP3    H127452   2.166   6.094  14.589
 1987TIP3    H227453   2.033   6.099  14.518
 1988TIP3   OH227454   3.404   6.299   3.874
 1988TIP3    H127455   3.351   6.373   3.905
 1988TIP3    H227456   3.449   6.267   3.952
 1989TIP3   OH227457   3.574   4.615  10.234
 1989TIP3    H127458   3.656   4.664  10.234
 1989TIP3    H227459   3.600   4.523  10.237
 1990TIP3   OH227460   5.427   6.675   5.891
 1990TIP3    H127461   5.518   6.674   5.918
 1990TIP3    H227462   5.403   6.583   5.882
 1991TIP3   OH227463   4.703   4.262  13.289
 1991TIP3    H127464   4.739   4.245  13.376
 1991TIP3    H227465   4.633   4.325  13.304
 1992TIP3   OH227466   4.554   5.619  16.480
 1992TIP3    H127467   4.600   5.670  16.547
 1992TIP3    H227468   4.480   5.674  16.455
 1993TIP3   OH227469   4.567   0.672   1.833
 1993TIP3    H127470   4.625   0.747   1.849
 1993TIP3    H227471   4.479   0.708   1.833
 1994TIP3   OH227472   4.259   5.657   5.785
 1994TIP3    H127473   4.192   5.589   5.784
 1994TIP3    H227474   4.321   5.631   5.718
 1995TIP3   OH227475   6.172   4.527  14.296
 1995TIP3    H127476   6.198   4.590  14.229
 1995TIP3    H227477   6.104   4.573  14.346
 1996TIP3   OH227478   5.987   6.085  16.361
 1996TIP3    H127479   5.968   6.036  16.440
 1996TIP3    H227480   5.916   6.150  16.355
 1997TIP3   OH227481   5.217   4.623  14.824
 1997TIP3    H127482   5.284   4.622  14.755
 1997TIP3    H227483   5.213   4.532  14.854
 1998TIP3   OH227484   5.747   6.109   1.193
 1998TIP3    H127485   5.668   6.086   1.146
 1998TIP3    H227486   5.719   6.174   1.257
 1999TIP3   OH227487   5.558   2.981  11.896
 1999TIP3    H127488   5.652   2.966  11.908
 1999TIP3    H227489   5.518   2.897  11.918
 2000TIP3   OH227490   0.173   0.985  16.873
 2000TIP3    H127491   0.189   1.042  16.948
 2000TIP3    H227492   0.188   1.042  16.797
 2001TIP3   OH227493   1.376   3.773  16.035
 2001TIP3    H127494   1.464   3.761  16.069
 2001TIP3    H227495   1.385   3.763  15.940
 2002TIP3   OH227496   1.357   3.374  14.257
 2002TIP3    H127497   1.385   3.466  14.252
 2002TIP3    H227498   1.312   3.359  14.174
 2003TIP3   OH227499   4.554   6.199  12.036
 2003TIP3    H127500   4.562   6.268  11.970
 2003TIP3    H227501   4.567   6.244  12.119
 2004TIP3   OH227502   3.441   4.772  13.549
 2004TIP3    H127503   3.469   4.857  13.581
 2004TIP3    H227504   3.347   4.768  13.570
 2005TIP3   OH227505   5.839   1.362  13.167
 2005TIP3    H127506   5.890   1.281  13.172
 2005TIP3    H227507   5.902   1.428  13.137
 2006TIP3   OH227508   1.640   6.278  13.869
 2006TIP3    H127509   1.692   6.222  13.926
 2006TIP3    H227510   1.552   6.276  13.907
 2007TIP3   OH227511   1.945   3.610  16.020
 2007TIP3    H127512   1.911   3.642  15.936
 2007TIP3    H227513   1.914   3.520  16.026
 2008TIP3   OH227514   5.648   5.194  16.274
 2008TIP3    H127515   5.612   5.212  16.187
 2008TIP3    H227516   5.658   5.099  16.278
 2009TIP3   OH227517   2.388   3.379  12.884
 2009TIP3    H127518   2.399   3.392  12.978
 2009TIP3    H227519   2.298   3.406  12.866
 2010TIP3   OH227520   2.271   3.462  11.881
 2010TIP3    H127521   2.242   3.398  11.816
 2010TIP3    H227522   2.237   3.545  11.849
 2011TIP3   OH227523   3.823   6.531  14.582
 2011TIP3    H127524   3.892   6.587  14.617
 2011TIP3    H227525   3.869   6.462  14.535
 2012TIP3   OH227526   1.568   0.861   3.000
 2012TIP3    H127527   1.517   0.936   3.030
 2012TIP3    H227528   1.529   0.786   3.043
 2013TIP3   OH227529   2.540   1.299   1.185
 2013TIP3    H127530   2.465   1.332   1.234
 2013TIP3    H227531   2.593   1.377   1.167
 2014TIP3   OH227532   5.607   1.529  13.793
 2014TIP3    H127533   5.552   1.460  13.830
 2014TIP3    H227534   5.545   1.589  13.751
 2015TIP3   OH227535   5.061   3.153   3.048
 2015TIP3    H127536   5.000   3.174   3.119
 2015TIP3    H227537   5.005   3.131   2.974
 2016TIP3   OH227538   6.460   2.315  13.663
 2016TIP3    H127539   6.445   2.234  13.615
 2016TIP3    H227540   6.513   2.369  13.604
 2017TIP3   OH227541   2.758   0.389  12.666
 2017TIP3    H127542   2.849   0.381  12.640
 2017TIP3    H227543   2.760   0.385  12.762
 2018TIP3   OH227544   1.572   1.503  12.154
 2018TIP3    H127545   1.582   1.585  12.107
 2018TIP3    H227546   1.534   1.443  12.090
 2019TIP3   OH227547   2.905   2.057  15.453
 2019TIP3    H127548   2.997   2.083  15.445
 2019TIP3    H227549   2.860   2.136  15.482
 2020TIP3   OH227550   4.540   5.247   2.723
 2020TIP3    H127551   4.518   5.307   2.651
 2020TIP3    H227552   4.618   5.200   2.692
 2021TIP3   OH227553   2.288   4.724  14.981
 2021TIP3    H127554   2.252   4.640  14.954
 2021TIP3    H227555   2.242   4.745  15.063
 2022TIP3   OH227556   0.464   6.568   2.322
 2022TIP3    H127557   0.500   6.594   2.237
 2022TIP3    H227558   0.370   6.579   2.313
 2023TIP3   OH227559   3.712   5.391  14.032
 2023TIP3    H127560   3.618   5.404  14.017
 2023TIP3    H227561   3.739   5.331  13.962
 2024TIP3   OH227562   4.390   3.518  10.212
 2024TIP3    H127563   4.345   3.603  10.210
 2024TIP3    H227564   4.321   3.454  10.199
 2025TIP3   OH227565   1.896   4.784  16.631
 2025TIP3    H127566   1.936   4.867  16.604
 2025TIP3    H227567   1.958   4.748  16.695
 2026TIP3   OH227568   1.918   4.897   1.524
 2026TIP3    H127569   1.964   4.813   1.519
 2026TIP3    H227570   1.982   4.960   1.492
 2027TIP3   OH227571   0.165   0.260  10.599
 2027TIP3    H127572   0.104   0.292  10.533
 2027TIP3    H227573   0.129   0.175  10.625
 2028TIP3   OH227574   2.188   1.007   0.732
 2028TIP3    H127575   2.283   1.005   0.719
 2028TIP3    H227576   2.168   1.100   0.748
 2029TIP3   OH227577   2.715   1.329   1.851
 2029TIP3    H127578   2.766   1.268   1.798
 2029TIP3    H227579   2.701   1.405   1.794
 2030TIP3   OH227580   0.432   6.730   6.280
 2030TIP3    H127581   0.500   6.734   6.347
 2030TIP3    H227582   0.375   6.805   6.299
 2031TIP3   OH227583   3.669   1.585  15.709
 2031TIP3    H127584   3.614   1.522  15.756
 2031TIP3    H227585   3.737   1.532  15.668
 2032TIP3   OH227586   5.389   5.680  15.363
 2032TIP3    H127587   5.332   5.756  15.375
 2032TIP3    H227588   5.333   5.605  15.378
 2033TIP3   OH227589   3.725   0.684   6.373
 2033TIP3    H127590   3.649   0.636   6.408
 2033TIP3    H227591   3.791   0.677   6.441
 2034TIP3   OH227592   2.468   3.526   2.199
 2034TIP3    H127593   2.385   3.526   2.245
 2034TIP3    H227594   2.533   3.548   2.266
 2035TIP3   OH227595   5.432   1.726   5.598
 2035TIP3    H127596   5.391   1.744   5.682
 2035TIP3    H227597   5.359   1.705   5.540
 2036TIP3   OH227598   5.953   2.091  12.479
 2036TIP3    H127599   5.932   2.001  12.456
 2036TIP3    H227600   6.046   2.100  12.461
 2037TIP3   OH227601   2.563   0.953  11.299
 2037TIP3    H127602   2.565   1.048  11.287
 2037TIP3    H227603   2.527   0.918  11.218
 2038TIP3   OH227604   1.079   4.529  13.012
 2038TIP3    H127605   0.988   4.552  13.028
 2038TIP3    H227606   1.082   4.434  13.018
 2039TIP3   OH227607   0.672   1.172  16.039
 2039TIP3    H127608   0.753   1.184  15.990
 2039TIP3    H227609   0.674   1.240  16.105
 2040TIP3   OH227610   2.551   0.104  11.426
 2040TIP3    H127611   2.593   0.161  11.490
 2040TIP3    H227612   2.494   0.047  11.478
 2041TIP3   OH227613   2.301   5.721  10.395
 2041TIP3    H127614   2.289   5.689  10.305
 2041TIP3    H227615   2.372   5.786  10.388
 2042TIP3   OH227616   1.936   5.584  16.273
 2042TIP3    H127617   1.846   5.560  16.250
 2042TIP3    H227618   1.926   5.643  16.347
 2043TIP3   OH227619   4.786   5.979   1.075
 2043TIP3    H127620   4.698   5.992   1.111
 2043TIP3    H227621   4.845   6.015   1.141
 2044TIP3   OH227622   4.097   6.196  12.530
 2044TIP3    H127623   4.114   6.238  12.446
 2044TIP3    H227624   4.026   6.134  12.513
 2045TIP3   OH227625   0.350   5.376  10.662
 2045TIP3    H127626   0.272   5.357  10.714
 2045TIP3    H227627   0.400   5.438  10.716
 2046TIP3   OH227628   2.750   5.714  14.900
 2046TIP3    H127629   2.764   5.645  14.965
 2046TIP3    H227630   2.656   5.734  14.906
 2047TIP3   OH227631   4.450   1.703  13.113
 2047TIP3    H127632   4.364   1.661  13.106
 2047TIP3    H227633   4.505   1.639  13.158
 2048TIP3   OH227634   6.427   3.909   3.771
 2048TIP3    H127635   6.425   3.814   3.765
 2048TIP3    H227636   6.515   3.933   3.743
 2049TIP3   OH227637   1.537   2.335   3.884
 2049TIP3    H127638   1.481   2.317   3.959
 2049TIP3    H227639   1.485   2.394   3.829
 2050TIP3   OH227640   1.738   0.737   5.641
 2050TIP3    H127641   1.757   0.821   5.600
 2050TIP3    H227642   1.710   0.759   5.730
 2051TIP3   OH227643   3.215   2.848   0.039
 2051TIP3    H127644   3.194   2.905   0.112
 2051TIP3    H227645   3.162   2.881  -0.034
 2052TIP3   OH227646   3.400   6.005   3.570
 2052TIP3    H127647   3.336   5.950   3.616
 2052TIP3    H227648   3.417   5.958   3.489
 2053TIP3   OH227649   1.523   2.494   0.886
 2053TIP3    H127650   1.444   2.442   0.873
 2053TIP3    H227651   1.502   2.580   0.849
 2054TIP3   OH227652   3.015   2.115   2.665
 2054TIP3    H127653   3.006   2.038   2.609
 2054TIP3    H227654   2.927   2.153   2.667
 2055TIP3   OH227655   6.380   6.700   0.039
 2055TIP3    H127656   6.327   6.753  -0.021
 2055TIP3    H227657   6.317   6.643   0.083
 2056TIP3   OH227658   4.717   1.482  11.741
 2056TIP3    H127659   4.739   1.575  11.743
 2056TIP3    H227660   4.733   1.452  11.831
 2057TIP3   OH227661   1.498   5.145   0.737
 2057TIP3    H127662   1.484   5.235   0.765
 2057TIP3    H227663   1.587   5.144   0.701
 2058TIP3   OH227664   1.788   0.638   3.084
 2058TIP3    H127665   1.857   0.591   3.130
 2058TIP3    H227666   1.711   0.582   3.094
 2059TIP3   OH227667   1.541   6.778   1.995
 2059TIP3    H127668   1.602   6.850   1.977
 2059TIP3    H227669   1.581   6.702   1.952
 2060TIP3   OH227670   2.820   5.561   2.513
 2060TIP3    H127671   2.736   5.575   2.557
 2060TIP3    H227672   2.862   5.647   2.515
 2061TIP3   OH227673   1.949   1.405  13.716
 2061TIP3    H127674   1.970   1.337  13.652
 2061TIP3    H227675   2.025   1.464  13.714
 2062TIP3   OH227676   2.791   2.493   1.340
 2062TIP3    H127677   2.878   2.454   1.333
 2062TIP3    H227678   2.805   2.576   1.385
 2063TIP3   OH227679   4.228   6.519   5.248
 2063TIP3    H127680   4.212   6.503   5.341
 2063TIP3    H227681   4.245   6.432   5.212
 2064TIP3   OH227682   0.837   4.244  12.919
 2064TIP3    H127683   0.865   4.248  12.828
 2064TIP3    H227684   0.765   4.307  12.925
 2065TIP3   OH227685   5.283   1.326   2.040
 2065TIP3    H127686   5.209   1.274   2.008
 2065TIP3    H227687   5.358   1.293   1.990
 2066TIP3   OH227688   2.736   1.422  14.636
 2066TIP3    H127689   2.684   1.462  14.705
 2066TIP3    H227690   2.826   1.421  14.671
 2067TIP3   OH227691   1.455   5.792  13.766
 2067TIP3    H127692   1.432   5.705  13.798
 2067TIP3    H227693   1.549   5.789  13.753
 2068TIP3   OH227694   4.766   4.819   1.243
 2068TIP3    H127695   4.752   4.724   1.253
 2068TIP3    H227696   4.688   4.859   1.282
 2069TIP3   OH227697   0.616   5.299   4.939
 2069TIP3    H127698   0.622   5.210   4.973
 2069TIP3    H227699   0.651   5.355   5.008
 2070TIP3   OH227700   5.954   3.397   3.657
 2070TIP3    H127701   5.993   3.427   3.575
 2070TIP3    H227702   6.018   3.421   3.724
 2071TIP3   OH227703   5.390   0.291   1.560
 2071TIP3    H127704   5.393   0.306   1.465
 2071TIP3    H227705   5.436   0.208   1.572
 2072TIP3   OH227706   1.398   3.179   1.752
 2072TIP3    H127707   1.381   3.269   1.723
 2072TIP3    H227708   1.479   3.154   1.708
 2073TIP3   OH227709   3.586   6.817   1.326
 2073TIP3    H127710   3.659   6.783   1.378
 2073TIP3    H227711   3.546   6.884   1.381
 2074TIP3   OH227712   1.305   5.836  16.464
 2074TIP3    H127713   1.308   5.764  16.528
 2074TIP3    H227714   1.396   5.863  16.454
 2075TIP3   OH227715   0.588   5.503   2.390
 2075TIP3    H127716   0.577   5.440   2.319
 2075TIP3    H227717   0.636   5.456   2.457
 2076TIP3   OH227718   6.572   5.966   5.554
 2076TIP3    H127719   6.510   6.035   5.534
 2076TIP3    H227720   6.530   5.886   5.521
 2077TIP3   OH227721   3.127   2.791   0.901
 2077TIP3    H127722   3.118   2.720   0.964
 2077TIP3    H227723   3.192   2.850   0.940
 2078TIP3   OH227724   5.480   5.577   6.028
 2078TIP3    H127725   5.542   5.629   5.977
 2078TIP3    H227726   5.488   5.489   5.993
 2079TIP3   OH227727   0.784   2.931   3.352
 2079TIP3    H127728   0.745   2.972   3.275
 2079TIP3    H227729   0.769   2.838   3.340
 2080TIP3   OH227730   2.542   5.526  16.535
 2080TIP3    H127731   2.585   5.538  16.619
 2080TIP3    H227732   2.613   5.527  16.471
 2081TIP3   OH227733   3.444   3.652  15.869
 2081TIP3    H127734   3.405   3.736  15.841
 2081TIP3    H227735   3.454   3.661  15.963
 2082TIP3   OH227736   0.214   5.978  15.215
 2082TIP3    H127737   0.124   5.993  15.187
 2082TIP3    H227738   0.223   6.028  15.296
 2083TIP3   OH227739   3.833   0.361   4.633
 2083TIP3    H127740   3.739   0.378   4.629
 2083TIP3    H227741   3.868   0.401   4.554
 2084TIP3   OH227742   4.650   5.173   5.172
 2084TIP3    H127743   4.567   5.150   5.129
 2084TIP3    H227744   4.716   5.124   5.124
 2085TIP3   OH227745   4.773   1.236   1.814
 2085TIP3    H127746   4.691   1.227   1.862
 2085TIP3    H227747   4.772   1.164   1.751
 2086TIP3   OH227748   4.998   2.365   6.456
 2086TIP3    H127749   5.001   2.441   6.515
 2086TIP3    H227750   5.028   2.399   6.372
 2087TIP3   OH227751   5.405   2.763  12.890
 2087TIP3    H127752   5.480   2.811  12.855
 2087TIP3    H227753   5.428   2.746  12.982
 2088TIP3   OH227754   1.813   2.683  12.199
 2088TIP3    H127755   1.727   2.643  12.184
 2088TIP3    H227756   1.866   2.612  12.236
 2089TIP3   OH227757   2.838   5.694  13.537
 2089TIP3    H127758   2.784   5.763  13.498
 2089TIP3    H227759   2.777   5.623  13.556
 2090TIP3   OH227760   3.863   4.257  14.163
 2090TIP3    H127761   3.808   4.182  14.182
 2090TIP3    H227762   3.952   4.222  14.164
 2091TIP3   OH227763   6.174   5.871  11.525
 2091TIP3    H127764   6.096   5.819  11.545
 2091TIP3    H227765   6.151   5.919  11.445
 2092TIP3   OH227766   6.276   3.009  14.815
 2092TIP3    H127767   6.196   2.983  14.769
 2092TIP3    H227768   6.328   2.928  14.818
 2093TIP3   OH227769   3.850   5.553   2.361
 2093TIP3    H127770   3.814   5.476   2.317
 2093TIP3    H227771   3.870   5.615   2.290
 2094TIP3   OH227772   5.874   6.461   0.426
 2094TIP3    H127773   5.852   6.553   0.443
 2094TIP3    H227774   5.969   6.458   0.433
 2095TIP3   OH227775   2.483   1.376  16.678
 2095TIP3    H127776   2.568   1.332  16.670
 2095TIP3    H227777   2.451   1.353  16.765
 2096TIP3   OH227778   2.399   0.519  13.336
 2096TIP3    H127779   2.367   0.598  13.378
 2096TIP3    H227780   2.362   0.522  13.247
 2097TIP3   OH227781   0.975   5.484  11.728
 2097TIP3    H127782   0.990   5.561  11.782
 2097TIP3    H227783   1.053   5.479  11.672
 2098TIP3   OH227784   3.209   4.464   4.256
 2098TIP3    H127785   3.230   4.550   4.220
 2098TIP3    H227786   3.171   4.482   4.342
 2099TIP3   OH227787   4.602   2.865   4.439
 2099TIP3    H127788   4.617   2.957   4.416
 2099TIP3    H227789   4.570   2.825   4.358
 2100TIP3   OH227790   6.156   3.993   0.771
 2100TIP3    H127791   6.245   3.967   0.792
 2100TIP3    H227792   6.112   3.912   0.747
 2101TIP3   OH227793   5.050   5.623   3.598
 2101TIP3    H127794   4.998   5.553   3.558
 2101TIP3    H227795   5.135   5.582   3.616
 2102TIP3   OH227796   4.638   2.700  14.885
 2102TIP3    H127797   4.657   2.607  14.896
 2102TIP3    H227798   4.544   2.703  14.868
 2103TIP3   OH227799   4.746   4.831   6.336
 2103TIP3    H127800   4.688   4.907   6.333
 2103TIP3    H227801   4.711   4.771   6.270
 2104TIP3   OH227802   2.043   2.476  15.131
 2104TIP3    H127803   2.029   2.549  15.070
 2104TIP3    H227804   2.101   2.416  15.085
 2105TIP3   OH227805   1.987   2.213  11.929
 2105TIP3    H127806   2.037   2.295  11.927
 2105TIP3    H227807   2.030   2.157  11.864
 2106TIP3   OH227808   6.636   1.628   2.536
 2106TIP3    H127809   6.642   1.539   2.571
 2106TIP3    H227810   6.721   1.643   2.496
 2107TIP3   OH227811   4.084   0.131   3.543
 2107TIP3    H127812   4.027   0.090   3.609
 2107TIP3    H227813   4.075   0.075   3.466
 2108TIP3   OH227814   0.044   1.390  15.013
 2108TIP3    H127815  -0.035   1.353  14.975
 2108TIP3    H227816   0.099   1.410  14.938
 2109TIP3   OH227817   6.633   6.725  13.749
 2109TIP3    H127818   6.649   6.756  13.660
 2109TIP3    H227819   6.717   6.737  13.794
 2110TIP3   OH227820   4.190   3.834  16.900
 2110TIP3    H127821   4.242   3.799  16.972
 2110TIP3    H227822   4.122   3.768  16.885
 2111TIP3   OH227823   4.354   6.275  12.782
 2111TIP3    H127824   4.276   6.221  12.792
 2111TIP3    H227825   4.347   6.311  12.693
 2112TIP3   OH227826   0.518   2.254  15.785
 2112TIP3    H127827   0.500   2.195  15.858
 2112TIP3    H227828   0.600   2.297  15.809
 2113TIP3   OH227829   6.695   5.994   3.083
 2113TIP3    H127830   6.621   6.032   3.036
 2113TIP3    H227831   6.771   6.045   3.055
 2114TIP3   OH227832   0.922   5.565   3.129
 2114TIP3    H127833   0.864   5.526   3.195
 2114TIP3    H227834   0.863   5.588   3.057
 2115TIP3   OH227835   3.895   4.960   1.842
 2115TIP3    H127836   3.876   5.054   1.845
 2115TIP3    H227837   3.874   4.935   1.751
 2116TIP3   OH227838   6.108   6.027   0.831
 2116TIP3    H127839   6.156   5.981   0.899
 2116TIP3    H227840   6.075   6.106   0.873
 2117TIP3   OH227841   0.723   0.235   3.728
 2117TIP3    H127842   0.687   0.323   3.719
 2117TIP3    H227843   0.765   0.235   3.814
 2118TIP3   OH227844   2.859   3.350  13.097
 2118TIP3    H127845   2.900   3.271  13.131
 2118TIP3    H227846   2.837   3.401  13.175
 2119TIP3   OH227847   1.930   0.664  13.016
 2119TIP3    H127848   1.870   0.590  13.004
 2119TIP3    H227849   1.937   0.703  12.928
 2120TIP3   OH227850   3.735   1.375  11.422
 2120TIP3    H127851   3.715   1.454  11.471
 2120TIP3    H227852   3.691   1.387  11.338
 2121TIP3   OH227853   6.136   3.738   3.769
 2121TIP3    H127854   6.079   3.794   3.716
 2121TIP3    H227855   6.147   3.785   3.852
 2122TIP3   OH227856   3.546   4.168   2.783
 2122TIP3    H127857   3.632   4.208   2.799
 2122TIP3    H227858   3.566   4.090   2.731
 2123TIP3   OH227859   5.867   3.680   4.446
 2123TIP3    H127860   5.835   3.695   4.535
 2123TIP3    H227861   5.826   3.748   4.393
 2124TIP3   OH227862   2.545   6.602   1.453
 2124TIP3    H127863   2.591   6.551   1.386
 2124TIP3    H227864   2.456   6.565   1.454
 2125TIP3   OH227865   4.091   2.896  16.919
 2125TIP3    H127866   4.104   2.897  16.824
 2125TIP3    H227867   4.014   2.951  16.933
 2126TIP3   OH227868   5.105   1.793   5.490
 2126TIP3    H127869   5.021   1.748   5.500
 2126TIP3    H227870   5.148   1.783   5.576
 2127TIP3   OH227871   6.158   0.677   5.767
 2127TIP3    H127872   6.108   0.713   5.840
 2127TIP3    H227873   6.231   0.737   5.755
 2128TIP3   OH227874   5.908   2.861  12.786
 2128TIP3    H127875   5.895   2.768  12.767
 2128TIP3    H227876   5.997   2.880  12.757
 2129TIP3   OH227877   4.423   4.074  12.987
 2129TIP3    H127878   4.366   4.106  13.057
 2129TIP3    H227879   4.363   4.030  12.926
 2130TIP3   OH227880   4.175   5.300  13.261
 2130TIP3    H127881   4.132   5.219  13.291
 2130TIP3    H227882   4.135   5.369  13.315
 2131TIP3   OH227883   6.485   1.391   2.127
 2131TIP3    H127884   6.452   1.445   2.199
 2131TIP3    H227885   6.420   1.402   2.057
 2132TIP3   OH227886   2.484   3.800   1.754
 2132TIP3    H127887   2.415   3.858   1.786
 2132TIP3    H227888   2.565   3.845   1.778
 2133TIP3   OH227889   1.762   4.837  14.114
 2133TIP3    H127890   1.701   4.763  14.124
 2133TIP3    H227891   1.843   4.807  14.156
 2134TIP3   OH227892   5.212   1.697   0.151
 2134TIP3    H127893   5.226   1.696   0.246
 2134TIP3    H227894   5.201   1.789   0.129
 2135TIP3   OH227895   4.980   6.395  11.298
 2135TIP3    H127896   4.926   6.350  11.233
 2135TIP3    H227897   4.917   6.450  11.347
 2136TIP3   OH227898   6.536   2.429   5.249
 2136TIP3    H127899   6.530   2.362   5.181
 2136TIP3    H227900   6.461   2.412   5.306
 2137TIP3   OH227901   0.880   2.503  12.172
 2137TIP3    H127902   0.931   2.521  12.093
 2137TIP3    H227903   0.900   2.411  12.192
 2138TIP3   OH227904   3.481   5.816   2.254
 2138TIP3    H127905   3.478   5.875   2.330
 2138TIP3    H227906   3.574   5.797   2.242
 2139TIP3   OH227907   0.867   3.617  13.103
 2139TIP3    H127908   0.873   3.522  13.092
 2139TIP3    H227909   0.774   3.637  13.097
 2140TIP3   OH227910   5.313   6.202  14.041
 2140TIP3    H127911   5.331   6.108  14.032
 2140TIP3    H227912   5.331   6.220  14.133
 2141TIP3   OH227913   1.310   0.337   6.745
 2141TIP3    H127914   1.389   0.283   6.747
 2141TIP3    H227915   1.252   0.298   6.810
 2142TIP3   OH227916   4.652   3.122  12.643
 2142TIP3    H127917   4.746   3.138  12.637
 2142TIP3    H227918   4.613   3.192  12.590
 2143TIP3   OH227919   0.374   0.682  11.478
 2143TIP3    H127920   0.423   0.763  11.492
 2143TIP3    H227921   0.426   0.615  11.523
 2144TIP3   OH227922   3.148   6.743   0.323
 2144TIP3    H127923   3.179   6.678   0.385
 2144TIP3    H227924   3.057   6.760   0.350
 2145TIP3   OH227925   3.623   3.837  10.577
 2145TIP3    H127926   3.583   3.873  10.498
 2145TIP3    H227927   3.714   3.866  10.574
 2146TIP3   OH227928   1.810   2.868  14.513
 2146TIP3    H127929   1.849   2.791  14.472
 2146TIP3    H227930   1.849   2.871  14.600
 2147TIP3   OH227931   3.686   2.259   4.552
 2147TIP3    H127932   3.777   2.266   4.581
 2147TIP3    H227933   3.650   2.347   4.566
 2148TIP3   OH227934   1.800   3.000   0.855
 2148TIP3    H127935   1.873   2.944   0.881
 2148TIP3    H227936   1.823   3.029   0.767
 2149TIP3   OH227937   4.356   1.321   5.513
 2149TIP3    H127938   4.276   1.285   5.474
 2149TIP3    H227939   4.324   1.388   5.574
 2150TIP3   OH227940   3.936   1.112  15.741
 2150TIP3    H127941   3.922   1.186  15.801
 2150TIP3    H227942   3.850   1.070  15.735
 2151TIP3   OH227943   1.521   5.666   4.564
 2151TIP3    H127944   1.537   5.578   4.530
 2151TIP3    H227945   1.439   5.693   4.523
 2152TIP3   OH227946   3.851   5.823   4.978
 2152TIP3    H127947   3.848   5.750   5.040
 2152TIP3    H227948   3.762   5.827   4.942
 2153TIP3   OH227949   1.740   1.545  13.802
 2153TIP3    H127950   1.814   1.491  13.773
 2153TIP3    H227951   1.778   1.609  13.862
 2154TIP3   OH227952   4.198   0.425   2.906
 2154TIP3    H127953   4.193   0.486   2.832
 2154TIP3    H227954   4.111   0.430   2.946
 2155TIP3   OH227955   3.849   6.346   1.719
 2155TIP3    H127956   3.902   6.424   1.735
 2155TIP3    H227957   3.912   6.280   1.689
 2156TIP3   OH227958   5.911   2.026  11.525
 2156TIP3    H127959   5.837   2.025  11.586
 2156TIP3    H227960   5.989   2.034  11.581
 2157TIP3   OH227961   0.188   0.301  11.673
 2157TIP3    H127962   0.163   0.218  11.633
 2157TIP3    H227963   0.195   0.282  11.767
 2158TIP3   OH227964   2.463   2.629  16.159
 2158TIP3    H127965   2.504   2.712  16.132
 2158TIP3    H227966   2.372   2.636  16.129
 2159TIP3   OH227967   4.385   5.236   4.714
 2159TIP3    H127968   4.448   5.177   4.672
 2159TIP3    H227969   4.304   5.223   4.665
 2160TIP3   OH227970   4.802   6.477  14.902
 2160TIP3    H127971   4.733   6.540  14.880
 2160TIP3    H227972   4.849   6.518  14.974
 2161TIP3   OH227973   5.632   2.144   1.778
 2161TIP3    H127974   5.558   2.084   1.771
 2161TIP3    H227975   5.610   2.216   1.720
 2162TIP3   OH227976   3.858   3.947   2.324
 2162TIP3    H127977   3.789   3.903   2.374
 2162TIP3    H227978   3.816   4.027   2.291
 2163TIP3   OH227979   2.764   2.281  15.519
 2163TIP3    H127980   2.731   2.361  15.560
 2163TIP3    H227981   2.729   2.283  15.430
 2164TIP3   OH227982   1.584   0.290   3.801
 2164TIP3    H127983   1.544   0.220   3.749
 2164TIP3    H227984   1.624   0.245   3.875
 2165TIP3   OH227985   6.755   3.889   6.166
 2165TIP3    H127986   6.753   3.975   6.207
 2165TIP3    H227987   6.703   3.833   6.224
 2166TIP3   OH227988   0.137   5.600   0.469
 2166TIP3    H127989   0.079   5.536   0.428
 2166TIP3    H227990   0.172   5.651   0.396
 2167TIP3   OH227991   2.060   4.350  13.033
 2167TIP3    H127992   2.109   4.365  12.952
 2167TIP3    H227993   1.968   4.350  13.005
 2168TIP3   OH227994   1.748   6.672   4.577
 2168TIP3    H127995   1.695   6.709   4.647
 2168TIP3    H227996   1.704   6.591   4.553
 2169TIP3   OH227997   2.066   0.916  14.657
 2169TIP3    H127998   2.160   0.927  14.673
 2169TIP3    H227999   2.060   0.902  14.563
 2170TIP3   OH228000   3.723   0.596   3.684
 2170TIP3    H128001   3.637   0.593   3.644
 2170TIP3    H228002   3.715   0.662   3.753
 2171TIP3   OH228003   4.733   5.324  13.113
 2171TIP3    H128004   4.661   5.386  13.127
 2171TIP3    H228005   4.717   5.289  13.025
 2172TIP3   OH228006   0.354   5.781   1.698
 2172TIP3    H128007   0.278   5.832   1.671
 2172TIP3    H228008   0.330   5.690   1.677
 2173TIP3   OH228009   3.569   3.851   1.285
 2173TIP3    H128010   3.477   3.853   1.312
 2173TIP3    H228011   3.579   3.766   1.242
 2174TIP3   OH228012   3.895   2.382  11.954
 2174TIP3    H128013   3.959   2.327  12.000
 2174TIP3    H228014   3.814   2.332  11.959
 2175TIP3   OH228015   4.399   1.883  13.412
 2175TIP3    H128016   4.440   1.800  13.389
 2175TIP3    H228017   4.400   1.935  13.332
 2176TIP3   OH228018   3.227   4.255   4.565
 2176TIP3    H128019   3.132   4.259   4.555
 2176TIP3    H228020   3.243   4.277   4.657
 2177TIP3   OH228021   0.086   3.633  12.087
 2177TIP3    H128022   0.089   3.539  12.068
 2177TIP3    H228023   0.141   3.672  12.019
 2178TIP3   OH228024   1.275   2.816  15.672
 2178TIP3    H128025   1.312   2.902  15.650
 2178TIP3    H228026   1.255   2.776  15.587
 2179TIP3   OH228027   3.909   4.380   0.858
 2179TIP3    H128028   3.936   4.472   0.864
 2179TIP3    H228029   3.815   4.384   0.840
 2180TIP3   OH228030   6.335   0.920   2.633
 2180TIP3    H128031   6.315   0.832   2.601
 2180TIP3    H228032   6.376   0.906   2.718
 2181TIP3   OH228033   3.913   3.026  12.858
 2181TIP3    H128034   3.945   2.972  12.787
 2181TIP3    H228035   3.992   3.057  12.903
 2182TIP3   OH228036   5.198   0.996   4.836
 2182TIP3    H128037   5.173   0.951   4.917
 2182TIP3    H228038   5.292   1.010   4.845
 2183TIP3   OH228039   3.586   5.637   3.897
 2183TIP3    H128040   3.628   5.597   3.973
 2183TIP3    H228041   3.551   5.720   3.929
 2184TIP3   OH228042   0.023   3.361   0.144
 2184TIP3    H128043  -0.010   3.274   0.122
 2184TIP3    H228044  -0.031   3.421   0.093
 2185TIP3   OH228045   3.354   1.993  17.156
 2185TIP3    H128046   3.448   1.976  17.169
 2185TIP3    H228047   3.327   2.039  17.236
 2186TIP3   OH228048   1.039   5.912  15.553
 2186TIP3    H128049   0.969   5.977  15.543
 2186TIP3    H228050   1.058   5.911  15.647
 2187TIP3   OH228051   1.165   3.674   3.667
 2187TIP3    H128052   1.183   3.765   3.643
 2187TIP3    H228053   1.154   3.677   3.762
 2188TIP3   OH228054   1.564   3.802   4.257
 2188TIP3    H128055   1.493   3.865   4.270
 2188TIP3    H228056   1.564   3.750   4.337
 2189TIP3   OH228057   6.044   1.845  16.260
 2189TIP3    H128058   6.090   1.908  16.315
 2189TIP3    H228059   6.104   1.771  16.253
 2190TIP3   OH228060   6.058   1.938  12.983
 2190TIP3    H128061   5.967   1.950  12.956
 2190TIP3    H228062   6.092   2.027  12.991
 2191TIP3   OH228063   3.614   5.987  12.443
 2191TIP3    H128064   3.581   5.898  12.459
 2191TIP3    H228065   3.595   6.034  12.524
 2192TIP3   OH228066   5.927   2.481   5.178
 2192TIP3    H128067   5.977   2.528   5.245
 2192TIP3    H228068   5.840   2.519   5.182
 2193TIP3   OH228069   1.490   5.743   1.534
 2193TIP3    H128070   1.528   5.656   1.547
 2193TIP3    H228071   1.396   5.729   1.537
 2194TIP3   OH228072   3.071   0.168   1.152
 2194TIP3    H128073   3.167   0.175   1.158
 2194TIP3    H228074   3.054   0.075   1.162
 2195TIP3   OH228075   2.322   1.307   2.112
 2195TIP3    H128076   2.369   1.389   2.125
 2195TIP3    H228077   2.296   1.280   2.200
 2196TIP3   OH228078   5.494   2.318  10.972
 2196TIP3    H128079   5.588   2.318  10.988
 2196TIP3    H228080   5.485   2.357  10.885
 2197TIP3   OH228081   4.550   0.873   1.322
 2197TIP3    H128082   4.636   0.830   1.328
 2197TIP3    H228083   4.542   0.898   1.230
 2198TIP3   OH228084   5.167   2.182   0.789
 2198TIP3    H128085   5.227   2.124   0.743
 2198TIP3    H228086   5.171   2.264   0.740
 2199TIP3   OH228087   2.691   0.487   1.536
 2199TIP3    H128088   2.746   0.553   1.494
 2199TIP3    H228089   2.608   0.491   1.489
 2200TIP3   OH228090   5.504   4.817  13.618
 2200TIP3    H128091   5.504   4.753  13.547
 2200TIP3    H228092   5.583   4.870  13.603
 2201TIP3   OH228093   5.375   2.641   5.938
 2201TIP3    H128094   5.438   2.581   5.976
 2201TIP3    H228095   5.325   2.675   6.012
 2202TIP3   OH228096   2.740   6.594   5.769
 2202TIP3    H128097   2.779   6.682   5.763
 2202TIP3    H228098   2.726   6.568   5.678
 2203TIP3   OH228099   0.523   3.870  12.072
 2203TIP3    H128100   0.472   3.946  12.100
 2203TIP3    H228101   0.472   3.795  12.102
 2204TIP3   OH228102   2.035   4.060  11.208
 2204TIP3    H128103   2.030   4.100  11.295
 2204TIP3    H228104   2.107   3.997  11.215
 2205TIP3   OH228105   6.191   1.242  10.701
 2205TIP3    H128106   6.121   1.250  10.767
 2205TIP3    H228107   6.206   1.148  10.693
 2206TIP3   OH228108   5.342   2.924  12.532
 2206TIP3    H128109   5.356   2.836  12.567
 2206TIP3    H228110   5.302   2.910  12.446
 2207TIP3   OH228111   5.605   4.102   3.979
 2207TIP3    H128112   5.596   4.155   3.900
 2207TIP3    H228113   5.652   4.157   4.041
 2208TIP3   OH228114   1.587   1.298   2.620
 2208TIP3    H128115   1.662   1.357   2.613
 2208TIP3    H228116   1.557   1.286   2.530
 2209TIP3   OH228117   4.698   4.130   3.071
 2209TIP3    H128118   4.773   4.108   3.127
 2209TIP3    H228119   4.723   4.212   3.028
 2210TIP3   OH228120   5.164   2.119   2.889
 2210TIP3    H128121   5.103   2.140   2.961
 2210TIP3    H228122   5.109   2.075   2.824
 2211TIP3   OH228123   2.460   2.510   0.347
 2211TIP3    H128124   2.468   2.598   0.384
 2211TIP3    H228125   2.403   2.521   0.271
 2212TIP3   OH228126   5.260   6.429  12.100
 2212TIP3    H128127   5.335   6.374  12.077
 2212TIP3    H228128   5.200   6.369  12.145
 2213TIP3   OH228129   3.343   2.491  14.495
 2213TIP3    H128130   3.320   2.582  14.514
 2213TIP3    H228131   3.439   2.491  14.491
 2214TIP3   OH228132   6.252   0.047   3.399
 2214TIP3    H128133   6.299   0.109   3.456
 2214TIP3    H228134   6.257   0.086   3.312
 2215TIP3   OH228135   4.542   2.317  11.941
 2215TIP3    H128136   4.552   2.259  11.866
 2215TIP3    H228137   4.448   2.323  11.954
 2216TIP3   OH228138   6.329   0.118  13.278
 2216TIP3    H128139   6.241   0.099  13.245
 2216TIP3    H228140   6.360   0.034  13.312
 2217TIP3   OH228141   4.912   3.797   6.131
 2217TIP3    H128142   4.927   3.703   6.120
 2217TIP3    H228143   4.954   3.837   6.055
 2218TIP3   OH228144   6.076   5.380   5.927
 2218TIP3    H128145   5.984   5.361   5.943
 2218TIP3    H228146   6.099   5.446   5.993
 2219TIP3   OH228147   4.882   5.309   0.654
 2219TIP3    H128148   4.816   5.353   0.601
 2219TIP3    H228149   4.832   5.256   0.716
 2220TIP3   OH228150   3.553   0.441   1.492
 2220TIP3    H128151   3.642   0.448   1.458
 2220TIP3    H228152   3.557   0.481   1.579
 2221TIP3   OH228153   5.234   5.888  10.751
 2221TIP3    H128154   5.211   5.899  10.659
 2221TIP3    H228155   5.309   5.828  10.750
 2222TIP3   OH228156   5.183   1.997   5.094
 2222TIP3    H128157   5.269   2.000   5.051
 2222TIP3    H228158   5.153   2.088   5.093
 2223TIP3   OH228159   3.690   0.595  12.889
 2223TIP3    H128160   3.761   0.582  12.952
 2223TIP3    H228161   3.650   0.678  12.914
 2224TIP3   OH228162   4.377   1.956   3.846
 2224TIP3    H128163   4.394   2.050   3.846
 2224TIP3    H228164   4.291   1.947   3.805
 2225TIP3   OH228165   6.286   3.887  14.349
 2225TIP3    H128166   6.230   3.818  14.312
 2225TIP3    H228167   6.239   3.968  14.330
 2226TIP3   OH228168   2.367   1.215  15.846
 2226TIP3    H128169   2.300   1.218  15.914
 2226TIP3    H228170   2.354   1.294  15.794
 2227TIP3   OH228171   3.987   5.967   2.624
 2227TIP3    H128172   3.906   5.951   2.575
 2227TIP3    H228173   4.039   5.888   2.611
 2228TIP3   OH228174   6.378   1.231   2.994
 2228TIP3    H128175   6.397   1.198   3.082
 2228TIP3    H228176   6.463   1.236   2.951
 2229TIP3   OH228177   3.611   3.336  15.154
 2229TIP3    H128178   3.592   3.263  15.095
 2229TIP3    H228179   3.570   3.412  15.113
 2230TIP3   OH228180   6.571   6.114  12.784
 2230TIP3    H128181   6.649   6.076  12.744
 2230TIP3    H228182   6.603   6.193  12.828
 2231TIP3   OH228183   3.020   4.403   0.897
 2231TIP3    H128184   2.996   4.479   0.951
 2231TIP3    H228185   3.111   4.386   0.919
 2232TIP3   OH228186   5.509   3.979  11.980
 2232TIP3    H128187   5.481   3.895  11.943
 2232TIP3    H228188   5.471   3.980  12.068
 2233TIP3   OH228189   1.224   4.149  12.738
 2233TIP3    H128190   1.165   4.109  12.801
 2233TIP3    H228191   1.285   4.200  12.791
 2234TIP3   OH228192   4.080   5.387  14.919
 2234TIP3    H128193   4.150   5.396  14.983
 2234TIP3    H228194   4.101   5.452  14.851
 2235TIP3   OH228195   3.356   2.919   6.354
 2235TIP3    H128196   3.371   2.829   6.325
 2235TIP3    H228197   3.443   2.951   6.377
 2236TIP3   OH228198   0.631   5.773   3.375
 2236TIP3    H128199   0.546   5.816   3.375
 2236TIP3    H228200   0.683   5.823   3.311
 2237TIP3   OH228201   2.596   6.071  16.308
 2237TIP3    H128202   2.673   6.119  16.279
 2237TIP3    H228203   2.547   6.134  16.361
 2238TIP3   OH228204   2.529   5.461   0.869
 2238TIP3    H128205   2.553   5.375   0.904
 2238TIP3    H228206   2.451   5.444   0.815
 2239TIP3   OH228207   5.156   2.686   2.902
 2239TIP3    H128208   5.145   2.663   2.994
 2239TIP3    H228209   5.232   2.636   2.873
 2240TIP3   OH228210   1.602   3.072  13.923
 2240TIP3    H128211   1.552   3.094  14.001
 2240TIP3    H228212   1.655   2.996  13.949
 2241TIP3   OH228213   5.519   1.610  16.759
 2241TIP3    H128214   5.468   1.531  16.779
 2241TIP3    H228215   5.581   1.617  16.832
 2242TIP3   OH228216   1.555   2.165  11.358
 2242TIP3    H128217   1.467   2.129  11.369
 2242TIP3    H228218   1.547   2.224  11.282
 2243TIP3   OH228219   0.882   2.194  12.003
 2243TIP3    H128220   0.796   2.234  12.015
 2243TIP3    H228221   0.879   2.113  12.052
 2244TIP3   OH228222   3.193   6.399  12.070
 2244TIP3    H128223   3.282   6.364  12.062
 2244TIP3    H228224   3.164   6.413  11.980
 2245TIP3   OH228225   2.438   4.197  16.121
 2245TIP3    H128226   2.381   4.274  16.121
 2245TIP3    H228227   2.527   4.233  16.125
 2246TIP3   OH228228   4.510   3.466  14.307
 2246TIP3    H128229   4.550   3.379  14.310
 2246TIP3    H228230   4.583   3.526  14.319
 2247TIP3   OH228231   2.188   4.205  12.515
 2247TIP3    H128232   2.123   4.254  12.567
 2247TIP3    H228233   2.243   4.273  12.477
 2248TIP3   OH228234   3.596   4.029   4.284
 2248TIP3    H128235   3.546   4.003   4.361
 2248TIP3    H228236   3.583   4.123   4.278
 2249TIP3   OH228237   2.450   2.971   3.037
 2249TIP3    H128238   2.418   2.922   3.112
 2249TIP3    H228239   2.372   3.017   3.004
 2250TIP3   OH228240   3.814   6.444   2.830
 2250TIP3    H128241   3.880   6.403   2.774
 2250TIP3    H228242   3.748   6.376   2.844
 2251TIP3   OH228243   4.529   1.086   1.504
 2251TIP3    H128244   4.489   1.134   1.431
 2251TIP3    H228245   4.569   1.009   1.463
 2252TIP3   OH228246   2.590   5.814   0.180
 2252TIP3    H128247   2.570   5.872   0.106
 2252TIP3    H228248   2.614   5.731   0.139
 2253TIP3   OH228249   2.257   1.323  12.363
 2253TIP3    H128250   2.297   1.396  12.316
 2253TIP3    H228251   2.283   1.245  12.314
 2254TIP3   OH228252   5.968   2.903   4.247
 2254TIP3    H128253   5.997   2.814   4.266
 2254TIP3    H228254   6.046   2.948   4.216
 2255TIP3   OH228255   2.072   2.259  12.557
 2255TIP3    H128256   1.979   2.250  12.537
 2255TIP3    H228257   2.115   2.193  12.502
 2256TIP3   OH228258   0.250   4.710  12.082
 2256TIP3    H128259   0.268   4.632  12.028
 2256TIP3    H228260   0.155   4.711  12.092
 2257TIP3   OH228261   2.290   3.221   1.940
 2257TIP3    H128262   2.369   3.246   1.891
 2257TIP3    H228263   2.270   3.297   1.993
 2258TIP3   OH228264   0.388   6.569  13.687
 2258TIP3    H128265   0.464   6.551  13.632
 2258TIP3    H228266   0.329   6.495  13.672
 2259TIP3   OH228267   4.009   3.371   1.529
 2259TIP3    H128268   4.074   3.304   1.509
 2259TIP3    H228269   4.042   3.450   1.488
 2260TIP3   OH228270   3.859   2.017   0.880
 2260TIP3    H128271   3.843   1.923   0.885
 2260TIP3    H228272   3.954   2.025   0.873
 2261TIP3   OH228273   1.332   6.082  15.083
 2261TIP3    H128274   1.406   6.024  15.065
 2261TIP3    H228275   1.347   6.113  15.173
 2262TIP3   OH228276   4.056   5.073  13.362
 2262TIP3    H128277   4.093   4.988  13.388
 2262TIP3    H228278   3.961   5.061  13.370
 2263TIP3   OH228279   5.478   5.446  11.381
 2263TIP3    H128280   5.461   5.509  11.451
 2263TIP3    H228281   5.400   5.448  11.326
 2264TIP3   OH228282   6.783   6.770  12.614
 2264TIP3    H128283   6.823   6.834  12.672
 2264TIP3    H228284   6.710   6.735  12.665
 2265TIP3   OH228285   3.270   1.525   3.386
 2265TIP3    H128286   3.365   1.519   3.395
 2265TIP3    H228287   3.240   1.434   3.385
 2266TIP3   OH228288   5.085   0.023  11.677
 2266TIP3    H128289   5.115   0.106  11.640
 2266TIP3    H228290   5.082   0.039  11.771
 2267TIP3   OH228291   4.383   0.261  11.762
 2267TIP3    H128292   4.468   0.303  11.746
 2267TIP3    H228293   4.378   0.252  11.857
 2268TIP3   OH228294   0.861   4.449   2.654
 2268TIP3    H128295   0.836   4.449   2.562
 2268TIP3    H228296   0.880   4.357   2.675
 2269TIP3   OH228297   3.887   1.937  12.003
 2269TIP3    H128298   3.810   1.921  11.948
 2269TIP3    H228299   3.881   1.871  12.072
 2270TIP3   OH228300   1.582   4.640  10.992
 2270TIP3    H128301   1.537   4.653  11.075
 2270TIP3    H228302   1.527   4.684  10.928
 2271TIP3   OH228303   0.267   2.480  16.213
 2271TIP3    H128304   0.257   2.495  16.119
 2271TIP3    H228305   0.307   2.394  16.220
 2272TIP3   OH228306   5.336   1.946  13.415
 2272TIP3    H128307   5.303   1.862  13.445
 2272TIP3    H228308   5.356   1.932  13.322
 2273TIP3   OH228309   3.632   3.253   2.231
 2273TIP3    H128310   3.699   3.218   2.172
 2273TIP3    H228311   3.674   3.257   2.316
 2274TIP3   OH228312   2.417   5.269  10.454
 2274TIP3    H128313   2.344   5.247  10.396
 2274TIP3    H228314   2.489   5.212  10.425
 2275TIP3   OH228315   5.035   3.439  13.964
 2275TIP3    H128316   5.113   3.495  13.960
 2275TIP3    H228317   4.991   3.452  13.880
 2276TIP3   OH228318   3.233   1.174  15.660
 2276TIP3    H128319   3.195   1.213  15.581
 2276TIP3    H228320   3.286   1.101  15.627
 2277TIP3   OH228321   3.681   4.906   0.622
 2277TIP3    H128322   3.624   4.832   0.643
 2277TIP3    H228323   3.643   4.944   0.542
 2278TIP3   OH228324   3.713   4.735   4.766
 2278TIP3    H128325   3.680   4.719   4.678
 2278TIP3    H228326   3.638   4.773   4.813
 2279TIP3   OH228327   2.352   0.741   2.992
 2279TIP3    H128328   2.286   0.809   3.004
 2279TIP3    H228329   2.427   0.771   3.043
 2280TIP3   OH228330   2.264   2.738   3.514
 2280TIP3    H128331   2.333   2.697   3.566
 2280TIP3    H228332   2.234   2.812   3.567
 2281TIP3   OH228333   0.573   2.775   5.742
 2281TIP3    H128334   0.481   2.754   5.758
 2281TIP3    H228335   0.600   2.713   5.674
 2282TIP3   OH228336   4.814   0.246  11.952
 2282TIP3    H128337   4.737   0.210  11.996
 2282TIP3    H228338   4.888   0.203  11.995
 2283TIP3   OH228339   2.421   3.353   2.597
 2283TIP3    H128340   2.392   3.349   2.688
 2283TIP3    H228341   2.508   3.314   2.598
 2284TIP3   OH228342   1.687   5.451  13.902
 2284TIP3    H128343   1.592   5.461  13.898
 2284TIP3    H228344   1.721   5.515  13.839
 2285TIP3   OH228345   6.524   3.620  13.922
 2285TIP3    H128346   6.478   3.539  13.944
 2285TIP3    H228347   6.615   3.594  13.909
 2286TIP3   OH228348   1.624   0.149  12.353
 2286TIP3    H128349   1.669   0.077  12.309
 2286TIP3    H228350   1.694   0.197  12.397
 2287TIP3   OH228351   5.743   6.443   3.856
 2287TIP3    H128352   5.757   6.430   3.949
 2287TIP3    H228353   5.810   6.506   3.830
 2288TIP3   OH228354   3.938   5.379  12.613
 2288TIP3    H128355   4.010   5.365  12.675
 2288TIP3    H228356   3.973   5.350  12.529
 2289TIP3   OH228357   1.316   0.656   2.028
 2289TIP3    H128358   1.313   0.741   2.071
 2289TIP3    H228359   1.227   0.621   2.039
 2290TIP3   OH228360   5.695   6.011  15.739
 2290TIP3    H128361   5.695   5.927  15.785
 2290TIP3    H228362   5.786   6.042  15.745
 2291TIP3   OH228363   2.046   0.368  17.209
 2291TIP3    H128364   1.954   0.354  17.187
 2291TIP3    H228365   2.053   0.341  17.301
 2292TIP3   OH228366   4.085   2.251   5.989
 2292TIP3    H128367   4.113   2.210   5.907
 2292TIP3    H228368   4.063   2.177   6.046
 2293TIP3   OH228369   5.078   2.372   3.816
 2293TIP3    H128370   5.017   2.307   3.849
 2293TIP3    H228371   5.165   2.332   3.827
 2294TIP3   OH228372   5.418   6.309  11.348
 2294TIP3    H128373   5.506   6.284  11.319
 2294TIP3    H228374   5.372   6.333  11.267
 2295TIP3   OH228375   2.980   6.019  16.407
 2295TIP3    H128376   3.074   6.036  16.412
 2295TIP3    H228377   2.949   6.074  16.335
 2296TIP3   OH228378   3.811   0.831   4.196
 2296TIP3    H128379   3.861   0.814   4.276
 2296TIP3    H228380   3.731   0.873   4.226
 2297TIP3   OH228381   5.576   2.614  14.377
 2297TIP3    H128382   5.498   2.606  14.323
 2297TIP3    H228383   5.604   2.524  14.392
 2298TIP3   OH228384   4.395   5.229  10.959
 2298TIP3    H128385   4.422   5.189  11.042
 2298TIP3    H228386   4.428   5.319  10.964
 2299TIP3   OH228387   3.677   3.172   0.325
 2299TIP3    H128388   3.717   3.175   0.412
 2299TIP3    H228389   3.592   3.216   0.337
 2300TIP3   OH228390   4.950   2.484  11.621
 2300TIP3    H128391   4.874   2.496  11.679
 2300TIP3    H228392   4.921   2.420  11.556
 2301TIP3   OH228393   5.086   0.286   2.862
 2301TIP3    H128394   5.058   0.195   2.857
 2301TIP3    H228395   5.047   0.319   2.943
 2302TIP3   OH228396   4.835   2.572  16.985
 2302TIP3    H128397   4.918   2.608  17.018
 2302TIP3    H228398   4.770   2.599  17.050
 2303TIP3   OH228399   1.459   0.962   2.346
 2303TIP3    H128400   1.552   0.941   2.349
 2303TIP3    H228401   1.453   1.052   2.376
 2304TIP3   OH228402   4.006   0.221  11.853
 2304TIP3    H128403   4.043   0.297  11.899
 2304TIP3    H228404   3.965   0.258  11.775
 2305TIP3   OH228405   3.233   3.178   1.545
 2305TIP3    H128406   3.144   3.211   1.554
 2305TIP3    H228407   3.288   3.256   1.542
 2306TIP3   OH228408   4.298   1.804  16.649
 2306TIP3    H128409   4.292   1.869  16.719
 2306TIP3    H228410   4.291   1.854  16.568
 2307TIP3   OH228411   1.437   6.693  11.708
 2307TIP3    H128412   1.524   6.690  11.669
 2307TIP3    H228413   1.438   6.622  11.773
 2308TIP3   OH228414   2.234   4.610   6.539
 2308TIP3    H128415   2.146   4.627   6.573
 2308TIP3    H228416   2.291   4.618   6.615
 2309TIP3   OH228417   5.047   3.318  14.694
 2309TIP3    H128418   5.123   3.284  14.741
 2309TIP3    H228419   4.973   3.267  14.728
 2310TIP3   OH228420   3.130   3.483   6.263
 2310TIP3    H128421   3.189   3.419   6.304
 2310TIP3    H228422   3.177   3.566   6.270
 2311TIP3   OH228423   5.637   5.272  16.870
 2311TIP3    H128424   5.621   5.353  16.820
 2311TIP3    H228425   5.620   5.202  16.807
 2312TIP3   OH228426   0.750   5.885   4.012
 2312TIP3    H128427   0.845   5.875   4.010
 2312TIP3    H228428   0.718   5.825   3.944
 2313TIP3   OH228429   0.116   4.490   4.784
 2313TIP3    H128430   0.077   4.501   4.697
 2313TIP3    H228431   0.065   4.420   4.824
 2314TIP3   OH228432   3.213   2.446   5.970
 2314TIP3    H128433   3.195   2.504   6.045
 2314TIP3    H228434   3.307   2.432   5.973
 2315TIP3   OH228435   4.262   3.325   5.481
 2315TIP3    H128436   4.223   3.241   5.505
 2315TIP3    H228437   4.312   3.351   5.559
 2316TIP3   OH228438   1.247   0.934   2.164
 2316TIP3    H128439   1.316   0.946   2.230
 2316TIP3    H228440   1.167   0.919   2.215
 2317TIP3   OH228441   5.350   1.317   2.981
 2317TIP3    H128442   5.443   1.309   3.003
 2317TIP3    H228443   5.317   1.227   2.989
 2318TIP3   OH228444   4.474   6.660  10.334
 2318TIP3    H128445   4.380   6.674  10.323
 2318TIP3    H228446   4.491   6.575  10.293
 2319TIP3   OH228447   0.367   0.147  15.508
 2319TIP3    H128448   0.285   0.102  15.530
 2319TIP3    H228449   0.429   0.076  15.492
 2320TIP3   OH228450   2.673   0.989   2.143
 2320TIP3    H128451   2.731   0.956   2.074
 2320TIP3    H228452   2.619   1.055   2.099
 2321TIP3   OH228453   5.756   5.003  11.527
 2321TIP3    H128454   5.837   5.053  11.517
 2321TIP3    H228455   5.689   5.069  11.545
 2322TIP3   OH228456   6.485   3.855  14.558
 2322TIP3    H128457   6.422   3.854  14.486
 2322TIP3    H228458   6.433   3.834  14.635
 2323TIP3   OH228459   5.202   4.368   1.887
 2323TIP3    H128460   5.146   4.363   1.964
 2323TIP3    H228461   5.149   4.329   1.817
 2324TIP3   OH228462   4.129   3.951   3.982
 2324TIP3    H128463   4.078   4.023   3.945
 2324TIP3    H228464   4.108   3.876   3.926
 2325TIP3   OH228465   0.108   4.218   3.443
 2325TIP3    H128466   0.110   4.306   3.481
 2325TIP3    H228467   0.134   4.231   3.351
 2326TIP3   OH228468   3.844   0.956   3.026
 2326TIP3    H128469   3.790   1.035   3.021
 2326TIP3    H228470   3.811   0.908   3.102
 2327TIP3   OH228471   0.575   6.363  13.836
 2327TIP3    H128472   0.490   6.345  13.876
 2327TIP3    H228473   0.559   6.355  13.742
 2328TIP3   OH228474   3.442   4.811  16.257
 2328TIP3    H128475   3.446   4.739  16.193
 2328TIP3    H228476   3.349   4.831  16.264
 2329TIP3   OH228477   4.202   4.610  12.065
 2329TIP3    H128478   4.281   4.582  12.112
 2329TIP3    H228479   4.184   4.538  12.005
 2330TIP3   OH228480   6.392   0.775   4.880
 2330TIP3    H128481   6.376   0.796   4.788
 2330TIP3    H228482   6.319   0.815   4.927
 2331TIP3   OH228483   6.240   2.695  14.681
 2331TIP3    H128484   6.164   2.746  14.652
 2331TIP3    H228485   6.239   2.704  14.777
 2332TIP3   OH228486   4.684   2.742   2.351
 2332TIP3    H128487   4.636   2.663   2.326
 2332TIP3    H228488   4.738   2.763   2.274
 2333TIP3   OH228489   2.891   0.979   5.004
 2333TIP3    H128490   2.935   1.001   4.921
 2333TIP3    H228491   2.875   1.064   5.045
 2334TIP3   OH228492   0.276   6.647  15.085
 2334TIP3    H128493   0.269   6.605  14.999
 2334TIP3    H228494   0.185   6.662  15.111
 2335TIP3   OH228495   5.987   1.307   6.010
 2335TIP3    H128496   6.053   1.366   6.045
 2335TIP3    H228497   5.983   1.236   6.074
 2336TIP3   OH228498   6.730   2.307  14.697
 2336TIP3    H128499   6.665   2.297  14.767
 2336TIP3    H228500   6.803   2.251  14.725
 2337TIP3   OH228501   1.546   3.283  16.710
 2337TIP3    H128502   1.630   3.318  16.680
 2337TIP3    H228503   1.499   3.359  16.744
 2338TIP3   OH228504   3.544   3.537   5.953
 2338TIP3    H128505   3.583   3.471   6.011
 2338TIP3    H228506   3.543   3.617   6.006
 2339TIP3   OH228507   2.970   1.807   2.069
 2339TIP3    H128508   2.983   1.899   2.093
 2339TIP3    H228509   2.882   1.786   2.102
 2340TIP3   OH228510   6.063   2.463  16.364
 2340TIP3    H128511   6.047   2.449  16.458
 2340TIP3    H228512   6.061   2.558  16.353
 2341TIP3   OH228513   5.663   1.614   0.263
 2341TIP3    H128514   5.649   1.621   0.168
 2341TIP3    H228515   5.752   1.582   0.272
 2342TIP3   OH228516   0.735   0.014  12.675
 2342TIP3    H128517   0.824  -0.014  12.697
 2342TIP3    H228518   0.696  -0.061  12.630
 2343TIP3   OH228519   1.892   6.581   4.872
 2343TIP3    H128520   1.887   6.501   4.820
 2343TIP3    H228521   1.958   6.635   4.827
 2344TIP3   OH228522   1.275   3.911  14.686
 2344TIP3    H128523   1.242   3.858  14.613
 2344TIP3    H228524   1.347   3.962  14.647
 2345TIP3   OH228525   0.053   0.164  16.938
 2345TIP3    H128526  -0.009   0.200  17.002
 2345TIP3    H228527   0.077   0.238  16.883
 2346TIP3   OH228528   5.007   4.693  14.210
 2346TIP3    H128529   5.053   4.609  14.198
 2346TIP3    H228530   5.025   4.716  14.302
 2347TIP3   OH228531   4.302   1.160  14.234
 2347TIP3    H128532   4.227   1.113  14.196
 2347TIP3    H228533   4.370   1.154  14.167
 2348TIP3   OH228534   2.386   3.312  11.537
 2348TIP3    H128535   2.384   3.405  11.562
 2348TIP3    H228536   2.446   3.308  11.463
 2349TIP3   OH228537   2.068   0.344  15.062
 2349TIP3    H128538   2.078   0.399  14.985
 2349TIP3    H228539   2.085   0.403  15.136
 2350TIP3   OH228540   4.231   1.492   5.670
 2350TIP3    H128541   4.139   1.488   5.696
 2350TIP3    H228542   4.262   1.577   5.701
 2351TIP3   OH228543   6.599   3.621  11.525
 2351TIP3    H128544   6.665   3.689  11.509
 2351TIP3    H228545   6.643   3.539  11.504
 2352TIP3   OH228546   4.027   0.234   0.441
 2352TIP3    H128547   4.087   0.307   0.458
 2352TIP3    H228548   3.971   0.230   0.518
 2353TIP3   OH228549   0.391   4.271   0.290
 2353TIP3    H128550   0.397   4.215   0.213
 2353TIP3    H228551   0.479   4.270   0.328
 2354TIP3   OH228552   1.092   3.444  16.890
 2354TIP3    H128553   1.084   3.366  16.834
 2354TIP3    H228554   1.090   3.518  16.830
 2355TIP3   OH228555   1.463   0.331  16.194
 2355TIP3    H128556   1.525   0.266  16.163
 2355TIP3    H228557   1.432   0.296  16.278
 2356TIP3   OH228558   0.253   6.139  12.417
 2356TIP3    H128559   0.252   6.078  12.491
 2356TIP3    H228560   0.164   6.134  12.381
 2357TIP3   OH228561   1.248   0.481   4.252
 2357TIP3    H128562   1.188   0.408   4.233
 2357TIP3    H228563   1.200   0.559   4.224
 2358TIP3   OH228564   6.149   6.442   0.414
 2358TIP3    H128565   6.111   6.357   0.388
 2358TIP3    H228566   6.204   6.421   0.489
 2359TIP3   OH228567   5.950   4.521  13.777
 2359TIP3    H128568   5.939   4.429  13.802
 2359TIP3    H228569   5.981   4.518  13.687
 2360TIP3   OH228570   6.761   6.547   1.204
 2360TIP3    H128571   6.796   6.526   1.291
 2360TIP3    H228572   6.796   6.634   1.184
 2361TIP3   OH228573   0.392   0.181   0.037
 2361TIP3    H128574   0.436   0.165   0.120
 2361TIP3    H228575   0.353   0.097   0.013
 2362TIP3   OH228576   2.741   6.590  11.908
 2362TIP3    H128577   2.817   6.608  11.852
 2362TIP3    H228578   2.689   6.528  11.857
 2363TIP3   OH228579   5.532   3.896  15.756
 2363TIP3    H128580   5.616   3.916  15.798
 2363TIP3    H228581   5.556   3.843  15.680
 2364TIP3   OH228582   4.004   4.222  16.081
 2364TIP3    H128583   4.041   4.144  16.040
 2364TIP3    H228584   4.065   4.243  16.152
 2365TIP3   OH228585   4.924   2.774  10.992
 2365TIP3    H128586   4.960   2.751  11.078
 2365TIP3    H228587   4.902   2.690  10.952
 2366TIP3   OH228588   3.353   3.605  13.726
 2366TIP3    H128589   3.355   3.509  13.729
 2366TIP3    H228590   3.260   3.627  13.731
 2367TIP3   OH228591   5.739   4.499  12.377
 2367TIP3    H128592   5.832   4.487  12.354
 2367TIP3    H228593   5.732   4.463  12.465
 2368TIP3   OH228594   4.646   3.798  16.142
 2368TIP3    H128595   4.660   3.795  16.237
 2368TIP3    H228596   4.725   3.842  16.108
 2369TIP3   OH228597   1.780   6.308  10.906
 2369TIP3    H128598   1.752   6.400  10.897
 2369TIP3    H228599   1.761   6.286  10.997
 2370TIP3   OH228600   6.196   4.506  13.051
 2370TIP3    H128601   6.259   4.553  13.105
 2370TIP3    H228602   6.149   4.450  13.112
 2371TIP3   OH228603   0.061   1.242   1.823
 2371TIP3    H128604  -0.019   1.290   1.800
 2371TIP3    H228605   0.052   1.159   1.777
 2372TIP3   OH228606   5.828   0.606   0.725
 2372TIP3    H128607   5.863   0.534   0.673
 2372TIP3    H228608   5.859   0.588   0.814
 2373TIP3   OH228609   4.719   2.497   5.022
 2373TIP3    H128610   4.714   2.431   4.953
 2373TIP3    H228611   4.672   2.572   4.987
 2374TIP3   OH228612   4.408   3.993   2.569
 2374TIP3    H128613   4.323   4.005   2.527
 2374TIP3    H228614   4.459   4.069   2.542
 2375TIP3   OH228615   4.622   6.336   1.023
 2375TIP3    H128616   4.593   6.298   0.940
 2375TIP3    H228617   4.597   6.428   1.018
 2376TIP3   OH228618   2.642   2.250   4.293
 2376TIP3    H128619   2.634   2.195   4.371
 2376TIP3    H228620   2.556   2.247   4.251
 2377TIP3   OH228621   3.727   4.114   0.690
 2377TIP3    H128622   3.821   4.133   0.687
 2377TIP3    H228623   3.720   4.022   0.665
 2378TIP3   OH228624   0.282   5.346   1.935
 2378TIP3    H128625   0.368   5.318   1.905
 2378TIP3    H228626   0.246   5.271   1.983
 2379TIP3   OH228627   3.565   4.152   1.715
 2379TIP3    H128628   3.579   4.105   1.797
 2379TIP3    H228629   3.487   4.205   1.731
 2380TIP3   OH228630   3.221   1.441  16.523
 2380TIP3    H128631   3.259   1.509  16.467
 2380TIP3    H228632   3.129   1.439  16.497
 2381TIP3   OH228633   1.415   2.798  11.918
 2381TIP3    H128634   1.431   2.812  12.011
 2381TIP3    H228635   1.359   2.872  11.893
 2382TIP3   OH228636   1.701   4.667   5.957
 2382TIP3    H128637   1.733   4.661   5.867
 2382TIP3    H228638   1.778   4.651   6.011
 2383TIP3   OH228639   2.425   4.550  15.287
 2383TIP3    H128640   2.349   4.495  15.268
 2383TIP3    H228641   2.432   4.549  15.382
 2384TIP3   OH228642   0.285   1.072   1.943
 2384TIP3    H128643   0.275   1.056   1.849
 2384TIP3    H228644   0.370   1.035   1.965
 2385TIP3   OH228645   4.795   2.751   0.915
 2385TIP3    H128646   4.738   2.704   0.975
 2385TIP3    H228647   4.737   2.808   0.865
 2386TIP3   OH228648   6.006   6.523  14.171
 2386TIP3    H128649   5.918   6.557  14.154
 2386TIP3    H228650   6.062   6.601  14.170
 2387TIP3   OH228651   5.983   1.330  16.057
 2387TIP3    H128652   5.923   1.380  16.112
 2387TIP3    H228653   5.954   1.347  15.967
 2388TIP3   OH228654   3.470   3.256  15.957
 2388TIP3    H128655   3.399   3.200  15.987
 2388TIP3    H228656   3.524   3.270  16.035
 2389TIP3   OH228657   6.726   5.947  11.090
 2389TIP3    H128658   6.765   5.936  11.003
 2389TIP3    H228659   6.784   5.898  11.149
 2390TIP3   OH228660   1.622   0.156  12.972
 2390TIP3    H128661   1.575   0.075  12.952
 2390TIP3    H228662   1.656   0.185  12.887
 2391TIP3   OH228663   4.132   0.110   5.375
 2391TIP3    H128664   4.069   0.182   5.380
 2391TIP3    H228665   4.104   0.049   5.444
 2392TIP3   OH228666   1.939   5.126  14.958
 2392TIP3    H128667   1.992   5.206  14.961
 2392TIP3    H228668   1.879   5.140  14.885
 2393TIP3   OH228669   2.186   0.507   4.696
 2393TIP3    H128670   2.280   0.503   4.678
 2393TIP3    H228671   2.146   0.509   4.609
 2394TIP3   OH228672   5.928   3.077   2.002
 2394TIP3    H128673   5.967   3.038   2.080
 2394TIP3    H228674   5.888   3.003   1.956
 2395TIP3   OH228675   0.212   4.683  14.301
 2395TIP3    H128676   0.292   4.673  14.250
 2395TIP3    H228677   0.210   4.608  14.360
 2396TIP3   OH228678   3.996   6.044   2.208
 2396TIP3    H128679   3.952   6.128   2.204
 2396TIP3    H228680   4.069   6.058   2.268
 2397TIP3   OH228681   0.739   3.217   1.370
 2397TIP3    H128682   0.751   3.224   1.275
 2397TIP3    H228683   0.724   3.307   1.398
 2398TIP3   OH228684   5.944   0.272  12.698
 2398TIP3    H128685   5.976   0.268  12.608
 2398TIP3    H228686   5.851   0.292  12.690
 2399TIP3   OH228687   3.329   6.529  11.231
 2399TIP3    H128688   3.357   6.621  11.223
 2399TIP3    H228689   3.317   6.500  11.141
 2400TIP3   OH228690   0.312   2.923   5.109
 2400TIP3    H128691   0.312   2.876   5.026
 2400TIP3    H228692   0.263   2.866   5.168
 2401TIP3   OH228693   3.675   6.427  11.983
 2401TIP3    H128694   3.741   6.391  11.923
 2401TIP3    H228695   3.724   6.485  12.041
 2402TIP3   OH228696   3.246   4.101   1.275
 2402TIP3    H128697   3.238   4.015   1.234
 2402TIP3    H228698   3.308   4.087   1.347
 2403TIP3   OH228699   1.570   2.683   0.113
 2403TIP3    H128700   1.623   2.665   0.191
 2403TIP3    H228701   1.486   2.713   0.149
 2404TIP3   OH228702   3.462   4.412  12.447
 2404TIP3    H128703   3.474   4.319  12.465
 2404TIP3    H228704   3.549   4.445  12.427
 2405TIP3   OH228705   2.245   0.717   5.724
 2405TIP3    H128706   2.236   0.637   5.672
 2405TIP3    H228707   2.335   0.747   5.706
 2406TIP3   OH228708   1.491   2.954  16.338
 2406TIP3    H128709   1.476   3.020  16.406
 2406TIP3    H228710   1.416   2.963  16.279
 2407TIP3   OH228711   1.195   4.463  14.367
 2407TIP3    H128712   1.257   4.436  14.301
 2407TIP3    H228713   1.188   4.558  14.357
 2408TIP3   OH228714   5.345   6.725  14.099
 2408TIP3    H128715   5.332   6.747  14.006
 2408TIP3    H228716   5.257   6.726  14.136
 2409TIP3   OH228717   2.448   0.027  13.300
 2409TIP3    H128718   2.496  -0.026  13.237
 2409TIP3    H228719   2.355   0.011  13.281
 2410TIP3   OH228720   1.539   1.650  15.844
 2410TIP3    H128721   1.459   1.602  15.820
 2410TIP3    H228722   1.539   1.727  15.786
 2411TIP3   OH228723   1.200   3.066   5.436
 2411TIP3    H128724   1.167   3.117   5.510
 2411TIP3    H228725   1.180   2.975   5.458
 2412TIP3   OH228726   0.829   6.276   6.093
 2412TIP3    H128727   0.802   6.305   6.007
 2412TIP3    H228728   0.922   6.257   6.084
 2413TIP3   OH228729   3.119   1.592  16.121
 2413TIP3    H128730   3.141   1.605  16.213
 2413TIP3    H228731   3.145   1.673  16.078
 2414TIP3   OH228732   3.579   1.070  11.100
 2414TIP3    H128733   3.643   1.122  11.148
 2414TIP3    H228734   3.541   1.131  11.037
 2415TIP3   OH228735   4.616   1.972  14.806
 2415TIP3    H128736   4.525   2.003  14.802
 2415TIP3    H228737   4.635   1.966  14.900
 2416TIP3   OH228738   0.471   4.596   3.923
 2416TIP3    H128739   0.538   4.627   3.983
 2416TIP3    H228740   0.453   4.506   3.952
 2417TIP3   OH228741   5.399   4.379  14.008
 2417TIP3    H128742   5.367   4.289  14.009
 2417TIP3    H228743   5.478   4.376  13.954
 2418TIP3   OH228744   0.608   3.366  14.145
 2418TIP3    H128745   0.626   3.289  14.092
 2418TIP3    H228746   0.657   3.437  14.104
 2419TIP3   OH228747   4.381   4.938   3.432
 2419TIP3    H128748   4.376   4.844   3.451
 2419TIP3    H228749   4.474   4.960   3.439
 2420TIP3   OH228750   4.584   5.248   1.441
 2420TIP3    H128751   4.602   5.222   1.531
 2420TIP3    H228752   4.644   5.321   1.424
 2421TIP3   OH228753   6.742   0.518   1.194
 2421TIP3    H128754   6.728   0.477   1.279
 2421TIP3    H228755   6.656   0.550   1.168
 2422TIP3   OH228756   1.375   2.676  14.230
 2422TIP3    H128757   1.372   2.720  14.145
 2422TIP3    H228758   1.345   2.742  14.292
 2423TIP3   OH228759   6.151   4.112  11.583
 2423TIP3    H128760   6.201   4.172  11.638
 2423TIP3    H228761   6.093   4.169  11.532
 2424TIP3   OH228762   4.659   4.661  14.277
 2424TIP3    H128763   4.713   4.593  14.317
 2424TIP3    H228764   4.657   4.731  14.342
 2425TIP3   OH228765   3.409   0.079  12.382
 2425TIP3    H128766   3.460   0.074  12.463
 2425TIP3    H228767   3.422  -0.006  12.340
 2426TIP3   OH228768   3.025   4.948  13.651
 2426TIP3    H128769   3.088   5.014  13.624
 2426TIP3    H228770   3.001   4.972  13.741
 2427TIP3   OH228771   5.798   3.315  15.071
 2427TIP3    H128772   5.803   3.280  14.982
 2427TIP3    H228773   5.802   3.410  15.061
 2428TIP3   OH228774   5.324   2.211  15.285
 2428TIP3    H128775   5.352   2.230  15.375
 2428TIP3    H228776   5.230   2.193  15.293
 2429TIP3   OH228777   0.214   1.093  12.943
 2429TIP3    H128778   0.216   1.140  12.859
 2429TIP3    H228779   0.132   1.044  12.941
 2430TIP3   OH228780   1.506   3.681  13.329
 2430TIP3    H128781   1.505   3.747  13.398
 2430TIP3    H228782   1.599   3.675  13.304
 2431TIP3   OH228783   1.518   6.353   5.606
 2431TIP3    H128784   1.524   6.346   5.701
 2431TIP3    H228785   1.431   6.321   5.585
 2432TIP3   OH228786   3.718   3.981  10.167
 2432TIP3    H128787   3.644   3.983  10.228
 2432TIP3    H228788   3.794   4.003  10.221
 2433TIP3   OH228789   3.540   1.033  12.628
 2433TIP3    H128790   3.499   1.109  12.669
 2433TIP3    H228791   3.557   1.061  12.537
 2434TIP3   OH228792   2.614   0.382  16.166
 2434TIP3    H128793   2.649   0.471  16.170
 2434TIP3    H228794   2.595   0.368  16.074
 2435TIP3   OH228795   3.893   3.638  12.120
 2435TIP3    H128796   3.871   3.554  12.079
 2435TIP3    H228797   3.820   3.655  12.179
 2436TIP3   OH228798   3.812   3.159  11.526
 2436TIP3    H128799   3.774   3.230  11.475
 2436TIP3    H228800   3.788   3.179  11.616
 2437TIP3   OH228801   0.094   5.778   0.031
 2437TIP3    H128802   0.172   5.770  -0.026
 2437TIP3    H228803   0.022   5.749  -0.025
 2438TIP3   OH228804   0.942   3.312  13.499
 2438TIP3    H128805   0.950   3.338  13.591
 2438TIP3    H228806   0.957   3.392  13.450
 2439TIP3   OH228807   5.527   5.597   1.496
 2439TIP3    H128808   5.464   5.667   1.481
 2439TIP3    H228809   5.576   5.624   1.574
 2440TIP3   OH228810   4.643   2.786  11.632
 2440TIP3    H128811   4.713   2.769  11.695
 2440TIP3    H228812   4.562   2.767  11.679
 2441TIP3   OH228813   2.420   6.459   0.298
 2441TIP3    H128814   2.391   6.542   0.260
 2441TIP3    H228815   2.465   6.414   0.226
 2442TIP3   OH228816   6.056   2.699  16.535
 2442TIP3    H128817   6.084   2.747  16.613
 2442TIP3    H228818   6.135   2.653  16.505
 2443TIP3   OH228819   5.120   0.399   6.750
 2443TIP3    H128820   5.106   0.311   6.784
 2443TIP3    H228821   5.205   0.394   6.705
 2444TIP3   OH228822   3.385   6.224   3.229
 2444TIP3    H128823   3.412   6.211   3.138
 2444TIP3    H228824   3.467   6.229   3.278
 2445TIP3   OH228825   3.099   6.382   5.266
 2445TIP3    H128826   3.129   6.471   5.247
 2445TIP3    H228827   3.084   6.381   5.360
 2446TIP3   OH228828   6.742   6.475  16.627
 2446TIP3    H128829   6.731   6.520  16.711
 2446TIP3    H228830   6.652   6.460  16.597
 2447TIP3   OH228831   5.930   3.656  12.157
 2447TIP3    H128832   6.001   3.633  12.098
 2447TIP3    H228833   5.974   3.679  12.239
 2448TIP3   OH228834   0.598   0.213  15.028
 2448TIP3    H128835   0.623   0.296  14.988
 2448TIP3    H228836   0.502   0.215  15.030
 2449TIP3   OH228837   0.927   2.426  16.894
 2449TIP3    H128838   0.928   2.508  16.844
 2449TIP3    H228839   1.017   2.393  16.888
 2450TIP3   OH228840   2.054   3.384  11.394
 2450TIP3    H128841   2.007   3.317  11.345
 2450TIP3    H228842   2.122   3.414  11.334
 2451TIP3   OH228843   6.791   5.417  14.912
 2451TIP3    H128844   6.705   5.382  14.885
 2451TIP3    H228845   6.781   5.437  15.005
 2452TIP3   OH228846   0.744   0.246   4.761
 2452TIP3    H128847   0.735   0.172   4.702
 2452TIP3    H228848   0.808   0.218   4.826
 2453TIP3   OH228849   5.831   5.132  12.139
 2453TIP3    H128850   5.769   5.060  12.124
 2453TIP3    H228851   5.789   5.208  12.099
 2454TIP3   OH228852   1.400   1.040   6.539
 2454TIP3    H128853   1.335   1.109   6.548
 2454TIP3    H228854   1.477   1.073   6.585
 2455TIP3   OH228855   5.042   4.663   1.993
 2455TIP3    H128856   5.128   4.702   1.978
 2455TIP3    H228857   5.000   4.663   1.906
 2456TIP3   OH228858   1.265   3.411  15.893
 2456TIP3    H128859   1.262   3.492  15.843
 2456TIP3    H228860   1.322   3.353  15.841
 2457TIP3   OH228861   6.498   2.880  13.099
 2457TIP3    H128862   6.504   2.921  13.186
 2457TIP3    H228863   6.484   2.953  13.040
 2458TIP3   OH228864   3.488   6.216  13.402
 2458TIP3    H128865   3.530   6.140  13.361
 2458TIP3    H228866   3.428   6.179  13.467
 2459TIP3   OH228867   2.030   6.625  13.548
 2459TIP3    H128868   2.055   6.640  13.639
 2459TIP3    H228869   2.113   6.618  13.501
 2460TIP3   OH228870   0.477   2.092  17.001
 2460TIP3    H128871   0.552   2.081  16.942
 2460TIP3    H228872   0.454   2.003  17.027
 2461TIP3   OH228873   4.575   5.772   4.499
 2461TIP3    H128874   4.615   5.692   4.533
 2461TIP3    H228875   4.554   5.752   4.408
 2462TIP3   OH228876   0.548   4.725  11.161
 2462TIP3    H128877   0.590   4.639  11.156
 2462TIP3    H228878   0.544   4.755  11.070
 2463TIP3   OH228879   1.052   4.469  15.024
 2463TIP3    H128880   1.062   4.434  15.112
 2463TIP3    H228881   1.136   4.509  15.004
 2464TIP3   OH228882   0.315   5.027  11.516
 2464TIP3    H128883   0.334   5.079  11.438
 2464TIP3    H228884   0.322   4.936  11.487
 2465TIP3   OH228885   0.575   1.053  13.762
 2465TIP3    H128886   0.595   1.140  13.797
 2465TIP3    H228887   0.519   1.013  13.828
 2466TIP3   OH228888   3.436   1.199   4.558
 2466TIP3    H128889   3.348   1.216   4.593
 2466TIP3    H228890   3.424   1.123   4.500
 2467TIP3   OH228891   0.028   4.163   6.297
 2467TIP3    H128892   0.058   4.254   6.287
 2467TIP3    H228893  -0.049   4.170   6.354
 2468TIP3   OH228894   0.413   2.948  13.942
 2468TIP3    H128895   0.489   2.897  13.913
 2468TIP3    H228896   0.428   2.961  14.036
 2469TIP3   OH228897   6.204   3.875  11.727
 2469TIP3    H128898   6.298   3.867  11.738
 2469TIP3    H228899   6.191   3.962  11.690
 2470TIP3   OH228900   1.164   6.376  11.193
 2470TIP3    H128901   1.107   6.447  11.225
 2470TIP3    H228902   1.106   6.300  11.188
 2471TIP3   OH228903   6.610   4.554  12.963
 2471TIP3    H128904   6.635   4.613  13.034
 2471TIP3    H228905   6.549   4.605  12.909
 2472TIP3   OH228906   1.950   4.830   1.818
 2472TIP3    H128907   1.938   4.853   1.726
 2472TIP3    H228908   1.912   4.904   1.866
 2473TIP3   OH228909   2.649   5.836   3.000
 2473TIP3    H128910   2.578   5.822   2.937
 2473TIP3    H228911   2.630   5.773   3.070
 2474TIP3   OH228912   2.007   1.411   2.104
 2474TIP3    H128913   2.092   1.371   2.086
 2474TIP3    H228914   1.985   1.381   2.192
 2475TIP3   OH228915   6.486   6.725   4.571
 2475TIP3    H128916   6.507   6.763   4.657
 2475TIP3    H228917   6.418   6.660   4.590
 2476TIP3   OH228918   3.100   0.906   3.807
 2476TIP3    H128919   3.037   0.835   3.804
 2476TIP3    H228920   3.072   0.960   3.881
 2477TIP3   OH228921   6.739   4.623  13.688
 2477TIP3    H128922   6.709   4.584  13.605
 2477TIP3    H228923   6.704   4.565  13.756
 2478TIP3   OH228924   0.223   6.649   3.843
 2478TIP3    H128925   0.317   6.628   3.847
 2478TIP3    H228926   0.179   6.568   3.866
 2479TIP3   OH228927   2.429   0.590   1.539
 2479TIP3    H128928   2.444   0.633   1.623
 2479TIP3    H228929   2.425   0.661   1.475
 2480TIP3   OH228930   4.207   1.938   3.610
 2480TIP3    H128931   4.148   1.893   3.549
 2480TIP3    H228932   4.225   2.022   3.567
 2481TIP3   OH228933   4.522   3.852   3.403
 2481TIP3    H128934   4.560   3.880   3.319
 2481TIP3    H228935   4.480   3.769   3.384
 2482TIP3   OH228936   4.507   4.263  14.929
 2482TIP3    H128937   4.441   4.208  14.971
 2482TIP3    H228938   4.585   4.207  14.925
 2483TIP3   OH228939   6.719   3.071  15.622
 2483TIP3    H128940   6.688   2.989  15.660
 2483TIP3    H228941   6.643   3.106  15.575
 2484TIP3   OH228942   2.880   6.073   4.185
 2484TIP3    H128943   2.907   6.079   4.276
 2484TIP3    H228944   2.843   5.985   4.176
 2485TIP3   OH228945   3.314   1.387  16.099
 2485TIP3    H128946   3.250   1.457  16.091
 2485TIP3    H228947   3.395   1.425  16.066
 2486TIP3   OH228948   5.637   6.177   5.175
 2486TIP3    H128949   5.657   6.239   5.245
 2486TIP3    H228950   5.610   6.231   5.102
 2487TIP3   OH228951   6.734   5.764   4.949
 2487TIP3    H128952   6.811   5.714   4.923
 2487TIP3    H228953   6.768   5.853   4.965
 2488TIP3   OH228954   1.081   2.849  14.294
 2488TIP3    H128955   1.086   2.798  14.374
 2488TIP3    H228956   1.032   2.793  14.233
 2489TIP3   OH228957   5.120   2.293   2.316
 2489TIP3    H128958   5.160   2.258   2.237
 2489TIP3    H228959   5.029   2.310   2.291
 2490TIP3   OH228960   4.526   1.762  16.397
 2490TIP3    H128961   4.585   1.777  16.471
 2490TIP3    H228962   4.499   1.671  16.406
 2491TIP3   OH228963   3.674   4.713   2.935
 2491TIP3    H128964   3.655   4.761   2.854
 2491TIP3    H228965   3.720   4.775   2.990
 2492TIP3   OH228966   3.975   0.515   3.739
 2492TIP3    H128967   3.892   0.560   3.724
 2492TIP3    H228968   4.041   0.573   3.703
 2493TIP3   OH228969   2.068   6.302  15.609
 2493TIP3    H128970   2.127   6.280  15.681
 2493TIP3    H228971   2.055   6.220  15.562
 2494TIP3   OH228972   3.225   2.293   4.628
 2494TIP3    H128973   3.206   2.268   4.538
 2494TIP3    H228974   3.152   2.259   4.679
 2495TIP3   OH228975   2.109   0.043   5.093
 2495TIP3    H128976   2.145   0.128   5.118
 2495TIP3    H228977   2.178   0.001   5.042
 2496TIP3   OH228978   1.930   3.018  13.047
 2496TIP3    H128979   1.999   2.996  13.109
 2496TIP3    H228980   1.895   3.102  13.078
 2497TIP3   OH228981   6.639   2.921  10.749
 2497TIP3    H128982   6.671   3.011  10.753
 2497TIP3    H228983   6.668   2.882  10.831
 2498TIP3   OH228984   6.610   6.749   3.890
 2498TIP3    H128985   6.527   6.745   3.842
 2498TIP3    H228986   6.605   6.831   3.940
 2499TIP3   OH228987   0.997   3.720  13.725
 2499TIP3    H128988   1.036   3.727  13.812
 2499TIP3    H228989   0.970   3.628  13.718
 2500TIP3   OH228990   1.622   2.624  14.963
 2500TIP3    H128991   1.663   2.570  15.031
 2500TIP3    H228992   1.644   2.714  14.987
 2501TIP3   OH228993   5.791   0.218  10.644
 2501TIP3    H128994   5.716   0.158  10.638
 2501TIP3    H228995   5.752   0.305  10.651
 2502TIP3   OH228996   2.193   5.805  16.792
 2502TIP3    H128997   2.223   5.714  16.800
 2502TIP3    H228998   2.148   5.808  16.708
 2503TIP3   OH228999   2.978   4.839   0.691
 2503TIP3    H129000   2.968   4.756   0.644
 2503TIP3    H229001   2.891   4.859   0.724
 2504TIP3   OH229002   6.406   4.445  15.856
 2504TIP3    H129003   6.443   4.505  15.792
 2504TIP3    H229004   6.480   4.389  15.883
 2505TIP3   OH229005   0.391   1.752  15.068
 2505TIP3    H129006   0.320   1.775  15.009
 2505TIP3    H229007   0.404   1.658  15.055
 2506TIP3   OH229008   4.884   3.202   0.398
 2506TIP3    H129009   4.891   3.186   0.303
 2506TIP3    H229010   4.973   3.227   0.424
 2507TIP3   OH229011   6.573   1.623  13.495
 2507TIP3    H129012   6.541   1.701  13.451
 2507TIP3    H229013   6.531   1.550  13.449
 2508TIP3   OH229014   4.786   0.101  15.848
 2508TIP3    H129015   4.743   0.093  15.934
 2508TIP3    H229016   4.879   0.096  15.868
 2509TIP3   OH229017   1.716   4.418  16.263
 2509TIP3    H129018   1.764   4.494  16.296
 2509TIP3    H229019   1.625   4.433  16.290
 2510TIP3   OH229020   1.500   5.462  13.266
 2510TIP3    H129021   1.552   5.464  13.185
 2510TIP3    H229022   1.412   5.438  13.237
 2511TIP3   OH229023   3.880   3.892  12.004
 2511TIP3    H129024   3.882   3.801  12.036
 2511TIP3    H229025   3.849   3.943  12.080
 2512TIP3   OH229026   6.272   4.380  16.091
 2512TIP3    H129027   6.223   4.305  16.057
 2512TIP3    H229028   6.313   4.418  16.013
 2513TIP3   OH229029   4.720   3.951  17.170
 2513TIP3    H129030   4.754   3.880  17.225
 2513TIP3    H229031   4.642   3.913  17.128
 2514TIP3   OH229032   0.891   2.839  12.632
 2514TIP3    H129033   0.960   2.783  12.597
 2514TIP3    H229034   0.934   2.922  12.651
 2515TIP3   OH229035   6.552   1.908  13.694
 2515TIP3    H129036   6.592   1.821  13.686
 2515TIP3    H229037   6.625   1.967  13.711
 2516TIP3   OH229038   4.137   2.517   1.995
 2516TIP3    H129039   4.087   2.503   1.914
 2516TIP3    H229040   4.105   2.601   2.028
 2517TIP3   OH229041   0.369   5.702   5.072
 2517TIP3    H129042   0.389   5.611   5.049
 2517TIP3    H229043   0.285   5.720   5.030
 2518TIP3   OH229044   1.614   3.444  17.005
 2518TIP3    H129045   1.684   3.378  17.003
 2518TIP3    H229046   1.544   3.402  17.055
 2519TIP3   OH229047   0.597   4.737  12.906
 2519TIP3    H129048   0.679   4.727  12.954
 2519TIP3    H229049   0.531   4.697  12.963
 2520TIP3   OH229050   6.718   5.879  11.596
 2520TIP3    H129051   6.801   5.894  11.551
 2520TIP3    H229052   6.727   5.791  11.633
 2521TIP3   OH229053   0.078   4.225   4.035
 2521TIP3    H129054   0.006   4.172   4.070
 2521TIP3    H229055   0.083   4.199   3.943
 2522TIP3   OH229056   5.329   3.975  16.202
 2522TIP3    H129057   5.382   3.896  16.190
 2522TIP3    H229058   5.384   4.033  16.254
 2523TIP3   OH229059   3.861   2.321   0.927
 2523TIP3    H129060   3.817   2.248   0.971
 2523TIP3    H229061   3.954   2.302   0.936
 2524TIP3   OH229062   5.183   5.083   0.678
 2524TIP3    H129063   5.096   5.088   0.638
 2524TIP3    H229064   5.167   5.098   0.771
 2525TIP3   OH229065   3.975   4.595   2.920
 2525TIP3    H129066   3.892   4.643   2.927
 2525TIP3    H229067   4.018   4.633   2.844
 2526TIP3   OH229068   5.069   0.284   4.461
 2526TIP3    H129069   5.133   0.336   4.412
 2526TIP3    H229070   5.121   0.232   4.522
 2527TIP3   OH229071   0.983   0.821  16.511
 2527TIP3    H129072   1.011   0.740  16.554
 2527TIP3    H229073   0.887   0.821  16.521
 2528TIP3   OH229074   3.991   4.036   3.416
 2528TIP3    H129075   4.080   4.025   3.449
 2528TIP3    H229076   3.960   3.947   3.401
 2529TIP3   OH229077   6.445   5.591   1.764
 2529TIP3    H129078   6.356   5.613   1.790
 2529TIP3    H229079   6.477   5.532   1.833
 2530TIP3   OH229080   4.685   3.478  13.080
 2530TIP3    H129081   4.773   3.446  13.060
 2530TIP3    H229082   4.671   3.549  13.017
 2531TIP3   OH229083   0.645   4.333  14.723
 2531TIP3    H129084   0.622   4.388  14.798
 2531TIP3    H229085   0.739   4.320  14.730
 2532TIP3   OH229086   4.845   3.504  11.001
 2532TIP3    H129087   4.855   3.538  11.090
 2532TIP3    H229088   4.823   3.580  10.948
 2533TIP3   OH229089   4.558   0.204  10.642
 2533TIP3    H129090   4.588   0.239  10.726
 2533TIP3    H229091   4.608   0.123  10.630
 2534TIP3   OH229092   4.778   4.645   3.157
 2534TIP3    H129093   4.785   4.675   3.067
 2534TIP3    H229094   4.688   4.664   3.182
 2535TIP3   OH229095   3.687   6.314  13.568
 2535TIP3    H129096   3.685   6.407  13.591
 2535TIP3    H229097   3.630   6.306  13.492
 2536TIP3   OH229098   6.400   4.471  15.260
 2536TIP3    H129099   6.375   4.527  15.334
 2536TIP3    H229100   6.447   4.398  15.299
 2537TIP3   OH229101   3.642   6.043   0.319
 2537TIP3    H129102   3.583   6.110   0.354
 2537TIP3    H229103   3.664   6.075   0.232
 2538TIP3   OH229104   5.893   5.414   5.325
 2538TIP3    H129105   5.833   5.428   5.399
 2538TIP3    H229106   5.836   5.404   5.249
 2539TIP3   OH229107   1.232   4.448  15.468
 2539TIP3    H129108   1.248   4.359  15.499
 2539TIP3    H229109   1.158   4.438  15.407
 2540TIP3   OH229110   5.352   4.346   5.805
 2540TIP3    H129111   5.279   4.286   5.789
 2540TIP3    H229112   5.312   4.420   5.851
 2541TIP3   OH229113   4.468   1.373  15.243
 2541TIP3    H129114   4.392   1.423  15.273
 2541TIP3    H229115   4.538   1.438  15.236
 2542TIP3   OH229116   2.675   0.595  15.586
 2542TIP3    H129117   2.594   0.545  15.579
 2542TIP3    H229118   2.689   0.631  15.499
 2543TIP3   OH229119   2.357   1.710  13.616
 2543TIP3    H129120   2.332   1.713  13.524
 2543TIP3    H229121   2.410   1.789  13.629
 2544TIP3   OH229122   5.381   2.985  14.023
 2544TIP3    H129123   5.393   2.919  13.955
 2544TIP3    H229124   5.303   3.034  13.996
 2545TIP3   OH229125   5.076   3.317   4.740
 2545TIP3    H129126   5.095   3.378   4.669
 2545TIP3    H229127   5.136   3.342   4.810
 2546TIP3   OH229128   6.160   0.758  14.758
 2546TIP3    H129129   6.241   0.800  14.730
 2546TIP3    H229130   6.107   0.751  14.679
 2547TIP3   OH229131   0.126   4.757  15.943
 2547TIP3    H129132   0.138   4.784  15.852
 2547TIP3    H229133   0.196   4.694  15.959
 2548TIP3   OH229134   5.349   4.929   1.259
 2548TIP3    H129135   5.409   4.997   1.230
 2548TIP3    H229136   5.265   4.952   1.218
 2549TIP3   OH229137   2.330   0.493  15.909
 2549TIP3    H129138   2.247   0.518  15.951
 2549TIP3    H229139   2.380   0.574  15.906
 2550TIP3   OH229140   5.984   0.860   3.730
 2550TIP3    H129141   5.904   0.871   3.678
 2550TIP3    H229142   5.954   0.856   3.821
 2551TIP3   OH229143   4.404   1.851  14.449
 2551TIP3    H129144   4.322   1.824  14.406
 2551TIP3    H229145   4.416   1.788  14.520
 2552TIP3   OH229146   5.591   3.149   1.592
 2552TIP3    H129147   5.580   3.054   1.589
 2552TIP3    H229148   5.630   3.166   1.678
 2553TIP3   OH229149   5.556   6.397  13.901
 2553TIP3    H129150   5.477   6.435  13.941
 2553TIP3    H229151   5.595   6.471  13.854
 2554TIP3   OH229152   2.127   2.572   4.487
 2554TIP3    H129153   2.085   2.492   4.516
 2554TIP3    H229154   2.068   2.607   4.420
 2555TIP3   OH229155   3.758   0.133  14.088
 2555TIP3    H129156   3.762   0.124  13.993
 2555TIP3    H229157   3.768   0.043  14.121
 2556TIP3   OH229158   5.521   5.303  10.673
 2556TIP3    H129159   5.488   5.346  10.752
 2556TIP3    H229160   5.464   5.334  10.603
 2557TIP3   OH229161   2.594   2.025  14.701
 2557TIP3    H129162   2.676   2.048  14.745
 2557TIP3    H229163   2.528   2.026  14.770
 2558TIP3   OH229164   6.207   2.974  16.246
 2558TIP3    H129165   6.123   2.932  16.262
 2558TIP3    H229166   6.206   2.997  16.153
 2559TIP3   OH229167   4.529   5.673   4.221
 2559TIP3    H129168   4.588   5.638   4.154
 2559TIP3    H229169   4.477   5.739   4.175
 2560TIP3   OH229170   2.135   1.788   3.827
 2560TIP3    H129171   2.041   1.780   3.843
 2560TIP3    H229172   2.159   1.871   3.867
 2561TIP3   OH229173   5.249   2.660   6.179
 2561TIP3    H129174   5.201   2.743   6.170
 2561TIP3    H229175   5.252   2.644   6.273
 2562TIP3   OH229176   5.186   3.584  16.889
 2562TIP3    H129177   5.263   3.632  16.921
 2562TIP3    H229178   5.167   3.625  16.805
 2563TIP3   OH229179   2.277   0.835  11.212
 2563TIP3    H129180   2.274   0.753  11.262
 2563TIP3    H229181   2.359   0.830  11.162
 2564TIP3   OH229182   2.979   0.631  10.563
 2564TIP3    H129183   3.046   0.648  10.629
 2564TIP3    H229184   2.909   0.693  10.584
 2565TIP3   OH229185   3.885   3.061  16.980
 2565TIP3    H129186   3.865   3.003  17.054
 2565TIP3    H229187   3.816   3.126  16.982
 2566TIP3   OH229188   0.525   5.328  14.333
 2566TIP3    H129189   0.491   5.413  14.362
 2566TIP3    H229190   0.606   5.317  14.382
 2567TIP3   OH229191   6.359   5.773   6.634
 2567TIP3    H129192   6.341   5.848   6.578
 2567TIP3    H229193   6.279   5.721   6.632
 2568TIP3   OH229194   3.654   4.125   2.240
 2568TIP3    H129195   3.571   4.089   2.209
 2568TIP3    H229196   3.681   4.186   2.172
 2569TIP3   OH229197   2.311   1.144  17.106
 2569TIP3    H129198   2.278   1.184  17.026
 2569TIP3    H229199   2.401   1.178  17.114
 2570TIP3   OH229200   1.247   1.124   2.613
 2570TIP3    H129201   1.158   1.121   2.650
 2570TIP3    H229202   1.235   1.155   2.524
 2571TIP3   OH229203   5.248   3.913  16.713
 2571TIP3    H129204   5.195   3.872  16.645
 2571TIP3    H229205   5.216   4.003  16.719
 2572TIP3   OH229206   3.824   3.125   4.811
 2572TIP3    H129207   3.746   3.110   4.759
 2572TIP3    H229208   3.832   3.220   4.816
 2573TIP3   OH229209   3.193   1.870  16.963
 2573TIP3    H129210   3.129   1.820  17.013
 2573TIP3    H229211   3.252   1.906  17.029
 2574TIP3   OH229212   5.978   5.367  14.683
 2574TIP3    H129213   6.045   5.340  14.620
 2574TIP3    H229214   5.952   5.455  14.654
 2575TIP3   OH229215   2.558   1.050  12.436
 2575TIP3    H129216   2.592   0.963  12.414
 2575TIP3    H229217   2.533   1.043  12.528
 2576TIP3   OH229218   4.778   3.720  12.299
 2576TIP3    H129219   4.735   3.685  12.377
 2576TIP3    H229220   4.815   3.643  12.256
 2577TIP3   OH229221   1.571   4.294  16.839
 2577TIP3    H129222   1.478   4.273  16.836
 2577TIP3    H229223   1.597   4.278  16.930
 2578TIP3   OH229224   0.091   5.833  13.388
 2578TIP3    H129225   0.072   5.863  13.300
 2578TIP3    H229226   0.174   5.876  13.411
 2579TIP3   OH229227   2.471   2.900  16.857
 2579TIP3    H129228   2.538   2.912  16.790
 2579TIP3    H229229   2.388   2.903  16.808
 2580TIP3   OH229230   2.721   6.768   6.079
 2580TIP3    H129231   2.650   6.712   6.110
 2580TIP3    H229232   2.791   6.755   6.144
 2581TIP3   OH229233   3.381   5.543  12.078
 2581TIP3    H129234   3.359   5.593  11.999
 2581TIP3    H229235   3.431   5.468  12.045
 2582TIP3   OH229236   6.586   3.739   0.339
 2582TIP3    H129237   6.630   3.823   0.323
 2582TIP3    H229238   6.520   3.733   0.270
 2583TIP3   OH229239   5.399   4.605  12.219
 2583TIP3    H129240   5.489   4.600  12.186
 2583TIP3    H229241   5.401   4.676  12.284
 2584TIP3   OH229242   1.850   5.245  11.148
 2584TIP3    H129243   1.896   5.161  11.156
 2584TIP3    H229244   1.882   5.282  11.066
 2585TIP3   OH229245   3.817   4.067  13.781
 2585TIP3    H129246   3.821   4.098  13.690
 2585TIP3    H229247   3.860   3.981  13.779
 2586TIP3   OH229248   2.141   2.115  13.655
 2586TIP3    H129249   2.077   2.186  13.652
 2586TIP3    H229250   2.219   2.151  13.612
 2587TIP3   OH229251   6.605   2.601   3.713
 2587TIP3    H129252   6.630   2.508   3.711
 2587TIP3    H229253   6.645   2.634   3.794
 2588TIP3   OH229254   3.531   6.469   3.134
 2588TIP3    H129255   3.460   6.480   3.198
 2588TIP3    H229256   3.486   6.468   3.050
 2589TIP3   OH229257   0.828   4.069   0.755
 2589TIP3    H129258   0.844   4.154   0.714
 2589TIP3    H229259   0.845   4.006   0.686
 2590TIP3   OH229260   0.154   3.513  14.656
 2590TIP3    H129261   0.187   3.467  14.580
 2590TIP3    H229262   0.097   3.582  14.621
 2591TIP3   OH229263   0.426   4.496  16.048
 2591TIP3    H129264   0.503   4.444  16.074
 2591TIP3    H229265   0.458   4.586  16.046
 2592TIP3   OH229266   6.020   3.540  13.899
 2592TIP3    H129267   6.043   3.450  13.924
 2592TIP3    H229268   6.073   3.558  13.822
 2593TIP3   OH229269   2.909   5.357   3.305
 2593TIP3    H129270   2.864   5.301   3.369
 2593TIP3    H229271   2.847   5.366   3.233
 2594TIP3   OH229272   0.181   6.384   4.906
 2594TIP3    H129273   0.097   6.430   4.903
 2594TIP3    H229274   0.214   6.401   4.994
 2595TIP3   OH229275   0.564   0.796  17.240
 2595TIP3    H129276   0.556   0.705  17.209
 2595TIP3    H229277   0.481   0.837  17.216
 2596TIP3   OH229278   3.898   5.439  15.170
 2596TIP3    H129279   3.970   5.448  15.108
 2596TIP3    H229280   3.839   5.376  15.129
 2597TIP3   OH229281   1.995   6.176  13.892
 2597TIP3    H129282   1.982   6.270  13.885
 2597TIP3    H229283   1.965   6.154  13.980
 2598TIP3   OH229284   5.102   0.281  12.417
 2598TIP3    H129285   5.187   0.279  12.461
 2598TIP3    H229286   5.048   0.220  12.467
 2599TIP3   OH229287   3.437   3.518   5.702
 2599TIP3    H129288   3.459   3.598   5.654
 2599TIP3    H229289   3.491   3.522   5.781
 2600TIP3   OH229290   2.532   4.184   1.324
 2600TIP3    H129291   2.476   4.127   1.272
 2600TIP3    H229292   2.506   4.273   1.298
 2601TIP3   OH229293   0.334   5.315  15.941
 2601TIP3    H129294   0.370   5.378  15.879
 2601TIP3    H229295   0.304   5.242  15.887
 2602TIP3   OH229296   2.116   1.290  13.020
 2602TIP3    H129297   2.077   1.243  13.094
 2602TIP3    H229298   2.124   1.381  13.051
 2603TIP3   OH229299   0.151   6.725   1.477
 2603TIP3    H129300   0.138   6.633   1.499
 2603TIP3    H229301   0.063   6.762   1.480
 2604TIP3   OH229302   5.618   4.510  14.151
 2604TIP3    H129303   5.660   4.459  14.082
 2604TIP3    H229304   5.575   4.445  14.206
 2605TIP3   OH229305   2.275   4.408   1.331
 2605TIP3    H129306   2.328   4.451   1.398
 2605TIP3    H229307   2.190   4.394   1.373
 2606TIP3   OH229308   2.591   1.308  16.020
 2606TIP3    H129309   2.610   1.393  15.980
 2606TIP3    H229310   2.510   1.279  15.976
 2607TIP3   OH229311   5.948   0.228  12.420
 2607TIP3    H129312   5.857   0.215  12.396
 2607TIP3    H229313   5.985   0.139  12.420
 2608TIP3   OH229314   6.309   1.032  12.441
 2608TIP3    H129315   6.244   1.018  12.510
 2608TIP3    H229316   6.258   1.032  12.360
 2609TIP3   OH229317   6.519   6.424   3.277
 2609TIP3    H129318   6.603   6.390   3.245
 2609TIP3    H229319   6.461   6.418   3.201
 2610TIP3   OH229320   5.889   0.185  15.877
 2610TIP3    H129321   5.825   0.113  15.879
 2610TIP3    H229322   5.911   0.200  15.969
 2611TIP3   OH229323   3.826   1.589   3.577
 2611TIP3    H129324   3.905   1.538   3.558
 2611TIP3    H229325   3.819   1.588   3.672
 2612TIP3   OH229326   0.028   6.420   2.979
 2612TIP3    H129327   0.105   6.470   2.952
 2612TIP3    H229328   0.060   6.332   2.997
 2613TIP3   OH229329   2.002   3.017  12.772
 2613TIP3    H129330   1.932   2.988  12.830
 2613TIP3    H229331   1.999   2.956  12.699
 2614TIP3   OH229332   5.492   1.100  15.275
 2614TIP3    H129333   5.478   1.084  15.182
 2614TIP3    H229334   5.425   1.163  15.300
 2615TIP3   OH229335   1.589   2.691  16.654
 2615TIP3    H129336   1.654   2.729  16.595
 2615TIP3    H229337   1.511   2.744  16.643
 2616TIP3   OH229338   5.386   4.450   4.504
 2616TIP3    H129339   5.297   4.447   4.540
 2616TIP3    H229340   5.384   4.388   4.431
 2617TIP3   OH229341   6.252   6.113   4.418
 2617TIP3    H129342   6.301   6.071   4.489
 2617TIP3    H229343   6.286   6.203   4.417
 2618TIP3   OH229344   6.710   1.265   5.573
 2618TIP3    H129345   6.806   1.256   5.572
 2618TIP3    H229346   6.688   1.280   5.665
 2619TIP3   OH229347   3.437   4.030   0.475
 2619TIP3    H129348   3.498   3.973   0.522
 2619TIP3    H229349   3.447   4.116   0.516
 2620TIP3   OH229350   4.474   3.416  14.832
 2620TIP3    H129351   4.490   3.483  14.898
 2620TIP3    H229352   4.382   3.429  14.806
 2621TIP3   OH229353   4.751   6.588  16.897
 2621TIP3    H129354   4.750   6.542  16.813
 2621TIP3    H229355   4.784   6.676  16.876
 2622TIP3   OH229356   3.461   3.752  14.874
 2622TIP3    H129357   3.519   3.826  14.859
 2622TIP3    H229358   3.452   3.710  14.789
 2623TIP3   OH229359   0.267   4.191   2.978
 2623TIP3    H129360   0.245   4.111   3.026
 2623TIP3    H229361   0.246   4.172   2.887
 2624TIP3   OH229362   2.181   4.940   3.505
 2624TIP3    H129363   2.171   4.985   3.589
 2624TIP3    H229364   2.242   4.868   3.523
 2625TIP3   OH229365   1.694   6.568  15.754
 2625TIP3    H129366   1.786   6.578  15.731
 2625TIP3    H229367   1.695   6.532  15.843
 2626TIP3   OH229368   3.447   1.495  13.199
 2626TIP3    H129369   3.514   1.536  13.254
 2626TIP3    H229370   3.456   1.401  13.217
 2627TIP3   OH229371   0.431   0.228   3.448
 2627TIP3    H129372   0.447   0.138   3.418
 2627TIP3    H229373   0.427   0.222   3.543
 2628TIP3   OH229374   1.841   6.630   2.464
 2628TIP3    H129375   1.877   6.554   2.418
 2628TIP3    H229376   1.917   6.684   2.485
 2629TIP3   OH229377   0.766   2.501   0.532
 2629TIP3    H129378   0.837   2.462   0.584
 2629TIP3    H229379   0.801   2.585   0.504
 2630TIP3   OH229380   2.386   1.600  13.048
 2630TIP3    H129381   2.395   1.564  12.960
 2630TIP3    H229382   2.430   1.686  13.043
 2631TIP3   OH229383   2.802   3.817  11.080
 2631TIP3    H129384   2.786   3.832  10.987
 2631TIP3    H229385   2.890   3.780  11.084
 2632TIP3   OH229386   3.370   1.781   5.684
 2632TIP3    H129387   3.328   1.701   5.714
 2632TIP3    H229388   3.421   1.755   5.607
 2633TIP3   OH229389   2.457   6.067   2.843
 2633TIP3    H129390   2.527   6.067   2.908
 2633TIP3    H229391   2.391   6.008   2.879
 2634TIP3   OH229392   3.162   6.126   3.801
 2634TIP3    H129393   3.104   6.124   3.878
 2634TIP3    H229394   3.237   6.178   3.829
 2635TIP3   OH229395   2.130   5.114  14.175
 2635TIP3    H129396   2.109   5.105  14.082
 2635TIP3    H229397   2.045   5.131  14.216
 2636TIP3   OH229398   0.106   3.422   1.970
 2636TIP3    H129399   0.140   3.465   1.892
 2636TIP3    H229400   0.183   3.388   2.014
 2637TIP3   OH229401   6.812   4.377  16.878
 2637TIP3    H129402   6.901   4.384  16.843
 2637TIP3    H229403   6.824   4.345  16.967
 2638TIP3   OH229404   4.786   0.382   0.341
 2638TIP3    H129405   4.734   0.437   0.281
 2638TIP3    H229406   4.873   0.421   0.339
 2639TIP3   OH229407   6.734   3.807  12.792
 2639TIP3    H129408   6.747   3.841  12.704
 2639TIP3    H229409   6.821   3.783  12.823
 2640TIP3   OH229410   1.468   6.631  14.113
 2640TIP3    H129411   1.378   6.663  14.114
 2640TIP3    H229412   1.514   6.693  14.056
 2641TIP3   OH229413   4.904   1.926   1.676
 2641TIP3    H129414   4.828   1.873   1.650
 2641TIP3    H229415   4.966   1.916   1.603
 2642TIP3   OH229416   4.996   2.713   6.340
 2642TIP3    H129417   4.945   2.689   6.417
 2642TIP3    H229418   5.070   2.763   6.375
 2643TIP3   OH229419   3.943   5.185  12.887
 2643TIP3    H129420   3.935   5.268  12.933
 2643TIP3    H229421   3.871   5.185  12.825
 2644TIP3   OH229422   0.650   3.817   0.106
 2644TIP3    H129423   0.615   3.793   0.192
 2644TIP3    H229424   0.691   3.736   0.074
 2645TIP3   OH229425   4.052   1.709  11.746
 2645TIP3    H129426   4.108   1.707  11.669
 2645TIP3    H229427   4.007   1.794  11.741
 2646TIP3   OH229428   1.783   3.780   5.752
 2646TIP3    H129429   1.743   3.769   5.838
 2646TIP3    H229430   1.789   3.875   5.740
 2647TIP3   OH229431   3.781   0.794  17.162
 2647TIP3    H129432   3.825   0.842  17.092
 2647TIP3    H229433   3.688   0.812  17.148
 2648TIP3   OH229434   3.873   2.438   5.900
 2648TIP3    H129435   3.806   2.393   5.952
 2648TIP3    H229436   3.955   2.395   5.925
 2649TIP3   OH229437   2.167   6.451  14.956
 2649TIP3    H129438   2.085   6.443  15.005
 2649TIP3    H229439   2.193   6.542  14.967
 2650TIP3   OH229440   1.236   6.409  13.397
 2650TIP3    H129441   1.274   6.363  13.472
 2650TIP3    H229442   1.261   6.500  13.410
 2651TIP3   OH229443   4.776   4.161  16.014
 2651TIP3    H129444   4.729   4.151  15.932
 2651TIP3    H229445   4.744   4.090  16.069
 2652TIP3   OH229446   1.541   3.943   3.228
 2652TIP3    H129447   1.526   3.851   3.251
 2652TIP3    H229448   1.634   3.958   3.246
 2653TIP3   OH229449   3.062   5.715   1.936
 2653TIP3    H129450   3.099   5.633   1.968
 2653TIP3    H229451   3.129   5.751   1.879
 2654TIP3   OH229452   3.950   5.007   5.267
 2654TIP3    H129453   3.860   4.990   5.236
 2654TIP3    H229454   3.950   4.977   5.358
 2655TIP3   OH229455   2.850   6.616  16.526
 2655TIP3    H129456   2.868   6.680  16.457
 2655TIP3    H229457   2.760   6.634  16.553
 2656TIP3   OH229458   1.761   4.851  17.280
 2656TIP3    H129459   1.742   4.923  17.340
 2656TIP3    H229460   1.833   4.804  17.322
 2657TIP3   OH229461   3.101   6.062  13.203
 2657TIP3    H129462   3.139   6.077  13.117
 2657TIP3    H229463   3.008   6.048  13.186
 2658TIP3   OH229464   0.441   1.141   3.222
 2658TIP3    H129465   0.501   1.066   3.214
 2658TIP3    H229466   0.378   1.129   3.151
 2659TIP3   OH229467   0.980   5.132  12.172
 2659TIP3    H129468   0.949   5.211  12.128
 2659TIP3    H229469   0.959   5.146  12.264
 2660TIP3   OH229470   5.628   3.563   3.084
 2660TIP3    H129471   5.606   3.602   3.169
 2660TIP3    H229472   5.544   3.536   3.047
 2661TIP3   OH229473   1.690   3.814  11.681
 2661TIP3    H129474   1.701   3.859  11.597
 2661TIP3    H229475   1.778   3.786  11.705
 2662TIP3   OH229476   2.424   4.504   5.527
 2662TIP3    H129477   2.449   4.537   5.614
 2662TIP3    H229478   2.485   4.546   5.467
 2663TIP3   OH229479   4.279   6.258  13.776
 2663TIP3    H129480   4.259   6.351  13.787
 2663TIP3    H229481   4.338   6.237  13.848
 2664TIP3   OH229482   1.262   6.747  15.836
 2664TIP3    H129483   1.348   6.724  15.803
 2664TIP3    H229484   1.212   6.774  15.759
 2665TIP3   OH229485   4.846   1.629  12.880
 2665TIP3    H129486   4.857   1.535  12.893
 2665TIP3    H229487   4.888   1.646  12.796
 2666TIP3   OH229488   6.383   3.448  14.262
 2666TIP3    H129489   6.362   3.355  14.265
 2666TIP3    H229490   6.461   3.454  14.207
 2667TIP3   OH229491   1.121   5.942   4.383
 2667TIP3    H129492   1.115   6.026   4.339
 2667TIP3    H229493   1.152   5.962   4.471
 2668TIP3   OH229494   2.992   5.740  16.330
 2668TIP3    H129495   3.071   5.780  16.367
 2668TIP3    H229496   2.924   5.805  16.343
 2669TIP3   OH229497   6.728   2.365  11.086
 2669TIP3    H129498   6.705   2.406  11.003
 2669TIP3    H229499   6.645   2.336  11.123
 2670TIP3   OH229500   1.590   5.971  12.134
 2670TIP3    H129501   1.532   5.911  12.086
 2670TIP3    H229502   1.601   5.930  12.220
 2671TIP3   OH229503   0.638   6.525   3.763
 2671TIP3    H129504   0.573   6.593   3.782
 2671TIP3    H229505   0.607   6.485   3.681
 2672TIP3   OH229506   5.555   5.073  16.710
 2672TIP3    H129507   5.461   5.075  16.728
 2672TIP3    H229508   5.567   4.997  16.654
 2673TIP3   OH229509   0.953   4.227   4.623
 2673TIP3    H129510   0.869   4.218   4.668
 2673TIP3    H229511   1.018   4.230   4.694
 2674TIP3   OH229512   1.636   4.378   2.779
 2674TIP3    H129513   1.596   4.464   2.791
 2674TIP3    H229514   1.729   4.391   2.798
 2675TIP3   OH229515   2.239   1.798   0.411
 2675TIP3    H129516   2.237   1.702   0.408
 2675TIP3    H229517   2.297   1.823   0.339
 2676TIP3   OH229518   4.315   0.488   5.674
 2676TIP3    H129519   4.256   0.467   5.602
 2676TIP3    H229520   4.260   0.536   5.737
 2677TIP3   OH229521   4.494   6.430  13.250
 2677TIP3    H129522   4.475   6.478  13.170
 2677TIP3    H229523   4.473   6.491  13.320
 2678TIP3   OH229524   0.395   5.743   3.698
 2678TIP3    H129525   0.402   5.814   3.634
 2678TIP3    H229526   0.364   5.786   3.778
 2679TIP3   OH229527   2.324   4.987  11.724
 2679TIP3    H129528   2.390   4.937  11.773
 2679TIP3    H229529   2.240   4.959  11.760
 2680TIP3   OH229530   6.795   5.336  13.431
 2680TIP3    H129531   6.764   5.423  13.405
 2680TIP3    H229532   6.887   5.350  13.454
 2681TIP3   OH229533   1.949   1.087   2.675
 2681TIP3    H129534   2.002   1.150   2.627
 2681TIP3    H229535   1.898   1.140   2.736
 2682TIP3   OH229536   3.435   6.527   2.889
 2682TIP3    H129537   3.449   6.466   2.816
 2682TIP3    H229538   3.496   6.599   2.872
 2683TIP3   OH229539   1.202   6.691   4.852
 2683TIP3    H129540   1.169   6.610   4.892
 2683TIP3    H229541   1.164   6.692   4.765
 2684TIP3   OH229542   3.201   3.788   5.090
 2684TIP3    H129543   3.111   3.819   5.084
 2684TIP3    H229544   3.250   3.845   5.031
 2685TIP3   OH229545   0.969   4.291  12.696
 2685TIP3    H129546   1.013   4.210  12.671
 2685TIP3    H229547   0.927   4.321  12.616
 2686TIP3   OH229548   6.249   2.860   4.561
 2686TIP3    H129549   6.277   2.922   4.493
 2686TIP3    H229550   6.326   2.849   4.617
 2687TIP3   OH229551   5.760   0.910  11.064
 2687TIP3    H129552   5.793   0.857  11.137
 2687TIP3    H229553   5.832   0.969  11.043
 2688TIP3   OH229554   2.310   4.492   4.181
 2688TIP3    H129555   2.350   4.453   4.259
 2688TIP3    H229556   2.249   4.558   4.216
 2689TIP3   OH229557   1.484   6.557   0.907
 2689TIP3    H129558   1.507   6.613   0.833
 2689TIP3    H229559   1.522   6.600   0.983
 2690TIP3   OH229560   1.594   0.511  12.205
 2690TIP3    H129561   1.553   0.597  12.211
 2690TIP3    H229562   1.678   0.521  12.250
 2691TIP3   OH229563   4.513   4.752   2.706
 2691TIP3    H129564   4.593   4.751   2.759
 2691TIP3    H229565   4.442   4.756   2.770
 2692TIP3   OH229566   3.065   3.120  14.924
 2692TIP3    H129567   3.026   3.114  15.011
 2692TIP3    H229568   3.001   3.169  14.873
 2693TIP3   OH229569   6.711   2.672   2.567
 2693TIP3    H129570   6.623   2.635   2.562
 2693TIP3    H229571   6.755   2.619   2.634
 2694TIP3   OH229572   1.875   0.612   5.182
 2694TIP3    H129573   1.869   0.645   5.092
 2694TIP3    H229574   1.965   0.580   5.189
 2695TIP3   OH229575   0.361   0.774   3.155
 2695TIP3    H129576   0.383   0.867   3.167
 2695TIP3    H229577   0.442   0.734   3.123
 2696TIP3   OH229578   3.539   6.590   1.504
 2696TIP3    H129579   3.500   6.674   1.527
 2696TIP3    H229580   3.491   6.526   1.557
 2697TIP3   OH229581   5.539   4.669   4.588
 2697TIP3    H129582   5.501   4.751   4.558
 2697TIP3    H229583   5.490   4.601   4.542
 2698TIP3   OH229584   4.804   0.288   1.028
 2698TIP3    H129585   4.756   0.357   0.982
 2698TIP3    H229586   4.845   0.332   1.102
 2699TIP3   OH229587   5.031   0.297  16.626
 2699TIP3    H129588   4.944   0.276  16.592
 2699TIP3    H229589   5.088   0.231  16.588
 2700TIP3   OH229590   4.934   0.401  11.541
 2700TIP3    H129591   5.019   0.418  11.501
 2700TIP3    H229592   4.952   0.397  11.635
 2701TIP3   OH229593   1.953   2.323  16.782
 2701TIP3    H129594   1.927   2.279  16.863
 2701TIP3    H229595   1.877   2.375  16.757
 2702TIP3   OH229596   6.616   5.618   0.349
 2702TIP3    H129597   6.627   5.706   0.311
 2702TIP3    H229598   6.701   5.576   0.338
 2703TIP3   OH229599   0.772   5.552  17.204
 2703TIP3    H129600   0.677   5.541  17.205
 2703TIP3    H229601   0.785   5.646  17.191
 2704TIP3   OH229602   5.703   6.346   2.992
 2704TIP3    H129603   5.773   6.368   2.932
 2704TIP3    H229604   5.746   6.301   3.065
 2705TIP3   OH229605   2.967   5.399   5.577
 2705TIP3    H129606   3.020   5.468   5.536
 2705TIP3    H229607   2.896   5.383   5.515
 2706TIP3   OH229608   3.295   5.041  15.792
 2706TIP3    H129609   3.208   5.012  15.818
 2706TIP3    H229610   3.353   4.968  15.815
 2707TIP3   OH229611   1.959   2.696   2.749
 2707TIP3    H129612   1.994   2.655   2.670
 2707TIP3    H229613   2.036   2.718   2.800
 2708TIP3   OH229614   5.176   6.598  16.176
 2708TIP3    H129615   5.100   6.545  16.199
 2708TIP3    H229616   5.150   6.643  16.095
 2709TIP3   OH229617   1.180   2.886   3.866
 2709TIP3    H129618   1.143   2.842   3.789
 2709TIP3    H229619   1.220   2.966   3.830
 2710TIP3   OH229620   4.112   2.788   4.463
 2710TIP3    H129621   4.202   2.785   4.432
 2710TIP3    H229622   4.063   2.827   4.391
 2711TIP3   OH229623   3.807   1.774   0.703
 2711TIP3    H129624   3.754   1.849   0.678
 2711TIP3    H229625   3.747   1.714   0.746
 2712TIP3   OH229626   4.696   1.202   1.104
 2712TIP3    H129627   4.731   1.160   1.026
 2712TIP3    H229628   4.702   1.296   1.086
 2713TIP3   OH229629   5.606   6.111   3.729
 2713TIP3    H129630   5.602   6.123   3.824
 2713TIP3    H229631   5.516   6.091   3.703
 2714TIP3   OH229632   4.971   6.030  13.773
 2714TIP3    H129633   5.024   6.102  13.805
 2714TIP3    H229634   4.888   6.039  13.820
 2715TIP3   OH229635   1.269   0.074   2.137
 2715TIP3    H129636   1.290   0.136   2.067
 2715TIP3    H229637   1.338   0.007   2.132
 2716TIP3   OH229638   5.691   1.191   5.448
 2716TIP3    H129639   5.643   1.199   5.530
 2716TIP3    H229640   5.768   1.138   5.470
 2717TIP3   OH229641   2.482   5.475  12.687
 2717TIP3    H129642   2.437   5.440  12.764
 2717TIP3    H229643   2.553   5.528  12.723
 2718TIP3   OH229644   3.714   2.405  14.254
 2718TIP3    H129645   3.620   2.421  14.243
 2718TIP3    H229646   3.752   2.493  14.260
 2719TIP3   OH229647   1.451   2.245   6.493
 2719TIP3    H129648   1.431   2.260   6.585
 2719TIP3    H229649   1.456   2.150   6.484
 2720TIP3   OH229650   0.954   6.620  13.839
 2720TIP3    H129651   0.864   6.645  13.863
 2720TIP3    H229652   0.962   6.645  13.747
 2721TIP3   OH229653   3.353   0.606  12.611
 2721TIP3    H129654   3.345   0.537  12.545
 2721TIP3    H229655   3.443   0.600  12.643
 2722TIP3   OH229656   0.636   4.186  11.152
 2722TIP3    H129657   0.657   4.123  11.220
 2722TIP3    H229658   0.544   4.169  11.131
 2723TIP3   OH229659   2.543   1.112   0.154
 2723TIP3    H129660   2.610   1.067   0.207
 2723TIP3    H229661   2.460   1.082   0.190
 2724TIP3   OH229662   5.252   2.693  17.091
 2724TIP3    H129663   5.306   2.615  17.079
 2724TIP3    H229664   5.281   2.753  17.023
 2725TIP3   OH229665   4.453   6.683  12.408
 2725TIP3    H129666   4.390   6.644  12.347
 2725TIP3    H229667   4.401   6.715  12.481
 2726TIP3   OH229668   6.633   3.807   6.636
 2726TIP3    H129669   6.567   3.740   6.619
 2726TIP3    H229670   6.629   3.864   6.559
 2727TIP3   OH229671   3.485   5.213   4.829
 2727TIP3    H129672   3.485   5.181   4.919
 2727TIP3    H229673   3.571   5.253   4.817
 2728TIP3   OH229674   1.882   5.134   1.032
 2728TIP3    H129675   1.935   5.066   1.073
 2728TIP3    H229676   1.792   5.107   1.049
 2729TIP3   OH229677   6.212   4.659  12.322
 2729TIP3    H129678   6.285   4.605  12.352
 2729TIP3    H229679   6.231   4.676  12.230
 2730TIP3   OH229680   6.220   2.509   2.019
 2730TIP3    H129681   6.239   2.484   1.928
 2730TIP3    H229682   6.133   2.474   2.036
 2731TIP3   OH229683   6.754   4.829   3.478
 2731TIP3    H129684   6.682   4.891   3.494
 2731TIP3    H229685   6.831   4.873   3.513
 2732TIP3   OH229686   0.551   4.116  16.264
 2732TIP3    H129687   0.611   4.190  16.262
 2732TIP3    H229688   0.496   4.127  16.186
 2733TIP3   OH229689   3.813   4.951   1.091
 2733TIP3    H129690   3.759   4.951   1.013
 2733TIP3    H229691   3.800   4.864   1.129
 2734TIP3   OH229692   6.464   5.366   1.522
 2734TIP3    H129693   6.547   5.326   1.546
 2734TIP3    H229694   6.424   5.304   1.460
 2735TIP3   OH229695   4.140   5.261  11.824
 2735TIP3    H129696   4.098   5.244  11.908
 2735TIP3    H229697   4.069   5.289  11.766
 2736TIP3   OH229698   4.155   5.285  10.839
 2736TIP3    H129699   4.091   5.219  10.813
 2736TIP3    H229700   4.237   5.237  10.847
 2737TIP3   OH229701   5.910   3.831   6.114
 2737TIP3    H129702   5.978   3.897   6.128
 2737TIP3    H229703   5.837   3.858   6.170
 2738TIP3   OH229704   3.626   3.513   4.950
 2738TIP3    H129705   3.680   3.581   4.991
 2738TIP3    H229706   3.598   3.551   4.867
 2739TIP3   OH229707   2.352   2.525  11.532
 2739TIP3    H129708   2.348   2.600  11.591
 2739TIP3    H229709   2.350   2.563  11.444
 2740TIP3   OH229710   4.040   6.443   2.416
 2740TIP3    H129711   4.037   6.355   2.452
 2740TIP3    H229712   4.102   6.437   2.343
 2741TIP3   OH229713   6.055   2.757  15.651
 2741TIP3    H129714   6.092   2.819  15.713
 2741TIP3    H229715   5.960   2.768  15.659
 2742TIP3   OH229716   1.199   2.758  13.400
 2742TIP3    H129717   1.190   2.689  13.465
 2742TIP3    H229718   1.130   2.740  13.336
 2743TIP3   OH229719   4.738   5.767  12.190
 2743TIP3    H129720   4.752   5.677  12.161
 2743TIP3    H229721   4.823   5.809  12.177
 2744TIP3   OH229722   5.391   1.024  15.995
 2744TIP3    H129723   5.380   0.940  15.950
 2744TIP3    H229724   5.470   1.062  15.956
 2745TIP3   OH229725   3.686   2.547  11.270
 2745TIP3    H129726   3.735   2.518  11.348
 2745TIP3    H229727   3.595   2.551  11.299
 2746TIP3   OH229728   6.492   5.876  12.993
 2746TIP3    H129729   6.511   5.967  13.015
 2746TIP3    H229730   6.424   5.850  13.054
 2747TIP3   OH229731   1.277   0.357   2.897
 2747TIP3    H129732   1.298   0.416   2.825
 2747TIP3    H229733   1.183   0.341   2.888
 2748TIP3   OH229734   4.085   0.294  15.045
 2748TIP3    H129735   4.128   0.371  15.082
 2748TIP3    H229736   3.993   0.318  15.039
 2749TIP3   OH229737   2.501   3.636   5.837
 2749TIP3    H129738   2.524   3.675   5.921
 2749TIP3    H229739   2.447   3.561   5.860
 2750TIP3   OH229740   0.448   3.816   5.832
 2750TIP3    H129741   0.357   3.843   5.821
 2750TIP3    H229742   0.443   3.736   5.886
 2751TIP3   OH229743   2.640   6.655  16.935
 2751TIP3    H129744   2.616   6.732  16.884
 2751TIP3    H229745   2.736   6.660  16.944
 2752TIP3   OH229746   3.659   5.524   3.413
 2752TIP3    H129747   3.708   5.577   3.351
 2752TIP3    H229748   3.614   5.459   3.359
 2753TIP3   OH229749   6.604   2.072  11.520
 2753TIP3    H129750   6.542   2.142  11.540
 2753TIP3    H229751   6.580   2.000  11.579
 2754TIP3   OH229752   6.667   6.281   5.280
 2754TIP3    H129753   6.601   6.350   5.286
 2754TIP3    H229754   6.632   6.220   5.216
 2755TIP3   OH229755   6.212   6.100  12.320
 2755TIP3    H129756   6.195   6.139  12.406
 2755TIP3    H229757   6.292   6.050  12.332
 2756TIP3   OH229758   6.114   2.787  10.907
 2756TIP3    H129759   6.135   2.712  10.962
 2756TIP3    H229760   6.193   2.803  10.855
 2757TIP3   OH229761   0.519   3.238   5.247
 2757TIP3    H129762   0.614   3.249   5.256
 2757TIP3    H229763   0.490   3.214   5.335
 2758TIP3   OH229764   4.115   5.469   4.546
 2758TIP3    H129765   4.063   5.547   4.562
 2758TIP3    H229766   4.112   5.457   4.451
 2759TIP3   OH229767   0.045   1.927   5.137
 2759TIP3    H129768   0.113   1.953   5.075
 2759TIP3    H229769  -0.002   1.856   5.093
 2760TIP3   OH229770   6.366   4.274  11.971
 2760TIP3    H129771   6.367   4.301  11.879
 2760TIP3    H229772   6.274   4.252  11.987
 2761TIP3   OH229773   0.536   5.289  13.741
 2761TIP3    H129774   0.478   5.362  13.765
 2761TIP3    H229775   0.566   5.255  13.825
 2762TIP3   OH229776   6.099   2.514  17.146
 2762TIP3    H129777   6.180   2.508  17.096
 2762TIP3    H229778   6.123   2.487  17.235
 2763TIP3   OH229779   4.200   6.316  14.663
 2763TIP3    H129780   4.168   6.377  14.597
 2763TIP3    H229781   4.133   6.317  14.731
 2764TIP3   OH229782   2.272   2.654   5.129
 2764TIP3    H129783   2.188   2.626   5.093
 2764TIP3    H229784   2.330   2.579   5.118
 2765TIP3   OH229785   0.490   2.561   3.157
 2765TIP3    H129786   0.577   2.525   3.139
 2765TIP3    H229787   0.505   2.654   3.172
 2766TIP3   OH229788   4.635   0.442  12.856
 2766TIP3    H129789   4.641   0.423  12.949
 2766TIP3    H229790   4.707   0.503  12.839
 2767TIP3   OH229791   5.378   2.923  15.509
 2767TIP3    H129792   5.319   2.875  15.566
 2767TIP3    H229793   5.321   2.965  15.445
 2768TIP3   OH229794   0.081   6.769   1.165
 2768TIP3    H129795   0.168   6.754   1.128
 2768TIP3    H229796   0.065   6.863   1.152
 2769TIP3   OH229797   2.121   0.337   2.833
 2769TIP3    H129798   2.046   0.293   2.873
 2769TIP3    H229799   2.117   0.312   2.741
 2770TIP3   OH229800   0.583   5.987  12.006
 2770TIP3    H129801   0.531   6.058  11.970
 2770TIP3    H229802   0.536   5.907  11.981
 2771TIP3   OH229803   3.999   6.256   3.112
 2771TIP3    H129804   3.923   6.280   3.165
 2771TIP3    H229805   4.073   6.296   3.158
 2772TIP3   OH229806   2.090   5.782  14.147
 2772TIP3    H129807   2.026   5.853  14.148
 2772TIP3    H229808   2.040   5.704  14.170
 2773TIP3   OH229809   5.534   6.807  16.457
 2773TIP3    H129810   5.594   6.771  16.391
 2773TIP3    H229811   5.447   6.781  16.427
 2774TIP3   OH229812   5.669   1.893  11.386
 2774TIP3    H129813   5.642   1.908  11.295
 2774TIP3    H229814   5.756   1.853  11.378
 2775TIP3   OH229815   4.821   5.556   2.854
 2775TIP3    H129816   4.754   5.578   2.789
 2775TIP3    H229817   4.830   5.461   2.849
 2776TIP3   OH229818   5.965   4.912  16.628
 2776TIP3    H129819   6.001   4.908  16.539
 2776TIP3    H229820   5.884   4.862  16.623
 2777TIP3   OH229821   1.539   0.784  17.041
 2777TIP3    H129822   1.508   0.699  17.071
 2777TIP3    H229823   1.473   0.846  17.072
 2778TIP3   OH229824   6.782   5.448   4.104
 2778TIP3    H129825   6.810   5.361   4.134
 2778TIP3    H229826   6.798   5.505   4.179
 2779TIP3   OH229827   5.230   6.045   1.305
 2779TIP3    H129828   5.169   5.979   1.271
 2779TIP3    H229829   5.192   6.073   1.388
 2780TIP3   OH229830   4.137   4.631   0.624
 2780TIP3    H129831   4.190   4.711   0.633
 2780TIP3    H229832   4.179   4.568   0.684
 2781TIP3   OH229833   5.199   1.521   1.761
 2781TIP3    H129834   5.126   1.476   1.802
 2781TIP3    H229835   5.254   1.452   1.725
 2782TIP3   OH229836   0.564   2.166  15.019
 2782TIP3    H129837   0.625   2.129  15.082
 2782TIP3    H229838   0.483   2.179  15.069
 2783TIP3   OH229839   1.453   5.223   2.079
 2783TIP3    H129840   1.523   5.203   2.142
 2783TIP3    H229841   1.382   5.164   2.104
 2784TIP3   OH229842   0.416   1.742  16.672
 2784TIP3    H129843   0.422   1.821  16.725
 2784TIP3    H229844   0.337   1.754  16.620
 2785TIP3   OH229845   3.867   4.711   5.656
 2785TIP3    H129846   3.814   4.785   5.686
 2785TIP3    H229847   3.892   4.734   5.566
 2786TIP3   OH229848   4.744   3.324  11.594
 2786TIP3    H129849   4.708   3.236  11.598
 2786TIP3    H229850   4.798   3.331  11.673
 2787TIP3   OH229851   0.847   3.287  16.123
 2787TIP3    H129852   0.923   3.234  16.149
 2787TIP3    H229853   0.876   3.336  16.047
 2788TIP3   OH229854   4.372   3.164   4.479
 2788TIP3    H129855   4.291   3.174   4.429
 2788TIP3    H229856   4.441   3.160   4.412
 2789TIP3   OH229857   6.541   5.310  14.815
 2789TIP3    H129858   6.576   5.254  14.745
 2789TIP3    H229859   6.456   5.271  14.837
 2790TIP3   OH229860   2.757   2.821  14.688
 2790TIP3    H129861   2.730   2.828  14.779
 2790TIP3    H229862   2.845   2.858  14.686
 2791TIP3   OH229863   2.022   4.329  16.319
 2791TIP3    H129864   2.003   4.255  16.262
 2791TIP3    H229865   2.020   4.405  16.262
 2792TIP3   OH229866   4.595   3.601   1.949
 2792TIP3    H129867   4.561   3.688   1.967
 2792TIP3    H229868   4.635   3.608   1.862
 2793TIP3   OH229869   5.087   2.609   4.148
 2793TIP3    H129870   5.156   2.675   4.157
 2793TIP3    H229871   5.019   2.637   4.210
 2794TIP3   OH229872   3.753   2.406  12.291
 2794TIP3    H129873   3.685   2.440  12.348
 2794TIP3    H229874   3.821   2.474  12.292
 2795TIP3   OH229875   3.139   2.504  11.761
 2795TIP3    H129876   3.070   2.541  11.707
 2795TIP3    H229877   3.093   2.464  11.835
 2796TIP3   OH229878   1.647   0.450   0.070
 2796TIP3    H129879   1.607   0.416   0.149
 2796TIP3    H229880   1.740   0.461   0.093
 2797TIP3   OH229881   1.112   5.524  15.835
 2797TIP3    H129882   1.126   5.596  15.896
 2797TIP3    H229883   1.148   5.448  15.880
 2798TIP3   OH229884   5.203   1.034  15.085
 2798TIP3    H129885   5.184   0.972  15.015
 2798TIP3    H229886   5.298   1.033  15.093
 2799TIP3   OH229887   6.726   0.013   4.949
 2799TIP3    H129888   6.757   0.010   5.039
 2799TIP3    H229889   6.773   0.087   4.909
 2800TIP3   OH229890   0.563   2.974   5.175
 2800TIP3    H129891   0.521   3.054   5.207
 2800TIP3    H229892   0.497   2.932   5.121
 2801TIP3   OH229893   3.992   0.696  11.771
 2801TIP3    H129894   3.957   0.608  11.761
 2801TIP3    H229895   4.030   0.716  11.685
 2802TIP3   OH229896   2.690   0.808  12.361
 2802TIP3    H129897   2.651   0.755  12.431
 2802TIP3    H229898   2.783   0.809  12.381
 2803TIP3   OH229899   5.613   0.413   1.864
 2803TIP3    H129900   5.570   0.462   1.935
 2803TIP3    H229901   5.580   0.324   1.874
 2804TIP3   OH229902   1.785   4.162  16.408
 2804TIP3    H129903   1.695   4.129  16.399
 2804TIP3    H229904   1.785   4.243  16.357
 2805TIP3   OH229905   3.027   2.193  11.240
 2805TIP3    H129906   3.036   2.289  11.238
 2805TIP3    H229907   3.108   2.163  11.282
 2806TIP3   OH229908   5.820   1.645   1.183
 2806TIP3    H129909   5.905   1.660   1.140
 2806TIP3    H229910   5.841   1.586   1.255
 2807TIP3   OH229911   3.237   6.328   3.431
 2807TIP3    H129912   3.320   6.332   3.479
 2807TIP3    H229913   3.263   6.315   3.340
 2808TIP3   OH229914   4.339   2.594  15.721
 2808TIP3    H129915   4.366   2.513  15.764
 2808TIP3    H229916   4.332   2.658  15.791
 2809TIP3   OH229917   3.768   4.583  17.238
 2809TIP3    H129918   3.700   4.518  17.254
 2809TIP3    H229919   3.722   4.658  17.201
 2810TIP3   OH229920   0.215   2.678  14.544
 2810TIP3    H129921   0.219   2.583  14.549
 2810TIP3    H229922   0.125   2.697  14.518
 2811TIP3   OH229923   5.236   3.258   5.314
 2811TIP3    H129924   5.181   3.182   5.329
 2811TIP3    H229925   5.235   3.305   5.398
 2812TIP3   OH229926   2.878   3.720   3.352
 2812TIP3    H129927   2.933   3.697   3.427
 2812TIP3    H229928   2.859   3.636   3.309
 2813TIP3   OH229929   6.784   0.578   2.776
 2813TIP3    H129930   6.791   0.656   2.832
 2813TIP3    H229931   6.801   0.505   2.835
 2814TIP3   OH229932   6.334   0.325  16.273
 2814TIP3    H129933   6.350   0.231  16.281
 2814TIP3    H229934   6.378   0.363  16.349
 2815TIP3   OH229935   6.081   1.730   0.339
 2815TIP3    H129936   6.154   1.788   0.359
 2815TIP3    H229937   6.074   1.732   0.244
 2816TIP3   OH229938   4.305   5.230   1.026
 2816TIP3    H129939   4.328   5.156   1.082
 2816TIP3    H229940   4.280   5.300   1.087
 2817TIP3   OH229941   1.377   2.071   2.028
 2817TIP3    H129942   1.467   2.063   2.061
 2817TIP3    H229943   1.372   2.161   1.997
 2818TIP3   OH229944   6.785   2.700  12.878
 2818TIP3    H129945   6.793   2.628  12.816
 2818TIP3    H229946   6.782   2.658  12.964
 2819TIP3   OH229947   1.064   2.334  12.560
 2819TIP3    H129948   1.135   2.290  12.605
 2819TIP3    H229949   1.102   2.363  12.477
 2820TIP3   OH229950   2.932   6.342   5.539
 2820TIP3    H129951   3.004   6.388   5.580
 2820TIP3    H229952   2.863   6.408   5.529
 2821TIP3   OH229953   4.342   2.720   3.738
 2821TIP3    H129954   4.254   2.741   3.706
 2821TIP3    H229955   4.365   2.794   3.795
 2822TIP3   OH229956   1.154   3.108  17.053
 2822TIP3    H129957   1.158   3.013  17.049
 2822TIP3    H229958   1.145   3.136  16.962
 2823TIP3   OH229959   4.725   5.295  10.930
 2823TIP3    H129960   4.653   5.320  10.873
 2823TIP3    H229961   4.748   5.376  10.976
 2824TIP3   OH229962   5.984   0.098  15.551
 2824TIP3    H129963   6.052   0.155  15.514
 2824TIP3    H229964   5.911   0.104  15.489
 2825TIP3   OH229965   0.163   1.202  13.739
 2825TIP3    H129966   0.117   1.124  13.770
 2825TIP3    H229967   0.231   1.217  13.804
 2826TIP3   OH229968   6.288   6.606   1.721
 2826TIP3    H129969   6.193   6.595   1.727
 2826TIP3    H229970   6.300   6.675   1.656
 2827TIP3   OH229971   2.161   0.836   1.582
 2827TIP3    H129972   2.206   0.920   1.585
 2827TIP3    H229973   2.177   0.797   1.669
 2828TIP3   OH229974   1.473   6.091   5.273
 2828TIP3    H129975   1.480   6.031   5.199
 2828TIP3    H229976   1.555   6.141   5.271
 2829TIP3   OH229977   0.909   1.414  13.146
 2829TIP3    H129978   0.994   1.416  13.190
 2829TIP3    H229979   0.915   1.484  13.080
 2830TIP3   OH229980   3.145   0.337   0.916
 2830TIP3    H129981   3.142   0.259   0.860
 2830TIP3    H229982   3.129   0.303   1.004
 2831TIP3   OH229983   3.302   5.008   3.093
 2831TIP3    H129984   3.282   4.962   3.012
 2831TIP3    H229985   3.367   4.953   3.137
 2832TIP3   OH229986   3.771   5.124  12.668
 2832TIP3    H129987   3.681   5.093  12.677
 2832TIP3    H229988   3.769   5.181  12.591
 2833TIP3   OH229989   6.217   0.029  13.676
 2833TIP3    H129990   6.275   0.099  13.646
 2833TIP3    H229991   6.176   0.064  13.755
 2834TIP3   OH229992   6.488   6.604  12.002
 2834TIP3    H129993   6.474   6.601  12.097
 2834TIP3    H229994   6.582   6.619  11.992
 2835TIP3   OH229995   2.730   3.177  17.275
 2835TIP3    H129996   2.664   3.178  17.344
 2835TIP3    H229997   2.733   3.086  17.246
 2836TIP3   OH229998   1.595   4.806  12.002
 2836TIP3    H129999   1.570   4.762  11.920
 2836TIP3    H230000   1.515   4.806  12.054
 2837TIP3   OH230001   4.177   0.446  14.239
 2837TIP3    H130002   4.093   0.427  14.281
 2837TIP3    H230003   4.242   0.422  14.304
 2838TIP3   OH230004   4.164   5.637  12.740
 2838TIP3    H130005   4.219   5.661  12.814
 2838TIP3    H230006   4.155   5.542  12.747
 2839TIP3   OH230007   1.921   1.139  16.388
 2839TIP3    H130008   1.958   1.178  16.309
 2839TIP3    H230009   1.978   1.065  16.408
 2840TIP3   OH230010   1.826   2.573   0.887
 2840TIP3    H130011   1.889   2.644   0.901
 2840TIP3    H230012   1.815   2.533   0.973
 2841TIP3   OH230013   2.129   2.513  13.423
 2841TIP3    H130014   2.190   2.445  13.454
 2841TIP3    H230015   2.092   2.478  13.342
 2842TIP3   OH230016   0.417   5.921   2.449
 2842TIP3    H130017   0.446   5.898   2.361
 2842TIP3    H230018   0.398   5.837   2.491
 2843TIP3   OH230019   0.461   4.148   6.364
 2843TIP3    H130020   0.493   4.070   6.319
 2843TIP3    H230021   0.536   4.179   6.415
 2844TIP3   OH230022   2.248   4.219   3.350
 2844TIP3    H130023   2.174   4.202   3.408
 2844TIP3    H230024   2.300   4.139   3.355
 2845TIP3   OH230025   5.371   4.371  16.636
 2845TIP3    H130026   5.368   4.409  16.548
 2845TIP3    H230027   5.286   4.392  16.674
 2846TIP3   OH230028   2.767   1.049   2.394
 2846TIP3    H130029   2.724   0.978   2.441
 2846TIP3    H230030   2.748   1.033   2.302
 2847TIP3   OH230031   1.512   0.280   1.800
 2847TIP3    H130032   1.505   0.324   1.716
 2847TIP3    H230033   1.522   0.350   1.864
 2848TIP3   OH230034   0.636   1.312   3.383
 2848TIP3    H130035   0.687   1.291   3.461
 2848TIP3    H230036   0.639   1.233   3.330
 2849TIP3   OH230037   1.206   1.781   3.303
 2849TIP3    H130038   1.264   1.777   3.228
 2849TIP3    H230039   1.230   1.863   3.347
 2850TIP3   OH230040   6.091   6.716  16.999
 2850TIP3    H130041   6.040   6.636  17.011
 2850TIP3    H230042   6.033   6.774  16.949
 2851TIP3   OH230043   3.214   1.246  14.894
 2851TIP3    H130044   3.305   1.236  14.920
 2851TIP3    H230045   3.184   1.156  14.881
 2852TIP3   OH230046   4.196   2.501  13.137
 2852TIP3    H130047   4.183   2.444  13.061
 2852TIP3    H230048   4.271   2.556  13.112
 2853TIP3   OH230049   5.167   5.888   0.251
 2853TIP3    H130050   5.198   5.959   0.195
 2853TIP3    H230051   5.219   5.896   0.331
 2854TIP3   OH230052   1.640   2.217   2.175
 2854TIP3    H130053   1.735   2.211   2.180
 2854TIP3    H230054   1.623   2.259   2.091
 2855TIP3   OH230055   3.308   4.125   3.520
 2855TIP3    H130056   3.374   4.056   3.522
 2855TIP3    H230057   3.271   4.125   3.609
 2856TIP3   OH230058   3.208   1.101  13.285
 2856TIP3    H130059   3.121   1.073  13.312
 2856TIP3    H230060   3.209   1.196  13.300
 2857TIP3   OH230061   1.983   4.338  12.623
 2857TIP3    H130062   1.960   4.250  12.652
 2857TIP3    H230063   1.916   4.360  12.558
 2858TIP3   OH230064   5.952   4.562   3.520
 2858TIP3    H130065   5.892   4.612   3.466
 2858TIP3    H230066   5.929   4.470   3.505
 2859TIP3   OH230067   2.834   3.371   4.816
 2859TIP3    H130068   2.844   3.358   4.910
 2859TIP3    H230069   2.884   3.299   4.777
 2860TIP3   OH230070   4.610   1.672   1.592
 2860TIP3    H130071   4.632   1.601   1.652
 2860TIP3    H230072   4.676   1.666   1.523
 2861TIP3   OH230073   1.157   2.076  15.499
 2861TIP3    H130074   1.162   2.061  15.405
 2861TIP3    H230075   1.115   1.997  15.534
 2862TIP3   OH230076   3.015   5.140  17.177
 2862TIP3    H130077   3.049   5.057  17.145
 2862TIP3    H230078   2.920   5.127  17.181
 2863TIP3   OH230079   0.223   5.982   5.346
 2863TIP3    H130080   0.130   5.990   5.323
 2863TIP3    H230081   0.236   6.047   5.416
 2864TIP3   OH230082   0.958   5.931  15.103
 2864TIP3    H130083   1.037   5.933  15.157
 2864TIP3    H230084   0.892   5.893  15.159
 2865TIP3   OH230085   2.018   6.013   4.805
 2865TIP3    H130086   1.966   5.959   4.745
 2865TIP3    H230087   2.098   6.031   4.757
 2866TIP3   OH230088   4.498   1.160   0.764
 2866TIP3    H130089   4.446   1.213   0.826
 2866TIP3    H230090   4.445   1.158   0.685
 2867TIP3   OH230091   0.557   0.267   4.975
 2867TIP3    H130092   0.481   0.325   4.977
 2867TIP3    H230093   0.619   0.310   4.916
 2868TIP3   OH230094   0.291   5.019   4.718
 2868TIP3    H130095   0.303   4.989   4.627
 2868TIP3    H230096   0.196   5.028   4.727
 2869TIP3   OH230097   5.639   3.492   1.378
 2869TIP3    H130098   5.672   3.437   1.307
 2869TIP3    H230099   5.557   3.527   1.345
 2870TIP3   OH230100   1.517   4.982  16.331
 2870TIP3    H130101   1.549   4.943  16.412
 2870TIP3    H230102   1.597   5.008  16.284
 2871TIP3   OH230103   2.669   3.691  14.600
 2871TIP3    H130104   2.646   3.772  14.645
 2871TIP3    H230105   2.640   3.704  14.510
 2872TIP3   OH230106   5.592   6.191   2.192
 2872TIP3    H130107   5.576   6.256   2.261
 2872TIP3    H230108   5.504   6.166   2.163
 2873TIP3   OH230109   4.465   0.329   5.859
 2873TIP3    H130110   4.391   0.282   5.896
 2873TIP3    H230111   4.426   0.387   5.794
 2874TIP3   OH230112   0.088   4.929  16.674
 2874TIP3    H130113   0.130   4.875  16.607
 2874TIP3    H230114   0.149   5.000  16.689
 2875TIP3   OH230115   0.765   0.002  14.567
 2875TIP3    H130116   0.723   0.044  14.642
 2875TIP3    H230117   0.692  -0.026  14.511
 2876TIP3   OH230118   3.469   0.121  12.802
 2876TIP3    H130119   3.478   0.097  12.895
 2876TIP3    H230120   3.497   0.212  12.799
 2877TIP3   OH230121   1.287   3.686   1.529
 2877TIP3    H130122   1.243   3.743   1.592
 2877TIP3    H230123   1.239   3.603   1.534
 2878TIP3   OH230124   2.790   6.601   1.287
 2878TIP3    H130125   2.870   6.653   1.292
 2878TIP3    H230126   2.816   6.513   1.311
 2879TIP3   OH230127   5.783   0.190   2.844
 2879TIP3    H130128   5.728   0.121   2.808
 2879TIP3    H230129   5.864   0.186   2.793
 2880TIP3   OH230130   0.854   4.369  14.479
 2880TIP3    H130131   0.837   4.431  14.408
 2880TIP3    H230132   0.943   4.391  14.508
 2881TIP3   OH230133   3.514   2.128   4.362
 2881TIP3    H130134   3.573   2.174   4.422
 2881TIP3    H230135   3.442   2.190   4.347
 2882TIP3   OH230136   0.711   3.410   1.873
 2882TIP3    H130137   0.702   3.358   1.793
 2882TIP3    H230138   0.772   3.359   1.927
 2883TIP3   OH230139   5.260   3.575   6.006
 2883TIP3    H130140   5.244   3.655   6.056
 2883TIP3    H230141   5.256   3.505   6.071
 2884TIP3   OH230142   5.822   5.588   4.270
 2884TIP3    H130143   5.839   5.548   4.355
 2884TIP3    H230144   5.906   5.627   4.245
 2885TIP3   OH230145   5.608   5.478  13.433
 2885TIP3    H130146   5.625   5.398  13.382
 2885TIP3    H230147   5.693   5.519  13.444
 2886TIP3   OH230148   5.303   5.988  15.863
 2886TIP3    H130149   5.270   6.024  15.781
 2886TIP3    H230150   5.316   6.065  15.918
 2887TIP3   OH230151   0.251   2.933   2.976
 2887TIP3    H130152   0.334   2.887   2.983
 2887TIP3    H230153   0.205   2.889   2.904
 2888TIP3   OH230154   1.223   6.267   0.014
 2888TIP3    H130155   1.174   6.223  -0.055
 2888TIP3    H230156   1.161   6.327   0.055
 2889TIP3   OH230157   5.963   1.514   4.796
 2889TIP3    H130158   6.000   1.585   4.850
 2889TIP3    H230159   6.009   1.521   4.713
 2890TIP3   OH230160   1.778   1.488   2.595
 2890TIP3    H130161   1.748   1.559   2.652
 2890TIP3    H230162   1.764   1.519   2.506
 2891TIP3   OH230163   4.939   3.861   2.625
 2891TIP3    H130164   4.997   3.900   2.560
 2891TIP3    H230165   4.979   3.776   2.645
 2892TIP3   OH230166   1.914   0.523   3.269
 2892TIP3    H130167   1.860   0.525   3.348
 2892TIP3    H230168   1.973   0.449   3.282
 2893TIP3   OH230169   2.409   0.259  16.576
 2893TIP3    H130170   2.316   0.246  16.560
 2893TIP3    H230171   2.414   0.342  16.623
 2894TIP3   OH230172   6.123   4.092  12.453
 2894TIP3    H130173   6.127   4.000  12.425
 2894TIP3    H230174   6.029   4.110  12.459
 2895TIP3   OH230175   3.575   3.673   4.280
 2895TIP3    H130176   3.546   3.736   4.214
 2895TIP3    H230177   3.668   3.691   4.291
 2896TIP3   OH230178   4.695   6.162   2.740
 2896TIP3    H130179   4.702   6.135   2.832
 2896TIP3    H230180   4.620   6.221   2.738
 2897TIP3   OH230181   0.324   3.760  11.901
 2897TIP3    H130182   0.339   3.851  11.872
 2897TIP3    H230183   0.409   3.718  11.889
 2898TIP3   OH230184   1.428   6.396  16.378
 2898TIP3    H130185   1.366   6.447  16.326
 2898TIP3    H230186   1.513   6.435  16.361
 2899TIP3   OH230187   2.226   0.613  13.118
 2899TIP3    H130188   2.182   0.638  13.199
 2899TIP3    H230189   2.172   0.652  13.049
 2900TIP3   OH230190   4.615   4.387  15.424
 2900TIP3    H130191   4.704   4.401  15.393
 2900TIP3    H230192   4.561   4.439  15.364
 2901TIP3   OH230193   4.306   0.223   0.080
 2901TIP3    H130194   4.266   0.167   0.146
 2901TIP3    H230195   4.343   0.162   0.016
 2902TIP3   OH230196   1.053   1.379  14.693
 2902TIP3    H130197   1.121   1.377  14.761
 2902TIP3    H230198   0.986   1.319  14.726
 2903TIP3   OH230199   3.133   4.343   3.256
 2903TIP3    H130200   3.128   4.249   3.239
 2903TIP3    H230201   3.065   4.359   3.322
 2904TIP3   OH230202   0.489   0.475   3.310
 2904TIP3    H130203   0.409   0.519   3.340
 2904TIP3    H230204   0.476   0.383   3.334
 2905TIP3   OH230205   0.920   3.037  11.230
 2905TIP3    H130206   0.978   2.961  11.220
 2905TIP3    H230207   0.959   3.104  11.174
 2906TIP3   OH230208   1.747   4.129   6.208
 2906TIP3    H130209   1.778   4.099   6.293
 2906TIP3    H230210   1.821   4.178   6.171
 2907TIP3   OH230211   0.742   0.698   0.448
 2907TIP3    H130212   0.758   0.617   0.496
 2907TIP3    H230213   0.822   0.712   0.397
 2908TIP3   OH230214   3.268   4.515  13.282
 2908TIP3    H130215   3.315   4.480  13.357
 2908TIP3    H230216   3.220   4.440  13.247
 2909TIP3   OH230217   2.583   1.143  16.223
 2909TIP3    H130218   2.567   1.208  16.154
 2909TIP3    H230219   2.592   1.060  16.175
 2910TIP3   OH230220   1.480   3.004  15.570
 2910TIP3    H130221   1.564   2.960  15.588
 2910TIP3    H230222   1.461   2.982  15.478
 2911TIP3   OH230223   4.270   2.269   2.656
 2911TIP3    H130224   4.217   2.315   2.721
 2911TIP3    H230225   4.218   2.191   2.634
 2912TIP3   OH230226   2.212   5.315  12.068
 2912TIP3    H130227   2.274   5.352  12.005
 2912TIP3    H230228   2.241   5.348  12.153
 2913TIP3   OH230229   4.536   2.538   3.604
 2913TIP3    H130230   4.601   2.527   3.673
 2913TIP3    H230231   4.471   2.597   3.643
 2914TIP3   OH230232   1.689   4.440  16.651
 2914TIP3    H130233   1.625   4.511  16.637
 2914TIP3    H230234   1.642   4.375  16.703
 2915TIP3   OH230235   4.945   3.232  13.337
 2915TIP3    H130236   4.912   3.319  13.359
 2915TIP3    H230237   4.901   3.210  13.255
 2916TIP3   OH230238   2.453   0.254   5.327
 2916TIP3    H130239   2.368   0.297   5.330
 2916TIP3    H230240   2.467   0.234   5.235
 2917TIP3   OH230241   2.778   2.088  16.715
 2917TIP3    H130242   2.763   2.001  16.677
 2917TIP3    H230243   2.804   2.072  16.805
 2918TIP3   OH230244   4.878   0.442   2.765
 2918TIP3    H130245   4.872   0.491   2.683
 2918TIP3    H230246   4.966   0.404   2.764
 2919TIP3   OH230247   0.640   0.801   3.818
 2919TIP3    H130248   0.614   0.880   3.771
 2919TIP3    H230249   0.641   0.827   3.910
 2920TIP3   OH230250   2.550   3.869  17.089
 2920TIP3    H130251   2.628   3.834  17.046
 2920TIP3    H230252   2.575   3.958  17.115
 2921TIP3   OH230253   5.875   2.463   0.575
 2921TIP3    H130254   5.909   2.451   0.664
 2921TIP3    H230255   5.953   2.462   0.519
 2922TIP3   OH230256   5.642   0.931  13.927
 2922TIP3    H130257   5.711   0.958  13.988
 2922TIP3    H230258   5.682   0.862  13.874
 2923TIP3   OH230259   6.115   2.822  13.014
 2923TIP3    H130260   6.200   2.851  12.980
 2923TIP3    H230261   6.055   2.829  12.940
 2924TIP3   OH230262   6.209   3.010   6.869
 2924TIP3    H130263   6.263   2.938   6.837
 2924TIP3    H230264   6.223   3.080   6.806
 2925TIP3   OH230265   2.352   0.366  12.890
 2925TIP3    H130266   2.309   0.285  12.918
 2925TIP3    H230267   2.442   0.358  12.921
 2926TIP3   OH230268   6.265   1.455   5.888
 2926TIP3    H130269   6.222   1.522   5.942
 2926TIP3    H230270   6.194   1.413   5.840
 2927TIP3   OH230271   5.251   2.813   2.363
 2927TIP3    H130272   5.159   2.836   2.376
 2927TIP3    H230273   5.285   2.882   2.305
 2928TIP3   OH230274   6.071   1.337  14.408
 2928TIP3    H130275   6.035   1.420  14.375
 2928TIP3    H230276   6.146   1.364  14.461
 2929TIP3   OH230277   0.506   1.905  15.751
 2929TIP3    H130278   0.428   1.850  15.757
 2929TIP3    H230279   0.515   1.944  15.838
 2930TIP3   OH230280   6.179   4.157   5.886
 2930TIP3    H130281   6.199   4.189   5.974
 2930TIP3    H230282   6.229   4.076   5.879
 2931TIP3   OH230283   2.985   4.019   0.781
 2931TIP3    H130284   2.890   4.029   0.767
 2931TIP3    H230285   3.003   3.929   0.755
 2932TIP3   OH230286   6.011   6.173  12.135
 2932TIP3    H130287   6.017   6.255  12.087
 2932TIP3    H230288   6.094   6.166  12.182
 2933TIP3   OH230289   6.609   5.157  16.725
 2933TIP3    H130290   6.551   5.229  16.750
 2933TIP3    H230291   6.634   5.177  16.635
 2934TIP3   OH230292   1.195   2.978  11.443
 2934TIP3    H130293   1.286   3.007  11.441
 2934TIP3    H230294   1.176   2.954  11.352
 2935TIP3   OH230295   1.930   2.916   6.224
 2935TIP3    H130296   1.865   2.925   6.294
 2935TIP3    H230297   1.895   2.967   6.151
 2936TIP3   OH230298   0.595   6.299   3.074
 2936TIP3    H130299   0.556   6.385   3.055
 2936TIP3    H230300   0.663   6.289   3.008
 2937TIP3   OH230301   3.154   1.945   3.662
 2937TIP3    H130302   3.129   1.856   3.637
 2937TIP3    H230303   3.144   1.947   3.758
 2938TIP3   OH230304   0.898   5.890   2.759
 2938TIP3    H130305   0.904   5.795   2.770
 2938TIP3    H230306   0.899   5.903   2.664
 2939TIP3   OH230307   2.876   0.669   1.202
 2939TIP3    H130308   2.931   0.596   1.228
 2939TIP3    H230309   2.865   0.658   1.107
 2940TIP3   OH230310   4.046   4.531   2.546
 2940TIP3    H130311   4.059   4.552   2.454
 2940TIP3    H230312   3.996   4.605   2.581
 2941TIP3   OH230313   4.867   0.546  12.506
 2941TIP3    H130314   4.919   0.564  12.427
 2941TIP3    H230315   4.918   0.480  12.553
 2942TIP3   OH230316   2.042   4.234   2.407
 2942TIP3    H130317   2.011   4.177   2.336
 2942TIP3    H230318   2.011   4.191   2.487
 2943TIP3   OH230319   3.757   2.818  15.573
 2943TIP3    H130320   3.851   2.807  15.556
 2943TIP3    H230321   3.733   2.743  15.627
 2944TIP3   OH230322   1.571   2.404   6.131
 2944TIP3    H130323   1.614   2.394   6.046
 2944TIP3    H230324   1.589   2.322   6.178
 2945TIP3   OH230325   1.237   2.837   1.364
 2945TIP3    H130326   1.269   2.925   1.387
 2945TIP3    H230327   1.143   2.849   1.350
 2946TIP3   OH230328   3.323   1.376   2.280
 2946TIP3    H130329   3.361   1.292   2.254
 2946TIP3    H230330   3.371   1.401   2.359
 2947TIP3   OH230331   5.757   3.597  13.978
 2947TIP3    H130332   5.840   3.556  13.954
 2947TIP3    H230333   5.723   3.542  14.049
 2948TIP3   OH230334   5.875   0.809   1.813
 2948TIP3    H130335   5.930   0.882   1.786
 2948TIP3    H230336   5.927   0.731   1.793
 2949TIP3   OH230337   0.166   1.476  11.796
 2949TIP3    H130338   0.079   1.514  11.779
 2949TIP3    H230339   0.211   1.480  11.712
 2950TIP3   OH230340   6.594   4.474   4.302
 2950TIP3    H130341   6.514   4.441   4.344
 2950TIP3    H230342   6.657   4.403   4.312
 2951TIP3   OH230343   6.553   0.574  14.738
 2951TIP3    H130344   6.628   0.616  14.781
 2951TIP3    H230345   6.589   0.494  14.699
 2952TIP3   OH230346   5.830   5.005  13.888
 2952TIP3    H130347   5.879   4.953  13.823
 2952TIP3    H230348   5.869   5.093  13.881
 2953TIP3   OH230349   1.800   3.747   6.128
 2953TIP3    H130350   1.763   3.687   6.063
 2953TIP3    H230351   1.756   3.724   6.210
 2954TIP3   OH230352   4.561   5.968   5.312
 2954TIP3    H130353   4.626   5.900   5.290
 2954TIP3    H230354   4.515   5.933   5.387
 2955TIP3   OH230355   1.438   2.080   0.041
 2955TIP3    H130356   1.362   2.114  -0.006
 2955TIP3    H230357   1.408   2.069   0.131
 2956TIP3   OH230358   0.747   5.231   1.306
 2956TIP3    H130359   0.681   5.297   1.329
 2956TIP3    H230360   0.718   5.151   1.349
 2957TIP3   OH230361   4.890   4.229   1.283
 2957TIP3    H130362   4.817   4.262   1.231
 2957TIP3    H230363   4.949   4.304   1.292
 2958TIP3   OH230364   2.181   6.394   4.862
 2958TIP3    H130365   2.089   6.371   4.854
 2958TIP3    H230366   2.207   6.419   4.773
 2959TIP3   OH230367   5.888   1.551  14.243
 2959TIP3    H130368   5.924   1.640  14.238
 2959TIP3    H230369   5.956   1.496  14.205
 2960TIP3   OH230370   2.293   5.992   6.244
 2960TIP3    H130371   2.216   5.981   6.300
 2960TIP3    H230372   2.359   5.934   6.283
 2961TIP3   OH230373   3.482   2.495   5.940
 2961TIP3    H130374   3.536   2.562   5.897
 2961TIP3    H230375   3.516   2.412   5.906
 2962TIP3   OH230376   0.041   5.746   1.025
 2962TIP3    H130377  -0.007   5.827   1.041
 2962TIP3    H230378   0.084   5.759   0.941
 2963TIP3   OH230379   1.268   5.708   4.481
 2963TIP3    H130380   1.236   5.680   4.567
 2963TIP3    H230381   1.202   5.770   4.450
 2964TIP3   OH230382   6.116   1.647  11.600
 2964TIP3    H130383   6.121   1.718  11.537
 2964TIP3    H230384   6.100   1.690  11.684
 2965TIP3   OH230385   1.900   4.088   3.546
 2965TIP3    H130386   1.873   4.126   3.630
 2965TIP3    H230387   1.993   4.110   3.539
 2966TIP3   OH230388   2.960   1.254  14.016
 2966TIP3    H130389   2.986   1.332  13.968
 2966TIP3    H230390   2.929   1.193  13.949
 2967TIP3   OH230391   5.459   2.407  10.621
 2967TIP3    H130392   5.454   2.501  10.604
 2967TIP3    H230393   5.551   2.392  10.645
 2968TIP3   OH230394   3.485   5.535   2.192
 2968TIP3    H130395   3.512   5.472   2.260
 2968TIP3    H230396   3.478   5.618   2.239
 2969TIP3   OH230397   0.453   1.431  12.293
 2969TIP3    H130398   0.517   1.441  12.364
 2969TIP3    H230399   0.477   1.348  12.251
 2970TIP3   OH230400   1.199   1.454  12.984
 2970TIP3    H130401   1.210   1.369  12.941
 2970TIP3    H230402   1.287   1.477  13.014
 2971TIP3   OH230403   2.141   1.531  13.147
 2971TIP3    H130404   2.223   1.574  13.122
 2971TIP3    H230405   2.083   1.604  13.170
 2972TIP3   OH230406   4.021   5.054   3.245
 2972TIP3    H130407   3.945   5.111   3.229
 2972TIP3    H230408   4.095   5.106   3.215
 2973TIP3   OH230409   3.087   4.895   3.961
 2973TIP3    H130410   3.091   4.894   3.865
 2973TIP3    H230411   3.029   4.968   3.982
 2974TIP3   OH230412   3.501   3.188   5.577
 2974TIP3    H130413   3.460   3.182   5.491
 2974TIP3    H230414   3.502   3.098   5.609
 2975TIP3   OH230415   4.575   2.886  13.673
 2975TIP3    H130416   4.651   2.855  13.625
 2975TIP3    H230417   4.605   2.897  13.763
 2976TIP3   OH230418   4.564   0.475   1.645
 2976TIP3    H130419   4.501   0.409   1.677
 2976TIP3    H230420   4.563   0.542   1.713
 2977TIP3   OH230421   1.463   0.060   6.700
 2977TIP3    H130422   1.531  -0.001   6.727
 2977TIP3    H230423   1.381   0.017   6.725
 2978TIP3   OH230424   0.457   4.315   3.911
 2978TIP3    H130425   0.398   4.328   3.837
 2978TIP3    H230426   0.540   4.287   3.871
 2979TIP3   OH230427   3.420   6.480   4.778
 2979TIP3    H130428   3.444   6.394   4.745
 2979TIP3    H230429   3.455   6.483   4.867
 2980TIP3   OH230430   4.298   3.339   1.248
 2980TIP3    H130431   4.283   3.245   1.251
 2980TIP3    H230432   4.357   3.352   1.174
 2981TIP3   OH230433   6.642   5.753   2.951
 2981TIP3    H130434   6.693   5.689   3.002
 2981TIP3    H230435   6.652   5.835   2.998
 2982TIP3   OH230436   0.405   3.058   2.255
 2982TIP3    H130437   0.348   2.986   2.226
 2982TIP3    H230438   0.477   3.058   2.192
 2983TIP3   OH230439   6.728   3.709   1.678
 2983TIP3    H130440   6.771   3.687   1.761
 2983TIP3    H230441   6.797   3.699   1.613
 2984TIP3   OH230442   2.798   4.281  11.360
 2984TIP3    H130443   2.786   4.241  11.274
 2984TIP3    H230444   2.728   4.346  11.367
 2985TIP3   OH230445   3.036   4.894   3.195
 2985TIP3    H130446   3.129   4.888   3.177
 2985TIP3    H230447   2.999   4.931   3.114
 2986TIP3   OH230448   0.055   2.070  15.731
 2986TIP3    H130449   0.092   2.158  15.735
 2986TIP3    H230450   0.085   2.028  15.812
 2987TIP3   OH230451   6.818   5.189  13.175
 2987TIP3    H130452   6.822   5.100  13.211
 2987TIP3    H230453   6.793   5.244  13.248
 2988TIP3   OH230454   1.867   0.108  11.120
 2988TIP3    H130455   1.822   0.102  11.035
 2988TIP3    H230456   1.948   0.154  11.100
 2989TIP3   OH230457   3.323   3.445  15.690
 2989TIP3    H130458   3.351   3.453  15.598
 2989TIP3    H230459   3.379   3.506  15.737
 2990TIP3   OH230460   3.255   1.908  12.444
 2990TIP3    H130461   3.256   1.842  12.513
 2990TIP3    H230462   3.283   1.861  12.365
 2991TIP3   OH230463   4.764   3.943   1.029
 2991TIP3    H130464   4.845   3.934   0.979
 2991TIP3    H230465   4.694   3.944   0.963
 2992TIP3   OH230466   0.515   0.937   1.673
 2992TIP3    H130467   0.496   0.844   1.668
 2992TIP3    H230468   0.586   0.951   1.610
 2993TIP3   OH230469   6.372   6.195   4.064
 2993TIP3    H130470   6.413   6.178   3.980
 2993TIP3    H230471   6.338   6.284   4.057
 2994TIP3   OH230472   3.430   2.221  16.061
 2994TIP3    H130473   3.437   2.315  16.045
 2994TIP3    H230474   3.434   2.182  15.973
 2995TIP3   OH230475   6.367   4.361   2.702
 2995TIP3    H130476   6.395   4.451   2.687
 2995TIP3    H230477   6.274   4.360   2.681
 2996TIP3   OH230478   2.041   4.697   3.338
 2996TIP3    H130479   1.989   4.763   3.384
 2996TIP3    H230480   2.104   4.668   3.404
 2997TIP3   OH230481   1.265   6.111   0.255
 2997TIP3    H130482   1.246   6.196   0.295
 2997TIP3    H230483   1.271   6.129   0.162
 2998TIP3   OH230484   2.717   5.959  15.013
 2998TIP3    H130485   2.622   5.956  15.007
 2998TIP3    H230486   2.747   5.885  14.959
 2999TIP3   OH230487   4.429   2.723   1.451
 2999TIP3    H130488   4.456   2.811   1.427
 2999TIP3    H230489   4.373   2.695   1.379
 3000TIP3   OH230490   2.943   6.262  14.180
 3000TIP3    H130491   2.976   6.345  14.213
 3000TIP3    H230492   2.889   6.285  14.104
 3001TIP3   OH230493   2.658   6.627   1.887
 3001TIP3    H130494   2.621   6.629   1.976
 3001TIP3    H230495   2.620   6.704   1.844
 3002TIP3   OH230496   6.280   2.132  15.651
 3002TIP3    H130497   6.370   2.104  15.639
 3002TIP3    H230498   6.234   2.099  15.574
 3003TIP3   OH230499   6.809   0.229  13.832
 3003TIP3    H130500   6.765   0.234  13.748
 3003TIP3    H230501   6.864   0.308  13.835
 3004TIP3   OH230502   1.941   6.412  12.696
 3004TIP3    H130503   1.969   6.339  12.640
 3004TIP3    H230504   1.874   6.374  12.752
 3005TIP3   OH230505   1.229   0.249   0.740
 3005TIP3    H130506   1.196   0.250   0.650
 3005TIP3    H230507   1.312   0.297   0.735
 3006TIP3   OH230508   5.980   6.793   5.397
 3006TIP3    H130509   5.912   6.852   5.430
 3006TIP3    H230510   6.033   6.772   5.474
 3007TIP3   OH230511   2.052   5.335   3.584
 3007TIP3    H130512   2.091   5.265   3.637
 3007TIP3    H230513   2.125   5.393   3.563
 3008TIP3   OH230514   5.672   3.933   4.893
 3008TIP3    H130515   5.580   3.959   4.886
 3008TIP3    H230516   5.685   3.914   4.986
 3009TIP3   OH230517   4.153   2.275   4.338
 3009TIP3    H130518   4.085   2.269   4.270
 3009TIP3    H230519   4.120   2.342   4.398
 3010TIP3   OH230520   2.725   5.101  17.263
 3010TIP3    H130521   2.656   5.126  17.202
 3010TIP3    H230522   2.678   5.069  17.341
 3011TIP3   OH230523   2.797   0.285  11.354
 3011TIP3    H130524   2.855   0.326  11.419
 3011TIP3    H230525   2.831   0.196  11.345
 3012TIP3   OH230526   5.635   4.086  16.681
 3012TIP3    H130527   5.624   4.147  16.754
 3012TIP3    H230528   5.728   4.090  16.660
 3013TIP3   OH230529   3.453   4.175  10.551
 3013TIP3    H130530   3.459   4.104  10.488
 3013TIP3    H230531   3.367   4.164  10.592
 3014TIP3   OH230532   2.243   0.633  14.690
 3014TIP3    H130533   2.165   0.667  14.645
 3014TIP3    H230534   2.293   0.591  14.620
 3015TIP3   OH230535   3.619   1.404  16.878
 3015TIP3    H130536   3.535   1.358  16.870
 3015TIP3    H230537   3.617   1.471  16.810
 3016TIP3   OH230538   4.140   1.417  16.970
 3016TIP3    H130539   4.174   1.399  17.057
 3016TIP3    H230540   4.210   1.388  16.911
 3017TIP3   OH230541   5.178   3.786  10.440
 3017TIP3    H130542   5.245   3.854  10.438
 3017TIP3    H230543   5.204   3.724  10.371
 3018TIP3   OH230544   3.505   5.909   3.932
 3018TIP3    H130545   3.578   5.919   3.994
 3018TIP3    H230546   3.544   5.924   3.846
 3019TIP3   OH230547   4.524   1.448  11.051
 3019TIP3    H130548   4.555   1.362  11.023
 3019TIP3    H230549   4.569   1.509  10.992
 3020TIP3   OH230550   0.259   3.902  13.311
 3020TIP3    H130551   0.176   3.860  13.330
 3020TIP3    H230552   0.235   3.986  13.272
 3021TIP3   OH230553   0.624   4.458   0.834
 3021TIP3    H130554   0.542   4.492   0.799
 3021TIP3    H230555   0.600   4.374   0.873
 3022TIP3   OH230556   3.399   1.292  11.370
 3022TIP3    H130557   3.360   1.347  11.302
 3022TIP3    H230558   3.362   1.205  11.356
 3023TIP3   OH230559   1.876   0.853  13.191
 3023TIP3    H130560   1.895   0.770  13.146
 3023TIP3    H230561   1.798   0.833  13.244
 3024TIP3   OH230562   0.939   5.119   3.902
 3024TIP3    H130563   0.870   5.184   3.893
 3024TIP3    H230564   0.914   5.068   3.980
 3025TIP3   OH230565   1.719   6.124  17.273
 3025TIP3    H130566   1.674   6.057  17.324
 3025TIP3    H230567   1.806   6.129  17.313
 3026TIP3   OH230568   6.595   4.024   2.515
 3026TIP3    H130569   6.531   3.954   2.518
 3026TIP3    H230570   6.559   4.087   2.452
 3027TIP3   OH230571   2.604   0.459   5.002
 3027TIP3    H130572   2.694   0.491   4.995
 3027TIP3    H230573   2.609   0.367   4.976
 3028TIP3   OH230574   3.461   5.884  14.902
 3028TIP3    H130575   3.448   5.831  14.824
 3028TIP3    H230576   3.479   5.972  14.869
 3029TIP3   OH230577   3.092   3.901   6.152
 3029TIP3    H130578   3.028   3.971   6.146
 3029TIP3    H230579   3.147   3.925   6.227
 3030TIP3   OH230580   1.383   5.450   4.959
 3030TIP3    H130581   1.293   5.418   4.956
 3030TIP3    H230582   1.414   5.429   5.047
 3031TIP3   OH230583   2.106   4.548   0.821
 3031TIP3    H130584   2.074   4.593   0.900
 3031TIP3    H230585   2.197   4.576   0.814
 3032TIP3   OH230586   6.284   5.268  11.580
 3032TIP3    H130587   6.319   5.333  11.640
 3032TIP3    H230588   6.360   5.214  11.557
 3033TIP3   OH230589   0.690   2.003  12.910
 3033TIP3    H130590   0.619   1.947  12.881
 3033TIP3    H230591   0.735   2.029  12.830
 3034TIP3   OH230592   0.846   5.608   2.345
 3034TIP3    H130593   0.844   5.642   2.255
 3034TIP3    H230594   0.755   5.584   2.363
 3035TIP3   OH230595   6.513   6.818  12.494
 3035TIP3    H130596   6.521   6.778  12.407
 3035TIP3    H230597   6.502   6.744  12.554
 3036TIP3   OH230598   3.929   2.919  15.144
 3036TIP3    H130599   3.854   2.917  15.204
 3036TIP3    H230600   3.902   2.864  15.071
 3037TIP3   OH230601   5.425   4.847  16.360
 3037TIP3    H130602   5.346   4.901  16.346
 3037TIP3    H230603   5.433   4.797  16.279
 3038TIP3   OH230604   6.460   4.300  12.236
 3038TIP3    H130605   6.506   4.217  12.253
 3038TIP3    H230606   6.412   4.284  12.155
 3039TIP3   OH230607   2.524   3.515  13.493
 3039TIP3    H130608   2.489   3.541  13.408
 3039TIP3    H230609   2.521   3.419  13.492
 3040TIP3   OH230610   0.907   4.894   6.584
 3040TIP3    H130611   0.895   4.799   6.586
 3040TIP3    H230612   0.831   4.929   6.631
 3041TIP3   OH230613   6.634   6.399  12.596
 3041TIP3    H130614   6.677   6.373  12.515
 3041TIP3    H230615   6.540   6.385  12.579
 3042TIP3   OH230616   5.178   2.147  12.740
 3042TIP3    H130617   5.249   2.204  12.768
 3042TIP3    H230618   5.155   2.178  12.653
 3043TIP3   OH230619   5.249   5.867  16.947
 3043TIP3    H130620   5.258   5.961  16.931
 3043TIP3    H230621   5.328   5.829  16.909
 3044TIP3   OH230622   3.327   6.321   1.872
 3044TIP3    H130623   3.259   6.331   1.939
 3044TIP3    H230624   3.401   6.373   1.904
 3045TIP3   OH230625   2.271   1.301  15.221
 3045TIP3    H130626   2.252   1.293  15.315
 3045TIP3    H230627   2.341   1.237  15.206
 3046TIP3   OH230628   3.267   3.820  12.993
 3046TIP3    H130629   3.273   3.875  12.915
 3046TIP3    H230630   3.337   3.756  12.983
 3047TIP3   OH230631   2.267   0.878  12.113
 3047TIP3    H130632   2.360   0.892  12.094
 3047TIP3    H230633   2.266   0.809  12.180
 3048TIP3   OH230634   3.325   4.928  14.862
 3048TIP3    H130635   3.287   4.903  14.778
 3048TIP3    H230636   3.397   4.866  14.875
 3049TIP3   OH230637   4.486   5.159  13.811
 3049TIP3    H130638   4.521   5.222  13.873
 3049TIP3    H230639   4.426   5.209  13.755
 3050TIP3   OH230640   2.671   5.525  13.347
 3050TIP3    H130641   2.610   5.593  13.318
 3050TIP3    H230642   2.620   5.472  13.408
 3051TIP3   OH230643   5.922   1.316  15.083
 3051TIP3    H130644   5.886   1.393  15.039
 3051TIP3    H230645   6.014   1.315  15.059
 3052TIP3   OH230646   6.234   2.060  15.386
 3052TIP3    H130647   6.184   1.981  15.365
 3052TIP3    H230648   6.195   2.129  15.332
 3053TIP3   OH230649   4.423   1.879   3.098
 3053TIP3    H130650   4.508   1.853   3.132
 3053TIP3    H230651   4.421   1.974   3.107
 3054TIP3   OH230652   2.372   6.248   4.041
 3054TIP3    H130653   2.427   6.199   3.980
 3054TIP3    H230654   2.429   6.264   4.117
 3055TIP3   OH230655   0.926   0.539   0.871
 3055TIP3    H130656   0.905   0.511   0.960
 3055TIP3    H230657   1.021   0.548   0.871
 3056TIP3   OH230658   6.788   3.732  13.632
 3056TIP3    H130659   6.753   3.644  13.629
 3056TIP3    H230660   6.805   3.749  13.724
 3057TIP3   OH230661   1.525   0.052   5.483
 3057TIP3    H130662   1.567   0.097   5.556
 3057TIP3    H230663   1.587   0.062   5.410
 3058TIP3   OH230664   1.538   3.513   1.390
 3058TIP3    H130665   1.545   3.596   1.438
 3058TIP3    H230666   1.485   3.534   1.313
 3059TIP3   OH230667   0.047   0.097   3.352
 3059TIP3    H130668  -0.016   0.057   3.293
 3059TIP3    H230669  -0.003   0.160   3.403
 3060TIP3   OH230670   4.689   0.886  12.030
 3060TIP3    H130671   4.688   0.847  11.942
 3060TIP3    H230672   4.601   0.870  12.064
 3061TIP3   OH230673   1.476   6.714   2.268
 3061TIP3    H130674   1.527   6.764   2.204
 3061TIP3    H230675   1.509   6.625   2.259
 3062TIP3   OH230676   3.542   6.753   6.450
 3062TIP3    H130677   3.496   6.817   6.504
 3062TIP3    H230678   3.607   6.714   6.508
 3063TIP3   OH230679   0.696   3.945   4.633
 3063TIP3    H130680   0.692   4.040   4.638
 3063TIP3    H230681   0.719   3.917   4.721
 3064TIP3   OH230682   5.691   1.552   0.910
 3064TIP3    H130683   5.597   1.560   0.929
 3064TIP3    H230684   5.734   1.598   0.981
 3065TIP3   OH230685   0.169   3.463  15.802
 3065TIP3    H130686   0.143   3.474  15.711
 3065TIP3    H230687   0.125   3.383  15.831
 3066TIP3   OH230688   3.632   4.842  13.113
 3066TIP3    H130689   3.590   4.774  13.166
 3066TIP3    H230690   3.726   4.828  13.127
 3067TIP3   OH230691   1.556   3.420   6.224
 3067TIP3    H130692   1.476   3.367   6.221
 3067TIP3    H230693   1.526   3.507   6.249
 3068TIP3   OH230694   4.618   3.993  13.184
 3068TIP3    H130695   4.573   4.013  13.102
 3068TIP3    H230696   4.650   4.077  13.215
 3069TIP3   OH230697   3.556   0.970   5.969
 3069TIP3    H130698   3.478   0.995   6.020
 3069TIP3    H230699   3.580   1.050   5.922
 3070TIP3   OH230700   3.431   1.653   1.598
 3070TIP3    H130701   3.416   1.699   1.516
 3070TIP3    H230702   3.441   1.561   1.572
 3071TIP3   OH230703   1.823   6.308  13.095
 3071TIP3    H130704   1.862   6.381  13.143
 3071TIP3    H230705   1.737   6.295  13.136
 3072TIP3   OH230706   5.550   6.409   1.550
 3072TIP3    H130707   5.601   6.378   1.625
 3072TIP3    H230708   5.564   6.504   1.550
 3073TIP3   OH230709   3.935   6.338   6.255
 3073TIP3    H130710   3.930   6.263   6.314
 3073TIP3    H230711   3.968   6.301   6.173
 3074TIP3   OH230712   0.066   3.022  16.163
 3074TIP3    H130713   0.141   3.055  16.214
 3074TIP3    H230714   0.099   3.015  16.074
 3075TIP3   OH230715   5.924   4.710  17.027
 3075TIP3    H130716   5.868   4.787  17.029
 3075TIP3    H230717   5.967   4.710  17.113
 3076TIP3   OH230718   6.548   0.743  17.217
 3076TIP3    H130719   6.515   0.698  17.295
 3076TIP3    H230720   6.470   0.766  17.167
 3077TIP3   OH230721   0.504   0.921   0.175
 3077TIP3    H130722   0.524   0.867   0.098
 3077TIP3    H230723   0.434   0.873   0.220
 3078TIP3   OH230724   4.980   3.352  11.743
 3078TIP3    H130725   5.071   3.337  11.767
 3078TIP3    H230726   4.985   3.411  11.667
 3079TIP3   OH230727   4.320   0.832   2.584
 3079TIP3    H130728   4.362   0.916   2.564
 3079TIP3    H230729   4.361   0.803   2.665
 3080TIP3   OH230730   1.769   0.723   4.917
 3080TIP3    H130731   1.751   0.813   4.887
 3080TIP3    H230732   1.824   0.686   4.849
 3081TIP3   OH230733   4.028   0.574  15.590
 3081TIP3    H130734   4.038   0.663  15.558
 3081TIP3    H230735   4.095   0.564  15.657
 3082TIP3   OH230736   5.724   0.899   3.589
 3082TIP3    H130737   5.706   0.828   3.527
 3082TIP3    H230738   5.692   0.978   3.544
 3083TIP3   OH230739   0.640   2.070  16.769
 3083TIP3    H130740   0.671   1.989  16.809
 3083TIP3    H230741   0.719   2.109  16.729
 3084TIP3   OH230742   4.459   6.405  11.890
 3084TIP3    H130743   4.488   6.469  11.825
 3084TIP3    H230744   4.435   6.458  11.966
 3085TIP3   OH230745   1.712   4.494   1.306
 3085TIP3    H130746   1.701   4.575   1.356
 3085TIP3    H230747   1.805   4.493   1.281
 3086TIP3   OH230748   1.977   6.782  14.799
 3086TIP3    H130749   2.029   6.806  14.722
 3086TIP3    H230750   2.040   6.738  14.857
 3087TIP3   OH230751   3.324   0.133   0.710
 3087TIP3    H130752   3.364   0.056   0.670
 3087TIP3    H230753   3.230   0.114   0.710
 3088TIP3   OH230754   4.846   3.571   0.911
 3088TIP3    H130755   4.798   3.522   0.844
 3088TIP3    H230756   4.937   3.543   0.900
 3089TIP3   OH230757   6.031   6.518  15.681
 3089TIP3    H130758   5.949   6.539  15.637
 3089TIP3    H230759   6.062   6.438  15.638
 3090TIP3   OH230760   1.259   5.448   3.052
 3090TIP3    H130761   1.354   5.437   3.061
 3090TIP3    H230762   1.238   5.520   3.111
 3091TIP3   OH230763   1.956   4.655   0.486
 3091TIP3    H130764   1.915   4.581   0.531
 3091TIP3    H230765   1.931   4.732   0.537
 3092TIP3   OH230766   4.011   2.815   2.470
 3092TIP3    H130767   4.058   2.732   2.458
 3092TIP3    H230768   3.986   2.815   2.563
 3093TIP3   OH230769   0.788   2.725   5.156
 3093TIP3    H130770   0.854   2.666   5.191
 3093TIP3    H230771   0.808   2.731   5.063
 3094TIP3   OH230772   5.446   0.175   3.146
 3094TIP3    H130773   5.411   0.260   3.120
 3094TIP3    H230774   5.370   0.126   3.177
 3095TIP3   OH230775   6.598   3.486   3.562
 3095TIP3    H130776   6.670   3.423   3.561
 3095TIP3    H230777   6.641   3.572   3.561
 3096TIP3   OH230778   3.119   2.855   4.152
 3096TIP3    H130779   3.066   2.908   4.211
 3096TIP3    H230780   3.071   2.856   4.069
 3097TIP3   OH230781   2.816   1.029  12.044
 3097TIP3    H130782   2.896   1.074  12.070
 3097TIP3    H230783   2.846   0.956  11.990
 3098TIP3   OH230784   6.512   1.974  16.730
 3098TIP3    H130785   6.548   2.018  16.653
 3098TIP3    H230786   6.447   1.913  16.696
 3099TIP3   OH230787   3.584   5.820  13.556
 3099TIP3    H130788   3.527   5.891  13.583
 3099TIP3    H230789   3.642   5.806  13.632
 3100TIP3   OH230790   4.035   2.762  13.369
 3100TIP3    H130791   3.950   2.759  13.324
 3100TIP3    H230792   4.024   2.703  13.443
 3101TIP3   OH230793   5.227   5.783   5.396
 3101TIP3    H130794   5.297   5.827   5.445
 3101TIP3    H230795   5.213   5.838   5.320
 3102TIP3   OH230796   6.470   2.804  14.910
 3102TIP3    H130797   6.397   2.751  14.943
 3102TIP3    H230798   6.523   2.822  14.988
 3103TIP3   OH230799   0.235   5.589  11.288
 3103TIP3    H130800   0.196   5.518  11.340
 3103TIP3    H230801   0.233   5.556  11.198
 3104TIP3   OH230802   0.414   0.232   1.263
 3104TIP3    H130803   0.418   0.306   1.202
 3104TIP3    H230804   0.504   0.220   1.292
 3105TIP3   OH230805   5.266   0.876   5.880
 3105TIP3    H130806   5.305   0.847   5.797
 3105TIP3    H230807   5.318   0.834   5.948
 3106TIP3   OH230808   3.901   2.740  12.432
 3106TIP3    H130809   3.952   2.702  12.361
 3106TIP3    H230810   3.864   2.665  12.479
 3107TIP3   OH230811   0.546   5.223  14.059
 3107TIP3    H130812   0.547   5.194  14.150
 3107TIP3    H230813   0.533   5.317  14.064
 3108TIP3   OH230814   1.646   6.663   0.716
 3108TIP3    H130815   1.738   6.689   0.719
 3108TIP3    H230816   1.600   6.740   0.683
 3109TIP3   OH230817   3.864   5.746   2.823
 3109TIP3    H130818   3.852   5.802   2.746
 3109TIP3    H230819   3.781   5.699   2.832
 3110TIP3   OH230820   3.517   6.777   2.675
 3110TIP3    H130821   3.531   6.838   2.748
 3110TIP3    H230822   3.602   6.772   2.631
 3111TIP3   OH230823   3.609   2.661   0.878
 3111TIP3    H130824   3.691   2.616   0.861
 3111TIP3    H230825   3.551   2.633   0.807
 3112TIP3   OH230826   5.958   1.194  11.371
 3112TIP3    H130827   5.866   1.179  11.348
 3112TIP3    H230828   6.007   1.158  11.297
 3113TIP3   OH230829   4.938   2.823  15.263
 3113TIP3    H130830   4.871   2.843  15.196
 3113TIP3    H230831   4.992   2.756  15.222
 3114TIP3   OH230832   4.834   6.072  14.396
 3114TIP3    H130833   4.852   6.115  14.313
 3114TIP3    H230834   4.899   6.108  14.456
 3115TIP3   OH230835   5.778   5.762  15.833
 3115TIP3    H130836   5.862   5.756  15.788
 3115TIP3    H230837   5.741   5.674  15.826
 3116TIP3   OH230838   1.988   5.597   4.503
 3116TIP3    H130839   1.935   5.551   4.437
 3116TIP3    H230840   1.987   5.688   4.474
 3117TIP3   OH230841   4.707   6.685   2.614
 3117TIP3    H130842   4.728   6.593   2.629
 3117TIP3    H230843   4.627   6.700   2.664
 3118TIP3   OH230844   0.203   1.001  15.493
 3118TIP3    H130845   0.295   1.018  15.515
 3118TIP3    H230846   0.154   1.025  15.571
 3119TIP3   OH230847   2.430   4.297   2.105
 3119TIP3    H130848   2.463   4.298   2.195
 3119TIP3    H230849   2.340   4.264   2.112
 3120TIP3   OH230850   6.667   4.148   6.518
 3120TIP3    H130851   6.624   4.233   6.508
 3120TIP3    H230852   6.602   4.085   6.488
 3121TIP3   OH230853   6.540   3.888   1.895
 3121TIP3    H130854   6.603   3.819   1.877
 3121TIP3    H230855   6.469   3.844   1.943
 3122TIP3   OH230856   5.992   1.019   4.092
 3122TIP3    H130857   6.052   0.964   4.043
 3122TIP3    H230858   6.048   1.080   4.140
 3123TIP3   OH230859   4.238   1.564   2.659
 3123TIP3    H130860   4.227   1.547   2.753
 3123TIP3    H230861   4.155   1.604   2.633
 3124TIP3   OH230862   0.751   1.417   0.931
 3124TIP3    H130863   0.720   1.401   1.021
 3124TIP3    H230864   0.794   1.502   0.935
 3125TIP3   OH230865   3.540   1.917   0.242
 3125TIP3    H130866   3.592   1.838   0.248
 3125TIP3    H230867   3.449   1.887   0.236
 3126TIP3   OH230868   4.286   4.463  11.359
 3126TIP3    H130869   4.202   4.417  11.350
 3126TIP3    H230870   4.342   4.423  11.292
 3127TIP3   OH230871   2.693   4.973   3.408
 3127TIP3    H130872   2.610   5.017   3.386
 3127TIP3    H230873   2.678   4.935   3.494
 3128TIP3   OH230874   4.305   5.538   6.362
 3128TIP3    H130875   4.395   5.534   6.397
 3128TIP3    H230876   4.261   5.603   6.418
 3129TIP3   OH230877   4.772   1.043   1.629
 3129TIP3    H130878   4.798   0.967   1.680
 3129TIP3    H230879   4.685   1.021   1.594
 3130TIP3   OH230880   0.254   0.263  14.408
 3130TIP3    H130881   0.187   0.332  14.419
 3130TIP3    H230882   0.318   0.282  14.477
 3131TIP3   OH230883   4.769   2.175  15.198
 3131TIP3    H130884   4.710   2.250  15.210
 3131TIP3    H230885   4.711   2.102  15.179
 3132TIP3   OH230886   2.543   0.146   4.154
 3132TIP3    H130887   2.544   0.107   4.241
 3132TIP3    H230888   2.548   0.071   4.094
 3133TIP3   OH230889   2.176   0.003   0.766
 3133TIP3    H130890   2.232   0.005   0.844
 3133TIP3    H230891   2.188   0.089   0.726
 3134TIP3   OH230892   2.249   5.098   0.039
 3134TIP3    H130893   2.177   5.148   0.077
 3134TIP3    H230894   2.220   5.080  -0.051
 3135TIP3   OH230895   3.868   1.616   3.850
 3135TIP3    H130896   3.935   1.556   3.881
 3135TIP3    H230897   3.788   1.588   3.894
 3136TIP3   OH230898   4.431   0.815   0.192
 3136TIP3    H130899   4.337   0.809   0.204
 3136TIP3    H230900   4.464   0.850   0.275
 3137TIP3   OH230901   1.903   2.250   2.146
 3137TIP3    H130902   1.933   2.217   2.062
 3137TIP3    H230903   1.938   2.339   2.151
 3138TIP3   OH230904   5.138   6.077  16.457
 3138TIP3    H130905   5.213   6.022  16.434
 3138TIP3    H230906   5.108   6.114  16.374
 3139TIP3   OH230907   2.959   5.844  17.096
 3139TIP3    H130908   2.873   5.831  17.055
 3139TIP3    H230909   3.011   5.889  17.029
 3140TIP3   OH230910   3.570   1.738  14.691
 3140TIP3    H130911   3.655   1.705  14.660
 3140TIP3    H230912   3.565   1.827  14.655
 3141TIP3   OH230913   5.738   3.053  13.488
 3141TIP3    H130914   5.815   3.075  13.436
 3141TIP3    H230915   5.718   2.962  13.466
 3142TIP3   OH230916   6.265   2.432  12.341
 3142TIP3    H130917   6.195   2.437  12.276
 3142TIP3    H230918   6.328   2.499  12.314
 3143TIP3   OH230919   6.441   3.336  17.187
 3143TIP3    H130920   6.392   3.413  17.215
 3143TIP3    H230921   6.385   3.262  17.209
 3144TIP3   OH230922   2.579   4.634   2.199
 3144TIP3    H130923   2.559   4.557   2.252
 3144TIP3    H230924   2.674   4.642   2.203
 3145TIP3   OH230925   4.456   5.132   3.675
 3145TIP3    H130926   4.497   5.089   3.599
 3145TIP3    H230927   4.368   5.154   3.644
 3146TIP3   OH230928   1.508   3.850   3.695
 3146TIP3    H130929   1.493   3.944   3.693
 3146TIP3    H230930   1.513   3.828   3.788
 3147TIP3   OH230931   5.035   4.742   3.197
 3147TIP3    H130932   4.941   4.725   3.190
 3147TIP3    H230933   5.069   4.669   3.248
 3148TIP3   OH230934   3.290   3.076  17.082
 3148TIP3    H130935   3.280   3.048  17.173
 3148TIP3    H230936   3.201   3.078  17.047
 3149TIP3   OH230937   0.187   2.128   1.796
 3149TIP3    H130938   0.160   2.205   1.746
 3149TIP3    H230939   0.187   2.157   1.887
 3150TIP3   OH230940   2.235   2.985  15.465
 3150TIP3    H130941   2.278   2.900  15.454
 3150TIP3    H230942   2.307   3.047  15.471
 3151TIP3   OH230943   6.667   0.682   3.623
 3151TIP3    H130944   6.661   0.587   3.608
 3151TIP3    H230945   6.759   0.703   3.607
 3152TIP3   OH230946   2.149   2.952   3.670
 3152TIP3    H130947   2.148   3.035   3.718
 3152TIP3    H230948   2.077   2.959   3.608
 3153TIP3   OH230949   2.118   0.722  11.879
 3153TIP3    H130950   2.188   0.762  11.932
 3153TIP3    H230951   2.163   0.656  11.826
 3154TIP3   OH230952   0.639   4.684   2.963
 3154TIP3    H130953   0.684   4.608   2.925
 3154TIP3    H230954   0.625   4.660   3.054
 3155TIP3   OH230955   0.975   2.568   5.278
 3155TIP3    H130956   1.035   2.510   5.232
 3155TIP3    H230957   0.964   2.529   5.364
 3156TIP3   OH230958   4.637   1.377  15.913
 3156TIP3    H130959   4.615   1.406  16.002
 3156TIP3    H230960   4.669   1.288  15.925
 3157TIP3   OH230961   6.366   2.870   5.383
 3157TIP3    H130962   6.360   2.792   5.328
 3157TIP3    H230963   6.287   2.920   5.363
 3158TIP3   OH230964   6.494   5.652  11.664
 3158TIP3    H130965   6.440   5.644  11.586
 3158TIP3    H230966   6.481   5.743  11.693
 3159TIP3   OH230967   4.301   6.029  13.634
 3159TIP3    H130968   4.261   6.030  13.547
 3159TIP3    H230969   4.284   6.117  13.669
 3160TIP3   OH230970   4.575   3.056   0.257
 3160TIP3    H130971   4.549   3.104   0.178
 3160TIP3    H230972   4.663   3.088   0.276
 3161TIP3   OH230973   5.425   2.487   2.676
 3161TIP3    H130974   5.388   2.437   2.749
 3161TIP3    H230975   5.350   2.506   2.620
 3162TIP3   OH230976   4.073   1.781   4.177
 3162TIP3    H130977   4.152   1.828   4.152
 3162TIP3    H230978   4.030   1.760   4.094
 3163TIP3   OH230979   3.069   2.603  12.571
 3163TIP3    H130980   3.057   2.686  12.617
 3163TIP3    H230981   2.984   2.586  12.530
 3164TIP3   OH230982   4.989   1.127   0.618
 3164TIP3    H130983   5.051   1.188   0.657
 3164TIP3    H230984   5.043   1.053   0.590
 3165TIP3   OH230985   3.942   3.559  15.142
 3165TIP3    H130986   4.025   3.549  15.097
 3165TIP3    H230987   3.933   3.478  15.194
 3166TIP3   OH230988   3.894   0.804   0.297
 3166TIP3    H130989   3.851   0.744   0.238
 3166TIP3    H230990   3.847   0.887   0.287
 3167TIP3   OH230991   2.893   5.675   1.245
 3167TIP3    H130992   2.810   5.628   1.243
 3167TIP3    H230993   2.906   5.698   1.337
 3168TIP3   OH230994   1.984   3.222  13.496
 3168TIP3    H130995   1.925   3.152  13.523
 3168TIP3    H230996   1.932   3.302  13.500
 3169TIP3   OH230997   2.342   1.375  11.784
 3169TIP3    H130998   2.330   1.286  11.753
 3169TIP3    H230999   2.435   1.381  11.806
 3170TIP3   OH231000   2.051   6.271   2.444
 3170TIP3    H131001   2.059   6.355   2.489
 3170TIP3    H231002   1.992   6.220   2.498
 3171TIP3   OH231003   4.440   2.146  17.068
 3171TIP3    H131004   4.456   2.229  17.022
 3171TIP3    H231005   4.527   2.109  17.081
 3172TIP3   OH231006   5.710   1.687   6.458
 3172TIP3    H131007   5.643   1.702   6.525
 3172TIP3    H231008   5.752   1.772   6.446
 3173TIP3   OH231009   1.431   1.884   2.324
 3173TIP3    H131010   1.455   1.826   2.253
 3173TIP3    H231011   1.395   1.826   2.391
 3174TIP3   OH231012   5.034   0.673  12.776
 3174TIP3    H131013   5.081   0.734  12.832
 3174TIP3    H231014   5.083   0.672  12.694
 3175TIP3   OH231015   6.746   4.881  14.405
 3175TIP3    H131016   6.805   4.885  14.481
 3175TIP3    H231017   6.689   4.806  14.424
 3176TIP3   OH231018   2.582   6.351   5.234
 3176TIP3    H131019   2.521   6.277   5.240
 3176TIP3    H231020   2.664   6.317   5.268
 3177TIP3   OH231021   3.993   3.913   4.830
 3177TIP3    H131022   4.040   3.932   4.911
 3177TIP3    H231023   3.905   3.949   4.844
 3178TIP3   OH231024   6.693   6.011  16.405
 3178TIP3    H131025   6.747   5.947  16.358
 3178TIP3    H231026   6.610   6.013  16.357
 3179TIP3   OH231027   2.936   2.890  13.073
 3179TIP3    H131028   2.854   2.842  13.062
 3179TIP3    H231029   2.926   2.968  13.018
 3180TIP3   OH231030   3.960   1.431   5.748
 3180TIP3    H131031   3.942   1.415   5.655
 3180TIP3    H231032   3.966   1.343   5.786
 3181TIP3   OH231033   3.637   0.658  12.613
 3181TIP3    H131034   3.696   0.723  12.576
 3181TIP3    H231035   3.680   0.629  12.693
 3182TIP3   OH231036   2.608   2.775  12.607
 3182TIP3    H131037   2.646   2.689  12.586
 3182TIP3    H231038   2.514   2.763  12.598
 3183TIP3   OH231039   0.626   5.252  12.960
 3183TIP3    H131040   0.654   5.210  13.042
 3183TIP3    H231041   0.577   5.183  12.914
 3184TIP3   OH231042   2.264   2.210  15.451
 3184TIP3    H131043   2.200   2.156  15.404
 3184TIP3    H231044   2.279   2.284  15.393
 3185TIP3   OH231045   1.304   0.991   0.204
 3185TIP3    H131046   1.379   1.044   0.179
 3185TIP3    H231047   1.232   1.023   0.149
 3186TIP3   OH231048   0.156   2.459   4.413
 3186TIP3    H131049   0.210   2.465   4.334
 3186TIP3    H231050   0.141   2.550   4.438
 3187TIP3   OH231051   1.187   1.925  16.226
 3187TIP3    H131052   1.181   1.909  16.321
 3187TIP3    H231053   1.199   2.020  16.219
 3188TIP3   OH231054   4.417   0.283   2.588
 3188TIP3    H131055   4.449   0.284   2.678
 3188TIP3    H231056   4.420   0.191   2.562
 3189TIP3   OH231057   4.295   0.534  15.700
 3189TIP3    H131058   4.286   0.570  15.789
 3189TIP3    H231059   4.322   0.444  15.713
 3190TIP3   OH231060   4.733   6.194   3.286
 3190TIP3    H131061   4.701   6.109   3.316
 3190TIP3    H231062   4.777   6.232   3.362
 3191TIP3   OH231063   6.719   0.231   2.190
 3191TIP3    H131064   6.779   0.221   2.116
 3191TIP3    H231065   6.632   0.230   2.151
 3192TIP3   OH231066   3.558   3.949   1.937
 3192TIP3    H131067   3.502   3.960   2.014
 3192TIP3    H231068   3.630   3.894   1.967
 3193TIP3   OH231069   4.401   4.405  10.838
 3193TIP3    H131070   4.398   4.501  10.840
 3193TIP3    H231071   4.398   4.383  10.745
 3194TIP3   OH231072   2.570   0.431   4.019
 3194TIP3    H131073   2.551   0.353   4.071
 3194TIP3    H231074   2.630   0.400   3.951
 3195TIP3   OH231075   1.801   5.175   0.774
 3195TIP3    H131076   1.830   5.162   0.864
 3195TIP3    H231077   1.779   5.268   0.768
 3196TIP3   OH231078   0.459   0.374  13.248
 3196TIP3    H131079   0.433   0.406  13.334
 3196TIP3    H231080   0.443   0.447  13.189
 3197TIP3   OH231081   0.543   0.575  17.093
 3197TIP3    H131082   0.488   0.498  17.108
 3197TIP3    H231083   0.599   0.551  17.019
 3198TIP3   OH231084   1.556   5.366   2.950
 3198TIP3    H131085   1.559   5.457   2.978
 3198TIP3    H231086   1.550   5.370   2.854
 3199TIP3   OH231087   2.466   5.081  16.575
 3199TIP3    H131088   2.556   5.103  16.601
 3199TIP3    H231089   2.439   5.154  16.520
 3200TIP3   OH231090   3.950   4.800   0.398
 3200TIP3    H131091   3.925   4.754   0.318
 3200TIP3    H231092   3.887   4.871   0.405
 3201TIP3   OH231093   0.173   3.124  14.342
 3201TIP3    H131094   0.149   3.051  14.285
 3201TIP3    H231095   0.144   3.097  14.429
 3202TIP3   OH231096   1.050   3.138  13.086
 3202TIP3    H131097   1.062   3.190  13.006
 3202TIP3    H231098   1.069   3.200  13.157
 3203TIP3   OH231099   3.406   6.567  12.957
 3203TIP3    H131100   3.430   6.549  12.866
 3203TIP3    H231101   3.326   6.618  12.951
 3204TIP3   OH231102   0.544   2.497  15.951
 3204TIP3    H131103   0.507   2.520  15.865
 3204TIP3    H231104   0.632   2.465  15.931
 3205TIP3   OH231105   5.986   5.304  15.683
 3205TIP3    H131106   5.985   5.219  15.727
 3205TIP3    H231107   6.054   5.354  15.728
 3206TIP3   OH231108   3.916   5.712  16.330
 3206TIP3    H131109   3.903   5.632  16.382
 3206TIP3    H231110   3.860   5.777  16.372
 3207TIP3   OH231111   5.506   2.225  17.143
 3207TIP3    H131112   5.491   2.146  17.196
 3207TIP3    H231113   5.568   2.276  17.194
 3208TIP3   OH231114   1.544   5.312   4.767
 3208TIP3    H131115   1.546   5.345   4.677
 3208TIP3    H231116   1.458   5.338   4.800
 3209TIP3   OH231117   2.646   4.937  15.263
 3209TIP3    H131118   2.617   4.986  15.186
 3209TIP3    H231119   2.566   4.899  15.299
 3210TIP3   OH231120   0.973   0.807   4.859
 3210TIP3    H131121   1.008   0.896   4.866
 3210TIP3    H231122   1.014   0.759   4.931
 3211TIP3   OH231123   2.120   5.785   4.277
 3211TIP3    H131124   2.094   5.859   4.222
 3211TIP3    H231125   2.038   5.738   4.293
 3212TIP3   OH231126   4.015   4.201   4.693
 3212TIP3    H131127   3.932   4.154   4.693
 3212TIP3    H231128   4.027   4.230   4.783
 3213TIP3   OH231129   5.084   6.200   5.309
 3213TIP3    H131130   5.038   6.265   5.256
 3213TIP3    H231131   5.016   6.162   5.365
 3214TIP3   OH231132   1.949   1.752   3.352
 3214TIP3    H131133   1.995   1.669   3.343
 3214TIP3    H231134   1.978   1.786   3.437
 3215TIP3   OH231135   5.049   2.888   0.707
 3215TIP3    H131136   5.130   2.849   0.673
 3215TIP3    H231137   5.034   2.843   0.790
 3216TIP3   OH231138   6.434   4.068  13.652
 3216TIP3    H131139   6.406   4.034  13.737
 3216TIP3    H231140   6.528   4.082  13.661
 3217TIP3   OH231141   4.597   3.992  16.504
 3217TIP3    H131142   4.643   4.025  16.427
 3217TIP3    H231143   4.594   3.897  16.491
 3218TIP3   OH231144   1.769   2.365  11.948
 3218TIP3    H131145   1.768   2.417  11.868
 3218TIP3    H231146   1.833   2.296  11.931
 3219TIP3   OH231147   4.986   2.515  14.063
 3219TIP3    H131148   4.909   2.562  14.029
 3219TIP3    H231149   5.061   2.562  14.025
 3220TIP3   OH231150   1.313   1.520  15.841
 3220TIP3    H131151   1.238   1.578  15.831
 3220TIP3    H231152   1.275   1.433  15.850
 3221TIP3   OH231153   1.376   6.291  13.950
 3221TIP3    H131154   1.373   6.371  13.898
 3221TIP3    H231155   1.351   6.221  13.889
 3222TIP3   OH231156   5.040   5.724  10.934
 3222TIP3    H131157   5.081   5.684  10.856
 3222TIP3    H231158   4.975   5.784  10.898
 3223TIP3   OH231159   2.345   2.141   4.962
 3223TIP3    H131160   2.271   2.081   4.962
 3223TIP3    H231161   2.388   2.126   5.046
 3224TIP3   OH231162   4.089   2.891  13.821
 3224TIP3    H131163   4.054   2.974  13.788
 3224TIP3    H231164   4.174   2.882  13.778
 3225TIP3   OH231165   6.054   3.592  11.371
 3225TIP3    H131166   6.111   3.617  11.298
 3225TIP3    H231167   6.061   3.665  11.432
 3226TIP3   OH231168   2.026   2.788   1.417
 3226TIP3    H131169   1.991   2.757   1.334
 3226TIP3    H231170   2.016   2.714   1.477
 3227TIP3   OH231171   4.741   1.738   6.193
 3227TIP3    H131172   4.818   1.751   6.250
 3227TIP3    H231173   4.674   1.795   6.231
 3228TIP3   OH231174   3.805   4.303  14.684
 3228TIP3    H131175   3.783   4.359  14.610
 3228TIP3    H231176   3.814   4.215  14.647
 3229TIP3   OH231177   4.833   6.413   2.727
 3229TIP3    H131178   4.781   6.333   2.740
 3229TIP3    H231179   4.899   6.387   2.663
 3230TIP3   OH231180   5.617   0.184  11.892
 3230TIP3    H131181   5.686   0.247  11.912
 3230TIP3    H231182   5.538   0.238  11.881
 3231TIP3   OH231183   6.130   5.071   1.815
 3231TIP3    H131184   6.114   5.121   1.895
 3231TIP3    H231185   6.166   4.988   1.845
 3232TIP3   OH231186   1.932   1.313   1.836
 3232TIP3    H131187   2.025   1.320   1.856
 3232TIP3    H231188   1.894   1.395   1.866
 3233TIP3   OH231189   5.027   0.312   5.714
 3233TIP3    H131190   5.003   0.221   5.733
 3233TIP3    H231191   4.946   0.351   5.680
 3234TIP3   OH231192   4.480   4.030  11.404
 3234TIP3    H131193   4.542   4.003  11.471
 3234TIP3    H231194   4.532   4.081  11.342
 3235TIP3   OH231195   4.700   0.978   6.185
 3235TIP3    H131196   4.662   0.968   6.272
 3235TIP3    H231197   4.787   0.938   6.192
 3236TIP3   OH231198   1.686   2.034   4.986
 3236TIP3    H131199   1.651   2.112   4.944
 3236TIP3    H231200   1.612   1.997   5.035
 3237TIP3   OH231201   4.653   2.669  16.802
 3237TIP3    H131202   4.631   2.615  16.726
 3237TIP3    H231203   4.706   2.612  16.856
 3238TIP3   OH231204   6.154   5.635   2.506
 3238TIP3    H131205   6.215   5.583   2.559
 3238TIP3    H231206   6.084   5.575   2.483
 3239TIP3   OH231207   1.162   5.427   2.792
 3239TIP3    H131208   1.109   5.347   2.792
 3239TIP3    H231209   1.206   5.427   2.876
 3240TIP3   OH231210   4.027   3.501  14.869
 3240TIP3    H131211   3.946   3.451  14.877
 3240TIP3    H231212   4.084   3.465  14.936
 3241TIP3   OH231213   6.557   6.488   4.047
 3241TIP3    H131214   6.612   6.412   4.063
 3241TIP3    H231215   6.560   6.501   3.953
 3242TIP3   OH231216   4.265   0.871   4.281
 3242TIP3    H131217   4.224   0.950   4.245
 3242TIP3    H231218   4.307   0.900   4.362
 3243TIP3   OH231219   5.795   3.339  11.213
 3243TIP3    H131220   5.853   3.291  11.271
 3243TIP3    H231221   5.853   3.375  11.145
 3244TIP3   OH231222   1.979   6.354  10.725
 3244TIP3    H131223   1.982   6.449  10.740
 3244TIP3    H231224   1.900   6.326  10.771
 3245TIP3   OH231225   6.464   0.040   5.243
 3245TIP3    H131226   6.387   0.063   5.295
 3245TIP3    H231227   6.456   0.092   5.163
 3246TIP3   OH231228   4.822   6.195  11.220
 3246TIP3    H131229   4.778   6.163  11.299
 3246TIP3    H231230   4.752   6.201  11.155
 3247TIP3   OH231231   3.670   1.515   1.898
 3247TIP3    H131232   3.683   1.420   1.892
 3247TIP3    H231233   3.615   1.527   1.975
 3248TIP3   OH231234   0.626   3.845  11.587
 3248TIP3    H131235   0.691   3.854  11.658
 3248TIP3    H231236   0.546   3.883  11.623
 3249TIP3   OH231237   1.285   0.953  13.336
 3249TIP3    H131238   1.256   0.927  13.249
 3249TIP3    H231239   1.235   1.032  13.356
 3250TIP3   OH231240   0.333   4.484  11.947
 3250TIP3    H131241   0.371   4.400  11.922
 3250TIP3    H231242   0.244   4.482  11.910
 3251TIP3   OH231243   1.304   6.215   4.913
 3251TIP3    H131244   1.297   6.240   4.821
 3251TIP3    H231245   1.267   6.289   4.961
 3252TIP3   OH231246   5.983   6.716  12.472
 3252TIP3    H131247   6.009   6.752  12.557
 3252TIP3    H231248   6.061   6.723  12.418
 3253TIP3   OH231249   1.777   4.577   1.002
 3253TIP3    H131250   1.706   4.513   1.007
 3253TIP3    H231251   1.847   4.538   1.054
 3254TIP3   OH231252   0.139   6.307  13.396
 3254TIP3    H131253   0.087   6.236  13.434
 3254TIP3    H231254   0.076   6.375  13.374
 3255TIP3   OH231255   2.596   0.708   1.149
 3255TIP3    H131256   2.686   0.678   1.162
 3255TIP3    H231257   2.586   0.712   1.054
 3256TIP3   OH231258   2.700   5.999  15.501
 3256TIP3    H131259   2.744   6.083  15.496
 3256TIP3    H231260   2.607   6.019  15.493
 3257TIP3   OH231261   1.675   0.760   0.168
 3257TIP3    H131262   1.750   0.795   0.121
 3257TIP3    H231263   1.660   0.674   0.128
 3258TIP3   OH231264   0.683   2.914   4.801
 3258TIP3    H131265   0.661   2.957   4.719
 3258TIP3    H231266   0.618   2.844   4.809
 3259TIP3   OH231267   5.794   2.401   2.980
 3259TIP3    H131268   5.762   2.386   2.891
 3259TIP3    H231269   5.807   2.313   3.016
 3260TIP3   OH231270   0.126   3.999  14.113
 3260TIP3    H131271   0.039   4.039  14.123
 3260TIP3    H231272   0.126   3.925  14.173
 3261TIP3   OH231273   0.918   5.246  16.560
 3261TIP3    H131274   1.006   5.239  16.525
 3261TIP3    H231275   0.862   5.258  16.483
 3262TIP3   OH231276   0.377   2.006  16.708
 3262TIP3    H131277   0.327   2.083  16.683
 3262TIP3    H231278   0.469   2.033  16.699
 3263TIP3   OH231279   3.679   2.617   3.896
 3263TIP3    H131280   3.715   2.568   3.969
 3263TIP3    H231281   3.689   2.709   3.921
 3264TIP3   OH231282   5.861   4.693  12.955
 3264TIP3    H131283   5.912   4.617  12.927
 3264TIP3    H231284   5.904   4.767  12.912
 3265TIP3   OH231285   1.724   3.634  11.164
 3265TIP3    H131286   1.738   3.547  11.202
 3265TIP3    H231287   1.732   3.621  11.070
 3266TIP3   OH231288   0.422   4.737   2.687
 3266TIP3    H131289   0.514   4.728   2.661
 3266TIP3    H231290   0.424   4.799   2.760
 3267TIP3   OH231291   6.001   0.356  13.166
 3267TIP3    H131292   6.032   0.418  13.101
 3267TIP3    H231293   5.923   0.396  13.204
 3268TIP3   OH231294   2.059   3.721   4.751
 3268TIP3    H131295   1.994   3.716   4.821
 3268TIP3    H231296   2.127   3.779   4.785
 3269TIP3   OH231297   6.071   3.841   3.372
 3269TIP3    H131298   6.133   3.913   3.378
 3269TIP3    H231299   6.024   3.857   3.290
 3270TIP3   OH231300   3.485   1.704  13.894
 3270TIP3    H131301   3.467   1.626  13.841
 3270TIP3    H231302   3.509   1.668  13.980
 3271TIP3   OH231303   6.033   4.338  11.069
 3271TIP3    H131304   6.116   4.382  11.088
 3271TIP3    H231305   5.969   4.382  11.125
 3272TIP3   OH231306   6.728   0.075   2.811
 3272TIP3    H131307   6.714   0.092   2.718
 3272TIP3    H231308   6.713  -0.019   2.821
 3273TIP3   OH231309   1.703   2.589   5.556
 3273TIP3    H131310   1.665   2.584   5.643
 3273TIP3    H231311   1.751   2.507   5.546
 3274TIP3   OH231312   0.497   3.130   1.932
 3274TIP3    H131313   0.484   3.136   1.837
 3274TIP3    H231314   0.574   3.074   1.943
 3275TIP3   OH231315   4.681   4.228  17.256
 3275TIP3    H131316   4.711   4.140  17.236
 3275TIP3    H231317   4.729   4.284  17.196
 3276TIP3   OH231318   5.843   3.853  12.978
 3276TIP3    H131319   5.854   3.924  12.915
 3276TIP3    H231320   5.923   3.801  12.970
 3277TIP3   OH231321   2.920   3.346   5.932
 3277TIP3    H131322   2.968   3.293   5.996
 3277TIP3    H231323   2.855   3.393   5.984
 3278TIP3   OH231324   6.144   6.385  11.956
 3278TIP3    H131325   6.135   6.470  11.912
 3278TIP3    H231326   6.100   6.323  11.898
 3279TIP3   OH231327   1.913   1.083   6.408
 3279TIP3    H131328   1.999   1.089   6.449
 3279TIP3    H231329   1.864   1.157   6.445
 3280TIP3   OH231330   6.654   1.713  14.448
 3280TIP3    H131331   6.649   1.723  14.543
 3280TIP3    H231332   6.738   1.752  14.424
 3281TIP3   OH231333   6.045   2.317   3.372
 3281TIP3    H131334   6.070   2.393   3.424
 3281TIP3    H231335   5.949   2.319   3.371
 3282TIP3   OH231336   5.374   2.805   4.728
 3282TIP3    H131337   5.370   2.767   4.815
 3282TIP3    H231338   5.335   2.892   4.737
 3283TIP3   OH231339   5.054   3.263  10.709
 3283TIP3    H131340   5.043   3.179  10.663
 3283TIP3    H231341   5.111   3.314  10.651
 3284TIP3   OH231342   3.127   2.230  15.569
 3284TIP3    H131343   3.062   2.250  15.637
 3284TIP3    H231344   3.127   2.307  15.512
 3285TIP3   OH231345   4.897   6.419  15.456
 3285TIP3    H131346   4.821   6.476  15.467
 3285TIP3    H231347   4.965   6.477  15.422
 3286TIP3   OH231348   6.360   6.716  16.904
 3286TIP3    H131349   6.324   6.770  16.833
 3286TIP3    H231350   6.287   6.704  16.965
 3287TIP3   OH231351   4.484   5.136  14.144
 3287TIP3    H131352   4.403   5.104  14.103
 3287TIP3    H231353   4.545   5.062  14.138
 3288TIP3   OH231354   4.292   4.573  17.157
 3288TIP3    H131355   4.279   4.483  17.129
 3288TIP3    H231356   4.203   4.609  17.164
 3289TIP3   OH231357   2.135   4.972  10.355
 3289TIP3    H131358   2.117   4.892  10.307
 3289TIP3    H231359   2.224   4.960  10.389
 3290TIP3   OH231360   2.741   2.519  11.457
 3290TIP3    H131361   2.770   2.486  11.542
 3290TIP3    H231362   2.776   2.608  11.453
 3291TIP3   OH231363   6.451   3.493   4.447
 3291TIP3    H131364   6.436   3.520   4.356
 3291TIP3    H231365   6.433   3.571   4.498
 3292TIP3   OH231366   5.751   3.772   1.468
 3292TIP3    H131367   5.731   3.818   1.549
 3292TIP3    H231368   5.689   3.699   1.466
 3293TIP3   OH231369   2.583   6.521  12.508
 3293TIP3    H131370   2.565   6.607  12.545
 3293TIP3    H231371   2.574   6.461  12.583
 3294TIP3   OH231372   2.400   3.215   5.146
 3294TIP3    H131373   2.338   3.226   5.074
 3294TIP3    H231374   2.465   3.153   5.112
 3295TIP3   OH231375   4.830   2.781  13.010
 3295TIP3    H131376   4.891   2.722  13.053
 3295TIP3    H231377   4.764   2.723  12.970
 3296TIP3   OH231378   4.208   4.683  16.574
 3296TIP3    H131379   4.288   4.672  16.523
 3296TIP3    H231380   4.138   4.656  16.515
 3297TIP3   OH231381   3.884   1.557   5.969
 3297TIP3    H131382   3.896   1.504   5.891
 3297TIP3    H231383   3.946   1.520   6.033
 3298TIP3   OH231384   5.069   3.916   1.726
 3298TIP3    H131385   5.142   3.874   1.771
 3298TIP3    H231386   5.094   3.915   1.634
 3299TIP3   OH231387   0.416   4.130   4.566
 3299TIP3    H131388   0.386   4.043   4.592
 3299TIP3    H231389   0.436   4.174   4.649
 3300TIP3   OH231390   0.779   0.186  16.755
 3300TIP3    H131391   0.844   0.229  16.811
 3300TIP3    H231392   0.739   0.120  16.812
 3301TIP3   OH231393   0.939   2.525   4.034
 3301TIP3    H131394   0.891   2.607   4.034
 3301TIP3    H231395   0.941   2.498   4.126
 3302TIP3   OH231396   0.884   1.838   6.803
 3302TIP3    H131397   0.904   1.814   6.893
 3302TIP3    H231398   0.904   1.760   6.752
 3303TIP3   OH231399   2.470   0.296  14.636
 3303TIP3    H131400   2.418   0.250  14.570
 3303TIP3    H231401   2.477   0.385  14.603
 3304TIP3   OH231402   1.388   3.280   3.446
 3304TIP3    H131403   1.446   3.271   3.371
 3304TIP3    H231404   1.434   3.238   3.518
 3305TIP3   OH231405   4.607   3.593   0.489
 3305TIP3    H131406   4.621   3.615   0.396
 3305TIP3    H231407   4.623   3.675   0.535
 3306TIP3   OH231408   1.814   3.567  12.379
 3306TIP3    H131409   1.908   3.547  12.381
 3306TIP3    H231410   1.791   3.565  12.286
 3307TIP3   OH231411   0.986   6.708   0.522
 3307TIP3    H131412   1.017   6.626   0.484
 3307TIP3    H231413   1.056   6.771   0.502
 3308TIP3   OH231414   1.333   1.260  17.156
 3308TIP3    H131415   1.275   1.290  17.086
 3308TIP3    H231416   1.360   1.172  17.129
 3309TIP3   OH231417   0.367   0.107  16.084
 3309TIP3    H131418   0.411   0.040  16.032
 3309TIP3    H231419   0.434   0.139  16.144
 3310TIP3   OH231420   0.991   3.945   3.655
 3310TIP3    H131421   0.912   3.951   3.600
 3310TIP3    H231422   1.024   4.035   3.659
 3311TIP3   OH231423   3.753   6.350  12.284
 3311TIP3    H131424   3.696   6.412  12.331
 3311TIP3    H231425   3.696   6.277  12.263
 3312TIP3   OH231426   2.712   0.725  10.603
 3312TIP3    H131427   2.677   0.760  10.684
 3312TIP3    H231428   2.637   0.684  10.560
 3313TIP3   OH231429   5.472   0.976   4.468
 3313TIP3    H131430   5.410   1.044   4.493
 3313TIP3    H231431   5.438   0.943   4.384
 3314TIP3   OH231432   1.936   5.687   5.721
 3314TIP3    H131433   1.879   5.727   5.787
 3314TIP3    H231434   1.876   5.638   5.665
 3315TIP3   OH231435   3.458   5.474  14.786
 3315TIP3    H131436   3.423   5.555  14.748
 3315TIP3    H231437   3.438   5.406  14.722
 3316TIP3   OH231438   2.170   5.361  14.427
 3316TIP3    H131439   2.153   5.417  14.503
 3316TIP3    H231440   2.086   5.320  14.408
 3317TIP3   OH231441   3.086   6.677   5.456
 3317TIP3    H131442   3.114   6.753   5.506
 3317TIP3    H231443   3.146   6.674   5.381
 3318TIP3   OH231444   5.464   1.172  12.389
 3318TIP3    H131445   5.409   1.123  12.328
 3318TIP3    H231446   5.553   1.162  12.355
 3319TIP3   OH231447   6.221   6.454  16.373
 3319TIP3    H131448   6.144   6.401  16.357
 3319TIP3    H231449   6.194   6.517  16.440
 3320TIP3   OH231450   2.187   2.478  16.824
 3320TIP3    H131451   2.126   2.422  16.776
 3320TIP3    H231452   2.178   2.452  16.915
 3321TIP3   OH231453   3.083   3.077   3.342
 3321TIP3    H131454   3.124   3.150   3.296
 3321TIP3    H231455   3.007   3.054   3.288
 3322TIP3   OH231456   2.318   0.921   4.378
 3322TIP3    H131457   2.290   0.829   4.382
 3322TIP3    H231458   2.322   0.941   4.285
 3323TIP3   OH231459   5.795   6.409  13.074
 3323TIP3    H131460   5.770   6.329  13.028
 3323TIP3    H231461   5.831   6.379  13.157
 3324TIP3   OH231462   6.265   5.761   0.407
 3324TIP3    H131463   6.313   5.831   0.363
 3324TIP3    H231464   6.329   5.690   0.415
 3325TIP3   OH231465   0.330   5.502  12.086
 3325TIP3    H131466   0.408   5.536  12.130
 3325TIP3    H231467   0.307   5.423  12.136
 3326TIP3   OH231468   5.209   1.115  14.423
 3326TIP3    H131469   5.262   1.171  14.480
 3326TIP3    H231470   5.274   1.067  14.371
 3327TIP3   OH231471   4.417   1.271   5.890
 3327TIP3    H131472   4.360   1.333   5.844
 3327TIP3    H231473   4.360   1.232   5.957
 3328TIP3   OH231474   4.248   4.934  17.216
 3328TIP3    H131475   4.174   4.985  17.183
 3328TIP3    H231476   4.290   4.899  17.137
 3329TIP3   OH231477   3.488   1.196   1.011
 3329TIP3    H131478   3.454   1.109   1.030
 3329TIP3    H231479   3.431   1.255   1.060
 3330TIP3   OH231480   2.078   6.642   1.252
 3330TIP3    H131481   2.013   6.608   1.314
 3330TIP3    H231482   2.152   6.668   1.307
 3331TIP3   OH231483   3.657   5.366  14.526
 3331TIP3    H131484   3.679   5.281  14.565
 3331TIP3    H231485   3.580   5.349  14.472
 3332TIP3   OH231486   6.138   5.490  15.225
 3332TIP3    H131487   6.197   5.487  15.150
 3332TIP3    H231488   6.110   5.582  15.230
 3333TIP3   OH231489   3.644   6.803  10.562
 3333TIP3    H131490   3.595   6.860  10.502
 3333TIP3    H231491   3.625   6.714  10.531
 3334TIP3   OH231492   1.673   2.897  12.990
 3334TIP3    H131493   1.745   2.861  13.043
 3334TIP3    H231494   1.623   2.951  13.052
 3335TIP3   OH231495   3.095   0.585  16.368
 3335TIP3    H131496   3.025   0.649  16.355
 3335TIP3    H231497   3.049   0.502  16.380
 3336TIP3   OH231498   0.745   3.748  12.184
 3336TIP3    H131499   0.829   3.794  12.171
 3336TIP3    H231500   0.679   3.814  12.166
 3337TIP3   OH231501   6.123   5.626   6.616
 3337TIP3    H131502   6.139   5.541   6.576
 3337TIP3    H231503   6.055   5.666   6.562
 3338TIP3   OH231504   5.722   5.113   3.510
 3338TIP3    H131505   5.670   5.169   3.567
 3338TIP3    H231506   5.811   5.118   3.545
 3339TIP3   OH231507   6.318   4.313   2.275
 3339TIP3    H131508   6.249   4.379   2.276
 3339TIP3    H231509   6.274   4.233   2.245
 3340TIP3   OH231510   3.899   0.514  13.784
 3340TIP3    H131511   3.818   0.467  13.803
 3340TIP3    H231512   3.894   0.534  13.691
 3341TIP3   OH231513   6.069   0.196  10.720
 3341TIP3    H131514   6.041   0.257  10.789
 3341TIP3    H231515   5.992   0.183  10.666
 3342TIP3   OH231516   3.353   1.492  15.430
 3342TIP3    H131517   3.401   1.575  15.436
 3342TIP3    H231518   3.370   1.461  15.341
 3343TIP3   OH231519   0.129   5.923  13.863
 3343TIP3    H131520   0.136   5.837  13.822
 3343TIP3    H231521   0.196   5.976  13.819
 3344TIP3   OH231522   0.760   2.790  15.230
 3344TIP3    H131523   0.782   2.699  15.248
 3344TIP3    H231524   0.839   2.827  15.190
 3345TIP3   OH231525   0.386   3.959   2.497
 3345TIP3    H131526   0.449   3.988   2.562
 3345TIP3    H231527   0.352   4.040   2.458
 3346TIP3   OH231528   3.015   1.828  14.439
 3346TIP3    H131529   2.987   1.760  14.378
 3346TIP3    H231530   3.064   1.781  14.506
 3347TIP3   OH231531   6.559   1.499  12.612
 3347TIP3    H131532   6.524   1.495  12.702
 3347TIP3    H231533   6.504   1.438  12.563
 3348TIP3   OH231534   2.430   5.866  11.674
 3348TIP3    H131535   2.493   5.809  11.716
 3348TIP3    H231536   2.353   5.811  11.660
 3349TIP3   OH231537   1.758   6.026   3.674
 3349TIP3    H131538   1.762   5.930   3.678
 3349TIP3    H231539   1.665   6.046   3.666
 3350TIP3   OH231540   1.017   6.631  15.049
 3350TIP3    H131541   1.047   6.585  14.970
 3350TIP3    H231542   1.086   6.695  15.066
 3351TIP3   OH231543   4.366   1.746   5.989
 3351TIP3    H131544   4.407   1.830   6.009
 3351TIP3    H231545   4.347   1.750   5.895
 3352TIP3   OH231546   0.310   3.596   0.315
 3352TIP3    H131547   0.215   3.581   0.319
 3352TIP3    H231548   0.338   3.594   0.406
 3353TIP3   OH231549   3.844   1.102   5.466
 3353TIP3    H131550   3.875   1.012   5.475
 3353TIP3    H231551   3.765   1.095   5.413
 3354TIP3   OH231552   6.150   3.532   4.462
 3354TIP3    H131553   6.097   3.591   4.408
 3354TIP3    H231554   6.195   3.475   4.400
 3355TIP3   OH231555   1.143   3.638  13.125
 3355TIP3    H131556   1.057   3.669  13.153
 3355TIP3    H231557   1.142   3.545  13.144
 3356TIP3   OH231558   6.028   6.604  13.859
 3356TIP3    H131559   6.086   6.638  13.926
 3356TIP3    H231560   5.973   6.540  13.905
 3357TIP3   OH231561   0.952   3.938   6.693
 3357TIP3    H131562   0.939   4.016   6.638
 3357TIP3    H231563   1.047   3.927   6.696
 3358TIP3   OH231564   2.195   2.415  17.109
 3358TIP3    H131565   2.119   2.423  17.168
 3358TIP3    H231566   2.231   2.328  17.128
 3359TIP3   OH231567   2.569   5.499  11.590
 3359TIP3    H131568   2.539   5.587  11.612
 3359TIP3    H231569   2.522   5.478  11.509
 3360TIP3   OH231570   3.736   0.960   4.627
 3360TIP3    H131571   3.736   0.873   4.667
 3360TIP3    H231572   3.657   1.002   4.660
 3361TIP3   OH231573   3.236   0.569   1.908
 3361TIP3    H131574   3.174   0.551   1.979
 3361TIP3    H231575   3.319   0.534   1.939
 3362TIP3   OH231576   4.016   3.987   6.438
 3362TIP3    H131577   4.015   3.992   6.342
 3362TIP3    H231578   4.096   3.938   6.459
 3363TIP3   OH231579   6.091   3.045  17.000
 3363TIP3    H131580   6.164   3.065  17.059
 3363TIP3    H231581   6.084   2.950  17.003
 3364TIP3   OH231582   1.143   4.036   5.656
 3364TIP3    H131583   1.183   4.103   5.601
 3364TIP3    H231584   1.198   4.033   5.734
 3365TIP3   OH231585   4.142   0.910  13.156
 3365TIP3    H131586   4.117   0.995  13.120
 3365TIP3    H231587   4.237   0.907  13.147
 3366TIP3   OH231588   4.324   6.085  14.426
 3366TIP3    H131589   4.247   6.131  14.460
 3366TIP3    H231590   4.358   6.036  14.501
 3367TIP3   OH231591   0.315   0.787   0.313
 3367TIP3    H131592   0.219   0.782   0.311
 3367TIP3    H231593   0.343   0.698   0.331
 3368TIP3   OH231594   1.187   0.303   3.382
 3368TIP3    H131595   1.261   0.362   3.396
 3368TIP3    H231596   1.200   0.268   3.294
 3369TIP3   OH231597   1.847   5.807  11.228
 3369TIP3    H131598   1.768   5.797  11.282
 3369TIP3    H231599   1.913   5.843  11.287
 3370TIP3   OH231600   5.472   2.365   6.024
 3370TIP3    H131601   5.416   2.295   6.056
 3370TIP3    H231602   5.538   2.376   6.092
 3371TIP3   OH231603   2.868   0.111  14.546
 3371TIP3    H131604   2.902   0.079  14.629
 3371TIP3    H231605   2.946   0.133  14.495
 3372TIP3   OH231606   1.913   4.557   5.467
 3372TIP3    H131607   1.991   4.516   5.431
 3372TIP3    H231608   1.940   4.647   5.489
 3373TIP3   OH231609   1.321   6.687   3.114
 3373TIP3    H131610   1.340   6.646   3.198
 3373TIP3    H231611   1.228   6.673   3.100
 3374TIP3   OH231612   5.134   3.643  15.895
 3374TIP3    H131613   5.129   3.654  15.800
 3374TIP3    H231614   5.216   3.684  15.920
 3375TIP3   OH231615   5.012   0.798  15.685
 3375TIP3    H131616   4.930   0.788  15.637
 3375TIP3    H231617   4.988   0.781  15.777
 3376TIP3   OH231618   2.793   1.479  11.509
 3376TIP3    H131619   2.855   1.461  11.579
 3376TIP3    H231620   2.847   1.497  11.432
 3377TIP3   OH231621   1.795   4.708  11.147
 3377TIP3    H131622   1.870   4.721  11.089
 3377TIP3    H231623   1.741   4.643  11.102
 3378TIP3   OH231624   4.800   1.949  11.163
 3378TIP3    H131625   4.745   1.984  11.233
 3378TIP3    H231626   4.739   1.924  11.094
 3379TIP3   OH231627   2.731   1.969  14.472
 3379TIP3    H131628   2.744   1.877  14.453
 3379TIP3    H231629   2.665   1.971  14.541
 3380TIP3   OH231630   6.553   5.578  12.335
 3380TIP3    H131631   6.562   5.589  12.429
 3380TIP3    H231632   6.536   5.484  12.323
 3381TIP3   OH231633   4.935   2.291   4.412
 3381TIP3    H131634   4.994   2.219   4.391
 3381TIP3    H231635   4.992   2.366   4.430
 3382TIP3   OH231636   3.893   0.479  11.656
 3382TIP3    H131637   3.852   0.393  11.669
 3382TIP3    H231638   3.885   0.495  11.562
 3383TIP3   OH231639   1.113   4.814  10.890
 3383TIP3    H131640   1.112   4.876  10.963
 3383TIP3    H231641   1.135   4.868  10.814
 3384TIP3   OH231642   1.446   0.699  11.305
 3384TIP3    H131643   1.426   0.654  11.223
 3384TIP3    H231644   1.537   0.727  11.295
 3385TIP3   OH231645   3.089   1.539   6.049
 3385TIP3    H131646   2.997   1.517   6.033
 3385TIP3    H231647   3.115   1.480   6.120
 3386TIP3   OH231648   1.522   2.677   4.070
 3386TIP3    H131649   1.554   2.748   4.015
 3386TIP3    H231650   1.428   2.692   4.077
 3387TIP3   OH231651   3.776   0.664   1.636
 3387TIP3    H131652   3.758   0.572   1.655
 3387TIP3    H231653   3.778   0.706   1.722
 3388TIP3   OH231654   4.180   0.777   3.935
 3388TIP3    H131655   4.091   0.799   3.909
 3388TIP3    H231656   4.228   0.767   3.853
 3389TIP3   OH231657   1.099   4.953  13.390
 3389TIP3    H131658   1.013   4.930  13.425
 3389TIP3    H231659   1.118   4.884  13.326
 3390TIP3   OH231660   0.912   2.067  16.387
 3390TIP3    H131661   1.005   2.044  16.387
 3390TIP3    H231662   0.871   1.999  16.332
 3391TIP3   OH231663   4.205   5.601  11.711
 3391TIP3    H131664   4.204   5.653  11.792
 3391TIP3    H231665   4.288   5.555  11.713
 3392TIP3   OH231666   5.259   5.965   3.784
 3392TIP3    H131667   5.242   5.981   3.877
 3392TIP3    H231668   5.256   6.053   3.744
 3393TIP3   OH231669   5.042   6.629   0.024
 3393TIP3    H131670   5.057   6.539   0.055
 3393TIP3    H231671   4.974   6.663   0.082
 3394TIP3   OH231672   5.813   0.456   6.239
 3394TIP3    H131673   5.822   0.393   6.311
 3394TIP3    H231674   5.883   0.433   6.178
 3395TIP3   OH231675   5.250   1.059   2.364
 3395TIP3    H131676   5.273   1.152   2.364
 3395TIP3    H231677   5.300   1.022   2.291
 3396TIP3   OH231678   6.765   3.927  12.045
 3396TIP3    H131679   6.744   3.986  11.972
 3396TIP3    H231680   6.722   3.845  12.022
 3397TIP3   OH231681   6.134   0.756   0.934
 3397TIP3    H131682   6.117   0.808   1.013
 3397TIP3    H231683   6.047   0.739   0.898
 3398TIP3   OH231684   1.762   1.798  16.811
 3398TIP3    H131685   1.681   1.835  16.848
 3398TIP3    H231686   1.767   1.710  16.847
 3399TIP3   OH231687   5.962   2.448  16.646
 3399TIP3    H131688   5.871   2.424  16.628
 3399TIP3    H231689   5.964   2.543  16.633
 3400TIP3   OH231690   4.777   0.522  13.573
 3400TIP3    H131691   4.872   0.531  13.579
 3400TIP3    H231692   4.755   0.456  13.640
 3401TIP3   OH231693   2.148   0.448  16.417
 3401TIP3    H131694   2.241   0.467  16.425
 3401TIP3    H231695   2.105   0.533  16.432
 3402TIP3   OH231696   3.549   6.019  14.463
 3402TIP3    H131697   3.563   5.927  14.439
 3402TIP3    H231698   3.617   6.039  14.527
 3403TIP3   OH231699   1.600   6.283  16.909
 3403TIP3    H131700   1.527   6.294  16.970
 3403TIP3    H231701   1.563   6.303  16.823
 3404TIP3   OH231702   5.073   0.672  11.437
 3404TIP3    H131703   5.081   0.710  11.524
 3404TIP3    H231704   5.107   0.583  11.447
 3405TIP3   OH231705   1.028   3.788   2.341
 3405TIP3    H131706   1.102   3.841   2.313
 3405TIP3    H231707   1.025   3.800   2.436
 3406TIP3   OH231708   1.575   6.066  12.458
 3406TIP3    H131709   1.537   6.024  12.535
 3406TIP3    H231710   1.621   5.996  12.413
 3407TIP3   OH231711   0.810   4.629  11.565
 3407TIP3    H131712   0.850   4.607  11.481
 3407TIP3    H231713   0.795   4.544  11.607
 3408TIP3   OH231714   6.115   1.047   6.555
 3408TIP3    H131715   6.151   1.126   6.515
 3408TIP3    H231716   6.152   0.975   6.504
 3409TIP3   OH231717   1.207   6.605   1.183
 3409TIP3    H131718   1.282   6.546   1.184
 3409TIP3    H231719   1.155   6.580   1.259
 3410TIP3   OH231720   2.315   0.379   2.427
 3410TIP3    H131721   2.399   0.372   2.381
 3410TIP3    H231722   2.262   0.436   2.371
 3411TIP3   OH231723   2.906   1.657  13.745
 3411TIP3    H131724   2.991   1.627  13.712
 3411TIP3    H231725   2.900   1.748  13.718
 3412TIP3   OH231726   0.120   1.519   3.595
 3412TIP3    H131727   0.075   1.486   3.517
 3412TIP3    H231728   0.183   1.451   3.617
 3413TIP3   OH231729   2.962   1.718   3.181
 3413TIP3    H131730   2.907   1.790   3.148
 3413TIP3    H231731   3.047   1.733   3.142
 3414TIP3   OH231732   5.545   5.328   4.906
 3414TIP3    H131733   5.551   5.289   4.819
 3414TIP3    H231734   5.564   5.256   4.966
 3415TIP3   OH231735   3.359   1.806   1.356
 3415TIP3    H131736   3.273   1.821   1.315
 3415TIP3    H231737   3.415   1.874   1.320
 3416TIP3   OH231738   1.032   3.582   0.746
 3416TIP3    H131739   0.950   3.549   0.709
 3416TIP3    H231740   1.004   3.650   0.807
 3417TIP3   OH231741   0.227   5.913  12.060
 3417TIP3    H131742   0.194   5.854  12.128
 3417TIP3    H231743   0.153   5.970  12.040
 3418TIP3   OH231744   2.446   3.486   4.075
 3418TIP3    H131745   2.362   3.495   4.029
 3418TIP3    H231746   2.423   3.474   4.167
 3419TIP3   OH231747   1.069   1.824  16.005
 3419TIP3    H131748   1.100   1.849  16.092
 3419TIP3    H231749   1.114   1.883  15.945
 3420TIP3   OH231750   4.060   5.625   1.242
 3420TIP3    H131751   4.100   5.694   1.189
 3420TIP3    H231752   4.124   5.554   1.239
 3421TIP3   OH231753   6.387   2.931  15.661
 3421TIP3    H131754   6.403   2.986  15.737
 3421TIP3    H231755   6.378   2.993  15.588
 3422TIP3   OH231756   2.034   5.639  12.596
 3422TIP3    H131757   1.982   5.642  12.676
 3422TIP3    H231758   2.113   5.590  12.619
 3423TIP3   OH231759   6.755   4.675   1.154
 3423TIP3    H131760   6.808   4.688   1.075
 3423TIP3    H231761   6.666   4.661   1.122
 3424TIP3   OH231762   4.582   2.523   4.225
 3424TIP3    H131763   4.504   2.483   4.263
 3424TIP3    H231764   4.607   2.464   4.154
 3425TIP3   OH231765   4.957   3.057   2.523
 3425TIP3    H131766   4.896   3.131   2.526
 3425TIP3    H231767   4.980   3.048   2.431
 3426TIP3   OH231768   2.358   0.547  14.463
 3426TIP3    H131769   2.264   0.535  14.474
 3426TIP3    H231770   2.370   0.555  14.369
 3427TIP3   OH231771   5.877   1.048  15.411
 3427TIP3    H131772   5.871   1.142  15.391
 3427TIP3    H231773   5.920   1.045  15.496
 3428TIP3   OH231774   1.771   6.353  14.403
 3428TIP3    H131775   1.837   6.384  14.465
 3428TIP3    H231776   1.771   6.419  14.334
 3429TIP3   OH231777   2.523   6.482  13.348
 3429TIP3    H131778   2.594   6.546  13.349
 3429TIP3    H231779   2.567   6.397  13.347
 3430TIP3   OH231780   6.248   3.622   2.232
 3430TIP3    H131781   6.174   3.621   2.292
 3430TIP3    H231782   6.219   3.569   2.157
 3431TIP3   OH231783   2.988   3.688   1.859
 3431TIP3    H131784   2.961   3.760   1.802
 3431TIP3    H231785   2.943   3.706   1.942
 3432TIP3   OH231786   2.093   4.774   2.041
 3432TIP3    H131787   2.020   4.738   2.091
 3432TIP3    H231788   2.053   4.810   1.962
 3433TIP3   OH231789   3.134   6.637   3.495
 3433TIP3    H131790   3.090   6.694   3.431
 3433TIP3    H231791   3.075   6.561   3.503
 3434TIP3   OH231792   0.383   1.198   6.821
 3434TIP3    H131793   0.328   1.276   6.826
 3434TIP3    H231794   0.465   1.224   6.862
 3435TIP3   OH231795   6.447   6.291   4.640
 3435TIP3    H131796   6.375   6.354   4.642
 3435TIP3    H231797   6.508   6.321   4.707
 3436TIP3   OH231798   2.661   3.781  14.342
 3436TIP3    H131799   2.727   3.791  14.274
 3436TIP3    H231800   2.635   3.870  14.364
 3437TIP3   OH231801   3.382   6.093   4.994
 3437TIP3    H131802   3.417   6.120   4.909
 3437TIP3    H231803   3.310   6.155   5.012
 3438TIP3   OH231804   3.412   2.587   0.591
 3438TIP3    H131805   3.383   2.516   0.534
 3438TIP3    H231806   3.336   2.644   0.601
 3439TIP3   OH231807   3.152   1.759  13.416
 3439TIP3    H131808   3.216   1.827  13.394
 3439TIP3    H231809   3.108   1.791  13.494
 3440TIP3   OH231810   3.697   4.319   4.221
 3440TIP3    H131811   3.665   4.386   4.281
 3440TIP3    H231812   3.780   4.291   4.259
 3441TIP3   OH231813   2.851   2.706   0.071
 3441TIP3    H131814   2.790   2.739   0.005
 3441TIP3    H231815   2.926   2.675   0.020
 3442TIP3   OH231816   5.972   0.671   3.065
 3442TIP3    H131817   6.043   0.642   3.122
 3442TIP3    H231818   6.012   0.680   2.979
 3443TIP3   OH231819   0.966   5.510   0.726
 3443TIP3    H131820   0.975   5.558   0.643
 3443TIP3    H231821   1.056   5.492   0.753
 3444TIP3   OH231822   5.175   2.293  11.619
 3444TIP3    H131823   5.120   2.370  11.603
 3444TIP3    H231824   5.181   2.250  11.534
 3445TIP3   OH231825   4.269   2.066   2.334
 3445TIP3    H131826   4.194   2.119   2.307
 3445TIP3    H231827   4.246   1.977   2.307
 3446TIP3   OH231828   4.662   5.160  12.906
 3446TIP3    H131829   4.671   5.102  12.981
 3446TIP3    H231830   4.573   5.194  12.912
 3447TIP3   OH231831   1.519   3.601  17.259
 3447TIP3    H131832   1.569   3.637  17.332
 3447TIP3    H231833   1.441   3.564  17.300
 3448TIP3   OH231834   2.260   3.295  13.488
 3448TIP3    H131835   2.179   3.262  13.525
 3448TIP3    H231836   2.233   3.370  13.435
 3449TIP3   OH231837   0.592   4.566   4.184
 3449TIP3    H131838   0.576   4.472   4.172
 3449TIP3    H231839   0.647   4.571   4.261
 3450TIP3   OH231840   4.967   3.469   2.945
 3450TIP3    H131841   5.037   3.422   2.900
 3450TIP3    H231842   4.971   3.437   3.035
 3451TIP3   OH231843   2.467   6.634   4.664
 3451TIP3    H131844   2.498   6.721   4.688
 3451TIP3    H231845   2.506   6.576   4.729
 3452TIP3   OH231846   1.742   1.035   2.860
 3452TIP3    H131847   1.753   1.125   2.891
 3452TIP3    H231848   1.652   1.030   2.831
 3453TIP3   OH231849   2.361   5.177   1.389
 3453TIP3    H131850   2.424   5.114   1.422
 3453TIP3    H231851   2.405   5.219   1.315
 3454TIP3   OH231852   1.536   1.635  12.514
 3454TIP3    H131853   1.443   1.655  12.525
 3454TIP3    H231854   1.575   1.718  12.485
 3455TIP3   OH231855   4.219   4.612  13.743
 3455TIP3    H131856   4.222   4.683  13.808
 3455TIP3    H231857   4.133   4.572  13.756
 3456TIP3   OH231858   1.958   0.712   0.040
 3456TIP3    H131859   2.042   0.750   0.066
 3456TIP3    H231860   1.939   0.752  -0.045
 3457TIP3   OH231861   6.725   0.130   2.475
 3457TIP3    H131862   6.820   0.120   2.488
 3457TIP3    H231863   6.718   0.190   2.401
 3458TIP3   OH231864   6.627   1.977   3.281
 3458TIP3    H131865   6.663   1.996   3.368
 3458TIP3    H231866   6.699   1.934   3.234
 3459TIP3   OH231867   0.153   1.229  15.211
 3459TIP3    H131868   0.111   1.277  15.139
 3459TIP3    H231869   0.238   1.204  15.177
 3460TIP3   OH231870   6.424   6.630  10.789
 3460TIP3    H131871   6.416   6.714  10.742
 3460TIP3    H231872   6.338   6.589  10.778
 3461TIP3   OH231873   4.253   3.385  15.746
 3461TIP3    H131874   4.164   3.418  15.752
 3461TIP3    H231875   4.307   3.462  15.730
 3462TIP3   OH231876   1.766   3.051   4.193
 3462TIP3    H131877   1.768   2.992   4.117
 3462TIP3    H231878   1.850   3.036   4.237
 3463TIP3   OH231879   1.626   5.463  13.022
 3463TIP3    H131880   1.660   5.431  12.938
 3463TIP3    H231881   1.635   5.558  13.016
 3464TIP3   OH231882   3.140   6.196  14.811
 3464TIP3    H131883   3.225   6.207  14.854
 3464TIP3    H231884   3.085   6.265  14.849
 3465TIP3   OH231885   5.677   4.609   2.303
 3465TIP3    H131886   5.720   4.538   2.255
 3465TIP3    H231887   5.584   4.592   2.292
 3466TIP3   OH231888   4.241   3.104  15.819
 3466TIP3    H131889   4.253   3.195  15.793
 3466TIP3    H231890   4.268   3.053  15.743
 3467TIP3   OH231891   4.704   4.629  11.189
 3467TIP3    H131892   4.616   4.652  11.159
 3467TIP3    H231893   4.756   4.708  11.176
 3468TIP3   OH231894   0.812   0.636  14.914
 3468TIP3    H131895   0.766   0.708  14.957
 3468TIP3    H231896   0.866   0.678  14.848
 3469TIP3   OH231897   0.128   3.525   2.520
 3469TIP3    H131898   0.132   3.452   2.581
 3469TIP3    H231899   0.193   3.587   2.552
 3470TIP3   OH231900   0.348   0.913  14.266
 3470TIP3    H131901   0.295   0.925  14.345
 3470TIP3    H231902   0.285   0.889  14.198
 3471TIP3   OH231903   2.244   2.951  11.048
 3471TIP3    H131904   2.158   2.918  11.024
 3471TIP3    H231905   2.246   3.041  11.014
 3472TIP3   OH231906   0.231   1.580  11.555
 3472TIP3    H131907   0.137   1.591  11.538
 3472TIP3    H231908   0.266   1.668  11.555
 3473TIP3   OH231909   6.042   4.062  13.996
 3473TIP3    H131910   6.056   4.077  13.902
 3473TIP3    H231911   5.974   3.996  14.000
 3474TIP3   OH231912   5.940   0.200   1.762
 3474TIP3    H131913   5.866   0.140   1.751
 3474TIP3    H231914   5.900   0.286   1.772
 3475TIP3   OH231915   3.301   0.669  16.510
 3475TIP3    H131916   3.235   0.621  16.461
 3475TIP3    H231917   3.295   0.759  16.477
 3476TIP3   OH231918   0.349   3.248  12.730
 3476TIP3    H131919   0.381   3.230  12.642
 3476TIP3    H231920   0.367   3.168  12.779
 3477TIP3   OH231921   2.249   0.476  11.773
 3477TIP3    H131922   2.177   0.412  11.774
 3477TIP3    H231923   2.271   0.487  11.681
 3478TIP3   OH231924   0.708   3.058  16.170
 3478TIP3    H131925   0.791   3.103  16.157
 3478TIP3    H231926   0.694   3.058  16.265
 3479TIP3   OH231927   3.964   5.519   2.600
 3479TIP3    H131928   3.934   5.530   2.510
 3479TIP3    H231929   3.913   5.446   2.634
 3480TIP3   OH231930   0.345   3.307   0.855
 3480TIP3    H131931   0.346   3.332   0.763
 3480TIP3    H231932   0.282   3.366   0.897
 3481TIP3   OH231933   0.820   0.296  13.078
 3481TIP3    H131934   0.895   0.241  13.100
 3481TIP3    H231935   0.762   0.240  13.027
 3482TIP3   OH231936   5.157   5.243   4.187
 3482TIP3    H131937   5.244   5.222   4.154
 3482TIP3    H231938   5.108   5.161   4.178
 3483TIP3   OH231939   0.371   4.200   1.647
 3483TIP3    H131940   0.452   4.155   1.623
 3483TIP3    H231941   0.303   4.153   1.598
 3484TIP3   OH231942   6.692   5.573  13.066
 3484TIP3    H131943   6.705   5.517  12.990
 3484TIP3    H231944   6.687   5.512  13.140
 3485TIP3   OH231945   6.199   1.070   4.261
 3485TIP3    H131946   6.271   1.018   4.297
 3485TIP3    H231947   6.225   1.086   4.170
 3486TIP3   OH231948   1.314   5.004   3.049
 3486TIP3    H131949   1.400   5.035   3.076
 3486TIP3    H231950   1.316   5.006   2.953
 3487TIP3   OH231951   5.462   3.300   0.199
 3487TIP3    H131952   5.512   3.356   0.140
 3487TIP3    H231953   5.386   3.273   0.147
 3488TIP3   OH231954   2.945   6.068   1.244
 3488TIP3    H131955   2.868   6.080   1.189
 3488TIP3    H231956   3.002   6.141   1.221
 3489TIP3   OH231957   3.411   3.757   9.970
 3489TIP3    H131958   3.355   3.684   9.997
 3489TIP3    H231959   3.381   3.832  10.023
 3490TIP3   OH231960   4.462   4.062  13.771
 3490TIP3    H131961   4.407   4.030  13.842
 3490TIP3    H231962   4.523   3.990  13.754
 3491TIP3   OH231963   4.176   2.344  16.025
 3491TIP3    H131964   4.083   2.327  16.012
 3491TIP3    H231965   4.218   2.260  16.004
 3492TIP3   OH231966   4.704   5.399   0.440
 3492TIP3    H131967   4.663   5.391   0.354
 3492TIP3    H231968   4.695   5.492   0.462
 3493TIP3   OH231969   6.397   5.576   4.042
 3493TIP3    H131970   6.314   5.613   4.012
 3493TIP3    H231971   6.422   5.515   3.974
 3494TIP3   OH231972   6.356   4.820   5.819
 3494TIP3    H131973   6.370   4.913   5.835
 3494TIP3    H231974   6.401   4.776   5.892
 3495TIP3   OH231975   2.530   6.769   5.086
 3495TIP3    H131976   2.604   6.809   5.133
 3495TIP3    H231977   2.483   6.843   5.047
 3496TIP3   OH231978   1.469   1.523   0.245
 3496TIP3    H131979   1.402   1.457   0.263
 3496TIP3    H231980   1.518   1.530   0.327
 3497TIP3   OH231981   3.989   1.095  16.634
 3497TIP3    H131982   4.052   1.059  16.698
 3497TIP3    H231983   4.030   1.175  16.603
 3498TIP3   OH231984   5.991   2.333   4.084
 3498TIP3    H131985   6.051   2.376   4.022
 3498TIP3    H231986   6.028   2.246   4.097
 3499TIP3   OH231987   6.735   4.980   0.824
 3499TIP3    H131988   6.659   4.923   0.817
 3499TIP3    H231989   6.800   4.928   0.873
 3500TIP3   OH231990   6.361   4.342   4.387
 3500TIP3    H131991   6.320   4.277   4.444
 3500TIP3    H231992   6.291   4.369   4.328
 3501TIP3   OH231993   2.662   6.167  11.157
 3501TIP3    H131994   2.721   6.238  11.132
 3501TIP3    H231995   2.581   6.211  11.183
 3502TIP3   OH231996   0.233   2.489  15.507
 3502TIP3    H131997   0.262   2.578  15.529
 3502TIP3    H231998   0.145   2.501  15.472
 3503TIP3   OH231999   5.101   5.553  10.712
 3503TIP3    H132000   5.034   5.485  10.708
 3503TIP3    H232001   5.077   5.614  10.642
 3504TIP3   OH232002   0.916   3.728   5.918
 3504TIP3    H132003   0.839   3.759   5.966
 3504TIP3    H232004   0.962   3.670   5.980
 3505TIP3   OH232005   0.789   4.001   2.527
 3505TIP3    H132006   0.822   4.071   2.584
 3505TIP3    H232007   0.755   4.047   2.450
 3506TIP3   OH232008   3.920   4.883   4.933
 3506TIP3    H132009   3.902   4.902   4.841
 3506TIP3    H232010   3.833   4.878   4.974
 3507TIP3   OH232011   4.726   4.342   5.783
 3507TIP3    H132012   4.744   4.260   5.829
 3507TIP3    H232013   4.634   4.337   5.760
 3508TIP3   OH232014   6.408   2.868   6.265
 3508TIP3    H132015   6.345   2.937   6.241
 3508TIP3    H232016   6.410   2.869   6.360
 3509TIP3   OH232017   5.911   6.688   6.163
 3509TIP3    H132018   5.963   6.751   6.212
 3509TIP3    H232019   5.967   6.610   6.155
 3510TIP3   OH232020   3.854   6.027  12.870
 3510TIP3    H132021   3.906   6.017  12.791
 3510TIP3    H232022   3.822   5.938  12.889
 3511TIP3   OH232023   5.997   5.345   4.785
 3511TIP3    H132024   5.923   5.334   4.845
 3511TIP3    H232025   5.999   5.439   4.767
 3512TIP3   OH232026   5.982   1.320   4.502
 3512TIP3    H132027   5.940   1.385   4.445
 3512TIP3    H232028   5.910   1.271   4.540
 3513TIP3   OH232029   1.781   1.514  11.796
 3513TIP3    H132030   1.812   1.507  11.886
 3513TIP3    H232031   1.844   1.462  11.746
 3514TIP3   OH232032   4.730   2.322   0.822
 3514TIP3    H132033   4.763   2.234   0.802
 3514TIP3    H232034   4.809   2.375   0.834
 3515TIP3   OH232035   6.488   2.639  12.912
 3515TIP3    H132036   6.562   2.687  12.949
 3515TIP3    H232037   6.526   2.580  12.847
 3516TIP3   OH232038   5.577   4.408  15.321
 3516TIP3    H132039   5.623   4.482  15.280
 3516TIP3    H232040   5.647   4.350  15.349
 3517TIP3   OH232041   5.961   2.646   4.827
 3517TIP3    H132042   6.005   2.562   4.837
 3517TIP3    H232043   5.975   2.671   4.736
 3518TIP3   OH232044   0.636   4.646  14.105
 3518TIP3    H132045   0.561   4.587  14.098
 3518TIP3    H232046   0.598   4.733  14.114
 3519TIP3   OH232047   4.124   4.320  13.849
 3519TIP3    H132048   4.188   4.386  13.822
 3519TIP3    H232049   4.060   4.369  13.902
 3520TIP3   OH232050   1.035   6.601  11.469
 3520TIP3    H132051   1.107   6.649  11.428
 3520TIP3    H232052   0.979   6.574  11.396
 3521TIP3   OH232053   3.677   0.242   2.814
 3521TIP3    H132054   3.633   0.208   2.892
 3521TIP3    H232055   3.735   0.311   2.847
 3522TIP3   OH232056   5.447   5.777   3.672
 3522TIP3    H132057   5.400   5.834   3.733
 3522TIP3    H232058   5.536   5.773   3.705
 3523TIP3   OH232059   4.486   3.257  16.659
 3523TIP3    H132060   4.397   3.238  16.690
 3523TIP3    H232061   4.486   3.227  16.568
 3524TIP3   OH232062   6.028   5.384  13.196
 3524TIP3    H132063   5.963   5.314  13.204
 3524TIP3    H232064   6.022   5.413  13.105
 3525TIP3   OH232065   4.235   3.468  14.725
 3525TIP3    H132066   4.219   3.471  14.631
 3525TIP3    H232067   4.156   3.505  14.765
 3526TIP3   OH232068   2.745   1.993  11.355
 3526TIP3    H132069   2.805   1.962  11.288
 3526TIP3    H232070   2.658   1.975  11.320
 3527TIP3   OH232071   3.651   2.227  11.953
 3527TIP3    H132072   3.603   2.156  11.910
 3527TIP3    H232073   3.584   2.290  11.979
 3528TIP3   OH232074   2.843   1.044  12.570
 3528TIP3    H132075   2.813   0.957  12.597
 3528TIP3    H232076   2.850   1.038  12.475
 3529TIP3   OH232077   2.916   4.497  11.088
 3529TIP3    H132078   2.919   4.498  10.993
 3529TIP3    H232079   2.827   4.521  11.111
 3530TIP3   OH232080   0.370   2.849  13.587
 3530TIP3    H132081   0.456   2.808  13.591
 3530TIP3    H232082   0.328   2.812  13.510
 3531TIP3   OH232083   6.315   2.832   1.394
 3531TIP3    H132084   6.335   2.833   1.487
 3531TIP3    H232085   6.353   2.914   1.361
 3532TIP3   OH232086   0.690   4.599   1.950
 3532TIP3    H132087   0.640   4.650   2.013
 3532TIP3    H232088   0.626   4.571   1.885
 3533TIP3   OH232089   2.245   4.558  10.470
 3533TIP3    H132090   2.187   4.484  10.485
 3533TIP3    H232091   2.255   4.599  10.556
 3534TIP3   OH232092   4.145   5.521   2.212
 3534TIP3    H132093   4.114   5.464   2.141
 3534TIP3    H232094   4.195   5.464   2.269
 3535TIP3   OH232095   6.282   0.418   6.670
 3535TIP3    H132096   6.276   0.376   6.584
 3535TIP3    H232097   6.247   0.506   6.656
 3536TIP3   OH232098   5.394   5.607  14.785
 3536TIP3    H132099   5.438   5.548  14.724
 3536TIP3    H232100   5.466   5.648  14.834
 3537TIP3   OH232101   4.465   1.845  12.760
 3537TIP3    H132102   4.489   1.755  12.736
 3537TIP3    H232103   4.469   1.846  12.855
 3538TIP3   OH232104   0.633   5.292  15.963
 3538TIP3    H132105   0.585   5.241  15.897
 3538TIP3    H232106   0.725   5.278  15.941
 3539TIP3   OH232107   5.296   3.467  12.119
 3539TIP3    H132108   5.368   3.451  12.180
 3539TIP3    H232109   5.291   3.386  12.068
 3540TIP3   OH232110   0.208   4.055   1.495
 3540TIP3    H132111   0.114   4.071   1.491
 3540TIP3    H232112   0.217   3.960   1.490
 3541TIP3   OH232113   2.716   6.070   1.858
 3541TIP3    H132114   2.629   6.057   1.895
 3541TIP3    H232115   2.721   6.164   1.842
 3542TIP3   OH232116   1.952   1.321   5.476
 3542TIP3    H132117   1.932   1.322   5.383
 3542TIP3    H232118   1.950   1.228   5.500
 3543TIP3   OH232119   2.189   2.396   6.236
 3543TIP3    H132120   2.096   2.373   6.227
 3543TIP3    H232121   2.192   2.490   6.222
 3544TIP3   OH232122   1.909   1.822   1.342
 3544TIP3    H132123   1.855   1.772   1.281
 3544TIP3    H232124   1.996   1.820   1.303
 3545TIP3   OH232125   4.691   1.305   0.398
 3545TIP3    H132126   4.600   1.311   0.427
 3545TIP3    H232127   4.699   1.216   0.363
 3546TIP3   OH232128   4.163   4.382   3.004
 3546TIP3    H132129   4.237   4.355   2.949
 3546TIP3    H232130   4.116   4.446   2.951
 3547TIP3   OH232131   6.338   2.115   5.039
 3547TIP3    H132132   6.342   2.025   5.071
 3547TIP3    H232133   6.316   2.167   5.117
 3548TIP3   OH232134   4.788   2.770  13.576
 3548TIP3    H132135   4.838   2.702  13.531
 3548TIP3    H232136   4.807   2.756  13.669
 3549TIP3   OH232137   4.633   5.984  14.604
 3549TIP3    H132138   4.690   6.016  14.533
 3549TIP3    H232139   4.597   5.902  14.570
 3550TIP3   OH232140   5.626   2.520  14.796
 3550TIP3    H132141   5.617   2.448  14.733
 3550TIP3    H232142   5.606   2.598  14.745
 3551TIP3   OH232143   3.069   5.750  14.484
 3551TIP3    H132144   3.096   5.827  14.434
 3551TIP3    H232145   2.975   5.743  14.467
 3552TIP3   OH232146   2.238   3.204   3.185
 3552TIP3    H132147   2.164   3.257   3.156
 3552TIP3    H232148   2.312   3.265   3.187
 3553TIP3   OH232149   2.667   5.290  13.960
 3553TIP3    H132150   2.698   5.303  14.050
 3553TIP3    H232151   2.604   5.218  13.966
 3554TIP3   OH232152   3.261   1.033   1.701
 3554TIP3    H132153   3.302   1.064   1.782
 3554TIP3    H232154   3.208   0.959   1.729
 3555TIP3   OH232155   4.344   2.382   6.664
 3555TIP3    H132156   4.300   2.464   6.640
 3555TIP3    H232157   4.274   2.327   6.699
 3556TIP3   OH232158   3.954   0.250   1.178
 3556TIP3    H132159   3.922   0.287   1.260
 3556TIP3    H232160   3.882   0.195   1.147
 3557TIP3   OH232161   6.050   2.419  12.193
 3557TIP3    H132162   6.017   2.485  12.133
 3557TIP3    H232163   5.973   2.389  12.242
 3558TIP3   OH232164   6.188   4.338  12.725
 3558TIP3    H132165   6.155   4.301  12.806
 3558TIP3    H232166   6.277   4.303  12.717
 3559TIP3   OH232167   3.395   6.561  16.668
 3559TIP3    H132168   3.349   6.520  16.595
 3559TIP3    H232169   3.452   6.493  16.702
 3560TIP3   OH232170   4.124   4.531  13.422
 3560TIP3    H132171   4.105   4.611  13.471
 3560TIP3    H232172   4.062   4.467  13.457
 3561TIP3   OH232173   4.144   4.326  12.142
 3561TIP3    H132174   4.198   4.263  12.095
 3561TIP3    H232175   4.183   4.330  12.229
 3562TIP3   OH232176   5.280   1.629  12.949
 3562TIP3    H132177   5.367   1.628  12.988
 3562TIP3    H232178   5.292   1.595  12.861
 3563TIP3   OH232179   1.676   5.523   5.451
 3563TIP3    H132180   1.696   5.617   5.451
 3563TIP3    H232181   1.743   5.484   5.395
 3564TIP3   OH232182   5.385   2.107   0.649
 3564TIP3    H132183   5.463   2.054   0.669
 3564TIP3    H232184   5.419   2.183   0.603
 3565TIP3   OH232185   2.701   5.739  11.434
 3565TIP3    H132186   2.708   5.735  11.339
 3565TIP3    H232187   2.733   5.654  11.464
 3566TIP3   OH232188   3.116   2.390  17.020
 3566TIP3    H132189   3.179   2.328  16.981
 3566TIP3    H232190   3.056   2.412  16.949
 3567TIP3   OH232191   5.343   4.409  17.163
 3567TIP3    H132192   5.268   4.371  17.209
 3567TIP3    H232193   5.350   4.498  17.196
 3568TIP3   OH232194   2.123   4.188   5.063
 3568TIP3    H132195   2.183   4.249   5.107
 3568TIP3    H232196   2.167   4.103   5.070
 3569TIP3   OH232197   0.381   0.105  13.171
 3569TIP3    H132198   0.410   0.194  13.191
 3569TIP3    H232199   0.333   0.113  13.089
 3570TIP3   OH232200   6.570   5.957  13.328
 3570TIP3    H132201   6.524   5.982  13.407
 3570TIP3    H232202   6.516   5.991  13.256
 3571TIP3   OH232203   3.438   1.093  13.945
 3571TIP3    H132204   3.406   1.043  13.870
 3571TIP3    H232205   3.437   1.031  14.018
 3572TIP3   OH232206   1.779   5.848   5.875
 3572TIP3    H132207   1.824   5.917   5.923
 3572TIP3    H232208   1.706   5.893   5.832
 3573TIP3   OH232209   2.648   4.992  16.925
 3573TIP3    H132210   2.685   4.938  16.995
 3573TIP3    H232211   2.678   4.949  16.844
 3574TIP3   OH232212   2.214   5.855  11.891
 3574TIP3    H132213   2.247   5.784  11.946
 3574TIP3    H232214   2.203   5.815  11.805
 3575TIP3   OH232215   2.326   2.427  13.819
 3575TIP3    H132216   2.282   2.505  13.786
 3575TIP3    H232217   2.257   2.379  13.866
 3576TIP3   OH232218   2.174   1.144   1.091
 3576TIP3    H132219   2.152   1.174   1.003
 3576TIP3    H232220   2.100   1.088   1.115
 3577TIP3   OH232221   1.943   3.684  13.101
 3577TIP3    H132222   1.901   3.600  13.086
 3577TIP3    H232223   1.950   3.723  13.013
 3578TIP3   OH232224   0.370   0.309  15.713
 3578TIP3    H132225   0.297   0.360  15.680
 3578TIP3    H232226   0.399   0.257  15.638
 3579TIP3   OH232227   4.999   0.719  12.069
 3579TIP3    H132228   5.068   0.689  12.010
 3579TIP3    H232229   4.921   0.671  12.040
 3580TIP3   OH232230   2.694   6.339   1.739
 3580TIP3    H132231   2.700   6.415   1.797
 3580TIP3    H232232   2.600   6.323   1.730
 3581TIP3   OH232233   6.688   2.831   1.280
 3581TIP3    H132234   6.671   2.860   1.190
 3581TIP3    H232235   6.658   2.904   1.335
 3582TIP3   OH232236   6.710   2.085   6.424
 3582TIP3    H132237   6.770   2.046   6.488
 3582TIP3    H232238   6.623   2.067   6.460
 3583TIP3   OH232239   3.284   4.409   0.376
 3583TIP3    H132240   3.353   4.347   0.398
 3583TIP3    H232241   3.203   4.358   0.383
 3584TIP3   OH232242   0.209   1.363  13.222
 3584TIP3    H132243   0.227   1.279  13.180
 3584TIP3    H232244   0.193   1.424  13.150
 3585TIP3   OH232245   2.141   4.469  12.797
 3585TIP3    H132246   2.221   4.444  12.751
 3585TIP3    H232247   2.071   4.424  12.750
 3586TIP3   OH232248   6.512   1.689   4.107
 3586TIP3    H132249   6.488   1.688   4.200
 3586TIP3    H232250   6.520   1.781   4.086
 3587TIP3   OH232251   1.298   1.003  14.011
 3587TIP3    H132252   1.272   0.912  13.995
 3587TIP3    H232253   1.305   1.009  14.107
 3588TIP3   OH232254   5.069   1.029  15.438
 3588TIP3    H132255   5.148   0.988  15.474
 3588TIP3    H232256   5.031   0.962  15.381
 3589TIP3   OH232257   0.813   5.345   2.453
 3589TIP3    H132258   0.858   5.426   2.430
 3589TIP3    H232259   0.790   5.306   2.369
 3590TIP3   OH232260   6.203   2.105   3.575
 3590TIP3    H132261   6.118   2.112   3.533
 3590TIP3    H232262   6.185   2.113   3.669
 3591TIP3   OH232263   4.720   4.006  11.049
 3591TIP3    H132264   4.814   4.003  11.033
 3591TIP3    H232265   4.684   4.053  10.974
 3592TIP3   OH232266   4.427   2.676  13.100
 3592TIP3    H132267   4.519   2.655  13.082
 3592TIP3    H232268   4.422   2.771  13.091
 3593TIP3   OH232269   3.602   2.103   0.917
 3593TIP3    H132270   3.563   2.026   0.959
 3593TIP3    H232271   3.692   2.076   0.899
 3594TIP3   OH232272   0.840   5.293   5.557
 3594TIP3    H132273   0.876   5.204   5.550
 3594TIP3    H232274   0.873   5.338   5.479
 3595TIP3   OH232275   6.007   2.893   6.663
 3595TIP3    H132276   5.917   2.864   6.671
 3595TIP3    H232277   6.003   2.972   6.609
 3596TIP3   OH232278   2.691   1.921  12.723
 3596TIP3    H132279   2.745   1.917  12.802
 3596TIP3    H232280   2.737   1.982  12.666
 3597TIP3   OH232281   4.907   3.776   3.597
 3597TIP3    H132282   4.851   3.701   3.578
 3597TIP3    H232283   4.931   3.811   3.511
 3598TIP3   OH232284   0.365   3.312  12.033
 3598TIP3    H132285   0.287   3.347  11.991
 3598TIP3    H232286   0.438   3.348  11.983
 3599TIP3   OH232287   4.229   4.397  11.846
 3599TIP3    H132288   4.229   4.322  11.906
 3599TIP3    H232289   4.318   4.401  11.812
 3600TIP3   OH232290   4.341   5.045  12.613
 3600TIP3    H132291   4.353   5.131  12.654
 3600TIP3    H232292   4.246   5.031  12.613
 3601TIP3   OH232293   4.199   5.234   4.349
 3601TIP3    H132294   4.293   5.217   4.353
 3601TIP3    H232295   4.169   5.221   4.439
 3602TIP3   OH232296   4.430   1.669  16.846
 3602TIP3    H132297   4.522   1.678  16.871
 3602TIP3    H232298   4.422   1.717  16.764
 3603TIP3   OH232299   1.942   6.555  15.141
 3603TIP3    H132300   2.000   6.583  15.212
 3603TIP3    H232301   1.887   6.487  15.179
 3604TIP3   OH232302   4.656   6.646   3.824
 3604TIP3    H132303   4.716   6.622   3.895
 3604TIP3    H232304   4.615   6.727   3.854
 3605TIP3   OH232305   0.652   0.970   2.923
 3605TIP3    H132306   0.711   0.898   2.902
 3605TIP3    H232307   0.564   0.934   2.906
 3606TIP3   OH232308   4.499   0.337  14.331
 3606TIP3    H132309   4.465   0.421  14.360
 3606TIP3    H232310   4.574   0.359  14.276
 3607TIP3   OH232311   4.793   2.523   1.181
 3607TIP3    H132312   4.863   2.544   1.242
 3607TIP3    H232313   4.780   2.429   1.189
 3608TIP3   OH232314   3.613   0.991   5.389
 3608TIP3    H132315   3.583   0.905   5.358
 3608TIP3    H232316   3.592   0.991   5.482
 3609TIP3   OH232317   4.741   0.060   5.360
 3609TIP3    H132318   4.810   0.002   5.392
 3609TIP3    H232319   4.784   0.146   5.353
 3610TIP3   OH232320   4.864   2.143  11.653
 3610TIP3    H132321   4.904   2.081  11.592
 3610TIP3    H232322   4.779   2.103  11.674
 3611TIP3   OH232323   2.501   3.755   0.060
 3611TIP3    H132324   2.539   3.678   0.018
 3611TIP3    H232325   2.487   3.817  -0.011
 3612TIP3   OH232326   4.434   0.062  15.566
 3612TIP3    H132327   4.526   0.036  15.570
 3612TIP3    H232328   4.403   0.028  15.481
 3613TIP3   OH232329   2.617   4.205  12.817
 3613TIP3    H132330   2.656   4.131  12.863
 3613TIP3    H232331   2.648   4.196  12.727
 3614TIP3   OH232332   2.372   4.455  13.281
 3614TIP3    H132333   2.301   4.393  13.301
 3614TIP3    H232334   2.352   4.488  13.194
 3615TIP3   OH232335   1.659   6.764   3.569
 3615TIP3    H132336   1.707   6.835   3.528
 3615TIP3    H232337   1.709   6.685   3.546
 3616TIP3   OH232338   6.036   5.020  15.396
 3616TIP3    H132339   6.021   4.944  15.340
 3616TIP3    H232340   6.058   4.983  15.482
 3617TIP3   OH232341   1.366   6.263  12.812
 3617TIP3    H132342   1.274   6.246  12.792
 3617TIP3    H232343   1.410   6.257  12.727
 3618TIP3   OH232344   3.467   5.057  13.564
 3618TIP3    H132345   3.410   5.129  13.590
 3618TIP3    H232346   3.454   5.049  13.469
 3619TIP3   OH232347   0.562   6.286   3.915
 3619TIP3    H132348   0.532   6.351   3.978
 3619TIP3    H232349   0.634   6.329   3.868
 3620TIP3   OH232350   1.040   1.494   1.515
 3620TIP3    H132351   0.956   1.455   1.537
 3620TIP3    H232352   1.105   1.427   1.539
 3621TIP3   OH232353   1.457   1.609  14.656
 3621TIP3    H132354   1.509   1.678  14.616
 3621TIP3    H232355   1.366   1.636  14.641
 3622TIP3   OH232356   1.758   3.469  17.290
 3622TIP3    H132357   1.826   3.531  17.264
 3622TIP3    H232358   1.676   3.507  17.259
 3623TIP3   OH232359   5.790   0.580  12.552
 3623TIP3    H132360   5.698   0.603  12.543
 3623TIP3    H232361   5.807   0.520  12.478
 3624TIP3   OH232362   2.677   3.955  15.854
 3624TIP3    H132363   2.699   3.868  15.821
 3624TIP3    H232364   2.708   3.954  15.945
 3625TIP3   OH232365   2.764   1.245   3.312
 3625TIP3    H132366   2.694   1.303   3.281
 3625TIP3    H232367   2.731   1.157   3.299
 3626TIP3   OH232368   5.203   0.826  11.642
 3626TIP3    H132369   5.284   0.779  11.623
 3626TIP3    H232370   5.194   0.821  11.737
 3627TIP3   OH232371   5.705   1.223   0.146
 3627TIP3    H132372   5.638   1.232   0.213
 3627TIP3    H232373   5.704   1.130   0.123
 3628TIP3   OH232374   6.219   0.955   4.980
 3628TIP3    H132375   6.170   1.028   4.943
 3628TIP3    H232376   6.153   0.903   5.027
 3629TIP3   OH232377   2.529   5.185   2.352
 3629TIP3    H132378   2.616   5.154   2.326
 3629TIP3    H232379   2.534   5.192   2.447
 3630TIP3   OH232380   3.162   5.677  16.548
 3630TIP3    H132381   3.126   5.626  16.476
 3630TIP3    H232382   3.211   5.614  16.600
 3631TIP3   OH232383   4.077   5.551  13.409
 3631TIP3    H132384   4.103   5.608  13.336
 3631TIP3    H232385   4.026   5.608  13.466
 3632TIP3   OH232386   6.022   5.720  15.687
 3632TIP3    H132387   6.018   5.791  15.623
 3632TIP3    H232388   6.065   5.648  15.641
 3633TIP3   OH232389   6.275   5.841   3.311
 3633TIP3    H132390   6.185   5.823   3.284
 3633TIP3    H232391   6.327   5.774   3.267
 3634TIP3   OH232392   3.144   3.311   4.614
 3634TIP3    H132393   3.132   3.227   4.570
 3634TIP3    H232394   3.233   3.307   4.649
 3635TIP3   OH232395   6.173   1.538  15.869
 3635TIP3    H132396   6.268   1.527  15.864
 3635TIP3    H232397   6.143   1.466  15.925
 3636TIP3   OH232398   5.537   3.851   2.840
 3636TIP3    H132399   5.557   3.847   2.747
 3636TIP3    H232400   5.530   3.944   2.859
 3637TIP3   OH232401   6.426   3.641   1.940
 3637TIP3    H132402   6.435   3.572   2.005
 3637TIP3    H232403   6.401   3.596   1.859
 3638TIP3   OH232404   0.852   0.096   1.992
 3638TIP3    H132405   0.778   0.060   1.943
 3638TIP3    H232406   0.859   0.187   1.963
 3639TIP3   OH232407   3.469   0.782  13.812
 3639TIP3    H132408   3.542   0.765  13.752
 3639TIP3    H232409   3.409   0.837  13.761
 3640TIP3   OH232410   4.644   0.322  15.766
 3640TIP3    H132411   4.674   0.231  15.773
 3640TIP3    H232412   4.556   0.315  15.728
 3641TIP3   OH232413   4.192   1.250  12.035
 3641TIP3    H132414   4.157   1.175  11.987
 3641TIP3    H232415   4.124   1.272  12.098
 3642TIP3   OH232416   1.788   6.067   5.392
 3642TIP3    H132417   1.785   6.132   5.321
 3642TIP3    H232418   1.866   6.016   5.373
 3643TIP3   OH232419   3.741   0.983   4.910
 3643TIP3    H132420   3.670   1.004   4.849
 3643TIP3    H232421   3.721   1.033   4.989
 3644TIP3   OH232422   0.004   3.180  14.067
 3644TIP3    H132423   0.082   3.195  14.014
 3644TIP3    H232424   0.030   3.205  14.155
 3645TIP3   OH232425   0.609   3.915   6.434
 3645TIP3    H132426   0.642   3.986   6.488
 3645TIP3    H232427   0.656   3.837   6.466
 3646TIP3   OH232428   3.273   4.819   5.719
 3646TIP3    H132429   3.219   4.807   5.798
 3646TIP3    H232430   3.214   4.862   5.657
 3647TIP3   OH232431   2.647   0.154  14.839
 3647TIP3    H132432   2.720   0.182  14.783
 3647TIP3    H232433   2.569   0.180  14.791
 3648TIP3   OH232434   3.425   0.169   5.540
 3648TIP3    H132435   3.450   0.077   5.545
 3648TIP3    H232436   3.329   0.167   5.543
 3649TIP3   OH232437   1.362   5.430  14.652
 3649TIP3    H132438   1.358   5.340  14.620
 3649TIP3    H232439   1.415   5.476  14.587
 3650TIP3   OH232440   5.432   0.625   1.124
 3650TIP3    H132441   5.500   0.687   1.098
 3650TIP3    H232442   5.386   0.604   1.043
 3651TIP3   OH232443   5.769   2.349   3.375
 3651TIP3    H132444   5.705   2.296   3.327
 3651TIP3    H232445   5.718   2.396   3.440
 3652TIP3   OH232446   3.743   6.504   6.138
 3652TIP3    H132447   3.803   6.438   6.173
 3652TIP3    H232448   3.795   6.585   6.135
 3653TIP3   OH232449   3.440   1.844  11.560
 3653TIP3    H132450   3.525   1.888  11.564
 3653TIP3    H232451   3.394   1.887  11.488
 3654TIP3   OH232452   0.138   3.402  11.917
 3654TIP3    H132453   0.151   3.407  11.823
 3654TIP3    H232454   0.056   3.352  11.928
 3655TIP3   OH232455   1.671   4.550  15.031
 3655TIP3    H132456   1.700   4.602  14.956
 3655TIP3    H232457   1.669   4.611  15.104
 3656TIP3   OH232458   4.470   4.069  12.616
 3656TIP3    H132459   4.408   4.121  12.668
 3656TIP3    H232460   4.415   4.006  12.569
 3657TIP3   OH232461   0.491   3.714   5.412
 3657TIP3    H132462   0.491   3.650   5.341
 3657TIP3    H232463   0.424   3.682   5.473
 3658TIP3   OH232464   0.491   0.906   2.027
 3658TIP3    H132465   0.562   0.968   2.015
 3658TIP3    H232466   0.506   0.839   1.960
 3659TIP3   OH232467   1.206   4.798   6.301
 3659TIP3    H132468   1.176   4.850   6.227
 3659TIP3    H232469   1.132   4.740   6.321
 3660TIP3   OH232470   0.510   1.363   4.464
 3660TIP3    H132471   0.472   1.446   4.493
 3660TIP3    H232472   0.570   1.338   4.534
 3661TIP3   OH232473   1.899   3.472   3.607
 3661TIP3    H132474   1.897   3.562   3.641
 3661TIP3    H232475   1.862   3.419   3.677
 3662TIP3   OH232476   0.544   1.297  12.750
 3662TIP3    H132477   0.453   1.320  12.769
 3662TIP3    H232478   0.547   1.202  12.762
 3663TIP3   OH232479   5.795   5.481  15.788
 3663TIP3    H132480   5.874   5.439  15.756
 3663TIP3    H232481   5.773   5.434  15.868
 3664TIP3   OH232482   3.432   5.933  15.617
 3664TIP3    H132483   3.398   5.876  15.548
 3664TIP3    H232484   3.357   5.951  15.673
 3665TIP3   OH232485   0.036   3.312   6.448
 3665TIP3    H132486   0.090   3.304   6.528
 3665TIP3    H232487   0.051   3.402   6.418
 3666TIP3   OH232488   1.466   4.389   1.573
 3666TIP3    H132489   1.478   4.483   1.566
 3666TIP3    H232490   1.387   4.378   1.626
 3667TIP3   OH232491   0.100   3.148   5.751
 3667TIP3    H132492   0.050   3.095   5.813
 3667TIP3    H232493   0.097   3.237   5.787
 3668TIP3   OH232494   0.917   2.970   4.655
 3668TIP3    H132495   0.856   2.928   4.716
 3668TIP3    H232496   1.002   2.963   4.698
 3669TIP3   OH232497   0.214   6.415  15.942
 3669TIP3    H132498   0.209   6.353  16.014
 3669TIP3    H232499   0.135   6.469  15.950
 3670TIP3   OH232500   2.044   1.872  15.984
 3670TIP3    H132501   2.089   1.886  16.068
 3670TIP3    H232502   2.112   1.835  15.927
 3671TIP3   OH232503   4.393   0.280   1.389
 3671TIP3    H132504   4.323   0.247   1.334
 3671TIP3    H232505   4.432   0.351   1.339
 3672TIP3   OH232506   5.686   2.590  16.931
 3672TIP3    H132507   5.711   2.587  17.023
 3672TIP3    H232508   5.730   2.668  16.897
 3673TIP3   OH232509   4.560   3.373   5.913
 3673TIP3    H132510   4.618   3.296   5.909
 3673TIP3    H232511   4.584   3.416   5.995
 3674TIP3   OH232512   0.760   3.339   0.150
 3674TIP3    H132513   0.846   3.318   0.185
 3674TIP3    H232514   0.719   3.254   0.134
 3675TIP3   OH232515   1.755   1.693  13.270
 3675TIP3    H132516   1.699   1.651  13.334
 3675TIP3    H232517   1.753   1.635  13.194
 3676TIP3   OH232518   4.480   3.251  16.370
 3676TIP3    H132519   4.542   3.192  16.327
 3676TIP3    H232520   4.496   3.336  16.328
 3677TIP3   OH232521   1.269   3.728   3.086
 3677TIP3    H132522   1.225   3.811   3.104
 3677TIP3    H232523   1.315   3.707   3.168
 3678TIP3   OH232524   4.169   2.884  16.658
 3678TIP3    H132525   4.241   2.828  16.629
 3678TIP3    H232526   4.098   2.864  16.597
 3679TIP3   OH232527   3.051   0.274   0.061
 3679TIP3    H132528   3.146   0.288   0.056
 3679TIP3    H232529   3.016   0.321  -0.015
 3680TIP3   OH232530   3.840   3.620  12.995
 3680TIP3    H132531   3.831   3.528  12.973
 3680TIP3    H232532   3.809   3.627  13.085
 3681TIP3   OH232533   4.260   1.042   5.047
 3681TIP3    H132534   4.340   1.072   5.005
 3681TIP3    H232535   4.289   1.006   5.131
 3682TIP3   OH232536   1.117   1.104  11.537
 3682TIP3    H132537   1.179   1.113  11.610
 3682TIP3    H232538   1.154   1.033  11.484
 3683TIP3   OH232539   1.829   1.951  11.641
 3683TIP3    H132540   1.756   1.893  11.666
 3683TIP3    H232541   1.902   1.891  11.627
 3684TIP3   OH232542   3.276   5.539  12.944
 3684TIP3    H132543   3.182   5.553  12.935
 3684TIP3    H232544   3.299   5.477  12.875
 3685TIP3   OH232545   1.582   1.230   6.642
 3685TIP3    H132546   1.638   1.249   6.566
 3685TIP3    H232547   1.603   1.300   6.704
 3686TIP3   OH232548   1.501   4.650  16.542
 3686TIP3    H132549   1.558   4.723  16.568
 3686TIP3    H232550   1.413   4.678  16.567
 3687TIP3   OH232551   5.736   6.652   3.484
 3687TIP3    H132552   5.795   6.655   3.560
 3687TIP3    H232553   5.789   6.613   3.414
 3688TIP3   OH232554   5.706   0.065   3.141
 3688TIP3    H132555   5.720   0.080   3.235
 3688TIP3    H232556   5.634   0.124   3.119
 3689TIP3   OH232557   5.957   6.510   3.379
 3689TIP3    H132558   6.013   6.555   3.443
 3689TIP3    H232559   5.936   6.427   3.422
 3690TIP3   OH232560   6.671   3.840  12.509
 3690TIP3    H132561   6.695   3.921  12.554
 3690TIP3    H232562   6.733   3.833  12.436
 3691TIP3   OH232563   5.250   1.960  15.991
 3691TIP3    H132564   5.236   1.930  15.901
 3691TIP3    H232565   5.302   1.890  16.031
 3692TIP3   OH232566   4.520   6.732   6.316
 3692TIP3    H132567   4.584   6.766   6.253
 3692TIP3    H232568   4.469   6.808   6.343
 3693TIP3   OH232569   4.264   5.457   5.400
 3693TIP3    H132570   4.238   5.546   5.427
 3693TIP3    H232571   4.351   5.445   5.438
 3694TIP3   OH232572   1.492   1.960  16.469
 3694TIP3    H132573   1.468   2.046  16.504
 3694TIP3    H232574   1.483   1.970  16.374
 3695TIP3   OH232575   0.706   1.978  10.856
 3695TIP3    H132576   0.736   2.059  10.898
 3695TIP3    H232577   0.745   1.980  10.768
 3696TIP3   OH232578   2.593   1.059  15.798
 3696TIP3    H132579   2.514   1.107  15.776
 3696TIP3    H232580   2.661   1.097  15.743
 3697TIP3   OH232581   1.732   1.101   4.470
 3697TIP3    H132582   1.747   1.193   4.450
 3697TIP3    H232583   1.766   1.054   4.393
 3698TIP3   OH232584   4.221   1.998  11.312
 3698TIP3    H132585   4.140   2.046  11.328
 3698TIP3    H232586   4.258   2.039  11.233
 3699TIP3   OH232587   0.695   4.250  13.316
 3699TIP3    H132588   0.639   4.321  13.284
 3699TIP3    H232589   0.676   4.177  13.257
 3700TIP3   OH232590   2.847   1.532   3.487
 3700TIP3    H132591   2.833   1.556   3.579
 3700TIP3    H232592   2.816   1.607   3.437
 3701TIP3   OH232593   0.280   5.232   3.538
 3701TIP3    H132594   0.238   5.318   3.540
 3701TIP3    H232595   0.370   5.248   3.565
 3702TIP3   OH232596   5.929   4.658   3.997
 3702TIP3    H132597   5.944   4.584   3.938
 3702TIP3    H232598   5.924   4.619   4.084
 3703TIP3   OH232599   1.325   0.229   4.811
 3703TIP3    H132600   1.417   0.250   4.831
 3703TIP3    H232601   1.299   0.167   4.878
 3704TIP3   OH232602   2.525   6.266  10.753
 3704TIP3    H132603   2.571   6.329  10.809
 3704TIP3    H232604   2.592   6.201  10.730
 3705TIP3   OH232605   4.516   1.026   2.472
 3705TIP3    H132606   4.514   0.973   2.392
 3705TIP3    H232607   4.603   1.068   2.471
 3706TIP3   OH232608   2.643   4.801  16.034
 3706TIP3    H132609   2.614   4.737  15.970
 3706TIP3    H232610   2.643   4.753  16.117
 3707TIP3   OH232611   6.551   2.263   3.462
 3707TIP3    H132612   6.590   2.176   3.478
 3707TIP3    H232613   6.618   2.310   3.413
 3708TIP3   OH232614   2.065   3.892   0.120
 3708TIP3    H132615   2.020   3.808   0.122
 3708TIP3    H232616   2.029   3.940   0.195
 3709TIP3   OH232617   4.491   1.431   3.022
 3709TIP3    H132618   4.458   1.447   2.933
 3709TIP3    H232619   4.586   1.446   3.015
 3710TIP3   OH232620   2.664   1.420   0.713
 3710TIP3    H132621   2.587   1.380   0.753
 3710TIP3    H232622   2.738   1.376   0.755
 3711TIP3   OH232623   5.573   6.036   1.812
 3711TIP3    H132624   5.557   5.950   1.851
 3711TIP3    H232625   5.518   6.096   1.863
 3712TIP3   OH232626   0.309   4.661   4.170
 3712TIP3    H132627   0.396   4.644   4.133
 3712TIP3    H232628   0.255   4.590   4.137
 3713TIP3   OH232629   4.414   5.935  15.472
 3713TIP3    H132630   4.367   6.018  15.468
 3713TIP3    H232631   4.428   5.920  15.566
 3714TIP3   OH232632   5.461   1.296  14.535
 3714TIP3    H132633   5.490   1.207  14.516
 3714TIP3    H232634   5.538   1.351  14.519
 3715TIP3   OH232635   4.150   4.604  15.791
 3715TIP3    H132636   4.245   4.593  15.783
 3715TIP3    H232637   4.118   4.517  15.817
 3716TIP3   OH232638   1.304   0.729  13.991
 3716TIP3    H132639   1.321   0.680  14.071
 3716TIP3    H232640   1.377   0.708  13.934
 3717TIP3   OH232641   3.966   5.709  13.625
 3717TIP3    H132642   3.932   5.781  13.573
 3717TIP3    H232643   3.997   5.749  13.706
 3718TIP3   OH232644   2.517   1.708  12.016
 3718TIP3    H132645   2.510   1.802  12.029
 3718TIP3    H232646   2.611   1.690  12.017
 3719TIP3   OH232647   5.048   1.062   3.474
 3719TIP3    H132648   4.973   1.003   3.474
 3719TIP3    H232649   5.061   1.085   3.383
 3720TIP3   OH232650   3.042   1.484   5.038
 3720TIP3    H132651   3.006   1.532   4.963
 3720TIP3    H232652   3.136   1.481   5.022
 3721TIP3   OH232653   1.502   5.768   0.303
 3721TIP3    H132654   1.533   5.820   0.377
 3721TIP3    H232655   1.409   5.790   0.296
 3722TIP3   OH232656   0.633   2.542  13.838
 3722TIP3    H132657   0.546   2.510  13.861
 3722TIP3    H232658   0.693   2.485  13.885
 3723TIP3   OH232659   1.961   4.325   1.889
 3723TIP3    H132660   1.993   4.389   1.826
 3723TIP3    H232661   1.879   4.362   1.922
 3724TIP3   OH232662   5.253   3.353   5.586
 3724TIP3    H132663   5.254   3.290   5.659
 3724TIP3    H232664   5.181   3.413   5.607
 3725TIP3   OH232665   6.661   1.888   4.344
 3725TIP3    H132666   6.654   1.911   4.251
 3725TIP3    H232667   6.745   1.925   4.371
 3726TIP3   OH232668   6.624   3.343  16.979
 3726TIP3    H132669   6.561   3.343  17.051
 3726TIP3    H232670   6.580   3.298  16.908
 3727TIP3   OH232671   2.363   1.087  14.935
 3727TIP3    H132672   2.329   1.090  14.845
 3727TIP3    H232673   2.360   1.178  14.964
 3728TIP3   OH232674   2.291   5.293   4.082
 3728TIP3    H132675   2.345   5.345   4.142
 3728TIP3    H232676   2.329   5.309   3.996
 3729TIP3   OH232677   6.248   2.399  15.396
 3729TIP3    H132678   6.187   2.468  15.368
 3729TIP3    H232679   6.294   2.374  15.316
 3730TIP3   OH232680   6.582   6.355   4.874
 3730TIP3    H132681   6.656   6.406   4.906
 3730TIP3    H232682   6.506   6.392   4.919
 3731TIP3   OH232683   6.527   1.785  16.270
 3731TIP3    H132684   6.482   1.841  16.208
 3731TIP3    H232685   6.539   1.839  16.348
 3732TIP3   OH232686   3.465   3.133   1.945
 3732TIP3    H132687   3.460   3.097   2.033
 3732TIP3    H232688   3.401   3.204   1.944
 3733TIP3   OH232689   4.179   0.024  16.984
 3733TIP3    H132690   4.219   0.068  16.908
 3733TIP3    H232691   4.105   0.081  17.007
 3734TIP3   OH232692   3.830   0.898  13.391
 3734TIP3    H132693   3.921   0.919  13.412
 3734TIP3    H232694   3.835   0.841  13.314
 3735TIP3   OH232695   3.874   1.464  17.018
 3735TIP3    H132696   3.828   1.455  16.935
 3735TIP3    H232697   3.962   1.431  17.001
 3736TIP3   OH232698   3.115   2.612   5.483
 3736TIP3    H132699   3.116   2.539   5.545
 3736TIP3    H232700   3.201   2.654   5.493
 3737TIP3   OH232701   1.709   2.009   5.446
 3737TIP3    H132702   1.718   2.071   5.373
 3737TIP3    H232703   1.696   1.924   5.404
 3738TIP3   OH232704   6.168   5.008   4.433
 3738TIP3    H132705   6.221   4.934   4.465
 3738TIP3    H232706   6.164   5.067   4.508
 3739TIP3   OH232707   1.514   3.640   5.285
 3739TIP3    H132708   1.467   3.723   5.294
 3739TIP3    H232709   1.597   3.654   5.331
 3740TIP3   OH232710   3.658   2.906   2.756
 3740TIP3    H132711   3.661   3.001   2.767
 3740TIP3    H232712   3.662   2.871   2.846
 3741TIP3   OH232713   5.122   0.652   1.947
 3741TIP3    H132714   5.110   0.629   1.854
 3741TIP3    H232715   5.079   0.581   1.995
 3742TIP3   OH232716   2.306   4.208   2.368
 3742TIP3    H132717   2.212   4.215   2.384
 3742TIP3    H232718   2.325   4.115   2.374
 3743TIP3   OH232719   4.412   4.561  15.719
 3743TIP3    H132720   4.436   4.602  15.636
 3743TIP3    H232721   4.491   4.569  15.773
 3744TIP3   OH232722   1.585   6.181  16.142
 3744TIP3    H132723   1.489   6.189  16.141
 3744TIP3    H232724   1.615   6.263  16.182
 3745TIP3   OH232725   6.669   6.771   0.876
 3745TIP3    H132726   6.662   6.860   0.843
 3745TIP3    H232727   6.584   6.752   0.915
 3746TIP3   OH232728   4.457   5.530  11.766
 3746TIP3    H132729   4.432   5.552  11.855
 3746TIP3    H232730   4.516   5.455  11.775
 3747TIP3   OH232731   4.693   4.826   4.609
 3747TIP3    H132732   4.787   4.821   4.626
 3747TIP3    H232733   4.672   4.743   4.566
 3748TIP3   OH232734   6.018   4.406  13.259
 3748TIP3    H132735   5.944   4.457  13.227
 3748TIP3    H232736   5.978   4.335  13.310
 3749TIP3   OH232737   1.453   5.138   1.738
 3749TIP3    H132738   1.442   5.061   1.794
 3749TIP3    H232739   1.451   5.212   1.799
 3750TIP3   OH232740   2.731   5.767  15.342
 3750TIP3    H132741   2.721   5.832  15.412
 3750TIP3    H232742   2.825   5.764  15.325
 3751TIP3   OH232743   2.993   3.309   1.518
 3751TIP3    H132744   2.961   3.388   1.473
 3751TIP3    H232745   2.917   3.251   1.519
 3752TIP3   OH232746   5.378   1.606  16.271
 3752TIP3    H132747   5.450   1.575  16.326
 3752TIP3    H232748   5.385   1.555  16.191
 3753TIP3   OH232749   1.354   1.069   3.039
 3753TIP3    H132750   1.322   1.089   3.127
 3753TIP3    H232751   1.364   1.154   2.997
 3754TIP3   OH232752   6.269   2.611  15.739
 3754TIP3    H132753   6.191   2.637  15.691
 3754TIP3    H232754   6.340   2.620  15.675
 3755TIP3   OH232755   6.599   6.009   1.590
 3755TIP3    H132756   6.605   5.926   1.542
 3755TIP3    H232757   6.514   6.044   1.566
 3756TIP3   OH232758   1.974   1.006  12.864
 3756TIP3    H132759   1.900   0.983  12.919
 3756TIP3    H232760   2.038   1.046  12.923
 3757TIP3   OH232761   2.914   6.605  16.984
 3757TIP3    H132762   2.967   6.526  16.971
 3757TIP3    H232763   2.911   6.616  17.079
 3758TIP3   OH232764   6.212   0.042  16.677
 3758TIP3    H132765   6.173  -0.034  16.635
 3758TIP3    H232766   6.158   0.116  16.648
 3759TIP3   OH232767   4.041   2.703   3.958
 3759TIP3    H132768   3.956   2.660   3.955
 3759TIP3    H232769   4.052   2.741   3.871
 3760TIP3   OH232770   6.676   2.681  12.451
 3760TIP3    H132771   6.763   2.643  12.450
 3760TIP3    H232772   6.691   2.774  12.469
 3761TIP3   OH232773   1.848   5.150   5.465
 3761TIP3    H132774   1.870   5.090   5.394
 3761TIP3    H232775   1.810   5.095   5.532
 3762TIP3   OH232776   0.981   4.198   6.559
 3762TIP3    H132777   0.939   4.262   6.503
 3762TIP3    H232778   1.056   4.244   6.596
 3763TIP3   OH232779   6.216   0.969  10.772
 3763TIP3    H132780   6.171   0.936  10.850
 3763TIP3    H232781   6.230   0.891  10.718
 3764TIP3   OH232782   4.734   2.076  12.246
 3764TIP3    H132783   4.647   2.082  12.286
 3764TIP3    H232784   4.717   2.047  12.157
 3765TIP3   OH232785   1.094   4.523   2.987
 3765TIP3    H132786   1.165   4.520   2.923
 3765TIP3    H232787   1.054   4.609   2.973
 3766TIP3   OH232788   1.827   6.224   4.459
 3766TIP3    H132789   1.898   6.161   4.448
 3766TIP3    H232790   1.753   6.172   4.491
 3767TIP3   OH232791   6.733   4.911  14.783
 3767TIP3    H132792   6.784   4.897  14.862
 3767TIP3    H232793   6.676   4.834  14.778
 3768TIP3   OH232794   5.892   1.521  12.733
 3768TIP3    H132795   5.936   1.564  12.660
 3768TIP3    H232796   5.953   1.452  12.761
 3769TIP3   OH232797   6.489   6.286  16.777
 3769TIP3    H132798   6.554   6.283  16.708
 3769TIP3    H232799   6.430   6.213  16.758
 3770TIP3   OH232800   4.894   4.893  13.842
 3770TIP3    H132801   4.866   4.802  13.846
 3770TIP3    H232802   4.833   4.935  13.781
 3771TIP3   OH232803   2.025   1.920   1.742
 3771TIP3    H132804   2.025   2.015   1.752
 3771TIP3    H232805   2.087   1.889   1.809
 3772TIP3   OH232806   2.060   6.284   4.079
 3772TIP3    H132807   1.965   6.284   4.077
 3772TIP3    H232808   2.085   6.376   4.064
 3773TIP3   OH232809   6.242   5.404  12.480
 3773TIP3    H132810   6.215   5.321  12.441
 3773TIP3    H232811   6.250   5.464  12.406
 3774TIP3   OH232812   4.146   4.038  12.210
 3774TIP3    H132813   4.194   4.083  12.279
 3774TIP3    H232814   4.064   4.086  12.201
 3775TIP3   OH232815   2.809   4.230   1.285
 3775TIP3    H132816   2.806   4.301   1.221
 3775TIP3    H232817   2.740   4.170   1.258
 3776TIP3   OH232818   3.043   0.950   0.050
 3776TIP3    H132819   3.025   0.983   0.138
 3776TIP3    H232820   2.969   0.894   0.030
 3777TIP3   OH232821   6.703   5.752  14.742
 3777TIP3    H132822   6.696   5.803  14.661
 3777TIP3    H232823   6.731   5.816  14.808
 3778TIP3   OH232824   6.772   3.109   4.719
 3778TIP3    H132825   6.804   3.190   4.758
 3778TIP3    H232826   6.680   3.104   4.744
 3779TIP3   OH232827   5.180   2.458   0.623
 3779TIP3    H132828   5.101   2.488   0.669
 3779TIP3    H232829   5.147   2.400   0.555
 3780TIP3   OH232830   1.601   3.858  15.653
 3780TIP3    H132831   1.646   3.912  15.719
 3780TIP3    H232832   1.655   3.867  15.574
 3781TIP3   OH232833   3.220   4.724   1.163
 3781TIP3    H132834   3.166   4.689   1.235
 3781TIP3    H232835   3.156   4.759   1.101
 3782TIP3   OH232836   6.642   4.164   3.531
 3782TIP3    H132837   6.687   4.085   3.501
 3782TIP3    H232838   6.691   4.236   3.491
 3783TIP3   OH232839   1.773   2.434  16.070
 3783TIP3    H132840   1.757   2.510  16.015
 3783TIP3    H232841   1.687   2.395  16.083
 3784TIP3   OH232842   4.623   5.634  13.201
 3784TIP3    H132843   4.643   5.674  13.286
 3784TIP3    H232844   4.638   5.703  13.137
 3785TIP3   OH232845   6.742   1.845   1.298
 3785TIP3    H132846   6.832   1.827   1.270
 3785TIP3    H232847   6.744   1.935   1.331
 3786TIP3   OH232848   5.220   6.660  15.348
 3786TIP3    H132849   5.304   6.704  15.362
 3786TIP3    H232850   5.157   6.731  15.340
 3787TIP3   OH232851   0.020   3.053   0.537
 3787TIP3    H132852  -0.072   3.030   0.550
 3787TIP3    H232853   0.036   3.125   0.599
 3788TIP3   OH232854   2.807   6.184   3.844
 3788TIP3    H132855   2.891   6.168   3.801
 3788TIP3    H232856   2.826   6.253   3.908
 3789TIP3   OH232857   4.301   2.532  11.137
 3789TIP3    H132858   4.259   2.498  11.057
 3789TIP3    H232859   4.319   2.624  11.117
 3790TIP3   OH232860   3.822   2.473  11.506
 3790TIP3    H132861   3.885   2.534  11.468
 3790TIP3    H232862   3.876   2.406  11.548
 3791TIP3   OH232863   1.500   4.402  15.395
 3791TIP3    H132864   1.534   4.477  15.445
 3791TIP3    H232865   1.408   4.424  15.379
 3792TIP3   OH232866   0.043   0.845   1.884
 3792TIP3    H132867  -0.019   0.905   1.842
 3792TIP3    H232868   0.098   0.814   1.812
 3793TIP3   OH232869   3.703   1.268  16.017
 3793TIP3    H132870   3.664   1.355  16.004
 3793TIP3    H232871   3.794   1.279  15.987
 3794TIP3   OH232872   4.463   5.418   3.523
 3794TIP3    H132873   4.388   5.368   3.554
 3794TIP3    H232874   4.531   5.402   3.588
 3795TIP3   OH232875   6.042   1.425   3.758
 3795TIP3    H132876   6.084   1.339   3.756
 3795TIP3    H232877   5.986   1.425   3.680
 3796TIP3   OH232878   2.200   1.856  13.090
 3796TIP3    H132879   2.112   1.865  13.053
 3796TIP3    H232880   2.259   1.871  13.015
 3797TIP3   OH232881   5.978   3.454   1.970
 3797TIP3    H132882   5.978   3.385   2.037
 3797TIP3    H232883   5.928   3.526   2.010
 3798TIP3   OH232884   4.003   4.705  17.163
 3798TIP3    H132885   4.020   4.704  17.069
 3798TIP3    H232886   3.909   4.685  17.170
 3799TIP3   OH232887   0.477   3.828  16.883
 3799TIP3    H132888   0.501   3.776  16.806
 3799TIP3    H232889   0.391   3.795  16.908
 3800TIP3   OH232890   1.979   0.817   5.754
 3800TIP3    H132891   2.071   0.792   5.745
 3800TIP3    H232892   1.945   0.760   5.823
 3801TIP3   OH232893   3.669   4.250  10.713
 3801TIP3    H132894   3.704   4.326  10.667
 3801TIP3    H232895   3.601   4.215  10.656
 3802TIP3   OH232896   0.306   0.691   6.235
 3802TIP3    H132897   0.341   0.674   6.322
 3802TIP3    H232898   0.227   0.637   6.229
 3803TIP3   OH232899   5.043   3.387   4.200
 3803TIP3    H132900   5.041   3.355   4.109
 3803TIP3    H232901   5.021   3.480   4.193
 3804TIP3   OH232902   2.819   2.771  13.605
 3804TIP3    H132903   2.787   2.726  13.683
 3804TIP3    H232904   2.867   2.846  13.638
 3805TIP3   OH232905   0.200   6.356   2.137
 3805TIP3    H132906   0.254   6.427   2.102
 3805TIP3    H232907   0.155   6.396   2.212
 3806TIP3   OH232908   6.354   2.223   0.914
 3806TIP3    H132909   6.278   2.252   0.965
 3806TIP3    H232910   6.357   2.284   0.840
 3807TIP3   OH232911   5.986   6.581   1.836
 3807TIP3    H132912   6.040   6.635   1.895
 3807TIP3    H232913   5.990   6.493   1.874
 3808TIP3   OH232914   2.027   4.015  17.013
 3808TIP3    H132915   1.943   3.969  17.018
 3808TIP3    H232916   2.050   4.033  17.103
 3809TIP3   OH232917   6.649   2.653   0.309
 3809TIP3    H132918   6.568   2.633   0.263
 3809TIP3    H232919   6.647   2.596   0.386
 3810TIP3   OH232920   1.191   2.217   4.739
 3810TIP3    H132921   1.114   2.234   4.793
 3810TIP3    H232922   1.155   2.183   4.657
 3811TIP3   OH232923   1.397   1.291   4.544
 3811TIP3    H132924   1.399   1.219   4.481
 3811TIP3    H232925   1.359   1.364   4.495
 3812TIP3   OH232926   0.428   5.699   5.592
 3812TIP3    H132927   0.433   5.721   5.499
 3812TIP3    H232928   0.517   5.674   5.615
 3813TIP3   OH232929   3.375   5.290  16.320
 3813TIP3    H132930   3.316   5.231  16.273
 3813TIP3    H232931   3.421   5.234  16.382
 3814TIP3   OH232932   1.639   4.234  11.498
 3814TIP3    H132933   1.603   4.317  11.465
 3814TIP3    H232934   1.591   4.167  11.450
 3815TIP3   OH232935   2.363   1.557   2.826
 3815TIP3    H132936   2.339   1.468   2.803
 3815TIP3    H232937   2.439   1.548   2.884
 3816TIP3   OH232938   4.757   5.416   5.277
 3816TIP3    H132939   4.711   5.338   5.248
 3816TIP3    H232940   4.833   5.421   5.220
 3817TIP3   OH232941   1.962   4.583   0.227
 3817TIP3    H132942   1.962   4.600   0.321
 3817TIP3    H232943   2.043   4.624   0.195
 3818TIP3   OH232944   4.745   2.700  11.878
 3818TIP3    H132945   4.816   2.697  11.943
 3818TIP3    H232946   4.723   2.608  11.862
 3819TIP3   OH232947   4.566   1.954   5.202
 3819TIP3    H132948   4.548   1.864   5.227
 3819TIP3    H232949   4.516   1.967   5.121
 3820TIP3   OH232950   0.668   4.172   2.341
 3820TIP3    H132951   0.704   4.261   2.342
 3820TIP3    H232952   0.583   4.181   2.298
 3821TIP3   OH232953   3.976   0.816   0.560
 3821TIP3    H132954   3.934   0.739   0.599
 3821TIP3    H232955   3.977   0.797   0.466
 3822TIP3   OH232956   1.930   2.281  13.537
 3822TIP3    H132957   1.972   2.294  13.452
 3822TIP3    H232958   1.905   2.369  13.566
 3823TIP3   OH232959   5.974   0.879   2.213
 3823TIP3    H132960   5.983   0.924   2.297
 3823TIP3    H232961   6.055   0.900   2.167
 3824TIP3   OH232962   4.992   5.652   2.498
 3824TIP3    H132963   5.037   5.721   2.547
 3824TIP3    H232964   4.966   5.693   2.416
 3825TIP3   OH232965   0.421   4.791   3.722
 3825TIP3    H132966   0.456   4.728   3.786
 3825TIP3    H232967   0.496   4.817   3.670
 3826TIP3   OH232968   1.407   4.764  15.377
 3826TIP3    H132969   1.429   4.777  15.470
 3826TIP3    H232970   1.314   4.784  15.371
 3827TIP3   OH232971   0.171   5.015   2.882
 3827TIP3    H132972   0.220   4.934   2.894
 3827TIP3    H232973   0.088   4.988   2.842
 3828TIP3   OH232974   4.251   3.409  11.390
 3828TIP3    H132975   4.155   3.412  11.393
 3828TIP3    H232976   4.279   3.440  11.476
 3829TIP3   OH232977   5.861   3.356  16.343
 3829TIP3    H132978   5.877   3.435  16.396
 3829TIP3    H232979   5.871   3.284  16.405
 3830TIP3   OH232980   6.659   5.863  16.912
 3830TIP3    H132981   6.702   5.948  16.907
 3830TIP3    H232982   6.596   5.873  16.984
 3831TIP3   OH232983   2.548   3.431   5.180
 3831TIP3    H132984   2.512   3.346   5.155
 3831TIP3    H232985   2.641   3.425   5.161
 3832TIP3   OH232986   0.558   5.206  16.598
 3832TIP3    H132987   0.539   5.277  16.537
 3832TIP3    H232988   0.589   5.250  16.677
 3833TIP3   OH232989   4.369   5.110   0.088
 3833TIP3    H132990   4.320   5.031   0.067
 3833TIP3    H232991   4.401   5.095   0.177
 3834TIP3   OH232992   3.541   1.959   5.403
 3834TIP3    H132993   3.457   2.005   5.412
 3834TIP3    H232994   3.597   1.996   5.470
 3835TIP3   OH232995   5.898   4.186  10.875
 3835TIP3    H132996   5.808   4.163  10.895
 3835TIP3    H232997   5.941   4.191  10.960
 3836TIP3   OH232998   2.901   2.250   5.836
 3836TIP3    H132999   2.859   2.322   5.883
 3836TIP3    H233000   2.965   2.215   5.899
 3837TIP3   OH233001   6.497   3.893  10.383
 3837TIP3    H133002   6.420   3.843  10.356
 3837TIP3    H233003   6.565   3.827  10.395
 3838TIP3   OH233004   6.057   0.191   4.529
 3838TIP3    H133005   6.119   0.185   4.602
 3838TIP3    H233006   6.068   0.280   4.496
 3839TIP3   OH233007   2.248   1.189   4.895
 3839TIP3    H133008   2.214   1.236   4.819
 3839TIP3    H233009   2.188   1.115   4.906
 3840TIP3   OH233010   6.619   6.557   5.634
 3840TIP3    H133011   6.585   6.608   5.707
 3840TIP3    H233012   6.649   6.622   5.570
 3841TIP3   OH233013   5.341   3.666   2.467
 3841TIP3    H133014   5.309   3.753   2.490
 3841TIP3    H233015   5.413   3.649   2.528
 3842TIP3   OH233016   5.008   0.055  14.108
 3842TIP3    H133017   4.970   0.132  14.150
 3842TIP3    H233018   4.964   0.050  14.023
 3843TIP3   OH233019   0.826   0.156   5.944
 3843TIP3    H133020   0.880   0.156   6.024
 3843TIP3    H233021   0.756   0.218   5.962
 3844TIP3   OH233022   1.219   5.923   0.881
 3844TIP3    H133023   1.250   5.916   0.791
 3844TIP3    H233024   1.126   5.899   0.876
 3845TIP3   OH233025   4.390   6.049   2.525
 3845TIP3    H133026   4.382   6.144   2.536
 3845TIP3    H233027   4.336   6.012   2.595
 3846TIP3   OH233028   5.356   5.748   3.015
 3846TIP3    H133029   5.286   5.695   3.053
 3846TIP3    H233030   5.411   5.772   3.089
 3847TIP3   OH233031   0.877   4.849  15.259
 3847TIP3    H133032   0.869   4.763  15.301
 3847TIP3    H233033   0.789   4.885  15.262
 3848TIP3   OH233034   0.236   5.488   0.166
 3848TIP3    H133035   0.305   5.506   0.230
 3848TIP3    H233036   0.281   5.443   0.094
 3849TIP3   OH233037   0.359   6.190   0.822
 3849TIP3    H133038   0.422   6.225   0.884
 3849TIP3    H233039   0.410   6.134   0.764
 3850TIP3   OH233040   5.857   1.351   1.507
 3850TIP3    H133041   5.790   1.351   1.440
 3850TIP3    H233042   5.823   1.408   1.576
 3851TIP3   OH233043   1.992   2.581   5.987
 3851TIP3    H133044   2.021   2.606   6.074
 3851TIP3    H233045   1.896   2.584   5.992
 3852TIP3   OH233046   0.039   0.899  12.069
 3852TIP3    H133047   0.019   0.837  12.139
 3852TIP3    H233048   0.072   0.844  11.998
 3853TIP3   OH233049   2.198   0.291   4.216
 3853TIP3    H133050   2.208   0.340   4.135
 3853TIP3    H233051   2.246   0.343   4.281
 3854TIP3   OH233052   6.712   3.941  14.410
 3854TIP3    H133053   6.643   3.914  14.469
 3854TIP3    H233054   6.677   3.924  14.322
 3855TIP3   OH233055   2.069   0.364   4.916
 3855TIP3    H133056   1.980   0.367   4.880
 3855TIP3    H233057   2.124   0.398   4.846
 3856TIP3   OH233058   2.710   1.134   4.325
 3856TIP3    H133059   2.671   1.198   4.385
 3856TIP3    H233060   2.803   1.132   4.350
 3857TIP3   OH233061   6.645   4.982   2.783
 3857TIP3    H133062   6.563   4.953   2.742
 3857TIP3    H233063   6.661   4.918   2.852
 3858TIP3   OH233064   0.157   2.741   4.414
 3858TIP3    H133065   0.153   2.814   4.476
 3858TIP3    H233066   0.081   2.754   4.357
 3859TIP3   OH233067   4.362   4.780   0.627
 3859TIP3    H133068   4.354   4.805   0.535
 3859TIP3    H233069   4.385   4.861   0.672
 3860TIP3   OH233070   3.712   0.793  11.749
 3860TIP3    H133071   3.659   0.743  11.688
 3860TIP3    H233072   3.784   0.734  11.772
 3861TIP3   OH233073   1.955   2.633  14.229
 3861TIP3    H133074   1.978   2.714  14.273
 3861TIP3    H233075   1.878   2.601  14.276
 3862TIP3   OH233076   1.441   1.505  13.851
 3862TIP3    H133077   1.435   1.474  13.941
 3862TIP3    H233078   1.534   1.503  13.831
 3863TIP3   OH233079   5.832   6.640   5.215
 3863TIP3    H133080   5.878   6.657   5.297
 3863TIP3    H233081   5.897   6.660   5.147
 3864TIP3   OH233082   4.801   6.352  14.101
 3864TIP3    H133083   4.891   6.318  14.099
 3864TIP3    H233084   4.751   6.284  14.146
 3865TIP3   OH233085   4.483   2.224   3.923
 3865TIP3    H133086   4.543   2.221   3.848
 3865TIP3    H233087   4.540   2.220   4.000
 3866TIP3   OH233088   3.114   4.179   5.036
 3866TIP3    H133089   3.026   4.140   5.042
 3866TIP3    H233090   3.146   4.180   5.126
 3867TIP3   OH233091   5.520   3.685  14.283
 3867TIP3    H133092   5.516   3.590  14.268
 3867TIP3    H233093   5.531   3.723  14.196
 3868TIP3   OH233094   6.498   2.802   4.737
 3868TIP3    H133095   6.501   2.724   4.793
 3868TIP3    H233096   6.579   2.798   4.685
 3869TIP3   OH233097   1.863   1.409   1.003
 3869TIP3    H133098   1.883   1.405   1.096
 3869TIP3    H233099   1.948   1.407   0.960
 3870TIP3   OH233100   2.934   2.954   2.896
 3870TIP3    H133101   2.922   2.944   2.991
 3870TIP3    H233102   2.972   2.870   2.869
 3871TIP3   OH233103   1.618   6.378   5.045
 3871TIP3    H133104   1.630   6.358   5.138
 3871TIP3    H233105   1.691   6.334   5.002
 3872TIP3   OH233106   0.656   5.519   5.615
 3872TIP3    H133107   0.715   5.443   5.618
 3872TIP3    H233108   0.596   5.500   5.542
 3873TIP3   OH233109   2.204   1.793   0.980
 3873TIP3    H133110   2.169   1.725   0.922
 3873TIP3    H233111   2.277   1.832   0.931
 3874TIP3   OH233112   2.444   1.063   5.164
 3874TIP3    H133113   2.501   1.016   5.102
 3874TIP3    H233114   2.358   1.024   5.151
 3875TIP3   OH233115   3.871   0.282  12.993
 3875TIP3    H133116   3.843   0.336  13.067
 3875TIP3    H233117   3.967   0.279  13.001
 3876TIP3   OH233118   5.712   1.977  14.142
 3876TIP3    H133119   5.667   2.060  14.158
 3876TIP3    H233120   5.752   1.988  14.056
 3877TIP3   OH233121   4.642   5.084   4.601
 3877TIP3    H133122   4.590   5.098   4.522
 3877TIP3    H233123   4.634   4.990   4.619
 3878TIP3   OH233124   0.264   3.081   4.397
 3878TIP3    H133125   0.280   3.174   4.411
 3878TIP3    H233126   0.322   3.057   4.324
 3879TIP3   OH233127   5.789   2.207  14.436
 3879TIP3    H133128   5.753   2.259  14.364
 3879TIP3    H233129   5.884   2.214  14.424
 3880TIP3   OH233130   0.576   5.388  12.630
 3880TIP3    H133131   0.512   5.394  12.701
 3880TIP3    H233132   0.660   5.377  12.673
 3881TIP3   OH233133   5.228   0.213  14.161
 3881TIP3    H133134   5.158   0.275  14.141
 3881TIP3    H233135   5.219   0.144  14.095
 3882TIP3   OH233136   5.960   4.663  12.175
 3882TIP3    H133137   6.031   4.635  12.232
 3882TIP3    H233138   5.998   4.731  12.120
 3883TIP3   OH233139   2.982   3.757  14.627
 3883TIP3    H133140   3.024   3.713  14.553
 3883TIP3    H233141   2.951   3.840  14.591
 3884TIP3   OH233142   4.379   1.581   3.617
 3884TIP3    H133143   4.289   1.596   3.647
 3884TIP3    H233144   4.402   1.496   3.653
 3885TIP3   OH233145   5.339   6.679   0.254
 3885TIP3    H133146   5.366   6.641   0.337
 3885TIP3    H233147   5.250   6.712   0.271
 3886TIP3   OH233148   2.253   3.561  16.764
 3886TIP3    H133149   2.256   3.550  16.859
 3886TIP3    H233150   2.226   3.652  16.752
 3887TIP3   OH233151   2.161   5.393  13.866
 3887TIP3    H133152   2.218   5.322  13.836
 3887TIP3    H233153   2.191   5.413  13.955
 3888TIP3   OH233154   1.225   0.509  11.163
 3888TIP3    H133155   1.245   0.587  11.112
 3888TIP3    H233156   1.192   0.542  11.247
 3889TIP3   OH233157   3.873   6.157  13.165
 3889TIP3    H133158   3.792   6.207  13.174
 3889TIP3    H233159   3.904   6.175  13.076
 3890TIP3   OH233160   5.003   4.093   5.358
 3890TIP3    H133161   4.981   4.171   5.410
 3890TIP3    H233162   4.965   4.111   5.272
 3891TIP3   OH233163   1.432   5.234  12.128
 3891TIP3    H133164   1.508   5.292  12.114
 3891TIP3    H233165   1.377   5.248  12.052
 3892TIP3   OH233166   6.420   2.170  16.895
 3892TIP3    H133167   6.363   2.148  16.969
 3892TIP3    H233168   6.430   2.088  16.846
 3893TIP3   OH233169   5.052   0.717   3.321
 3893TIP3    H133170   5.042   0.667   3.240
 3893TIP3    H233171   4.984   0.784   3.317
 3894TIP3   OH233172   5.098   2.987  11.368
 3894TIP3    H133173   5.091   3.020  11.279
 3894TIP3    H233174   5.041   2.911  11.370
 3895TIP3   OH233175   3.571   5.870   4.914
 3895TIP3    H133176   3.556   5.842   4.824
 3895TIP3    H233177   3.506   5.939   4.929
 3896TIP3   OH233178   0.577   4.217  13.812
 3896TIP3    H133179   0.541   4.258  13.890
 3896TIP3    H233180   0.529   4.134  13.804
 3897TIP3   OH233181   0.683   2.606   3.823
 3897TIP3    H133182   0.638   2.653   3.753
 3897TIP3    H233183   0.738   2.672   3.865
 3898TIP3   OH233184   1.066   2.677  12.444
 3898TIP3    H133185   1.072   2.597  12.392
 3898TIP3    H233186   1.100   2.746  12.388
 3899TIP3   OH233187   5.126   3.064  10.294
 3899TIP3    H133188   5.090   3.050  10.381
 3899TIP3    H233189   5.120   2.979  10.251
 3900TIP3   OH233190   0.888   5.780  12.747
 3900TIP3    H133191   0.824   5.846  12.722
 3900TIP3    H233192   0.928   5.753  12.664
 3901TIP3   OH233193   4.918   0.827  14.876
 3901TIP3    H133194   4.860   0.815  14.801
 3901TIP3    H233195   4.859   0.855  14.947
 3902TIP3   OH233196   1.580   0.001   4.774
 3902TIP3    H133197   1.567   0.052   4.854
 3902TIP3    H233198   1.499  -0.048   4.763
 3903TIP3   OH233199   4.741   4.958  14.991
 3903TIP3    H133200   4.779   5.016  15.057
 3903TIP3    H233201   4.776   4.871  15.013
 3904TIP3   OH233202   0.906   2.938  13.177
 3904TIP3    H133203   0.956   3.019  13.166
 3904TIP3    H233204   0.816   2.962  13.157
 3905TIP3   OH233205   3.154   1.296   1.887
 3905TIP3    H133206   3.111   1.211   1.892
 3905TIP3    H233207   3.089   1.358   1.921
 3906TIP3   OH233208   0.706   2.678   0.158
 3906TIP3    H133209   0.679   2.664   0.067
 3906TIP3    H233210   0.785   2.731   0.153
 3907TIP3   OH233211   4.917   2.524   2.657
 3907TIP3    H133212   4.922   2.605   2.606
 3907TIP3    H233213   5.007   2.493   2.661
 3908TIP3   OH233214   6.127   4.305  16.752
 3908TIP3    H133215   6.124   4.365  16.677
 3908TIP3    H233216   6.207   4.254  16.738
 3909TIP3   OH233217   6.244   4.459  11.394
 3909TIP3    H133218   6.231   4.426  11.305
 3909TIP3    H233219   6.337   4.449  11.410
 3910TIP3   OH233220   0.167   4.646   5.793
 3910TIP3    H133221   0.144   4.726   5.746
 3910TIP3    H233222   0.236   4.606   5.740
 3911TIP3   OH233223   1.859   4.811   4.954
 3911TIP3    H133224   1.887   4.755   4.881
 3911TIP3    H233225   1.764   4.799   4.959
 3912TIP3   OH233226   4.489   1.953  15.848
 3912TIP3    H133227   4.501   1.859  15.862
 3912TIP3    H233228   4.557   1.995  15.902
 3913TIP3   OH233229   4.832   5.997  14.067
 3913TIP3    H133230   4.785   5.983  13.984
 3913TIP3    H233231   4.923   5.977  14.047
 3914TIP3   OH233232   6.518   3.092   4.825
 3914TIP3    H133233   6.497   3.184   4.838
 3914TIP3    H233234   6.436   3.053   4.794
 3915TIP3   OH233235   1.653   1.316   3.479
 3915TIP3    H133236   1.673   1.408   3.464
 3915TIP3    H233237   1.560   1.313   3.500
 3916TIP3   OH233238   6.725   0.198  12.463
 3916TIP3    H133239   6.633   0.173  12.474
 3916TIP3    H233240   6.770   0.116  12.443
 3917TIP3   OH233241   2.198   4.754   4.860
 3917TIP3    H133242   2.164   4.842   4.843
 3917TIP3    H233243   2.120   4.699   4.865
 3918TIP3   OH233244   5.812   4.955  17.241
 3918TIP3    H133245   5.835   4.969  17.149
 3918TIP3    H233246   5.731   4.905  17.238
 3919TIP3   OH233247   3.658   4.631   1.894
 3919TIP3    H133248   3.626   4.575   1.823
 3919TIP3    H233249   3.753   4.635   1.881
 3920TIP3   OH233250   5.794   5.458   1.203
 3920TIP3    H133251   5.778   5.442   1.110
 3920TIP3    H233252   5.882   5.424   1.218
 3921TIP3   OH233253   0.166   0.329   4.424
 3921TIP3    H133254   0.174   0.367   4.511
 3921TIP3    H233255   0.072   0.310   4.415
 3922TIP3   OH233256   2.977   5.399  13.474
 3922TIP3    H133257   2.900   5.354  13.437
 3922TIP3    H233258   2.992   5.472  13.415
 3923TIP3   OH233259   4.823   5.344   3.854
 3923TIP3    H133260   4.849   5.396   3.930
 3923TIP3    H233261   4.882   5.269   3.854
 3924TIP3   OH233262   2.557   0.320  15.899
 3924TIP3    H133263   2.487   0.377  15.869
 3924TIP3    H233264   2.515   0.235  15.911
 3925TIP3   OH233265   2.726   2.300   2.479
 3925TIP3    H133266   2.712   2.237   2.550
 3925TIP3    H233267   2.689   2.382   2.512
 3926TIP3   OH233268   4.543   4.006   4.886
 3926TIP3    H133269   4.448   4.015   4.880
 3926TIP3    H233270   4.556   3.941   4.956
 3927TIP3   OH233271   4.689   4.923   5.950
 3927TIP3    H133272   4.593   4.931   5.954
 3927TIP3    H233273   4.717   5.001   5.902
 3928TIP3   OH233274   6.725   1.091  12.244
 3928TIP3    H133275   6.666   1.037  12.296
 3928TIP3    H233276   6.782   1.028  12.198
 3929TIP3   OH233277   1.473   1.598   2.217
 3929TIP3    H133278   1.492   1.509   2.186
 3929TIP3    H233279   1.413   1.586   2.290
 3930TIP3   OH233280   1.265   1.127   0.532
 3930TIP3    H133281   1.316   1.155   0.456
 3930TIP3    H233282   1.175   1.151   0.510
 3931TIP3   OH233283   3.156   5.440  16.381
 3931TIP3    H133284   3.105   5.478  16.309
 3931TIP3    H233285   3.245   5.434  16.347
 3932TIP3   OH233286   5.839   4.220   5.085
 3932TIP3    H133287   5.743   4.221   5.089
 3932TIP3    H233288   5.862   4.127   5.094
 3933TIP3   OH233289   0.017   3.616  16.196
 3933TIP3    H133290  -0.022   3.641  16.280
 3933TIP3    H233291   0.111   3.619  16.211
 3934TIP3   OH233292   2.130   5.478  11.171
 3934TIP3    H133293   2.207   5.535  11.174
 3934TIP3    H233294   2.166   5.390  11.180
 3935TIP3   OH233295   2.606   4.355  15.493
 3935TIP3    H133296   2.623   4.300  15.570
 3935TIP3    H233297   2.583   4.441  15.529
 3936TIP3   OH233298   3.696   6.213   3.966
 3936TIP3    H133299   3.711   6.307   3.953
 3936TIP3    H233300   3.769   6.171   3.920
 3937TIP3   OH233301   5.108   0.406   1.171
 3937TIP3    H133302   5.097   0.311   1.164
 3937TIP3    H233303   5.140   0.433   1.085
 3938TIP3   OH233304   5.854   5.958  11.792
 3938TIP3    H133305   5.932   6.012  11.784
 3938TIP3    H233306   5.860   5.896  11.719
 3939TIP3   OH233307   5.060   3.565  12.397
 3939TIP3    H133308   5.086   3.485  12.442
 3939TIP3    H233309   4.982   3.595  12.443
 3940TIP3   OH233310   4.197   0.058  11.757
 3940TIP3    H133311   4.125   0.092  11.809
 3940TIP3    H233312   4.269   0.120  11.772
 3941TIP3   OH233313   3.187   5.545   5.508
 3941TIP3    H133314   3.198   5.560   5.414
 3941TIP3    H233315   3.167   5.632   5.544
 3942TIP3   OH233316   6.725   4.409   5.853
 3942TIP3    H133317   6.650   4.380   5.801
 3942TIP3    H233318   6.783   4.451   5.789
 3943TIP3   OH233319   2.642   3.563  15.691
 3943TIP3    H133320   2.689   3.584  15.772
 3943TIP3    H233321   2.643   3.644  15.641
 3944TIP3   OH233322   6.205   4.502  17.001
 3944TIP3    H133323   6.170   4.431  17.055
 3944TIP3    H233324   6.145   4.507  16.927
 3945TIP3   OH233325   3.825   2.154   0.212
 3945TIP3    H133326   3.745   2.129   0.165
 3945TIP3    H233327   3.881   2.193   0.144
 3946TIP3   OH233328   6.472   5.788   4.973
 3946TIP3    H133329   6.463   5.859   5.037
 3946TIP3    H233330   6.564   5.792   4.947
 3947TIP3   OH233331   3.984   3.866   1.171
 3947TIP3    H133332   3.938   3.913   1.102
 3947TIP3    H233333   3.963   3.913   1.251
 3948TIP3   OH233334   0.373   4.588   1.359
 3948TIP3    H133335   0.419   4.508   1.383
 3948TIP3    H233336   0.300   4.558   1.305
 3949TIP3   OH233337   4.117   0.842  12.195
 3949TIP3    H133338   4.097   0.871  12.106
 3949TIP3    H233339   4.076   0.908  12.251
 3950TIP3   OH233340   4.546   2.894   1.198
 3950TIP3    H133341   4.540   2.808   1.156
 3950TIP3    H233342   4.567   2.954   1.127
 3951TIP3   OH233343   6.566   1.531   5.920
 3951TIP3    H133344   6.548   1.468   5.990
 3951TIP3    H233345   6.480   1.565   5.896
 3952TIP3   OH233346   5.046   1.672   2.023
 3952TIP3    H133347   4.979   1.614   2.061
 3952TIP3    H233348   5.105   1.690   2.096
 3953TIP3   OH233349   2.030   5.874  12.455
 3953TIP3    H133350   2.025   5.791  12.502
 3953TIP3    H233351   2.086   5.929  12.509
 3954TIP3   OH233352   0.848   2.433  16.281
 3954TIP3    H133353   0.772   2.377  16.297
 3954TIP3    H233354   0.823   2.519  16.315
 3955TIP3   OH233355   5.352   3.706   5.149
 3955TIP3    H133356   5.378   3.774   5.212
 3955TIP3    H233357   5.300   3.752   5.084
 3956TIP3   OH233358   2.059   2.910  14.005
 3956TIP3    H133359   2.151   2.934  14.016
 3956TIP3    H233360   2.022   2.916  14.093
 3957TIP3   OH233361   2.365   6.189  10.984
 3957TIP3    H133362   2.414   6.237  10.917
 3957TIP3    H233363   2.417   6.198  11.063
 3958TIP3   OH233364   0.547   1.883   0.272
 3958TIP3    H133365   0.577   1.816   0.333
 3958TIP3    H233366   0.482   1.839   0.217
 3959TIP3   OH233367   6.542   5.317  16.298
 3959TIP3    H133368   6.593   5.397  16.284
 3959TIP3    H233369   6.453   5.341  16.275
 3960TIP3   OH233370   3.930   1.413   0.099
 3960TIP3    H133371   3.989   1.395   0.026
 3960TIP3    H233372   3.982   1.469   0.158
 3961TIP3   OH233373   2.755   0.108  11.910
 3961TIP3    H133374   2.831   0.062  11.945
 3961TIP3    H233375   2.692   0.110  11.982
 3962TIP3   OH233376   4.796   3.409   2.043
 3962TIP3    H133377   4.862   3.456   2.094
 3962TIP3    H233378   4.721   3.468   2.041
 3963TIP3   OH233379   1.281   2.034   3.403
 3963TIP3    H133380   1.200   2.084   3.412
 3963TIP3    H233381   1.329   2.078   3.333
 3964TIP3   OH233382   4.144   1.236   1.604
 3964TIP3    H133383   4.235   1.266   1.599
 3964TIP3    H233384   4.151   1.141   1.611
 3965TIP3   OH233385   3.620   6.308  13.108
 3965TIP3    H133386   3.564   6.303  13.186
 3965TIP3    H233387   3.581   6.246  13.046
 3966TIP3   OH233388   1.952   1.105  13.177
 3966TIP3    H133389   1.943   1.011  13.193
 3966TIP3    H233390   1.911   1.146  13.253
 3967TIP3   OH233391   4.126   6.427   4.729
 3967TIP3    H133392   4.212   6.469   4.738
 3967TIP3    H233393   4.077   6.485   4.671
 3968TIP3   OH233394   6.651   2.228  12.903
 3968TIP3    H133395   6.621   2.159  12.843
 3968TIP3    H233396   6.724   2.188  12.950
 3969TIP3   OH233397   2.396   3.947  15.906
 3969TIP3    H133398   2.413   4.026  15.958
 3969TIP3    H233399   2.478   3.931  15.859
 3970TIP3   OH233400   2.245   4.882   2.807
 3970TIP3    H133401   2.222   4.972   2.785
 3970TIP3    H233402   2.165   4.832   2.792
 3971TIP3   OH233403   0.670   2.628   0.962
 3971TIP3    H133404   0.696   2.705   0.912
 3971TIP3    H233405   0.587   2.601   0.923
 3972TIP3   OH233406   2.693   5.892  13.428
 3972TIP3    H133407   2.597   5.899  13.430
 3972TIP3    H233408   2.722   5.977  13.395
 3973TIP3   OH233409   2.566   6.008  16.915
 3973TIP3    H133410   2.484   6.010  16.865
 3973TIP3    H233411   2.569   6.093  16.959
 3974TIP3   OH233412   6.725   2.704   4.223
 3974TIP3    H133413   6.692   2.616   4.242
 3974TIP3    H233414   6.674   2.762   4.278
 3975TIP3   OH233415   3.935   1.717   4.851
 3975TIP3    H133416   3.977   1.732   4.935
 3975TIP3    H233417   4.007   1.713   4.788
 3976TIP3   OH233418   4.904   6.168   2.450
 3976TIP3    H133419   4.833   6.105   2.441
 3976TIP3    H233420   4.943   6.174   2.362
 3977TIP3   OH233421   6.125   1.466  11.383
 3977TIP3    H133422   6.033   1.457  11.360
 3977TIP3    H233423   6.125   1.521  11.461
 3978TIP3   OH233424   1.006   6.145  17.181
 3978TIP3    H133425   0.962   6.069  17.218
 3978TIP3    H233426   0.935   6.200  17.146
 3979TIP3   OH233427   0.126   3.424  10.996
 3979TIP3    H133428   0.217   3.452  10.993
 3979TIP3    H233429   0.113   3.395  11.086
 3980TIP3   OH233430   5.312   3.886   3.215
 3980TIP3    H133431   5.313   3.874   3.310
 3980TIP3    H233432   5.404   3.901   3.192
 3981TIP3   OH233433   0.311   1.788  11.337
 3981TIP3    H133434   0.322   1.882  11.346
 3981TIP3    H233435   0.385   1.760  11.284
 3982TIP3   OH233436   0.326   0.755  15.105
 3982TIP3    H133437   0.333   0.661  15.124
 3982TIP3    H233438   0.295   0.758  15.015
 3983TIP3   OH233439   6.321   5.524  14.514
 3983TIP3    H133440   6.266   5.568  14.579
 3983TIP3    H233441   6.409   5.526  14.551
 3984TIP3   OH233442   2.027   4.367   0.063
 3984TIP3    H133443   2.010   4.412  -0.020
 3984TIP3    H233444   2.001   4.430   0.130
 3985TIP3   OH233445   1.967   2.504  11.702
 3985TIP3    H133446   1.872   2.516  11.697
 3985TIP3    H233447   1.981   2.413  11.679
 3986TIP3   OH233448   1.884   3.823  16.470
 3986TIP3    H133449   1.942   3.866  16.407
 3986TIP3    H233450   1.886   3.880  16.547
 3987TIP3   OH233451   2.188   3.218  15.769
 3987TIP3    H133452   2.218   3.145  15.714
 3987TIP3    H233453   2.266   3.274  15.778
 3988TIP3   OH233454   0.396   1.857   1.853
 3988TIP3    H133455   0.416   1.914   1.779
 3988TIP3    H233456   0.383   1.771   1.814
 3989TIP3   OH233457   3.723   1.243   0.120
 3989TIP3    H133458   3.800   1.294   0.145
 3989TIP3    H233459   3.749   1.198   0.040
 3990TIP3   OH233460   6.738   3.339   5.545
 3990TIP3    H133461   6.658   3.305   5.584
 3990TIP3    H233462   6.710   3.381   5.464
 3991TIP3   OH233463   3.231   5.204   4.778
 3991TIP3    H133464   3.323   5.207   4.805
 3991TIP3    H233465   3.186   5.261   4.841
 3992TIP3   OH233466   2.386   1.658   4.880
 3992TIP3    H133467   2.376   1.575   4.927
 3992TIP3    H233468   2.456   1.704   4.926
 3993TIP3   OH233469   1.084   4.375   3.944
 3993TIP3    H133470   1.106   4.296   3.994
 3993TIP3    H233471   1.144   4.442   3.978
 3994TIP3   OH233472   2.583   0.645   4.433
 3994TIP3    H133473   2.520   0.664   4.363
 3994TIP3    H233474   2.635   0.572   4.399
 3995TIP3   OH233475   0.894   2.098   4.809
 3995TIP3    H133476   0.853   2.146   4.737
 3995TIP3    H233477   0.889   2.006   4.782
 3996TIP3   OH233478   4.993   0.401   3.085
 3996TIP3    H133479   5.045   0.418   3.163
 3996TIP3    H233480   4.975   0.488   3.049
 3997TIP3   OH233481   5.879   0.523  15.273
 3997TIP3    H133482   5.891   0.547  15.364
 3997TIP3    H233483   5.786   0.539  15.256
 3998TIP3   OH233484   0.847   0.862  12.697
 3998TIP3    H133485   0.832   0.792  12.633
 3998TIP3    H233486   0.939   0.886  12.685
 3999TIP3   OH233487   2.728   6.688  16.073
 3999TIP3    H133488   2.737   6.780  16.051
 3999TIP3    H233489   2.683   6.649  15.998
 4000TIP3   OH233490   5.228   1.485  12.724
 4000TIP3    H133491   5.144   1.517  12.689
 4000TIP3    H233492   5.292   1.507  12.656
 4001TIP3   OH233493   4.950   4.442   0.310
 4001TIP3    H133494   4.878   4.493   0.346
 4001TIP3    H233495   4.910   4.360   0.282
 4002TIP3   OH233496   1.666   4.468   3.168
 4002TIP3    H133497   1.707   4.544   3.126
 4002TIP3    H233498   1.577   4.498   3.189
 4003TIP3   OH233499   3.331   3.854  12.321
 4003TIP3    H133500   3.276   3.801  12.263
 4003TIP3    H233501   3.419   3.844  12.285
 4004TIP3   OH233502   5.494   3.562   4.254
 4004TIP3    H133503   5.427   3.498   4.279
 4004TIP3    H233504   5.461   3.602   4.174
 4005TIP3   OH233505   2.121   4.867  11.550
 4005TIP3    H133506   2.176   4.872  11.628
 4005TIP3    H233507   2.128   4.776  11.520
 4006TIP3   OH233508   3.638   2.589  13.887
 4006TIP3    H133509   3.726   2.627  13.885
 4006TIP3    H233510   3.586   2.652  13.936
 4007TIP3   OH233511   3.312   5.134   2.668
 4007TIP3    H133512   3.266   5.201   2.619
 4007TIP3    H233513   3.268   5.130   2.752
 4008TIP3   OH233514   3.184   4.053   3.245
 4008TIP3    H133515   3.130   3.974   3.235
 4008TIP3    H233516   3.218   4.047   3.334
 4009TIP3   OH233517   6.332   0.934  17.220
 4009TIP3    H133518   6.274   0.877  17.271
 4009TIP3    H233519   6.278   1.011  17.201
 4010TIP3   OH233520   3.887   4.529   4.783
 4010TIP3    H133521   3.881   4.473   4.706
 4010TIP3    H233522   3.821   4.597   4.769
 4011TIP3   OH233523   5.093   2.843  14.952
 4011TIP3    H133524   5.017   2.891  14.984
 4011TIP3    H233525   5.057   2.779  14.890
 4012TIP3   OH233526   3.246   2.270  14.037
 4012TIP3    H133527   3.318   2.232  13.986
 4012TIP3    H233528   3.223   2.200  14.099
 4013TIP3   OH233529   1.533   4.052   0.444
 4013TIP3    H133530   1.468   3.999   0.490
 4013TIP3    H233531   1.547   4.005   0.362
 4014TIP3   OH233532   0.256   3.821   5.237
 4014TIP3    H133533   0.324   3.810   5.304
 4014TIP3    H233534   0.181   3.771   5.270
 4015TIP3   OH233535   1.880   2.799   1.169
 4015TIP3    H133536   1.951   2.804   1.106
 4015TIP3    H233537   1.837   2.884   1.166
 4016TIP3   OH233538   0.999   5.789   3.754
 4016TIP3    H133539   0.971   5.877   3.729
 4016TIP3    H233540   0.934   5.730   3.715
 4017TIP3   OH233541   0.843   0.277  11.756
 4017TIP3    H133542   0.921   0.301  11.706
 4017TIP3    H233543   0.852   0.183  11.771
 4018TIP3   OH233544   3.919   1.542   2.004
 4018TIP3    H133545   3.919   1.633   2.031
 4018TIP3    H233546   3.851   1.536   1.937
 4019TIP3   OH233547   4.030   4.713   4.049
 4019TIP3    H133548   4.000   4.801   4.024
 4019TIP3    H233549   4.121   4.710   4.020
 4020TIP3   OH233550   3.462   0.318  16.080
 4020TIP3    H133551   3.387   0.292  16.026
 4020TIP3    H233552   3.430   0.390  16.133
 4021TIP3   OH233553   3.353   2.134  11.479
 4021TIP3    H133554   3.302   2.057  11.503
 4021TIP3    H233555   3.311   2.206  11.526
 4022TIP3   OH233556   2.197   3.309  13.880
 4022TIP3    H133557   2.241   3.385  13.842
 4022TIP3    H233558   2.226   3.309  13.972
 4023TIP3   OH233559   4.934   0.869  16.388
 4023TIP3    H133560   5.020   0.865  16.347
 4023TIP3    H233561   4.878   0.911  16.323
 4024TIP3   OH233562   6.716   3.871  13.874
 4024TIP3    H133563   6.628   3.839  13.857
 4024TIP3    H233564   6.720   3.956  13.830
 4025TIP3   OH233565   3.414   6.005  13.666
 4025TIP3    H133566   3.322   5.979  13.668
 4025TIP3    H233567   3.437   6.022  13.757
 4026TIP3   OH233568   4.439   4.798   1.001
 4026TIP3    H133569   4.426   4.703   0.992
 4026TIP3    H233570   4.351   4.833   1.014
 4027TIP3   OH233571   5.015   5.783   3.153
 4027TIP3    H133572   5.063   5.800   3.234
 4027TIP3    H233573   4.922   5.788   3.179
 4028TIP3   OH233574   4.238   3.379  15.321
 4028TIP3    H133575   4.173   3.314  15.295
 4028TIP3    H233576   4.194   3.432  15.387
 4029TIP3   OH233577   5.961   3.123   1.290
 4029TIP3    H133578   6.002   3.156   1.370
 4029TIP3    H233579   5.954   3.200   1.233
 4030TIP3   OH233580   1.979   2.590   6.526
 4030TIP3    H133581   2.020   2.560   6.445
 4030TIP3    H233582   1.890   2.554   6.522
 4031TIP3   OH233583   2.868   1.221   0.815
 4031TIP3    H133584   2.926   1.213   0.739
 4031TIP3    H233585   2.861   1.132   0.849
 4032TIP3   OH233586   0.447   3.172   6.494
 4032TIP3    H133587   0.464   3.077   6.491
 4032TIP3    H233588   0.502   3.203   6.566
 4033TIP3   OH233589   4.669   1.531  16.437
 4033TIP3    H133590   4.633   1.463  16.494
 4033TIP3    H233591   4.764   1.517  16.441
 4034TIP3   OH233592   3.811   0.014   6.304
 4034TIP3    H133593   3.846  -0.052   6.364
 4034TIP3    H233594   3.843   0.097   6.339
 4035TIP3   OH233595   2.758   1.638   3.729
 4035TIP3    H133596   2.714   1.651   3.813
 4035TIP3    H233597   2.815   1.714   3.719
 4036TIP3   OH233598   0.164   4.524   3.492
 4036TIP3    H133599   0.235   4.581   3.464
 4036TIP3    H233600   0.170   4.523   3.587
 4037TIP3   OH233601   1.398   1.347  12.601
 4037TIP3    H133602   1.452   1.392  12.666
 4037TIP3    H233603   1.457   1.330  12.528
 4038TIP3   OH233604   0.366   5.981   1.103
 4038TIP3    H133605   0.374   5.886   1.091
 4038TIP3    H233606   0.388   6.018   1.017
 4039TIP3   OH233607   2.958   6.788   3.340
 4039TIP3    H133608   2.965   6.843   3.262
 4039TIP3    H233609   2.906   6.840   3.401
 4040TIP3   OH233610   3.088   6.329   1.218
 4040TIP3    H133611   3.087   6.403   1.279
 4040TIP3    H233612   3.179   6.298   1.218
 4041TIP3   OH233613   1.436   3.307  12.867
 4041TIP3    H133614   1.476   3.352  12.793
 4041TIP3    H233615   1.448   3.214  12.847
 4042TIP3   OH233616   5.004   4.615  13.676
 4042TIP3    H133617   4.909   4.613  13.662
 4042TIP3    H233618   5.019   4.549  13.743
 4043TIP3   OH233619   2.606   4.136  15.637
 4043TIP3    H133620   2.625   4.077  15.710
 4043TIP3    H233621   2.683   4.129  15.580
 4044TIP3   OH233622   2.431   2.800   0.458
 4044TIP3    H133623   2.439   2.823   0.365
 4044TIP3    H233624   2.463   2.878   0.505
 4045TIP3   OH233625   1.457   5.063  17.153
 4045TIP3    H133626   1.526   5.050  17.218
 4045TIP3    H233627   1.464   4.987  17.095
 4046TIP3   OH233628   0.201   2.360  12.063
 4046TIP3    H133629   0.140   2.307  12.115
 4046TIP3    H233630   0.224   2.434  12.120
 4047TIP3   OH233631   5.521   3.364   3.759
 4047TIP3    H133632   5.529   3.409   3.843
 4047TIP3    H233633   5.473   3.284   3.780
 4048TIP3   OH233634   2.131   5.776   1.165
 4048TIP3    H133635   2.106   5.778   1.257
 4048TIP3    H233636   2.115   5.865   1.133
 4049TIP3   OH233637   4.390   0.088  10.449
 4049TIP3    H133638   4.440   0.146  10.505
 4049TIP3    H233639   4.443   0.008  10.443
 4050TIP3   OH233640   6.382   6.760   1.968
 4050TIP3    H133641   6.450   6.697   1.947
 4050TIP3    H233642   6.323   6.759   1.892
 4051TIP3   OH233643   1.004   6.369   6.298
 4051TIP3    H133644   1.079   6.373   6.238
 4051TIP3    H233645   0.935   6.326   6.247
 4052TIP3   OH233646   5.810   2.008   0.270
 4052TIP3    H133647   5.780   1.947   0.202
 4052TIP3    H233648   5.732   2.027   0.321
 4053TIP3   OH233649   0.857   4.215   1.652
 4053TIP3    H133650   0.922   4.220   1.582
 4053TIP3    H233651   0.873   4.131   1.694
 4054TIP3   OH233652   6.354   3.395  16.061
 4054TIP3    H133653   6.281   3.396  16.123
 4054TIP3    H233654   6.378   3.487  16.052
 4055TIP3   OH233655   1.738   6.338  15.953
 4055TIP3    H133656   1.811   6.361  16.010
 4055TIP3    H233657   1.684   6.279  16.006
 4056TIP3   OH233658   0.783   2.854   2.769
 4056TIP3    H133659   0.787   2.809   2.684
 4056TIP3    H233660   0.711   2.916   2.760
 4057TIP3   OH233661   3.842   5.114   5.555
 4057TIP3    H133662   3.801   5.185   5.604
 4057TIP3    H233663   3.932   5.142   5.541
 4058TIP3   OH233664   5.551   0.318  17.196
 4058TIP3    H133665   5.584   0.289  17.282
 4058TIP3    H233666   5.502   0.398  17.216
 4059TIP3   OH233667   1.197   6.302   4.269
 4059TIP3    H133668   1.204   6.362   4.195
 4059TIP3    H233669   1.287   6.286   4.295
 4060TIP3   OH233670   3.021   5.195  13.052
 4060TIP3    H133671   2.995   5.277  13.093
 4060TIP3    H233672   3.013   5.211  12.958
 4061TIP3   OH233673   2.788   1.537   2.222
 4061TIP3    H133674   2.744   1.610   2.265
 4061TIP3    H233675   2.799   1.471   2.290
 4062TIP3   OH233676   1.351   4.132  14.998
 4062TIP3    H133677   1.268   4.106  15.037
 4062TIP3    H233678   1.414   4.069  15.032
 4063TIP3   OH233679   3.310   0.863  12.514
 4063TIP3    H133680   3.324   0.770  12.533
 4063TIP3    H233681   3.378   0.908  12.564
 4064TIP3   OH233682   0.960   3.473   1.219
 4064TIP3    H133683   1.043   3.513   1.193
 4064TIP3    H233684   0.984   3.407   1.285
 4065TIP3   OH233685   2.988   4.592   5.167
 4065TIP3    H133686   2.967   4.509   5.210
 4065TIP3    H233687   3.050   4.568   5.098
 4066TIP3   OH233688   5.202   3.666  13.834
 4066TIP3    H133689   5.129   3.696  13.779
 4066TIP3    H233690   5.280   3.681  13.781
 4067TIP3   OH233691   3.959   4.566  13.785
 4067TIP3    H133692   3.914   4.545  13.866
 4067TIP3    H233693   3.913   4.643  13.751
 4068TIP3   OH233694   2.168   4.711  15.236
 4068TIP3    H133695   2.103   4.667  15.180
 4068TIP3    H233696   2.159   4.669  15.321
 4069TIP3   OH233697   3.232   0.620   0.331
 4069TIP3    H133698   3.306   0.653   0.280
 4069TIP3    H233699   3.246   0.654   0.419
 4070TIP3   OH233700   6.463   4.330   5.745
 4070TIP3    H133701   6.419   4.411   5.720
 4070TIP3    H233702   6.422   4.262   5.692
 4071TIP3   OH233703   1.794   2.403   0.210
 4071TIP3    H133704   1.856   2.439   0.274
 4071TIP3    H233705   1.710   2.402   0.256
 4072TIP3   OH233706   0.742   5.743  14.961
 4072TIP3    H133707   0.836   5.761  14.949
 4072TIP3    H233708   0.704   5.827  14.986
 4073TIP3   OH233709   2.052   6.393   0.481
 4073TIP3    H133710   2.066   6.456   0.552
 4073TIP3    H233711   1.998   6.324   0.520
 4074TIP3   OH233712   3.788   3.544   1.308
 4074TIP3    H133713   3.755   3.596   1.381
 4074TIP3    H233714   3.773   3.453   1.334
 4075TIP3   OH233715   2.833   1.808   4.425
 4075TIP3    H133716   2.752   1.835   4.469
 4075TIP3    H233717   2.848   1.874   4.358
 4076TIP3   OH233718   4.186   4.106  11.280
 4076TIP3    H133719   4.107   4.116  11.334
 4076TIP3    H233720   4.214   4.196  11.261
 4077TIP3   OH233721   6.254   1.843   6.527
 4077TIP3    H133722   6.255   1.749   6.508
 4077TIP3    H233723   6.328   1.878   6.478
 4078TIP3   OH233724   4.273   5.491   1.829
 4078TIP3    H133725   4.339   5.456   1.887
 4078TIP3    H233726   4.254   5.579   1.864
 4079TIP3   OH233727   2.108   0.166  16.883
 4079TIP3    H133728   2.159   0.246  16.895
 4079TIP3    H233729   2.173   0.098  16.864
 4080TIP3   OH233730   6.155   5.281  13.469
 4080TIP3    H133731   6.173   5.190  13.491
 4080TIP3    H233732   6.208   5.331  13.531
 4081TIP3   OH233733   3.653   2.604  12.840
 4081TIP3    H133734   3.634   2.677  12.898
 4081TIP3    H233735   3.585   2.539  12.859
 4082TIP3   OH233736   6.158   2.573   5.367
 4082TIP3    H133737   6.235   2.553   5.421
 4082TIP3    H233738   6.194   2.599   5.282
 4083TIP3   OH233739   0.428   2.555  14.900
 4083TIP3    H133740   0.367   2.550  14.974
 4083TIP3    H233741   0.407   2.478  14.847
 4084TIP3   OH233742   5.416   3.546  10.511
 4084TIP3    H133743   5.379   3.612  10.570
 4084TIP3    H233744   5.499   3.583  10.483
 4085TIP3   OH233745   0.737   3.083   5.441
 4085TIP3    H133746   0.656   3.107   5.486
 4085TIP3    H233747   0.792   3.044   5.508
 4086TIP3   OH233748   5.994   4.823   4.959
 4086TIP3    H133749   6.014   4.755   5.023
 4086TIP3    H233750   6.051   4.804   4.885
 4087TIP3   OH233751   6.002   3.456   6.232
 4087TIP3    H133752   6.049   3.373   6.230
 4087TIP3    H233753   5.930   3.441   6.293
 4088TIP3   OH233754   2.116   0.689   4.483
 4088TIP3    H133755   2.078   0.606   4.456
 4088TIP3    H233756   2.053   0.755   4.452
 4089TIP3   OH233757   3.888   2.970   0.843
 4089TIP3    H133758   3.980   2.994   0.850
 4089TIP3    H233759   3.882   2.918   0.763
 4090TIP3   OH233760   4.870   5.156  11.578
 4090TIP3    H133761   4.776   5.138  11.581
 4090TIP3    H233762   4.911   5.070  11.580
 4091TIP3   OH233763   3.980   4.635   5.022
 4091TIP3    H133764   3.962   4.725   4.995
 4091TIP3    H233765   3.967   4.583   4.942
 4092TIP3   OH233766   1.195   2.335   2.214
 4092TIP3    H133767   1.219   2.324   2.121
 4092TIP3    H233768   1.236   2.261   2.258
 4093TIP3   OH233769   6.514   6.501   0.768
 4093TIP3    H133770   6.509   6.528   0.860
 4093TIP3    H233771   6.572   6.425   0.768
 4094TIP3   OH233772   6.225   5.241  15.518
 4094TIP3    H133773   6.257   5.168  15.572
 4094TIP3    H233774   6.130   5.234  15.523
 4095TIP3   OH233775   4.591   4.907   2.431
 4095TIP3    H133776   4.686   4.909   2.430
 4095TIP3    H233777   4.568   4.826   2.477
 4096TIP3   OH233778   1.008   0.901   4.568
 4096TIP3    H133779   1.006   0.838   4.640
 4096TIP3    H233780   1.074   0.867   4.508
 4097TIP3   OH233781   0.832   2.073   1.106
 4097TIP3    H133782   0.902   2.107   1.161
 4097TIP3    H233783   0.764   2.140   1.108
 4098TIP3   OH233784   5.777   1.732  12.880
 4098TIP3    H133785   5.819   1.807  12.837
 4098TIP3    H233786   5.811   1.656  12.834
 4099TIP3   OH233787   4.376   2.695   5.701
 4099TIP3    H133788   4.324   2.623   5.739
 4099TIP3    H233789   4.427   2.653   5.632
 4100TIP3   OH233790   2.504   1.969  13.020
 4100TIP3    H133791   2.572   2.034  13.041
 4100TIP3    H233792   2.551   1.886  13.016
 4101TIP3   OH233793   2.803   0.214  10.539
 4101TIP3    H133794   2.881   0.182  10.494
 4101TIP3    H233795   2.760   0.135  10.571
 4102TIP3   OH233796   6.274   2.742  11.731
 4102TIP3    H133797   6.338   2.799  11.775
 4102TIP3    H233798   6.278   2.768  11.639
 4103TIP3   OH233799   0.570   1.334  13.848
 4103TIP3    H133800   0.489   1.319  13.896
 4103TIP3    H233801   0.548   1.401  13.783
 4104TIP3   OH233802   5.010   2.012   0.910
 4104TIP3    H133803   5.045   2.080   0.852
 4104TIP3    H233804   4.917   2.006   0.886
 4105TIP3   OH233805   3.684   5.640   5.421
 4105TIP3    H133806   3.606   5.645   5.476
 4105TIP3    H233807   3.748   5.695   5.466
 4106TIP3   OH233808   4.014   5.416   1.987
 4106TIP3    H133809   4.078   5.424   1.916
 4106TIP3    H233810   3.944   5.362   1.951
 4107TIP3   OH233811   1.142   4.336   3.199
 4107TIP3    H133812   1.118   4.383   3.119
 4107TIP3    H233813   1.227   4.297   3.178
 4108TIP3   OH233814   1.358   3.641   5.908
 4108TIP3    H133815   1.340   3.731   5.935
 4108TIP3    H233816   1.378   3.647   5.815
 4109TIP3   OH233817   0.589   3.469   3.823
 4109TIP3    H133818   0.680   3.443   3.813
 4109TIP3    H233819   0.593   3.564   3.833
 4110TIP3   OH233820   6.526   2.205  10.269
 4110TIP3    H133821   6.488   2.131  10.317
 4110TIP3    H233822   6.619   2.202  10.290
 4111TIP3   OH233823   3.623   5.416   5.999
 4111TIP3    H133824   3.611   5.351   6.069
 4111TIP3    H233825   3.705   5.390   5.957
 4112TIP3   OH233826   4.929   0.011   4.332
 4112TIP3    H133827   4.872   0.051   4.267
 4112TIP3    H233828   4.950   0.082   4.393
 4113TIP3   OH233829   0.673   3.405  15.382
 4113TIP3    H133830   0.727   3.371  15.310
 4113TIP3    H233831   0.586   3.371  15.365
 4114TIP3   OH233832   1.259   1.848  12.081
 4114TIP3    H133833   1.238   1.852  12.174
 4114TIP3    H233834   1.177   1.822  12.039
 4115TIP3   OH233835   5.206   1.662   5.231
 4115TIP3    H133836   5.217   1.639   5.323
 4115TIP3    H233837   5.294   1.687   5.202
 4116TIP3   OH233838   2.656   0.765   0.130
 4116TIP3    H133839   2.565   0.766   0.102
 4116TIP3    H233840   2.653   0.781   0.224
 4117TIP3   OH233841   1.514   5.384  11.366
 4117TIP3    H133842   1.523   5.445  11.439
 4117TIP3    H233843   1.574   5.313  11.387
 4118TIP3   OH233844   0.579   2.740  12.909
 4118TIP3    H133845   0.597   2.800  12.981
 4118TIP3    H233846   0.584   2.653  12.949
 4119TIP3   OH233847   5.318   0.689   4.921
 4119TIP3    H133848   5.360   0.605   4.900
 4119TIP3    H233849   5.342   0.747   4.849
 4120TIP3   OH233850   4.874   6.567   2.958
 4120TIP3    H133851   4.810   6.541   3.024
 4120TIP3    H233852   4.859   6.506   2.885
 4121TIP3   OH233853   1.616   0.781   1.407
 4121TIP3    H133854   1.616   0.751   1.498
 4121TIP3    H233855   1.703   0.757   1.374
 4122TIP3   OH233856   0.974   5.736   4.237
 4122TIP3    H133857   0.994   5.757   4.145
 4122TIP3    H233858   1.015   5.806   4.287
 4123TIP3   OH233859   4.802   5.823   4.289
 4123TIP3    H133860   4.793   5.799   4.197
 4123TIP3    H233861   4.713   5.833   4.320
 4124TIP3   OH233862   3.295   0.933  12.085
 4124TIP3    H133863   3.372   0.967  12.130
 4124TIP3    H233864   3.330   0.896  12.003
 4125TIP3   OH233865   6.471   3.352   2.641
 4125TIP3    H133866   6.483   3.415   2.712
 4125TIP3    H233867   6.376   3.336   2.638
 4126TIP3   OH233868   6.660   4.879  11.831
 4126TIP3    H133869   6.646   4.969  11.859
 4126TIP3    H233870   6.740   4.882  11.778
 4127TIP3   OH233871   4.565   0.724   6.341
 4127TIP3    H133872   4.537   0.811   6.371
 4127TIP3    H233873   4.657   0.718   6.367
 4128TIP3   OH233874   4.747   4.972   4.193
 4128TIP3    H133875   4.695   4.993   4.270
 4128TIP3    H233876   4.696   5.007   4.120
 4129TIP3   OH233877   0.719   5.080  14.248
 4129TIP3    H133878   0.723   5.149  14.315
 4129TIP3    H233879   0.665   5.012  14.287
 4130TIP3   OH233880   1.026   3.103  12.635
 4130TIP3    H133881   1.028   3.162  12.710
 4130TIP3    H233882   0.980   3.151  12.567
 4131TIP3   OH233883   6.376   6.671  13.420
 4131TIP3    H133884   6.402   6.582  13.397
 4131TIP3    H233885   6.421   6.688  13.503
 4132TIP3   OH233886   5.619   3.539  15.321
 4132TIP3    H133887   5.594   3.452  15.352
 4132TIP3    H233888   5.542   3.571  15.274
 4133TIP3   OH233889   0.798   5.393  12.074
 4133TIP3    H133890   0.791   5.389  11.979
 4133TIP3    H233891   0.891   5.408  12.090
 4134TIP3   OH233892   1.380   0.123  16.781
 4134TIP3    H133893   1.459   0.087  16.822
 4134TIP3    H233894   1.309   0.069  16.815
 4135TIP3   OH233895   1.384   6.805  14.370
 4135TIP3    H133896   1.401   6.849  14.454
 4135TIP3    H233897   1.308   6.750  14.386
 4136TIP3   OH233898   5.504   2.215  12.890
 4136TIP3    H133899   5.429   2.272  12.868
 4136TIP3    H233900   5.473   2.165  12.965
 4137TIP3   OH233901   0.609   5.189   0.379
 4137TIP3    H133902   0.605   5.280   0.408
 4137TIP3    H233903   0.640   5.141   0.456
 4138TIP3   OH233904   3.584   5.868   1.716
 4138TIP3    H133905   3.538   5.952   1.716
 4138TIP3    H233906   3.657   5.881   1.777
 4139TIP3   OH233907   0.905   4.113  11.532
 4139TIP3    H133908   0.935   4.134  11.444
 4139TIP3    H233909   0.810   4.116  11.527
 4140TIP3   OH233910   5.749   3.057  17.263
 4140TIP3    H133911   5.708   3.079  17.347
 4140TIP3    H233912   5.694   2.988  17.227
 4141TIP3   OH233913   0.054   1.078  17.287
 4141TIP3    H133914   0.113   1.107  17.218
 4141TIP3    H233915   0.057   1.148  17.352
 4142TIP3   OH233916   1.392   5.128  14.287
 4142TIP3    H133917   1.377   5.130  14.381
 4142TIP3    H233918   1.484   5.104  14.277
 4143TIP3   OH233919   1.131   0.703  12.938
 4143TIP3    H133920   1.155   0.612  12.956
 4143TIP3    H233921   1.035   0.704  12.939
 4144TIP3   OH233922   0.049   2.807   0.900
 4144TIP3    H133923   0.093   2.891   0.891
 4144TIP3    H233924   0.091   2.751   0.835
 4145TIP3   OH233925   1.363   4.969   4.508
 4145TIP3    H133926   1.344   5.061   4.530
 4145TIP3    H233927   1.310   4.919   4.570
 4146TIP3   OH233928   3.901   4.869  12.839
 4146TIP3    H133929   3.879   4.962  12.846
 4146TIP3    H233930   3.906   4.838  12.929
 4147TIP3   OH233931   0.337   2.102  10.529
 4147TIP3    H133932   0.249   2.071  10.552
 4147TIP3    H233933   0.356   2.169  10.594
 4148TIP3   OH233934   0.798   2.411   2.059
 4148TIP3    H133935   0.792   2.315   2.052
 4148TIP3    H233936   0.724   2.435   2.115
 4149TIP3   OH233937   4.245   6.797  14.661
 4149TIP3    H133938   4.297   6.839  14.592
 4149TIP3    H233939   4.265   6.847  14.740
 4150TIP3   OH233940   1.969   0.696  12.134
 4150TIP3    H133941   2.005   0.607  12.132
 4150TIP3    H233942   2.026   0.746  12.075
 4151TIP3   OH233943   3.399   0.860  15.114
 4151TIP3    H133944   3.394   0.771  15.080
 4151TIP3    H233945   3.313   0.877  15.152
 4152TIP3   OH233946   2.564   2.798   4.973
 4152TIP3    H133947   2.489   2.768   4.921
 4152TIP3    H233948   2.541   2.774   5.063
 4153TIP3   OH233949   4.990   2.707  10.623
 4153TIP3    H133950   5.053   2.700  10.550
 4153TIP3    H233951   4.958   2.618  10.636
 4154TIP3   OH233952   3.574   5.450  16.718
 4154TIP3    H133953   3.616   5.384  16.773
 4154TIP3    H233954   3.607   5.533  16.751
 4155TIP3   OH233955   6.397   3.185   5.259
 4155TIP3    H133956   6.438   3.098   5.258
 4155TIP3    H233957   6.319   3.175   5.205
 4156TIP3   OH233958   1.484   3.866   2.475
 4156TIP3    H133959   1.561   3.810   2.471
 4156TIP3    H233960   1.519   3.955   2.464
 4157TIP3   OH233961   2.662   5.985   1.562
 4157TIP3    H133962   2.754   6.008   1.553
 4157TIP3    H233963   2.652   5.963   1.655
 4158TIP3   OH233964   5.266   1.376   1.433
 4158TIP3    H133965   5.335   1.409   1.375
 4158TIP3    H233966   5.294   1.287   1.455
 4159TIP3   OH233967   2.897   4.380   3.927
 4159TIP3    H133968   2.878   4.352   4.017
 4159TIP3    H233969   2.955   4.456   3.938
 4160TIP3   OH233970   4.091   5.682  15.216
 4160TIP3    H133971   4.174   5.663  15.260
 4160TIP3    H233972   4.095   5.776  15.198
 4161TIP3   OH233973   3.841   2.680  10.391
 4161TIP3    H133974   3.856   2.730  10.311
 4161TIP3    H233975   3.746   2.683  10.403
 4162TIP3   OH233976   4.019   1.842   3.885
 4162TIP3    H133977   4.016   1.921   3.831
 4162TIP3    H233978   3.944   1.791   3.856
 4163TIP3   OH233979   4.206   3.725   2.600
 4163TIP3    H133980   4.298   3.745   2.617
 4163TIP3    H233981   4.167   3.809   2.578
 4164TIP3   OH233982   1.222   2.679   0.419
 4164TIP3    H133983   1.178   2.761   0.444
 4164TIP3    H233984   1.208   2.622   0.494
 4165TIP3   OH233985   2.881   5.142  16.302
 4165TIP3    H133986   2.846   5.161  16.389
 4165TIP3    H233987   2.847   5.213  16.247
 4166TIP3   OH233988   2.211   1.962  13.892
 4166TIP3    H133989   2.194   2.008  13.810
 4166TIP3    H233990   2.166   2.015  13.959
 4167TIP3   OH233991   3.261   5.241   4.040
 4167TIP3    H133992   3.208   5.179   4.089
 4167TIP3    H233993   3.233   5.327   4.072
 4168TIP3   OH233994   4.841   1.132  14.926
 4168TIP3    H133995   4.798   1.050  14.902
 4168TIP3    H233996   4.876   1.166  14.844
 4169TIP3   OH233997   1.427   6.540   6.410
 4169TIP3    H133998   1.415   6.631   6.383
 4169TIP3    H233999   1.338   6.507   6.423
 4170TIP3   OH234000   2.248   3.021   2.319
 4170TIP3    H134001   2.200   3.009   2.237
 4170TIP3    H234002   2.263   3.116   2.325
 4171TIP3   OH234003   0.586   1.162   0.049
 4171TIP3    H134004   0.629   1.128  -0.030
 4171TIP3    H234005   0.557   1.084   0.096
 4172TIP3   OH234006   4.669   3.125   4.439
 4172TIP3    H134007   4.660   3.175   4.521
 4172TIP3    H234008   4.760   3.140   4.412
 4173TIP3   OH234009   1.557   4.122  13.715
 4173TIP3    H134010   1.470   4.096  13.744
 4173TIP3    H234011   1.552   4.118  13.619
 4174TIP3   OH234012   1.189   6.082   3.998
 4174TIP3    H134013   1.231   6.142   3.935
 4174TIP3    H234014   1.224   6.109   4.083
 4175TIP3   OH234015   2.891   1.810  17.145
 4175TIP3    H134016   2.960   1.781  17.205
 4175TIP3    H234017   2.842   1.730  17.125
 4176TIP3   OH234018   4.838   6.339   3.494
 4176TIP3    H134019   4.902   6.317   3.562
 4176TIP3    H234020   4.821   6.432   3.506
 4177TIP3   OH234021   5.650   0.205   5.962
 4177TIP3    H134022   5.575   0.261   5.981
 4177TIP3    H234023   5.712   0.262   5.916
 4178TIP3   OH234024   3.754   3.410   5.319
 4178TIP3    H134025   3.659   3.414   5.311
 4178TIP3    H234026   3.780   3.334   5.267
 4179TIP3   OH234027   3.612   3.458  13.350
 4179TIP3    H134028   3.690   3.407  13.373
 4179TIP3    H234029   3.590   3.428  13.261
 4180TIP3   OH234030   1.952   3.014   3.463
 4180TIP3    H134031   1.951   3.109   3.451
 4180TIP3    H234032   1.860   2.988   3.458
 4181TIP3   OH234033   5.315   0.804   4.290
 4181TIP3    H134034   5.370   0.750   4.347
 4181TIP3    H234035   5.229   0.762   4.292
 4182TIP3   OH234036   2.647   1.614   4.666
 4182TIP3    H134037   2.679   1.704   4.655
 4182TIP3    H234038   2.558   1.616   4.633
 4183TIP3   OH234039   3.767   4.712  15.541
 4183TIP3    H134040   3.674   4.734  15.539
 4183TIP3    H234041   3.779   4.664  15.623
 4184TIP3   OH234042   3.946   2.285   1.193
 4184TIP3    H134043   4.020   2.334   1.158
 4184TIP3    H234044   3.974   2.259   1.281
 4185TIP3   OH234045   6.019   5.960  15.549
 4185TIP3    H134046   6.066   6.023  15.494
 4185TIP3    H234047   6.021   5.998  15.637
 4186TIP3   OH234048   4.014   2.020   1.148
 4186TIP3    H134049   3.943   1.957   1.162
 4186TIP3    H234050   3.974   2.105   1.166
 4187TIP3   OH234051   3.691   6.164   2.655
 4187TIP3    H134052   3.654   6.088   2.702
 4187TIP3    H234053   3.775   6.180   2.698
 4188TIP3   OH234054   5.915   5.384  15.047
 4188TIP3    H134055   5.968   5.449  15.093
 4188TIP3    H234056   5.834   5.378  15.097
 4189TIP3   OH234057   1.068   5.778  11.321
 4189TIP3    H134058   1.047   5.685  11.331
 4189TIP3    H234059   1.039   5.799  11.233
 4190TIP3   OH234060   1.380   5.904   1.811
 4190TIP3    H134061   1.340   5.967   1.871
 4190TIP3    H234062   1.368   5.942   1.724
 4191TIP3   OH234063   3.818   5.880  13.298
 4191TIP3    H134064   3.806   5.925  13.381
 4191TIP3    H234065   3.861   5.944  13.241
 4192TIP3   OH234066   2.925   4.901  11.874
 4192TIP3    H134067   2.950   4.916  11.783
 4192TIP3    H234068   2.988   4.836  11.906
 4193TIP3   OH234069   1.646   6.666   6.767
 4193TIP3    H134070   1.620   6.575   6.753
 4193TIP3    H234071   1.742   6.664   6.763
 4194TIP3   OH234072   1.429   3.546  12.707
 4194TIP3    H134073   1.355   3.526  12.764
 4194TIP3    H234074   1.431   3.641  12.701
 4195TIP3   OH234075   5.370   3.428  14.329
 4195TIP3    H134076   5.345   3.451  14.418
 4195TIP3    H234077   5.287   3.430  14.280
 4196TIP3   OH234078   1.907   0.095   5.293
 4196TIP3    H134079   1.954   0.075   5.212
 4196TIP3    H234080   1.835   0.031   5.295
 4197TIP3   OH234081   3.031   0.997  14.414
 4197TIP3    H134082   3.004   1.047  14.491
 4197TIP3    H234083   2.969   1.020  14.346
 4198TIP3   OH234084   1.366   0.628  16.417
 4198TIP3    H134085   1.327   0.669  16.340
 4198TIP3    H234086   1.362   0.696  16.485
 4199TIP3   OH234087   2.355   1.042   4.133
 4199TIP3    H134088   2.277   1.094   4.118
 4199TIP3    H234089   2.416   1.070   4.064
 4200TIP3   OH234090   3.316   2.797   2.346
 4200TIP3    H134091   3.305   2.704   2.365
 4200TIP3    H234092   3.317   2.803   2.251
 4201TIP3   OH234093   6.522   0.899  12.353
 4201TIP3    H134094   6.474   0.819  12.332
 4201TIP3    H234095   6.458   0.955  12.397
 4202TIP3   OH234096   6.764   0.852   0.083
 4202TIP3    H134097   6.691   0.823   0.028
 4202TIP3    H234098   6.801   0.927   0.036
 4203TIP3   OH234099   4.292   1.875  15.135
 4203TIP3    H134100   4.197   1.878  15.147
 4203TIP3    H234101   4.318   1.966  15.122
 4204TIP3   OH234102   5.188   5.631   4.846
 4204TIP3    H134103   5.264   5.678   4.880
 4204TIP3    H234104   5.224   5.573   4.779
 4205TIP3   OH234105   2.887   6.357   5.882
 4205TIP3    H134106   2.834   6.333   5.958
 4205TIP3    H234107   2.845   6.435   5.847
 4206TIP3   OH234108   1.728   0.610   3.967
 4206TIP3    H134109   1.747   0.700   3.993
 4206TIP3    H234110   1.678   0.574   4.040
 4207TIP3   OH234111   4.169   6.602  11.696
 4207TIP3    H134112   4.154   6.553  11.777
 4207TIP3    H234113   4.208   6.684  11.724
 4208TIP3   OH234114   0.733   6.120   2.114
 4208TIP3    H134115   0.725   6.136   2.020
 4208TIP3    H234116   0.646   6.139   2.149
 4209TIP3   OH234117   2.656   0.797   1.857
 4209TIP3    H134118   2.738   0.777   1.812
 4209TIP3    H234119   2.621   0.873   1.810
 4210TIP3   OH234120   6.252   1.162   2.545
 4210TIP3    H134121   6.284   1.075   2.566
 4210TIP3    H234122   6.328   1.219   2.557
 4211TIP3   OH234123   2.827   2.626  17.071
 4211TIP3    H134124   2.761   2.586  17.014
 4211TIP3    H234125   2.875   2.685  17.015
 4212TIP3   OH234126   5.542   1.912  12.654
 4212TIP3    H134127   5.500   1.986  12.610
 4212TIP3    H234128   5.510   1.835  12.608
 4213TIP3   OH234129   1.625   0.582   6.298
 4213TIP3    H134130   1.694   0.534   6.343
 4213TIP3    H234131   1.611   0.660   6.351
 4214TIP3   OH234132   2.542   2.335  11.660
 4214TIP3    H134133   2.540   2.392  11.583
 4214TIP3    H234134   2.585   2.256  11.630
 4215TIP3   OH234135   3.437   5.776  10.844
 4215TIP3    H134136   3.375   5.771  10.771
 4215TIP3    H234137   3.411   5.705  10.902
 4216TIP3   OH234138   4.168   1.173   6.010
 4216TIP3    H134139   4.123   1.229   6.073
 4216TIP3    H234140   4.103   1.155   5.943
 4217TIP3   OH234141   1.491   5.204   5.164
 4217TIP3    H134142   1.491   5.215   5.259
 4217TIP3    H234143   1.533   5.283   5.130
 4218TIP3   OH234144   5.594   1.999   0.794
 4218TIP3    H134145   5.549   1.972   0.875
 4218TIP3    H234146   5.628   1.917   0.758
 4219TIP3   OH234147   2.143   5.154   2.056
 4219TIP3    H134148   2.163   5.176   1.965
 4219TIP3    H234149   2.215   5.098   2.083
 4220TIP3   OH234150   0.826   3.036  10.287
 4220TIP3    H134151   0.758   3.082  10.237
 4220TIP3    H234152   0.825   3.078  10.373
 4221TIP3   OH234153   6.301   2.358   3.167
 4221TIP3    H134154   6.337   2.396   3.087
 4221TIP3    H234155   6.263   2.432   3.214
 4222TIP3   OH234156   4.302   1.606  15.031
 4222TIP3    H134157   4.317   1.680  15.090
 4222TIP3    H234158   4.390   1.583  14.999
 4223TIP3   OH234159   3.840   3.760  14.027
 4223TIP3    H134160   3.789   3.733  13.951
 4223TIP3    H234161   3.918   3.704  14.026
 4224TIP3   OH234162   4.692   0.503  15.509
 4224TIP3    H134163   4.742   0.542  15.580
 4224TIP3    H234164   4.671   0.576  15.451
 4225TIP3   OH234165   3.348   1.821   6.016
 4225TIP3    H134166   3.334   1.742   5.964
 4225TIP3    H234167   3.330   1.893   5.955
 4226TIP3   OH234168   4.115   5.059   6.628
 4226TIP3    H134169   4.111   5.145   6.587
 4226TIP3    H234170   4.047   5.008   6.585
 4227TIP3   OH234171   4.853   4.556   0.680
 4227TIP3    H134172   4.760   4.577   0.671
 4227TIP3    H234173   4.863   4.530   0.771
 4228TIP3   OH234174   5.287   0.880   1.724
 4228TIP3    H134175   5.288   0.955   1.783
 4228TIP3    H234176   5.281   0.804   1.782
 4229TIP3   OH234177   1.602   3.199   4.995
 4229TIP3    H134178   1.560   3.232   5.074
 4229TIP3    H234179   1.541   3.221   4.925
 4230TIP3   OH234180   2.985   4.497   3.598
 4230TIP3    H134181   2.895   4.495   3.629
 4230TIP3    H234182   3.031   4.552   3.662
 4231TIP3   OH234183   5.798   0.931   5.394
 4231TIP3    H134184   5.856   0.882   5.452
 4231TIP3    H234185   5.842   0.929   5.309
 4232TIP3   OH234186   0.585   4.584  15.772
 4232TIP3    H134187   0.601   4.675  15.745
 4232TIP3    H234188   0.650   4.569  15.841
 4233TIP3   OH234189   1.039   2.424  15.054
 4233TIP3    H134190   1.058   2.514  15.082
 4233TIP3    H234191   1.108   2.404  14.991
 4234TIP3   OH234192   2.688   2.152   4.015
 4234TIP3    H134193   2.706   2.229   4.069
 4234TIP3    H234194   2.726   2.173   3.929
 4235TIP3   OH234195   4.626   6.643  16.427
 4235TIP3    H134196   4.722   6.651  16.427
 4235TIP3    H234197   4.606   6.593  16.349
 4236TIP3   OH234198   6.696   0.248   4.491
 4236TIP3    H134199   6.749   0.174   4.462
 4236TIP3    H234200   6.607   0.215   4.494
 4237TIP3   OH234201   3.651   2.009   2.642
 4237TIP3    H134202   3.691   1.922   2.642
 4237TIP3    H234203   3.605   2.015   2.558
 4238TIP3   OH234204   0.142   4.748   2.757
 4238TIP3    H134205   0.228   4.727   2.721
 4238TIP3    H234206   0.114   4.669   2.803
 4239TIP3   OH234207   4.821   6.229  15.136
 4239TIP3    H134208   4.885   6.258  15.072
 4239TIP3    H234209   4.871   6.215  15.216
 4240TIP3   OH234210   1.610   1.393  12.411
 4240TIP3    H134211   1.590   1.469  12.466
 4240TIP3    H234212   1.590   1.422  12.322
 4241TIP3   OH234213   0.259   4.534   3.145
 4241TIP3    H134214   0.317   4.505   3.075
 4241TIP3    H234215   0.279   4.627   3.156
 4242TIP3   OH234216   1.399   6.134  16.419
 4242TIP3    H134217   1.307   6.121  16.398
 4242TIP3    H234218   1.415   6.226  16.402
 4243TIP3   OH234219   5.431   0.931   2.520
 4243TIP3    H134220   5.450   1.014   2.565
 4243TIP3    H234221   5.363   0.954   2.455
 4244TIP3   OH234222   6.065   3.870  16.624
 4244TIP3    H134223   6.065   3.790  16.676
 4244TIP3    H234224   5.995   3.856  16.559
 4245TIP3   OH234225   5.310   4.882   5.996
 4245TIP3    H134226   5.236   4.942   5.984
 4245TIP3    H234227   5.387   4.936   5.981
 4246TIP3   OH234228   3.951   2.610   1.342
 4246TIP3    H134229   4.023   2.591   1.402
 4246TIP3    H234230   3.971   2.559   1.263
 4247TIP3   OH234231   5.001   3.430   0.711
 4247TIP3    H134232   4.944   3.465   0.643
 4247TIP3    H234233   4.982   3.336   0.712
 4248TIP3   OH234234   3.359   4.345   2.675
 4248TIP3    H134235   3.425   4.277   2.684
 4248TIP3    H234236   3.313   4.324   2.594
 4249TIP3   OH234237   3.918   4.497  11.002
 4249TIP3    H134238   3.982   4.428  10.985
 4249TIP3    H234239   3.906   4.540  10.918
 4250TIP3   OH234240   1.609   6.434   6.629
 4250TIP3    H134241   1.556   6.478   6.562
 4250TIP3    H234242   1.575   6.345   6.631
 4251TIP3   OH234243   4.465   6.261  16.405
 4251TIP3    H134244   4.465   6.332  16.470
 4251TIP3    H234245   4.373   6.241  16.392
 4252TIP3   OH234246   1.612   2.024  15.862
 4252TIP3    H134247   1.594   1.962  15.792
 4252TIP3    H234248   1.670   1.977  15.922
 4253TIP3   OH234249   2.179   3.064  12.478
 4253TIP3    H134250   2.239   3.009  12.528
 4253TIP3    H234251   2.215   3.063  12.389
 4254TIP3   OH234252   2.330   5.727   3.174
 4254TIP3    H134253   2.259   5.671   3.206
 4254TIP3    H234254   2.402   5.666   3.159
 4255TIP3   OH234255   5.456   3.968  12.261
 4255TIP3    H134256   5.395   3.896  12.276
 4255TIP3    H234257   5.542   3.925  12.251
 4256TIP3   OH234258   3.516   3.189  15.496
 4256TIP3    H134259   3.449   3.198  15.428
 4256TIP3    H234260   3.572   3.118  15.465
 4257TIP3   OH234261   2.602   5.451  15.629
 4257TIP3    H134262   2.673   5.515  15.630
 4257TIP3    H234263   2.646   5.366  15.633
 4258TIP3   OH234264   0.049   1.152   2.084
 4258TIP3    H134265   0.124   1.138   2.025
 4258TIP3    H234266   0.030   1.246   2.076
 4259TIP3   OH234267   0.096   0.994   4.574
 4259TIP3    H134268   0.076   1.005   4.481
 4259TIP3    H234269   0.140   0.909   4.580
 4260TIP3   OH234270   2.731   0.257   4.815
 4260TIP3    H134271   2.827   0.251   4.811
 4260TIP3    H234272   2.704   0.264   4.724
 4261TIP3   OH234273   3.829   5.055   4.297
 4261TIP3    H134274   3.887   5.101   4.236
 4261TIP3    H234275   3.888   5.001   4.350
 4262TIP3   OH234276   6.740   0.478   1.899
 4262TIP3    H134277   6.775   0.532   1.970
 4262TIP3    H234278   6.755   0.388   1.929
 4263TIP3   OH234279   5.393   3.794  15.257
 4263TIP3    H134280   5.427   3.829  15.174
 4263TIP3    H234281   5.320   3.850  15.279
 4264TIP3   OH234282   5.311   2.188   1.503
 4264TIP3    H134283   5.282   2.097   1.498
 4264TIP3    H234284   5.406   2.182   1.512
 4265TIP3   OH234285   4.829   5.190   5.479
 4265TIP3    H134286   4.919   5.160   5.490
 4265TIP3    H234287   4.806   5.227   5.565
 4266TIP3   OH234288   3.829   3.964  12.257
 4266TIP3    H134289   3.840   3.899  12.326
 4266TIP3    H234290   3.864   4.045  12.295
 4267TIP3   OH234291   0.605   2.028   1.958
 4267TIP3    H134292   0.518   2.022   1.918
 4267TIP3    H234293   0.643   1.941   1.946
 4268TIP3   OH234294   2.817   3.640  14.832
 4268TIP3    H134295   2.857   3.722  14.860
 4268TIP3    H234296   2.779   3.659  14.746
 4269TIP3   OH234297   6.585   6.159   0.390
 4269TIP3    H134298   6.528   6.165   0.467
 4269TIP3    H234299   6.629   6.244   0.386
 4270TIP3   OH234300   4.479   5.646   1.494
 4270TIP3    H134301   4.434   5.562   1.497
 4270TIP3    H234302   4.543   5.637   1.423
 4271TIP3   OH234303   0.753   6.552   3.366
 4271TIP3    H134304   0.843   6.564   3.336
 4271TIP3    H234305   0.700   6.604   3.306
 4272TIP3   OH234306   1.226   4.365  16.597
 4272TIP3    H134307   1.300   4.422  16.619
 4272TIP3    H234308   1.156   4.393  16.655
 4273TIP3   OH234309   1.411   2.058  12.543
 4273TIP3    H134310   1.401   2.055  12.448
 4273TIP3    H234311   1.497   2.019  12.559
 4274TIP3   OH234312   0.638   0.437  14.905
 4274TIP3    H134313   0.706   0.503  14.890
 4274TIP3    H234314   0.566   0.462  14.848
 4275TIP3   OH234315   0.572   5.164  11.839
 4275TIP3    H134316   0.648   5.107  11.850
 4275TIP3    H234317   0.609   5.252  11.832
 4276TIP3   OH234318   1.203   4.370   5.682
 4276TIP3    H134319   1.184   4.371   5.589
 4276TIP3    H234320   1.292   4.335   5.688
 4277TIP3   OH234321   1.608   1.782  15.034
 4277TIP3    H134322   1.578   1.824  15.114
 4277TIP3    H234323   1.656   1.851  14.988
 4278TIP3   OH234324   0.800   2.215  10.996
 4278TIP3    H134325   0.805   2.252  11.084
 4278TIP3    H234326   0.885   2.172  10.983
 4279TIP3   OH234327   0.293   2.455  11.491
 4279TIP3    H134328   0.238   2.451  11.413
 4279TIP3    H234329   0.378   2.485  11.458
 4280TIP3   OH234330   0.636   5.094   2.816
 4280TIP3    H134331   0.616   5.170   2.872
 4280TIP3    H234332   0.607   5.120   2.729
 4281TIP3   OH234333   0.607   1.097   4.867
 4281TIP3    H134334   0.575   1.114   4.956
 4281TIP3    H234335   0.617   1.002   4.863
 4282TIP3   OH234336   6.135   1.823   3.520
 4282TIP3    H134337   6.076   1.779   3.581
 4282TIP3    H234338   6.170   1.897   3.569
 4283TIP3   OH234339   3.461   3.963   1.027
 4283TIP3    H134340   3.409   3.918   0.960
 4283TIP3    H234341   3.434   3.922   1.109
 4284TIP3   OH234342   6.361   3.227  15.577
 4284TIP3    H134343   6.286   3.261  15.529
 4284TIP3    H234344   6.371   3.287  15.651
 4285TIP3   OH234345   3.888   4.915   2.926
 4285TIP3    H134346   3.936   4.993   2.895
 4285TIP3    H234347   3.804   4.949   2.955
 4286TIP3   OH234348   2.005   1.707  14.968
 4286TIP3    H134349   1.937   1.663  14.918
 4286TIP3    H234350   1.986   1.684  15.059
 4287TIP3   OH234351   1.448   4.609  13.752
 4287TIP3    H134352   1.542   4.597  13.765
 4287TIP3    H234353   1.411   4.610  13.840
 4288TIP3   OH234354   0.554   3.960  12.516
 4288TIP3    H134355   0.544   4.049  12.549
 4288TIP3    H234356   0.648   3.952  12.496
 4289TIP3   OH234357   4.745   6.556  11.401
 4289TIP3    H134358   4.661   6.568  11.357
 4289TIP3    H234359   4.766   6.643  11.436
 4290TIP3   OH234360   5.697   2.397   2.728
 4290TIP3    H134361   5.605   2.418   2.709
 4290TIP3    H234362   5.740   2.400   2.642
 4291TIP3   OH234363   3.922   5.169  16.386
 4291TIP3    H134364   3.896   5.177  16.295
 4291TIP3    H234365   3.948   5.078  16.396
 4292TIP3   OH234366   4.936   5.929  12.114
 4292TIP3    H134367   4.988   5.861  12.070
 4292TIP3    H234368   4.948   6.007  12.060
 4293TIP3   OH234369   3.874   5.637   2.032
 4293TIP3    H134370   3.812   5.607   1.965
 4293TIP3    H234371   3.948   5.577   2.024
 4294TIP3   OH234372   5.280   5.855  13.582
 4294TIP3    H134373   5.276   5.844  13.677
 4294TIP3    H234374   5.191   5.881  13.557
 4295TIP3   OH234375   5.945   0.622   2.259
 4295TIP3    H134376   5.928   0.611   2.353
 4295TIP3    H234377   5.954   0.716   2.247
 4296TIP3   OH234378   4.058   5.381   0.037
 4296TIP3    H134379   4.146   5.343   0.036
 4296TIP3    H234380   4.043   5.405   0.128
 4297TIP3   OH234381   2.665   3.240   3.095
 4297TIP3    H134382   2.610   3.317   3.079
 4297TIP3    H234383   2.675   3.199   3.009
 4298TIP3   OH234384   3.997   1.342  16.217
 4298TIP3    H134385   3.940   1.280  16.262
 4298TIP3    H234386   3.988   1.423  16.268
 4299TIP3   OH234387   5.883   1.948   2.123
 4299TIP3    H134388   5.888   1.962   2.218
 4299TIP3    H234389   5.853   1.858   2.114
 4300TIP3   OH234390   6.226   1.774  13.088
 4300TIP3    H134391   6.311   1.811  13.065
 4300TIP3    H234392   6.164   1.817  13.030
 4301TIP3   OH234393   5.414   5.511   2.868
 4301TIP3    H134394   5.381   5.472   2.949
 4301TIP3    H234395   5.342   5.503   2.806
 4302TIP3   OH234396   1.955   1.196  14.518
 4302TIP3    H134397   2.009   1.241  14.453
 4302TIP3    H234398   2.013   1.189  14.595
 4303TIP3   OH234399   5.509   3.570  16.675
 4303TIP3    H134400   5.543   3.531  16.755
 4303TIP3    H234401   5.531   3.663  16.681
 4304TIP3   OH234402   6.204   4.900  11.534
 4304TIP3    H134403   6.254   4.894  11.615
 4304TIP3    H234404   6.264   4.938  11.471
 4305TIP3   OH234405   6.316   4.867   0.981
 4305TIP3    H134406   6.312   4.943   0.922
 4305TIP3    H234407   6.227   4.857   1.014
 4306TIP3   OH234408   3.226   5.227   2.959
 4306TIP3    H134409   3.131   5.215   2.960
 4306TIP3    H234410   3.258   5.163   3.023
 4307TIP3   OH234411   5.952   1.006   1.110
 4307TIP3    H134412   5.893   1.080   1.119
 4307TIP3    H234413   5.960   0.993   1.016
 4308TIP3   OH234414   4.822   2.658   4.271
 4308TIP3    H134415   4.740   2.618   4.243
 4308TIP3    H234416   4.828   2.739   4.221
 4309TIP3   OH234417   2.704   2.083   5.107
 4309TIP3    H134418   2.743   2.121   5.028
 4309TIP3    H234419   2.710   2.153   5.172
 4310TIP3   OH234420   1.920   6.173   2.676
 4310TIP3    H134421   2.004   6.163   2.722
 4310TIP3    H234422   1.872   6.237   2.729
 4311TIP3   OH234423   2.105   0.338   3.311
 4311TIP3    H134424   2.154   0.337   3.229
 4311TIP3    H234425   2.136   0.261   3.359
 4312TIP3   OH234426   2.183   0.723   3.615
 4312TIP3    H134427   2.091   0.698   3.624
 4312TIP3    H234428   2.214   0.672   3.540
 4313TIP3   OH234429   3.351   4.327   2.108
 4313TIP3    H134430   3.355   4.330   2.203
 4313TIP3    H234431   3.290   4.397   2.084
 4314TIP3   OH234432   3.005   1.080  17.111
 4314TIP3    H134433   2.962   1.010  17.159
 4314TIP3    H234434   3.048   1.134  17.178
 4315TIP3   OH234435   0.819   5.389   3.644
 4315TIP3    H134436   0.819   5.340   3.726
 4315TIP3    H234437   0.912   5.403   3.625
 4316TIP3   OH234438   2.721   4.829  12.508
 4316TIP3    H134439   2.678   4.756  12.553
 4316TIP3    H234440   2.811   4.827  12.539
 4317TIP3   OH234441   4.276   3.965   6.197
 4317TIP3    H134442   4.226   3.891   6.163
 4317TIP3    H234443   4.275   3.953   6.292
 4318TIP3   OH234444   4.636   3.529  11.801
 4318TIP3    H134445   4.690   3.579  11.740
 4318TIP3    H234446   4.668   3.439  11.795
 4319TIP3   OH234447   5.624   3.607   5.207
 4319TIP3    H134448   5.546   3.625   5.259
 4319TIP3    H234449   5.642   3.689   5.161
 4320TIP3   OH234450   6.751   6.294  14.469
 4320TIP3    H134451   6.811   6.310  14.396
 4320TIP3    H234452   6.805   6.251  14.535
 4321TIP3   OH234453   2.026   0.774   3.293
 4321TIP3    H134454   1.987   0.686   3.292
 4321TIP3    H234455   1.978   0.822   3.226
 4322TIP3   OH234456   6.418   2.470  11.125
 4322TIP3    H134457   6.459   2.543  11.079
 4322TIP3    H234458   6.460   2.392  11.089
 4323TIP3   OH234459   6.199   2.079   3.011
 4323TIP3    H134460   6.151   2.157   3.040
 4323TIP3    H234461   6.152   2.006   3.049
 4324TIP3   OH234462   6.400   2.278   1.805
 4324TIP3    H134463   6.485   2.238   1.823
 4324TIP3    H234464   6.336   2.219   1.845
 4325TIP3   OH234465   3.989   3.793   2.010
 4325TIP3    H134466   4.013   3.731   2.079
 4325TIP3    H234467   3.904   3.828   2.037
 4326TIP3   OH234468   4.113   1.725  12.595
 4326TIP3    H134469   4.169   1.757  12.524
 4326TIP3    H234470   4.079   1.642  12.563
 4327TIP3   OH234471   0.789   0.327  17.273
 4327TIP3    H134472   0.740   0.322  17.355
 4327TIP3    H234473   0.780   0.419  17.245
 4328TIP3   OH234474   4.841   5.339   4.275
 4328TIP3    H134475   4.863   5.292   4.355
 4328TIP3    H234476   4.916   5.323   4.217
 4329TIP3   OH234477   3.335   1.172  11.887
 4329TIP3    H134478   3.369   1.109  11.823
 4329TIP3    H234479   3.311   1.118  11.962
 4330TIP3   OH234480   1.435   6.455   1.252
 4330TIP3    H134481   1.390   6.387   1.303
 4330TIP3    H234482   1.459   6.412   1.170
 4331TIP3   OH234483   2.223   6.523  16.927
 4331TIP3    H134484   2.194   6.448  16.979
 4331TIP3    H234485   2.171   6.518  16.847
 4332TIP3   OH234486   2.092   2.863  14.400
 4332TIP3    H134487   2.058   2.949  14.425
 4332TIP3    H234488   2.178   2.859  14.442
 4333TIP3   OH234489   2.770   5.552  11.956
 4333TIP3    H134490   2.817   5.603  12.022
 4333TIP3    H234491   2.839   5.504  11.910
 4334TIP3   OH234492   0.797   6.526   2.460
 4334TIP3    H134493   0.786   6.508   2.367
 4334TIP3    H234494   0.731   6.471   2.503
 4335TIP3   OH234495   5.001   3.395  16.751
 4335TIP3    H134496   5.076   3.442  16.788
 4335TIP3    H234497   5.034   3.307  16.734
 4336TIP3   OH234498   0.053   5.739   0.727
 4336TIP3    H134499  -0.022   5.682   0.746
 4336TIP3    H234500   0.102   5.693   0.660
 4337TIP3   OH234501   0.880   1.618  11.240
 4337TIP3    H134502   0.840   1.670  11.169
 4337TIP3    H234503   0.914   1.683  11.301
 4338TIP3   OH234504   3.608   1.434  11.184
 4338TIP3    H134505   3.556   1.513  11.199
 4338TIP3    H234506   3.544   1.366  11.162
 4339TIP3   OH234507   3.476   6.192  12.600
 4339TIP3    H134508   3.551   6.230  12.646
 4339TIP3    H234509   3.400   6.238  12.636
 4340TIP3   OH234510   2.878   3.890   5.641
 4340TIP3    H134511   2.928   3.969   5.660
 4340TIP3    H234512   2.798   3.899   5.695
 4341TIP3   OH234513   2.660   0.270  16.607
 4341TIP3    H134514   2.704   0.204  16.554
 4341TIP3    H234515   2.568   0.266  16.580
 4342TIP3   OH234516   6.721   3.505   4.344
 4342TIP3    H134517   6.696   3.580   4.288
 4342TIP3    H234518   6.652   3.501   4.410
 4343TIP3   OH234519   4.037   3.233   2.512
 4343TIP3    H134520   4.091   3.307   2.541
 4343TIP3    H234521   4.075   3.157   2.555
 4344TIP3   OH234522   2.258   6.480  13.046
 4344TIP3    H134523   2.217   6.395  13.028
 4344TIP3    H234524   2.259   6.486  13.141
 4345TIP3   OH234525   1.183   2.651   4.297
 4345TIP3    H134526   1.232   2.570   4.311
 4345TIP3    H234527   1.195   2.671   4.205
 4346TIP3   OH234528   5.954   2.917  16.334
 4346TIP3    H134529   5.915   2.852  16.392
 4346TIP3    H234530   5.935   3.001  16.376
 4347TIP3   OH234531   6.021   3.251   4.162
 4347TIP3    H134532   6.043   3.215   4.076
 4347TIP3    H234533   5.927   3.270   4.157
 4348TIP3   OH234534   3.479   0.939  13.133
 4348TIP3    H134535   3.389   0.914  13.111
 4348TIP3    H234536   3.485   0.929  13.228
 4349TIP3   OH234537   5.730   0.493   2.468
 4349TIP3    H134538   5.799   0.432   2.440
 4349TIP3    H234539   5.688   0.519   2.386
 4350TIP3   OH234540   3.159   5.168  13.618
 4350TIP3    H134541   3.103   5.245  13.625
 4350TIP3    H234542   3.227   5.193  13.555
 4351TIP3   OH234543   5.154   4.305  11.499
 4351TIP3    H134544   5.158   4.346  11.586
 4351TIP3    H234545   5.244   4.277  11.482
 4352TIP3   OH234546   2.010   2.924  15.589
 4352TIP3    H134547   2.104   2.931  15.573
 4352TIP3    H234548   2.003   2.865  15.664
 4353TIP3   OH234549   3.913   4.063  12.672
 4353TIP3    H134550   3.828   4.033  12.641
 4353TIP3    H234551   3.900   4.081  12.765
 4354TIP3   OH234552   6.039   4.447   0.688
 4354TIP3    H134553   6.016   4.354   0.690
 4354TIP3    H234554   5.989   4.486   0.760
 4355TIP3   OH234555   4.724   2.858   1.757
 4355TIP3    H134556   4.754   2.883   1.844
 4355TIP3    H234557   4.681   2.774   1.770
 4356TIP3   OH234558   0.858   1.368  13.907
 4356TIP3    H134559   0.862   1.447  13.853
 4356TIP3    H234560   0.780   1.321  13.876
 4357TIP3   OH234561   4.949   1.816   3.590
 4357TIP3    H134562   4.895   1.852   3.520
 4357TIP3    H234563   4.898   1.741   3.622
 4358TIP3   OH234564   1.105   4.391   3.474
 4358TIP3    H134565   1.108   4.396   3.379
 4358TIP3    H234566   1.027   4.441   3.499
 4359TIP3   OH234567   6.305   3.402  15.791
 4359TIP3    H134568   6.214   3.429  15.797
 4359TIP3    H234569   6.342   3.421  15.877
 4360TIP3   OH234570   3.100   5.476  13.691
 4360TIP3    H134571   3.052   5.441  13.616
 4360TIP3    H234572   3.034   5.480  13.761
 4361TIP3   OH234573   4.495   6.610  11.675
 4361TIP3    H134574   4.573   6.645  11.632
 4361TIP3    H234575   4.422   6.645  11.624
 4362TIP3   OH234576   3.380   4.429  14.289
 4362TIP3    H134577   3.461   4.385  14.261
 4362TIP3    H234578   3.352   4.380  14.366
 4363TIP3   OH234579   2.231   2.004  12.549
 4363TIP3    H134580   2.194   2.011  12.637
 4363TIP3    H234581   2.216   1.912  12.524
 4364TIP3   OH234582   1.813   5.780   4.375
 4364TIP3    H134583   1.769   5.699   4.351
 4364TIP3    H234584   1.749   5.848   4.359
 4365TIP3   OH234585   5.059   0.055  15.350
 4365TIP3    H134586   5.103   0.109  15.416
 4365TIP3    H234587   4.988   0.110  15.317
 4366TIP3   OH234588   1.299   4.843   1.525
 4366TIP3    H134589   1.251   4.864   1.605
 4366TIP3    H234590   1.328   4.928   1.492
 4367TIP3   OH234591   5.678   3.474   2.810
 4367TIP3    H134592   5.664   3.398   2.866
 4367TIP3    H234593   5.711   3.542   2.869
 4368TIP3   OH234594   0.562   6.625   2.058
 4368TIP3    H134595   0.568   6.703   2.003
 4368TIP3    H234596   0.619   6.561   2.014
 4369TIP3   OH234597   3.612   5.271   6.232
 4369TIP3    H134598   3.636   5.201   6.293
 4369TIP3    H234599   3.561   5.333   6.284
 4370TIP3   OH234600   4.080   3.747  15.662
 4370TIP3    H134601   4.075   3.817  15.596
 4370TIP3    H234602   4.158   3.769  15.713
 4371TIP3   OH234603   3.933   0.974   6.592
 4371TIP3    H134604   3.984   1.043   6.549
 4371TIP3    H234605   3.901   1.016   6.673
 4372TIP3   OH234606   6.507   3.531   2.834
 4372TIP3    H134607   6.586   3.553   2.784
 4372TIP3    H234608   6.539   3.481   2.909
 4373TIP3   OH234609   0.307   0.768  13.186
 4373TIP3    H134610   0.257   0.774  13.105
 4373TIP3    H234611   0.240   0.764  13.255
 4374TIP3   OH234612   1.335   4.378  14.154
 4374TIP3    H134613   1.304   4.401  14.067
 4374TIP3    H234614   1.345   4.283  14.152
 4375TIP3   OH234615   2.560   1.482  15.093
 4375TIP3    H134616   2.629   1.489  15.027
 4375TIP3    H234617   2.581   1.401  15.140
 4376TIP3   OH234618   6.630   1.116   3.457
 4376TIP3    H134619   6.573   1.113   3.533
 4376TIP3    H234620   6.712   1.076   3.487
 4377TIP3   OH234621   5.316   5.951   2.828
 4377TIP3    H134622   5.388   6.009   2.856
 4377TIP3    H234623   5.329   5.871   2.878
 4378TIP3   OH234624   2.731   3.950   1.831
 4378TIP3    H134625   2.766   4.039   1.835
 4378TIP3    H234626   2.800   3.898   1.791
 4379TIP3   OH234627   3.549   4.826  14.430
 4379TIP3    H134628   3.534   4.908  14.382
 4379TIP3    H234629   3.507   4.759  14.376
 4380TIP3   OH234630   1.986   6.813  16.220
 4380TIP3    H134631   2.074   6.778  16.209
 4380TIP3    H234632   1.973   6.816  16.315
 4381TIP3   OH234633   0.588   6.692  14.381
 4381TIP3    H134634   0.551   6.771  14.343
 4381TIP3    H234635   0.659   6.667  14.321
 4382TIP3   OH234636   1.743   2.233   6.929
 4382TIP3    H134637   1.748   2.144   6.961
 4382TIP3    H234638   1.753   2.288   7.006
 4383TIP3   OH234639   3.535   0.183   2.038
 4383TIP3    H134640   3.488   0.258   2.075
 4383TIP3    H234641   3.565   0.133   2.114
 4384TIP3   OH234642   6.469   1.757   3.455
 4384TIP3    H134643   6.449   1.835   3.506
 4384TIP3    H234644   6.442   1.684   3.510
 4385TIP3   OH234645   5.672   0.980  15.915
 4385TIP3    H134646   5.674   1.050  15.850
 4385TIP3    H234647   5.659   0.900  15.864
 4386TIP3   OH234648   2.501   5.468   5.613
 4386TIP3    H134649   2.431   5.484   5.676
 4386TIP3    H234650   2.470   5.395   5.560
 4387TIP3   OH234651   3.812   1.633   3.145
 4387TIP3    H134652   3.842   1.694   3.077
 4387TIP3    H234653   3.717   1.631   3.135
 4388TIP3   OH234654   5.232   6.250  10.687
 4388TIP3    H134655   5.224   6.211  10.600
 4388TIP3    H234656   5.309   6.306  10.681
 4389TIP3   OH234657   1.232   5.959  14.037
 4389TIP3    H134658   1.271   6.017  14.102
 4389TIP3    H234659   1.146   5.936  14.074
 4390TIP3   OH234660   0.846   4.651  17.239
 4390TIP3    H134661   0.922   4.612  17.195
 4390TIP3    H234662   0.793   4.687  17.168
 4391TIP3   OH234663   5.250   3.195   0.708
 4391TIP3    H134664   5.162   3.169   0.734
 4391TIP3    H234665   5.237   3.279   0.663
 4392TIP3   OH234666   2.487   2.462   5.072
 4392TIP3    H134667   2.569   2.475   5.121
 4392TIP3    H234668   2.440   2.395   5.122
 4393TIP3   OH234669   3.474   5.105   5.069
 4393TIP3    H134670   3.467   5.192   5.110
 4393TIP3    H234671   3.398   5.057   5.103
 4394TIP3   OH234672   3.010   5.077  10.431
 4394TIP3    H134673   3.101   5.104  10.437
 4394TIP3    H234674   2.969   5.141  10.373
 4395TIP3   OH234675   0.684   4.220   4.697
 4395TIP3    H134676   0.658   4.239   4.787
 4395TIP3    H234677   0.649   4.294   4.646
 4396TIP3   OH234678   5.684   1.163  11.424
 4396TIP3    H134679   5.603   1.211  11.407
 4396TIP3    H234680   5.659   1.071  11.417
 4397TIP3   OH234681   0.923   3.469  11.136
 4397TIP3    H134682   0.964   3.503  11.216
 4397TIP3    H234683   0.953   3.378  11.132
 4398TIP3   OH234684   5.034   0.958   6.039
 4398TIP3    H134685   4.956   0.944   5.985
 4398TIP3    H234686   5.106   0.929   5.983
 4399TIP3   OH234687   6.065   5.610  14.317
 4399TIP3    H134688   6.051   5.541  14.252
 4399TIP3    H234689   6.142   5.657  14.284
 4400TIP3   OH234690   2.117   2.991   4.561
 4400TIP3    H134691   2.152   3.078   4.579
 4400TIP3    H234692   2.194   2.935   4.554
 4401TIP3   OH234693   4.183   4.325  14.474
 4401TIP3    H134694   4.174   4.389  14.404
 4401TIP3    H234695   4.164   4.373  14.554
 4402TIP3   OH234696   4.197   3.449   2.565
 4402TIP3    H134697   4.208   3.540   2.536
 4402TIP3    H234698   4.138   3.455   2.640
 4403TIP3   OH234699   1.062   3.269  15.734
 4403TIP3    H134700   1.111   3.336  15.781
 4403TIP3    H234701   0.986   3.315  15.699
 4404TIP3   OH234702   3.814   3.924  15.780
 4404TIP3    H134703   3.797   3.880  15.863
 4404TIP3    H234704   3.863   3.860  15.729
 4405TIP3   OH234705   6.201   0.187   1.827
 4405TIP3    H134706   6.107   0.175   1.816
 4405TIP3    H234707   6.216   0.171   1.921
 4406TIP3   OH234708   1.992   1.836   6.233
 4406TIP3    H134709   1.999   1.929   6.255
 4406TIP3    H234710   2.049   1.792   6.295
 4407TIP3   OH234711   4.083   4.476  14.673
 4407TIP3    H134712   4.016   4.436  14.729
 4407TIP3    H234713   4.042   4.556  14.640
 4408TIP3   OH234714   2.031   4.767  12.196
 4408TIP3    H134715   2.048   4.861  12.189
 4408TIP3    H234716   1.946   4.761  12.238
 4409TIP3   OH234717   2.531   3.400  12.264
 4409TIP3    H134718   2.542   3.317  12.216
 4409TIP3    H234719   2.440   3.425  12.249
 4410TIP3   OH234720   5.543   6.114   0.542
 4410TIP3    H134721   5.574   6.058   0.470
 4410TIP3    H234722   5.610   6.182   0.550
 4411TIP3   OH234723   2.457   0.764  11.504
 4411TIP3    H134724   2.506   0.835  11.462
 4411TIP3    H234725   2.491   0.760  11.593
 4412TIP3   OH234726   5.566   1.696  17.279
 4412TIP3    H134727   5.578   1.603  17.259
 4412TIP3    H234728   5.503   1.726  17.213
 4413TIP3   OH234729   5.738   2.971  13.117
 4413TIP3    H134730   5.783   2.890  13.142
 4413TIP3    H234731   5.645   2.947  13.115
 4414TIP3   OH234732   3.949   6.286  17.217
 4414TIP3    H134733   3.986   6.372  17.200
 4414TIP3    H234734   3.856   6.294  17.196
 4415TIP3   OH234735   4.368   2.488  12.422
 4415TIP3    H134736   4.429   2.492  12.496
 4415TIP3    H234737   4.351   2.580  12.401
 4416TIP3   OH234738   2.088   6.146  10.567
 4416TIP3    H134739   2.071   6.210  10.636
 4416TIP3    H234740   2.179   6.163  10.542
 4417TIP3   OH234741   3.511   1.057   4.782
 4417TIP3    H134742   3.505   1.127   4.716
 4417TIP3    H234743   3.421   1.036   4.803
 4418TIP3   OH234744   1.610   6.127   6.606
 4418TIP3    H134745   1.520   6.095   6.602
 4418TIP3    H234746   1.659   6.056   6.647
 4419TIP3   OH234747   0.028   1.446   4.291
 4419TIP3    H134748   0.076   1.526   4.268
 4419TIP3    H234749   0.031   1.393   4.211
 4420TIP3   OH234750   5.829   1.407   2.453
 4420TIP3    H134751   5.872   1.487   2.485
 4420TIP3    H234752   5.835   1.346   2.526
 4421TIP3   OH234753   3.028   3.498  11.688
 4421TIP3    H134754   2.948   3.496  11.636
 4421TIP3    H234755   3.023   3.581  11.736
 4422TIP3   OH234756   2.438   4.495  13.569
 4422TIP3    H134757   2.489   4.428  13.614
 4422TIP3    H234758   2.426   4.461  13.481
 4423TIP3   OH234759   5.767   0.461  12.303
 4423TIP3    H134760   5.757   0.529  12.236
 4423TIP3    H234761   5.741   0.380  12.259
 4424TIP3   OH234762   5.224   3.635  15.629
 4424TIP3    H134763   5.236   3.615  15.536
 4424TIP3    H234764   5.291   3.700  15.649
 4425TIP3   OH234765   1.085   0.523   5.921
 4425TIP3    H134766   1.063   0.496   6.011
 4425TIP3    H234767   1.110   0.443   5.877
 4426TIP3   OH234768   6.797   5.809  16.272
 4426TIP3    H134769   6.758   5.729  16.306
 4426TIP3    H234770   6.812   5.791  16.179
 4427TIP3   OH234771   4.618   0.009   3.102
 4427TIP3    H134772   4.539   0.026   3.153
 4427TIP3    H234773   4.667   0.091   3.106
 4428TIP3   OH234774   1.503   3.900  16.538
 4428TIP3    H134775   1.504   3.969  16.471
 4428TIP3    H234776   1.528   3.945  16.619
 4429TIP3   OH234777   6.606   3.334  12.592
 4429TIP3    H134778   6.524   3.286  12.584
 4429TIP3    H234779   6.643   3.307  12.676
 4430TIP3   OH234780   0.641   4.987   3.942
 4430TIP3    H134781   0.659   4.989   3.848
 4430TIP3    H234782   0.700   4.920   3.977
 4431TIP3   OH234783   0.420   1.997   3.973
 4431TIP3    H134784   0.476   1.933   4.015
 4431TIP3    H234785   0.479   2.050   3.920
 4432TIP3   OH234786   6.765   2.255  13.932
 4432TIP3    H134787   6.782   2.182  13.873
 4432TIP3    H234788   6.725   2.322  13.877
 4433TIP3   OH234789   2.671   1.714   3.999
 4433TIP3    H134790   2.615   1.679   4.069
 4433TIP3    H234791   2.759   1.714   4.038
 4434TIP3   OH234792   1.162   5.549  11.539
 4434TIP3    H134793   1.117   5.509  11.465
 4434TIP3    H234794   1.213   5.478  11.577
 4435TIP3   OH234795   2.426   3.380  12.525
 4435TIP3    H134796   2.457   3.396  12.436
 4435TIP3    H234797   2.425   3.466  12.566
 4436TIP3   OH234798   4.217   5.726   5.111
 4436TIP3    H134799   4.162   5.697   5.183
 4436TIP3    H234800   4.175   5.689   5.033
 4437TIP3   OH234801   0.543   1.208  15.206
 4437TIP3    H134802   0.475   1.147  15.234
 4437TIP3    H234803   0.621   1.180  15.254
 4438TIP3   OH234804   4.157   2.347  13.870
 4438TIP3    H134805   4.210   2.279  13.910
 4438TIP3    H234806   4.089   2.365  13.934
 4439TIP3   OH234807   6.494   3.661   1.481
 4439TIP3    H134808   6.512   3.622   1.395
 4439TIP3    H234809   6.568   3.634   1.536
 4440TIP3   OH234810   1.689   6.241   5.899
 4440TIP3    H134811   1.701   6.335   5.886
 4440TIP3    H234812   1.740   6.201   5.829
 4441TIP3   OH234813   5.567   5.971  15.145
 4441TIP3    H134814   5.495   5.909  15.151
 4441TIP3    H234815   5.646   5.918  15.155
 4442TIP3   OH234816   2.618   3.492  14.918
 4442TIP3    H134817   2.692   3.537  14.878
 4442TIP3    H234818   2.544   3.550  14.903
 4443TIP3   OH234819   1.665   0.404  16.461
 4443TIP3    H134820   1.724   0.407  16.386
 4443TIP3    H234821   1.679   0.486  16.508
 4444TIP3   OH234822   3.212   6.305  12.698
 4444TIP3    H134823   3.144   6.268  12.642
 4444TIP3    H234824   3.164   6.354  12.765
 4445TIP3   OH234825   1.474   5.407   1.853
 4445TIP3    H134826   1.395   5.460   1.861
 4445TIP3    H234827   1.473   5.349   1.929
 4446TIP3   OH234828   6.613   6.523  14.045
 4446TIP3    H134829   6.567   6.468  13.982
 4446TIP3    H234830   6.579   6.495  14.130
 4447TIP3   OH234831   6.632   4.134  17.000
 4447TIP3    H134832   6.551   4.099  16.962
 4447TIP3    H234833   6.631   4.227  16.978
 4448TIP3   OH234834   5.847   2.524  12.036
 4448TIP3    H134835   5.792   2.593  12.073
 4448TIP3    H234836   5.851   2.543  11.943
 4449TIP3   OH234837   5.716   4.677   2.726
 4449TIP3    H134838   5.727   4.764   2.765
 4449TIP3    H234839   5.627   4.651   2.749
 4450TIP3   OH234840   2.146   4.767  12.855
 4450TIP3    H134841   2.130   4.678  12.825
 4450TIP3    H234842   2.205   4.805  12.790
 4451TIP3   OH234843   1.488   1.479   5.376
 4451TIP3    H134844   1.483   1.522   5.290
 4451TIP3    H234845   1.434   1.533   5.433
 4452TIP3   OH234846   6.675   4.803  16.027
 4452TIP3    H134847   6.631   4.756  16.098
 4452TIP3    H234848   6.761   4.761  16.021
 4453TIP3   OH234849   0.774   3.600   0.008
 4453TIP3    H134850   0.822   3.570  -0.070
 4453TIP3    H234851   0.743   3.519   0.049
 4454TIP3   OH234852   5.072   3.712   0.224
 4454TIP3    H134853   5.132   3.669   0.285
 4454TIP3    H234854   5.087   3.668   0.140
 4455TIP3   OH234855   2.569   4.324   2.357
 4455TIP3    H134856   2.622   4.328   2.436
 4455TIP3    H234857   2.479   4.317   2.388
 4456TIP3   OH234858   5.038   5.193   0.283
 4456TIP3    H134859   4.998   5.139   0.351
 4456TIP3    H234860   4.966   5.246   0.249
 4457TIP3   OH234861   2.877   6.232  15.419
 4457TIP3    H134862   2.869   6.271  15.332
 4457TIP3    H234863   2.935   6.157  15.406
 4458TIP3   OH234864   3.584   0.551   0.449
 4458TIP3    H134865   3.607   0.555   0.357
 4458TIP3    H234866   3.518   0.481   0.455
 4459TIP3   OH234867   3.558   3.674   5.487
 4459TIP3    H134868   3.525   3.654   5.400
 4459TIP3    H234869   3.567   3.770   5.488
 4460TIP3   OH234870   0.591   3.528   4.939
 4460TIP3    H134871   0.539   3.462   4.894
 4460TIP3    H234872   0.623   3.585   4.869
 4461TIP3   OH234873   2.089   2.947   5.103
 4461TIP3    H134874   2.075   2.995   5.184
 4461TIP3    H234875   2.044   2.999   5.036
 4462TIP3   OH234876   0.357   0.725  16.934
 4462TIP3    H134877   0.389   0.668  17.005
 4462TIP3    H234878   0.279   0.766  16.971
 4463TIP3   OH234879   4.344   0.861   1.928
 4463TIP3    H134880   4.276   0.905   1.980
 4463TIP3    H234881   4.417   0.923   1.927
 4464TIP3   OH234882   2.600   3.706  16.839
 4464TIP3    H134883   2.637   3.646  16.773
 4464TIP3    H234884   2.665   3.707  16.909
 4465TIP3   OH234885   3.306   1.520  13.721
 4465TIP3    H134886   3.276   1.525  13.812
 4465TIP3    H234887   3.262   1.444  13.684
 4466TIP3   OH234888   6.165   6.552   0.154
 4466TIP3    H134889   6.166   6.497   0.233
 4466TIP3    H234890   6.105   6.623   0.175
 4467TIP3   OH234891   5.925   4.682  11.830
 4467TIP3    H134892   5.885   4.603  11.794
 4467TIP3    H234893   5.852   4.737  11.858
 4468TIP3   OH234894   2.272   2.317  12.799
 4468TIP3    H134895   2.334   2.323  12.727
 4468TIP3    H234896   2.205   2.382  12.779
 4469TIP3   OH234897   3.473   1.135  15.893
 4469TIP3    H134898   3.552   1.121  15.946
 4469TIP3    H234899   3.488   1.219  15.850
 4470TIP3   OH234900   2.383   0.608  17.063
 4470TIP3    H134901   2.450   0.608  17.131
 4470TIP3    H234902   2.346   0.696  17.065
 4471TIP3   OH234903   3.826   6.033   1.255
 4471TIP3    H134904   3.750   5.976   1.241
 4471TIP3    H234905   3.793   6.121   1.237
 4472TIP3   OH234906   1.917   0.743  12.755
 4472TIP3    H134907   1.963   0.713  12.676
 4472TIP3    H234908   1.906   0.837  12.741
 4473TIP3   OH234909   0.569   0.022   3.336
 4473TIP3    H134910   0.652   0.016   3.288
 4473TIP3    H234911   0.594   0.046   3.425
 4474TIP3   OH234912   3.018   2.979   5.433
 4474TIP3    H134913   3.090   2.930   5.394
 4474TIP3    H234914   2.980   2.920   5.498
 4475TIP3   OH234915   6.368   3.121  15.075
 4475TIP3    H134916   6.319   3.126  14.993
 4475TIP3    H234917   6.452   3.162  15.055
 4476TIP3   OH234918   6.756   4.661  14.208
 4476TIP3    H134919   6.718   4.743  14.240
 4476TIP3    H234920   6.849   4.667  14.232
 4477TIP3   OH234921   2.692   0.261  12.141
 4477TIP3    H134922   2.769   0.270  12.085
 4477TIP3    H234923   2.670   0.350  12.166
 4478TIP3   OH234924   0.955   1.593  16.141
 4478TIP3    H134925   0.895   1.569  16.070
 4478TIP3    H234926   1.016   1.655  16.101
 4479TIP3   OH234927   6.703   3.909   2.231
 4479TIP3    H134928   6.762   3.850   2.183
 4479TIP3    H234929   6.618   3.865   2.228
 4480TIP3   OH234930   2.411   6.641  15.204
 4480TIP3    H134931   2.488   6.691  15.230
 4480TIP3    H234932   2.429   6.615  15.113
 4481TIP3   OH234933   6.409   2.196   0.031
 4481TIP3    H134934   6.374   2.131  -0.030
 4481TIP3    H234935   6.484   2.153   0.072
 4482TIP3   OH234936   5.236   4.121   0.984
 4482TIP3    H134937   5.230   4.028   0.963
 4482TIP3    H234938   5.185   4.165   0.916
 4483TIP3   OH234939   3.779   1.072  11.761
 4483TIP3    H134940   3.770   0.976  11.760
 4483TIP3    H234941   3.708   1.102  11.818
 4484TIP3   OH234942   3.035   1.215   6.242
 4484TIP3    H134943   3.081   1.297   6.227
 4484TIP3    H234944   3.100   1.157   6.282
 4485TIP3   OH234945   0.066   0.806  15.167
 4485TIP3    H134946   0.146   0.764  15.136
 4485TIP3    H234947   0.082   0.900  15.152
 4486TIP3   OH234948   2.415   6.224  15.761
 4486TIP3    H134949   2.411   6.309  15.719
 4486TIP3    H234950   2.328   6.212  15.799
 4487TIP3   OH234951   1.701   0.223  12.717
 4487TIP3    H134952   1.772   0.185  12.666
 4487TIP3    H234953   1.670   0.298  12.665
 4488TIP3   OH234954   0.511   3.038   4.608
 4488TIP3    H134955   0.491   3.129   4.590
 4488TIP3    H234956   0.426   2.998   4.627
 4489TIP3   OH234957   6.676   6.254   6.343
 4489TIP3    H134958   6.604   6.214   6.295
 4489TIP3    H234959   6.661   6.349   6.334
 4490TIP3   OH234960   3.222   1.053  16.698
 4490TIP3    H134961   3.192   1.144  16.701
 4490TIP3    H234962   3.153   1.003  16.740
 4491TIP3   OH234963   6.132   1.296   1.132
 4491TIP3    H134964   6.221   1.285   1.097
 4491TIP3    H234965   6.129   1.238   1.208
 4492TIP3   OH234966   4.332   6.233   4.099
 4492TIP3    H134967   4.346   6.147   4.059
 4492TIP3    H234968   4.238   6.246   4.097
 4493TIP3   OH234969   0.886   0.532   6.140
 4493TIP3    H134970   0.812   0.565   6.190
 4493TIP3    H234971   0.847   0.474   6.074
 4494TIP3   OH234972   6.120   2.745   1.823
 4494TIP3    H134973   6.115   2.790   1.738
 4494TIP3    H234974   6.056   2.673   1.815
 4495TIP3   OH234975   4.394   3.701   6.233
 4495TIP3    H134976   4.363   3.718   6.144
 4495TIP3    H234977   4.479   3.745   6.237
 4496TIP3   OH234978   3.055   6.644   0.593
 4496TIP3    H134979   3.135   6.606   0.557
 4496TIP3    H234980   2.986   6.582   0.570
 4497TIP3   OH234981   0.431   4.673  13.715
 4497TIP3    H134982   0.487   4.604  13.679
 4497TIP3    H234983   0.342   4.638  13.708
 4498TIP3   OH234984   0.949   0.520  12.337
 4498TIP3    H134985   0.979   0.534  12.248
 4498TIP3    H234986   1.021   0.473  12.380
 4499TIP3   OH234987   4.124   2.509  16.268
 4499TIP3    H134988   4.208   2.550  16.289
 4499TIP3    H234989   4.143   2.456  16.190
 4500TIP3   OH234990   0.050   2.283  12.291
 4500TIP3    H134991   0.018   2.199  12.256
 4500TIP3    H234992  -0.027   2.323  12.332
 4501TIP3   OH234993   6.262   3.140  17.219
 4501TIP3    H134994   6.191   3.143  17.283
 4501TIP3    H234995   6.281   3.047  17.209
 4502TIP3   OH234996   1.711   4.160  12.721
 4502TIP3    H134997   1.775   4.109  12.672
 4502TIP3    H234998   1.646   4.096  12.751
 4503TIP3   OH234999   2.747   6.120  16.548
 4503TIP3    H135000   2.718   6.060  16.616
 4503TIP3    H235001   2.806   6.068  16.493
 4504TIP3   OH235002   0.810   4.735  10.839
 4504TIP3    H135003   0.799   4.659  10.896
 4504TIP3    H235004   0.900   4.763  10.854
 4505TIP3   OH235005   5.030   3.983  17.282
 4505TIP3    H135006   5.114   3.947  17.309
 4505TIP3    H235007   5.044   4.012  17.192
 4506TIP3   OH235008   5.002   2.227  14.027
 4506TIP3    H135009   4.987   2.186  14.112
 4506TIP3    H235010   4.990   2.321  14.044
 4507TIP3   OH235011   1.742   0.399  16.191
 4507TIP3    H135012   1.650   0.396  16.163
 4507TIP3    H235013   1.756   0.490  16.218
 4508TIP3   OH235014   6.629   2.236   6.231
 4508TIP3    H135015   6.676   2.198   6.305
 4508TIP3    H235016   6.683   2.310   6.204
 4509TIP3   OH235017   5.240   4.660  13.445
 4509TIP3    H135018   5.214   4.730  13.504
 4509TIP3    H235019   5.220   4.694  13.357
 4510TIP3   OH235020   5.840   0.613  16.046
 4510TIP3    H135021   5.752   0.595  16.015
 4510TIP3    H235022   5.845   0.568  16.131
 4511TIP3   OH235023   5.386   4.269  12.898
 4511TIP3    H135024   5.465   4.322  12.885
 4511TIP3    H235025   5.332   4.288  12.821
 4512TIP3   OH235026   5.049   3.525   4.570
 4512TIP3    H135027   4.967   3.536   4.618
 4512TIP3    H235028   5.040   3.582   4.493
 4513TIP3   OH235029   5.749   5.850   5.286
 4513TIP3    H135030   5.829   5.805   5.261
 4513TIP3    H235031   5.694   5.782   5.325
 4514TIP3   OH235032   0.108   2.398  14.096
 4514TIP3    H135033   0.031   2.366  14.050
 4514TIP3    H235034   0.180   2.347  14.060
 4515TIP3   OH235035   1.966   6.655  14.400
 4515TIP3    H135036   1.877   6.681  14.376
 4515TIP3    H235037   1.955   6.579  14.456
 4516TIP3   OH235038   5.288   1.467  12.238
 4516TIP3    H135039   5.241   1.443  12.318
 4516TIP3    H235040   5.226   1.448  12.167
 4517TIP3   OH235041   5.002   4.869  12.690
 4517TIP3    H135042   5.001   4.964  12.705
 4517TIP3    H235043   4.914   4.841  12.714
 4518TIP3   OH235044   5.625   3.060   5.330
 4518TIP3    H135045   5.631   3.045   5.424
 4518TIP3    H235046   5.560   3.129   5.321
 4519TIP3   OH235047   5.254   0.547   4.630
 4519TIP3    H135048   5.161   0.525   4.631
 4519TIP3    H235049   5.297   0.472   4.671
 4520TIP3   OH235050   0.755   0.451   1.106
 4520TIP3    H135051   0.667   0.421   1.087
 4520TIP3    H235052   0.786   0.393   1.176
 4521TIP3   OH235053   5.993   1.930   2.400
 4521TIP3    H135054   6.073   1.952   2.447
 4521TIP3    H235055   5.923   1.972   2.450
 4522TIP3   OH235056   0.296   3.187  11.756
 4522TIP3    H135057   0.365   3.253  11.760
 4522TIP3    H235058   0.321   3.122  11.821
 4523TIP3   OH235059   4.598   4.805  14.796
 4523TIP3    H135060   4.565   4.868  14.861
 4523TIP3    H235061   4.677   4.845  14.761
 4524TIP3   OH235062   3.635   2.992   2.434
 4524TIP3    H135063   3.545   2.978   2.463
 4524TIP3    H235064   3.657   3.079   2.467
 4525TIP3   OH235065   0.778   1.161   3.071
 4525TIP3    H135066   0.824   1.182   2.990
 4525TIP3    H235067   0.712   1.096   3.044
 4526TIP3   OH235068   4.808   3.682  17.283
 4526TIP3    H135069   4.773   3.669  17.371
 4526TIP3    H235070   4.885   3.625  17.279
 4527TIP3   OH235071   1.212   6.678   2.344
 4527TIP3    H135072   1.303   6.705   2.335
 4527TIP3    H235073   1.162   6.743   2.294
 4528TIP3   OH235074   0.393   4.393   6.287
 4528TIP3    H135075   0.398   4.298   6.284
 4528TIP3    H235076   0.352   4.413   6.371
 4529TIP3   OH235077   1.001   3.037  15.582
 4529TIP3    H135078   1.044   3.068  15.503
 4529TIP3    H235079   1.022   3.103  15.648
 4530TIP3   OH235080   4.640   0.917   5.641
 4530TIP3    H135081   4.588   0.988   5.602
 4530TIP3    H235082   4.602   0.905   5.728
 4531TIP3   OH235083   5.812   4.171   3.121
 4531TIP3    H135084   5.902   4.146   3.143
 4531TIP3    H235085   5.767   4.089   3.103
 4532TIP3   OH235086   5.518   3.991  17.088
 4532TIP3    H135087   5.578   3.931  17.133
 4532TIP3    H235088   5.541   4.078  17.122
 4533TIP3   OH235089   4.379   4.722  15.187
 4533TIP3    H135090   4.389   4.797  15.128
 4533TIP3    H235091   4.420   4.650  15.139
 4534TIP3   OH235092   5.076   5.271  12.151
 4534TIP3    H135093   5.158   5.222  12.153
 4534TIP3    H235094   5.101   5.359  12.180
 4535TIP3   OH235095   2.990   4.611   4.816
 4535TIP3    H135096   2.945   4.530   4.793
 4535TIP3    H235097   3.052   4.585   4.885
 4536TIP3   OH235098   0.662   1.624  11.492
 4536TIP3    H135099   0.622   1.609  11.407
 4536TIP3    H235100   0.619   1.561  11.550
 4537TIP3   OH235101   4.565   0.195  10.942
 4537TIP3    H135102   4.566   0.260  11.012
 4537TIP3    H235103   4.657   0.180  10.921
 4538TIP3   OH235104   5.444   5.695   0.236
 4538TIP3    H135105   5.478   5.644   0.309
 4538TIP3    H235106   5.408   5.630   0.176
 4539TIP3   OH235107   5.495   1.184   5.660
 4539TIP3    H135108   5.451   1.189   5.575
 4539TIP3    H235109   5.426   1.199   5.724
 4540TIP3   OH235110   0.241   5.427   4.752
 4540TIP3    H135111   0.256   5.335   4.730
 4540TIP3    H235112   0.170   5.454   4.695
 4541TIP3   OH235113   3.851   3.044  14.624
 4541TIP3    H135114   3.869   3.000  14.541
 4541TIP3    H235115   3.852   3.137  14.603
 4542TIP3   OH235116   4.227   3.734   4.137
 4542TIP3    H135117   4.194   3.785   4.063
 4542TIP3    H235118   4.283   3.795   4.186
 4543TIP3   OH235119   1.153   4.136   0.859
 4543TIP3    H135120   1.156   4.079   0.781
 4543TIP3    H235121   1.181   4.221   0.826
 4544TIP3   OH235122   6.547   0.873  11.120
 4544TIP3    H135123   6.492   0.931  11.173
 4544TIP3    H235124   6.530   0.901  11.030
 4545TIP3   OH235125   1.439   2.912   3.295
 4545TIP3    H135126   1.387   2.879   3.368
 4545TIP3    H235127   1.398   2.873   3.217
 4546TIP3   OH235128   3.613   6.145   4.488
 4546TIP3    H135129   3.705   6.136   4.512
 4546TIP3    H235130   3.613   6.156   4.393
 4547TIP3   OH235131   6.334   0.517   4.769
 4547TIP3    H135132   6.367   0.594   4.816
 4547TIP3    H235133   6.363   0.530   4.679
 4548TIP3   OH235134   4.275   4.234  12.692
 4548TIP3    H135135   4.209   4.274  12.636
 4548TIP3    H235136   4.290   4.297  12.762
 4549TIP3   OH235137   6.727   4.128  14.195
 4549TIP3    H135138   6.637   4.147  14.168
 4549TIP3    H235139   6.728   4.144  14.289
 4550TIP3   OH235140   4.064   3.164  13.553
 4550TIP3    H135141   4.082   3.210  13.635
 4550TIP3    H235142   4.128   3.200  13.491
 4551TIP3   OH235143   6.804   5.124   1.634
 4551TIP3    H135144   6.807   5.215   1.602
 4551TIP3    H235145   6.794   5.133   1.729
 4552TIP3   OH235146   1.317   0.645   5.948
 4552TIP3    H135147   1.279   0.649   5.861
 4552TIP3    H235148   1.253   0.596   6.000
 4553TIP3   OH235149   5.650   3.085  12.570
 4553TIP3    H135150   5.683   3.004  12.608
 4553TIP3    H235151   5.574   3.108  12.623
 4554TIP3   OH235152   1.890   2.053   5.171
 4554TIP3    H135153   1.844   2.126   5.214
 4554TIP3    H235154   1.821   2.004   5.127
 4555TIP3   OH235155   6.111   4.762   3.137
 4555TIP3    H135156   6.181   4.749   3.202
 4555TIP3    H235157   6.081   4.674   3.116
 4556TIP3   OH235158   0.979   0.751   5.805
 4556TIP3    H135159   1.032   0.830   5.808
 4556TIP3    H235160   1.042   0.679   5.813
 4557TIP3   OH235161   3.742   5.754  12.882
 4557TIP3    H135162   3.765   5.729  12.792
 4557TIP3    H235163   3.779   5.684  12.936
 4558TIP3   OH235164   2.888   4.305   0.403
 4558TIP3    H135165   2.968   4.253   0.391
 4558TIP3    H235166   2.867   4.295   0.496
 4559TIP3   OH235167   3.515   5.166   1.866
 4559TIP3    H135168   3.421   5.161   1.884
 4559TIP3    H235169   3.539   5.255   1.894
 4560TIP3   OH235170   4.528   3.745  15.580
 4560TIP3    H135171   4.600   3.808  15.578
 4560TIP3    H235172   4.514   3.723  15.488
 4561TIP3   OH235173   3.148   4.334  16.819
 4561TIP3    H135174   3.105   4.264  16.770
 4561TIP3    H235175   3.136   4.412  16.763
 4562TIP3   OH235176   0.685   3.924  14.159
 4562TIP3    H135177   0.705   3.878  14.077
 4562TIP3    H235178   0.698   3.858  14.227
 4563TIP3   OH235179   0.416   1.875   3.334
 4563TIP3    H135180   0.348   1.899   3.272
 4563TIP3    H235181   0.493   1.924   3.307
 4564TIP3   OH235182   6.161   4.796   4.760
 4564TIP3    H135183   6.180   4.767   4.671
 4564TIP3    H235184   6.238   4.770   4.811
 4565TIP3   OH235185   6.200   2.378   0.083
 4565TIP3    H135186   6.143   2.324   0.136
 4565TIP3    H235187   6.278   2.324   0.068
 4566TIP3   OH235188   2.939   3.514  12.163
 4566TIP3    H135189   2.860   3.497  12.113
 4566TIP3    H235190   2.930   3.604  12.194
 4567TIP3   OH235191   1.391   1.109  11.623
 4567TIP3    H135192   1.362   1.070  11.540
 4567TIP3    H235193   1.363   1.047  11.690
 4568TIP3   OH235194   6.578   1.378   0.776
 4568TIP3    H135195   6.598   1.295   0.819
 4568TIP3    H235196   6.662   1.404   0.736
 4569TIP3   OH235197   2.975   1.944   4.596
 4569TIP3    H135198   2.938   1.874   4.541
 4569TIP3    H235199   3.050   1.903   4.639
 4570TIP3   OH235200   3.328   6.817  11.519
 4570TIP3    H135201   3.300   6.844  11.431
 4570TIP3    H235202   3.421   6.796  11.509
 4571TIP3   OH235203   2.396   0.426  13.644
 4571TIP3    H135204   2.425   0.338  13.620
 4571TIP3    H235205   2.389   0.473  13.561
 4572TIP3   OH235206   6.202   6.789  10.593
 4572TIP3    H135207   6.152   6.869  10.603
 4572TIP3    H235208   6.139   6.719  10.610
 4573TIP3   OH235209   1.208   3.962   0.340
 4573TIP3    H135210   1.243   3.887   0.387
 4573TIP3    H235211   1.171   4.018   0.409
 4574TIP3   OH235212   4.489   5.910   6.418
 4574TIP3    H135213   4.480   6.005   6.413
 4574TIP3    H235214   4.400   5.878   6.433
 4575TIP3   OH235215   3.681   4.872  17.191
 4575TIP3    H135216   3.603   4.927  17.196
 4575TIP3    H235217   3.712   4.883  17.101
 4576TIP3   OH235218   5.421   4.359  13.661
 4576TIP3    H135219   5.371   4.287  13.624
 4576TIP3    H235220   5.492   4.374  13.598
 4577TIP3   OH235221   6.594   5.720   2.234
 4577TIP3    H135222   6.650   5.718   2.312
 4577TIP3    H235223   6.656   5.717   2.160
 4578TIP3   OH235224   3.076   4.373  15.145
 4578TIP3    H135225   3.085   4.445  15.082
 4578TIP3    H235226   3.030   4.305  15.097
 4579TIP3   OH235227   4.832   4.339  15.712
 4579TIP3    H135228   4.781   4.270  15.753
 4579TIP3    H235229   4.776   4.371  15.641
 4580TIP3   OH235230   0.048   0.025   3.950
 4580TIP3    H135231  -0.028  -0.030   3.937
 4580TIP3    H235232   0.121  -0.025   3.913
 4581TIP3   OH235233   4.616   4.356   1.829
 4581TIP3    H135234   4.689   4.384   1.885
 4581TIP3    H235235   4.541   4.352   1.889
 4582TIP3   OH235236   5.305   4.145  13.516
 4582TIP3    H135237   5.301   4.095  13.598
 4582TIP3    H235238   5.350   4.087  13.455
 4583TIP3   OH235239   6.648   6.019  11.822
 4583TIP3    H135240   6.590   6.094  11.809
 4583TIP3    H235241   6.665   5.987  11.733
 4584TIP3   OH235242   4.825   0.663   0.694
 4584TIP3    H135243   4.835   0.673   0.599
 4584TIP3    H235244   4.783   0.578   0.705
 4585TIP3   OH235245   4.238   3.445  14.442
 4585TIP3    H135246   4.220   3.367  14.389
 4585TIP3    H235247   4.333   3.449  14.448
 4586TIP3   OH235248   2.757   4.808   1.037
 4586TIP3    H135249   2.707   4.796   1.117
 4586TIP3    H235250   2.783   4.900   1.039
 4587TIP3   OH235251   0.011   4.207   4.871
 4587TIP3    H135252  -0.058   4.140   4.871
 4587TIP3    H235253   0.082   4.169   4.819
 4588TIP3   OH235254   6.125   5.196  13.823
 4588TIP3    H135255   6.172   5.259  13.769
 4588TIP3    H235256   6.034   5.223  13.818
 4589TIP3   OH235257   6.662   5.013  17.233
 4589TIP3    H135258   6.588   5.053  17.280
 4589TIP3    H235259   6.656   4.920  17.254
 4590TIP3   OH235260   5.373   5.512   1.758
 4590TIP3    H135261   5.468   5.527   1.751
 4590TIP3    H235262   5.335   5.571   1.692
 4591TIP3   OH235263   2.425   4.520   4.465
 4591TIP3    H135264   2.382   4.593   4.509
 4591TIP3    H235265   2.510   4.512   4.508
 4592TIP3   OH235266   1.369   6.066   1.574
 4592TIP3    H135267   1.398   6.087   1.486
 4592TIP3    H235268   1.350   6.150   1.615
 4593TIP3   OH235269   4.672   2.147   1.106
 4593TIP3    H135270   4.578   2.156   1.121
 4593TIP3    H235271   4.713   2.185   1.184
 4594TIP3   OH235272   2.866   3.451  15.876
 4594TIP3    H135273   2.866   3.355  15.880
 4594TIP3    H235274   2.910   3.472  15.795
 4595TIP3   OH235275   0.366   4.526   5.614
 4595TIP3    H135276   0.422   4.528   5.537
 4595TIP3    H235277   0.349   4.433   5.629
 4596TIP3   OH235278   4.240   2.795   1.840
 4596TIP3    H135279   4.260   2.863   1.776
 4596TIP3    H235280   4.316   2.736   1.836
 4597TIP3   OH235281   0.832   4.683  13.549
 4597TIP3    H135282   0.823   4.593  13.578
 4597TIP3    H235283   0.898   4.721  13.606
 4598TIP3   OH235284   1.016   6.508   3.285
 4598TIP3    H135285   0.983   6.422   3.258
 4598TIP3    H235286   1.107   6.492   3.309
 4599TIP3   OH235287   0.642   1.888   4.156
 4599TIP3    H135288   0.687   1.908   4.238
 4599TIP3    H235289   0.704   1.913   4.088
 4600TIP3   OH235290   6.809   1.510   1.478
 4600TIP3    H135291   6.780   1.532   1.390
 4600TIP3    H235292   6.775   1.422   1.493
 4601TIP3   OH235293   4.739   5.332   4.579
 4601TIP3    H135294   4.704   5.244   4.593
 4601TIP3    H235295   4.832   5.325   4.599
 4602TIP3   OH235296   2.724   0.584  17.146
 4602TIP3    H135297   2.667   0.563  17.220
 4602TIP3    H235298   2.666   0.622  17.080
 4603TIP3   OH235299   6.255   4.986   2.957
 4603TIP3    H135300   6.185   4.977   3.020
 4603TIP3    H235301   6.335   4.996   3.009
 4604TIP3   OH235302   4.698   4.033  12.416
 4604TIP3    H135303   4.654   4.003  12.496
 4604TIP3    H235304   4.674   4.125  12.409
 4605TIP3   OH235305   1.411   3.678  17.009
 4605TIP3    H135306   1.323   3.655  17.040
 4605TIP3    H235307   1.470   3.628  17.065
 4606TIP3   OH235308   3.189   6.468   3.969
 4606TIP3    H135309   3.153   6.382   3.994
 4606TIP3    H235310   3.205   6.512   4.052
 4607TIP3   OH235311   3.960   5.985  14.010
 4607TIP3    H135312   4.019   6.009  14.082
 4607TIP3    H235313   3.983   6.046  13.939
 4608TIP3   OH235314   6.217   2.315   1.154
 4608TIP3    H135315   6.217   2.411   1.154
 4608TIP3    H235316   6.153   2.291   1.221
 4609TIP3   OH235317   4.936   1.901  13.564
 4609TIP3    H135318   4.980   1.816  13.559
 4609TIP3    H235319   4.936   1.922  13.657
 4610TIP3   OH235320   1.345   2.579   6.098
 4610TIP3    H135321   1.366   2.653   6.040
 4610TIP3    H235322   1.426   2.528   6.101
 4611TIP3   OH235323   3.838   1.084   2.315
 4611TIP3    H135324   3.885   1.162   2.286
 4611TIP3    H235325   3.763   1.078   2.255
 4612TIP3   OH235326   3.136   0.163   5.533
 4612TIP3    H135327   3.133   0.189   5.625
 4612TIP3    H235328   3.064   0.211   5.492
 4613TIP3   OH235329   4.126   1.248   4.879
 4613TIP3    H135330   4.051   1.201   4.841
 4613TIP3    H235331   4.166   1.184   4.938
 4614TIP3   OH235332   5.231   2.717  14.564
 4614TIP3    H135333   5.200   2.629  14.585
 4614TIP3    H235334   5.222   2.724  14.469
 4615TIP3   OH235335   1.713   1.827  14.157
 4615TIP3    H135336   1.705   1.844  14.063
 4615TIP3    H235337   1.713   1.732  14.165
 4616TIP3   OH235338   2.837   4.011   4.084
 4616TIP3    H135339   2.920   3.980   4.121
 4616TIP3    H235340   2.815   4.089   4.134
 4617TIP3   OH235341   5.500   2.054   5.595
 4617TIP3    H135342   5.533   2.140   5.567
 4617TIP3    H235343   5.442   2.027   5.524
 4618TIP3   OH235344   5.003   5.159  12.642
 4618TIP3    H135345   4.970   5.188  12.558
 4618TIP3    H235346   5.010   5.239  12.694
 4619TIP3   OH235347   2.420   1.774  12.308
 4619TIP3    H135348   2.423   1.731  12.223
 4619TIP3    H235349   2.443   1.705  12.370
 4620TIP3   OH235350   4.962   5.267  15.469
 4620TIP3    H135351   5.027   5.255  15.538
 4620TIP3    H235352   4.885   5.304  15.514
 4621TIP3   OH235353   0.166   6.735  15.362
 4621TIP3    H135354   0.080   6.699  15.343
 4621TIP3    H235355   0.160   6.763  15.454
 4622TIP3   OH235356   4.923   3.530  16.524
 4622TIP3    H135357   4.941   3.463  16.459
 4622TIP3    H235358   4.950   3.491  16.608
 4623TIP3   OH235359   3.187   4.315  13.592
 4623TIP3    H135360   3.153   4.361  13.668
 4623TIP3    H235361   3.271   4.356  13.574
 4624TIP3   OH235362   0.721   5.480   3.274
 4624TIP3    H135363   0.707   5.458   3.366
 4624TIP3    H235364   0.653   5.543   3.254
 4625TIP3   OH235365   3.770   2.743  15.876
 4625TIP3    H135366   3.708   2.798  15.924
 4625TIP3    H235367   3.716   2.673  15.839
 4626TIP3   OH235368   4.411   2.734  15.494
 4626TIP3    H135369   4.459   2.810  15.527
 4626TIP3    H235370   4.369   2.696  15.571
 4627TIP3   OH235371   2.171   3.558  14.838
 4627TIP3    H135372   2.111   3.594  14.904
 4627TIP3    H235373   2.255   3.601  14.856
 4628TIP3   OH235374   3.248   1.191  14.104
 4628TIP3    H135375   3.308   1.151  14.042
 4628TIP3    H235376   3.162   1.155  14.080
 4629TIP3   OH235377   5.066   6.277  14.146
 4629TIP3    H135378   5.084   6.259  14.239
 4629TIP3    H235379   5.145   6.247  14.101
 4630TIP3   OH235380   6.729   6.784   4.433
 4630TIP3    H135381   6.645   6.770   4.477
 4630TIP3    H235382   6.723   6.730   4.354
 4631TIP3   OH235383   4.605   2.991   2.104
 4631TIP3    H135384   4.541   3.026   2.167
 4631TIP3    H235385   4.571   3.016   2.018
 4632TIP3   OH235386   6.132   3.320  14.064
 4632TIP3    H135387   6.207   3.293  14.116
 4632TIP3    H235388   6.057   3.309  14.122
 4633TIP3   OH235389   0.178   2.934  13.812
 4633TIP3    H135390   0.196   2.924  13.718
 4633TIP3    H235391   0.265   2.941  13.852
 4634TIP3   OH235392   0.769   6.047   3.113
 4634TIP3    H135393   0.686   6.019   3.151
 4634TIP3    H235394   0.745   6.093   3.033
 4635TIP3   OH235395   5.055   1.120  12.720
 4635TIP3    H135396   4.966   1.138  12.689
 4635TIP3    H235397   5.076   1.192  12.779
 4636TIP3   OH235398   3.408   5.810   5.222
 4636TIP3    H135399   3.436   5.901   5.216
 4636TIP3    H235400   3.489   5.759   5.215
 4637TIP3   OH235401   6.432   6.304  10.987
 4637TIP3    H135402   6.465   6.392  11.006
 4637TIP3    H235403   6.403   6.308  10.896
 4638TIP3   OH235404   0.582   1.324  13.400
 4638TIP3    H135405   0.634   1.402  13.422
 4638TIP3    H235406   0.491   1.354  13.404
 4639TIP3   OH235407   2.275   1.082  12.905
 4639TIP3    H135408   2.214   1.151  12.934
 4639TIP3    H235409   2.303   1.111  12.818
 4640TIP3   OH235410   1.287   6.180  11.962
 4640TIP3    H135411   1.278   6.135  11.878
 4640TIP3    H235412   1.215   6.147  12.016
 4641TIP3   OH235413   6.199   4.263   6.136
 4641TIP3    H135414   6.111   4.300   6.141
 4641TIP3    H235415   6.247   4.306   6.207
 4642TIP3   OH235416   5.417   2.521   5.118
 4642TIP3    H135417   5.388   2.493   5.031
 4642TIP3    H235418   5.341   2.565   5.156
 4643TIP3   OH235419   3.445   6.281  12.060
 4643TIP3    H135420   3.529   6.320  12.036
 4643TIP3    H235421   3.461   6.238  12.144
 4644TIP3   OH235422   4.620   3.096  15.810
 4644TIP3    H135423   4.569   3.159  15.860
 4644TIP3    H235424   4.711   3.120  15.828
 4645TIP3   OH235425   0.235   1.804  15.754
 4645TIP3    H135426   0.161   1.821  15.696
 4645TIP3    H235427   0.196   1.769  15.834
 4646TIP3   OH235428   0.535   0.600   5.374
 4646TIP3    H135429   0.611   0.651   5.401
 4646TIP3    H235430   0.483   0.589   5.453
 4647TIP3   OH235431   0.872   6.097   6.666
 4647TIP3    H135432   0.902   6.024   6.612
 4647TIP3    H235433   0.792   6.128   6.623
 4648TIP3   OH235434   3.752   3.824  16.030
 4648TIP3    H135435   3.767   3.850  16.121
 4648TIP3    H235436   3.667   3.781  16.031
 4649TIP3   OH235437   5.974   2.376   2.113
 4649TIP3    H135438   5.898   2.434   2.121
 4649TIP3    H235439   5.956   2.323   2.035
 4650TIP3   OH235440   4.110   5.884   3.841
 4650TIP3    H135441   4.022   5.891   3.802
 4650TIP3    H235442   4.103   5.932   3.924
 4651TIP3   OH235443   5.708   1.811   3.080
 4651TIP3    H135444   5.639   1.766   3.130
 4651TIP3    H235445   5.686   1.904   3.087
 4652TIP3   OH235446   4.461   3.865  12.231
 4652TIP3    H135447   4.410   3.797  12.187
 4652TIP3    H235448   4.419   3.877  12.315
 4653TIP3   OH235449   5.761   3.897  17.249
 4653TIP3    H135450   5.787   3.874  17.160
 4653TIP3    H235451   5.787   3.823  17.302
 4654TIP3   OH235452   3.229   5.789  13.386
 4654TIP3    H135453   3.188   5.827  13.464
 4654TIP3    H235454   3.280   5.861  13.349
 4655TIP3   OH235455   0.594   6.716   0.125
 4655TIP3    H135456   0.515   6.683   0.080
 4655TIP3    H235457   0.665   6.661   0.091
 4656TIP3   OH235458   4.925   3.386  13.023
 4656TIP3    H135459   4.951   3.400  12.932
 4656TIP3    H235460   4.959   3.299  13.044
 4657TIP3   OH235461   0.851   0.968  14.441
 4657TIP3    H135462   0.804   0.975  14.525
 4657TIP3    H235463   0.876   0.876  14.435
 4658TIP3   OH235464   4.384   4.031   2.261
 4658TIP3    H135465   4.394   3.954   2.318
 4658TIP3    H235466   4.291   4.033   2.240
 4659TIP3   OH235467   1.582   2.422   1.983
 4659TIP3    H135468   1.555   2.485   1.916
 4659TIP3    H235469   1.665   2.455   2.015
 4660TIP3   OH235470   2.445   6.518  14.606
 4660TIP3    H135471   2.432   6.426  14.584
 4660TIP3    H235472   2.540   6.531  14.601
 4661TIP3   OH235473   5.099   5.474  15.922
 4661TIP3    H135474   5.151   5.396  15.901
 4661TIP3    H235475   5.015   5.458  15.881
 4662TIP3   OH235476   0.565   5.055  15.557
 4662TIP3    H135477   0.596   5.042  15.647
 4662TIP3    H235478   0.622   5.122  15.521
 4663TIP3   OH235479   6.022   3.778  14.897
 4663TIP3    H135480   5.942   3.826  14.875
 4663TIP3    H235481   6.011   3.692  14.857
 4664TIP3   OH235482   0.116   3.160   2.211
 4664TIP3    H135483   0.057   3.155   2.286
 4664TIP3    H235484   0.198   3.121   2.241
 4665TIP3   OH235485   1.409   2.188  16.614
 4665TIP3    H135486   1.425   2.282  16.600
 4665TIP3    H235487   1.492   2.154  16.648
 4666TIP3   OH235488   3.352   4.483   3.776
 4666TIP3    H135489   3.416   4.416   3.801
 4666TIP3    H235490   3.304   4.445   3.703
 4667TIP3   OH235491   6.644   3.243   6.100
 4667TIP3    H135492   6.629   3.259   6.007
 4667TIP3    H235493   6.610   3.155   6.115
 4668TIP3   OH235494   2.815   2.479  14.935
 4668TIP3    H135495   2.849   2.530  15.009
 4668TIP3    H235496   2.888   2.476  14.873
 4669TIP3   OH235497   3.704   4.399  16.753
 4669TIP3    H135498   3.672   4.475  16.704
 4669TIP3    H235499   3.684   4.420  16.844
 4670TIP3   OH235500   1.810   6.701   5.870
 4670TIP3    H135501   1.831   6.635   5.804
 4670TIP3    H235502   1.720   6.727   5.850
 4671TIP3   OH235503   3.711   3.807   2.106
 4671TIP3    H135504   3.723   3.835   2.196
 4671TIP3    H235505   3.664   3.724   2.113
 4672TIP3   OH235506   6.631   3.003  16.239
 4672TIP3    H135507   6.718   3.006  16.200
 4672TIP3    H235508   6.584   3.077  16.201
 4673TIP3   OH235509   0.628   4.965   6.658
 4673TIP3    H135510   0.561   4.928   6.600
 4673TIP3    H235511   0.584   5.037   6.703
 4674TIP3   OH235512   5.758   5.631   3.247
 4674TIP3    H135513   5.777   5.683   3.169
 4674TIP3    H235514   5.844   5.614   3.285
 4675TIP3   OH235515   2.741   2.153   6.100
 4675TIP3    H135516   2.655   2.112   6.092
 4675TIP3    H235517   2.787   2.100   6.165
 4676TIP3   OH235518   1.241   6.351  14.174
 4676TIP3    H135519   1.300   6.379  14.244
 4676TIP3    H235520   1.300   6.325  14.103
 4677TIP3   OH235521   1.539   6.067   4.879
 4677TIP3    H135522   1.457   6.115   4.889
 4677TIP3    H235523   1.600   6.112   4.938
 4678TIP3   OH235524   2.028   1.696  13.342
 4678TIP3    H135525   1.935   1.693  13.321
 4678TIP3    H235526   2.037   1.763  13.409
 4679TIP3   OH235527   6.351   6.813   1.552
 4679TIP3    H135528   6.370   6.801   1.459
 4679TIP3    H235529   6.369   6.905   1.569
 4680TIP3   OH235530   3.294   4.313  15.293
 4680TIP3    H135531   3.215   4.325  15.241
 4680TIP3    H235532   3.263   4.314  15.384
 4681TIP3   OH235533   2.286   0.117  13.017
 4681TIP3    H135534   2.280   0.074  12.932
 4681TIP3    H235535   2.250   0.053  13.079
 4682TIP3   OH235536   1.683   5.032   4.809
 4682TIP3    H135537   1.724   4.978   4.742
 4682TIP3    H235538   1.709   5.121   4.787
 4683TIP3   OH235539   3.097   1.854  14.086
 4683TIP3    H135540   3.177   1.824  14.042
 4683TIP3    H235541   3.055   1.913  14.023
 4684TIP3   OH235542   6.394   5.711   6.939
 4684TIP3    H135543   6.344   5.639   6.977
 4684TIP3    H235544   6.329   5.771   6.903
 4685TIP3   OH235545   5.957   5.011  15.099
 4685TIP3    H135546   6.028   4.961  15.060
 4685TIP3    H235547   6.001   5.082  15.147
 4686TIP3   OH235548   5.391   2.871   2.580
 4686TIP3    H135549   5.326   2.854   2.512
 4686TIP3    H235550   5.471   2.830   2.548
 4687TIP3   OH235551   2.394   0.678   4.219
 4687TIP3    H135552   2.450   0.685   4.142
 4687TIP3    H235553   2.305   0.681   4.184
 4688TIP3   OH235554   3.560   6.210  16.070
 4688TIP3    H135555   3.505   6.216  16.148
 4688TIP3    H235556   3.596   6.298  16.060
 4689TIP3   OH235557   2.468   0.964   2.313
 4689TIP3    H135558   2.524   0.920   2.249
 4689TIP3    H235559   2.495   0.927   2.398
 4690TIP3   OH235560   6.291   3.546   1.641
 4690TIP3    H135561   6.361   3.548   1.575
 4690TIP3    H235562   6.307   3.465   1.690
 4691TIP3   OH235563   6.319   3.360  16.505
 4691TIP3    H135564   6.298   3.405  16.586
 4691TIP3    H235565   6.365   3.281  16.532
 4692TIP3   OH235566   2.846   3.178   0.864
 4692TIP3    H135567   2.875   3.089   0.883
 4692TIP3    H235568   2.762   3.186   0.908
 4693TIP3   OH235569   1.450   2.198  13.415
 4693TIP3    H135570   1.498   2.278  13.395
 4693TIP3    H235571   1.504   2.127  13.381
 4694TIP3   OH235572   2.557   1.178  15.546
 4694TIP3    H135573   2.479   1.128  15.524
 4694TIP3    H235574   2.619   1.159  15.476
 4695TIP3   OH235575   3.770   0.551   2.357
 4695TIP3    H135576   3.859   0.523   2.333
 4695TIP3    H235577   3.774   0.646   2.356
 4696TIP3   OH235578   0.268   2.017   4.995
 4696TIP3    H135579   0.265   2.047   4.904
 4696TIP3    H235580   0.323   1.939   4.993
 4697TIP3   OH235581   1.039   1.137   4.948
 4697TIP3    H135582   0.980   1.211   4.962
 4697TIP3    H235583   1.028   1.083   5.027
 4698TIP3   OH235584   1.581   5.821  11.068
 4698TIP3    H135585   1.515   5.762  11.104
 4698TIP3    H235586   1.600   5.785  10.981
 4699TIP3   OH235587   6.220   0.675  13.368
 4699TIP3    H135588   6.214   0.718  13.282
 4699TIP3    H235589   6.166   0.729  13.425
 4700TIP3   OH235590   4.275   6.444   1.602
 4700TIP3    H135591   4.320   6.399   1.531
 4700TIP3    H235592   4.311   6.405   1.682
 4701TIP3   OH235593   2.514   1.775   5.749
 4701TIP3    H135594   2.482   1.864   5.735
 4701TIP3    H235595   2.574   1.782   5.824
 4702TIP3   OH235596   1.493   5.659   5.608
 4702TIP3    H135597   1.552   5.585   5.592
 4702TIP3    H235598   1.420   5.621   5.656
 4703TIP3   OH235599   0.110   5.488   5.167
 4703TIP3    H135600   0.091   5.436   5.088
 4703TIP3    H235601   0.204   5.500   5.166
 4704TIP3   OH235602   6.650   0.922   4.260
 4704TIP3    H135603   6.695   1.004   4.243
 4704TIP3    H235604   6.634   0.922   4.355
 4705TIP3   OH235605   1.492   5.211  13.094
 4705TIP3    H135606   1.406   5.241  13.124
 4705TIP3    H235607   1.531   5.289  13.055
 4706TIP3   OH235608   3.094   4.297  13.217
 4706TIP3    H135609   3.019   4.309  13.160
 4706TIP3    H235610   3.088   4.207  13.248
 4707TIP3   OH235611   3.175   1.629   2.273
 4707TIP3    H135612   3.202   1.651   2.184
 4707TIP3    H235613   3.202   1.538   2.284
 4708TIP3   OH235614   4.828   4.788   0.516
 4708TIP3    H135615   4.736   4.799   0.493
 4708TIP3    H235616   4.835   4.695   0.540
 4709TIP3   OH235617   0.160   1.357  16.904
 4709TIP3    H135618   0.143   1.353  16.810
 4709TIP3    H235619   0.165   1.451  16.923
 4710TIP3   OH235620   0.009   1.735   0.352
 4710TIP3    H135621  -0.020   1.794   0.422
 4710TIP3    H235622   0.103   1.751   0.345
 4711TIP3   OH235623   1.915   1.755  15.589
 4711TIP3    H135624   1.848   1.819  15.614
 4711TIP3    H235625   1.868   1.689  15.539
 4712TIP3   OH235626   2.864   4.789  14.819
 4712TIP3    H135627   2.881   4.820  14.908
 4712TIP3    H235628   2.876   4.866  14.764
 4713TIP3   OH235629   2.853   5.887   3.557
 4713TIP3    H135630   2.892   5.847   3.479
 4713TIP3    H235631   2.774   5.930   3.524
 4714TIP3   OH235632   1.265   4.902   1.196
 4714TIP3    H135633   1.293   4.821   1.154
 4714TIP3    H235634   1.272   4.969   1.128
 4715TIP3   OH235635   4.993   3.862   3.323
 4715TIP3    H135636   4.934   3.806   3.273
 4715TIP3    H235637   5.079   3.821   3.311
 4716TIP3   OH235638   0.826   1.563   3.634
 4716TIP3    H135639   0.830   1.467   3.636
 4716TIP3    H235640   0.855   1.590   3.721
 4717TIP3   OH235641   3.688   3.306  17.035
 4717TIP3    H135642   3.612   3.357  17.063
 4717TIP3    H235643   3.714   3.257  17.114
 4718TIP3   OH235644   0.125   6.800  16.108
 4718TIP3    H135645   0.204   6.851  16.088
 4718TIP3    H235646   0.136   6.775  16.200
 4719TIP3   OH235647   3.532   6.449  12.422
 4719TIP3    H135648   3.506   6.420  12.509
 4719TIP3    H235649   3.489   6.534  12.411
 4720TIP3   OH235650   0.602   3.280   0.939
 4720TIP3    H135651   0.650   3.238   0.868
 4720TIP3    H235652   0.510   3.268   0.916
 4721TIP3   OH235653   0.854   4.258  17.108
 4721TIP3    H135654   0.778   4.288  17.059
 4721TIP3    H235655   0.820   4.185  17.161
 4722TIP3   OH235656   1.058   6.591  15.596
 4722TIP3    H135657   1.098   6.505  15.604
 4722TIP3    H235658   0.967   6.574  15.571
 4723TIP3   OH235659   5.381   3.101  16.464
 4723TIP3    H135660   5.433   3.114  16.384
 4723TIP3    H235661   5.446   3.090  16.533
 4724TIP3   OH235662   0.860   6.368  14.842
 4724TIP3    H135663   0.868   6.345  14.935
 4724TIP3    H235664   0.913   6.447  14.833
 4725TIP3   OH235665   2.462   2.393  12.579
 4725TIP3    H135666   2.402   2.460  12.545
 4725TIP3    H235667   2.464   2.326  12.511
 4726TIP3   OH235668   4.703   2.942   2.765
 4726TIP3    H135669   4.638   2.890   2.813
 4726TIP3    H235670   4.691   2.916   2.674
 4727TIP3   OH235671   6.244   2.408   6.135
 4727TIP3    H135672   6.272   2.485   6.085
 4727TIP3    H235673   6.152   2.424   6.155
 4728TIP3   OH235674   1.605   5.773  10.810
 4728TIP3    H135675   1.669   5.788  10.740
 4728TIP3    H235676   1.541   5.843  10.800
 4729TIP3   OH235677   2.462   5.141   5.791
 4729TIP3    H135678   2.398   5.201   5.753
 4729TIP3    H235679   2.522   5.197   5.841
 4730TIP3   OH235680   2.146   2.788  15.891
 4730TIP3    H135681   2.089   2.837  15.950
 4730TIP3    H235682   2.139   2.697  15.920
 4731TIP3   OH235683   2.230   1.536   5.308
 4731TIP3    H135684   2.184   1.461   5.270
 4731TIP3    H235685   2.270   1.501   5.388
 4732TIP3   OH235686   0.308   1.782   5.330
 4732TIP3    H135687   0.286   1.870   5.361
 4732TIP3    H235688   0.238   1.760   5.269
 4733TIP3   OH235689   6.077   4.851   3.855
 4733TIP3    H135690   6.019   4.776   3.863
 4733TIP3    H235691   6.125   4.853   3.938
 4734TIP3   OH235692   4.022   3.255   0.236
 4734TIP3    H135693   4.023   3.176   0.290
 4734TIP3    H235694   4.018   3.327   0.298
 4735TIP3   OH235695   3.866   1.935  13.124
 4735TIP3    H135696   3.823   1.851  13.110
 4735TIP3    H235697   3.916   1.950  13.044
 4736TIP3   OH235698   5.450   0.888  10.804
 4736TIP3    H135699   5.376   0.865  10.748
 4736TIP3    H235700   5.501   0.807  10.809
 4737TIP3   OH235701   6.524   0.859   2.134
 4737TIP3    H135702   6.543   0.950   2.113
 4737TIP3    H235703   6.464   0.830   2.065
 4738TIP3   OH235704   6.317   1.006   6.226
 4738TIP3    H135705   6.312   1.100   6.244
 4738TIP3    H235706   6.294   0.965   6.309
 4739TIP3   OH235707   5.931   2.842   2.477
 4739TIP3    H135708   5.967   2.756   2.456
 4739TIP3    H235709   5.935   2.847   2.572
 4740TIP3   OH235710   5.872   3.198   3.416
 4740TIP3    H135711   5.846   3.106   3.420
 4740TIP3    H235712   5.793   3.243   3.387
 4741TIP3   OH235713   6.173   2.153   3.881
 4741TIP3    H135714   6.163   2.068   3.924
 4741TIP3    H235715   6.252   2.190   3.921
 4742TIP3   OH235716   4.954   5.802  14.385
 4742TIP3    H135717   4.957   5.756  14.301
 4742TIP3    H235718   4.910   5.884  14.366
 4743TIP3   OH235719   2.394   3.771   3.637
 4743TIP3    H135720   2.390   3.731   3.724
 4743TIP3    H235721   2.379   3.698   3.577
 4744TIP3   OH235722   5.726   2.315  14.176
 4744TIP3    H135723   5.821   2.320  14.186
 4744TIP3    H235724   5.711   2.317  14.082
 4745TIP3   OH235725   4.874   3.013  12.865
 4745TIP3    H135726   4.900   3.057  12.946
 4745TIP3    H235727   4.859   2.922  12.892
 4746TIP3   OH235728   4.024   4.176   0.358
 4746TIP3    H135729   3.937   4.176   0.397
 4746TIP3    H235730   4.031   4.261   0.315
 4747TIP3   OH235731   1.075   6.445   2.493
 4747TIP3    H135732   1.116   6.516   2.444
 4747TIP3    H235733   0.981   6.460   2.484
 4748TIP3   OH235734   3.084   5.766  13.664
 4748TIP3    H135735   3.006   5.795  13.616
 4748TIP3    H235736   3.078   5.671  13.666
 4749TIP3   OH235737   3.949   3.267  16.453
 4749TIP3    H135738   3.899   3.187  16.473
 4749TIP3    H235739   4.018   3.237  16.394
 4750TIP3   OH235740   2.250   1.531   0.462
 4750TIP3    H135741   2.221   1.441   0.472
 4750TIP3    H235742   2.289   1.554   0.546
 4751TIP3   OH235743   0.676   4.912  11.366
 4751TIP3    H135744   0.746   4.940  11.307
 4751TIP3    H235745   0.623   4.851  11.315
 4752TIP3   OH235746   5.060   3.331  10.989
 4752TIP3    H135747   5.053   3.304  10.897
 4752TIP3    H235748   5.000   3.405  10.997
 4753TIP3   OH235749   4.275   6.658  11.201
 4753TIP3    H135750   4.229   6.733  11.164
 4753TIP3    H235751   4.209   6.611  11.252
 4754TIP3   OH235752   5.001   3.800  15.529
 4754TIP3    H135753   5.070   3.778  15.591
 4754TIP3    H235754   5.019   3.745  15.453
 4755TIP3   OH235755   2.617   2.349   1.162
 4755TIP3    H135756   2.681   2.389   1.220
 4755TIP3    H235757   2.597   2.417   1.097
 4756TIP3   OH235758   3.706   0.127  14.437
 4756TIP3    H135759   3.646   0.059  14.407
 4756TIP3    H235760   3.725   0.105  14.528
 4757TIP3   OH235761   2.345   4.048  10.609
 4757TIP3    H135762   2.371   4.117  10.548
 4757TIP3    H235763   2.280   4.089  10.666
 4758TIP3   OH235764   5.525   3.247   4.976
 4758TIP3    H135765   5.468   3.324   4.975
 4758TIP3    H235766   5.522   3.216   5.067
 4759TIP3   OH235767   5.909   2.313  12.681
 4759TIP3    H135768   5.819   2.317  12.648
 4759TIP3    H235769   5.900   2.273  12.768
 4760TIP3   OH235770   0.173   2.454   3.072
 4760TIP3    H135771   0.120   2.500   3.008
 4760TIP3    H235772   0.130   2.369   3.082
 4761TIP3   OH235773   3.278   2.147   1.077
 4761TIP3    H135774   3.325   2.135   0.994
 4761TIP3    H235775   3.193   2.183   1.051
 4762TIP3   OH235776   6.690   1.332  15.541
 4762TIP3    H135777   6.711   1.371  15.626
 4762TIP3    H235778   6.773   1.330  15.494
 4763TIP3   OH235779   1.745   1.892  14.425
 4763TIP3    H135780   1.667   1.847  14.457
 4763TIP3    H235781   1.742   1.881  14.330
 4764TIP3   OH235782   5.754   4.848   3.992
 4764TIP3    H135783   5.836   4.802   4.012
 4764TIP3    H235784   5.686   4.786   4.018
 4765TIP3   OH235785   1.585   1.560  14.102
 4765TIP3    H135786   1.537   1.478  14.113
 4765TIP3    H235787   1.653   1.557  14.169
 4766TIP3   OH235788   6.261   0.676   2.296
 4766TIP3    H135789   6.312   0.669   2.377
 4766TIP3    H235790   6.180   0.720   2.322
 4767TIP3   OH235791   4.984   2.328   3.358
 4767TIP3    H135792   4.918   2.397   3.357
 4767TIP3    H235793   4.952   2.265   3.422
 4768TIP3   OH235794   2.756   1.692   0.671
 4768TIP3    H135795   2.767   1.607   0.628
 4768TIP3    H235796   2.678   1.682   0.726
 4769TIP3   OH235797   3.419   3.840  15.337
 4769TIP3    H135798   3.398   3.883  15.254
 4769TIP3    H235799   3.514   3.827  15.334
 4770TIP3   OH235800   0.051   2.938  14.807
 4770TIP3    H135801   0.103   2.974  14.879
 4770TIP3    H235802   0.037   2.847  14.831
 4771TIP3   OH235803   3.378   0.949   1.052
 4771TIP3    H135804   3.283   0.946   1.059
 4771TIP3    H235805   3.405   0.857   1.060
 4772TIP3   OH235806   1.134   1.244  16.445
 4772TIP3    H135807   1.198   1.311  16.471
 4772TIP3    H235808   1.063   1.293  16.404
 4773TIP3   OH235809   0.094   0.901   3.477
 4773TIP3    H135810   0.165   0.965   3.484
 4773TIP3    H235811   0.128   0.823   3.520
 4774TIP3   OH235812   5.779   5.359   0.948
 4774TIP3    H135813   5.849   5.329   0.890
 4774TIP3    H235814   5.702   5.363   0.891
 4775TIP3   OH235815   0.684   1.748   1.412
 4775TIP3    H135816   0.740   1.726   1.487
 4775TIP3    H235817   0.620   1.677   1.409
 4776TIP3   OH235818   1.608   4.712   2.100
 4776TIP3    H135819   1.703   4.728   2.101
 4776TIP3    H235820   1.589   4.682   2.012
 4777TIP3   OH235821   4.978   5.761   2.853
 4777TIP3    H135822   4.936   5.678   2.829
 4777TIP3    H235823   5.001   5.751   2.945
 4778TIP3   OH235824   0.940   1.644  12.939
 4778TIP3    H135825   0.927   1.700  12.863
 4778TIP3    H235826   1.030   1.613  12.932
 4779TIP3   OH235827   5.352   4.873   1.670
 4779TIP3    H135828   5.367   4.836   1.583
 4779TIP3    H235829   5.433   4.919   1.690
 4780TIP3   OH235830   4.259   3.893   1.000
 4780TIP3    H135831   4.182   3.888   1.057
 4780TIP3    H235832   4.312   3.818   1.025
 4781TIP3   OH235833   3.944   4.179   3.146
 4781TIP3    H135834   4.000   4.149   3.218
 4781TIP3    H235835   3.999   4.242   3.098
 4782TIP3   OH235836   0.126   4.524  16.605
 4782TIP3    H135837   0.190   4.480  16.660
 4782TIP3    H235838   0.173   4.597  16.566
 4783TIP3   OH235839   0.395   5.139   1.237
 4783TIP3    H135840   0.389   5.232   1.218
 4783TIP3    H235841   0.376   5.096   1.154
 4784TIP3   OH235842   3.277   1.301   5.789
 4784TIP3    H135843   3.283   1.241   5.864
 4784TIP3    H235844   3.273   1.243   5.712
 4785TIP3   OH235845   1.166   2.183  14.729
 4785TIP3    H135846   1.175   2.278  14.720
 4785TIP3    H235847   1.236   2.147  14.674
 4786TIP3   OH235848   3.907   1.713  15.310
 4786TIP3    H135849   3.837   1.742  15.369
 4786TIP3    H235850   3.883   1.623  15.286
 4787TIP3   OH235851   4.920   1.501   5.136
 4787TIP3    H135852   4.941   1.516   5.228
 4787TIP3    H235853   4.828   1.472   5.137
 4788TIP3   OH235854   3.099   5.093  11.536
 4788TIP3    H135855   3.066   5.004  11.545
 4788TIP3    H235856   3.073   5.120  11.447
 4789TIP3   OH235857   1.356   1.207   0.876
 4789TIP3    H135858   1.392   1.144   0.814
 4789TIP3    H235859   1.420   1.278   0.878
 4790TIP3   OH235860   1.082   0.298   5.137
 4790TIP3    H135861   0.999   0.279   5.182
 4790TIP3    H235862   1.102   0.217   5.090
 4791TIP3   OH235863   4.002   1.026   4.797
 4791TIP3    H135864   4.003   1.022   4.701
 4791TIP3    H235865   3.922   0.979   4.822
 4792TIP3   OH235866   0.551   5.606  11.768
 4792TIP3    H135867   0.510   5.653  11.695
 4792TIP3    H235868   0.535   5.662  11.844
 4793TIP3   OH235869   3.586   2.743  14.478
 4793TIP3    H135870   3.501   2.786  14.492
 4793TIP3    H235871   3.596   2.739  14.383
 4794TIP3   OH235872   5.024   5.913   0.617
 4794TIP3    H135873   5.111   5.944   0.593
 4794TIP3    H235874   4.986   5.984   0.669
 4795TIP3   OH235875   0.396   0.460  11.914
 4795TIP3    H135876   0.346   0.379  11.929
 4795TIP3    H235877   0.432   0.450  11.826
 4796TIP3   OH235878   1.338   2.041  14.346
 4796TIP3    H135879   1.289   2.122  14.333
 4796TIP3    H235880   1.362   2.013  14.258
 4797TIP3   OH235881   4.781   2.388   0.560
 4797TIP3    H135882   4.707   2.353   0.610
 4797TIP3    H235883   4.840   2.425   0.626
 4798TIP3   OH235884   6.308   5.307  11.984
 4798TIP3    H135885   6.384   5.311  11.927
 4798TIP3    H235886   6.266   5.393  11.975
 4799TIP3   OH235887   4.909   6.494   0.840
 4799TIP3    H135888   4.833   6.439   0.818
 4799TIP3    H235889   4.881   6.582   0.817
 4800TIP3   OH235890   1.470   6.053  16.691
 4800TIP3    H135891   1.475   6.148  16.700
 4800TIP3    H235892   1.402   6.038  16.626
 4801TIP3   OH235893   2.647   2.418  13.614
 4801TIP3    H135894   2.693   2.348  13.567
 4801TIP3    H235895   2.636   2.487  13.549
 4802TIP3   OH235896   5.828   6.584  15.262
 4802TIP3    H135897   5.845   6.669  15.223
 4802TIP3    H235898   5.839   6.522  15.190
 4803TIP3   OH235899   2.930   2.738   5.929
 4803TIP3    H135900   2.974   2.813   5.888
 4803TIP3    H235901   2.983   2.717   6.005
 4804TIP3   OH235902   4.761   0.677  12.803
 4804TIP3    H135903   4.856   0.667  12.807
 4804TIP3    H235904   4.747   0.769  12.826
 4805TIP3   OH235905   5.312   3.446  17.104
 4805TIP3    H135906   5.239   3.405  17.149
 4805TIP3    H235907   5.296   3.428  17.011
 4806TIP3   OH235908   1.563   6.704  13.713
 4806TIP3    H135909   1.564   6.762  13.789
 4806TIP3    H235910   1.479   6.721  13.671
 4807TIP3   OH235911   2.983   5.689  12.098
 4807TIP3    H135912   2.911   5.741  12.135
 4807TIP3    H235913   3.005   5.735  12.017
 4808TIP3   OH235914   3.019   5.682  12.789
 4808TIP3    H135915   2.963   5.723  12.856
 4808TIP3    H235916   3.064   5.755  12.748
 4809TIP3   OH235917   6.173   0.883   2.899
 4809TIP3    H135918   6.159   0.970   2.862
 4809TIP3    H235919   6.235   0.897   2.971
 4810TIP3   OH235920   4.255   3.751   4.603
 4810TIP3    H135921   4.177   3.738   4.657
 4810TIP3    H235922   4.327   3.756   4.665
 4811TIP3   OH235923   3.860   1.226  13.739
 4811TIP3    H135924   3.817   1.148  13.775
 4811TIP3    H235925   3.855   1.291  13.809
 4812TIP3   OH235926   1.852   2.658   4.828
 4812TIP3    H135927   1.892   2.685   4.745
 4812TIP3    H235928   1.765   2.697   4.826
 4813TIP3   OH235929   5.917   5.034  13.401
 4813TIP3    H135930   5.999   5.046  13.449
 4813TIP3    H235931   5.878   4.956  13.439
 4814TIP3   OH235932   5.743   0.288   1.389
 4814TIP3    H135933   5.686   0.226   1.437
 4814TIP3    H235934   5.683   0.337   1.333
 4815TIP3   OH235935   2.716   0.219  13.906
 4815TIP3    H135936   2.759   0.260  13.831
 4815TIP3    H235937   2.725   0.125  13.891
 4816TIP3   OH235938   3.780   3.537   5.796
 4816TIP3    H135939   3.753   3.474   5.729
 4816TIP3    H235940   3.697   3.573   5.829
 4817TIP3   OH235941   1.473   5.497  14.899
 4817TIP3    H135942   1.495   5.404  14.909
 4817TIP3    H235943   1.441   5.505  14.810
 4818TIP3   OH235944   3.838   4.226  17.230
 4818TIP3    H135945   3.784   4.175  17.292
 4818TIP3    H235946   3.776   4.282  17.185
 4819TIP3   OH235947   1.495   3.614   3.551
 4819TIP3    H135948   1.499   3.536   3.606
 4819TIP3    H235949   1.497   3.687   3.613
 4820TIP3   OH235950   4.088   4.458   0.358
 4820TIP3    H135951   4.104   4.525   0.424
 4820TIP3    H235952   4.023   4.498   0.300
 4821TIP3   OH235953   1.067   5.479  17.192
 4821TIP3    H135954   1.114   5.451  17.114
 4821TIP3    H235955   0.974   5.477  17.167
 4822TIP3   OH235956   6.093   2.988   0.361
 4822TIP3    H135957   6.048   2.908   0.388
 4822TIP3    H235958   6.065   3.054   0.425
 4823TIP3   OH235959   6.712   2.315  11.504
 4823TIP3    H135960   6.777   2.353  11.444
 4823TIP3    H235961   6.693   2.229  11.467
 4824TIP3   OH235962   0.972   1.817   4.824
 4824TIP3    H135963   0.895   1.761   4.834
 4824TIP3    H235964   1.044   1.756   4.809
 4825TIP3   OH235965   5.126   3.288  16.517
 4825TIP3    H135966   5.065   3.303  16.445
 4825TIP3    H235967   5.209   3.325  16.487
 4826TIP3   OH235968   2.416   5.985   6.526
 4826TIP3    H135969   2.325   6.011   6.539
 4826TIP3    H235970   2.465   6.039   6.589
 4827TIP3   OH235971   2.744   4.000   6.240
 4827TIP3    H135972   2.752   3.923   6.183
 4827TIP3    H235973   2.801   4.065   6.201
 4828TIP3   OH235974   2.131   3.557  13.290
 4828TIP3    H135975   2.078   3.586  13.216
 4828TIP3    H235976   2.211   3.522  13.251
 4829TIP3   OH235977   0.146   4.218  11.732
 4829TIP3    H135978   0.121   4.165  11.807
 4829TIP3    H235979   0.159   4.306  11.768
 4830TIP3   OH235980   3.676   5.755  15.488
 4830TIP3    H135981   3.741   5.704  15.439
 4830TIP3    H235982   3.592   5.714  15.466
 4831TIP3   OH235983   0.873   0.553  13.194
 4831TIP3    H135984   0.852   0.461  13.176
 4831TIP3    H235985   0.864   0.597  13.110
 4832TIP3   OH235986   1.703   2.219  14.850
 4832TIP3    H135987   1.679   2.268  14.928
 4832TIP3    H235988   1.745   2.139  14.882
 4833TIP3   OH235989   4.334   6.531   4.271
 4833TIP3    H135990   4.304   6.622   4.275
 4833TIP3    H235991   4.419   6.535   4.228
 4834TIP3   OH235992   4.391   4.646  13.514
 4834TIP3    H135993   4.331   4.659  13.587
 4834TIP3    H235994   4.360   4.565  13.472
 4835TIP3   OH235995   1.001   3.036   5.257
 4835TIP3    H135996   1.031   3.079   5.337
 4835TIP3    H235997   1.044   3.084   5.186
 4836TIP3   OH235998   2.829   6.559   4.639
 4836TIP3    H135999   2.805   6.640   4.595
 4836TIP3    H236000   2.853   6.499   4.569
 4837TIP3   OH236001   5.120   4.022  11.850
 4837TIP3    H136002   5.169   4.060  11.777
 4837TIP3    H236003   5.058   3.962  11.809
 4838TIP3   OH236004   6.109   1.814   1.414
 4838TIP3    H136005   6.067   1.845   1.334
 4838TIP3    H236006   6.113   1.719   1.403
 4839TIP3   OH236007   3.416   3.610  15.116
 4839TIP3    H136008   3.505   3.637  15.138
 4839TIP3    H236009   3.397   3.658  15.035
 4840TIP3   OH236010   1.161   3.311   2.182
 4840TIP3    H136011   1.215   3.233   2.190
 4840TIP3    H236012   1.220   3.384   2.201
 4841TIP3   OH236013   3.413   3.888   4.156
 4841TIP3    H136014   3.341   3.945   4.185
 4841TIP3    H236015   3.492   3.937   4.178
 4842TIP3   OH236016   5.213   3.936   5.504
 4842TIP3    H136017   5.145   3.983   5.455
 4842TIP3    H236018   5.200   3.844   5.481
 4843TIP3   OH236019   3.929   2.499  12.852
 4843TIP3    H136020   3.965   2.562  12.790
 4843TIP3    H236021   3.835   2.500  12.835
 4844TIP3   OH236022   1.041   4.650   2.142
 4844TIP3    H136023   1.003   4.598   2.212
 4844TIP3    H236024   1.095   4.715   2.187
 4845TIP3   OH236025   6.060   2.265   1.819
 4845TIP3    H136026   6.127   2.206   1.784
 4845TIP3    H236027   5.993   2.207   1.855
 4846TIP3   OH236028   0.530   1.591   3.594
 4846TIP3    H136029   0.624   1.599   3.610
 4846TIP3    H236030   0.496   1.680   3.607
 4847TIP3   OH236031   1.179   5.710  10.931
 4847TIP3    H136032   1.188   5.620  10.900
 4847TIP3    H236033   1.088   5.733  10.910
 4848TIP3   OH236034   6.286   2.164  15.928
 4848TIP3    H136035   6.196   2.163  15.960
 4848TIP3    H236036   6.278   2.138  15.836
 4849TIP3   OH236037   1.528   0.219   1.084
 4849TIP3    H136038   1.448   0.204   1.134
 4849TIP3    H236039   1.571   0.292   1.128
 4850TIP3   OH236040   3.814   4.914  16.934
 4850TIP3    H136041   3.776   4.982  16.878
 4850TIP3    H236042   3.902   4.946  16.953
 4851TIP3   OH236043   3.754   0.263   2.525
 4851TIP3    H136044   3.704   0.260   2.606
 4851TIP3    H236045   3.833   0.313   2.548
 4852TIP3   OH236046   4.378   6.807  15.298
 4852TIP3    H136047   4.303   6.859  15.271
 4852TIP3    H236048   4.347   6.716  15.296
 4853TIP3   OH236049   3.124   3.382   4.184
 4853TIP3    H136050   3.031   3.359   4.181
 4853TIP3    H236051   3.168   3.303   4.152
 4854TIP3   OH236052   2.864   3.565   0.557
 4854TIP3    H136053   2.835   3.617   0.482
 4854TIP3    H236054   2.784   3.539   0.601
 4855TIP3   OH236055   6.297   5.924   4.090
 4855TIP3    H136056   6.376   5.871   4.094
 4855TIP3    H236057   6.328   6.014   4.096
 4856TIP3   OH236058   4.051   2.668   5.434
 4856TIP3    H136059   4.000   2.599   5.478
 4856TIP3    H236060   4.138   2.629   5.422
 4857TIP3   OH236061   0.698   3.831  16.159
 4857TIP3    H136062   0.605   3.842  16.179
 4857TIP3    H236063   0.723   3.751  16.205
 4858TIP3   OH236064   5.640   2.948   4.905
 4858TIP3    H136065   5.694   2.870   4.902
 4858TIP3    H236066   5.554   2.917   4.935
 4859TIP3   OH236067   4.094   4.499  16.090
 4859TIP3    H136068   4.036   4.440  16.043
 4859TIP3    H236069   4.159   4.442  16.131
 4860TIP3   OH236070   5.432   0.174  11.145
 4860TIP3    H136071   5.470   0.098  11.102
 4860TIP3    H236072   5.493   0.245  11.125
 4861TIP3   OH236073   3.039   6.394  12.954
 4861TIP3    H136074   2.960   6.389  13.008
 4861TIP3    H236075   3.010   6.437  12.873
 4862TIP3   OH236076   3.885   4.134   1.689
 4862TIP3    H136077   3.899   4.173   1.775
 4862TIP3    H236078   3.789   4.129   1.680
 4863TIP3   OH236079   3.691   0.116  11.996
 4863TIP3    H136080   3.693   0.188  11.933
 4863TIP3    H236081   3.600   0.112  12.025
 4864TIP3   OH236082   3.667   3.864   0.553
 4864TIP3    H136083   3.678   3.865   0.458
 4864TIP3    H236084   3.751   3.830   0.585
 4865TIP3   OH236085   4.007   6.767   2.674
 4865TIP3    H136086   3.995   6.813   2.758
 4865TIP3    H236087   4.067   6.695   2.694
 4866TIP3   OH236088   3.546   4.876  10.430
 4866TIP3    H136089   3.522   4.937  10.500
 4866TIP3    H236090   3.625   4.914  10.391
 4867TIP3   OH236091   1.012   4.785  12.311
 4867TIP3    H136092   1.075   4.830  12.366
 4867TIP3    H236093   0.941   4.761  12.370
 4868TIP3   OH236094   6.531   1.323  15.228
 4868TIP3    H136095   6.606   1.296  15.281
 4868TIP3    H236096   6.565   1.393  15.172
 4869TIP3   OH236097   3.838   2.382   4.067
 4869TIP3    H136098   3.877   2.409   3.983
 4869TIP3    H236099   3.881   2.437   4.132
 4870TIP3   OH236100   0.011   0.462   2.304
 4870TIP3    H136101   0.043   0.517   2.233
 4870TIP3    H236102  -0.043   0.395   2.260
 4871TIP3   OH236103   4.197   2.486   3.682
 4871TIP3    H136104   4.274   2.431   3.665
 4871TIP3    H236105   4.233   2.569   3.712
 4872TIP3   OH236106   3.821   3.756   4.221
 4872TIP3    H136107   3.872   3.682   4.188
 4872TIP3    H236108   3.809   3.814   4.146
 4873TIP3   OH236109   2.959   1.662   2.605
 4873TIP3    H136110   2.981   1.718   2.531
 4873TIP3    H236111   3.027   1.595   2.606
 4874TIP3   OH236112   6.406   0.251  17.079
 4874TIP3    H136113   6.329   0.306  17.079
 4874TIP3    H236114   6.372   0.162  17.092
 4875TIP3   OH236115   5.481   5.076  11.995
 4875TIP3    H136116   5.523   5.053  12.078
 4875TIP3    H236117   5.442   4.995  11.965
 4876TIP3   OH236118   5.287   0.579   2.254
 4876TIP3    H136119   5.317   0.537   2.173
 4876TIP3    H236120   5.192   0.582   2.245
 4877TIP3   OH236121   6.472   3.769   2.273
 4877TIP3    H136122   6.401   3.708   2.250
 4877TIP3    H236123   6.490   3.751   2.365
 4878TIP3   OH236124   2.767   0.195  10.807
 4878TIP3    H136125   2.818   0.248  10.746
 4878TIP3    H236126   2.811   0.109  10.806
 4879TIP3   OH236127   5.686   5.997  14.016
 4879TIP3    H136128   5.623   6.046  13.962
 4879TIP3    H236129   5.758   6.058  14.030
 4880TIP3   OH236130   2.443   0.363   2.679
 4880TIP3    H136131   2.506   0.434   2.668
 4880TIP3    H236132   2.367   0.390   2.629
 4881TIP3   OH236133   0.162   2.888  17.286
 4881TIP3    H136134   0.196   2.806  17.320
 4881TIP3    H236135   0.101   2.919  17.354
 4882TIP3   OH236136   2.591   0.578  13.814
 4882TIP3    H136137   2.557   0.552  13.728
 4882TIP3    H236138   2.575   0.672  13.818
 4883TIP3   OH236139   4.449   0.642  10.659
 4883TIP3    H136140   4.361   0.677  10.669
 4883TIP3    H236141   4.452   0.567  10.719
 4884TIP3   OH236142   0.418   2.028   5.708
 4884TIP3    H136143   0.463   2.106   5.739
 4884TIP3    H236144   0.326   2.043   5.729
 4885TIP3   OH236145   3.661   5.697  16.178
 4885TIP3    H136146   3.755   5.713  16.171
 4885TIP3    H236147   3.620   5.776  16.142
 4886TIP3   OH236148   4.681   1.781  16.178
 4886TIP3    H136149   4.617   1.774  16.250
 4886TIP3    H236150   4.766   1.784  16.222
 4887TIP3   OH236151   6.342   2.175   6.243
 4887TIP3    H136152   6.312   2.259   6.210
 4887TIP3    H236153   6.438   2.179   6.235
 4888TIP3   OH236154   4.957   0.078   0.588
 4888TIP3    H136155   4.960   0.154   0.647
 4888TIP3    H236156   5.040   0.079   0.542
 4889TIP3   OH236157   5.734   5.142   2.859
 4889TIP3    H136158   5.773   5.103   2.780
 4889TIP3    H236159   5.665   5.199   2.826
 4890TIP3   OH236160   2.172   5.850   5.020
 4890TIP3    H136161   2.165   5.917   4.952
 4890TIP3    H236162   2.266   5.842   5.037
 4891TIP3   OH236163   6.391   1.276   1.054
 4891TIP3    H136164   6.362   1.363   1.026
 4891TIP3    H236165   6.486   1.281   1.054
 4892TIP3   OH236166   5.078   4.033   3.505
 4892TIP3    H136167   5.024   4.108   3.529
 4892TIP3    H236168   5.027   3.988   3.437
 4893TIP3   OH236169   6.628   5.520   4.412
 4893TIP3    H136170   6.658   5.430   4.401
 4893TIP3    H236171   6.595   5.523   4.502
 4894TIP3   OH236172   3.540   2.182   3.093
 4894TIP3    H136173   3.610   2.238   3.060
 4894TIP3    H236174   3.467   2.197   3.033
 4895TIP3   OH236175   2.426   4.072   4.623
 4895TIP3    H136176   2.360   4.052   4.557
 4895TIP3    H236177   2.379   4.124   4.689
 4896TIP3   OH236178   2.620   4.476  11.409
 4896TIP3    H136179   2.577   4.415  11.469
 4896TIP3    H236180   2.558   4.547  11.397
 4897TIP3   OH236181   3.462   0.626  15.592
 4897TIP3    H136182   3.386   0.680  15.611
 4897TIP3    H236183   3.517   0.680  15.535
 4898TIP3   OH236184   6.734   6.573   4.255
 4898TIP3    H136185   6.700   6.526   4.332
 4898TIP3    H236186   6.671   6.555   4.186
 4899TIP3   OH236187   6.289   5.140   4.901
 4899TIP3    H136188   6.369   5.103   4.862
 4899TIP3    H236189   6.283   5.098   4.987
 4900TIP3   OH236190   0.623   2.457   2.272
 4900TIP3    H136191   0.652   2.548   2.273
 4900TIP3    H236192   0.584   2.444   2.359
 4901TIP3   OH236193   4.581   1.668   5.595
 4901TIP3    H136194   4.499   1.715   5.612
 4901TIP3    H236195   4.584   1.600   5.662
 4902TIP3   OH236196   6.498   5.730   1.525
 4902TIP3    H136197   6.477   5.697   1.612
 4902TIP3    H236198   6.513   5.652   1.472
 4903TIP3   OH236199   5.065   5.723   4.129
 4903TIP3    H136200   5.073   5.749   4.037
 4903TIP3    H236201   5.149   5.682   4.150
 4904TIP3   OH236202   3.197   2.032   5.909
 4904TIP3    H136203   3.173   2.090   5.981
 4904TIP3    H236204   3.123   1.973   5.899
 4905TIP3   OH236205   4.736   6.010  14.855
 4905TIP3    H136206   4.698   6.095  14.880
 4905TIP3    H236207   4.704   5.994  14.766
 4906TIP3   OH236208   3.420   1.733  12.264
 4906TIP3    H136209   3.493   1.795  12.275
 4906TIP3    H236210   3.416   1.718  12.170
 4907TIP3   OH236211   1.450   6.121  14.802
 4907TIP3    H136212   1.398   6.069  14.740
 4907TIP3    H236213   1.403   6.113  14.885
 4908TIP3   OH236214   1.074   6.510  12.516
 4908TIP3    H136215   1.002   6.456  12.548
 4908TIP3    H236216   1.132   6.520  12.592
 4909TIP3   OH236217   2.483   0.765  12.862
 4909TIP3    H136218   2.515   0.676  12.879
 4909TIP3    H236219   2.473   0.804  12.950
 4910TIP3   OH236220   1.824   5.608   5.086
 4910TIP3    H136221   1.749   5.627   5.029
 4910TIP3    H236222   1.812   5.517   5.112
 4911TIP3   OH236223   0.850   5.813  14.069
 4911TIP3    H136224   0.795   5.869  14.014
 4911TIP3    H236225   0.833   5.724  14.038
 4912TIP3   OH236226   3.958   6.796  11.597
 4912TIP3    H136227   4.050   6.775  11.611
 4912TIP3    H236228   3.910   6.725  11.641
 4913TIP3   OH236229   5.667   6.297   2.635
 4913TIP3    H136230   5.576   6.266   2.638
 4913TIP3    H236231   5.659   6.392   2.623
 4914TIP3   OH236232   4.580   3.359  11.191
 4914TIP3    H136233   4.506   3.342  11.134
 4914TIP3    H236234   4.614   3.272  11.213
 4915TIP3   OH236235   0.623   3.007   4.181
 4915TIP3    H136236   0.661   2.936   4.232
 4915TIP3    H236237   0.633   3.084   4.237
 4916TIP3   OH236238   4.517   6.402  10.235
 4916TIP3    H136239   4.430   6.401  10.195
 4916TIP3    H236240   4.528   6.314  10.271
 4917TIP3   OH236241   5.682   3.548  13.719
 4917TIP3    H136242   5.735   3.470  13.732
 4917TIP3    H236243   5.682   3.592  13.804
 4918TIP3   OH236244   0.758   3.480   1.466
 4918TIP3    H136245   0.764   3.506   1.558
 4918TIP3    H236246   0.753   3.563   1.418
 4919TIP3   OH236247   6.372   4.510  16.677
 4919TIP3    H136248   6.440   4.447  16.700
 4919TIP3    H236249   6.343   4.546  16.760
 4920TIP3   OH236250   5.230   5.812  12.938
 4920TIP3    H136251   5.314   5.858  12.935
 4920TIP3    H236252   5.247   5.734  12.990
 4921TIP3   OH236253   0.732   4.816  16.573
 4921TIP3    H136254   0.736   4.854  16.485
 4921TIP3    H236255   0.639   4.809  16.592
 4922TIP3   OH236256   4.883   2.152   5.165
 4922TIP3    H136257   4.869   2.240   5.200
 4922TIP3    H236258   4.929   2.105   5.235
 4923TIP3   OH236259   3.825   1.454   6.782
 4923TIP3    H136260   3.903   1.495   6.819
 4923TIP3    H236261   3.772   1.528   6.752
 4924TIP3   OH236262   6.285   2.192  11.321
 4924TIP3    H136263   6.226   2.144  11.263
 4924TIP3    H236264   6.292   2.279  11.282
 4925TIP3   OH236265   6.347   5.132   2.027
 4925TIP3    H136266   6.367   5.045   1.991
 4925TIP3    H236267   6.377   5.128   2.118
 4926TIP3   OH236268   5.417   3.553   3.941
 4926TIP3    H136269   5.388   3.586   3.856
 4926TIP3    H236270   5.390   3.620   4.004
 4927TIP3   OH236271   6.535   1.761   1.520
 4927TIP3    H136272   6.621   1.772   1.480
 4927TIP3    H236273   6.506   1.675   1.489
 4928TIP3   OH236274   6.330   1.737   6.219
 4928TIP3    H136275   6.325   1.711   6.127
 4928TIP3    H236276   6.415   1.705   6.249
 4929TIP3   OH236277   1.866   1.482  12.094
 4929TIP3    H136278   1.885   1.395  12.129
 4929TIP3    H236279   1.782   1.505  12.132
 4930TIP3   OH236280   6.052   4.178  13.742
 4930TIP3    H136281   5.958   4.181  13.728
 4930TIP3    H236282   6.089   4.227  13.668
 4931TIP3   OH236283   2.384   3.802  15.657
 4931TIP3    H136284   2.380   3.714  15.695
 4931TIP3    H236285   2.470   3.805  15.613
 4932TIP3   OH236286   3.041   6.280  11.267
 4932TIP3    H136287   3.001   6.331  11.196
 4932TIP3    H236288   3.083   6.345  11.323
 4933TIP3   OH236289   2.823   4.972   5.455
 4933TIP3    H136290   2.874   5.051   5.436
 4933TIP3    H236291   2.852   4.946   5.542
 4934TIP3   OH236292   3.782   3.220   3.635
 4934TIP3    H136293   3.773   3.288   3.702
 4934TIP3    H236294   3.875   3.221   3.612
 4935TIP3   OH236295   3.558   2.755  13.102
 4935TIP3    H136296   3.462   2.749  13.097
 4935TIP3    H236297   3.583   2.681  13.157
 4936TIP3   OH236298   5.473   2.435   1.231
 4936TIP3    H136299   5.411   2.486   1.179
 4936TIP3    H236300   5.482   2.352   1.183
 4937TIP3   OH236301   3.277   4.328   4.024
 4937TIP3    H136302   3.231   4.384   3.961
 4937TIP3    H236303   3.263   4.371   4.109
 4938TIP3   OH236304   6.172   6.785  15.684
 4938TIP3    H136305   6.171   6.691  15.670
 4938TIP3    H236306   6.084   6.814  15.661
 4939TIP3   OH236307   0.379   6.810  11.795
 4939TIP3    H136308   0.439   6.771  11.732
 4939TIP3    H236309   0.368   6.743  11.863
 4940TIP3   OH236310   5.009   1.951   0.278
 4940TIP3    H136311   5.050   1.958   0.364
 4940TIP3    H236312   5.072   1.990   0.218
 4941TIP3   OH236313   2.829   1.889  13.620
 4941TIP3    H136314   2.797   1.868  13.532
 4941TIP3    H236315   2.780   1.968  13.645
 4942TIP3   OH236316   4.755   3.392  15.847
 4942TIP3    H136317   4.700   3.457  15.889
 4942TIP3    H236318   4.810   3.358  15.917
 4943TIP3   OH236319   0.066   3.755  14.503
 4943TIP3    H136320   0.009   3.825  14.470
 4943TIP3    H236321   0.128   3.739  14.432
 4944TIP3   OH236322   6.565   0.584   7.234
 4944TIP3    H136323   6.606   0.648   7.292
 4944TIP3    H236324   6.472   0.587   7.258
 4945TIP3   OH236325   5.139   6.151   2.568
 4945TIP3    H136326   5.123   6.062   2.600
 4945TIP3    H236327   5.055   6.180   2.534
 4946TIP3   OH236328   6.067   6.114  11.684
 4946TIP3    H136329   6.058   6.177  11.613
 4946TIP3    H236330   6.155   6.078  11.673
 4947TIP3   OH236331   1.222   1.308  13.896
 4947TIP3    H136332   1.134   1.275  13.910
 4947TIP3    H236333   1.223   1.337  13.805
 4948TIP3   OH236334   2.123   2.540  14.496
 4948TIP3    H136335   2.035   2.568  14.518
 4948TIP3    H236336   2.153   2.604  14.431
 4949TIP3   OH236337   0.105   5.458  14.519
 4949TIP3    H136338   0.155   5.400  14.577
 4949TIP3    H236339   0.078   5.402  14.446
 4950TIP3   OH236340   0.438   3.251   3.721
 4950TIP3    H136341   0.487   3.326   3.755
 4950TIP3    H236342   0.484   3.227   3.640
 4951TIP3   OH236343   0.294   2.241  13.993
 4951TIP3    H136344   0.366   2.227  14.055
 4951TIP3    H236345   0.266   2.153  13.968
 4952TIP3   OH236346   1.186   3.529  12.862
 4952TIP3    H136347   1.197   3.561  12.951
 4952TIP3    H236348   1.126   3.592  12.820
 4953TIP3   OH236349   0.125   0.803   5.366
 4953TIP3    H136350   0.147   0.829   5.455
 4953TIP3    H236351   0.113   0.885   5.319
 4954TIP3   OH236352   3.975   2.029   2.295
 4954TIP3    H136353   3.993   1.975   2.372
 4954TIP3    H236354   3.949   2.114   2.331
 4955TIP3   OH236355   4.586   5.369  10.722
 4955TIP3    H136356   4.553   5.429  10.789
 4955TIP3    H236357   4.509   5.318  10.697
 4956TIP3   OH236358   4.118   0.402  12.797
 4956TIP3    H136359   4.152   0.327  12.846
 4956TIP3    H236360   4.195   0.455  12.778
 4957TIP3   OH236361   4.258   1.601   2.010
 4957TIP3    H136362   4.197   1.667   1.980
 4957TIP3    H236363   4.284   1.554   1.931
 4958TIP3   OH236364   1.084   2.354   2.990
 4958TIP3    H136365   1.175   2.356   3.018
 4958TIP3    H236366   1.036   2.322   3.066
 4959TIP3   OH236367   3.720   2.672  17.077
 4959TIP3    H136368   3.763   2.730  17.140
 4959TIP3    H236369   3.627   2.691  17.086
 4960TIP3   OH236370   5.240   6.016   0.832
 4960TIP3    H136371   5.173   5.983   0.892
 4960TIP3    H236372   5.197   6.088   0.785
 4961TIP3   OH236373   6.036   0.041   3.566
 4961TIP3    H136374   6.004   0.129   3.547
 4961TIP3    H236375   6.113   0.031   3.510
 4962TIP3   OH236376   0.464   0.864   1.101
 4962TIP3    H136377   0.495   0.949   1.070
 4962TIP3    H236378   0.536   0.804   1.085
 4963TIP3   OH236379   4.234   0.800   2.950
 4963TIP3    H136380   4.294   0.743   2.902
 4963TIP3    H236381   4.269   0.802   3.039
 4964TIP3   OH236382   6.299   5.936  15.460
 4964TIP3    H136383   6.325   5.865  15.519
 4964TIP3    H236384   6.374   5.995  15.459
 4965TIP3   OH236385   0.037   0.973  11.471
 4965TIP3    H136386   0.031   0.978  11.376
 4965TIP3    H236387   0.069   0.884  11.488
 4966TIP3   OH236388   6.702   4.630  17.055
 4966TIP3    H136389   6.667   4.665  16.973
 4966TIP3    H236390   6.787   4.673  17.065
 4967TIP3   OH236391   5.660   3.801  12.258
 4967TIP3    H136392   5.703   3.788  12.173
 4967TIP3    H236393   5.659   3.714  12.298
 4968TIP3   OH236394   0.867   1.180   3.850
 4968TIP3    H136395   0.817   1.213   3.924
 4968TIP3    H236396   0.954   1.161   3.885
 4969TIP3   OH236397   4.576   6.656   5.637
 4969TIP3    H136398   4.595   6.730   5.696
 4969TIP3    H236399   4.581   6.694   5.549
 4970TIP3   OH236400   1.025   0.092  12.915
 4970TIP3    H136401   1.110   0.083  12.959
 4970TIP3    H236402   0.965   0.037  12.966
 4971TIP3   OH236403   0.224   1.463  15.767
 4971TIP3    H136404   0.284   1.522  15.722
 4971TIP3    H236405   0.279   1.417  15.831
 4972TIP3   OH236406   0.129   0.530  13.576
 4972TIP3    H136407   0.116   0.542  13.670
 4972TIP3    H236408   0.081   0.450  13.555
 4973TIP3   OH236409   0.905   6.606   3.675
 4973TIP3    H136410   0.823   6.567   3.704
 4973TIP3    H236411   0.969   6.535   3.685
 4974TIP3   OH236412   2.202   1.269  15.485
 4974TIP3    H136413   2.178   1.192  15.537
 4974TIP3    H236414   2.121   1.295  15.442
 4975TIP3   OH236415   4.558   6.027   1.625
 4975TIP3    H136416   4.494   5.997   1.689
 4975TIP3    H236417   4.596   6.106   1.665
 4976TIP3   OH236418   4.958   6.430   4.851
 4976TIP3    H136419   4.880   6.475   4.820
 4976TIP3    H236420   4.933   6.338   4.857
 4977TIP3   OH236421   4.757   1.209  15.405
 4977TIP3    H136422   4.705   1.282  15.438
 4977TIP3    H236423   4.846   1.244  15.398
 4978TIP3   OH236424   2.367   6.159   2.388
 4978TIP3    H136425   2.342   6.187   2.476
 4978TIP3    H236426   2.428   6.086   2.403
 4979TIP3   OH236427   4.700   1.134  11.825
 4979TIP3    H136428   4.725   1.130  11.917
 4979TIP3    H236429   4.611   1.170  11.826
 4980TIP3   OH236430   6.057   2.208   0.222
 4980TIP3    H136431   6.051   2.151   0.299
 4980TIP3    H236432   5.998   2.169   0.158
 4981TIP3   OH236433   4.636   1.822  13.627
 4981TIP3    H136434   4.646   1.740  13.579
 4981TIP3    H236435   4.681   1.807  13.710
 4982TIP3   OH236436   6.401   0.387   0.063
 4982TIP3    H136437   6.467   0.457   0.067
 4982TIP3    H236438   6.431   0.330  -0.008
 4983TIP3   OH236439   6.679   3.189  10.783
 4983TIP3    H136440   6.760   3.239  10.779
 4983TIP3    H236441   6.610   3.252  10.761
 4984TIP3   OH236442   4.783   2.665  15.561
 4984TIP3    H136443   4.712   2.720  15.528
 4984TIP3    H236444   4.791   2.688  15.653
 4985TIP3   OH236445   4.331   6.604  16.771
 4985TIP3    H136446   4.240   6.607  16.800
 4985TIP3    H236447   4.351   6.693  16.741
 4986TIP3   OH236448   0.264   5.473  14.975
 4986TIP3    H136449   0.323   5.531  14.926
 4986TIP3    H236450   0.203   5.441  14.909
 4987TIP3   OH236451   3.581   6.709  14.299
 4987TIP3    H136452   3.671   6.723  14.270
 4987TIP3    H236453   3.558   6.623  14.266
 4988TIP3   OH236454   1.866   2.195  17.053
 4988TIP3    H136455   1.936   2.153  17.104
 4988TIP3    H236456   1.788   2.184  17.107
 4989TIP3   OH236457   2.419   6.668   5.698
 4989TIP3    H136458   2.497   6.718   5.675
 4989TIP3    H236459   2.452   6.592   5.746
 4990TIP3   OH236460   5.356   0.380   0.277
 4990TIP3    H136461   5.404   0.463   0.277
 4990TIP3    H236462   5.348   0.358   0.370
 4991TIP3   OH236463   5.049   3.528   0.021
 4991TIP3    H136464   5.099   3.597  -0.023
 4991TIP3    H236465   5.111   3.490   0.084
 4992TIP3   OH236466   1.637   2.576  14.693
 4992TIP3    H136467   1.632   2.605  14.784
 4992TIP3    H236468   1.570   2.508  14.686
 4993TIP3   OH236469   1.881   3.740   1.695
 4993TIP3    H136470   1.863   3.648   1.675
 4993TIP3    H236471   1.798   3.785   1.680
 4994TIP3   OH236472   4.386   5.643  13.758
 4994TIP3    H136473   4.301   5.608  13.783
 4994TIP3    H236474   4.442   5.566  13.749
 4995TIP3   OH236475   3.448   1.226  15.022
 4995TIP3    H136476   3.397   1.211  15.102
 4995TIP3    H236477   3.508   1.297  15.045
 4996TIP3   OH236478   0.135   2.347   5.303
 4996TIP3    H136479   0.084   2.277   5.263
 4996TIP3    H236480   0.206   2.364   5.240
 4997TIP3   OH236481   6.501   6.419  16.470
 4997TIP3    H136482   6.492   6.324  16.461
 4997TIP3    H236483   6.436   6.455  16.410
 4998TIP3   OH236484   1.465   1.545   3.884
 4998TIP3    H136485   1.511   1.523   3.803
 4998TIP3    H236486   1.396   1.605   3.857
 4999TIP3   OH236487   1.325   0.621   6.258
 4999TIP3    H136488   1.354   0.703   6.297
 4999TIP3    H236489   1.393   0.557   6.282
 5000TIP3   OH236490   4.397   0.836  16.065
 5000TIP3    H136491   4.399   0.878  15.979
 5000TIP3    H236492   4.384   0.744  16.046
 5001TIP3   OH236493   0.739   1.971  15.458
 5001TIP3    H136494   0.798   1.920  15.513
 5001TIP3    H236495   0.685   2.021  15.521
 5002TIP3   OH236496   6.601   2.305  14.957
 5002TIP3    H136497   6.521   2.334  15.002
 5002TIP3    H236498   6.672   2.329  15.015
 5003TIP3   OH236499   3.841   6.562  15.020
 5003TIP3    H136500   3.806   6.625  15.083
 5003TIP3    H236501   3.801   6.479  15.045
 5004TIP3   OH236502   6.497   4.462   3.413
 5004TIP3    H136503   6.470   4.517   3.340
 5004TIP3    H236504   6.545   4.389   3.372
 5005TIP3   OH236505   4.367   0.905  16.330
 5005TIP3    H136506   4.344   0.820  16.366
 5005TIP3    H236507   4.364   0.893  16.235
 5006TIP3   OH236508   0.334   1.052  14.740
 5006TIP3    H136509   0.365   1.098  14.817
 5006TIP3    H236510   0.330   0.960  14.766
 5007TIP3   OH236511   1.322   4.294  16.965
 5007TIP3    H136512   1.241   4.248  16.987
 5007TIP3    H236513   1.388   4.256  17.023
 5008TIP3   OH236514   4.538   6.625  14.897
 5008TIP3    H136515   4.520   6.646  14.806
 5008TIP3    H236516   4.482   6.549  14.916
 5009TIP3   OH236517   2.064   4.557   1.802
 5009TIP3    H136518   2.131   4.568   1.735
 5009TIP3    H236519   2.028   4.644   1.814
 5010TIP3   OH236520   0.077   1.407   3.040
 5010TIP3    H136521   0.057   1.411   3.133
 5010TIP3    H236522   0.027   1.478   3.001
 5011TIP3   OH236523   0.191   6.086   1.885
 5011TIP3    H136524   0.193   6.007   1.940
 5011TIP3    H236525   0.142   6.150   1.937
 5012TIP3   OH236526   1.224   0.946  13.056
 5012TIP3    H136527   1.210   0.860  13.014
 5012TIP3    H236528   1.194   1.009  12.990
 5013TIP3   OH236529   4.475   0.165   4.291
 5013TIP3    H136530   4.473   0.236   4.355
 5013TIP3    H236531   4.418   0.196   4.220
 5014TIP3   OH236532   2.321   5.790  14.316
 5014TIP3    H136533   2.240   5.784  14.266
 5014TIP3    H236534   2.357   5.876  14.291
 5015TIP3   OH236535   6.085   1.400   0.582
 5015TIP3    H136536   6.030   1.376   0.657
 5015TIP3    H236537   6.149   1.330   0.575
 5016TIP3   OH236538   4.906   4.166   5.092
 5016TIP3    H136539   4.912   4.177   4.997
 5016TIP3    H236540   4.957   4.238   5.128
 5017TIP3   OH236541   1.801   5.720  13.110
 5017TIP3    H136542   1.787   5.814  13.096
 5017TIP3    H236543   1.774   5.705  13.200
 5018TIP3   OH236544   0.686   0.505  16.422
 5018TIP3    H136545   0.710   0.493  16.330
 5018TIP3    H236546   0.616   0.442  16.437
 5019TIP3   OH236547   6.321   6.357   0.623
 5019TIP3    H136548   6.385   6.423   0.652
 5019TIP3    H236549   6.372   6.276   0.617
 5020TIP3   OH236550   3.885   1.693   5.281
 5020TIP3    H136551   3.884   1.738   5.366
 5020TIP3    H236552   3.801   1.716   5.241
 5021TIP3   OH236553   0.842   3.188   1.128
 5021TIP3    H136554   0.918   3.243   1.149
 5021TIP3    H236555   0.875   3.099   1.137
 5022TIP3   OH236556   2.484   2.784   5.235
 5022TIP3    H136557   2.449   2.854   5.290
 5022TIP3    H236558   2.406   2.745   5.194
 5023TIP3   OH236559   4.947   0.423  13.259
 5023TIP3    H136560   4.854   0.420  13.282
 5023TIP3    H236561   4.948   0.435  13.164
 5024TIP3   OH236562   0.983   0.194  14.674
 5024TIP3    H136563   0.907   0.157  14.627
 5024TIP3    H236564   0.976   0.288  14.659
 5025TIP3   OH236565   6.585   5.004   4.243
 5025TIP3    H136566   6.508   5.005   4.187
 5025TIP3    H236567   6.595   4.912   4.268
 5026TIP3   OH236568   3.453   6.291  16.759
 5026TIP3    H136569   3.533   6.254  16.797
 5026TIP3    H236570   3.395   6.306  16.834
 5027TIP3   OH236571   4.837   3.161  14.829
 5027TIP3    H136572   4.805   3.075  14.803
 5027TIP3    H236573   4.791   3.223  14.773
 5028TIP3   OH236574   3.625   5.660   6.162
 5028TIP3    H136575   3.572   5.637   6.239
 5028TIP3    H236576   3.652   5.575   6.127
 5029TIP3   OH236577   4.286   6.689   1.882
 5029TIP3    H136578   4.346   6.616   1.898
 5029TIP3    H236579   4.339   6.767   1.897
 5030TIP3   OH236580   1.061   1.204  12.088
 5030TIP3    H136581   1.048   1.200  12.183
 5030TIP3    H236582   1.093   1.117  12.064
 5031TIP3   OH236583   6.287   5.410   4.840
 5031TIP3    H136584   6.284   5.317   4.863
 5031TIP3    H236585   6.195   5.437   4.840
 5032TIP3   OH236586   0.905   2.771   6.877
 5032TIP3    H136587   0.944   2.695   6.919
 5032TIP3    H236588   0.816   2.743   6.854
 5033TIP3   OH236589   0.437   4.473  15.073
 5033TIP3    H136590   0.378   4.409  15.034
 5033TIP3    H236591   0.429   4.459  15.168
 5034TIP3   OH236592   2.326   3.946  11.939
 5034TIP3    H136593   2.328   3.862  11.984
 5034TIP3    H236594   2.249   3.991  11.975
 5035TIP3   OH236595   3.274   5.088  10.436
 5035TIP3    H136596   3.307   5.127  10.518
 5035TIP3    H236597   3.350   5.043  10.400
 5036TIP3   OH236598   4.824   4.577   5.537
 5036TIP3    H136599   4.806   4.651   5.480
 5036TIP3    H236600   4.794   4.605   5.624
 5037TIP3   OH236601   5.319   2.644  12.591
 5037TIP3    H136602   5.402   2.597  12.591
 5037TIP3    H236603   5.272   2.611  12.515
 5038TIP3   OH236604   1.323   2.417   1.672
 5038TIP3    H136605   1.320   2.409   1.576
 5038TIP3    H236606   1.304   2.509   1.689
 5039TIP3   OH236607   2.170   1.526  13.554
 5039TIP3    H136608   2.103   1.582  13.514
 5039TIP3    H236609   2.230   1.587  13.597
 5040TIP3   OH236610   1.683   5.190   4.175
 5040TIP3    H136611   1.723   5.139   4.244
 5040TIP3    H236612   1.714   5.280   4.190
 5041TIP3   OH236613   4.641   0.142   1.412
 5041TIP3    H136614   4.687   0.224   1.426
 5041TIP3    H236615   4.548   0.166   1.406
 5042TIP3   OH236616   6.502   4.395  11.479
 5042TIP3    H136617   6.563   4.372  11.408
 5042TIP3    H236618   6.526   4.485  11.502
 5043TIP3   OH236619   6.251   4.915   5.124
 5043TIP3    H136620   6.250   4.824   5.094
 5043TIP3    H236621   6.212   4.912   5.211
 5044TIP3   OH236622   3.682   3.930   3.733
 5044TIP3    H136623   3.704   4.021   3.715
 5044TIP3    H236624   3.591   3.932   3.763
 5045TIP3   OH236625   4.700   5.931   1.384
 5045TIP3    H136626   4.644   5.926   1.307
 5045TIP3    H236627   4.653   5.987   1.445
 5046TIP3   OH236628   3.050   1.257  14.533
 5046TIP3    H136629   3.125   1.209  14.568
 5046TIP3    H236630   3.008   1.295  14.609
 5047TIP3   OH236631   5.212   6.426  13.606
 5047TIP3    H136632   5.184   6.379  13.685
 5047TIP3    H236633   5.178   6.515  13.617
 5048TIP3   OH236634   3.658   5.375  13.684
 5048TIP3    H136635   3.626   5.448  13.630
 5048TIP3    H236636   3.579   5.334  13.718
 5049TIP3   OH236637   5.236   0.498  16.641
 5049TIP3    H136638   5.309   0.445  16.673
 5049TIP3    H236639   5.159   0.443  16.656
 5050TIP3   OH236640   6.128   2.991  12.447
 5050TIP3    H136641   6.054   3.044  12.415
 5050TIP3    H236642   6.088   2.911  12.478
 5051TIP3   OH236643   0.379   0.472   4.947
 5051TIP3    H136644   0.426   0.549   4.980
 5051TIP3    H236645   0.304   0.509   4.899
 5052TIP3   OH236646   2.257   3.657   3.181
 5052TIP3    H136647   2.267   3.693   3.093
 5052TIP3    H236648   2.165   3.633   3.188
 5053TIP3   OH236649   6.281   3.639   3.247
 5053TIP3    H136650   6.366   3.681   3.230
 5053TIP3    H236651   6.225   3.670   3.176
 5054TIP3   OH236652   1.352   0.153   4.550
 5054TIP3    H136653   1.423   0.210   4.522
 5054TIP3    H236654   1.355   0.156   4.646
 5055TIP3   OH236655   3.616   2.387   4.975
 5055TIP3    H136656   3.557   2.331   4.925
 5055TIP3    H236657   3.688   2.329   5.000
 5056TIP3   OH236658   1.772   6.753  15.041
 5056TIP3    H136659   1.847   6.697  15.057
 5056TIP3    H236660   1.699   6.692  15.030
 5057TIP3   OH236661   3.745   1.769   6.053
 5057TIP3    H136662   3.765   1.675   6.058
 5057TIP3    H236663   3.829   1.810   6.033
 5058TIP3   OH236664   5.455   4.649  15.098
 5058TIP3    H136665   5.531   4.647  15.156
 5058TIP3    H236666   5.489   4.620  15.014
 5059TIP3   OH236667   0.983   3.732   0.321
 5059TIP3    H136668   1.030   3.735   0.238
 5059TIP3    H236669   1.052   3.720   0.387
 5060TIP3   OH236670   3.528   4.916   3.657
 5060TIP3    H136671   3.481   4.990   3.619
 5060TIP3    H236672   3.493   4.839   3.613
 5061TIP3   OH236673   1.066   0.929   2.375
 5061TIP3    H136674   0.998   0.950   2.438
 5061TIP3    H236675   1.117   0.859   2.416
 5062TIP3   OH236676   3.599   2.842   1.608
 5062TIP3    H136677   3.515   2.889   1.612
 5062TIP3    H236678   3.665   2.911   1.610
 5063TIP3   OH236679   0.400   4.885  12.224
 5063TIP3    H136680   0.355   4.805  12.199
 5063TIP3    H236681   0.440   4.865  12.309
 5064TIP3   OH236682   0.236   2.033  13.214
 5064TIP3    H136683   0.291   1.961  13.244
 5064TIP3    H236684   0.286   2.072  13.142
 5065TIP3   OH236685   3.573   0.224   0.261
 5065TIP3    H136686   3.519   0.303   0.264
 5065TIP3    H236687   3.511   0.152   0.274
 5066TIP3   OH236688   1.549   1.179  13.580
 5066TIP3    H136689   1.486   1.107  13.578
 5066TIP3    H236690   1.565   1.194  13.673
 5067TIP3   OH236691   0.250   6.178   0.066
 5067TIP3    H136692   0.294   6.258   0.038
 5067TIP3    H236693   0.313   6.136   0.125
 5068TIP3   OH236694   2.879   3.736   2.102
 5068TIP3    H136695   2.935   3.813   2.104
 5068TIP3    H236696   2.859   3.719   2.195
 5069TIP3   OH236697   5.617   3.681  12.880
 5069TIP3    H136698   5.594   3.666  12.972
 5069TIP3    H236699   5.693   3.738  12.883
 5070TIP3   OH236700   6.280   0.160   0.758
 5070TIP3    H136701   6.313   0.246   0.731
 5070TIP3    H236702   6.304   0.102   0.685
 5071TIP3   OH236703   6.639   3.523   5.384
 5071TIP3    H136704   6.672   3.562   5.302
 5071TIP3    H236705   6.672   3.581   5.453
 5072TIP3   OH236706   3.185   3.967   1.654
 5072TIP3    H136707   3.119   4.022   1.611
 5072TIP3    H236708   3.183   3.995   1.746
 5073TIP3   OH236709   1.618   0.583   2.192
 5073TIP3    H136710   1.558   0.512   2.213
 5073TIP3    H236711   1.563   0.662   2.191
 5074TIP3   OH236712   2.031   5.575   0.177
 5074TIP3    H136713   1.981   5.644   0.133
 5074TIP3    H236714   2.111   5.620   0.208
 5075TIP3   OH236715   0.588   1.266  11.443
 5075TIP3    H136716   0.667   1.297  11.486
 5075TIP3    H236717   0.526   1.338  11.451
 5076TIP3   OH236718   6.726   0.134   3.643
 5076TIP3    H136719   6.733   0.039   3.655
 5076TIP3    H236720   6.634   0.153   3.662
 5077TIP3   OH236721   3.289   5.251  13.367
 5077TIP3    H136722   3.296   5.327  13.309
 5077TIP3    H236723   3.331   5.180  13.319
 5078TIP3   OH236724   3.257   2.398   5.085
 5078TIP3    H136725   3.170   2.358   5.080
 5078TIP3    H236726   3.277   2.426   4.996
 5079TIP3   OH236727   4.557   2.049   2.212
 5079TIP3    H136728   4.477   2.038   2.160
 5079TIP3    H236729   4.527   2.093   2.292
 5080TIP3   OH236730   0.845   2.142  14.567
 5080TIP3    H136731   0.755   2.157  14.596
 5080TIP3    H236732   0.891   2.223  14.586
 5081TIP3   OH236733   6.118   2.538  13.241
 5081TIP3    H136734   6.200   2.554  13.194
 5081TIP3    H236735   6.146   2.507  13.327
 5082TIP3   OH236736   5.801   5.757  13.188
 5082TIP3    H136737   5.733   5.792  13.130
 5082TIP3    H236738   5.874   5.736  13.130
 5083TIP3   OH236739   2.343   3.880   6.512
 5083TIP3    H136740   2.325   3.934   6.588
 5083TIP3    H236741   2.438   3.871   6.510
 5084TIP3   OH236742   6.677   2.100   5.058
 5084TIP3    H136743   6.623   2.023   5.044
 5084TIP3    H236744   6.761   2.066   5.090
 5085TIP3   OH236745   5.130   4.072   3.119
 5085TIP3    H136746   5.125   4.042   3.028
 5085TIP3    H236747   5.175   4.002   3.165
 5086TIP3   OH236748   6.126   2.905   5.155
 5086TIP3    H136749   6.049   2.895   5.099
 5086TIP3    H236750   6.099   2.967   5.223
 5087TIP3   OH236751   2.905   1.449  15.371
 5087TIP3    H136752   2.835   1.384  15.361
 5087TIP3    H236753   2.863   1.522  15.417
 5088TIP3   OH236754   4.850   6.581  14.350
 5088TIP3    H136755   4.883   6.570  14.439
 5088TIP3    H236756   4.922   6.554  14.294
 5089TIP3   OH236757   3.684   6.543   2.385
 5089TIP3    H136758   3.739   6.575   2.313
 5089TIP3    H236759   3.716   6.588   2.462
 5090TIP3   OH236760   1.950   1.319  11.725
 5090TIP3    H136761   2.003   1.289  11.651
 5090TIP3    H236762   1.914   1.239  11.763
 5091TIP3   OH236763   6.722   3.323  14.558
 5091TIP3    H136764   6.738   3.337  14.465
 5091TIP3    H236765   6.789   3.261  14.585
 5092TIP3   OH236766   5.307   4.141   4.027
 5092TIP3    H136767   5.400   4.148   4.008
 5092TIP3    H236768   5.266   4.211   3.975
 5093TIP3   OH236769   2.315   1.723   4.133
 5093TIP3    H136770   2.267   1.791   4.180
 5093TIP3    H236771   2.357   1.671   4.202
 5094TIP3   OH236772   2.298   3.043  13.024
 5094TIP3    H136773   2.293   3.002  13.111
 5094TIP3    H236774   2.332   3.131  13.041
 5095TIP3   OH236775   4.446   3.450  11.960
 5095TIP3    H136776   4.366   3.443  11.909
 5095TIP3    H236777   4.508   3.495  11.903
 5096TIP3   OH236778   4.133   5.305  14.286
 5096TIP3    H136779   4.135   5.331  14.378
 5096TIP3    H236780   4.051   5.343  14.253
 5097TIP3   OH236781   4.729   1.638  17.005
 5097TIP3    H136782   4.737   1.721  17.053
 5097TIP3    H236783   4.739   1.663  16.913
 5098TIP3   OH236784   2.964   0.979   6.558
 5098TIP3    H136785   2.891   1.039   6.546
 5098TIP3    H236786   2.989   0.989   6.650
 5099TIP3   OH236787   0.089   1.918  16.892
 5099TIP3    H136788   0.131   1.832  16.900
 5099TIP3    H236789   0.141   1.965  16.827
 5100TIP3   OH236790   3.960   1.206   4.568
 5100TIP3    H136791   3.932   1.131   4.516
 5100TIP3    H236792   3.880   1.256   4.583
 5101TIP3   OH236793   6.325   2.958  13.654
 5101TIP3    H136794   6.343   3.014  13.730
 5101TIP3    H236795   6.236   2.983  13.628
 5102TIP3   OH236796   3.831   5.618   0.593
 5102TIP3    H136797   3.771   5.603   0.521
 5102TIP3    H236798   3.810   5.707   0.624
 5103TIP3   OH236799   0.982   0.646   5.354
 5103TIP3    H136800   1.011   0.621   5.267
 5103TIP3    H236801   1.018   0.579   5.412
 5104TIP3   OH236802   5.234   2.138  13.941
 5104TIP3    H136803   5.152   2.155  13.988
 5104TIP3    H236804   5.211   2.152  13.849
 5105TIP3   OH236805   6.089   4.405  11.851
 5105TIP3    H136806   6.006   4.374  11.887
 5105TIP3    H236807   6.072   4.417  11.758
 5106TIP3   OH236808   1.579   4.180  14.146
 5106TIP3    H136809   1.503   4.139  14.187
 5106TIP3    H236810   1.590   4.263  14.194
 5107TIP3   OH236811   3.795   6.732   1.500
 5107TIP3    H136812   3.734   6.661   1.520
 5107TIP3    H236813   3.881   6.691   1.504
 5108TIP3   OH236814   1.565   2.843   2.111
 5108TIP3    H136815   1.489   2.825   2.055
 5108TIP3    H236816   1.622   2.767   2.098
 5109TIP3   OH236817   1.159   4.552  12.103
 5109TIP3    H136818   1.228   4.615  12.123
 5109TIP3    H236819   1.160   4.491  12.177
 5110TIP3   OH236820   3.991   2.188   1.473
 5110TIP3    H136821   4.032   2.142   1.547
 5110TIP3    H236822   3.913   2.136   1.453
 5111TIP3   OH236823   1.509   0.374   0.307
 5111TIP3    H136824   1.490   0.280   0.304
 5111TIP3    H236825   1.461   0.406   0.383
 5112TIP3   OH236826   3.338   6.294   5.565
 5112TIP3    H136827   3.245   6.311   5.554
 5112TIP3    H236828   3.343   6.205   5.601
 5113TIP3   OH236829   0.966   2.199   1.315
 5113TIP3    H136830   0.907   2.142   1.365
 5113TIP3    H236831   0.964   2.282   1.363
 5114TIP3   OH236832   3.659   3.076  12.938
 5114TIP3    H136833   3.748   3.060  12.906
 5114TIP3    H236834   3.606   3.084  12.858
 5115TIP3   OH236835   5.174   0.620   5.401
 5115TIP3    H136836   5.182   0.535   5.357
 5115TIP3    H236837   5.218   0.681   5.342
 5116TIP3   OH236838   4.313   3.855  12.479
 5116TIP3    H136839   4.225   3.852  12.516
 5116TIP3    H236840   4.357   3.777  12.515
 5117TIP3   OH236841   4.384   1.598  11.221
 5117TIP3    H136842   4.428   1.534  11.165
 5117TIP3    H236843   4.418   1.683  11.192
 5118TIP3   OH236844   1.633   3.946   4.915
 5118TIP3    H136845   1.608   3.914   4.828
 5118TIP3    H236846   1.684   3.875   4.953
 5119TIP3   OH236847   3.257   2.607   0.186
 5119TIP3    H136848   3.342   2.629   0.224
 5119TIP3    H236849   3.242   2.677   0.122
 5120TIP3   OH236850   4.167   5.963  16.379
 5120TIP3    H136851   4.188   5.989  16.290
 5120TIP3    H236852   4.106   6.030  16.410
 5121TIP3   OH236853   3.621   2.739  14.201
 5121TIP3    H136854   3.640   2.824  14.161
 5121TIP3    H236855   3.568   2.694  14.135
 5122TIP3   OH236856   0.465   0.271  14.587
 5122TIP3    H136857   0.550   0.229  14.576
 5122TIP3    H236858   0.470   0.311  14.674
 5123TIP3   OH236859   2.051   2.200   1.893
 5123TIP3    H136860   2.051   2.292   1.919
 5123TIP3    H236861   2.143   2.177   1.884
 5124TIP3   OH236862   5.684   4.327  10.609
 5124TIP3    H136863   5.721   4.269  10.542
 5124TIP3    H236864   5.607   4.280  10.642
 5125TIP3   OH236865   1.223   5.655   3.668
 5125TIP3    H136866   1.256   5.712   3.599
 5125TIP3    H236867   1.156   5.707   3.713
 5126TIP3   OH236868   2.545   5.201   3.561
 5126TIP3    H136869   2.505   5.247   3.635
 5126TIP3    H236870   2.636   5.188   3.587
 5127TIP3   OH236871   3.647   3.741  11.241
 5127TIP3    H136872   3.624   3.832  11.221
 5127TIP3    H236873   3.741   3.744  11.259
 5128TIP3   OH236874   1.014   6.386   0.148
 5128TIP3    H136875   1.019   6.423   0.237
 5128TIP3    H236876   0.922   6.392   0.124
 5129TIP3   OH236877   6.818   1.215  11.241
 5129TIP3    H136878   6.911   1.228  11.223
 5129TIP3    H236879   6.795   1.135  11.192
 5130TIP3   OH236880   5.630   4.254  16.198
 5130TIP3    H136881   5.646   4.347  16.211
 5130TIP3    H236882   5.597   4.247  16.109
 5131TIP3   OH236883   1.118   6.197  14.454
 5131TIP3    H136884   1.051   6.129  14.459
 5131TIP3    H236885   1.103   6.238  14.369
 5132TIP3   OH236886   1.746   0.402   6.493
 5132TIP3    H136887   1.788   0.317   6.502
 5132TIP3    H236888   1.677   0.402   6.560
 5133TIP3   OH236889   5.718   6.306   0.895
 5133TIP3    H136890   5.654   6.256   0.845
 5133TIP3    H236891   5.667   6.378   0.934
 5134TIP3   OH236892   3.580   4.232  14.286
 5134TIP3    H136893   3.589   4.172  14.360
 5134TIP3    H236894   3.539   4.180  14.217
 5135TIP3   OH236895   1.249   6.548  17.224
 5135TIP3    H136896   1.177   6.580  17.170
 5135TIP3    H236897   1.239   6.453  17.225
 5136TIP3   OH236898   5.782   2.855  16.579
 5136TIP3    H136899   5.707   2.813  16.536
 5136TIP3    H236900   5.802   2.799  16.653
 5137TIP3   OH236901   4.030   2.114  16.667
 5137TIP3    H136902   4.114   2.125  16.712
 5137TIP3    H236903   4.053   2.096  16.576
 5138TIP3   OH236904   1.689   1.950   2.637
 5138TIP3    H136905   1.652   2.009   2.571
 5138TIP3    H236906   1.760   2.000   2.676
 5139TIP3   OH236907   3.747   1.455   1.482
 5139TIP3    H136908   3.775   1.410   1.561
 5139TIP3    H236909   3.770   1.547   1.496
 5140TIP3   OH236910   2.769   5.077   2.706
 5140TIP3    H136911   2.677   5.083   2.680
 5140TIP3    H236912   2.771   5.114   2.795
 5141TIP3   OH236913   6.137   1.154   4.817
 5141TIP3    H136914   6.136   1.230   4.875
 5141TIP3    H236915   6.218   1.162   4.768
 5142TIP3   OH236916   0.698   5.848   6.708
 5142TIP3    H136917   0.640   5.924   6.706
 5142TIP3    H236918   0.708   5.823   6.616
 5143TIP3   OH236919   3.466   3.694  12.837
 5143TIP3    H136920   3.429   3.751  12.770
 5143TIP3    H236921   3.489   3.614  12.791
 5144TIP3   OH236922   3.622   0.214   6.365
 5144TIP3    H136923   3.638   0.124   6.393
 5144TIP3    H236924   3.535   0.211   6.325
 5145TIP3   OH236925   2.949   0.510   3.682
 5145TIP3    H136926   2.965   0.562   3.761
 5145TIP3    H236927   2.982   0.423   3.704
 5146TIP3   OH236928   6.139   3.236  13.211
 5146TIP3    H136929   6.132   3.211  13.118
 5146TIP3    H236930   6.091   3.319  13.217
 5147TIP3   OH236931   6.659   3.340   3.822
 5147TIP3    H136932   6.743   3.383   3.838
 5147TIP3    H236933   6.673   3.291   3.741
 5148TIP3   OH236934   5.768   0.769   1.065
 5148TIP3    H136935   5.778   0.863   1.081
 5148TIP3    H236936   5.679   0.760   1.032
 5149TIP3   OH236937   0.824   4.585  12.167
 5149TIP3    H136938   0.886   4.654  12.190
 5149TIP3    H236939   0.836   4.518  12.234
 5150TIP3   OH236940   2.251   5.493   1.913
 5150TIP3    H136941   2.216   5.522   1.829
 5150TIP3    H236942   2.174   5.485   1.970
 5151TIP3   OH236943   4.762   3.564   2.795
 5151TIP3    H136944   4.810   3.499   2.847
 5151TIP3    H236945   4.805   3.647   2.814
 5152TIP3   OH236946   5.627   4.799   0.607
 5152TIP3    H136947   5.609   4.705   0.605
 5152TIP3    H236948   5.542   4.839   0.628
 5153TIP3   OH236949   1.830   2.176   0.957
 5153TIP3    H136950   1.759   2.176   1.022
 5153TIP3    H236951   1.887   2.104   0.984
 5154TIP3   OH236952   0.540   1.656  11.233
 5154TIP3    H136953   0.610   1.713  11.203
 5154TIP3    H236954   0.505   1.617  11.153
 5155TIP3   OH236955   3.478   4.798   5.185
 5155TIP3    H136956   3.459   4.707   5.204
 5155TIP3    H236957   3.409   4.848   5.228
 5156TIP3   OH236958   4.803   0.179  13.630
 5156TIP3    H136959   4.708   0.188  13.630
 5156TIP3    H236960   4.826   0.154  13.541
 5157TIP3   OH236961   6.462   2.633   1.131
 5157TIP3    H136962   6.525   2.562   1.122
 5157TIP3    H236963   6.513   2.712   1.117
 5158TIP3   OH236964   5.581   0.224  15.601
 5158TIP3    H136965   5.538   0.310  15.605
 5158TIP3    H236966   5.598   0.210  15.507
 5159TIP3   OH236967   6.411   4.639  13.549
 5159TIP3    H136968   6.407   4.730  13.520
 5159TIP3    H236969   6.459   4.594  13.480
 5160TIP3   OH236970   6.699   0.599  17.055
 5160TIP3    H136971   6.651   0.637  17.129
 5160TIP3    H236972   6.640   0.607  16.981
 5161TIP3   OH236973   5.059   1.136  15.696
 5161TIP3    H136974   4.967   1.145  15.720
 5161TIP3    H236975   5.058   1.102  15.606
 5162TIP3   OH236976   6.377   4.281   4.056
 5162TIP3    H136977   6.354   4.215   3.990
 5162TIP3    H236978   6.466   4.258   4.083
 5163TIP3   OH236979   3.682   2.145   6.015
 5163TIP3    H136980   3.691   2.228   6.062
 5163TIP3    H236981   3.600   2.109   6.047
 5164TIP3   OH236982   4.740   5.739   3.234
 5164TIP3    H136983   4.663   5.793   3.250
 5164TIP3    H236984   4.717   5.653   3.271
 5165TIP3   OH236985   4.814   4.699   4.105
 5165TIP3    H136986   4.824   4.791   4.080
 5165TIP3    H236987   4.721   4.689   4.123
 5166TIP3   OH236988   4.824   3.954  15.719
 5166TIP3    H136989   4.901   3.978  15.669
 5166TIP3    H236990   4.753   3.953  15.655
 5167TIP3   OH236991   2.484   3.597   0.538
 5167TIP3    H136992   2.427   3.522   0.521
 5167TIP3    H236993   2.528   3.613   0.455
 5168TIP3   OH236994   1.340   1.482   2.785
 5168TIP3    H136995   1.343   1.458   2.692
 5168TIP3    H236996   1.310   1.573   2.786
 5169TIP3   OH236997   3.657   5.965   5.683
 5169TIP3    H136998   3.695   6.043   5.644
 5169TIP3    H236999   3.572   5.955   5.639
 5170TIP3   OH237000   5.146   5.245   1.150
 5170TIP3    H137001   5.052   5.230   1.165
 5170TIP3    H237002   5.152   5.265   1.056
 5171TIP3   OH237003   6.389   1.002  12.973
 5171TIP3    H137004   6.426   1.074  12.921
 5171TIP3    H237005   6.323   0.963  12.914
 5172TIP3   OH237006   2.285   6.724   1.034
 5172TIP3    H137007   2.206   6.693   1.079
 5172TIP3    H237008   2.334   6.645   1.014
 5173TIP3   OH237009   5.861   4.203  15.965
 5173TIP3    H137010   5.850   4.294  15.992
 5173TIP3    H237011   5.796   4.154  16.016
 5174TIP3   OH237012   2.915   4.173  16.191
 5174TIP3    H137013   2.978   4.222  16.244
 5174TIP3    H237014   2.942   4.082  16.200
 5175TIP3   OH237015   4.391   5.354  14.257
 5175TIP3    H137016   4.306   5.316  14.279
 5175TIP3    H237017   4.440   5.283  14.216
 5176TIP3   OH237018   0.598   6.765   2.477
 5176TIP3    H137019   0.526   6.707   2.452
 5176TIP3    H237020   0.651   6.712   2.537
 5177TIP3   OH237021   4.292   4.305  16.225
 5177TIP3    H137022   4.231   4.261  16.285
 5177TIP3    H237023   4.379   4.273  16.251
 5178TIP3   OH237024   3.748   3.254   1.023
 5178TIP3    H137025   3.758   3.287   1.112
 5178TIP3    H237026   3.819   3.190   1.014
 5179TIP3   OH237027   5.550   3.853  10.597
 5179TIP3    H137028   5.472   3.815  10.637
 5179TIP3    H237029   5.517   3.911  10.529
 5180TIP3   OH237030   0.071   5.449  12.233
 5180TIP3    H137031   0.104   5.434  12.321
 5180TIP3    H237032   0.054   5.362  12.197
 5181TIP3   OH237033   2.061   2.672   0.060
 5181TIP3    H137034   2.124   2.681   0.132
 5181TIP3    H237035   2.050   2.578   0.050
 5182TIP3   OH237036   3.548   5.296   3.265
 5182TIP3    H137037   3.471   5.325   3.314
 5182TIP3    H237038   3.565   5.208   3.298
 5183TIP3   OH237039   2.009   1.129   1.644
 5183TIP3    H137040   1.974   1.189   1.710
 5183TIP3    H237041   1.932   1.093   1.601
 5184TIP3   OH237042   0.988   2.264  15.275
 5184TIP3    H137043   1.052   2.198  15.250
 5184TIP3    H237044   0.975   2.316  15.196
 5185TIP3   OH237045   4.894   1.728  15.341
 5185TIP3    H137046   4.977   1.680  15.343
 5185TIP3    H237047   4.881   1.757  15.431
 5186TIP3   OH237048   6.661   2.848   5.198
 5186TIP3    H137049   6.692   2.840   5.108
 5186TIP3    H237050   6.573   2.885   5.190
 5187TIP3   OH237051   0.054   5.507   2.829
 5187TIP3    H137052  -0.021   5.447   2.832
 5187TIP3    H237053   0.104   5.486   2.907
 5188TIP3   OH237054   3.889   2.735   4.971
 5188TIP3    H137055   3.960   2.688   5.016
 5188TIP3    H237056   3.908   2.724   4.878
 5189TIP3   OH237057   0.671   5.492   2.654
 5189TIP3    H137058   0.588   5.516   2.696
 5189TIP3    H237059   0.736   5.496   2.724
 5190TIP3   OH237060   3.038   0.405  12.659
 5190TIP3    H137061   3.066   0.399  12.750
 5190TIP3    H237062   3.072   0.326  12.617
 5191TIP3   OH237063   3.086   3.070   1.329
 5191TIP3    H137064   3.157   3.073   1.394
 5191TIP3    H237065   3.127   3.100   1.248
 5192TIP3   OH237066   3.563   5.062  16.196
 5192TIP3    H137067   3.565   4.967  16.184
 5192TIP3    H237068   3.540   5.074  16.288
 5193TIP3   OH237069   4.077   6.672  10.422
 5193TIP3    H137070   4.113   6.720  10.348
 5193TIP3    H237071   4.092   6.580  10.401
 5194TIP3   OH237072   1.438   5.821  15.323
 5194TIP3    H137073   1.419   5.728  15.312
 5194TIP3    H237074   1.352   5.862  15.335
 5195TIP3   OH237075   6.233   0.682  12.669
 5195TIP3    H137076   6.278   0.706  12.589
 5195TIP3    H237077   6.263   0.593  12.689
 5196TIP3   OH237078   1.581   5.471  13.519
 5196TIP3    H137079   1.539   5.497  13.436
 5196TIP3    H237080   1.541   5.387  13.541
 5197TIP3   OH237081   2.762   1.076   2.773
 5197TIP3    H137082   2.840   1.111   2.730
 5197TIP3    H237083   2.778   0.982   2.779
 5198TIP3   OH237084   0.737   2.237   5.380
 5198TIP3    H137085   0.829   2.243   5.406
 5198TIP3    H237086   0.735   2.273   5.292
 5199TIP3   OH237087   5.179   5.863  15.387
 5199TIP3    H137088   5.190   5.955  15.362
 5199TIP3    H237089   5.099   5.862  15.439
 5200TIP3   OH237090   6.605   4.924   3.809
 5200TIP3    H137091   6.681   4.912   3.866
 5200TIP3    H237092   6.548   4.983   3.858
 5201TIP3   OH237093   1.502   5.676   3.758
 5201TIP3    H137094   1.597   5.686   3.764
 5201TIP3    H237095   1.470   5.705   3.844
 5202TIP3   OH237096   1.635   5.133   0.053
 5202TIP3    H137097   1.564   5.137   0.117
 5202TIP3    H237098   1.714   5.153   0.104
 5203TIP3   OH237099   5.501   1.610   3.111
 5203TIP3    H137100   5.440   1.643   3.177
 5203TIP3    H237101   5.493   1.671   3.037
 5204TIP3   OH237102   2.490   5.486   3.377
 5204TIP3    H137103   2.407   5.532   3.389
 5204TIP3    H237104   2.464   5.395   3.359
 5205TIP3   OH237105   2.819   6.264  13.960
 5205TIP3    H137106   2.780   6.192  13.909
 5205TIP3    H237107   2.867   6.316  13.896
 5206TIP3   OH237108   6.431   2.902  11.882
 5206TIP3    H137109   6.503   2.867  11.934
 5206TIP3    H237110   6.359   2.910  11.944
 5207TIP3   OH237111   3.578   3.160  14.955
 5207TIP3    H137112   3.504   3.183  14.899
 5207TIP3    H237113   3.615   3.082  14.914
 5208TIP3   OH237114   6.123   2.679   0.127
 5208TIP3    H137115   6.118   2.598   0.178
 5208TIP3    H237116   6.033   2.697   0.100
 5209TIP3   OH237117   6.220   2.847  10.472
 5209TIP3    H137118   6.125   2.833  10.473
 5209TIP3    H237119   6.254   2.774  10.420
 5210TIP3   OH237120   1.161   0.941  14.565
 5210TIP3    H137121   1.229   1.008  14.576
 5210TIP3    H237122   1.193   0.886  14.493
 5211TIP3   OH237123   0.736   5.269  15.455
 5211TIP3    H137124   0.698   5.300  15.373
 5211TIP3    H237125   0.795   5.340  15.482
 5212TIP3   OH237126   3.129   6.133  12.945
 5212TIP3    H137127   3.065   6.124  12.874
 5212TIP3    H237128   3.136   6.227  12.960
 5213TIP3   OH237129   1.414   0.162  13.171
 5213TIP3    H137130   1.465   0.122  13.241
 5213TIP3    H237131   1.479   0.188  13.106
 5214TIP3   OH237132   2.351   4.236  15.706
 5214TIP3    H137133   2.441   4.204  15.716
 5214TIP3    H237134   2.304   4.163  15.666
 5215TIP3   OH237135   5.572   4.643  13.821
 5215TIP3    H137136   5.557   4.670  13.731
 5215TIP3    H237137   5.588   4.548  13.815
 5216TIP3   OH237138   0.024   4.906  12.750
 5216TIP3    H137139   0.087   4.949  12.692
 5216TIP3    H237140  -0.031   4.855  12.691
 5217TIP3   OH237141   4.158   3.996   2.464
 5217TIP3    H137142   4.110   3.953   2.393
 5217TIP3    H237143   4.090   4.026   2.525
 5218TIP3   OH237144   1.595   0.681  13.499
 5218TIP3    H137145   1.682   0.713  13.522
 5218TIP3    H237146   1.535   0.746  13.535
 5219TIP3   OH237147   6.689   6.809  13.194
 5219TIP3    H137148   6.598   6.821  13.169
 5219TIP3    H237149   6.728   6.896  13.186
 5220TIP3   OH237150   3.367   2.383   0.822
 5220TIP3    H137151   3.421   2.380   0.742
 5220TIP3    H237152   3.279   2.360   0.791
 5221TIP3   OH237153   4.348   5.535   4.679
 5221TIP3    H137154   4.295   5.511   4.604
 5221TIP3    H237155   4.422   5.475   4.677
 5222TIP3   OH237156   1.712   1.920  17.062
 5222TIP3    H137157   1.804   1.932  17.035
 5222TIP3    H237158   1.714   1.845  17.120
 5223TIP3   OH237159   0.111   0.489   6.008
 5223TIP3    H137160   0.053   0.556   5.972
 5223TIP3    H237161   0.095   0.492   6.103
 5224TIP3   OH237162   4.052   4.929  11.454
 5224TIP3    H137163   4.107   4.950  11.530
 5224TIP3    H237164   4.046   5.011  11.405
 5225TIP3   OH237165   5.762   2.678   4.114
 5225TIP3    H137166   5.831   2.656   4.051
 5225TIP3    H237167   5.753   2.773   4.106
 5226TIP3   OH237168   0.254   2.905   0.464
 5226TIP3    H137169   0.237   2.861   0.547
 5226TIP3    H237170   0.171   2.948   0.443
 5227TIP3   OH237171   4.899   0.773   4.106
 5227TIP3    H137172   4.909   0.861   4.068
 5227TIP3    H237173   4.885   0.716   4.031
 5228TIP3   OH237174   3.529   6.656   5.194
 5228TIP3    H137175   3.565   6.726   5.140
 5228TIP3    H237176   3.605   6.611   5.229
 5229TIP3   OH237177   4.739   6.506   5.439
 5229TIP3    H137178   4.709   6.469   5.521
 5229TIP3    H237179   4.708   6.445   5.372
 5230TIP3   OH237180   3.859   5.438  12.998
 5230TIP3    H137181   3.858   5.499  13.072
 5230TIP3    H237182   3.767   5.429  12.974
 5231TIP3   OH237183   3.958   2.888   1.467
 5231TIP3    H137184   3.989   2.816   1.522
 5231TIP3    H237185   3.895   2.935   1.521
 5232TIP3   OH237186   6.629   1.106  14.486
 5232TIP3    H137187   6.607   1.180  14.542
 5232TIP3    H237188   6.677   1.046  14.543
 5233TIP3   OH237189   6.130   2.725   2.250
 5233TIP3    H137190   6.044   2.711   2.211
 5233TIP3    H237191   6.185   2.753   2.176
 5234TIP3   OH237192   0.933   4.350   5.783
 5234TIP3    H137193   1.029   4.343   5.778
 5234TIP3    H237194   0.915   4.441   5.760
 5235TIP3   OH237195   6.223   6.081  16.663
 5235TIP3    H137196   6.213   5.992  16.698
 5235TIP3    H237197   6.144   6.127  16.691
 5236TIP3   OH237198   5.310   3.884   0.836
 5236TIP3    H137199   5.400   3.854   0.850
 5236TIP3    H237200   5.260   3.805   0.820
 5237TIP3   OH237201   3.353   3.538  11.960
 5237TIP3    H137202   3.418   3.474  11.930
 5237TIP3    H237203   3.394   3.623  11.943
 5238TIP3   OH237204   0.613   0.288  12.532
 5238TIP3    H137205   0.700   0.253  12.509
 5238TIP3    H237206   0.630   0.378  12.561
 5239TIP3   OH237207   1.008   1.124  12.344
 5239TIP3    H137208   1.057   1.175  12.409
 5239TIP3    H237209   0.936   1.085  12.393
 5240TIP3   OH237210   1.161   6.612  12.286
 5240TIP3    H137211   1.089   6.572  12.238
 5240TIP3    H237212   1.145   6.590  12.378
 5241TIP3   OH237213   6.443   1.819   5.466
 5241TIP3    H137214   6.424   1.730   5.436
 5241TIP3    H237215   6.359   1.863   5.467
 5242TIP3   OH237216   6.254   3.203   2.231
 5242TIP3    H137217   6.177   3.145   2.239
 5242TIP3    H237218   6.328   3.145   2.248
 5243TIP3   OH237219   6.467   2.766  16.232
 5243TIP3    H137220   6.437   2.755  16.142
 5243TIP3    H237221   6.508   2.852  16.234
 5244TIP3   OH237222   5.568   3.291  13.565
 5244TIP3    H137223   5.584   3.205  13.526
 5244TIP3    H237224   5.638   3.301  13.629
 5245TIP3   OH237225   0.345   6.657  11.360
 5245TIP3    H137226   0.391   6.578  11.389
 5245TIP3    H237227   0.395   6.686  11.283
 5246TIP3   OH237228   3.821   5.705   4.632
 5246TIP3    H137229   3.885   5.732   4.699
 5246TIP3    H237230   3.797   5.616   4.657
 5247TIP3   OH237231   1.971   4.090   2.991
 5247TIP3    H137232   2.028   4.062   3.063
 5247TIP3    H237233   1.886   4.049   3.010
 5248TIP3   OH237234   6.072   4.253   3.629
 5248TIP3    H137235   6.092   4.260   3.535
 5248TIP3    H237236   5.978   4.236   3.632
 5249TIP3   OH237237   4.521   1.591  12.690
 5249TIP3    H137238   4.599   1.569  12.639
 5249TIP3    H237239   4.522   1.529  12.763
 5250TIP3   OH237240   4.129   2.970   3.095
 5250TIP3    H137241   4.188   2.971   3.170
 5250TIP3    H237242   4.182   3.001   3.021
 5251TIP3   OH237243   5.139   6.616   4.813
 5251TIP3    H137244   5.154   6.587   4.723
 5251TIP3    H237245   5.060   6.571   4.841
 5252TIP3   OH237246   4.914   4.800   6.106
 5252TIP3    H137247   4.850   4.871   6.107
 5252TIP3    H237248   4.862   4.720   6.099
 5253TIP3   OH237249   6.713   3.312  12.250
 5253TIP3    H137250   6.785   3.313  12.313
 5253TIP3    H237251   6.667   3.395  12.263
 5254TIP3   OH237252   1.744   0.191   2.074
 5254TIP3    H137253   1.756   0.097   2.084
 5254TIP3    H237254   1.831   0.225   2.052
 5255TIP3   OH237255   0.266   3.480  16.273
 5255TIP3    H137256   0.225   3.438  16.348
 5255TIP3    H237257   0.296   3.408  16.218
 5256TIP3   OH237258   2.127   4.212   3.614
 5256TIP3    H137259   2.106   4.283   3.675
 5256TIP3    H237260   2.203   4.170   3.653
 5257TIP3   OH237261   4.344   3.073  11.542
 5257TIP3    H137262   4.382   2.994  11.503
 5257TIP3    H237263   4.354   3.140  11.475
 5258TIP3   OH237264   6.548   0.232  16.748
 5258TIP3    H137265   6.541   0.156  16.806
 5258TIP3    H237266   6.606   0.202  16.677
 5259TIP3   OH237267   5.569   4.406   3.510
 5259TIP3    H137268   5.599   4.393   3.420
 5259TIP3    H237269   5.480   4.372   3.510
 5260TIP3   OH237270   2.505   5.131   4.816
 5260TIP3    H137271   2.420   5.170   4.801
 5260TIP3    H237272   2.486   5.042   4.847
 5261TIP3   OH237273   1.357   5.774   5.889
 5261TIP3    H137274   1.316   5.734   5.967
 5261TIP3    H237275   1.339   5.711   5.819
 5262TIP3   OH237276   2.895   0.276   2.248
 5262TIP3    H137277   2.850   0.337   2.190
 5262TIP3    H237278   2.940   0.331   2.311
 5263TIP3   OH237279   5.386   4.395   2.544
 5263TIP3    H137280   5.350   4.483   2.552
 5263TIP3    H237281   5.398   4.382   2.450
 5264TIP3   OH237282   0.804   6.733   5.478
 5264TIP3    H137283   0.742   6.676   5.433
 5264TIP3    H237284   0.778   6.730   5.570
 5265TIP3   OH237285   2.022   2.450   5.293
 5265TIP3    H137286   2.090   2.502   5.251
 5265TIP3    H237287   2.040   2.456   5.387
 5266TIP3   OH237288   0.314   4.175  14.448
 5266TIP3    H137289   0.349   4.127  14.523
 5266TIP3    H237290   0.325   4.115  14.375
 5267TIP3   OH237291   3.106   6.261   6.137
 5267TIP3    H137292   3.185   6.312   6.155
 5267TIP3    H237293   3.081   6.224   6.222
 5268TIP3   OH237294   4.958   3.925  13.485
 5268TIP3    H137295   4.864   3.914  13.499
 5268TIP3    H237296   4.990   3.961  13.568
 5269TIP3   OH237297   4.090   5.871  12.362
 5269TIP3    H137298   4.081   5.794  12.305
 5269TIP3    H237299   4.033   5.937  12.323
 5270TIP3   OH237300   4.944   2.444  14.322
 5270TIP3    H137301   4.974   2.487  14.242
 5270TIP3    H237302   5.018   2.392  14.350
 5271TIP3   OH237303   4.718   5.103  15.553
 5271TIP3    H137304   4.657   5.032  15.573
 5271TIP3    H237305   4.789   5.091  15.616
 5272TIP3   OH237306   0.191   1.790   3.734
 5272TIP3    H137307   0.129   1.798   3.807
 5272TIP3    H237308   0.172   1.705   3.695
 5273TIP3   OH237309   0.284   3.774  14.317
 5273TIP3    H137310   0.319   3.720  14.246
 5273TIP3    H237311   0.358   3.828  14.346
 5274TIP3   OH237312   1.168   6.453   4.978
 5274TIP3    H137313   1.244   6.456   5.036
 5274TIP3    H237314   1.093   6.456   5.037
 5275TIP3   OH237315   1.142   3.816   2.853
 5275TIP3    H137316   1.173   3.788   2.939
 5275TIP3    H237317   1.217   3.860   2.814
 5276TIP3   OH237318   6.291   4.002   2.727
 5276TIP3    H137319   6.249   4.039   2.805
 5276TIP3    H237320   6.335   3.923   2.759
 5277TIP3   OH237321   6.066   1.614   6.460
 5277TIP3    H137322   5.995   1.583   6.517
 5277TIP3    H237323   6.123   1.538   6.449
 5278TIP3   OH237324   5.117   6.403  15.258
 5278TIP3    H137325   5.151   6.490  15.276
 5278TIP3    H237326   5.180   6.364  15.197
 5279TIP3   OH237327   4.854   4.372  17.100
 5279TIP3    H137328   4.841   4.287  17.058
 5279TIP3    H237329   4.900   4.425  17.034
 5280TIP3   OH237330   5.605   4.149   0.838
 5280TIP3    H137331   5.563   4.196   0.910
 5280TIP3    H237332   5.677   4.206   0.811
 5281TIP3   OH237333   2.234   0.016  16.036
 5281TIP3    H137334   2.319   0.005  15.993
 5281TIP3    H237335   2.252  -0.004  16.128
 5282TIP3   OH237336   4.307   4.159   4.128
 5282TIP3    H137337   4.290   4.188   4.218
 5282TIP3    H237338   4.266   4.073   4.123
 5283TIP3   OH237339   3.448   3.158  13.457
 5283TIP3    H137340   3.436   3.240  13.506
 5283TIP3    H237341   3.477   3.095  13.523
 5284TIP3   OH237342   3.882   4.336   1.380
 5284TIP3    H137343   3.877   4.311   1.472
 5284TIP3    H237344   3.799   4.307   1.342
 5285TIP3   OH237345   6.621   1.428  14.426
 5285TIP3    H137346   6.638   1.519  14.402
 5285TIP3    H237347   6.701   1.400  14.472
 5286TIP3   OH237348   4.908   1.763  14.113
 5286TIP3    H137349   4.976   1.709  14.154
 5286TIP3    H237350   4.891   1.833  14.176
 5287TIP3   OH237351   3.946   1.041   1.252
 5287TIP3    H137352   3.915   0.962   1.209
 5287TIP3    H237353   3.902   1.112   1.206
 5288TIP3   OH237354   0.304   4.792   4.980
 5288TIP3    H137355   0.279   4.798   4.888
 5288TIP3    H237356   0.222   4.803   5.029
 5289TIP3   OH237357   4.332   2.048   5.446
 5289TIP3    H137358   4.428   2.052   5.446
 5289TIP3    H237359   4.305   2.119   5.388
 5290TIP3   OH237360   5.870   6.314   3.551
 5290TIP3    H137361   5.774   6.314   3.544
 5290TIP3    H237362   5.887   6.316   3.645
 5291TIP3   OH237363   2.357   0.720  13.553
 5291TIP3    H137364   2.290   0.697  13.617
 5291TIP3    H237365   2.415   0.780  13.599
 5292TIP3   OH237366   5.794   1.242   1.092
 5292TIP3    H137367   5.873   1.280   1.053
 5292TIP3    H237368   5.750   1.316   1.134
 5293TIP3   OH237369   3.134   4.754  13.228
 5293TIP3    H137370   3.198   4.685  13.247
 5293TIP3    H237371   3.065   4.741  13.293
 5294TIP3   OH237372   0.856   2.122   2.759
 5294TIP3    H137373   0.840   2.214   2.777
 5294TIP3    H237374   0.935   2.121   2.705
 5295TIP3   OH237375   6.596   4.750  17.288
 5295TIP3    H137376   6.522   4.694  17.310
 5295TIP3    H237377   6.634   4.710  17.210
 5296TIP3   OH237378   4.110   5.949   1.966
 5296TIP3    H137379   4.137   6.041   1.963
 5296TIP3    H237380   4.051   5.944   2.042
 5297TIP3   OH237381   0.226   0.884   6.054
 5297TIP3    H137382   0.160   0.861   5.988
 5297TIP3    H237383   0.206   0.827   6.129
 5298TIP3   OH237384   5.929   6.118   2.274
 5298TIP3    H137385   5.857   6.062   2.245
 5298TIP3    H237386   5.997   6.057   2.304
 5299TIP3   OH237387   3.974   1.553  15.001
 5299TIP3    H137388   3.895   1.562  14.948
 5299TIP3    H237389   4.044   1.585  14.945
 5300TIP3   OH237390   1.948   5.768   0.373
 5300TIP3    H137391   2.007   5.744   0.444
 5300TIP3    H237392   1.941   5.689   0.320
 5301TIP3   OH237393   6.131   0.543   0.433
 5301TIP3    H137394   6.063   0.495   0.479
 5301TIP3    H237395   6.128   0.509   0.343
 5302TIP3   OH237396   4.051   2.254  13.630
 5302TIP3    H137397   3.959   2.277  13.638
 5302TIP3    H237398   4.086   2.265  13.718
 5303TIP3   OH237399   2.561   0.030   4.813
 5303TIP3    H137400   2.652   0.012   4.787
 5303TIP3    H237401   2.563   0.120   4.846
 5304TIP3   OH237402   3.721   3.592   3.641
 5304TIP3    H137403   3.752   3.508   3.676
 5304TIP3    H237404   3.679   3.635   3.716
 5305TIP3   OH237405   0.412   2.795   4.247
 5305TIP3    H137406   0.508   2.797   4.247
 5305TIP3    H237407   0.388   2.797   4.339
 5306TIP3   OH237408   1.416   2.052  12.256
 5306TIP3    H137409   1.349   1.994  12.219
 5306TIP3    H237410   1.419   2.126  12.196
 5307TIP3   OH237411   0.762   4.519   4.424
 5307TIP3    H137412   0.799   4.430   4.427
 5307TIP3    H237413   0.680   4.513   4.473
 5308TIP3   OH237414   4.751   5.645  15.800
 5308TIP3    H137415   4.671   5.594  15.790
 5308TIP3    H237416   4.751   5.673  15.891
 5309TIP3   OH237417   6.041   1.852   4.350
 5309TIP3    H137418   6.112   1.789   4.360
 5309TIP3    H237419   5.972   1.820   4.408
 5310TIP3   OH237420   0.162   1.366   1.048
 5310TIP3    H137421   0.083   1.315   1.063
 5310TIP3    H237422   0.132   1.443   1.000
 5311TIP3   OH237423   1.152   4.394  12.354
 5311TIP3    H137424   1.056   4.398  12.360
 5311TIP3    H237425   1.176   4.319  12.409
 5312TIP3   OH237426   4.999   1.292  11.503
 5312TIP3    H137427   4.907   1.266  11.497
 5312TIP3    H237428   5.005   1.341  11.585
 5313TIP3   OH237429   3.778   1.704   4.291
 5313TIP3    H137430   3.739   1.697   4.379
 5313TIP3    H237431   3.741   1.785   4.255
 5314TIP3   OH237432   2.257   4.032  15.589
 5314TIP3    H137433   2.300   3.949  15.607
 5314TIP3    H237434   2.294   4.061  15.506
 5315TIP3   OH237435   5.463   4.936   2.624
 5315TIP3    H137436   5.388   4.885   2.656
 5315TIP3    H237437   5.426   4.999   2.563
 5316TIP3   OH237438   5.508   0.280  16.513
 5316TIP3    H137439   5.482   0.310  16.600
 5316TIP3    H237440   5.505   0.185  16.518
 5317TIP3   OH237441   1.690   4.220  15.756
 5317TIP3    H137442   1.785   4.208  15.757
 5317TIP3    H237443   1.659   4.180  15.837
 5318TIP3   OH237444   5.094   2.744   0.921
 5318TIP3    H137445   5.184   2.773   0.939
 5318TIP3    H237446   5.081   2.670   0.980
 5319TIP3   OH237447   0.112   0.044  11.662
 5319TIP3    H137448   0.089   0.042  11.569
 5319TIP3    H237449   0.132  -0.047  11.684
 5320TIP3   OH237450   6.393   6.335   2.647
 5320TIP3    H137451   6.353   6.359   2.730
 5320TIP3    H237452   6.368   6.244   2.634
 5321TIP3   OH237453   5.642   5.645  15.511
 5321TIP3    H137454   5.622   5.590  15.587
 5321TIP3    H237455   5.556   5.662  15.471
 5322TIP3   OH237456   3.217   3.972  16.077
 5322TIP3    H137457   3.225   3.926  15.994
 5322TIP3    H237458   3.128   3.955  16.106
 5323TIP3   OH237459   4.703   5.891  15.646
 5323TIP3    H137460   4.696   5.825  15.716
 5323TIP3    H237461   4.684   5.842  15.566
 5324TIP3   OH237462   2.798   1.019  12.982
 5324TIP3    H137463   2.703   1.021  12.996
 5324TIP3    H237464   2.810   0.958  12.909
 5325TIP3   OH237465   0.645   1.976   5.435
 5325TIP3    H137466   0.694   2.058   5.432
 5325TIP3    H237467   0.571   1.989   5.375
 5326TIP3   OH237468   3.291   1.100   1.409
 5326TIP3    H137469   3.225   1.047   1.365
 5326TIP3    H237470   3.256   1.115   1.497
 5327TIP3   OH237471   2.964   0.615  16.895
 5327TIP3    H137472   2.927   0.533  16.862
 5327TIP3    H237473   2.902   0.682  16.866
 5328TIP3   OH237474   0.192   1.757   1.248
 5328TIP3    H137475   0.199   1.662   1.240
 5328TIP3    H237476   0.230   1.778   1.333
 5329TIP3   OH237477   4.752   3.952   2.801
 5329TIP3    H137478   4.778   3.886   2.865
 5329TIP3    H237479   4.813   3.940   2.728
 5330TIP3   OH237480   4.705   4.281  14.280
 5330TIP3    H137481   4.707   4.214  14.211
 5330TIP3    H237482   4.794   4.315  14.282
 5331TIP3   OH237483   4.801   6.658  15.350
 5331TIP3    H137484   4.776   6.677  15.440
 5331TIP3    H237485   4.724   6.683  15.298
 5332TIP3   OH237486   4.601   3.651   3.621
 5332TIP3    H137487   4.590   3.699   3.539
 5332TIP3    H237488   4.514   3.617   3.642
 5333TIP3   OH237489   1.239   4.790  17.285
 5333TIP3    H137490   1.246   4.707  17.238
 5333TIP3    H237491   1.276   4.773  17.371
 5334TIP3   OH237492   1.630   4.057   1.250
 5334TIP3    H137493   1.581   3.993   1.300
 5334TIP3    H237494   1.631   4.135   1.305
 5335TIP3   OH237495   4.734   0.394   1.441
 5335TIP3    H137496   4.724   0.465   1.377
 5335TIP3    H237497   4.667   0.413   1.508
 5336TIP3   OH237498   3.837   6.814  11.344
 5336TIP3    H137499   3.881   6.797  11.427
 5336TIP3    H237500   3.881   6.756  11.281
 5337TIP3   OH237501   3.788   3.331   4.416
 5337TIP3    H137502   3.832   3.275   4.481
 5337TIP3    H237503   3.703   3.351   4.457
 5338TIP3   OH237504   0.862   4.278   3.269
 5338TIP3    H137505   0.825   4.359   3.305
 5338TIP3    H237506   0.949   4.303   3.239
 5339TIP3   OH237507   1.160   5.485   0.407
 5339TIP3    H137508   1.104   5.562   0.417
 5339TIP3    H237509   1.155   5.464   0.314
 5340TIP3   OH237510   2.470   5.039  16.235
 5340TIP3    H137511   2.492   5.096  16.308
 5340TIP3    H237512   2.508   5.083  16.159
 5341TIP3   OH237513   2.351   0.208   6.602
 5341TIP3    H137514   2.417   0.213   6.672
 5341TIP3    H237515   2.268   0.203   6.648
 5342TIP3   OH237516   5.977   0.300  14.622
 5342TIP3    H137517   6.040   0.372  14.619
 5342TIP3    H237518   6.028   0.225  14.653
 5343TIP3   OH237519   1.705   5.980  13.152
 5343TIP3    H137520   1.674   6.015  13.236
 5343TIP3    H237521   1.641   6.012  13.088
 5344TIP3   OH237522   6.468   3.610   6.568
 5344TIP3    H137523   6.409   3.655   6.507
 5344TIP3    H237524   6.458   3.517   6.547
 5345TIP3   OH237525   3.099   6.706  11.669
 5345TIP3    H137526   3.182   6.718  11.623
 5345TIP3    H237527   3.068   6.795  11.686
 5346TIP3   OH237528   3.510   3.486  10.742
 5346TIP3    H137529   3.567   3.422  10.701
 5346TIP3    H237530   3.470   3.534  10.670
 5347TIP3   OH237531   2.138   6.352  15.249
 5347TIP3    H137532   2.046   6.335  15.269
 5347TIP3    H237533   2.147   6.447  15.260
 5348TIP3   OH237534   1.169   1.485  17.108
 5348TIP3    H137535   1.239   1.501  17.171
 5348TIP3    H237536   1.097   1.539  17.138
 5349TIP3   OH237537   2.363   1.124  12.227
 5349TIP3    H137538   2.405   1.084  12.303
 5349TIP3    H237539   2.342   1.050  12.170
 5350TIP3   OH237540   3.658   4.918  10.908
 5350TIP3    H137541   3.675   4.958  10.993
 5350TIP3    H237542   3.587   4.971  10.870
 5351TIP3   OH237543   4.532   0.506  13.128
 5351TIP3    H137544   4.514   0.600  13.124
 5351TIP3    H237545   4.545   0.488  13.221
 5352TIP3   OH237546   3.808   4.969   2.467
 5352TIP3    H137547   3.730   4.931   2.427
 5352TIP3    H237548   3.776   5.015   2.545
 5353TIP3   OH237549   3.406   2.946   1.377
 5353TIP3    H137550   3.408   2.867   1.323
 5353TIP3    H237551   3.374   2.917   1.462
 5354TIP3   OH237552   3.100   0.607  13.168
 5354TIP3    H137553   3.139   0.686  13.206
 5354TIP3    H237554   3.034   0.639  13.107
 5355TIP3   OH237555   5.029   0.839  13.731
 5355TIP3    H137556   5.089   0.778  13.688
 5355TIP3    H237557   5.006   0.902  13.663
 5356TIP3   OH237558   4.529   5.378   4.925
 5356TIP3    H137559   4.505   5.425   5.005
 5356TIP3    H237560   4.458   5.397   4.864
 5357TIP3   OH237561   1.082   6.487   2.171
 5357TIP3    H137562   1.118   6.561   2.220
 5357TIP3    H237563   0.987   6.493   2.185
 5358TIP3   OH237564   3.848   1.741   5.751
 5358TIP3    H137565   3.872   1.659   5.795
 5358TIP3    H237566   3.756   1.754   5.772
 5359TIP3   OH237567   0.826   4.062  13.852
 5359TIP3    H137568   0.893   4.088  13.916
 5359TIP3    H237569   0.776   4.142  13.836
 5360TIP3   OH237570   4.106   1.057  15.155
 5360TIP3    H137571   4.036   1.120  15.140
 5360TIP3    H237572   4.133   1.072  15.246
 5361TIP3   OH237573   0.301   2.298  16.948
 5361TIP3    H137574   0.373   2.260  16.999
 5361TIP3    H237575   0.282   2.232  16.881
 5362TIP3   OH237576   6.362   0.117   2.781
 5362TIP3    H137577   6.404   0.127   2.866
 5362TIP3    H237578   6.397   0.188   2.728
 5363TIP3   OH237579   2.498   5.357  15.022
 5363TIP3    H137580   2.417   5.389  15.062
 5363TIP3    H237581   2.549   5.436  15.005
 5364TIP3   OH237582   2.505   5.723   0.504
 5364TIP3    H137583   2.455   5.794   0.466
 5364TIP3    H237584   2.540   5.759   0.586
 5365TIP3   OH237585   2.089   2.784  11.740
 5365TIP3    H137586   2.030   2.836  11.794
 5365TIP3    H237587   2.039   2.705  11.719
 5366TIP3   OH237588   5.314   5.139   3.804
 5366TIP3    H137589   5.225   5.173   3.801
 5366TIP3    H237590   5.321   5.082   3.727
 5367TIP3   OH237591   2.738   0.307   3.832
 5367TIP3    H137592   2.721   0.341   3.744
 5367TIP3    H237593   2.833   0.307   3.839
 5368TIP3   OH237594   5.184   3.348   5.055
 5368TIP3    H137595   5.178   3.291   5.132
 5368TIP3    H237596   5.241   3.420   5.083
 5369TIP3   OH237597   3.752   1.404   4.703
 5369TIP3    H137598   3.704   1.482   4.729
 5369TIP3    H237599   3.815   1.389   4.774
 5370TIP3   OH237600   3.601   1.160   3.098
 5370TIP3    H137601   3.574   1.188   3.186
 5370TIP3    H237602   3.626   1.242   3.055
 5371TIP3   OH237603   0.057   4.104   5.128
 5371TIP3    H137604   0.056   4.069   5.217
 5371TIP3    H237605   0.069   4.027   5.073
 5372TIP3   OH237606   1.879   3.293  14.961
 5372TIP3    H137607   1.931   3.222  14.925
 5372TIP3    H237608   1.788   3.265  14.948
 5373TIP3   OH237609   1.127   1.870   1.468
 5373TIP3    H137610   1.102   1.847   1.557
 5373TIP3    H237611   1.158   1.960   1.474
 5374TIP3   OH237612   4.025   0.678  12.552
 5374TIP3    H137613   4.078   0.644  12.480
 5374TIP3    H237614   4.089   0.710  12.616
 5375TIP3   OH237615   5.298   2.318  14.500
 5375TIP3    H137616   5.336   2.230  14.504
 5375TIP3    H237617   5.273   2.338  14.590
 5376TIP3   OH237618   2.526   0.034   4.409
 5376TIP3    H137619   2.515   0.119   4.451
 5376TIP3    H237620   2.452  -0.019   4.439
 5377TIP3   OH237621   4.478   4.874   1.759
 5377TIP3    H137622   4.435   4.816   1.822
 5377TIP3    H237623   4.570   4.849   1.763
 5378TIP3   OH237624   5.142   1.527   6.188
 5378TIP3    H137625   5.112   1.613   6.217
 5378TIP3    H237626   5.096   1.465   6.245
 5379TIP3   OH237627   6.751   2.541   5.099
 5379TIP3    H137628   6.695   2.515   5.172
 5379TIP3    H237629   6.761   2.635   5.108
 5380TIP3   OH237630   5.553   0.778   0.884
 5380TIP3    H137631   5.533   0.732   0.803
 5380TIP3    H237632   5.555   0.871   0.859
 5381TIP3   OH237633   4.370   2.091  14.742
 5381TIP3    H137634   4.283   2.133  14.740
 5381TIP3    H237635   4.411   2.117  14.659
 5382TIP3   OH237636   2.354   3.688   2.018
 5382TIP3    H137637   2.393   3.603   2.037
 5382TIP3    H237638   2.422   3.752   2.041
 5383TIP3   OH237639   1.994   5.515   1.259
 5383TIP3    H137640   1.917   5.531   1.204
 5383TIP3    H237641   1.980   5.571   1.336
 5384TIP3   OH237642   5.260   4.286   1.444
 5384TIP3    H137643   5.195   4.317   1.381
 5384TIP3    H237644   5.219   4.212   1.488
 5385TIP3   OH237645   6.242   2.511  12.905
 5385TIP3    H137646   6.308   2.456  12.947
 5385TIP3    H237647   6.283   2.597  12.897
 5386TIP3   OH237648   4.226   2.442  12.171
 5386TIP3    H137649   4.278   2.403  12.241
 5386TIP3    H237650   4.289   2.489  12.116
 5387TIP3   OH237651   0.569   5.473   1.277
 5387TIP3    H137652   0.508   5.447   1.207
 5387TIP3    H237653   0.513   5.498   1.350
 5388TIP3   OH237654   6.765   0.143   1.438
 5388TIP3    H137655   6.859   0.156   1.452
 5388TIP3    H237656   6.728   0.143   1.526
 5389TIP3   OH237657   1.300   0.488   0.105
 5389TIP3    H137658   1.359   0.429   0.151
 5389TIP3    H237659   1.225   0.434   0.082
 5390TIP3   OH237660   2.890   5.136  16.817
 5390TIP3    H137661   2.846   5.057  16.848
 5390TIP3    H237662   2.854   5.206  16.872
 5391TIP3   OH237663   0.982   2.911   2.272
 5391TIP3    H137664   0.921   2.842   2.250
 5391TIP3    H237665   1.069   2.872   2.260
 5392TIP3   OH237666   5.063   6.057  11.335
 5392TIP3    H137667   4.998   6.119  11.302
 5392TIP3    H237668   5.011   5.986  11.374
 5393TIP3   OH237669   4.148   1.815   3.112
 5393TIP3    H137670   4.236   1.851   3.111
 5393TIP3    H237671   4.160   1.721   3.127
 5394TIP3   OH237672   6.560   5.924  15.109
 5394TIP3    H137673   6.572   5.830  15.123
 5394TIP3    H237674   6.534   5.958  15.195
 5395TIP3   OH237675   5.565   3.180   4.499
 5395TIP3    H137676   5.619   3.189   4.420
 5395TIP3    H237677   5.629   3.178   4.571
 5396TIP3   OH237678   2.156   6.657  15.283
 5396TIP3    H137679   2.240   6.683  15.245
 5396TIP3    H237680   2.120   6.738  15.319
 5397TIP3   OH237681   1.576   5.235   5.463
 5397TIP3    H137682   1.672   5.234   5.462
 5397TIP3    H237683   1.554   5.318   5.505
 5398TIP3   OH237684   6.760   6.281  11.204
 5398TIP3    H137685   6.829   6.305  11.266
 5398TIP3    H237686   6.802   6.284  11.118
 5399TIP3   OH237687   3.165   3.881  11.438
 5399TIP3    H137688   3.192   3.790  11.441
 5399TIP3    H237689   3.070   3.879  11.454
 5400TIP3   OH237690   1.127   5.702  12.584
 5400TIP3    H137691   1.143   5.790  12.551
 5400TIP3    H237692   1.183   5.645  12.531
 5401TIP3   OH237693   5.638   0.299  14.278
 5401TIP3    H137694   5.604   0.257  14.199
 5401TIP3    H237695   5.562   0.306  14.336
 5402TIP3   OH237696   0.525   2.231  11.130
 5402TIP3    H137697   0.447   2.275  11.165
 5402TIP3    H237698   0.559   2.291  11.063
 5403TIP3   OH237699   2.159   3.193   3.759
 5403TIP3    H137700   2.215   3.254   3.711
 5403TIP3    H237701   2.186   3.202   3.850
 5404TIP3   OH237702   4.385   0.230   2.891
 5404TIP3    H137703   4.470   0.266   2.866
 5404TIP3    H237704   4.331   0.306   2.911
 5405TIP3   OH237705   2.255   4.965  13.140
 5405TIP3    H137706   2.262   4.920  13.224
 5405TIP3    H237707   2.161   4.979  13.129
 5406TIP3   OH237708   3.462   2.102  11.779
 5406TIP3    H137709   3.421   2.016  11.771
 5406TIP3    H237710   3.396   2.163  11.745
 5407TIP3   OH237711   5.645   1.106  16.517
 5407TIP3    H137712   5.667   1.024  16.472
 5407TIP3    H237713   5.703   1.108  16.593
 5408TIP3   OH237714   3.007   0.516  17.205
 5408TIP3    H137715   3.030   0.525  17.112
 5408TIP3    H237716   2.913   0.532  17.208
 5409TIP3   OH237717   0.308   4.314   4.398
 5409TIP3    H137718   0.387   4.319   4.345
 5409TIP3    H237719   0.328   4.250   4.466
 5410TIP3   OH237720   2.900   2.627   6.576
 5410TIP3    H137721   2.906   2.532   6.590
 5410TIP3    H237722   2.811   2.641   6.543
 5411TIP3   OH237723   5.490   2.352   2.355
 5411TIP3    H137724   5.435   2.338   2.279
 5411TIP3    H237725   5.460   2.436   2.391
 5412TIP3   OH237726   2.571   6.510   4.983
 5412TIP3    H137727   2.555   6.601   5.008
 5412TIP3    H237728   2.556   6.460   5.063
 5413TIP3   OH237729   0.557   2.830   3.131
 5413TIP3    H137730   0.538   2.837   3.037
 5413TIP3    H237731   0.504   2.898   3.171
 5414TIP3   OH237732   0.235   6.452  11.837
 5414TIP3    H137733   0.316   6.409  11.809
 5414TIP3    H237734   0.215   6.514  11.766
 5415TIP3   OH237735   1.789   2.531   1.209
 5415TIP3    H137736   1.698   2.513   1.187
 5415TIP3    H237737   1.796   2.626   1.206
 5416TIP3   OH237738   5.750   6.509   4.776
 5416TIP3    H137739   5.834   6.464   4.768
 5416TIP3    H237740   5.735   6.548   4.689
 5417TIP3   OH237741   6.820   1.835  14.253
 5417TIP3    H137742   6.834   1.928  14.270
 5417TIP3    H237743   6.741   1.832  14.198
 5418TIP3   OH237744   6.418   0.243   0.307
 5418TIP3    H137745   6.503   0.252   0.350
 5418TIP3    H237746   6.422   0.304   0.233
 5419TIP3   OH237747   4.124   5.767  13.212
 5419TIP3    H137748   4.211   5.733  13.193
 5419TIP3    H237749   4.090   5.793  13.126
 5420TIP3   OH237750   0.182   0.445   0.340
 5420TIP3    H137751   0.253   0.443   0.277
 5420TIP3    H237752   0.153   0.354   0.347
 5421TIP3   OH237753   2.944   2.675   4.498
 5421TIP3    H137754   2.992   2.645   4.421
 5421TIP3    H237755   2.865   2.620   4.500
 5422TIP3   OH237756   4.425   4.033   0.780
 5422TIP3    H137757   4.452   3.969   0.715
 5422TIP3    H237758   4.363   3.986   0.837
 5423TIP3   OH237759   5.985   5.315   1.676
 5423TIP3    H137760   5.963   5.223   1.660
 5423TIP3    H237761   6.080   5.316   1.684
 5424TIP3   OH237762   0.309   0.913   6.710
 5424TIP3    H137763   0.314   0.820   6.732
 5424TIP3    H237764   0.307   0.957   6.795
 5425TIP3   OH237765   2.853   2.206   0.235
 5425TIP3    H137766   2.911   2.239   0.167
 5425TIP3    H237767   2.790   2.277   0.249
 5426TIP3   OH237768   6.594   0.934   4.535
 5426TIP3    H137769   6.619   0.903   4.623
 5426TIP3    H237770   6.501   0.913   4.528
 5427TIP3   OH237771   5.364   0.006  14.912
 5427TIP3    H137772   5.333   0.070  14.976
 5427TIP3    H237773   5.287  -0.017  14.860
 5428TIP3   OH237774   3.611   1.929   3.197
 5428TIP3    H137775   3.569   1.954   3.279
 5428TIP3    H237776   3.631   2.013   3.154
 5429TIP3   OH237777   3.769   6.490  13.964
 5429TIP3    H137778   3.742   6.425  13.899
 5429TIP3    H237779   3.713   6.566  13.948
 5430TIP3   OH237780   6.200   3.606  12.071
 5430TIP3    H137781   6.272   3.598  12.008
 5430TIP3    H237782   6.166   3.517  12.079
 5431TIP3   OH237783   3.291   4.601  15.418
 5431TIP3    H137784   3.373   4.602  15.368
 5431TIP3    H237785   3.224   4.623  15.353
 5432TIP3   OH237786   3.989   2.788  15.419
 5432TIP3    H137787   4.037   2.779  15.337
 5432TIP3    H237788   4.051   2.828  15.480
 5433TIP3   OH237789   4.170   5.307   4.916
 5433TIP3    H137790   4.134   5.233   4.964
 5433TIP3    H237791   4.230   5.268   4.852
 5434TIP3   OH237792   3.496   3.996   5.164
 5434TIP3    H137793   3.546   3.922   5.131
 5434TIP3    H237794   3.446   3.960   5.238
 5435TIP3   OH237795   1.058   6.167   2.573
 5435TIP3    H137796   1.079   6.111   2.498
 5435TIP3    H237797   1.051   6.255   2.536
 5436TIP3   OH237798   1.510   4.149  16.368
 5436TIP3    H137799   1.444   4.217  16.384
 5436TIP3    H237800   1.476   4.100  16.293
 5437TIP3   OH237801   3.976   3.124  14.087
 5437TIP3    H137802   3.987   3.031  14.070
 5437TIP3    H237803   3.883   3.134  14.110
 5438TIP3   OH237804   0.028   4.395  11.469
 5438TIP3    H137805  -0.046   4.374  11.411
 5438TIP3    H237806   0.104   4.395  11.412
 5439TIP3   OH237807   4.089   4.548   5.261
 5439TIP3    H137808   4.043   4.571   5.180
 5439TIP3    H237809   4.181   4.568   5.241
 5440TIP3   OH237810   2.466   2.279  11.946
 5440TIP3    H137811   2.416   2.302  11.867
 5440TIP3    H237812   2.551   2.251  11.913
 5441TIP3   OH237813   3.474   2.773  13.709
 5441TIP3    H137814   3.558   2.807  13.677
 5441TIP3    H237815   3.415   2.779  13.633
 5442TIP3   OH237816   4.294   0.184  10.922
 5442TIP3    H137817   4.388   0.203  10.928
 5442TIP3    H237818   4.257   0.261  10.878
 5443TIP3   OH237819   4.592   3.052   5.481
 5443TIP3    H137820   4.665   3.091   5.529
 5443TIP3    H237821   4.538   3.010   5.548
 5444TIP3   OH237822   3.038   2.234  11.863
 5444TIP3    H137823   3.037   2.144  11.895
 5444TIP3    H237824   3.007   2.287  11.936
 5445TIP3   OH237825   4.772   0.222  16.626
 5445TIP3    H137826   4.710   0.191  16.691
 5445TIP3    H237827   4.721   0.282  16.571
 5446TIP3   OH237828   2.463   1.867   5.432
 5446TIP3    H137829   2.370   1.869   5.455
 5446TIP3    H237830   2.496   1.787   5.473
 5447TIP3   OH237831   1.818   4.883   4.196
 5447TIP3    H137832   1.808   4.808   4.138
 5447TIP3    H237833   1.730   4.902   4.227
 5448TIP3   OH237834   0.733   4.088  14.496
 5448TIP3    H137835   0.766   4.178  14.498
 5448TIP3    H237836   0.810   4.035  14.479
 5449TIP3   OH237837   5.725   2.281  16.683
 5449TIP3    H137838   5.637   2.299  16.717
 5449TIP3    H237839   5.714   2.282  16.588
 5450TIP3   OH237840   2.838   2.776  11.515
 5450TIP3    H137841   2.746   2.800  11.504
 5450TIP3    H237842   2.854   2.785  11.609
 5451TIP3   OH237843   5.923   0.304  11.846
 5451TIP3    H137844   5.885   0.384  11.810
 5451TIP3    H237845   6.012   0.302  11.812
 5452TIP3   OH237846   4.592   6.804   1.631
 5452TIP3    H137847   4.526   6.743   1.597
 5452TIP3    H237848   4.626   6.848   1.553
 5453TIP3   OH237849   6.368   3.862  13.821
 5453TIP3    H137850   6.394   3.813  13.743
 5453TIP3    H237851   6.423   3.826  13.891
 5454TIP3   OH237852   6.112   6.392  13.649
 5454TIP3    H137853   6.151   6.416  13.566
 5454TIP3    H237854   6.097   6.475  13.694
 5455TIP3   OH237855   2.426   2.592  13.129
 5455TIP3    H137856   2.392   2.652  13.196
 5455TIP3    H237857   2.418   2.640  13.047
 5456TIP3   OH237858   1.652   4.474   4.296
 5456TIP3    H137859   1.599   4.448   4.371
 5456TIP3    H237860   1.702   4.395   4.273
 5457TIP3   OH237861   1.800   5.871  10.644
 5457TIP3    H137862   1.847   5.897  10.564
 5457TIP3    H237863   1.771   5.953  10.682
 5458TIP3   OH237864   4.462   4.309   5.773
 5458TIP3    H137865   4.425   4.279   5.690
 5458TIP3    H237866   4.401   4.277   5.839
 5459TIP3   OH237867   0.135   0.791  11.843
 5459TIP3    H137868   0.153   0.755  11.756
 5459TIP3    H237869   0.206   0.759  11.898
 5460TIP3   OH237870   0.380   1.911   0.902
 5460TIP3    H137871   0.337   1.842   0.851
 5460TIP3    H237872   0.464   1.924   0.859
 5461TIP3   OH237873   0.917   6.494  15.950
 5461TIP3    H137874   0.873   6.524  16.029
 5461TIP3    H237875   0.847   6.480  15.887
 5462TIP3   OH237876   1.114   2.340   5.160
 5462TIP3    H137877   1.200   2.376   5.139
 5462TIP3    H237878   1.063   2.349   5.079
 5463TIP3   OH237879   5.336   1.386  16.833
 5463TIP3    H137880   5.386   1.339  16.899
 5463TIP3    H237881   5.344   1.332  16.754
 5464TIP3   OH237882   3.141   1.211   0.994
 5464TIP3    H137883   3.208   1.253   1.048
 5464TIP3    H237884   3.132   1.123   1.030
 5465TIP3   OH237885   5.787   1.060   3.890
 5465TIP3    H137886   5.829   1.056   3.976
 5465TIP3    H237887   5.751   0.973   3.876
 5466TIP3   OH237888   0.730   0.471   1.904
 5466TIP3    H137889   0.798   0.424   1.855
 5466TIP3    H237890   0.745   0.448   1.995
 5467TIP3   OH237891   0.382   5.604  14.069
 5467TIP3    H137892   0.405   5.665  14.139
 5467TIP3    H237893   0.400   5.652  13.988
 5468TIP3   OH237894   2.166   0.104  13.425
 5468TIP3    H137895   2.098   0.112  13.492
 5468TIP3    H237896   2.119   0.100  13.342
 5469TIP3   OH237897   6.506   4.593  11.797
 5469TIP3    H137898   6.412   4.612  11.798
 5469TIP3    H237899   6.531   4.604  11.705
 5470TIP3   OH237900   3.744   4.016   4.964
 5470TIP3    H137901   3.807   4.085   4.942
 5470TIP3    H237902   3.754   4.003   5.059
 5471TIP3   OH237903   6.196   6.240   5.294
 5471TIP3    H137904   6.189   6.305   5.224
 5471TIP3    H237905   6.106   6.216   5.314
 5472TIP3   OH237906   4.324   0.303   5.349
 5472TIP3    H137907   4.274   0.383   5.365
 5472TIP3    H237908   4.262   0.233   5.365
 5473TIP3   OH237909   1.994   0.057  17.175
 5473TIP3    H137910   2.027   0.112  17.104
 5473TIP3    H237911   2.039   0.090  17.253
 5474TIP3   OH237912   5.279   5.517   0.566
 5474TIP3    H137913   5.307   5.495   0.655
 5474TIP3    H237914   5.200   5.569   0.579
 5475TIP3   OH237915   2.929   1.211   5.146
 5475TIP3    H137916   2.993   1.186   5.213
 5475TIP3    H237917   2.949   1.303   5.128
 5476TIP3   OH237918   0.803   4.638  13.297
 5476TIP3    H137919   0.775   4.665  13.385
 5476TIP3    H237920   0.895   4.614  13.308
 5477TIP3   OH237921   3.127   1.890   6.243
 5477TIP3    H137922   3.168   1.816   6.198
 5477TIP3    H237923   3.086   1.851   6.321
 5478TIP3   OH237924   2.072   4.334   1.500
 5478TIP3    H137925   1.999   4.289   1.458
 5478TIP3    H237926   2.097   4.278   1.574
 5479TIP3   OH237927   1.516   4.898  14.491
 5479TIP3    H137928   1.487   4.964  14.555
 5479TIP3    H237929   1.611   4.899  14.497
 5480TIP3   OH237930   6.756   4.022   2.906
 5480TIP3    H137931   6.684   4.078   2.877
 5480TIP3    H237932   6.809   4.008   2.827
 5481TIP3   OH237933   2.469   0.028  15.894
 5481TIP3    H137934   2.506  -0.059  15.900
 5481TIP3    H237935   2.481   0.053  15.802
 5482TIP3   OH237936   5.063   5.168  15.944
 5482TIP3    H137937   5.144   5.119  15.958
 5482TIP3    H237938   5.042   5.205  16.030
 5483TIP3   OH237939   2.817   0.866  11.350
 5483TIP3    H137940   2.735   0.901  11.314
 5483TIP3    H237941   2.850   0.936  11.406
 5484TIP3   OH237942   0.826   2.290  13.333
 5484TIP3    H137943   0.768   2.250  13.267
 5484TIP3    H237944   0.817   2.384  13.317
 5485TIP3   OH237945   4.271   1.974   6.581
 5485TIP3    H137946   4.242   2.058   6.618
 5485TIP3    H237947   4.238   1.908   6.642
 5486TIP3   OH237948   4.631   3.492  11.412
 5486TIP3    H137949   4.636   3.436  11.335
 5486TIP3    H237950   4.670   3.440  11.483
 5487TIP3   OH237951   5.425   4.730  16.868
 5487TIP3    H137952   5.443   4.713  16.775
 5487TIP3    H237953   5.367   4.659  16.894
 5488TIP3   OH237954   3.446   0.211   1.427
 5488TIP3    H137955   3.468   0.303   1.445
 5488TIP3    H237956   3.361   0.198   1.470
 5489TIP3   OH237957   4.133   5.903   5.826
 5489TIP3    H137958   4.201   5.963   5.796
 5489TIP3    H237959   4.145   5.824   5.773
 5490TIP3   OH237960   4.868   4.641  16.675
 5490TIP3    H137961   4.889   4.568  16.733
 5490TIP3    H237962   4.953   4.677  16.650
 5491TIP3   OH237963   2.501   4.713   3.251
 5491TIP3    H137964   2.431   4.738   3.190
 5491TIP3    H237965   2.581   4.740   3.206
 5492TIP3   OH237966   3.449   2.739  13.991
 5492TIP3    H137967   3.395   2.661  13.985
 5492TIP3    H237968   3.458   2.769  13.901
 5493TIP3   OH237969   1.607   0.771  16.371
 5493TIP3    H137970   1.573   0.857  16.347
 5493TIP3    H237971   1.529   0.714  16.371
 5494TIP3   OH237972   0.842   2.085   2.064
 5494TIP3    H137973   0.877   1.998   2.086
 5494TIP3    H237974   0.770   2.067   2.004
 5495TIP3   OH237975   0.627   6.294   4.615
 5495TIP3    H137976   0.648   6.202   4.597
 5495TIP3    H237977   0.555   6.289   4.678
 5496TIP3   OH237978   5.460   6.425  16.594
 5496TIP3    H137979   5.489   6.378  16.515
 5496TIP3    H237980   5.455   6.358  16.662
 5497TIP3   OH237981   2.651   3.075  14.642
 5497TIP3    H137982   2.627   3.118  14.724
 5497TIP3    H237983   2.705   3.001  14.670
 5498TIP3   OH237984   4.285   0.095  13.341
 5498TIP3    H137985   4.302   0.150  13.264
 5498TIP3    H237986   4.192   0.108  13.360
 5499TIP3   OH237987   6.080   1.628  13.677
 5499TIP3    H137988   6.152   1.641  13.739
 5499TIP3    H237989   6.018   1.572  13.723
 5500TIP3   OH237990   3.733   6.679   4.955
 5500TIP3    H137991   3.810   6.677   4.898
 5500TIP3    H237992   3.768   6.695   5.042
 5501TIP3   OH237993   3.681   1.934   4.192
 5501TIP3    H137994   3.641   1.998   4.250
 5501TIP3    H237995   3.738   1.985   4.135
 5502TIP3   OH237996   2.272   4.115  11.497
 5502TIP3    H137997   2.266   4.055  11.422
 5502TIP3    H237998   2.238   4.064  11.571
 5503TIP3   OH237999   4.330   4.521  14.770
 5503TIP3    H138000   4.258   4.501  14.709
 5503TIP3    H238001   4.362   4.607  14.743
 5504TIP3   OH238002   3.541   5.054  12.117
 5504TIP3    H138003   3.469   5.109  12.086
 5504TIP3    H238004   3.620   5.104  12.099
 5505TIP3   OH238005   3.862   0.566   5.314
 5505TIP3    H138006   3.776   0.603   5.335
 5505TIP3    H238007   3.901   0.628   5.253
 5506TIP3   OH238008   1.589   5.882  15.088
 5506TIP3    H138009   1.651   5.809  15.080
 5506TIP3    H238010   1.545   5.867  15.171
 5507TIP3   OH238011   5.485   6.046   5.378
 5507TIP3    H138012   5.562   6.103   5.384
 5507TIP3    H238013   5.487   6.015   5.287
 5508TIP3   OH238014   2.113   1.542   4.058
 5508TIP3    H138015   2.073   1.564   4.142
 5508TIP3    H238016   2.163   1.620   4.035
 5509TIP3   OH238017   1.330   6.181   5.468
 5509TIP3    H138018   1.400   6.147   5.412
 5509TIP3    H238019   1.264   6.112   5.470
 5510TIP3   OH238020   3.755   5.575   4.124
 5510TIP3    H138021   3.831   5.597   4.071
 5510TIP3    H238022   3.776   5.610   4.211
 5511TIP3   OH238023   2.052   4.133   2.082
 5511TIP3    H138024   2.003   4.148   2.001
 5511TIP3    H238025   2.110   4.210   2.089
 5512TIP3   OH238026   0.421   0.851   2.273
 5512TIP3    H138027   0.459   0.871   2.188
 5512TIP3    H238028   0.327   0.865   2.261
 5513TIP3   OH238029   4.965   4.335  12.262
 5513TIP3    H138030   4.911   4.366  12.335
 5513TIP3    H238031   4.909   4.347  12.184
 5514TIP3   OH238032   6.089   4.495  16.543
 5514TIP3    H138033   6.051   4.517  16.458
 5514TIP3    H238034   6.114   4.579  16.581
 5515TIP3   OH238035   3.169   1.126   4.634
 5515TIP3    H138036   3.080   1.149   4.609
 5515TIP3    H238037   3.158   1.071   4.712
 5516TIP3   OH238038   2.268   4.266   0.424
 5516TIP3    H138039   2.182   4.268   0.380
 5516TIP3    H238040   2.328   4.237   0.356
 5517TIP3   OH238041   6.345   5.470   4.576
 5517TIP3    H138042   6.343   5.418   4.656
 5517TIP3    H238043   6.402   5.544   4.596
 5518TIP3   OH238044   3.851   0.501   5.671
 5518TIP3    H138045   3.834   0.595   5.672
 5518TIP3    H238046   3.764   0.462   5.684
 5519TIP3   OH238047   2.791   4.023  12.610
 5519TIP3    H138048   2.830   3.945  12.649
 5519TIP3    H238049   2.862   4.087  12.608
 5520TIP3   OH238050   6.466   3.021   6.022
 5520TIP3    H138051   6.371   3.020   6.036
 5520TIP3    H238052   6.501   2.960   6.086
 5521TIP3   OH238053   0.891   3.016  15.900
 5521TIP3    H138054   0.851   3.061  15.825
 5521TIP3    H238055   0.820   2.964  15.937
 5522TIP3   OH238056   0.382   3.423  12.394
 5522TIP3    H138057   0.304   3.379  12.361
 5522TIP3    H238058   0.452   3.358  12.382
 5523TIP3   OH238059   3.607   5.938  16.051
 5523TIP3    H138060   3.654   5.920  15.970
 5523TIP3    H238061   3.617   6.032  16.064
 5524TIP3   OH238062   5.720   3.937  12.592
 5524TIP3    H138063   5.628   3.914  12.603
 5524TIP3    H238064   5.756   3.865  12.539
 5525TIP3   OH238065   4.916   5.634  11.421
 5525TIP3    H138066   4.888   5.552  11.380
 5525TIP3    H238067   4.989   5.663  11.367
 5526TIP3   OH238068   0.045   6.220  15.053
 5526TIP3    H138069   0.018   6.268  15.132
 5526TIP3    H238070  -0.037   6.206  15.005
 5527TIP3   OH238071   4.761   0.202  17.235
 5527TIP3    H138072   4.689   0.180  17.294
 5527TIP3    H238073   4.756   0.297  17.226
 5528TIP3   OH238074   4.148   5.500  13.817
 5528TIP3    H138075   4.072   5.539  13.775
 5528TIP3    H238076   4.161   5.553  13.896
 5529TIP3   OH238077   3.763   3.182  13.199
 5529TIP3    H138078   3.711   3.251  13.158
 5529TIP3    H238079   3.853   3.212  13.191
 5530TIP3   OH238080   6.627   0.502  11.324
 5530TIP3    H138081   6.671   0.560  11.262
 5530TIP3    H238082   6.690   0.491  11.395
 5531TIP3   OH238083   1.216   1.217  13.489
 5531TIP3    H138084   1.228   1.165  13.569
 5531TIP3    H238085   1.122   1.210  13.471
 5532TIP3   OH238086   2.088   5.878  15.896
 5532TIP3    H138087   2.066   5.934  15.971
 5532TIP3    H238088   2.164   5.829  15.925
 5533TIP3   OH238089   2.369   4.808   2.213
 5533TIP3    H138090   2.434   4.741   2.196
 5533TIP3    H238091   2.285   4.765   2.197
 5534TIP3   OH238092   2.620   4.173  10.678
 5534TIP3    H138093   2.704   4.194  10.720
 5534TIP3    H238094   2.576   4.115  10.739
 5535TIP3   OH238095   3.115   6.076   4.684
 5535TIP3    H138096   3.141   6.042   4.598
 5535TIP3    H238097   3.114   6.171   4.673
 5536TIP3   OH238098   0.918   2.152  12.320
 5536TIP3    H138099   0.888   2.207  12.393
 5536TIP3    H238100   0.852   2.083  12.313
 5537TIP3   OH238101   2.135   2.215   5.183
 5537TIP3    H138102   2.079   2.152   5.137
 5537TIP3    H238103   2.073   2.271   5.230
 5538TIP3   OH238104   3.345   5.896   5.892
 5538TIP3    H138105   3.337   5.802   5.908
 5538TIP3    H238106   3.291   5.937   5.960
 5539TIP3   OH238107   0.211   3.808   0.151
 5539TIP3    H138108   0.264   3.732   0.174
 5539TIP3    H238109   0.161   3.826   0.230
 5540TIP3   OH238110   2.620   0.652   5.885
 5540TIP3    H138111   2.532   0.639   5.921
 5540TIP3    H238112   2.660   0.717   5.943
 5541TIP3   OH238113   1.432   3.873  10.724
 5541TIP3    H138114   1.387   3.819  10.659
 5541TIP3    H238115   1.386   3.957  10.722
 5542TIP3   OH238116   2.848   0.467  16.402
 5542TIP3    H138117   2.834   0.554  16.441
 5542TIP3    H238118   2.796   0.408  16.457
 5543TIP3   OH238119   0.162   2.328   0.458
 5543TIP3    H138120   0.225   2.256   0.449
 5543TIP3    H238121   0.215   2.403   0.482
 5544TIP3   OH238122   1.657   1.725  12.028
 5544TIP3    H138123   1.737   1.772  12.052
 5544TIP3    H238124   1.607   1.788  11.975
 5545TIP3   OH238125   6.543   0.860  13.900
 5545TIP3    H138126   6.577   0.949  13.911
 5545TIP3    H238127   6.477   0.868  13.832
 5546TIP3   OH238128   5.444   4.424   3.064
 5546TIP3    H138129   5.431   4.355   2.999
 5546TIP3    H238130   5.356   4.443   3.097
 5547TIP3   OH238131   1.977   3.776   2.579
 5547TIP3    H138132   2.068   3.790   2.550
 5547TIP3    H238133   1.983   3.702   2.639
 5548TIP3   OH238134   1.420   0.834   4.748
 5548TIP3    H138135   1.458   0.838   4.835
 5548TIP3    H238136   1.347   0.895   4.750
 5549TIP3   OH238137   6.316   1.467  17.234
 5549TIP3    H138138   6.355   1.533  17.177
 5549TIP3    H238139   6.320   1.506  17.321
 5550TIP3   OH238140   3.920   4.894   6.188
 5550TIP3    H138141   3.937   4.986   6.166
 5550TIP3    H238142   4.006   4.852   6.184
 5551TIP3   OH238143   0.616   4.758   5.307
 5551TIP3    H138144   0.658   4.716   5.382
 5551TIP3    H238145   0.670   4.835   5.290
 5552TIP3   OH238146   2.397   2.961   2.016
 5552TIP3    H138147   2.331   3.030   2.010
 5552TIP3    H238148   2.406   2.927   1.927
 5553TIP3   OH238149   3.052   1.291   0.066
 5553TIP3    H138150   3.106   1.354   0.113
 5553TIP3    H238151   2.962   1.317   0.085
 5554TIP3   OH238152   4.510   2.477  11.297
 5554TIP3    H138153   4.502   2.388  11.332
 5554TIP3    H238154   4.432   2.487  11.242
 5555TIP3   OH238155   6.317   3.880  14.788
 5555TIP3    H138156   6.273   3.959  14.820
 5555TIP3    H238157   6.274   3.809  14.835
 5556TIP3   OH238158   1.761   5.384   6.299
 5556TIP3    H138159   1.752   5.318   6.368
 5556TIP3    H238160   1.852   5.375   6.268
 5557TIP3   OH238161   3.274   1.947   2.063
 5557TIP3    H138162   3.180   1.965   2.072
 5557TIP3    H238163   3.308   2.021   2.013
 5558TIP3   OH238164   4.885   1.365  12.960
 5558TIP3    H138165   4.967   1.319  12.945
 5558TIP3    H238166   4.864   1.348  13.052
 5559TIP3   OH238167   3.038   2.075  17.167
 5559TIP3    H138168   3.127   2.110  17.177
 5559TIP3    H238169   3.050   1.980  17.163
 5560TIP3   OH238170   5.436   5.823  11.990
 5560TIP3    H138171   5.377   5.868  12.051
 5560TIP3    H238172   5.384   5.810  11.911
 5561TIP3   OH238173   6.253   3.237  11.855
 5561TIP3    H138174   6.193   3.281  11.916
 5561TIP3    H238175   6.340   3.251  11.892
 5562TIP3   OH238176   5.048   1.510   2.772
 5562TIP3    H138177   5.031   1.427   2.729
 5562TIP3    H238178   5.091   1.564   2.706
 5563TIP3   OH238179   3.729   3.236   1.848
 5563TIP3    H138180   3.638   3.211   1.864
 5563TIP3    H238181   3.779   3.186   1.914
 5564TIP3   OH238182   0.773   4.786   1.569
 5564TIP3    H138183   0.712   4.852   1.538
 5564TIP3    H238184   0.841   4.782   1.502
 5565TIP3   OH238185   0.532   3.647  15.949
 5565TIP3    H138186   0.611   3.699  15.931
 5565TIP3    H238187   0.561   3.556  15.945
 5566TIP3   OH238188   2.792   2.563  12.819
 5566TIP3    H138189   2.863   2.501  12.833
 5566TIP3    H238190   2.762   2.546  12.730
 5567TIP3   OH238191   3.577   5.107  15.680
 5567TIP3    H138192   3.667   5.087  15.706
 5567TIP3    H238193   3.527   5.030  15.708
 5568TIP3   OH238194   1.951   3.550  16.547
 5568TIP3    H138195   2.025   3.553  16.487
 5568TIP3    H238196   1.908   3.635  16.535
 5569TIP3   OH238197   2.555   0.550  12.307
 5569TIP3    H138198   2.541   0.534  12.213
 5569TIP3    H238199   2.650   0.559  12.315
 5570TIP3   OH238200   3.992   5.540   0.834
 5570TIP3    H138201   4.015   5.504   0.748
 5570TIP3    H238202   3.904   5.576   0.822
 5571TIP3   OH238203   1.703   4.575   5.641
 5571TIP3    H138204   1.664   4.657   5.611
 5571TIP3    H238205   1.758   4.546   5.568
 5572TIP3   OH238206   2.049   4.835   0.019
 5572TIP3    H138207   2.122   4.785   0.056
 5572TIP3    H238208   2.006   4.873   0.095
 5573TIP3   OH238209   5.244   1.551  16.533
 5573TIP3    H138210   5.314   1.584  16.589
 5573TIP3    H238211   5.289   1.521  16.454
 5574TIP3   OH238212   2.732   5.241  14.269
 5574TIP3    H138213   2.795   5.309  14.246
 5574TIP3    H238214   2.785   5.169  14.301
 5575TIP3   OH238215   1.716   6.111  15.128
 5575TIP3    H138216   1.666   6.030  15.120
 5575TIP3    H238217   1.782   6.106  15.059
 5576TIP3   OH238218   4.292   2.146  13.555
 5576TIP3    H138219   4.222   2.188  13.605
 5576TIP3    H238220   4.270   2.163  13.463
 5577TIP3   OH238221   0.730   5.113   3.458
 5577TIP3    H138222   0.701   5.073   3.376
 5577TIP3    H238223   0.823   5.131   3.443
 5578TIP3   OH238224   1.785   3.318   1.918
 5578TIP3    H138225   1.690   3.317   1.931
 5578TIP3    H238226   1.802   3.244   1.860
 5579TIP3   OH238227   5.125   3.642  14.875
 5579TIP3    H138228   5.036   3.640  14.909
 5579TIP3    H238229   5.130   3.566  14.817
 5580TIP3   OH238230   4.973   3.636  11.867
 5580TIP3    H138231   4.964   3.542  11.853
 5580TIP3    H238232   4.997   3.645  11.959
 5581TIP3   OH238233   0.969   6.268   0.592
 5581TIP3    H138234   0.910   6.212   0.643
 5581TIP3    H238235   0.920   6.349   0.579
 5582TIP3   OH238236   0.193   5.141   0.277
 5582TIP3    H138237   0.272   5.087   0.265
 5582TIP3    H238238   0.202   5.179   0.364
 5583TIP3   OH238239   4.017   0.854  14.697
 5583TIP3    H138240   3.937   0.869  14.748
 5583TIP3    H238241   4.069   0.934  14.710
 5584TIP3   OH238242   0.846   2.080  17.232
 5584TIP3    H138243   0.868   1.991  17.204
 5584TIP3    H238244   0.874   2.135  17.160
 5585TIP3   OH238245   6.010   5.705   0.882
 5585TIP3    H138246   5.984   5.765   0.952
 5585TIP3    H238247   6.014   5.760   0.804
 5586TIP3   OH238248   6.752   1.629   2.974
 5586TIP3    H138249   6.670   1.654   3.016
 5586TIP3    H238250   6.792   1.712   2.949
 5587TIP3   OH238251   5.083   3.749  12.929
 5587TIP3    H138252   4.989   3.741  12.919
 5587TIP3    H238253   5.101   3.842  12.914
 5588TIP3   OH238254   6.200   5.879   3.599
 5588TIP3    H138255   6.219   5.881   3.505
 5588TIP3    H238256   6.230   5.964   3.631
 5589TIP3   OH238257   0.937   4.990   4.212
 5589TIP3    H138258   0.860   4.970   4.265
 5589TIP3    H238259   0.971   5.072   4.248
 5590TIP3   OH238260   5.632   3.905   0.961
 5590TIP3    H138261   5.593   3.976   0.910
 5590TIP3    H238262   5.604   3.923   1.051
 5591TIP3   OH238263   5.782   3.443  14.473
 5591TIP3    H138264   5.764   3.412  14.562
 5591TIP3    H238265   5.735   3.382  14.416
 5592TIP3   OH238266   2.053   1.112   4.143
 5592TIP3    H138267   2.007   1.037   4.181
 5592TIP3    H238268   2.005   1.130   4.062
 5593TIP3   OH238269   5.656   2.862  15.434
 5593TIP3    H138270   5.677   2.782  15.483
 5593TIP3    H238271   5.563   2.877  15.451
 5594TIP3   OH238272   5.970   3.198   4.863
 5594TIP3    H138273   6.020   3.278   4.876
 5594TIP3    H238274   6.034   3.127   4.873
 5595TIP3   OH238275   5.241   4.139   0.173
 5595TIP3    H138276   5.246   4.137   0.077
 5595TIP3    H238277   5.213   4.228   0.194
 5596TIP3   OH238278   4.031   2.513   0.023
 5596TIP3    H138279   4.011   2.573  -0.050
 5596TIP3    H238280   4.119   2.537   0.050
 5597TIP3   OH238281   1.700   1.618   0.103
 5597TIP3    H138282   1.701   1.710   0.078
 5597TIP3    H238283   1.610   1.601   0.131
 5598TIP3   OH238284   2.092   6.056  16.096
 5598TIP3    H138285   2.160   6.067  16.163
 5598TIP3    H238286   2.011   6.079  16.140
 5599TIP3   OH238287   5.635   0.951   0.159
 5599TIP3    H138288   5.631   0.956   0.063
 5599TIP3    H238289   5.564   1.008   0.189
 5600TIP3   OH238290   6.629   3.829   5.908
 5600TIP3    H138291   6.695   3.872   5.962
 5600TIP3    H238292   6.583   3.769   5.967
 5601TIP3   OH238293   4.364   1.771   1.527
 5601TIP3    H138294   4.393   1.858   1.555
 5601TIP3    H238295   4.442   1.715   1.536
 5602TIP3   OH238296   1.804   2.355  14.038
 5602TIP3    H138297   1.758   2.425  14.083
 5602TIP3    H238298   1.846   2.304  14.108
 5603TIP3   OH238299   1.778   5.297  15.921
 5603TIP3    H138300   1.766   5.391  15.937
 5603TIP3    H238301   1.694   5.258  15.942
 5604TIP3   OH238302   2.126   6.246   3.153
 5604TIP3    H138303   2.037   6.279   3.139
 5604TIP3    H238304   2.163   6.305   3.219
 5605TIP3   OH238305   0.107   0.968   2.294
 5605TIP3    H138306   0.083   1.026   2.222
 5605TIP3    H238307   0.045   0.895   2.288
 5606TIP3   OH238308   2.255   2.340  11.133
 5606TIP3    H138309   2.234   2.371  11.221
 5606TIP3    H238310   2.252   2.244  11.140
 5607TIP3   OH238311   2.353   2.355  13.397
 5607TIP3    H138312   2.388   2.282  13.346
 5607TIP3    H238313   2.377   2.433  13.346
 5608TIP3   OH238314   4.121   6.484  13.663
 5608TIP3    H138315   4.069   6.409  13.634
 5608TIP3    H238316   4.068   6.560  13.638
 5609TIP3   OH238317   1.762   2.009  15.036
 5609TIP3    H138318   1.713   2.020  15.118
 5609TIP3    H238319   1.846   1.974  15.064
 5610TIP3   OH238320   0.293   5.435  13.852
 5610TIP3    H138321   0.307   5.452  13.945
 5610TIP3    H238322   0.221   5.373  13.849
 5611TIP3   OH238323   6.352   4.554   4.582
 5611TIP3    H138324   6.317   4.508   4.658
 5611TIP3    H238325   6.365   4.486   4.516
 5612TIP3   OH238326   1.505   1.349  14.563
 5612TIP3    H138327   1.480   1.439  14.585
 5612TIP3    H238328   1.575   1.328  14.624
 5613TIP3   OH238329   2.710   5.691  14.182
 5613TIP3    H138330   2.725   5.731  14.267
 5613TIP3    H238331   2.628   5.644  14.191
 5614TIP3   OH238332   4.404   2.825   0.119
 5614TIP3    H138333   4.372   2.911   0.092
 5614TIP3    H238334   4.497   2.838   0.134
 5615TIP3   OH238335   0.668   3.756   4.018
 5615TIP3    H138336   0.746   3.775   3.967
 5615TIP3    H238337   0.619   3.838   4.020
 5616TIP3   OH238338   4.065   3.213  13.857
 5616TIP3    H138339   4.159   3.234  13.860
 5616TIP3    H238340   4.041   3.200  13.949
 5617TIP3   OH238341   4.082   5.792  17.197
 5617TIP3    H138342   4.065   5.885  17.182
 5617TIP3    H238343   4.080   5.782  17.292
 5618TIP3   OH238344   3.080   4.353  14.018
 5618TIP3    H138345   3.015   4.410  13.978
 5618TIP3    H238346   3.065   4.361  14.112
 5619TIP3   OH238347   0.594   4.608   5.730
 5619TIP3    H138348   0.632   4.605   5.819
 5619TIP3    H238349   0.520   4.548   5.734
 5620TIP3   OH238350   5.111   5.276   5.269
 5620TIP3    H138351   5.075   5.354   5.227
 5620TIP3    H238352   5.061   5.267   5.350
 5621TIP3   OH238353   2.435   3.500  15.493
 5621TIP3    H138354   2.358   3.505  15.549
 5621TIP3    H238355   2.505   3.541  15.545
 5622TIP3   OH238356   6.750   0.915  13.277
 5622TIP3    H138357   6.783   1.005  13.273
 5622TIP3    H238358   6.815   0.868  13.330
 5623TIP3   OH238359   3.024   3.287   2.175
 5623TIP3    H138360   3.042   3.292   2.269
 5623TIP3    H238361   3.093   3.230   2.141
 5624TIP3   OH238362   0.418   3.126  17.246
 5624TIP3    H138363   0.355   3.175  17.299
 5624TIP3    H238364   0.463   3.193  17.194
 5625TIP3   OH238365   5.418   0.359   0.716
 5625TIP3    H138366   5.395   0.266   0.711
 5625TIP3    H238367   5.343   0.399   0.761
 5626TIP3   OH238368   1.531   5.212  15.962
 5626TIP3    H138369   1.445   5.186  15.930
 5626TIP3    H238370   1.537   5.174  16.050
 5627TIP3   OH238371   3.469   2.366   6.252
 5627TIP3    H138372   3.462   2.404   6.339
 5627TIP3    H238373   3.396   2.304   6.247
 5628TIP3   OH238374   0.520   4.884   4.182
 5628TIP3    H138375   0.540   4.932   4.101
 5628TIP3    H238376   0.578   4.808   4.179
 5629TIP3   OH238377   4.211   1.463  15.894
 5629TIP3    H138378   4.213   1.373  15.928
 5629TIP3    H238379   4.212   1.518  15.972
 5630TIP3   OH238380   4.292   5.698   6.639
 5630TIP3    H138381   4.204   5.672   6.612
 5630TIP3    H238382   4.296   5.792   6.621
 5631TIP3   OH238383   5.191   4.157  16.814
 5631TIP3    H138384   5.139   4.123  16.887
 5631TIP3    H238385   5.278   4.171  16.851
 5632TIP3   OH238386   3.128   0.554   2.175
 5632TIP3    H138387   3.113   0.531   2.266
 5632TIP3    H238388   3.053   0.609   2.151
 5633TIP3   OH238389   0.305   2.717   3.450
 5633TIP3    H138390   0.295   2.734   3.356
 5633TIP3    H238391   0.242   2.774   3.492
 5634TIP3   OH238392   2.766   6.068  13.745
 5634TIP3    H138393   2.704   6.135  13.715
 5634TIP3    H238394   2.793   6.023  13.665
 5635TIP3   OH238395   5.336   5.981  17.263
 5635TIP3    H138396   5.406   5.967  17.326
 5635TIP3    H238397   5.315   5.893  17.231
 5636TIP3   OH238398   1.132   2.896  14.722
 5636TIP3    H138399   1.141   2.975  14.776
 5636TIP3    H238400   1.180   2.916  14.641
 5637TIP3   OH238401   5.023   2.947   2.847
 5637TIP3    H138402   5.071   2.865   2.859
 5637TIP3    H238403   4.942   2.920   2.804
 5638TIP3   OH238404   4.251   5.102  13.995
 5638TIP3    H138405   4.283   5.174  13.940
 5638TIP3    H238406   4.268   5.023  13.944
 5639TIP3   OH238407   5.401   2.014   1.743
 5639TIP3    H138408   5.337   2.056   1.801
 5639TIP3    H238409   5.373   1.923   1.738
 5640TIP3   OH238410   2.571   2.009   4.453
 5640TIP3    H138411   2.554   1.954   4.530
 5640TIP3    H238412   2.490   2.007   4.403
 5641TIP3   OH238413   4.244   1.333  14.824
 5641TIP3    H138414   4.236   1.395  14.897
 5641TIP3    H238415   4.338   1.318  14.816
 5642TIP3   OH238416   2.536   5.945   4.670
 5642TIP3    H138417   2.621   5.980   4.697
 5642TIP3    H238418   2.474   5.984   4.731
 5643TIP3   OH238419   2.620   3.778   6.569
 5643TIP3    H138420   2.679   3.847   6.539
 5643TIP3    H238421   2.634   3.706   6.506
 5644TIP3   OH238422   0.170   6.600  11.619
 5644TIP3    H138423   0.238   6.560  11.565
 5644TIP3    H238424   0.088   6.585  11.571
 5645TIP3   OH238425   3.752   4.190   3.674
 5645TIP3    H138426   3.816   4.202   3.604
 5645TIP3    H238427   3.721   4.278   3.694
 5646TIP3   OH238428   5.719   5.046  14.647
 5646TIP3    H138429   5.729   4.966  14.597
 5646TIP3    H238430   5.653   5.024  14.714
 5647TIP3   OH238431   5.014   2.109  13.420
 5647TIP3    H138432   4.981   2.070  13.338
 5647TIP3    H238433   5.003   2.040  13.485
 5648TIP3   OH238434   5.040   1.783   2.891
 5648TIP3    H138435   4.964   1.725   2.891
 5648TIP3    H238436   5.105   1.738   2.838
 5649TIP3   OH238437   4.300   4.396  10.568
 5649TIP3    H138438   4.214   4.412  10.607
 5649TIP3    H238439   4.304   4.455  10.492
 5650TIP3   OH238440   5.280   5.602  13.135
 5650TIP3    H138441   5.368   5.629  13.160
 5650TIP3    H238442   5.291   5.514  13.100
 5651TIP3   OH238443   5.455   3.011   4.278
 5651TIP3    H138444   5.519   3.022   4.348
 5651TIP3    H238445   5.428   2.919   4.284
 5652TIP3   OH238446   0.857   3.005  12.147
 5652TIP3    H138447   0.896   2.950  12.079
 5652TIP3    H238448   0.839   3.088  12.104
 5653TIP3   OH238449   6.399   0.951  13.684
 5653TIP3    H138450   6.355   1.024  13.642
 5653TIP3    H238451   6.484   0.946  13.641
 5654TIP3   OH238452   2.885   2.218  10.960
 5654TIP3    H138453   2.908   2.204  11.052
 5654TIP3    H238454   2.921   2.303  10.938
 5655TIP3   OH238455   5.445   1.238   2.263
 5655TIP3    H138456   5.398   1.259   2.182
 5655TIP3    H238457   5.537   1.258   2.244
 5656TIP3   OH238458   5.230   5.755  11.752
 5656TIP3    H138459   5.137   5.733  11.752
 5656TIP3    H238460   5.238   5.826  11.689
 5657TIP3   OH238461   3.032   3.595  11.376
 5657TIP3    H138462   3.000   3.506  11.388
 5657TIP3    H238463   2.969   3.650  11.424
 5658TIP3   OH238464   4.089   6.721  15.824
 5658TIP3    H138465   3.995   6.715  15.839
 5658TIP3    H238466   4.120   6.785  15.888
 5659TIP3   OH238467   5.393   0.427   4.873
 5659TIP3    H138468   5.452   0.379   4.931
 5659TIP3    H238469   5.307   0.390   4.891
 5660TIP3   OH238470   1.347   6.592   3.656
 5660TIP3    H138471   1.259   6.607   3.692
 5660TIP3    H238472   1.401   6.661   3.695
 5661TIP3   OH238473   4.026   5.684   4.039
 5661TIP3    H138474   4.055   5.731   4.117
 5661TIP3    H238475   4.074   5.724   3.967
 5662TIP3   OH238476   3.022   2.067   2.101
 5662TIP3    H138477   3.001   2.136   2.164
 5662TIP3    H238478   2.962   2.082   2.028
 5663TIP3   OH238479   4.784   4.490  12.416
 5663TIP3    H138480   4.744   4.422  12.470
 5663TIP3    H238481   4.747   4.572  12.450
 5664TIP3   OH238482   0.482   6.354   1.015
 5664TIP3    H138483   0.478   6.446   1.039
 5664TIP3    H238484   0.507   6.309   1.096
 5665TIP3   OH238485   2.944   3.782   2.437
 5665TIP3    H138486   2.964   3.697   2.398
 5665TIP3    H238487   2.931   3.762   2.530
 5666TIP3   OH238488   6.675   2.573  14.234
 5666TIP3    H138489   6.715   2.583  14.147
 5666TIP3    H238490   6.596   2.627  14.230
 5667TIP3   OH238491   6.654   3.441   5.870
 5667TIP3    H138492   6.701   3.455   5.952
 5667TIP3    H238493   6.718   3.458   5.801
 5668TIP3   OH238494   1.313   3.978   3.524
 5668TIP3    H138495   1.382   3.932   3.477
 5668TIP3    H238496   1.274   4.036   3.459
 5669TIP3   OH238497   5.423   1.006   6.259
 5669TIP3    H138498   5.351   1.062   6.288
 5669TIP3    H238499   5.400   0.919   6.290
 5670TIP3   OH238500   3.922   3.802   3.142
 5670TIP3    H138501   4.008   3.818   3.104
 5670TIP3    H238502   3.864   3.864   3.099
 5671TIP3   OH238503   1.302   4.032   3.796
 5671TIP3    H138504   1.301   3.997   3.706
 5671TIP3    H238505   1.210   4.050   3.815
 5672TIP3   OH238506   6.477   1.723  12.945
 5672TIP3    H138507   6.424   1.647  12.971
 5672TIP3    H238508   6.480   1.778  13.023
 5673TIP3   OH238509   3.793   5.516  12.386
 5673TIP3    H138510   3.856   5.557  12.445
 5673TIP3    H238511   3.749   5.590  12.344
 5674TIP3   OH238512   5.311   0.247  12.597
 5674TIP3    H138513   5.312   0.159  12.635
 5674TIP3    H238514   5.303   0.306  12.672
 5675TIP3   OH238515   5.918   6.798   2.311
 5675TIP3    H138516   5.918   6.752   2.227
 5675TIP3    H238517   6.010   6.821   2.325
 5676TIP3   OH238518   6.771   0.327   6.821
 5676TIP3    H138519   6.748   0.419   6.838
 5676TIP3    H238520   6.691   0.278   6.839
 5677TIP3   OH238521   0.769   1.379  14.785
 5677TIP3    H138522   0.726   1.416  14.862
 5677TIP3    H238523   0.831   1.315  14.820
 5678TIP3   OH238524   4.457   2.398  17.257
 5678TIP3    H138525   4.468   2.393  17.351
 5678TIP3    H238526   4.489   2.314  17.224
 5679TIP3   OH238527   3.768   1.512   2.694
 5679TIP3    H138528   3.766   1.579   2.626
 5679TIP3    H238529   3.860   1.487   2.699
 5680TIP3   OH238530   1.989   2.924   1.845
 5680TIP3    H138531   1.962   2.834   1.860
 5680TIP3    H238532   2.079   2.917   1.811
 5681TIP3   OH238533   1.002   0.056  17.158
 5681TIP3    H138534   0.933  -0.005  17.183
 5681TIP3    H238535   1.036   0.089  17.241
 5682TIP3   OH238536   2.350   1.505   3.148
 5682TIP3    H138537   2.355   1.597   3.176
 5682TIP3    H238538   2.344   1.456   3.230
 5683TIP3   OH238539   6.722   3.130   5.160
 5683TIP3    H138540   6.761   3.117   5.247
 5683TIP3    H238541   6.739   3.048   5.114
 5684TIP3   OH238542   6.793   2.862   0.186
 5684TIP3    H138543   6.774   2.779   0.229
 5684TIP3    H238544   6.712   2.884   0.139
 5685TIP3   OH238545   1.282   4.181   5.453
 5685TIP3    H138546   1.231   4.225   5.385
 5685TIP3    H238547   1.364   4.158   5.409
 5686TIP3   OH238548   2.260   0.845   6.384
 5686TIP3    H138549   2.208   0.795   6.448
 5686TIP3    H238550   2.222   0.822   6.300
 5687TIP3   OH238551   0.712   2.356   5.123
 5687TIP3    H138552   0.691   2.293   5.055
 5687TIP3    H238553   0.663   2.435   5.099
 5688TIP3   OH238554   2.216   4.709   0.182
 5688TIP3    H138555   2.274   4.711   0.106
 5688TIP3    H238556   2.274   4.722   0.257
 5689TIP3   OH238557   1.824   6.108  15.806
 5689TIP3    H138558   1.849   6.119  15.714
 5689TIP3    H238559   1.834   6.194  15.845
 5690TIP3   OH238560   5.291   5.845  15.103
 5690TIP3    H138561   5.248   5.776  15.153
 5690TIP3    H238562   5.233   5.920  15.110
 5691TIP3   OH238563   3.243   5.811  11.496
 5691TIP3    H138564   3.338   5.817  11.504
 5691TIP3    H238565   3.211   5.891  11.538
 5692TIP3   OH238566   4.638   5.158  14.395
 5692TIP3    H138567   4.576   5.204  14.337
 5692TIP3    H238568   4.712   5.137  14.339
 5693TIP3   OH238569   6.520   5.981  17.113
 5693TIP3    H138570   6.557   6.064  17.144
 5693TIP3    H238571   6.431   6.002  17.087
 5694TIP3   OH238572   1.342   2.850  12.208
 5694TIP3    H138573   1.392   2.840  12.289
 5694TIP3    H238574   1.264   2.901  12.234
 5695TIP3   OH238575   2.668   4.121  17.096
 5695TIP3    H138576   2.634   4.202  17.136
 5695TIP3    H238577   2.755   4.145  17.064
 5696TIP3   OH238578   0.830   4.794   4.027
 5696TIP3    H138579   0.911   4.774   3.979
 5696TIP3    H238580   0.854   4.782   4.119
 5697TIP3   OH238581   2.910   4.770   2.853
 5697TIP3    H138582   2.914   4.697   2.792
 5697TIP3    H238583   2.831   4.754   2.905
 5698TIP3   OH238584   5.060   1.375   4.049
 5698TIP3    H138585   5.093   1.463   4.067
 5698TIP3    H238586   5.073   1.328   4.131
 5699TIP3   OH238587   3.627   0.994   2.102
 5699TIP3    H138588   3.722   0.986   2.107
 5699TIP3    H238589   3.609   1.004   2.008
 5700TIP3   OH238590   0.202   4.704  14.628
 5700TIP3    H138591   0.282   4.691  14.678
 5700TIP3    H238592   0.210   4.792  14.592
 5701TIP3   OH238593   2.277   2.067  12.903
 5701TIP3    H138594   2.290   2.151  12.861
 5701TIP3    H238595   2.365   2.034  12.921
 5702TIP3   OH238596   5.044   5.183  16.244
 5702TIP3    H138597   5.068   5.252  16.306
 5702TIP3    H238598   4.950   5.169  16.258
 5703TIP3   OH238599   5.815   5.824  12.831
 5703TIP3    H138600   5.791   5.899  12.776
 5703TIP3    H238601   5.737   5.769  12.831
 5704TIP3   OH238602   6.011   3.281  14.861
 5704TIP3    H138603   5.952   3.205  14.860
 5704TIP3    H238604   6.042   3.287  14.951
 5705TIP3   OH238605   5.478   3.537  10.829
 5705TIP3    H138606   5.551   3.497  10.783
 5705TIP3    H238607   5.518   3.602  10.886
 5706TIP3   OH238608   5.965   6.104   4.533
 5706TIP3    H138609   6.047   6.107   4.485
 5706TIP3    H238610   5.962   6.016   4.570
 5707TIP3   OH238611   3.870   0.954  16.947
 5707TIP3    H138612   3.823   0.924  16.870
 5707TIP3    H238613   3.890   1.046  16.928
 5708TIP3   OH238614   3.056   5.142   0.529
 5708TIP3    H138615   3.112   5.148   0.452
 5708TIP3    H238616   3.058   5.230   0.568
 5709TIP3   OH238617   1.928   4.610   4.747
 5709TIP3    H138618   1.960   4.536   4.798
 5709TIP3    H238619   1.892   4.570   4.667
 5710TIP3   OH238620   6.578   6.026  14.690
 5710TIP3    H138621   6.597   5.972  14.613
 5710TIP3    H238622   6.486   6.050  14.680
 5711TIP3   OH238623   6.517   5.662  15.156
 5711TIP3    H138624   6.486   5.583  15.201
 5711TIP3    H238625   6.478   5.657  15.069
 5712TIP3   OH238626   6.061   5.484  14.071
 5712TIP3    H138627   6.124   5.418  14.041
 5712TIP3    H238628   6.074   5.558  14.013
 5713TIP3   OH238629   4.318   1.180  16.879
 5713TIP3    H138630   4.318   1.140  16.965
 5713TIP3    H238631   4.383   1.250  16.885
 5714TIP3   OH238632   3.917   6.638   4.371
 5714TIP3    H138633   3.986   6.687   4.416
 5714TIP3    H238634   3.838   6.658   4.420
 5715TIP3   OH238635   3.067   0.818  11.230
 5715TIP3    H138636   3.010   0.891  11.253
 5715TIP3    H238637   3.078   0.825  11.136
 5716TIP3   OH238638   1.120   4.763   1.748
 5716TIP3    H138639   1.076   4.707   1.685
 5716TIP3    H238640   1.055   4.830   1.770
 5717TIP3   OH238641   4.506   0.068   3.363
 5717TIP3    H138642   4.590   0.064   3.409
 5717TIP3    H238643   4.446   0.016   3.417
 5718TIP3   OH238644   6.469   4.553  12.337
 5718TIP3    H138645   6.480   4.470  12.291
 5718TIP3    H238646   6.556   4.593  12.334
 5719TIP3   OH238647   0.236   5.715  16.621
 5719TIP3    H138648   0.251   5.621  16.632
 5719TIP3    H238649   0.221   5.747  16.710
 5720TIP3   OH238650   5.606   1.096   4.223
 5720TIP3    H138651   5.553   1.038   4.169
 5720TIP3    H238652   5.582   1.185   4.195
 5721TIP3   OH238653   4.913   4.311   5.462
 5721TIP3    H138654   4.848   4.247   5.490
 5721TIP3    H238655   4.874   4.396   5.485
 5722TIP3   OH238656   5.717   3.461   4.880
 5722TIP3    H138657   5.640   3.480   4.934
 5722TIP3    H238658   5.781   3.426   4.943
 5723TIP3   OH238659   1.259   3.905  11.950
 5723TIP3    H138660   1.331   3.959  11.917
 5723TIP3    H238661   1.181   3.959  11.937
 5724TIP3   OH238662   4.485   1.411   4.403
 5724TIP3    H138663   4.469   1.329   4.356
 5724TIP3    H238664   4.579   1.410   4.422
 5725TIP3   OH238665   6.754   0.913   2.621
 5725TIP3    H138666   6.705   0.847   2.571
 5725TIP3    H238667   6.840   0.914   2.580
 5726TIP3   OH238668   5.479   1.564  14.733
 5726TIP3    H138669   5.479   1.620  14.811
 5726TIP3    H238670   5.568   1.573  14.697
 5727TIP3   OH238671   1.825   0.430  13.513
 5727TIP3    H138672   1.904   0.406  13.465
 5727TIP3    H238673   1.769   0.353  13.508
 5728TIP3   OH238674   6.648   1.541  16.204
 5728TIP3    H138675   6.601   1.623  16.217
 5728TIP3    H238676   6.715   1.562  16.139
 5729TIP3   OH238677   0.896   4.307   0.616
 5729TIP3    H138678   0.928   4.392   0.646
 5729TIP3    H238679   0.806   4.325   0.587
 5730TIP3   OH238680   0.944   4.638   3.575
 5730TIP3    H138681   1.024   4.654   3.625
 5730TIP3    H238682   0.940   4.712   3.514
 5731TIP3   OH238683   5.317   5.141   2.509
 5731TIP3    H138684   5.324   5.186   2.425
 5731TIP3    H238685   5.223   5.132   2.524
 5732TIP3   OH238686   5.009   5.874   0.938
 5732TIP3    H138687   4.989   5.795   0.887
 5732TIP3    H238688   4.924   5.912   0.959
 5733TIP3   OH238689   0.707   5.826   0.615
 5733TIP3    H138690   0.773   5.867   0.559
 5733TIP3    H238691   0.654   5.773   0.556
 5734TIP3   OH238692   4.507   1.949   6.102
 5734TIP3    H138693   4.497   1.936   6.196
 5734TIP3    H238694   4.582   2.009   6.094
 5735TIP3   OH238695   1.074   1.945  13.122
 5735TIP3    H138696   1.007   1.877  13.108
 5735TIP3    H238697   1.156   1.896  13.129
 5736TIP3   OH238698   6.411   6.803   4.839
 5736TIP3    H138699   6.355   6.870   4.876
 5736TIP3    H238700   6.498   6.821   4.875
 5737TIP3   OH238701   1.277   1.761   2.577
 5737TIP3    H138702   1.243   1.844   2.543
 5737TIP3    H238703   1.345   1.788   2.639
 5738TIP3   OH238704   5.399   2.133   3.478
 5738TIP3    H138705   5.341   2.196   3.522
 5738TIP3    H238706   5.485   2.149   3.518
 5739TIP3   OH238707   5.832   3.698   4.767
 5739TIP3    H138708   5.773   3.773   4.771
 5739TIP3    H238709   5.782   3.626   4.806
 5740TIP3   OH238710   3.165   6.072  12.141
 5740TIP3    H138711   3.172   6.167  12.152
 5740TIP3    H238712   3.072   6.055  12.131
 5741TIP3   OH238713   1.682   2.922   3.412
 5741TIP3    H138714   1.612   2.912   3.347
 5741TIP3    H238715   1.636   2.941   3.494
 5742TIP3   OH238716   0.712   4.736  16.994
 5742TIP3    H138717   0.644   4.796  16.962
 5742TIP3    H238718   0.745   4.693  16.916
 5743TIP3   OH238719   1.944   3.893  14.430
 5743TIP3    H138720   1.984   3.864  14.512
 5743TIP3    H238721   1.901   3.815  14.395
 5744TIP3   OH238722   0.654   1.984   3.269
 5744TIP3    H138723   0.680   1.893   3.256
 5744TIP3    H238724   0.689   2.030   3.193
 5745TIP3   OH238725   2.638   4.863   5.240
 5745TIP3    H138726   2.587   4.941   5.218
 5745TIP3    H238727   2.690   4.888   5.316
 5746TIP3   OH238728   6.275   4.326   2.996
 5746TIP3    H138729   6.250   4.234   2.985
 5746TIP3    H238730   6.329   4.346   2.920
 5747TIP3   OH238731   4.134   3.557   5.037
 5747TIP3    H138732   4.227   3.533   5.035
 5747TIP3    H238733   4.116   3.575   5.129
 5748TIP3   OH238734   4.515   6.306  14.188
 5748TIP3    H138735   4.441   6.334  14.134
 5748TIP3    H238736   4.502   6.211  14.198
 5749TIP3   OH238737   5.915   3.037   5.716
 5749TIP3    H138738   5.838   3.073   5.760
 5749TIP3    H238739   5.927   3.093   5.640
 5750TIP3   OH238740   0.762   4.537  11.004
 5750TIP3    H138741   0.800   4.460  10.962
 5750TIP3    H238742   0.743   4.509  11.094
 5751TIP3   OH238743   0.805   5.037   2.525
 5751TIP3    H138744   0.748   5.096   2.476
 5751TIP3    H238745   0.873   5.094   2.561
 5752TIP3   OH238746   2.439   4.991  15.885
 5752TIP3    H138747   2.491   4.922  15.926
 5752TIP3    H238748   2.425   4.961  15.795
 5753TIP3   OH238749   2.446   1.115  15.222
 5753TIP3    H138750   2.443   1.066  15.304
 5753TIP3    H238751   2.429   1.050  15.154
 5754TIP3   OH238752   6.155   6.293   3.467
 5754TIP3    H138753   6.105   6.227   3.419
 5754TIP3    H238754   6.155   6.262   3.557
 5755TIP3   OH238755   0.073   1.064  14.585
 5755TIP3    H138756   0.047   1.156  14.583
 5755TIP3    H238757   0.144   1.060  14.649
 5756TIP3   OH238758   2.850   5.943  11.089
 5756TIP3    H138759   2.830   6.025  11.044
 5756TIP3    H238760   2.861   5.968  11.180
 5757TIP3   OH238761   3.459   1.410  16.653
 5757TIP3    H138762   3.483   1.480  16.591
 5757TIP3    H238763   3.370   1.385  16.628
 5758TIP3   OH238764   5.561   1.878  12.286
 5758TIP3    H138765   5.476   1.844  12.258
 5758TIP3    H238766   5.558   1.876  12.381
 5759TIP3   OH238767   0.969   0.693   3.398
 5759TIP3    H138768   1.030   0.754   3.356
 5759TIP3    H238769   1.010   0.672   3.482
 5760TIP3   OH238770   0.822   1.002  14.713
 5760TIP3    H138771   0.732   1.026  14.689
 5760TIP3    H238772   0.852   1.073  14.769
 5761TIP3   OH238773   0.423   1.346   5.544
 5761TIP3    H138774   0.475   1.413   5.588
 5761TIP3    H238775   0.452   1.263   5.581
 5762TIP3   OH238776   4.483   3.609  12.493
 5762TIP3    H138777   4.407   3.552  12.504
 5762TIP3    H238778   4.493   3.618  12.399
 5763TIP3   OH238779   4.846   3.635  11.263
 5763TIP3    H138780   4.942   3.635  11.272
 5763TIP3    H238781   4.818   3.720  11.296
 5764TIP3   OH238782   1.019   1.459   3.388
 5764TIP3    H138783   0.988   1.506   3.465
 5764TIP3    H238784   1.113   1.476   3.386
 5765TIP3   OH238785   2.019   0.148  13.661
 5765TIP3    H138786   1.996   0.187  13.745
 5765TIP3    H238787   1.945   0.091  13.640
 5766TIP3   OH238788   2.527   5.202  13.504
 5766TIP3    H138789   2.591   5.245  13.562
 5766TIP3    H238790   2.556   5.111  13.500
 5767TIP3   OH238791   0.662   4.959   4.580
 5767TIP3    H138792   0.608   4.933   4.654
 5767TIP3    H238793   0.713   5.033   4.612
 5768TIP3   OH238794   2.225   2.770  16.349
 5768TIP3    H138795   2.271   2.704  16.401
 5768TIP3    H238796   2.189   2.722  16.274
 5769TIP3   OH238797   4.686   6.228   1.737
 5769TIP3    H138798   4.781   6.241   1.734
 5769TIP3    H238799   4.654   6.297   1.796
 5770TIP3   OH238800   1.486   2.382  14.810
 5770TIP3    H138801   1.555   2.317  14.825
 5770TIP3    H238802   1.429   2.375  14.886
 5771TIP3   OH238803   2.690   4.907  16.680
 5771TIP3    H138804   2.620   4.883  16.619
 5771TIP3    H238805   2.746   4.966  16.630
 5772TIP3   OH238806   4.872   1.084  13.626
 5772TIP3    H138807   4.842   1.053  13.541
 5772TIP3    H238808   4.960   1.117  13.610
 5773TIP3   OH238809   2.199   6.594  12.465
 5773TIP3    H138810   2.200   6.500  12.445
 5773TIP3    H238811   2.149   6.601  12.546
 5774TIP3   OH238812   2.703   2.874   3.661
 5774TIP3    H138813   2.649   2.953   3.666
 5774TIP3    H238814   2.793   2.906   3.661
 5775TIP3   OH238815   0.012   1.256   5.068
 5775TIP3    H138816  -0.070   1.303   5.084
 5775TIP3    H238817  -0.010   1.190   5.003
 5776TIP3   OH238818   0.959   2.415   1.460
 5776TIP3    H138819   1.029   2.444   1.518
 5776TIP3    H238820   0.881   2.461   1.491
 5777TIP3   OH238821   6.102   0.280   4.167
 5777TIP3    H138822   6.192   0.249   4.160
 5777TIP3    H238823   6.053   0.204   4.196
 5778TIP3   OH238824   0.609   1.247  14.297
 5778TIP3    H138825   0.688   1.236  14.246
 5778TIP3    H238826   0.639   1.285  14.380
 5779TIP3   OH238827   3.590   3.792  12.209
 5779TIP3    H138828   3.649   3.861  12.240
 5779TIP3    H238829   3.637   3.711  12.229
 5780TIP3   OH238830   6.791   6.568  16.012
 5780TIP3    H138831   6.723   6.582  16.079
 5780TIP3    H238832   6.859   6.632  16.033
 5781TIP3   OH238833   6.665   4.805   4.469
 5781TIP3    H138834   6.732   4.779   4.406
 5781TIP3    H238835   6.651   4.727   4.522
 5782TIP3   OH238836   4.076   0.197  15.746
 5782TIP3    H138837   4.085   0.128  15.812
 5782TIP3    H238838   4.000   0.248  15.774
 5783TIP3   OH238839   2.169   2.394   2.959
 5783TIP3    H138840   2.233   2.388   3.031
 5783TIP3    H238841   2.212   2.448   2.893
 5784TIP3   OH238842   2.120   1.354  11.127
 5784TIP3    H138843   2.101   1.260  11.120
 5784TIP3    H238844   2.213   1.358  11.148
 5785TIP3   OH238845   1.044   5.446  15.148
 5785TIP3    H138846   0.991   5.418  15.223
 5785TIP3    H238847   0.984   5.440  15.073
 5786TIP3   OH238848   1.240   1.681   0.490
 5786TIP3    H138849   1.189   1.627   0.429
 5786TIP3    H238850   1.187   1.759   0.503
 5787TIP3   OH238851   6.178   5.286  17.015
 5787TIP3    H138852   6.153   5.243  17.097
 5787TIP3    H238853   6.180   5.215  16.950
 5788TIP3   OH238854   2.442   5.044   3.097
 5788TIP3    H138855   2.403   5.073   3.180
 5788TIP3    H238856   2.435   4.949   3.100
 5789TIP3   OH238857   5.215   1.713  13.201
 5789TIP3    H138858   5.265   1.789  13.171
 5789TIP3    H238859   5.226   1.648  13.132
 5790TIP3   OH238860   5.076   1.066  16.716
 5790TIP3    H138861   5.000   1.009  16.723
 5790TIP3    H238862   5.055   1.125  16.642
 5791TIP3   OH238863   5.047   2.920  13.768
 5791TIP3    H138864   5.068   2.934  13.675
 5791TIP3    H238865   5.072   3.002  13.810
 5792TIP3   OH238866   0.465   3.669  16.221
 5792TIP3    H138867   0.411   3.605  16.266
 5792TIP3    H238868   0.475   3.634  16.132
 5793TIP3   OH238869   2.051   4.315   4.557
 5793TIP3    H138870   2.019   4.402   4.532
 5793TIP3    H238871   1.994   4.288   4.629
 5794TIP3   OH238872   0.019   6.343  14.221
 5794TIP3    H138873   0.017   6.264  14.167
 5794TIP3    H238874  -0.070   6.378  14.216
 5795TIP3   OH238875   1.014   6.430   4.623
 5795TIP3    H138876   0.981   6.409   4.711
 5795TIP3    H238877   0.986   6.357   4.569
 5796TIP3   OH238878   0.856   1.636  14.672
 5796TIP3    H138879   0.809   1.565  14.717
 5796TIP3    H238880   0.881   1.599  14.588
 5797TIP3   OH238881   1.482   5.130   6.805
 5797TIP3    H138882   1.492   5.224   6.820
 5797TIP3    H238883   1.422   5.123   6.731
 5798TIP3   OH238884   5.809   6.720   4.133
 5798TIP3    H138885   5.796   6.710   4.039
 5798TIP3    H238886   5.859   6.642   4.158
 5799TIP3   OH238887   4.579   4.328   4.337
 5799TIP3    H138888   4.498   4.280   4.353
 5799TIP3    H238889   4.642   4.262   4.309
 5800TIP3   OH238890   6.066   0.073   6.218
 5800TIP3    H138891   6.123   0.143   6.186
 5800TIP3    H238892   6.058   0.089   6.312
 5801TIP3   OH238893   4.978   5.159   4.442
 5801TIP3    H138894   5.070   5.132   4.437
 5801TIP3    H238895   4.934   5.087   4.487
 5802TIP3   OH238896   3.598   6.618  13.163
 5802TIP3    H138897   3.541   6.588  13.092
 5802TIP3    H238898   3.674   6.560  13.159
 5803TIP3   OH238899   3.825   3.019   3.362
 5803TIP3    H138900   3.754   2.956   3.369
 5803TIP3    H238901   3.850   3.017   3.269
 5804TIP3   OH238902   3.709   2.941  14.844
 5804TIP3    H138903   3.785   2.964  14.790
 5804TIP3    H238904   3.733   2.860  14.887
 5805TIP3   OH238905   1.444   5.885   5.054
 5805TIP3    H138906   1.487   5.814   5.006
 5805TIP3    H238907   1.462   5.964   5.001
 5806TIP3   OH238908   3.877   0.444  12.642
 5806TIP3    H138909   3.858   0.517  12.582
 5806TIP3    H238910   3.966   0.460  12.671
 5807TIP3   OH238911   1.574   3.128  17.189
 5807TIP3    H138912   1.517   3.051  17.193
 5807TIP3    H238913   1.603   3.132  17.098
 5808TIP3   OH238914   3.949   5.451   2.870
 5808TIP3    H138915   4.008   5.483   2.938
 5808TIP3    H238916   3.960   5.511   2.797
 5809TIP3   OH238917   5.154   5.001  12.104
 5809TIP3    H138918   5.231   4.992  12.160
 5809TIP3    H238919   5.150   4.920  12.054
 5810TIP3   OH238920   6.198   2.812  14.046
 5810TIP3    H138921   6.195   2.889  13.989
 5810TIP3    H238922   6.219   2.848  14.133
 5811TIP3   OH238923   4.704   5.921   0.792
 5811TIP3    H138924   4.751   5.970   0.725
 5811TIP3    H238925   4.749   5.942   0.874
 5812TIP3   OH238926   6.529   5.710  16.072
 5812TIP3    H138927   6.500   5.756  16.151
 5812TIP3    H238928   6.595   5.768  16.034
 5813TIP3   OH238929   5.606   5.757   2.850
 5813TIP3    H138930   5.525   5.708   2.864
 5813TIP3    H238931   5.600   5.788   2.759
 5814TIP3   OH238932   6.742   1.292  11.745
 5814TIP3    H138933   6.751   1.197  11.752
 5814TIP3    H238934   6.823   1.327  11.783
 5815TIP3   OH238935   1.241   5.891   3.508
 5815TIP3    H138936   1.281   5.893   3.421
 5815TIP3    H238937   1.148   5.877   3.491
 5816TIP3   OH238938   4.744   1.322  14.515
 5816TIP3    H138939   4.772   1.374  14.590
 5816TIP3    H238940   4.802   1.351  14.444
 5817TIP3   OH238941   1.533   4.350  10.963
 5817TIP3    H138942   1.550   4.443  10.976
 5817TIP3    H238943   1.511   4.343  10.870
 5818TIP3   OH238944   0.237   2.999  15.926
 5818TIP3    H138945   0.208   3.066  15.864
 5818TIP3    H238946   0.322   3.029  15.957
 5819TIP3   OH238947   1.912   5.485   0.528
 5819TIP3    H138948   1.887   5.571   0.561
 5819TIP3    H238949   1.838   5.428   0.550
 5820TIP3   OH238950   5.089   6.027  12.777
 5820TIP3    H138951   5.016   6.033  12.715
 5820TIP3    H238952   5.166   6.010  12.721
 5821TIP3   OH238953   6.513   1.885  12.187
 5821TIP3    H138954   6.511   1.981  12.189
 5821TIP3    H238955   6.539   1.860  12.276
 5822TIP3   OH238956   2.269   3.833   5.426
 5822TIP3    H138957   2.212   3.767   5.464
 5822TIP3    H238958   2.335   3.784   5.377
 5823TIP3   OH238959   2.144   0.203  16.584
 5823TIP3    H138960   2.111   0.229  16.669
 5823TIP3    H238961   2.115   0.272  16.524
 5824TIP3   OH238962   0.308   3.060   3.494
 5824TIP3    H138963   0.328   3.021   3.579
 5824TIP3    H238964   0.313   3.154   3.509
 5825TIP3   OH238965   1.117   3.782  13.485
 5825TIP3    H138966   1.209   3.795  13.508
 5825TIP3    H238967   1.076   3.754  13.566
 5826TIP3   OH238968   5.420   2.737   3.471
 5826TIP3    H138969   5.413   2.722   3.377
 5826TIP3    H238970   5.462   2.658   3.505
 5827TIP3   OH238971   5.126   5.812   3.400
 5827TIP3    H138972   5.055   5.875   3.401
 5827TIP3    H238973   5.124   5.772   3.487
 5828TIP3   OH238974   6.606   2.217   1.578
 5828TIP3    H138975   6.589   2.130   1.612
 5828TIP3    H238976   6.533   2.270   1.610
 5829TIP3   OH238977   3.820   4.716  14.459
 5829TIP3    H138978   3.755   4.778  14.427
 5829TIP3    H238979   3.770   4.637  14.479
 5830TIP3   OH238980   0.357   3.095  12.185
 5830TIP3    H138981   0.356   3.173  12.131
 5830TIP3    H238982   0.372   3.023  12.124
 5831TIP3   OH238983   6.093   2.696   4.389
 5831TIP3    H138984   6.165   2.736   4.437
 5831TIP3    H238985   6.065   2.622   4.444
 5832TIP3   OH238986   6.518   4.105   0.507
 5832TIP3    H138987   6.506   4.139   0.418
 5832TIP3    H238988   6.529   4.184   0.560
 5833TIP3   OH238989   4.305   5.076  13.176
 5833TIP3    H138990   4.278   5.157  13.219
 5833TIP3    H238991   4.345   5.024  13.246
 5834TIP3   OH238992   0.421   5.583   2.741
 5834TIP3    H138993   0.350   5.639   2.773
 5834TIP3    H238994   0.432   5.608   2.650
 5835TIP3   OH238995   1.927   2.152  11.032
 5835TIP3    H138996   1.856   2.213  11.013
 5835TIP3    H238997   1.990   2.166  10.961
 5836TIP3   OH238998   3.787   5.425  15.648
 5836TIP3    H138999   3.743   5.392  15.726
 5836TIP3    H239000   3.720   5.424  15.580
 5837TIP3   OH239001   4.018   0.536   0.130
 5837TIP3    H139002   4.011   0.451   0.085
 5837TIP3    H239003   3.935   0.579   0.113
 5838TIP3   OH239004   4.141   1.402  13.822
 5838TIP3    H139005   4.192   1.404  13.740
 5838TIP3    H239006   4.130   1.310  13.841
 5839TIP3   OH239007   6.227   5.455   0.245
 5839TIP3    H139008   6.191   5.408   0.170
 5839TIP3    H239009   6.156   5.459   0.309
 5840TIP3   OH239010   4.791   1.758   1.103
 5840TIP3    H139011   4.796   1.795   1.191
 5840TIP3    H239012   4.795   1.834   1.045
 5841TIP3   OH239013   4.736   0.982   5.025
 5841TIP3    H139014   4.728   1.003   5.118
 5841TIP3    H239015   4.804   1.040   4.993
 5842TIP3   OH239016   0.516   3.517   5.191
 5842TIP3    H139017   0.536   3.424   5.197
 5842TIP3    H239018   0.555   3.544   5.108
 5843TIP3   OH239019   1.649   3.064  15.250
 5843TIP3    H139020   1.738   3.032  15.269
 5843TIP3    H239021   1.648   3.154  15.281
 5844TIP3   OH239022   2.643   5.916   4.424
 5844TIP3    H139023   2.645   5.823   4.401
 5844TIP3    H239024   2.588   5.920   4.502
 5845TIP3   OH239025   0.882   6.163   5.750
 5845TIP3    H139026   0.811   6.219   5.780
 5845TIP3    H239027   0.840   6.104   5.687
 5846TIP3   OH239028   4.463   1.922   6.386
 5846TIP3    H139029   4.477   1.828   6.400
 5846TIP3    H239030   4.405   1.948   6.458
 5847TIP3   OH239031   5.866   2.660   2.770
 5847TIP3    H139032   5.925   2.588   2.792
 5847TIP3    H239033   5.787   2.617   2.736
 5848TIP3   OH239034   1.184   2.411  15.804
 5848TIP3    H139035   1.140   2.397  15.720
 5848TIP3    H239036   1.231   2.329  15.820
 5849TIP3   OH239037   5.194   0.440  12.129
 5849TIP3    H139038   5.132   0.367  12.125
 5849TIP3    H239039   5.266   0.414  12.071
 5850TIP3   OH239040   3.066   2.381  14.521
 5850TIP3    H139041   2.984   2.379  14.471
 5850TIP3    H239042   3.111   2.460  14.490
 5851TIP3   OH239043   0.100   4.033   5.378
 5851TIP3    H139044   0.135   3.979   5.448
 5851TIP3    H239045   0.177   4.056   5.325
 5852TIP3   OH239046   1.751   1.937  12.758
 5852TIP3    H139047   1.736   1.870  12.691
 5852TIP3    H239048   1.846   1.950  12.758
 5853TIP3   OH239049   3.546   4.175  10.967
 5853TIP3    H139050   3.458   4.210  10.983
 5853TIP3    H239051   3.572   4.214  10.883
 5854TIP3   OH239052   4.977   4.990  15.406
 5854TIP3    H139053   4.949   4.912  15.453
 5854TIP3    H239054   4.945   5.063  15.459
 5855TIP3   OH239055   0.656   4.991   1.397
 5855TIP3    H139056   0.615   5.010   1.312
 5855TIP3    H239057   0.582   4.977   1.456
 5856TIP3   OH239058   6.200   4.586  13.917
 5856TIP3    H139059   6.110   4.565  13.894
 5856TIP3    H239060   6.194   4.667  13.967
 5857TIP3   OH239061   0.919   3.303  15.300
 5857TIP3    H139062   0.965   3.219  15.303
 5857TIP3    H239063   0.969   3.360  15.358
 5858TIP3   OH239064   5.053   4.231   1.663
 5858TIP3    H139065   4.976   4.278   1.629
 5858TIP3    H239066   5.016   4.158   1.712
 5859TIP3   OH239067   2.031   2.104   3.712
 5859TIP3    H139068   2.050   2.141   3.798
 5859TIP3    H239069   2.115   2.071   3.681
 5860TIP3   OH239070   0.179   5.486  12.890
 5860TIP3    H139071   0.174   5.517  12.980
 5860TIP3    H239072   0.145   5.396  12.894
 5861TIP3   OH239073   4.713   3.594   1.412
 5861TIP3    H139074   4.746   3.680   1.435
 5861TIP3    H239075   4.671   3.606   1.327
 5862TIP3   OH239076   3.805   2.155  11.198
 5862TIP3    H139077   3.843   2.116  11.119
 5862TIP3    H239078   3.877   2.160  11.260
 5863TIP3   OH239079   6.674   3.601  15.976
 5863TIP3    H139080   6.718   3.612  16.061
 5863TIP3    H239081   6.700   3.513  15.947
 5864TIP3   OH239082   3.443   3.380   3.873
 5864TIP3    H139083   3.484   3.295   3.858
 5864TIP3    H239084   3.438   3.387   3.969
 5865TIP3   OH239085   1.197   2.049  12.893
 5865TIP3    H139086   1.279   2.066  12.939
 5865TIP3    H239087   1.138   2.018  12.961
 5866TIP3   OH239088   2.199   4.362  15.260
 5866TIP3    H139089   2.142   4.408  15.322
 5866TIP3    H239090   2.143   4.341  15.186
 5867TIP3   OH239091   6.059   6.771   2.036
 5867TIP3    H139092   6.051   6.865   2.050
 5867TIP3    H239093   6.115   6.740   2.107
 5868TIP3   OH239094   2.606   6.080   0.065
 5868TIP3    H139095   2.574   6.170   0.058
 5868TIP3    H239096   2.532   6.026   0.038
 5869TIP3   OH239097   1.707   2.295   2.481
 5869TIP3    H139098   1.681   2.285   2.389
 5869TIP3    H239099   1.757   2.377   2.483
 5870TIP3   OH239100   3.733   5.708   5.749
 5870TIP3    H139101   3.698   5.791   5.716
 5870TIP3    H239102   3.656   5.655   5.767
 5871TIP3   OH239103   5.932   5.237  16.280
 5871TIP3    H139104   5.939   5.238  16.376
 5871TIP3    H239105   5.838   5.243  16.264
 5872TIP3   OH239106   4.228   4.015  13.406
 5872TIP3    H139107   4.235   4.072  13.483
 5872TIP3    H239108   4.146   3.967  13.419
 5873TIP3   OH239109   3.058   3.858   1.078
 5873TIP3    H139110   2.996   3.818   1.017
 5873TIP3    H239111   3.055   3.951   1.058
 5874TIP3   OH239112   5.022   0.939  12.216
 5874TIP3    H139113   5.036   0.865  12.156
 5874TIP3    H239114   4.994   0.898  12.298
 5875TIP3   OH239115   0.667   3.995   5.872
 5875TIP3    H139116   0.642   4.082   5.840
 5875TIP3    H239117   0.583   3.950   5.885
 5876TIP3   OH239118   0.031   1.875  15.003
 5876TIP3    H139119  -0.063   1.860  14.999
 5876TIP3    H239120   0.055   1.855  15.094
 5877TIP3   OH239121   0.463   3.833   0.735
 5877TIP3    H139122   0.399   3.769   0.704
 5877TIP3    H239123   0.470   3.897   0.664
 5878TIP3   OH239124   5.520   1.025  12.084
 5878TIP3    H139125   5.436   1.055  12.119
 5878TIP3    H239126   5.533   1.077  12.005
 5879TIP3   OH239127   1.279   5.329  11.638
 5879TIP3    H139128   1.314   5.266  11.575
 5879TIP3    H239129   1.278   5.282  11.722
 5880TIP3   OH239130   0.483   6.265   5.722
 5880TIP3    H139131   0.521   6.344   5.683
 5880TIP3    H239132   0.442   6.296   5.803
 5881TIP3   OH239133   4.512   1.631   4.154
 5881TIP3    H139134   4.489   1.599   4.241
 5881TIP3    H239135   4.608   1.626   4.152
 5882TIP3   OH239136   5.647   1.879   1.159
 5882TIP3    H139137   5.574   1.843   1.108
 5882TIP3    H239138   5.699   1.803   1.183
 5883TIP3   OH239139   1.249   5.681  10.601
 5883TIP3    H139140   1.186   5.634  10.656
 5883TIP3    H239141   1.276   5.617  10.536
 5884TIP3   OH239142   2.920   4.335   5.259
 5884TIP3    H139143   2.883   4.272   5.198
 5884TIP3    H239144   2.935   4.285   5.339
 5885TIP3   OH239145   2.112   5.630   2.890
 5885TIP3    H139146   2.105   5.709   2.836
 5885TIP3    H239147   2.064   5.564   2.841
 5886TIP3   OH239148   3.906   6.446   5.229
 5886TIP3    H139149   3.935   6.525   5.183
 5886TIP3    H239150   3.985   6.411   5.270
 5887TIP3   OH239151   2.497   3.239   0.738
 5887TIP3    H139152   2.470   3.161   0.689
 5887TIP3    H239153   2.423   3.257   0.797
 5888TIP3   OH239154   6.340   6.084   2.566
 5888TIP3    H139155   6.288   6.008   2.592
 5888TIP3    H239156   6.397   6.052   2.496
 5889TIP3   OH239157   5.359   4.374   0.570
 5889TIP3    H139158   5.345   4.280   0.568
 5889TIP3    H239159   5.278   4.409   0.608
 5890TIP3   OH239160   3.385   2.780   4.215
 5890TIP3    H139161   3.292   2.789   4.196
 5890TIP3    H239162   3.426   2.853   4.168
 5891TIP3   OH239163   0.073   0.769  12.654
 5891TIP3    H139164   0.159   0.728  12.663
 5891TIP3    H239165   0.015   0.699  12.623
 5892TIP3   OH239166   3.673   1.970  14.176
 5892TIP3    H139167   3.690   1.991  14.084
 5892TIP3    H239168   3.721   2.038  14.225
 5893TIP3   OH239169   0.050   2.336   1.688
 5893TIP3    H139170   0.023   2.354   1.598
 5893TIP3    H239171  -0.027   2.296   1.729
 5894TIP3   OH239172   6.691   2.712  16.421
 5894TIP3    H139173   6.618   2.655  16.444
 5894TIP3    H239174   6.685   2.722  16.326
 5895TIP3   OH239175   4.396   6.319   1.166
 5895TIP3    H139176   4.474   6.297   1.116
 5895TIP3    H239177   4.429   6.351   1.250
 5896TIP3   OH239178   4.671   0.483  15.203
 5896TIP3    H139179   4.639   0.437  15.281
 5896TIP3    H239180   4.765   0.464  15.202
 5897TIP3   OH239181   2.872   3.783  12.191
 5897TIP3    H139182   2.788   3.745  12.216
 5897TIP3    H239183   2.863   3.876  12.211
 5898TIP3   OH239184   3.033   0.527  15.446
 5898TIP3    H139185   2.954   0.492  15.486
 5898TIP3    H239186   3.104   0.495  15.502
 5899TIP3   OH239187   2.630   4.421   0.780
 5899TIP3    H139188   2.699   4.370   0.737
 5899TIP3    H239189   2.551   4.367   0.770
 5900TIP3   OH239190   6.219   4.377  15.695
 5900TIP3    H139191   6.194   4.286  15.677
 5900TIP3    H239192   6.280   4.371  15.768
 5901TIP3   OH239193   4.202   0.901  14.120
 5901TIP3    H139194   4.151   0.822  14.100
 5901TIP3    H239195   4.247   0.880  14.202
 5902TIP3   OH239196   5.048   0.220  12.864
 5902TIP3    H139197   5.103   0.181  12.931
 5902TIP3    H239198   5.002   0.292  12.909
 5903TIP3   OH239199   1.820   4.118   5.936
 5903TIP3    H139200   1.884   4.188   5.949
 5903TIP3    H239201   1.844   4.051   6.000
 5904TIP3   OH239202   3.696   4.941   5.079
 5904TIP3    H139203   3.652   4.865   5.118
 5904TIP3    H239204   3.628   5.008   5.073
 5905TIP3   OH239205   4.540   6.249  17.026
 5905TIP3    H139206   4.501   6.305  17.093
 5905TIP3    H239207   4.633   6.273  17.025
 5906TIP3   OH239208   3.068   6.776   5.929
 5906TIP3    H139209   3.099   6.699   5.881
 5906TIP3    H239210   3.105   6.765   6.017
 5907TIP3   OH239211   4.516   3.871   2.023
 5907TIP3    H139212   4.474   3.854   1.938
 5907TIP3    H239213   4.534   3.965   2.022
 5908TIP3   OH239214   4.551   2.623   1.135
 5908TIP3    H139215   4.635   2.597   1.172
 5908TIP3    H239216   4.518   2.543   1.093
 5909TIP3   OH239217   6.811   3.257   0.724
 5909TIP3    H139218   6.720   3.285   0.718
 5909TIP3    H239219   6.844   3.301   0.803
 5910TIP3   OH239220   6.185   0.842   3.958
 5910TIP3    H139221   6.253   0.892   4.005
 5910TIP3    H239222   6.229   0.809   3.880
 5911TIP3   OH239223   0.600   2.281  14.607
 5911TIP3    H139224   0.654   2.359  14.597
 5911TIP3    H239225   0.544   2.299  14.682
 5912TIP3   OH239226   3.480   0.503  11.294
 5912TIP3    H139227   3.396   0.550  11.291
 5912TIP3    H239228   3.459   0.417  11.330
 5913TIP3   OH239229   0.966   6.348  13.279
 5913TIP3    H139230   1.036   6.356  13.344
 5913TIP3    H239231   0.946   6.255  13.277
 5914TIP3   OH239232   0.147   0.808   1.620
 5914TIP3    H139233   0.225   0.789   1.567
 5914TIP3    H239234   0.123   0.724   1.659
 5915TIP3   OH239235   0.044   3.398   3.553
 5915TIP3    H139236   0.053   3.310   3.589
 5915TIP3    H239237   0.124   3.411   3.502
 5916TIP3   OH239238   5.130   1.872  15.504
 5916TIP3    H139239   5.144   1.779  15.484
 5916TIP3    H239240   5.218   1.909  15.511
 5917TIP3   OH239241   1.674   3.868   3.476
 5917TIP3    H139242   1.618   3.834   3.546
 5917TIP3    H239243   1.645   3.959   3.465
 5918TIP3   OH239244   0.262   3.506   4.711
 5918TIP3    H139245   0.314   3.585   4.698
 5918TIP3    H239246   0.171   3.537   4.710
 5919TIP3   OH239247   3.954   0.228   4.336
 5919TIP3    H139248   3.909   0.312   4.344
 5919TIP3    H239249   3.925   0.194   4.251
 5920TIP3   OH239250   2.313   6.787   1.572
 5920TIP3    H139251   2.300   6.694   1.556
 5920TIP3    H239252   2.227   6.819   1.600
 5921TIP3   OH239253   3.663   4.890   6.132
 5921TIP3    H139254   3.758   4.880   6.131
 5921TIP3    H239255   3.646   4.970   6.083
 5922TIP3   OH239256   6.347   1.676   0.136
 5922TIP3    H139257   6.442   1.684   0.139
 5922TIP3    H239258   6.315   1.766   0.142
 5923TIP3   OH239259   1.474   2.809  14.632
 5923TIP3    H139260   1.444   2.826  14.721
 5923TIP3    H239261   1.534   2.735  14.640
 5924TIP3   OH239262   4.496   6.444  16.593
 5924TIP3    H139263   4.549   6.510  16.550
 5924TIP3    H239264   4.447   6.493  16.660
 5925TIP3   OH239265   2.484   5.297   0.187
 5925TIP3    H139266   2.468   5.274   0.279
 5925TIP3    H239267   2.396   5.306   0.150
 5926TIP3   OH239268   4.438   4.530  12.572
 5926TIP3    H139269   4.374   4.548  12.642
 5926TIP3    H239270   4.487   4.612  12.563
 5927TIP3   OH239271   3.069   1.061  12.139
 5927TIP3    H139272   3.012   1.000  12.187
 5927TIP3    H239273   3.145   1.008  12.114
 5928TIP3   OH239274   4.149   2.924  12.271
 5928TIP3    H139275   4.125   2.862  12.203
 5928TIP3    H239276   4.069   2.975  12.287
 5929TIP3   OH239277   2.651   0.670  16.482
 5929TIP3    H139278   2.643   0.740  16.547
 5929TIP3    H239279   2.563   0.661  16.446
 5930TIP3   OH239280   0.809   6.647   2.800
 5930TIP3    H139281   0.863   6.611   2.870
 5930TIP3    H239282   0.760   6.573   2.766
 5931TIP3   OH239283   1.279   2.662  13.093
 5931TIP3    H139284   1.189   2.691  13.110
 5931TIP3    H239285   1.268   2.579  13.045
 5932TIP3   OH239286   6.236   5.284   2.414
 5932TIP3    H139287   6.234   5.257   2.506
 5932TIP3    H239288   6.146   5.272   2.384
 5933TIP3   OH239289   2.798   1.905  16.488
 5933TIP3    H139290   2.818   1.987  16.443
 5933TIP3    H239291   2.795   1.840  16.418
 5934TIP3   OH239292   5.966   5.227   3.590
 5934TIP3    H139293   5.990   5.316   3.565
 5934TIP3    H239294   5.995   5.218   3.680
 5935TIP3   OH239295   1.307   1.758   3.060
 5935TIP3    H139296   1.257   1.731   2.984
 5935TIP3    H239297   1.398   1.756   3.031
 5936TIP3   OH239298   0.874   1.377   4.876
 5936TIP3    H139299   0.820   1.394   4.953
 5936TIP3    H239300   0.963   1.402   4.902
 5937TIP3   OH239301   1.856   6.093  15.521
 5937TIP3    H139302   1.924   6.026  15.526
 5937TIP3    H239303   1.775   6.043  15.504
 5938TIP3   OH239304   4.224   2.239  13.293
 5938TIP3    H139305   4.230   2.331  13.265
 5938TIP3    H239306   4.135   2.213  13.272
 5939TIP3   OH239307   2.004   4.391   2.871
 5939TIP3    H139308   1.999   4.451   2.945
 5939TIP3    H239309   1.984   4.305   2.910
 5940TIP3   OH239310   4.264   2.400  10.642
 5940TIP3    H139311   4.225   2.476  10.598
 5940TIP3    H239312   4.222   2.325  10.601
 5941TIP3   OH239313   1.063   3.572  15.288
 5941TIP3    H139314   0.980   3.618  15.295
 5941TIP3    H239315   1.109   3.615  15.216
 5942TIP3   OH239316   6.107   2.000  14.304
 5942TIP3    H139317   6.082   2.056  14.377
 5942TIP3    H239318   6.133   2.060  14.235
 5943TIP3   OH239319   2.001   0.181  12.875
 5943TIP3    H139320   2.005   0.142  12.963
 5943TIP3    H239321   1.965   0.268  12.889
 5944TIP3   OH239322   3.802   1.047   0.325
 5944TIP3    H139323   3.733   1.086   0.379
 5944TIP3    H239324   3.798   1.096   0.243
 5945TIP3   OH239325   4.986   2.863   5.164
 5945TIP3    H139326   4.898   2.831   5.183
 5945TIP3    H239327   4.972   2.939   5.108
 5946TIP3   OH239328   6.112   6.148   2.084
 5946TIP3    H139329   6.140   6.238   2.066
 5946TIP3    H239330   6.021   6.157   2.113
 5947TIP3   OH239331   5.617   1.862  14.816
 5947TIP3    H139332   5.706   1.886  14.840
 5947TIP3    H239333   5.611   1.881  14.722
 5948TIP3   OH239334   6.391   2.050  13.911
 5948TIP3    H139335   6.436   2.038  13.827
 5948TIP3    H239336   6.385   2.145  13.922
 5949TIP3   OH239337   6.528   4.531  14.115
 5949TIP3    H139338   6.518   4.552  14.022
 5949TIP3    H239339   6.609   4.574  14.141
 5950TIP3   OH239340   6.690   3.239   4.143
 5950TIP3    H139341   6.746   3.308   4.106
 5950TIP3    H239342   6.720   3.231   4.234
 5951TIP3   OH239343   2.653   5.861  16.698
 5951TIP3    H139344   2.618   5.871  16.786
 5951TIP3    H239345   2.740   5.823  16.711
 5952TIP3   OH239346   1.137   0.965  16.315
 5952TIP3    H139347   1.073   0.901  16.348
 5952TIP3    H239348   1.123   1.043  16.370
 5953TIP3   OH239349   2.216   4.701   4.309
 5953TIP3    H139350   2.296   4.712   4.360
 5953TIP3    H239351   2.145   4.721   4.371
 5954TIP3   OH239352   3.308   3.398   4.383
 5954TIP3    H139353   3.264   3.380   4.300
 5954TIP3    H239354   3.242   3.380   4.449
 5955TIP3   OH239355   2.113   0.286  14.406
 5955TIP3    H139356   2.064   0.238  14.474
 5955TIP3    H239357   2.196   0.239  14.399
 5956TIP3   OH239358   0.037   3.987  14.998
 5956TIP3    H139359   0.034   3.920  14.929
 5956TIP3    H239360   0.046   4.070  14.951
 5957TIP3   OH239361   4.368   1.678  14.673
 5957TIP3    H139362   4.272   1.681  14.683
 5957TIP3    H239363   4.401   1.692  14.761
 5958TIP3   OH239364   1.527   3.601  15.705
 5958TIP3    H139365   1.519   3.552  15.623
 5958TIP3    H239366   1.561   3.686  15.678
 5959TIP3   OH239367   0.116   3.294   2.644
 5959TIP3    H139368   0.159   3.327   2.722
 5959TIP3    H239369   0.109   3.200   2.658
 5960TIP3   OH239370   4.613   4.589   0.297
 5960TIP3    H139371   4.540   4.577   0.358
 5960TIP3    H239372   4.604   4.517   0.234
 5961TIP3   OH239373   4.058   5.166  11.320
 5961TIP3    H139374   4.128   5.229  11.340
 5961TIP3    H239375   3.996   5.216  11.267
 5962TIP3   OH239376   1.828   5.737   0.051
 5962TIP3    H139377   1.777   5.657   0.036
 5962TIP3    H239378   1.762   5.806   0.060
 5963TIP3   OH239379   1.723   1.673   3.958
 5963TIP3    H139380   1.797   1.614   3.944
 5963TIP3    H239381   1.646   1.615   3.956
 5964TIP3   OH239382   2.546   3.319   1.998
 5964TIP3    H139383   2.635   3.352   1.987
 5964TIP3    H239384   2.510   3.372   2.069
 5965TIP3   OH239385   3.345   2.223  15.202
 5965TIP3    H139386   3.332   2.224  15.107
 5965TIP3    H239387   3.388   2.306  15.222
 5966TIP3   OH239388   3.924   2.654   5.693
 5966TIP3    H139389   3.934   2.745   5.664
 5966TIP3    H239390   3.929   2.659   5.788
 5967TIP3   OH239391   5.807   4.630  13.240
 5967TIP3    H139392   5.788   4.660  13.151
 5967TIP3    H239393   5.892   4.669  13.261
 5968TIP3   OH239394   0.121   1.388   4.570
 5968TIP3    H139395   0.170   1.317   4.610
 5968TIP3    H239396   0.101   1.357   4.482
 5969TIP3   OH239397   6.404   0.736   3.767
 5969TIP3    H139398   6.472   0.720   3.702
 5969TIP3    H239399   6.441   0.702   3.849
 5970TIP3   OH239400   2.515   5.707  15.764
 5970TIP3    H139401   2.555   5.679  15.846
 5970TIP3    H239402   2.474   5.791  15.785
 5971TIP3   OH239403   4.352   3.908  14.487
 5971TIP3    H139404   4.302   3.898  14.406
 5971TIP3    H239405   4.302   3.971  14.539
 5972TIP3   OH239406   4.067   0.837  15.511
 5972TIP3    H139407   3.996   0.901  15.509
 5972TIP3    H239408   4.145   0.886  15.486
 5973TIP3   OH239409   1.488   3.562   1.812
 5973TIP3    H139410   1.483   3.657   1.803
 5973TIP3    H239411   1.538   3.547   1.892
 5974TIP3   OH239412   0.770   2.525   3.127
 5974TIP3    H139413   0.815   2.489   3.203
 5974TIP3    H239414   0.832   2.588   3.090
 5975TIP3   OH239415   4.467   3.806   5.976
 5975TIP3    H139416   4.417   3.846   5.906
 5975TIP3    H239417   4.551   3.782   5.936
 5976TIP3   OH239418   2.352   6.522  15.738
 5976TIP3    H139419   2.344   6.562  15.651
 5976TIP3    H239420   2.276   6.555  15.786
 5977TIP3   OH239421   4.252   0.688  16.431
 5977TIP3    H139422   4.268   0.623  16.499
 5977TIP3    H239423   4.164   0.721  16.449
 5978TIP3   OH239424   5.856   3.022   1.029
 5978TIP3    H139425   5.904   3.083   0.973
 5978TIP3    H239426   5.885   3.042   1.118
 5979TIP3   OH239427   0.098   5.458  12.499
 5979TIP3    H139428   0.097   5.529  12.563
 5979TIP3    H239429   0.045   5.389  12.538
 5980TIP3   OH239430   6.305   1.445   0.808
 5980TIP3    H139431   6.246   1.422   0.737
 5980TIP3    H239432   6.391   1.413   0.781
 5981TIP3   OH239433   2.069   5.714  16.543
 5981TIP3    H139434   2.132   5.667  16.488
 5981TIP3    H239435   2.048   5.652  16.613
 5982TIP3   OH239436   4.987   3.964   3.807
 5982TIP3    H139437   4.961   4.055   3.826
 5982TIP3    H239438   4.964   3.951   3.715
 5983TIP3   OH239439   2.957   3.760   2.723
 5983TIP3    H139440   3.042   3.801   2.739
 5983TIP3    H239441   2.942   3.704   2.800
 5984TIP3   OH239442   2.068   0.302   5.869
 5984TIP3    H139443   2.044   0.225   5.920
 5984TIP3    H239444   1.991   0.359   5.872
 5985TIP3   OH239445   5.499   0.335   4.068
 5985TIP3    H139446   5.458   0.336   4.155
 5985TIP3    H239447   5.574   0.276   4.077
 5986TIP3   OH239448   0.411   2.952   4.008
 5986TIP3    H139449   0.403   2.870   4.056
 5986TIP3    H239450   0.466   3.008   4.064
 5987TIP3   OH239451   2.194   3.203   4.301
 5987TIP3    H139452   2.139   3.214   4.379
 5987TIP3    H239453   2.274   3.253   4.320
 5988TIP3   OH239454   4.958   6.364  16.084
 5988TIP3    H139455   4.889   6.302  16.110
 5988TIP3    H239456   4.932   6.394  15.997
 5989TIP3   OH239457   0.660   2.027  12.404
 5989TIP3    H139458   0.589   2.090  12.394
 5989TIP3    H239459   0.634   1.953  12.350
 5990TIP3   OH239460   1.494   6.732  15.688
 5990TIP3    H139461   1.570   6.676  15.704
 5990TIP3    H239462   1.531   6.818  15.671
 5991TIP3   OH239463   1.201   3.095   1.907
 5991TIP3    H139464   1.276   3.131   1.859
 5991TIP3    H239465   1.171   3.022   1.853
 5992TIP3   OH239466   3.747   3.449  13.990
 5992TIP3    H139467   3.749   3.509  13.916
 5992TIP3    H239468   3.834   3.456  14.029
 5993TIP3   OH239469   2.026   6.772   0.193
 5993TIP3    H139470   2.018   6.677   0.200
 5993TIP3    H239471   1.945   6.806   0.229
 5994TIP3   OH239472   6.339   6.108  12.645
 5994TIP3    H139473   6.366   6.185  12.596
 5994TIP3    H239474   6.421   6.064  12.668
 5995TIP3   OH239475   4.918   5.392   2.450
 5995TIP3    H139476   4.988   5.370   2.388
 5995TIP3    H239477   4.941   5.480   2.481
 5996TIP3   OH239478   6.425   5.811  16.286
 5996TIP3    H139479   6.443   5.820  16.380
 5996TIP3    H239480   6.331   5.793  16.281
 5997TIP3   OH239481   1.411   4.826  16.963
 5997TIP3    H139482   1.353   4.750  16.956
 5997TIP3    H239483   1.489   4.793  17.009
 5998TIP3   OH239484   2.856   2.338   1.908
 5998TIP3    H139485   2.885   2.403   1.844
 5998TIP3    H239486   2.838   2.389   1.987
 5999TIP3   OH239487   1.907   1.070   0.486
 5999TIP3    H139488   1.895   1.131   0.559
 5999TIP3    H239489   1.820   1.033   0.472
 6000TIP3   OH239490   2.424   3.833  11.496
 6000TIP3    H139491   2.423   3.739  11.510
 6000TIP3    H239492   2.514   3.853  11.472
 6001TIP3   OH239493   2.210   5.435  17.185
 6001TIP3    H139494   2.118   5.457  17.172
 6001TIP3    H239495   2.250   5.516  17.215
 6002TIP3   OH239496   6.378   6.493  15.879
 6002TIP3    H139497   6.358   6.521  15.789
 6002TIP3    H239498   6.373   6.398  15.876
 6003TIP3   OH239499   5.630   3.438  14.198
 6003TIP3    H139500   5.556   3.406  14.250
 6003TIP3    H239501   5.685   3.361  14.185
 6004TIP3   OH239502   3.538   2.887  12.596
 6004TIP3    H139503   3.512   2.847  12.513
 6004TIP3    H239504   3.629   2.915  12.582
 6005TIP3   OH239505   4.449   0.517   1.240
 6005TIP3    H139506   4.538   0.548   1.256
 6005TIP3    H239507   4.394   0.572   1.296
 6006TIP3   OH239508   0.368   5.395   4.250
 6006TIP3    H139509   0.429   5.443   4.194
 6006TIP3    H239510   0.374   5.304   4.219
 6007TIP3   OH239511   6.584   2.388  16.894
 6007TIP3    H139512   6.545   2.302  16.911
 6007TIP3    H239513   6.665   2.370  16.847
 6008TIP3   OH239514   5.631   2.779   5.726
 6008TIP3    H139515   5.662   2.694   5.755
 6008TIP3    H239516   5.592   2.819   5.804
 6009TIP3   OH239517   5.265   3.881  14.923
 6009TIP3    H139518   5.229   3.798  14.892
 6009TIP3    H239519   5.244   3.944  14.854
 6010TIP3   OH239520   1.708   6.386  16.265
 6010TIP3    H139521   1.792   6.342  16.253
 6010TIP3    H239522   1.729   6.463  16.319
 6011TIP3   OH239523   1.677   3.193  15.850
 6011TIP3    H139524   1.583   3.205  15.865
 6011TIP3    H239525   1.697   3.252  15.777
 6012TIP3   OH239526   4.083   2.902  16.247
 6012TIP3    H139527   4.162   2.886  16.299
 6012TIP3    H239528   4.068   2.996  16.254
 6013TIP3   OH239529   0.299   4.828  13.472
 6013TIP3    H139530   0.251   4.911  13.480
 6013TIP3    H239531   0.352   4.822  13.551
 6014TIP3   OH239532   0.702   1.478   5.065
 6014TIP3    H139533   0.685   1.559   5.112
 6014TIP3    H239534   0.653   1.411   5.112
 6015TIP3   OH239535   5.531   6.027  17.052
 6015TIP3    H139536   5.543   5.958  16.987
 6015TIP3    H239537   5.473   5.988  17.118
 6016TIP3   OH239538   4.168   5.039  15.514
 6016TIP3    H139539   4.156   5.128  15.482
 6016TIP3    H239540   4.086   4.995  15.493
 6017TIP3   OH239541   1.174   1.632  14.650
 6017TIP3    H139542   1.156   1.668  14.563
 6017TIP3    H239543   1.097   1.579  14.670
 6018TIP3   OH239544   2.431   4.766   3.517
 6018TIP3    H139545   2.466   4.743   3.431
 6018TIP3    H239546   2.362   4.702   3.533
 6019TIP3   OH239547   3.789   4.638  12.165
 6019TIP3    H139548   3.819   4.728  12.179
 6019TIP3    H239549   3.698   4.648  12.136
 6020TIP3   OH239550   5.766   3.959  15.100
 6020TIP3    H139551   5.765   4.028  15.034
 6020TIP3    H239552   5.689   3.906  15.081
 6021TIP3   OH239553   2.807   3.617   4.714
 6021TIP3    H139554   2.821   3.526   4.739
 6021TIP3    H239555   2.849   3.668   4.783
 6022TIP3   OH239556   2.773   4.766   0.471
 6022TIP3    H139557   2.787   4.840   0.412
 6022TIP3    H239558   2.754   4.806   0.556
 6023TIP3   OH239559   6.269   1.204   4.012
 6023TIP3    H139560   6.364   1.211   4.006
 6023TIP3    H239561   6.241   1.179   3.924
 6024TIP3   OH239562   6.057   5.743   0.595
 6024TIP3    H139563   6.030   5.651   0.600
 6024TIP3    H239564   6.139   5.741   0.546
 6025TIP3   OH239565   1.052   1.442  13.701
 6025TIP3    H139566   1.004   1.481  13.628
 6025TIP3    H239567   1.013   1.355  13.712
 6026TIP3   OH239568   4.221   3.840  15.888
 6026TIP3    H139569   4.149   3.797  15.933
 6026TIP3    H239570   4.208   3.933  15.905
 6027TIP3   OH239571   5.996   5.879  16.554
 6027TIP3    H139572   5.965   5.895  16.643
 6027TIP3    H239573   5.920   5.844  16.508
 6028TIP3   OH239574   3.624   1.134  12.950
 6028TIP3    H139575   3.574   1.195  12.897
 6028TIP3    H239576   3.561   1.100  13.014
 6029TIP3   OH239577   5.158   2.459  16.640
 6029TIP3    H139578   5.169   2.397  16.712
 6029TIP3    H239579   5.247   2.475  16.608
 6030TIP3   OH239580   0.853   2.340  13.597
 6030TIP3    H139581   0.848   2.320  13.504
 6030TIP3    H239582   0.812   2.427  13.605
 6031TIP3   OH239583   0.096   3.811   1.861
 6031TIP3    H139584   0.075   3.849   1.775
 6031TIP3    H239585   0.191   3.818   1.867
 6032TIP3   OH239586   2.267   1.786  15.797
 6032TIP3    H139587   2.228   1.711  15.753
 6032TIP3    H239588   2.300   1.842  15.726
 6033TIP3   OH239589   4.362   3.102   0.592
 6033TIP3    H139590   4.399   3.132   0.674
 6033TIP3    H239591   4.345   3.182   0.542
 6034TIP3   OH239592   5.060   4.995   5.995
 6034TIP3    H139593   5.030   4.917   6.042
 6034TIP3    H239594   4.980   5.031   5.956
 6035TIP3   OH239595   5.167   1.702   1.247
 6035TIP3    H139596   5.182   1.725   1.155
 6035TIP3    H239597   5.142   1.609   1.244
 6036TIP3   OH239598   0.154   6.603  13.219
 6036TIP3    H139599   0.243   6.637  13.218
 6036TIP3    H239600   0.102   6.667  13.171
 6037TIP3   OH239601   3.943   4.741   5.398
 6037TIP3    H139602   3.868   4.686   5.372
 6037TIP3    H239603   4.018   4.699   5.357
 6038TIP3   OH239604   2.678   3.542   3.083
 6038TIP3    H139605   2.693   3.637   3.091
 6038TIP3    H239606   2.736   3.504   3.149
 6039TIP3   OH239607   6.405   2.517   0.204
 6039TIP3    H139608   6.320   2.497   0.165
 6039TIP3    H239609   6.469   2.473   0.148
 6040TIP3   OH239610   1.916   2.359   6.296
 6040TIP3    H139611   1.851   2.301   6.337
 6040TIP3    H239612   1.865   2.421   6.245
 6041TIP3   OH239613   4.114   6.409   2.877
 6041TIP3    H139614   4.095   6.503   2.881
 6041TIP3    H239615   4.049   6.368   2.934
 6042TIP3   OH239616   0.874   3.804   2.954
 6042TIP3    H139617   0.892   3.730   3.013
 6042TIP3    H239618   0.959   3.826   2.916
 6043TIP3   OH239619   5.804   1.953   1.651
 6043TIP3    H139620   5.739   1.996   1.707
 6043TIP3    H239621   5.836   2.022   1.593
 6044TIP3   OH239622   6.266   2.110  13.556
 6044TIP3    H139623   6.216   2.077  13.630
 6044TIP3    H239624   6.236   2.058  13.481
 6045TIP3   OH239625   5.581   6.349  15.707
 6045TIP3    H139626   5.507   6.409  15.711
 6045TIP3    H239627   5.638   6.375  15.780
 6046TIP3   OH239628   1.109   4.851   4.001
 6046TIP3    H139629   1.076   4.901   4.075
 6046TIP3    H239630   1.204   4.849   4.013
 6047TIP3   OH239631   0.105   5.025  13.540
 6047TIP3    H139632   0.048   5.086  13.493
 6047TIP3    H239633   0.046   4.977  13.598
 6048TIP3   OH239634   2.744   4.631  16.877
 6048TIP3    H139635   2.714   4.646  16.788
 6048TIP3    H239636   2.669   4.652  16.932
 6049TIP3   OH239637   6.234   3.821   4.898
 6049TIP3    H139638   6.265   3.885   4.834
 6049TIP3    H239639   6.193   3.752   4.846
 6050TIP3   OH239640   1.273   2.380   4.355
 6050TIP3    H139641   1.358   2.337   4.361
 6050TIP3    H239642   1.209   2.309   4.364
 6051TIP3   OH239643   1.204   2.644   2.900
 6051TIP3    H139644   1.151   2.567   2.919
 6051TIP3    H239645   1.163   2.684   2.824
 6052TIP3   OH239646   2.955   2.409  14.267
 6052TIP3    H139647   3.020   2.341  14.254
 6052TIP3    H239648   2.931   2.438  14.179
 6053TIP3   OH239649   3.523   6.305   0.380
 6053TIP3    H139650   3.565   6.338   0.300
 6053TIP3    H239651   3.430   6.320   0.367
 6054TIP3   OH239652   2.936   4.587  16.139
 6054TIP3    H139653   2.935   4.678  16.167
 6054TIP3    H239654   2.929   4.537  16.221
 6055TIP3   OH239655   3.265   0.655  14.297
 6055TIP3    H139656   3.217   0.648  14.379
 6055TIP3    H239657   3.350   0.616  14.316
 6056TIP3   OH239658   4.656   1.635  14.550
 6056TIP3    H139659   4.566   1.603  14.561
 6056TIP3    H239660   4.667   1.643  14.456
 6057TIP3   OH239661   3.419   2.982  10.838
 6057TIP3    H139662   3.419   3.042  10.764
 6057TIP3    H239663   3.420   2.895  10.799
 6058TIP3   OH239664   5.850   4.069  12.349
 6058TIP3    H139665   5.826   4.125  12.275
 6058TIP3    H239666   5.774   4.013  12.362
 6059TIP3   OH239667   1.257   5.584   1.869
 6059TIP3    H139668   1.209   5.555   1.791
 6059TIP3    H239669   1.243   5.679   1.872
 6060TIP3   OH239670   1.288   6.518   3.357
 6060TIP3    H139671   1.330   6.508   3.442
 6060TIP3    H239672   1.291   6.431   3.318
 6061TIP3   OH239673   3.601   1.755  16.840
 6061TIP3    H139674   3.673   1.707  16.800
 6061TIP3    H239675   3.603   1.841  16.798
 6062TIP3   OH239676   1.823   2.069   1.395
 6062TIP3    H139677   1.857   1.983   1.370
 6062TIP3    H239678   1.873   2.131   1.343
 6063TIP3   OH239679   1.612   3.700  14.419
 6063TIP3    H139680   1.695   3.748  14.416
 6063TIP3    H239681   1.630   3.624  14.473
 6064TIP3   OH239682   5.183   2.009   0.049
 6064TIP3    H139683   5.161   2.025  -0.043
 6064TIP3    H239684   5.270   2.047   0.059
 6065TIP3   OH239685   5.794   6.217  16.539
 6065TIP3    H139686   5.733   6.144  16.550
 6065TIP3    H239687   5.745   6.280  16.486
 6066TIP3   OH239688   1.466   6.502   4.540
 6066TIP3    H139689   1.483   6.504   4.634
 6066TIP3    H239690   1.400   6.570   4.526
 6067TIP3   OH239691   3.279   3.284  12.882
 6067TIP3    H139692   3.349   3.276  12.818
 6067TIP3    H239693   3.265   3.194  12.914
 6068TIP3   OH239694   0.212   2.213  13.652
 6068TIP3    H139695   0.231   2.294  13.700
 6068TIP3    H239696   0.291   2.160  13.661
 6069TIP3   OH239697   3.560   0.785   2.936
 6069TIP3    H139698   3.582   0.875   2.915
 6069TIP3    H239699   3.526   0.789   3.026
 6070TIP3   OH239700   1.412   4.890  13.327
 6070TIP3    H139701   1.427   4.984  13.325
 6070TIP3    H239702   1.406   4.868  13.420
 6071TIP3   OH239703   1.046   4.463  17.121
 6071TIP3    H139704   1.099   4.449  17.200
 6071TIP3    H239705   0.979   4.395  17.124
 6072TIP3   OH239706   1.157   1.525   3.952
 6072TIP3    H139707   1.080   1.552   4.004
 6072TIP3    H239708   1.185   1.605   3.907
 6073TIP3   OH239709   1.208   0.384   6.127
 6073TIP3    H139710   1.302   0.367   6.138
 6073TIP3    H239711   1.191   0.457   6.186
 6074TIP3   OH239712   2.564   4.397  14.696
 6074TIP3    H139713   2.504   4.464  14.664
 6074TIP3    H239714   2.511   4.317  14.698
 6075TIP3   OH239715   2.994   1.203   5.815
 6075TIP3    H139716   3.039   1.147   5.878
 6075TIP3    H239717   3.034   1.181   5.730
 6076TIP3   OH239718   1.104   4.821   4.567
 6076TIP3    H139719   1.072   4.736   4.598
 6076TIP3    H239720   1.125   4.869   4.647
 6077TIP3   OH239721   4.919   1.689   0.318
 6077TIP3    H139722   5.011   1.664   0.326
 6077TIP3    H239723   4.921   1.783   0.303
 6078TIP3   OH239724   2.784   3.767  12.741
 6078TIP3    H139725   2.707   3.780  12.796
 6078TIP3    H239726   2.858   3.794  12.795
 6079TIP3   OH239727   1.092   3.641   5.368
 6079TIP3    H139728   1.139   3.685   5.439
 6079TIP3    H239729   1.003   3.675   5.374
 6080TIP3   OH239730   5.821   5.702   2.294
 6080TIP3    H139731   5.872   5.717   2.374
 6080TIP3    H239732   5.794   5.789   2.266
 6081TIP3   OH239733   4.410   5.538   5.134
 6081TIP3    H139734   4.344   5.606   5.122
 6081TIP3    H239735   4.414   5.525   5.228
 6082TIP3   OH239736   2.921   3.017  15.650
 6082TIP3    H139737   3.011   3.051  15.658
 6082TIP3    H239738   2.869   3.073  15.707
 6083TIP3   OH239739   0.137   2.781  11.434
 6083TIP3    H139740   0.155   2.743  11.520
 6083TIP3    H239741   0.222   2.816  11.406
 6084TIP3   OH239742   6.793   1.463   0.630
 6084TIP3    H139743   6.775   1.554   0.606
 6084TIP3    H239744   6.833   1.425   0.552
 6085TIP3   OH239745   5.791   6.248   0.573
 6085TIP3    H139746   5.839   6.309   0.518
 6085TIP3    H239747   5.842   6.167   0.570
 6086TIP3   OH239748   1.973   2.736  13.357
 6086TIP3    H139749   2.033   2.667  13.387
 6086TIP3    H239750   1.965   2.794  13.433
 6087TIP3   OH239751   5.861   2.250  12.275
 6087TIP3    H139752   5.808   2.200  12.212
 6087TIP3    H239753   5.878   2.188  12.346
 6088TIP3   OH239754   0.077   5.129  11.947
 6088TIP3    H139755   0.121   5.190  11.887
 6088TIP3    H239756   0.126   5.047  11.936
 6089TIP3   OH239757   1.109   5.392  14.031
 6089TIP3    H139758   1.150   5.464  13.984
 6089TIP3    H239759   1.062   5.342  13.964
 6090TIP3   OH239760   5.267   1.046   3.039
 6090TIP3    H139761   5.339   0.996   3.078
 6090TIP3    H239762   5.265   1.017   2.948
 6091TIP3   OH239763   4.894   2.358  12.974
 6091TIP3    H139764   4.826   2.385  13.036
 6091TIP3    H239765   4.895   2.263  12.979
 6092TIP3   OH239766   4.742   3.388   4.869
 6092TIP3    H139767   4.764   3.416   4.780
 6092TIP3    H239768   4.686   3.312   4.857
 6093TIP3   OH239769   4.169   1.545   3.203
 6093TIP3    H139770   4.252   1.533   3.250
 6093TIP3    H239771   4.102   1.517   3.265
 6094TIP3   OH239772   1.523   3.054  13.179
 6094TIP3    H139773   1.506   3.145  13.155
 6094TIP3    H239774   1.458   3.034  13.246
 6095TIP3   OH239775   0.534   6.432  14.850
 6095TIP3    H139776   0.628   6.427  14.834
 6095TIP3    H239777   0.508   6.342  14.868
 6096TIP3   OH239778   1.884   3.643   1.082
 6096TIP3    H139779   1.968   3.601   1.062
 6096TIP3    H239780   1.896   3.677   1.171
 6097TIP3   OH239781   6.803   0.836   0.359
 6097TIP3    H139782   6.791   0.824   0.265
 6097TIP3    H239783   6.715   0.833   0.395
 6098TIP3   OH239784   3.629   3.216   2.771
 6098TIP3    H139785   3.647   3.297   2.820
 6098TIP3    H239786   3.542   3.230   2.733
 6099TIP3   OH239787   1.076   4.768  13.658
 6099TIP3    H139788   1.158   4.771  13.610
 6099TIP3    H239789   1.100   4.740  13.746
 6100TIP3   OH239790   6.649   6.299  12.135
 6100TIP3    H139791   6.572   6.287  12.081
 6100TIP3    H239792   6.714   6.337  12.076
 6101TIP3   OH239793   6.617   0.646   0.970
 6101TIP3    H139794   6.554   0.716   0.985
 6101TIP3    H239795   6.563   0.570   0.947
 6102TIP3   OH239796   0.109   0.392  16.232
 6102TIP3    H139797   0.119   0.340  16.153
 6102TIP3    H239798   0.187   0.447  16.234
 6103TIP3   OH239799   0.632   3.624   2.845
 6103TIP3    H139800   0.576   3.549   2.865
 6103TIP3    H239801   0.719   3.587   2.834
 6104TIP3   OH239802   3.790   4.956   0.166
 6104TIP3    H139803   3.813   4.942   0.074
 6104TIP3    H239804   3.804   5.050   0.179
 6105TIP3   OH239805   3.472   1.241  13.271
 6105TIP3    H139806   3.564   1.219  13.286
 6105TIP3    H239807   3.423   1.167  13.305
 6106TIP3   OH239808   3.004   1.129  11.256
 6106TIP3    H139809   3.089   1.140  11.298
 6106TIP3    H239810   2.941   1.133  11.327
 6107TIP3   OH239811   0.060   1.753  17.261
 6107TIP3    H139812   0.014   1.810  17.200
 6107TIP3    H239813   0.035   1.784  17.348
 6108TIP3   OH239814   0.774   4.452   2.401
 6108TIP3    H139815   0.856   4.438   2.355
 6108TIP3    H239816   0.761   4.547   2.399
 6109TIP3   OH239817   6.564   4.168  10.303
 6109TIP3    H139818   6.544   4.081  10.336
 6109TIP3    H239819   6.658   4.177  10.316
 6110TIP3   OH239820   5.121   2.504   1.096
 6110TIP3    H139821   5.084   2.534   1.178
 6110TIP3    H239822   5.115   2.409   1.100
 6111TIP3   OH239823   3.733   0.065   1.086
 6111TIP3    H139824   3.676   0.027   1.153
 6111TIP3    H239825   3.682   0.059   1.005
 6112TIP3   OH239826   2.260   5.254  11.283
 6112TIP3    H139827   2.182   5.203  11.261
 6112TIP3    H239828   2.323   5.188  11.314
 6113TIP3   OH239829   6.448   5.413   0.458
 6113TIP3    H139830   6.361   5.429   0.420
 6113TIP3    H239831   6.504   5.481   0.420
 6114TIP3   OH239832   5.402   4.353  14.600
 6114TIP3    H139833   5.452   4.314  14.671
 6114TIP3    H239834   5.376   4.278  14.545
 6115TIP3   OH239835   3.076   6.453  11.810
 6115TIP3    H139836   3.081   6.376  11.755
 6115TIP3    H239837   3.103   6.525  11.753
 6116TIP3   OH239838   2.090   5.503  10.311
 6116TIP3    H139839   2.048   5.569  10.367
 6116TIP3    H239840   2.018   5.447  10.282
 6117TIP3   OH239841   4.794   3.962   0.192
 6117TIP3    H139842   4.882   3.981   0.159
 6117TIP3    H239843   4.744   3.935   0.115
 6118TIP3   OH239844   3.137   5.684   4.235
 6118TIP3    H139845   3.198   5.631   4.287
 6118TIP3    H239846   3.190   5.758   4.204
 6119TIP3   OH239847   1.248   1.985  14.982
 6119TIP3    H139848   1.215   1.948  14.900
 6119TIP3    H239849   1.312   1.922  15.014
 6120TIP3   OH239850   6.246   0.582   3.153
 6120TIP3    H139851   6.331   0.544   3.171
 6120TIP3    H239852   6.238   0.654   3.216
 6121TIP3   OH239853   0.026   4.708   4.294
 6121TIP3    H139854   0.106   4.685   4.248
 6121TIP3    H239855  -0.042   4.707   4.226
 6122TIP3   OH239856   6.674   0.328  17.125
 6122TIP3    H139857   6.583   0.304  17.110
 6122TIP3    H239858   6.677   0.422  17.111
 6123TIP3   OH239859   5.201   3.184  13.871
 6123TIP3    H139860   5.260   3.247  13.913
 6123TIP3    H239861   5.120   3.190  13.922
 6124TIP3   OH239862   5.753   3.493   5.801
 6124TIP3    H139863   5.762   3.531   5.889
 6124TIP3    H239864   5.711   3.562   5.749
 6125TIP3   OH239865   3.610   5.354  14.981
 6125TIP3    H139866   3.667   5.300  14.926
 6125TIP3    H239867   3.554   5.400  14.918
 6126TIP3   OH239868   5.340   6.788  13.833
 6126TIP3    H139869   5.413   6.760  13.777
 6126TIP3    H239870   5.267   6.800  13.772
 6127TIP3   OH239871   0.424   2.733   2.002
 6127TIP3    H139872   0.409   2.796   1.931
 6127TIP3    H239873   0.384   2.652   1.971
 6128TIP3   OH239874   2.970   1.396  14.782
 6128TIP3    H139875   3.006   1.328  14.839
 6128TIP3    H239876   3.023   1.473  14.802
 6129TIP3   OH239877   3.243   0.205   2.834
 6129TIP3    H139878   3.298   0.205   2.755
 6129TIP3    H239879   3.172   0.266   2.812
 6130TIP3   OH239880   2.963   5.332   0.277
 6130TIP3    H139881   2.888   5.353   0.221
 6130TIP3    H239882   2.947   5.382   0.357
 6131TIP3   OH239883   4.158   6.497  11.433
 6131TIP3    H139884   4.173   6.543  11.515
 6131TIP3    H239885   4.217   6.421  11.437
 6132TIP3   OH239886   1.766   3.398  11.886
 6132TIP3    H139887   1.781   3.368  11.975
 6132TIP3    H239888   1.677   3.432  11.886
 6133TIP3   OH239889   0.997   0.370  15.363
 6133TIP3    H139890   1.080   0.382  15.316
 6133TIP3    H239891   0.946   0.448  15.340
 6134TIP3   OH239892   1.795   0.424  12.953
 6134TIP3    H139893   1.762   0.347  12.999
 6134TIP3    H239894   1.720   0.454  12.901
 6135TIP3   OH239895   4.521   4.298   5.257
 6135TIP3    H139896   4.428   4.275   5.256
 6135TIP3    H239897   4.551   4.269   5.343
 6136TIP3   OH239898   1.465   0.747  12.189
 6136TIP3    H139899   1.526   0.800  12.239
 6136TIP3    H239900   1.380   0.791  12.200
 6137TIP3   OH239901   3.855   0.588   4.071
 6137TIP3    H139902   3.851   0.681   4.095
 6137TIP3    H239903   3.942   0.578   4.032
 6138TIP3   OH239904   5.683   1.784  11.637
 6138TIP3    H139905   5.622   1.710  11.638
 6138TIP3    H239906   5.674   1.821  11.549
 6139TIP3   OH239907   0.058   6.571  11.189
 6139TIP3    H139908   0.036   6.619  11.110
 6139TIP3    H239909   0.152   6.584  11.200
 6140TIP3   OH239910   2.002   1.006   4.898
 6140TIP3    H139911   1.920   1.052   4.915
 6140TIP3    H239912   1.980   0.943   4.829
 6141TIP3   OH239913   4.030   1.888  17.044
 6141TIP3    H139914   4.033   1.836  16.964
 6141TIP3    H239915   4.045   1.825  17.115
 6142TIP3   OH239916   5.575   2.540   0.259
 6142TIP3    H139917   5.627   2.535   0.339
 6142TIP3    H239918   5.485   2.522   0.288
 6143TIP3   OH239919   5.403   4.857   4.448
 6143TIP3    H139920   5.442   4.898   4.371
 6143TIP3    H239921   5.334   4.918   4.476
 6144TIP3   OH239922   2.866   5.190   4.600
 6144TIP3    H139923   2.941   5.140   4.568
 6144TIP3    H239924   2.880   5.278   4.565
 6145TIP3   OH239925   3.723   0.095  16.983
 6145TIP3    H139926   3.665   0.057  16.917
 6145TIP3    H239927   3.705   0.189  16.980
 6146TIP3   OH239928   4.141   5.320   0.725
 6146TIP3    H139929   4.099   5.234   0.713
 6146TIP3    H239930   4.190   5.311   0.807
 6147TIP3   OH239931   4.031   4.396  12.597
 6147TIP3    H139932   4.002   4.482  12.567
 6147TIP3    H239933   4.013   4.396  12.691
 6148TIP3   OH239934   1.395   3.453   2.473
 6148TIP3    H139935   1.304   3.423   2.472
 6148TIP3    H239936   1.413   3.473   2.565
 6149TIP3   OH239937   2.494   3.474  15.929
 6149TIP3    H139938   2.526   3.431  15.849
 6149TIP3    H239939   2.512   3.411  15.999
 6150TIP3   OH239940   0.462   1.395   3.752
 6150TIP3    H139941   0.387   1.439   3.793
 6150TIP3    H239942   0.490   1.456   3.684
 6151TIP3   OH239943   1.807   3.843   0.397
 6151TIP3    H139944   1.769   3.891   0.470
 6151TIP3    H239945   1.899   3.868   0.397
 6152TIP3   OH239946   0.501   0.077   4.768
 6152TIP3    H139947   0.574   0.021   4.794
 6152TIP3    H239948   0.519   0.160   4.811
 6153TIP3   OH239949   1.189   5.000  15.435
 6153TIP3    H139950   1.247   5.045  15.374
 6153TIP3    H239951   1.105   4.995  15.390
 6154TIP3   OH239952   1.489   3.711   2.909
 6154TIP3    H139953   1.425   3.748   2.970
 6154TIP3    H239954   1.527   3.787   2.864
 6155TIP3   OH239955   0.642   0.712  12.212
 6155TIP3    H139956   0.596   0.753  12.139
 6155TIP3    H239957   0.726   0.757  12.215
 6156TIP3   OH239958   6.232   3.613   0.864
 6156TIP3    H139959   6.192   3.561   0.795
 6156TIP3    H239960   6.166   3.678   0.886
 6157TIP3   OH239961   0.856   0.099  14.211
 6157TIP3    H139962   0.830   0.162  14.277
 6157TIP3    H239963   0.833   0.014  14.248
 6158TIP3   OH239964   2.988   0.007  14.765
 6158TIP3    H139965   3.075  -0.030  14.755
 6158TIP3    H239966   2.999   0.081  14.824
 6159TIP3   OH239967   0.215   4.958  12.998
 6159TIP3    H139968   0.135   4.957  13.049
 6159TIP3    H239969   0.281   4.920  13.056
 6160TIP3   OH239970   5.845   0.119  16.707
 6160TIP3    H139971   5.885   0.135  16.793
 6160TIP3    H239972   5.784   0.047  16.723
 6161TIP3   OH239973   3.131   1.011   5.955
 6161TIP3    H139974   3.219   1.017   5.990
 6161TIP3    H239975   3.134   0.938   5.893
 6162TIP3   OH239976   4.772   2.993  16.205
 6162TIP3    H139977   4.734   2.905  16.214
 6162TIP3    H239978   4.786   3.022  16.295
 6163TIP3   OH239979   1.269   6.710   4.447
 6163TIP3    H139980   1.245   6.743   4.360
 6163TIP3    H239981   1.291   6.788   4.497
 6164TIP3   OH239982   3.677   2.504   1.874
 6164TIP3    H139983   3.766   2.475   1.892
 6164TIP3    H239984   3.681   2.599   1.877
 6165TIP3   OH239985   2.308   4.599  13.036
 6165TIP3    H139986   2.281   4.683  13.072
 6165TIP3    H239987   2.260   4.592  12.953
 6166TIP3   OH239988   4.715   2.006  11.986
 6166TIP3    H139989   4.801   2.012  11.943
 6166TIP3    H239990   4.652   2.003  11.915
 6167TIP3   OH239991   6.433   1.133   1.730
 6167TIP3    H139992   6.393   1.207   1.776
 6167TIP3    H239993   6.389   1.131   1.645
 6168TIP3   OH239994   4.592   4.281   4.888
 6168TIP3    H139995   4.580   4.190   4.914
 6168TIP3    H239996   4.637   4.277   4.804
 6169TIP3   OH239997   4.557   5.193   3.250
 6169TIP3    H139998   4.544   5.213   3.343
 6169TIP3    H239999   4.650   5.212   3.235
 6170TIP3   OH240000   5.341   0.970  17.135
 6170TIP3    H140001   5.305   0.951  17.048
 6170TIP3    H240002   5.435   0.979  17.121
 6171TIP3   OH240003   6.250   4.119   0.516
 6171TIP3    H140004   6.209   4.081   0.594
 6171TIP3    H240005   6.339   4.085   0.516
 6172TIP3   OH240006   4.067   0.878   4.536
 6172TIP3    H140007   4.161   0.893   4.549
 6172TIP3    H240008   4.053   0.788   4.564
 6173TIP3   OH240009   2.567   0.928  14.990
 6173TIP3    H140010   2.542   0.840  14.960
 6173TIP3    H240011   2.497   0.985  14.958
 6174TIP3   OH240012   4.056   6.389  15.618
 6174TIP3    H140013   3.978   6.444  15.618
 6174TIP3    H240014   4.041   6.328  15.691
 6175TIP3   OH240015   6.081   4.446   2.283
 6175TIP3    H140016   6.064   4.540   2.280
 6175TIP3    H240017   6.060   4.421   2.373
 6176TIP3   OH240018   0.073   0.787  17.054
 6176TIP3    H140019   0.055   0.856  16.989
 6176TIP3    H240020   0.010   0.718  17.034
 6177TIP3   OH240021   3.249   1.505  14.008
 6177TIP3    H140022   3.186   1.549  14.065
 6177TIP3    H240023   3.265   1.421  14.050
 6178TIP3   OH240024   5.822   1.223  11.686
 6178TIP3    H140025   5.862   1.309  11.698
 6178TIP3    H240026   5.819   1.212  11.591
 6179TIP3   OH240027   4.863   4.308  16.458
 6179TIP3    H140028   4.934   4.326  16.520
 6179TIP3    H240029   4.783   4.319  16.510
 6180TIP3   OH240030   6.724   3.210   1.771
 6180TIP3    H140031   6.730   3.122   1.809
 6180TIP3    H240032   6.707   3.267   1.846
 6181TIP3   OH240033   6.324   2.192   5.615
 6181TIP3    H140034   6.362   2.210   5.529
 6181TIP3    H240035   6.279   2.108   5.604
 6182TIP3   OH240036   4.416   4.785  12.285
 6182TIP3    H140037   4.435   4.714  12.223
 6182TIP3    H240038   4.501   4.825  12.302
 6183TIP3   OH240039   3.050   3.853   4.734
 6183TIP3    H140040   3.074   3.761   4.740
 6183TIP3    H240041   3.118   3.898   4.785
 6184TIP3   OH240042   6.261   5.469  16.712
 6184TIP3    H140043   6.203   5.409  16.757
 6184TIP3    H240044   6.346   5.458  16.755
 6185TIP3   OH240045   6.509   3.666  15.450
 6185TIP3    H140046   6.601   3.649  15.430
 6185TIP3    H240047   6.469   3.684  15.365
 6186TIP3   OH240048   2.956   0.532  12.012
 6186TIP3    H140049   3.023   0.475  11.976
 6186TIP3    H240050   2.892   0.542  11.941
 6187TIP3   OH240051   0.705   5.527   1.951
 6187TIP3    H140052   0.648   5.597   1.983
 6187TIP3    H240053   0.791   5.547   1.987
 6188TIP3   OH240054   3.453   6.275  11.403
 6188TIP3    H140055   3.503   6.200  11.437
 6188TIP3    H240056   3.366   6.239  11.386
 6189TIP3   OH240057   2.665   4.042  13.975
 6189TIP3    H140058   2.620   3.957  13.969
 6189TIP3    H240059   2.745   4.029  13.925
 6190TIP3   OH240060   5.821   5.673  10.522
 6190TIP3    H140061   5.826   5.766  10.502
 6190TIP3    H240062   5.903   5.654  10.569
 6191TIP3   OH240063   3.423   0.070  14.092
 6191TIP3    H140064   3.450   0.047  14.181
 6191TIP3    H240065   3.373   0.151  14.103
 6192TIP3   OH240066   1.946   4.421   3.984
 6192TIP3    H140067   1.956   4.430   4.079
 6192TIP3    H240068   1.990   4.339   3.963
 6193TIP3   OH240069   4.424   0.970  13.199
 6193TIP3    H140070   4.486   0.924  13.256
 6193TIP3    H240071   4.369   1.019  13.259
 6194TIP3   OH240072   0.448   4.764  16.074
 6194TIP3    H140073   0.364   4.793  16.110
 6194TIP3    H240074   0.508   4.836  16.093
 6195TIP3   OH240075   3.199   6.674  17.043
 6195TIP3    H140076   3.192   6.581  17.068
 6195TIP3    H240077   3.245   6.715  17.116
 6196TIP3   OH240078   4.693   2.722  10.813
 6196TIP3    H140079   4.674   2.637  10.773
 6196TIP3    H240080   4.606   2.759  10.830
 6197TIP3   OH240081   3.867   1.818  12.614
 6197TIP3    H140082   3.821   1.760  12.554
 6197TIP3    H240083   3.959   1.790  12.609
 6198TIP3   OH240084   1.022   4.400  15.309
 6198TIP3    H140085   0.979   4.316  15.326
 6198TIP3    H240086   0.957   4.465  15.334
 6199TIP3   OH240087   1.455   3.487   2.759
 6199TIP3    H140088   1.487   3.575   2.779
 6199TIP3    H240089   1.365   3.486   2.790
 6200TIP3   OH240090   0.488   2.753   2.880
 6200TIP3    H140091   0.556   2.716   2.825
 6200TIP3    H240092   0.408   2.707   2.855
 6201TIP3   OH240093   5.149   3.169   1.130
 6201TIP3    H140094   5.076   3.145   1.072
 6201TIP3    H240095   5.215   3.206   1.072
 6202TIP3   OH240096   2.119   0.193   0.150
 6202TIP3    H140097   2.122   0.242   0.232
 6202TIP3    H240098   2.096   0.104   0.177
 6203TIP3   OH240099   6.206   2.290  10.325
 6203TIP3    H140100   6.248   2.363  10.278
 6203TIP3    H240101   6.278   2.231  10.346
 6204TIP3   OH240102   2.701   1.512  13.885
 6204TIP3    H140103   2.740   1.502  13.972
 6204TIP3    H240104   2.768   1.557  13.834
 6205TIP3   OH240105   2.885   4.176   3.657
 6205TIP3    H140106   2.796   4.171   3.692
 6205TIP3    H240107   2.908   4.269   3.664
 6206TIP3   OH240108   5.308   0.079  11.850
 6206TIP3    H140109   5.360   0.065  11.772
 6206TIP3    H240110   5.305   0.175  11.860
 6207TIP3   OH240111   3.265   5.919  16.683
 6207TIP3    H140112   3.229   5.859  16.618
 6207TIP3    H240113   3.213   5.999  16.673
 6208TIP3   OH240114   1.576   4.631   0.566
 6208TIP3    H140115   1.542   4.652   0.653
 6208TIP3    H240116   1.543   4.543   0.548
 6209TIP3   OH240117   4.423   3.746  12.859
 6209TIP3    H140118   4.372   3.669  12.834
 6209TIP3    H240119   4.358   3.815  12.872
 6210TIP3   OH240120   1.687   1.720  16.376
 6210TIP3    H140121   1.598   1.741  16.403
 6210TIP3    H240122   1.678   1.641  16.323
 6211TIP3   OH240123   0.377   0.971  15.813
 6211TIP3    H140124   0.321   1.047  15.795
 6211TIP3    H240125   0.461   0.995  15.773
 6212TIP3   OH240126   2.260   3.153  16.655
 6212TIP3    H140127   2.318   3.099  16.601
 6212TIP3    H240128   2.235   3.095  16.727
 6213TIP3   OH240129   0.352   1.219  14.213
 6213TIP3    H140130   0.439   1.226  14.250
 6213TIP3    H240131   0.345   1.129  14.183
 6214TIP3   OH240132   2.418   4.266   0.655
 6214TIP3    H140133   2.386   4.187   0.699
 6214TIP3    H240134   2.361   4.276   0.579
 6215TIP3   OH240135   1.269   5.969  14.668
 6215TIP3    H140136   1.193   5.963  14.610
 6215TIP3    H240137   1.232   5.976  14.756
 6216TIP3   OH240138   5.115   4.670  16.306
 6216TIP3    H140139   5.151   4.654  16.218
 6216TIP3    H240140   5.150   4.755  16.331
 6217TIP3   OH240141   0.515   3.562  12.608
 6217TIP3    H140142   0.470   3.493  12.559
 6217TIP3    H240143   0.446   3.625  12.629
 6218TIP3   OH240144   0.159   1.728  16.546
 6218TIP3    H140145   0.160   1.670  16.470
 6218TIP3    H240146   0.085   1.787  16.530
 6219TIP3   OH240147   2.885   2.203   3.822
 6219TIP3    H140148   2.852   2.247   3.744
 6219TIP3    H240149   2.977   2.229   3.827
 6220TIP3   OH240150   3.973   6.587  11.110
 6220TIP3    H140151   3.966   6.519  11.043
 6220TIP3    H240152   3.972   6.670  11.062
 6221TIP3   OH240153   2.388   1.525   5.680
 6221TIP3    H140154   2.435   1.478   5.611
 6221TIP3    H240155   2.419   1.615   5.674
 6222TIP3   OH240156   2.192   6.473   3.352
 6222TIP3    H140157   2.271   6.460   3.404
 6222TIP3    H240158   2.163   6.561   3.376
 6223TIP3   OH240159   0.057   5.816  12.482
 6223TIP3    H140160   0.021   5.754  12.545
 6223TIP3    H240161   0.129   5.859  12.529
 6224TIP3   OH240162   6.691   0.540   4.566
 6224TIP3    H140163   6.729   0.577   4.647
 6224TIP3    H240164   6.723   0.450   4.564
 6225TIP3   OH240165   6.671   0.113   0.272
 6225TIP3    H140166   6.690   0.036   0.218
 6225TIP3    H240167   6.667   0.080   0.361
 6226TIP3   OH240168   1.801   4.721  12.365
 6226TIP3    H140169   1.765   4.654  12.423
 6226TIP3    H240170   1.849   4.780  12.424
 6227TIP3   OH240171   0.324   4.185   1.958
 6227TIP3    H140172   0.390   4.116   1.964
 6227TIP3    H240173   0.325   4.210   1.865
 6228TIP3   OH240174   0.805   5.758  16.344
 6228TIP3    H140175   0.724   5.809  16.342
 6228TIP3    H240176   0.871   5.818  16.378
 6229TIP3   OH240177   1.805   1.371   4.403
 6229TIP3    H140178   1.772   1.355   4.314
 6229TIP3    H240179   1.896   1.397   4.391
 6230TIP3   OH240180   2.646   1.219  12.149
 6230TIP3    H140181   2.570   1.162  12.160
 6230TIP3    H240182   2.712   1.162  12.109
 6231TIP3   OH240183   4.898   3.930  14.177
 6231TIP3    H140184   4.974   3.938  14.119
 6231TIP3    H240185   4.899   3.839  14.206
 6232TIP3   OH240186   1.076   0.150   6.518
 6232TIP3    H140187   1.055   0.118   6.606
 6232TIP3    H240188   1.124   0.077   6.477
 6233TIP3   OH240189   1.433   4.128   1.995
 6233TIP3    H140190   1.408   4.037   1.976
 6233TIP3    H240191   1.529   4.125   2.002
 6234TIP3   OH240192   3.036   4.995  15.930
 6234TIP3    H140193   2.964   4.958  15.880
 6234TIP3    H240194   3.066   4.923  15.986
 6235TIP3   OH240195   0.846   5.491  14.246
 6235TIP3    H140196   0.805   5.508  14.331
 6235TIP3    H240197   0.939   5.484  14.265
 6236TIP3   OH240198   1.850   0.942   3.188
 6236TIP3    H140199   1.774   0.985   3.229
 6236TIP3    H240200   1.910   1.014   3.168
 6237TIP3   OH240201   6.583   0.003  17.008
 6237TIP3    H140202   6.554   0.069  17.071
 6237TIP3    H240203   6.503  -0.046  16.988
 6238TIP3   OH240204   1.905   6.307   4.846
 6238TIP3    H140205   1.950   6.230   4.881
 6238TIP3    H240206   1.847   6.271   4.778
 6239TIP3   OH240207   1.551   3.267  13.638
 6239TIP3    H140208   1.499   3.316  13.574
 6239TIP3    H240209   1.503   3.185  13.650
 6240TIP3   OH240210   3.551   0.971  14.472
 6240TIP3    H140211   3.476   1.004  14.422
 6240TIP3    H240212   3.542   0.875  14.467
 6241TIP3   OH240213   0.907   2.393  14.638
 6241TIP3    H140214   0.993   2.433  14.624
 6241TIP3    H240215   0.900   2.386  14.733
 6242TIP3   OH240216   6.142   2.917   5.826
 6242TIP3    H140217   6.136   2.843   5.765
 6242TIP3    H240218   6.071   2.975   5.801
 6243TIP3   OH240219   3.872   1.760  14.109
 6243TIP3    H140220   3.820   1.835  14.137
 6243TIP3    H240221   3.897   1.781  14.019
 6244TIP3   OH240222   3.687   3.451  11.642
 6244TIP3    H140223   3.625   3.415  11.578
 6244TIP3    H240224   3.764   3.395  11.635
 6245TIP3   OH240225   2.559   4.282   3.955
 6245TIP3    H140226   2.588   4.306   4.043
 6245TIP3    H240227   2.518   4.361   3.920
 6246TIP3   OH240228   4.171   5.761  11.478
 6246TIP3    H140229   4.185   5.697  11.547
 6246TIP3    H240230   4.149   5.842  11.525
 6247TIP3   OH240231   0.110   2.748   5.691
 6247TIP3    H140232   0.065   2.699   5.622
 6247TIP3    H240233   0.109   2.691   5.767
 6248TIP3   OH240234   1.628   2.215   5.250
 6248TIP3    H140235   1.572   2.240   5.176
 6248TIP3    H240236   1.635   2.294   5.303
 6249TIP3   OH240237   3.911   5.168   1.207
 6249TIP3    H140238   3.879   5.091   1.160
 6249TIP3    H240239   3.926   5.234   1.138
 6250TIP3   OH240240   5.687   1.210   6.432
 6250TIP3    H140241   5.672   1.304   6.427
 6250TIP3    H240242   5.624   1.178   6.496
 6251TIP3   OH240243   2.015   2.142   5.720
 6251TIP3    H140244   2.029   2.106   5.808
 6251TIP3    H240245   2.101   2.177   5.695
 6252TIP3   OH240246   6.746   5.606  11.140
 6252TIP3    H140247   6.740   5.606  11.236
 6252TIP3    H240248   6.659   5.580  11.110
 6253TIP3   OH240249   5.181   6.546   5.415
 6253TIP3    H140250   5.253   6.495   5.379
 6253TIP3    H240251   5.213   6.575   5.501
 6254TIP3   OH240252   3.194   4.813  12.444
 6254TIP3    H140253   3.238   4.733  12.470
 6254TIP3    H240254   3.265   4.876  12.428
 6255TIP3   OH240255   6.613   2.882  14.673
 6255TIP3    H140256   6.700   2.908  14.703
 6255TIP3    H240257   6.562   2.871  14.754
 6256TIP3   OH240258   4.819   6.685   2.062
 6256TIP3    H140259   4.770   6.768   2.067
 6256TIP3    H240260   4.807   6.646   2.149
 6257TIP3   OH240261   3.119   0.054  15.687
 6257TIP3    H140262   3.162   0.121  15.739
 6257TIP3    H240263   3.176   0.041  15.611
 6258TIP3   OH240264   1.913   0.416  14.234
 6258TIP3    H140265   1.996   0.392  14.273
 6258TIP3    H240266   1.932   0.498  14.187
 6259TIP3   OH240267   4.130   2.551   4.615
 6259TIP3    H140268   4.078   2.630   4.625
 6259TIP3    H240269   4.200   2.575   4.555
 6260TIP3   OH240270   3.538   3.031   4.736
 6260TIP3    H140271   3.580   3.014   4.651
 6260TIP3    H240272   3.488   2.951   4.754
 6261TIP3   OH240273   4.482   4.900  10.941
 6261TIP3    H140274   4.418   4.966  10.917
 6261TIP3    H240275   4.565   4.933  10.905
 6262TIP3   OH240276   3.933   2.396   5.611
 6262TIP3    H140277   3.924   2.484   5.648
 6262TIP3    H240278   3.849   2.379   5.568
 6263TIP3   OH240279   0.640   1.995  16.201
 6263TIP3    H140280   0.688   2.050  16.139
 6263TIP3    H240281   0.682   1.909  16.194
 6264TIP3   OH240282   3.187   3.231  12.167
 6264TIP3    H140283   3.124   3.296  12.197
 6264TIP3    H240284   3.217   3.264  12.083
 6265TIP3   OH240285   6.593   5.436  14.283
 6265TIP3    H140286   6.545   5.354  14.298
 6265TIP3    H240287   6.685   5.412  14.291
 6266TIP3   OH240288   6.017   3.083   2.280
 6266TIP3    H140289   5.934   3.128   2.297
 6266TIP3    H240290   6.005   2.996   2.316
 6267TIP3   OH240291   0.939   0.576  16.272
 6267TIP3    H140292   0.945   0.547  16.363
 6267TIP3    H240293   0.948   0.495  16.221
 6268TIP3   OH240294   0.780   3.353  14.775
 6268TIP3    H140295   0.699   3.404  14.778
 6268TIP3    H240296   0.846   3.408  14.817
 6269TIP3   OH240297   2.905   5.285  15.615
 6269TIP3    H140298   2.936   5.253  15.530
 6269TIP3    H240299   2.986   5.309  15.662
 6270TIP3   OH240300   2.025   2.362   4.614
 6270TIP3    H140301   1.955   2.339   4.675
 6270TIP3    H240302   2.094   2.297   4.630
 6271TIP3   OH240303   1.370   4.942  13.024
 6271TIP3    H140304   1.350   4.920  13.115
 6271TIP3    H240305   1.403   5.032  13.028
 6272TIP3   OH240306   5.233   6.608   0.562
 6272TIP3    H140307   5.205   6.520   0.588
 6272TIP3    H240308   5.151   6.658   0.557
 6273TIP3   OH240309   5.449   2.750   6.387
 6273TIP3    H140310   5.460   2.829   6.439
 6273TIP3    H240311   5.392   2.694   6.441
 6274TIP3   OH240312   1.260   0.260   2.364
 6274TIP3    H140313   1.274   0.192   2.299
 6274TIP3    H240314   1.166   0.259   2.381
 6275TIP3   OH240315   6.394   2.615  13.177
 6275TIP3    H140316   6.424   2.705  13.180
 6275TIP3    H240317   6.430   2.581  13.095
 6276TIP3   OH240318   5.185   3.027  15.790
 6276TIP3    H140319   5.154   3.117  15.806
 6276TIP3    H240320   5.117   2.989  15.734
 6277TIP3   OH240321   5.140   5.793   4.624
 6277TIP3    H140322   5.159   5.741   4.702
 6277TIP3    H240323   5.076   5.858   4.652
 6278TIP3   OH240324   4.460   4.202   1.651
 6278TIP3    H140325   4.525   4.244   1.707
 6278TIP3    H240326   4.456   4.257   1.573
 6279TIP3   OH240327   2.461   3.708   5.248
 6279TIP3    H140328   2.478   3.614   5.258
 6279TIP3    H240329   2.525   3.737   5.183
 6280TIP3   OH240330   3.969   1.306  15.938
 6280TIP3    H140331   3.977   1.304  16.033
 6280TIP3    H240332   3.956   1.398  15.917
 6281TIP3   OH240333   6.811   0.765  15.643
 6281TIP3    H140334   6.745   0.806  15.587
 6281TIP3    H240335   6.827   0.829  15.712
 6282TIP3   OH240336   0.803   0.228   3.992
 6282TIP3    H140337   0.825   0.320   4.010
 6282TIP3    H240338   0.774   0.193   4.076
 6283TIP3   OH240339   2.519   0.864  14.653
 6283TIP3    H140340   2.469   0.943  14.674
 6283TIP3    H240341   2.467   0.820  14.586
 6284TIP3   OH240342   5.285   5.088   1.960
 6284TIP3    H140343   5.213   5.112   2.018
 6284TIP3    H240344   5.292   5.162   1.899
 6285TIP3   OH240345   1.563   1.410  15.210
 6285TIP3    H140346   1.648   1.445  15.237
 6285TIP3    H240347   1.500   1.473  15.246
 6286TIP3   OH240348   5.637   0.065  12.754
 6286TIP3    H140349   5.607   0.079  12.664
 6286TIP3    H240350   5.702   0.134  12.768
 6287TIP3   OH240351   1.145   0.608   7.129
 6287TIP3    H140352   1.142   0.513   7.138
 6287TIP3    H240353   1.197   0.623   7.050
 6288TIP3   OH240354   3.727   5.106  11.530
 6288TIP3    H140355   3.762   5.179  11.479
 6288TIP3    H240356   3.633   5.106  11.509
 6289TIP3   OH240357   0.204   2.231  16.683
 6289TIP3    H140358   0.246   2.314  16.663
 6289TIP3    H240359   0.125   2.230  16.628
 6290TIP3   OH240360   0.100   4.881  15.661
 6290TIP3    H140361   0.164   4.921  15.603
 6290TIP3    H240362   0.030   4.851  15.602
 6291TIP3   OH240363   2.744   4.458  15.747
 6291TIP3    H140364   2.665   4.477  15.799
 6291TIP3    H240365   2.801   4.410  15.807
 6292TIP3   OH240366   0.369   1.631  16.931
 6292TIP3    H140367   0.394   1.655  16.842
 6292TIP3    H240368   0.422   1.554  16.952
 6293TIP3   OH240369   5.989   3.055  14.188
 6293TIP3    H140370   5.929   2.985  14.162
 6293TIP3    H240371   5.983   3.058  14.283
 6294TIP3   OH240372   5.378   0.228   5.568
 6294TIP3    H140373   5.321   0.155   5.540
 6294TIP3    H240374   5.317   0.296   5.596
 6295TIP3   OH240375   6.768   2.057  12.175
 6295TIP3    H140376   6.773   1.979  12.120
 6295TIP3    H240377   6.687   2.100  12.149
 6296TIP3   OH240378   0.721   1.585  16.966
 6296TIP3    H140379   0.643   1.528  16.967
 6296TIP3    H240380   0.759   1.576  17.053
 6297TIP3   OH240381   1.509   6.620   2.717
 6297TIP3    H140382   1.498   6.540   2.665
 6297TIP3    H240383   1.475   6.597   2.803
 6298TIP3   OH240384   1.483   6.512  12.945
 6298TIP3    H140385   1.447   6.439  12.994
 6298TIP3    H240386   1.518   6.473  12.865
 6299TIP3   OH240387   1.397   5.466  15.982
 6299TIP3    H140388   1.357   5.523  15.916
 6299TIP3    H240389   1.491   5.469  15.961
 6300TIP3   OH240390   3.890   6.108   3.783
 6300TIP3    H140391   3.935   6.156   3.715
 6300TIP3    H240392   3.819   6.062   3.737
 6301TIP3   OH240393   2.197   5.262  10.903
 6301TIP3    H140394   2.281   5.288  10.941
 6301TIP3    H240395   2.206   5.280  10.809
 6302TIP3   OH240396   0.312   0.680  12.559
 6302TIP3    H140397   0.334   0.732  12.482
 6302TIP3    H240398   0.349   0.593  12.540
 6303TIP3   OH240399   2.463   4.796  11.886
 6303TIP3    H140400   2.543   4.835  11.920
 6303TIP3    H240401   2.417   4.764  11.964
 6304TIP3   OH240402   4.049   1.032   3.738
 6304TIP3    H140403   4.024   0.976   3.811
 6304TIP3    H240404   4.051   1.120   3.775
 6305TIP3   OH240405   2.267   2.461   0.162
 6305TIP3    H140406   2.326   2.449   0.089
 6305TIP3    H240407   2.231   2.374   0.179
 6306TIP3   OH240408   6.370   5.259   6.129
 6306TIP3    H140409   6.297   5.260   6.191
 6306TIP3    H240410   6.437   5.204   6.171
 6307TIP3   OH240411   2.365   2.600  15.003
 6307TIP3    H140412   2.306   2.635  14.936
 6307TIP3    H240413   2.416   2.533  14.957
 6308TIP3   OH240414   4.173   0.746  11.570
 6308TIP3    H140415   4.145   0.678  11.508
 6308TIP3    H240416   4.255   0.780  11.533
 6309TIP3   OH240417   2.395   0.795  15.676
 6309TIP3    H140418   2.483   0.831  15.682
 6309TIP3    H240419   2.347   0.836  15.748
 6310TIP3   OH240420   0.346   2.766   0.711
 6310TIP3    H140421   0.394   2.840   0.748
 6310TIP3    H240422   0.339   2.704   0.783
 6311TIP3   OH240423   3.308   0.724  11.393
 6311TIP3    H140424   3.267   0.746  11.309
 6311TIP3    H240425   3.361   0.800  11.415
 6312TIP3   OH240426   5.621   3.767  10.964
 6312TIP3    H140427   5.707   3.792  10.931
 6312TIP3    H240428   5.564   3.840  10.940
 6313TIP3   OH240429   3.594   1.140  13.581
 6313TIP3    H140430   3.655   1.186  13.524
 6313TIP3    H240431   3.636   1.143  13.667
 6314TIP3   OH240432   4.745   3.596   1.691
 6314TIP3    H140433   4.777   3.683   1.716
 6314TIP3    H240434   4.687   3.612   1.617
 6315TIP3   OH240435   0.408   3.819   4.414
 6315TIP3    H140436   0.365   3.896   4.453
 6315TIP3    H240437   0.409   3.754   4.485
 6316TIP3   OH240438   4.973   2.095  12.927
 6316TIP3    H140439   5.041   2.105  12.860
 6316TIP3    H240440   4.992   2.011  12.968
 6317TIP3   OH240441   2.418   1.304   0.772
 6317TIP3    H140442   2.422   1.281   0.679
 6317TIP3    H240443   2.325   1.322   0.788
 6318TIP3   OH240444   0.712   0.722  10.681
 6318TIP3    H140445   0.705   0.703  10.775
 6318TIP3    H240446   0.771   0.796  10.675
 6319TIP3   OH240447   2.307   4.561   2.490
 6319TIP3    H140448   2.281   4.591   2.577
 6319TIP3    H240449   2.403   4.563   2.492
 6320TIP3   OH240450   1.277   5.180  15.894
 6320TIP3    H140451   1.257   5.242  15.963
 6320TIP3    H240452   1.216   5.107  15.908
 6321TIP3   OH240453   4.425   4.614  16.368
 6321TIP3    H140454   4.465   4.559  16.301
 6321TIP3    H240455   4.414   4.556  16.443
 6322TIP3   OH240456   6.339   3.385  12.670
 6322TIP3    H140457   6.264   3.435  12.704
 6322TIP3    H240458   6.395   3.452  12.629
 6323TIP3   OH240459   1.432   1.640  15.273
 6323TIP3    H140460   1.353   1.592  15.298
 6323TIP3    H240461   1.405   1.732  15.273
 6324TIP3   OH240462   6.593   3.735  11.994
 6324TIP3    H140463   6.549   3.776  11.919
 6324TIP3    H240464   6.622   3.650  11.961
 6325TIP3   OH240465   0.894   6.116  15.481
 6325TIP3    H140466   0.809   6.159  15.475
 6325TIP3    H240467   0.957   6.188  15.489
 6326TIP3   OH240468   0.742   3.090  11.726
 6326TIP3    H140469   0.836   3.093  11.708
 6326TIP3    H240470   0.707   3.167  11.683
 6327TIP3   OH240471   5.862   2.382  13.230
 6327TIP3    H140472   5.885   2.367  13.139
 6327TIP3    H240473   5.923   2.328  13.280
 6328TIP3   OH240474   3.275   2.199   1.953
 6328TIP3    H140475   3.205   2.252   1.990
 6328TIP3    H240476   3.351   2.256   1.954
 6329TIP3   OH240477   4.685   4.946   3.003
 6329TIP3    H140478   4.591   4.951   3.023
 6329TIP3    H240479   4.691   4.890   2.926
 6330TIP3   OH240480   2.301   6.643  16.563
 6330TIP3    H140481   2.233   6.576  16.564
 6330TIP3    H240482   2.347   6.632  16.646
 6331TIP3   OH240483   0.574   0.445  12.150
 6331TIP3    H140484   0.623   0.523  12.173
 6331TIP3    H240485   0.561   0.451  12.056
 6332TIP3   OH240486   5.670   6.175   4.768
 6332TIP3    H140487   5.634   6.238   4.830
 6332TIP3    H240488   5.594   6.129   4.733
 6333TIP3   OH240489   5.206   1.977   3.418
 6333TIP3    H140490   5.260   1.906   3.383
 6333TIP3    H240491   5.269   2.039   3.455
 6334TIP3   OH240492   0.673   0.537   3.730
 6334TIP3    H140493   0.655   0.631   3.736
 6334TIP3    H240494   0.691   0.523   3.637
 6335TIP3   OH240495   3.032   6.801  13.993
 6335TIP3    H140496   3.021   6.873  14.055
 6335TIP3    H240497   2.969   6.819  13.924
 6336TIP3   OH240498   5.536   5.462   3.289
 6336TIP3    H140499   5.616   5.502   3.255
 6336TIP3    H240500   5.500   5.527   3.349
 6337TIP3   OH240501   1.436   1.364   3.181
 6337TIP3    H140502   1.509   1.372   3.118
 6337TIP3    H240503   1.449   1.437   3.242
 6338TIP3   OH240504   2.798   4.650  15.571
 6338TIP3    H140505   2.775   4.585  15.637
 6338TIP3    H240506   2.766   4.613  15.489
 6339TIP3   OH240507   0.226   5.182   3.103
 6339TIP3    H140508   0.218   5.126   3.026
 6339TIP3    H240509   0.251   5.123   3.174
 6340TIP3   OH240510   1.442   1.743  16.258
 6340TIP3    H140511   1.403   1.819  16.215
 6340TIP3    H240512   1.430   1.671  16.195
 6341TIP3   OH240513   6.794   4.813   1.716
 6341TIP3    H140514   6.713   4.771   1.687
 6341TIP3    H240515   6.772   4.851   1.801
 6342TIP3   OH240516   1.840   4.951  12.037
 6342TIP3    H140517   1.777   4.884  12.011
 6342TIP3    H240518   1.786   5.024  12.070
 6343TIP3   OH240519   6.759   2.074   1.423
 6343TIP3    H140520   6.701   2.134   1.470
 6343TIP3    H240521   6.797   2.019   1.492
 6344TIP3   OH240522   3.696   4.253  12.672
 6344TIP3    H140523   3.778   4.253  12.722
 6344TIP3    H240524   3.725   4.252  12.580
 6345TIP3   OH240525   2.970   3.825  15.667
 6345TIP3    H140526   3.008   3.761  15.727
 6345TIP3    H240527   2.931   3.773  15.597
 6346TIP3   OH240528   3.817   0.595  11.421
 6346TIP3    H140529   3.826   0.552  11.336
 6346TIP3    H240530   3.725   0.619  11.426
 6347TIP3   OH240531   6.296   3.400  16.797
 6347TIP3    H140532   6.283   3.306  16.785
 6347TIP3    H240533   6.210   3.433  16.823
 6348TIP3   OH240534   3.117   5.117  10.712
 6348TIP3    H140535   3.094   5.074  10.794
 6348TIP3    H240536   3.079   5.062  10.644
 6349TIP3   OH240537   4.023   3.961   2.739
 6349TIP3    H140538   3.944   3.995   2.781
 6349TIP3    H240539   4.095   4.001   2.787
 6350TIP3   OH240540   0.448   0.408  16.844
 6350TIP3    H140541   0.379   0.373  16.788
 6350TIP3    H240542   0.410   0.411  16.931
 6351TIP3   OH240543   0.170   3.673  12.445
 6351TIP3    H140544   0.097   3.723  12.409
 6351TIP3    H240545   0.134   3.586  12.461
 6352TIP3   OH240546   5.846   4.274  11.652
 6352TIP3    H140547   5.908   4.317  11.593
 6352TIP3    H240548   5.805   4.346  11.700
 6353TIP3   OH240549   4.241   3.473   3.862
 6353TIP3    H140550   4.221   3.418   3.787
 6353TIP3    H240551   4.335   3.461   3.876
 6354TIP3   OH240552   5.538   3.102   4.049
 6354TIP3    H140553   5.610   3.042   4.031
 6354TIP3    H240554   5.492   3.063   4.123
 6355TIP3   OH240555   2.168   0.290   5.198
 6355TIP3    H140556   2.123   0.315   5.117
 6355TIP3    H240557   2.139   0.355   5.262
 6356TIP3   OH240558   1.390   0.361  14.380
 6356TIP3    H140559   1.485   0.351  14.382
 6356TIP3    H240560   1.363   0.323  14.296
 6357TIP3   OH240561   2.475   5.424  11.320
 6357TIP3    H140562   2.550   5.365  11.327
 6357TIP3    H240563   2.403   5.368  11.290
 6358TIP3   OH240564   4.450   0.697   2.821
 6358TIP3    H140565   4.476   0.652   2.741
 6358TIP3    H240566   4.514   0.768   2.830
 6359TIP3   OH240567   1.463   1.890  11.906
 6359TIP3    H140568   1.390   1.863  11.963
 6359TIP3    H240569   1.477   1.982  11.928
 6360TIP3   OH240570   0.262   2.971  17.029
 6360TIP3    H140571   0.241   2.917  17.105
 6360TIP3    H240572   0.311   3.044  17.064
 6361TIP3   OH240573   2.733   1.759  16.247
 6361TIP3    H140574   2.700   1.809  16.172
 6361TIP3    H240575   2.770   1.680  16.208
 6362TIP3   OH240576   1.817   3.584  12.661
 6362TIP3    H140577   1.808   3.489  12.668
 6362TIP3    H240578   1.812   3.601  12.567
 6363TIP3   OH240579   1.841   4.126   5.225
 6363TIP3    H140580   1.900   4.201   5.220
 6363TIP3    H240581   1.900   4.050   5.228
 6364TIP3   OH240582   3.315   6.550   3.299
 6364TIP3    H140583   3.255   6.496   3.350
 6364TIP3    H240584   3.283   6.639   3.311
 6365TIP3   OH240585   3.391   1.578   0.938
 6365TIP3    H140586   3.432   1.555   1.022
 6365TIP3    H240587   3.307   1.616   0.962
 6366TIP3   OH240588   4.577   5.599  16.183
 6366TIP3    H140589   4.603   5.519  16.227
 6366TIP3    H240590   4.521   5.645  16.247
 6367TIP3   OH240591   1.385   5.747  12.143
 6367TIP3    H140592   1.296   5.751  12.177
 6367TIP3    H240593   1.439   5.734  12.221
 6368TIP3   OH240594   0.997   4.555   4.712
 6368TIP3    H140595   0.968   4.465   4.699
 6368TIP3    H240596   0.922   4.600   4.750
 6369TIP3   OH240597   0.775   3.333  13.067
 6369TIP3    H140598   0.795   3.265  13.131
 6369TIP3    H240599   0.680   3.341  13.070
 6370TIP3   OH240600   0.339   0.341  17.105
 6370TIP3    H140601   0.265   0.386  17.145
 6370TIP3    H240602   0.364   0.274  17.169
 6371TIP3   OH240603   1.295   5.660  16.674
 6371TIP3    H140604   1.322   5.706  16.753
 6371TIP3    H240605   1.214   5.615  16.700
 6372TIP3   OH240606   5.175   4.588   1.579
 6372TIP3    H140607   5.189   4.498   1.606
 6372TIP3    H240608   5.097   4.616   1.627
 6373TIP3   OH240609   4.150   5.767  11.922
 6373TIP3    H140610   4.115   5.856  11.930
 6373TIP3    H240611   4.233   5.770  11.969
 6374TIP3   OH240612   4.607   2.125   3.292
 6374TIP3    H140613   4.680   2.181   3.265
 6374TIP3    H240614   4.529   2.171   3.260
 6375TIP3   OH240615   3.981   1.521  14.215
 6375TIP3    H140616   3.942   1.478  14.291
 6375TIP3    H240617   3.934   1.604  14.207
 6376TIP3   OH240618   5.644   5.466   5.476
 6376TIP3    H140619   5.648   5.499   5.565
 6376TIP3    H240620   5.566   5.410   5.474
 6377TIP3   OH240621   6.270   6.072   3.168
 6377TIP3    H140622   6.227   5.989   3.189
 6377TIP3    H240623   6.224   6.136   3.222
 6378TIP3   OH240624   6.363   2.055   3.239
 6378TIP3    H140625   6.451   2.018   3.231
 6378TIP3    H240626   6.339   2.080   3.149
 6379TIP3   OH240627   1.350   5.815   0.561
 6379TIP3    H140628   1.404   5.892   0.576
 6379TIP3    H240629   1.292   5.839   0.489
 6380TIP3   OH240630   6.816   3.956   3.430
 6380TIP3    H140631   6.859   4.030   3.473
 6380TIP3    H240632   6.803   3.985   3.339
 6381TIP3   OH240633   2.701   0.414   3.586
 6381TIP3    H140634   2.639   0.437   3.518
 6381TIP3    H240635   2.780   0.463   3.565
 6382TIP3   OH240636   3.115   1.859   1.242
 6382TIP3    H140637   3.054   1.849   1.315
 6382TIP3    H240638   3.127   1.953   1.233
 6383TIP3   OH240639   3.387   1.732   4.794
 6383TIP3    H140640   3.460   1.676   4.767
 6383TIP3    H240641   3.427   1.812   4.826
 6384TIP3   OH240642   4.744   3.883   0.446
 6384TIP3    H140643   4.836   3.873   0.470
 6384TIP3    H240644   4.747   3.916   0.356
 6385TIP3   OH240645   2.872   4.591   5.691
 6385TIP3    H140646   2.865   4.497   5.710
 6385TIP3    H240647   2.822   4.603   5.610
 6386TIP3   OH240648   6.192   1.553   1.286
 6386TIP3    H140649   6.265   1.576   1.229
 6386TIP3    H240650   6.156   1.473   1.249
 6387TIP3   OH240651   0.389   1.406   0.369
 6387TIP3    H140652   0.455   1.339   0.354
 6387TIP3    H240653   0.358   1.430   0.282
 6388TIP3   OH240654   3.970   6.220   5.776
 6388TIP3    H140655   4.026   6.166   5.721
 6388TIP3    H240656   3.935   6.287   5.717
 6389TIP3   OH240657   4.773   1.902  14.545
 6389TIP3    H140658   4.719   1.966  14.591
 6389TIP3    H240659   4.732   1.818  14.565
 6390TIP3   OH240660   3.685   5.093   2.761
 6390TIP3    H140661   3.780   5.108   2.766
 6390TIP3    H240662   3.647   5.168   2.807
 6391TIP3   OH240663   3.605   6.738  14.900
 6391TIP3    H140664   3.555   6.749  14.981
 6391TIP3    H240665   3.663   6.664  14.918
 6392TIP3   OH240666   0.301   2.548   4.160
 6392TIP3    H140667   0.362   2.531   4.088
 6392TIP3    H240668   0.338   2.624   4.205
 6393TIP3   OH240669   5.725   6.749  14.369
 6393TIP3    H140670   5.697   6.751  14.460
 6393TIP3    H240671   5.654   6.705  14.323
 6394TIP3   OH240672   4.330   4.814   2.897
 6394TIP3    H140673   4.309   4.862   2.977
 6394TIP3    H240674   4.249   4.770   2.873
 6395TIP3   OH240675   4.813   0.627   5.042
 6395TIP3    H140676   4.904   0.648   5.064
 6395TIP3    H240677   4.796   0.675   4.961
 6396TIP3   OH240678   4.733   3.379   4.295
 6396TIP3    H140679   4.671   3.306   4.286
 6396TIP3    H240680   4.686   3.454   4.258
 6397TIP3   OH240681   0.972   1.276   1.752
 6397TIP3    H140682   1.055   1.274   1.704
 6397TIP3    H240683   0.907   1.300   1.686
 6398TIP3   OH240684   5.855   4.165   6.096
 6398TIP3    H140685   5.824   4.207   6.177
 6398TIP3    H240686   5.867   4.073   6.120
 6399TIP3   OH240687   5.433   3.757   3.747
 6399TIP3    H140688   5.352   3.802   3.771
 6399TIP3    H240689   5.490   3.767   3.823
 6400TIP3   OH240690   2.172   1.946   4.228
 6400TIP3    H140691   2.130   2.004   4.291
 6400TIP3    H240692   2.184   2.001   4.150
 6401TIP3   OH240693   4.329   6.003   5.140
 6401TIP3    H140694   4.417   6.023   5.172
 6401TIP3    H240695   4.336   5.915   5.102
 6402TIP3   OH240696   0.639   2.058  16.477
 6402TIP3    H140697   0.650   1.972  16.518
 6402TIP3    H240698   0.639   2.040  16.383
 6403TIP3   OH240699   1.272   4.415   0.361
 6403TIP3    H140700   1.267   4.506   0.393
 6403TIP3    H240701   1.345   4.377   0.410
 6404TIP3   OH240702   4.638   0.475   6.214
 6404TIP3    H140703   4.586   0.532   6.271
 6404TIP3    H240704   4.701   0.433   6.273
 6405TIP3   OH240705   0.049   6.023  11.393
 6405TIP3    H140706   0.084   6.093  11.339
 6405TIP3    H240707   0.089   5.943  11.359
 6406TIP3   OH240708   2.394   0.780   6.650
 6406TIP3    H140709   2.320   0.728   6.620
 6406TIP3    H240710   2.401   0.851   6.586
 6407TIP3   OH240711   0.782   3.189  16.802
 6407TIP3    H140712   0.814   3.128  16.735
 6407TIP3    H240713   0.861   3.214  16.850
 6408TIP3   OH240714   0.189   6.171   3.660
 6408TIP3    H140715   0.247   6.117   3.715
 6408TIP3    H240716   0.218   6.260   3.676
 6409TIP3   OH240717   2.703   3.440   0.739
 6409TIP3    H140718   2.630   3.383   0.713
 6409TIP3    H240719   2.760   3.385   0.791
 6410TIP3   OH240720   0.245   0.054   6.413
 6410TIP3    H140721   0.317   0.084   6.470
 6410TIP3    H240722   0.175   0.030   6.473
 6411TIP3   OH240723   6.534   0.809  15.847
 6411TIP3    H140724   6.593   0.815  15.922
 6411TIP3    H240725   6.592   0.793  15.772
 6412TIP3   OH240726   3.992   4.744  14.717
 6412TIP3    H140727   3.959   4.753  14.806
 6412TIP3    H240728   3.919   4.770  14.661
 6413TIP3   OH240729   2.477   5.924   1.816
 6413TIP3    H140730   2.421   5.990   1.858
 6413TIP3    H240731   2.424   5.845   1.814
 6414TIP3   OH240732   0.841   1.398  11.819
 6414TIP3    H140733   0.772   1.389  11.885
 6414TIP3    H240734   0.802   1.362  11.739
 6415TIP3   OH240735   4.487   2.375   5.935
 6415TIP3    H140736   4.433   2.441   5.890
 6415TIP3    H240737   4.489   2.301   5.874
 6416TIP3   OH240738   4.071   0.608  14.808
 6416TIP3    H140739   4.037   0.681  14.757
 6416TIP3    H240740   4.102   0.649  14.889
 6417TIP3   OH240741   0.633   0.804  16.046
 6417TIP3    H140742   0.596   0.876  16.097
 6417TIP3    H240743   0.604   0.821  15.956
 6418TIP3   OH240744   4.460   3.362   1.977
 6418TIP3    H140745   4.510   3.439   1.947
 6418TIP3    H240746   4.503   3.288   1.933
 6419TIP3   OH240747   2.137   4.701  10.270
 6419TIP3    H140748   2.216   4.736  10.229
 6419TIP3    H240749   2.169   4.650  10.344
 6420TIP3   OH240750   6.407   3.960  16.174
 6420TIP3    H140751   6.338   3.966  16.239
 6420TIP3    H240752   6.397   3.872  16.136
 6421TIP3   OH240753   4.781   1.281  14.153
 6421TIP3    H140754   4.821   1.302  14.069
 6421TIP3    H240755   4.848   1.231  14.200
 6422TIP3   OH240756   5.247   1.808  11.970
 6422TIP3    H140757   5.212   1.816  11.881
 6422TIP3    H240758   5.192   1.866  12.023
 6423TIP3   OH240759   2.487   0.682   3.360
 6423TIP3    H140760   2.522   0.675   3.449
 6423TIP3    H240761   2.426   0.609   3.353
 6424TIP3   OH240762   1.603   1.266  14.965
 6424TIP3    H140763   1.584   1.335  15.029
 6424TIP3    H240764   1.548   1.192  14.993
 6425TIP3   OH240765   5.233   1.691  13.474
 6425TIP3    H140766   5.153   1.679  13.525
 6425TIP3    H240767   5.203   1.689  13.383
 6426TIP3   OH240768   1.424   4.199   4.001
 6426TIP3    H140769   1.404   4.130   3.937
 6426TIP3    H240770   1.344   4.207   4.053
 6427TIP3   OH240771   6.257   5.815  12.143
 6427TIP3    H140772   6.167   5.792  12.165
 6427TIP3    H240773   6.278   5.888  12.201
 6428TIP3   OH240774   4.118   1.742   6.165
 6428TIP3    H140775   4.106   1.647   6.167
 6428TIP3    H240776   4.194   1.756   6.109
 6429TIP3   OH240777   1.065   0.456   4.557
 6429TIP3    H140778   0.988   0.499   4.595
 6429TIP3    H240779   1.134   0.523   4.559
 6430TIP3   OH240780   3.222   2.130   0.351
 6430TIP3    H140781   3.147   2.153   0.406
 6430TIP3    H240782   3.298   2.155   0.403
 6431TIP3   OH240783   4.748   2.398   4.009
 6431TIP3    H140784   4.752   2.364   3.920
 6431TIP3    H240785   4.822   2.359   4.054
 6432TIP3   OH240786   6.738   1.792  12.857
 6432TIP3    H140787   6.746   1.750  12.771
 6432TIP3    H240788   6.655   1.758  12.891
 6433TIP3   OH240789   0.844   5.497   2.874
 6433TIP3    H140790   0.901   5.433   2.916
 6433TIP3    H240791   0.904   5.556   2.829
 6434TIP3   OH240792   4.543   0.840   3.943
 6434TIP3    H140793   4.550   0.892   4.022
 6434TIP3    H240794   4.567   0.751   3.970
 6435TIP3   OH240795   3.194   2.936  11.008
 6435TIP3    H140796   3.112   2.910  10.967
 6435TIP3    H240797   3.256   2.942  10.935
 6436TIP3   OH240798   3.121   1.837  15.944
 6436TIP3    H140799   3.178   1.908  15.914
 6436TIP3    H240800   3.090   1.795  15.864
 6437TIP3   OH240801   0.509   4.328   5.982
 6437TIP3    H140802   0.568   4.307   5.910
 6437TIP3    H240803   0.443   4.259   5.981
 6438TIP3   OH240804   0.585   5.723   6.137
 6438TIP3    H140805   0.669   5.679   6.146
 6438TIP3    H240806   0.534   5.692   6.212
 6439TIP3   OH240807   1.415   4.607   3.232
 6439TIP3    H140808   1.333   4.641   3.198
 6439TIP3    H240809   1.457   4.682   3.273
 6440TIP3   OH240810   5.406   2.870  10.935
 6440TIP3    H140811   5.327   2.859  10.882
 6440TIP3    H240812   5.380   2.930  11.005
 6441TIP3   OH240813   6.339   1.570   1.048
 6441TIP3    H140814   6.303   1.527   0.970
 6441TIP3    H240815   6.335   1.664   1.028
 6442TIP3   OH240816   4.670   0.555  16.120
 6442TIP3    H140817   4.693   0.480  16.065
 6442TIP3    H240818   4.753   0.580  16.162
 6443TIP3   OH240819   3.366   0.035   3.514
 6443TIP3    H140820   3.417   0.042   3.594
 6443TIP3    H240821   3.348  -0.059   3.505
 6444TIP3   OH240822   0.469   4.652  16.696
 6444TIP3    H140823   0.387   4.672  16.651
 6444TIP3    H240824   0.514   4.589  16.638
 6445TIP3   OH240825   4.536   3.372   1.062
 6445TIP3    H140826   4.554   3.466   1.065
 6445TIP3    H240827   4.544   3.349   0.970
 6446TIP3   OH240828   0.613   4.381   2.797
 6446TIP3    H140829   0.676   4.423   2.739
 6446TIP3    H240830   0.667   4.329   2.857
 6447TIP3   OH240831   5.690   4.364   4.336
 6447TIP3    H140832   5.730   4.417   4.267
 6447TIP3    H240833   5.732   4.394   4.417
 6448TIP3   OH240834   2.763   0.600  11.832
 6448TIP3    H140835   2.763   0.640  11.745
 6448TIP3    H240836   2.692   0.536  11.829
 6449TIP3   OH240837   6.302   6.246  15.498
 6449TIP3    H140838   6.372   6.216  15.556
 6449TIP3    H240839   6.347   6.276  15.419
 6450TIP3   OH240840   2.472   6.022  14.490
 6450TIP3    H140841   2.491   5.929  14.496
 6450TIP3    H240842   2.432   6.044  14.574
 6451TIP3   OH240843   6.421   2.309  13.029
 6451TIP3    H140844   6.492   2.284  12.970
 6451TIP3    H240845   6.438   2.261  13.109
 6452TIP3   OH240846   3.156   2.562  15.908
 6452TIP3    H140847   3.096   2.553  15.834
 6452TIP3    H240848   3.099   2.587  15.981
 6453TIP3   OH240849   4.512   3.410   3.891
 6453TIP3    H140850   4.598   3.426   3.852
 6453TIP3    H240851   4.514   3.317   3.917
 6454TIP3   OH240852   6.811   4.712   1.395
 6454TIP3    H140853   6.735   4.672   1.437
 6454TIP3    H240854   6.801   4.692   1.302
 6455TIP3   OH240855   4.017   6.303  16.082
 6455TIP3    H140856   3.963   6.278  16.007
 6455TIP3    H240857   3.992   6.394  16.099
 6456TIP3   OH240858   4.912   2.655  12.079
 6456TIP3    H140859   4.971   2.687  12.148
 6456TIP3    H240860   4.968   2.601  12.023
 6457TIP3   OH240861   3.876   4.339  12.032
 6457TIP3    H140862   3.867   4.426  11.994
 6457TIP3    H240863   3.952   4.346  12.091
 6458TIP3   OH240864   4.154   0.155  12.985
 6458TIP3    H140865   4.242   0.143  13.021
 6458TIP3    H240866   4.118   0.066  12.983
 6459TIP3   OH240867   6.758   4.265  13.293
 6459TIP3    H140868   6.702   4.216  13.353
 6459TIP3    H240869   6.725   4.242  13.206
 6460TIP3   OH240870   2.713   2.589   5.660
 6460TIP3    H140871   2.632   2.577   5.710
 6460TIP3    H240872   2.765   2.512   5.680
 6461TIP3   OH240873   5.614   4.163  11.709
 6461TIP3    H140874   5.698   4.168  11.663
 6461TIP3    H240875   5.616   4.080  11.755
 6462TIP3   OH240876   1.447   5.353   0.908
 6462TIP3    H140877   1.382   5.423   0.907
 6462TIP3    H240878   1.445   5.319   0.997
 6463TIP3   OH240879   1.028   0.484  14.910
 6463TIP3    H140880   0.948   0.492  14.961
 6463TIP3    H240881   1.048   0.390  14.909
 6464TIP3   OH240882   4.265   5.346  16.725
 6464TIP3    H140883   4.248   5.253  16.737
 6464TIP3    H240884   4.309   5.373  16.806
 6465TIP3   OH240885   6.231   5.201   3.440
 6465TIP3    H140886   6.202   5.273   3.496
 6465TIP3    H240887   6.165   5.133   3.454
 6466TIP3   OH240888   0.979   3.331   3.272
 6466TIP3    H140889   1.037   3.257   3.291
 6466TIP3    H240890   0.985   3.387   3.350
 6467TIP3   OH240891   1.831   4.638  12.948
 6467TIP3    H140892   1.805   4.549  12.924
 6467TIP3    H240893   1.896   4.626  13.017
 6468TIP3   OH240894   4.221   3.148  16.736
 6468TIP3    H140895   4.149   3.192  16.783
 6468TIP3    H240896   4.190   3.058  16.725
 6469TIP3   OH240897   4.510   2.418  15.851
 6469TIP3    H140898   4.575   2.412  15.921
 6469TIP3    H240899   4.514   2.334  15.807
 6470TIP3   OH240900   1.768   0.427  15.782
 6470TIP3    H140901   1.673   0.430  15.773
 6470TIP3    H240902   1.787   0.477  15.861
 6471TIP3   OH240903   0.206   3.343   5.569
 6471TIP3    H140904   0.113   3.359   5.553
 6471TIP3    H240905   0.208   3.276   5.637
 6472TIP3   OH240906   1.650   1.491  13.453
 6472TIP3    H140907   1.668   1.504  13.546
 6472TIP3    H240908   1.624   1.399  13.446
 6473TIP3   OH240909   0.449   0.675   6.478
 6473TIP3    H140910   0.542   0.693   6.490
 6473TIP3    H240911   0.435   0.590   6.521
 6474TIP3   OH240912   6.785   2.027  11.128
 6474TIP3    H140913   6.842   2.084  11.077
 6474TIP3    H240914   6.753   1.963  11.065
 6475TIP3   OH240915   0.669   3.367   0.502
 6475TIP3    H140916   0.672   3.298   0.436
 6475TIP3    H240917   0.690   3.447   0.454
 6476TIP3   OH240918   1.775   5.331  12.837
 6476TIP3    H140919   1.794   5.278  12.914
 6476TIP3    H240920   1.857   5.331  12.787
 6477TIP3   OH240921   5.667   1.756   0.657
 6477TIP3    H140922   5.588   1.726   0.612
 6477TIP3    H240923   5.712   1.676   0.683
 6478TIP3   OH240924   3.290   4.941   1.838
 6478TIP3    H140925   3.233   4.871   1.870
 6478TIP3    H240926   3.339   4.902   1.766
 6479TIP3   OH240927   5.714   3.973  11.167
 6479TIP3    H140928   5.698   4.009  11.080
 6479TIP3    H240929   5.744   3.884  11.151
 6480TIP3   OH240930   1.031   5.575  16.711
 6480TIP3    H140931   0.974   5.630  16.765
 6480TIP3    H240932   1.007   5.597  16.621
 6481TIP3   OH240933   1.378   4.200  15.690
 6481TIP3    H140934   1.449   4.264  15.679
 6481TIP3    H240935   1.349   4.212  15.781
 6482TIP3   OH240936   2.439   0.090   6.023
 6482TIP3    H140937   2.483   0.033   6.086
 6482TIP3    H240938   2.348   0.059   6.022
 6483TIP3   OH240939   2.651   6.145   1.149
 6483TIP3    H140940   2.620   6.073   1.204
 6483TIP3    H240941   2.611   6.128   1.063
 6484TIP3   OH240942   1.090   3.477   1.971
 6484TIP3    H140943   1.044   3.527   2.039
 6484TIP3    H240944   1.123   3.400   2.016
 6485TIP3   OH240945   4.303   2.890  13.656
 6485TIP3    H140946   4.292   2.931  13.570
 6485TIP3    H240947   4.396   2.898  13.674
 6486TIP3   OH240948   6.068   3.654  16.818
 6486TIP3    H140949   6.071   3.583  16.882
 6486TIP3    H240950   6.066   3.734  16.872
 6487TIP3   OH240951   6.433   2.699  14.326
 6487TIP3    H140952   6.469   2.675  14.411
 6487TIP3    H240953   6.363   2.761  14.346
 6488TIP3   OH240954   4.581   5.800  12.964
 6488TIP3    H140955   4.580   5.809  12.868
 6488TIP3    H240956   4.637   5.871  12.994
 6489TIP3   OH240957   3.369   5.704  14.663
 6489TIP3    H140958   3.327   5.727  14.580
 6489TIP3    H240959   3.462   5.697  14.642
 6490TIP3   OH240960   5.010   4.418  13.852
 6490TIP3    H140961   5.100   4.386  13.862
 6490TIP3    H240962   4.956   4.350  13.893
 6491TIP3   OH240963   0.672   0.466   4.629
 6491TIP3    H140964   0.640   0.412   4.557
 6491TIP3    H240965   0.684   0.404   4.701
 6492TIP3   OH240966   2.462   5.615   4.018
 6492TIP3    H140967   2.433   5.700   3.984
 6492TIP3    H240968   2.522   5.582   3.952
 6493TIP3   OH240969   2.689   6.233  12.443
 6493TIP3    H140970   2.634   6.252  12.519
 6493TIP3    H240971   2.671   6.303  12.381
 6494TIP3   OH240972   3.755   6.231  11.332
 6494TIP3    H140973   3.754   6.145  11.374
 6494TIP3    H240974   3.835   6.273  11.365
 6495TIP3   OH240975   5.627   3.939  14.364
 6495TIP3    H140976   5.664   3.977  14.284
 6495TIP3    H240977   5.595   3.853  14.337
 6496TIP3   OH240978   0.187   0.557   1.087
 6496TIP3    H140979   0.101   0.526   1.116
 6496TIP3    H240980   0.169   0.645   1.052
 6497TIP3   OH240981   1.642   5.536  15.879
 6497TIP3    H140982   1.710   5.597  15.909
 6497TIP3    H240983   1.610   5.574  15.797
 6498TIP3   OH240984   1.001   2.412   0.186
 6498TIP3    H140985   1.010   2.317   0.185
 6498TIP3    H240986   1.088   2.445   0.163
 6499TIP3   OH240987   6.440   2.536   6.351
 6499TIP3    H140988   6.496   2.459   6.361
 6499TIP3    H240989   6.408   2.530   6.261
 6500TIP3   OH240990   0.793   6.493  15.460
 6500TIP3    H140991   0.812   6.528  15.373
 6500TIP3    H240992   0.753   6.408  15.443
 6501TIP3   OH240993   2.712   4.162  16.774
 6501TIP3    H140994   2.657   4.231  16.811
 6501TIP3    H240995   2.655   4.085  16.773
 6502TIP3   OH240996   2.830   5.832  13.959
 6502TIP3    H140997   2.778   5.890  13.902
 6502TIP3    H240998   2.765   5.787  14.012
 6503TIP3   OH240999   3.545   2.979  16.992
 6503TIP3    H141000   3.523   2.903  17.046
 6503TIP3    H241001   3.462   3.027  16.983
 6504TIP3   OH241002   1.200   4.948  12.450
 6504TIP3    H141003   1.270   4.957  12.385
 6504TIP3    H241004   1.245   4.917  12.529
 6505TIP3   OH241005   5.563   4.822  11.491
 6505TIP3    H141006   5.491   4.871  11.450
 6505TIP3    H241007   5.628   4.889  11.511
 6506TIP3   OH241008   5.275   5.522   2.461
 6506TIP3    H141009   5.239   5.513   2.549
 6506TIP3    H241010   5.204   5.562   2.410
 6507TIP3   OH241011   2.179   5.075   1.783
 6507TIP3    H141012   2.228   5.016   1.726
 6507TIP3    H241013   2.126   5.127   1.723
 6508TIP3   OH241014   1.307   6.485   1.983
 6508TIP3    H141015   1.278   6.553   1.922
 6508TIP3    H241016   1.240   6.484   2.052
 6509TIP3   OH241017   1.812   0.602  12.349
 6509TIP3    H141018   1.847   0.642  12.429
 6509TIP3    H241019   1.862   0.643  12.278
 6510TIP3   OH241020   3.866   2.312   6.590
 6510TIP3    H141021   3.859   2.250   6.517
 6510TIP3    H241022   3.864   2.398   6.548
 6511TIP3   OH241023   3.297   5.109  16.121
 6511TIP3    H141024   3.384   5.123  16.084
 6511TIP3    H241025   3.250   5.191  16.106
 6512TIP3   OH241026   1.665   2.165   4.205
 6512TIP3    H141027   1.587   2.172   4.149
 6512TIP3    H241028   1.633   2.182   4.294
 6513TIP3   OH241029   6.068   2.458   4.538
 6513TIP3    H141030   6.034   2.374   4.569
 6513TIP3    H241031   6.132   2.436   4.471
 6514TIP3   OH241032   5.864   3.075  12.359
 6514TIP3    H141033   5.781   3.069  12.406
 6514TIP3    H241034   5.882   3.169  12.355
 6515TIP3   OH241035   2.595   4.279  13.705
 6515TIP3    H141036   2.564   4.190  13.686
 6515TIP3    H241037   2.623   4.313  13.620
 6516TIP3   OH241038   0.547   3.293  11.503
 6516TIP3    H141039   0.507   3.367  11.458
 6516TIP3    H241040   0.631   3.279  11.458
 6517TIP3   OH241041   1.491   6.664  17.151
 6517TIP3    H141042   1.545   6.605  17.205
 6517TIP3    H241043   1.401   6.636  17.168
 6518TIP3   OH241044   4.577   0.711  15.097
 6518TIP3    H141045   4.553   0.740  15.185
 6518TIP3    H241046   4.586   0.616  15.104
 6519TIP3   OH241047   4.901   1.831  16.563
 6519TIP3    H141048   4.969   1.827  16.630
 6519TIP3    H241049   4.918   1.755  16.507
 6520TIP3   OH241050   4.101   5.028   3.511
 6520TIP3    H141051   4.035   5.017   3.443
 6520TIP3    H241052   4.185   5.016   3.465
 6521TIP3   OH241053   4.305   2.369  14.404
 6521TIP3    H141054   4.309   2.273  14.414
 6521TIP3    H241055   4.396   2.397  14.413
 6522TIP3   OH241056   3.843   6.440   5.645
 6522TIP3    H141057   3.756   6.399   5.650
 6522TIP3    H241058   3.839   6.512   5.707
 6523TIP3   OH241059   4.953   5.994   3.461
 6523TIP3    H141060   4.975   6.064   3.523
 6523TIP3    H241061   4.859   6.002   3.447
 6524TIP3   OH241062   3.245   0.717   1.332
 6524TIP3    H141063   3.257   0.693   1.424
 6524TIP3    H241064   3.263   0.636   1.284
 6525TIP3   OH241065   0.468   3.542  17.164
 6525TIP3    H141066   0.489   3.510  17.252
 6525TIP3    H241067   0.379   3.577  17.171
 6526TIP3   OH241068   6.769   5.732   2.452
 6526TIP3    H141069   6.847   5.780   2.480
 6526TIP3    H241070   6.710   5.735   2.527
 6527TIP3   OH241071   0.526   5.043   2.400
 6527TIP3    H141072   0.451   5.060   2.343
 6527TIP3    H241073   0.507   5.092   2.480
 6528TIP3   OH241074   1.918   0.961   3.544
 6528TIP3    H141075   1.973   1.032   3.575
 6528TIP3    H241076   1.917   0.971   3.449
 6529TIP3   OH241077   0.501   0.781  15.363
 6529TIP3    H141078   0.484   0.718  15.434
 6529TIP3    H241079   0.448   0.857  15.387
 6530TIP3   OH241080   6.688   1.525   5.284
 6530TIP3    H141081   6.777   1.522   5.321
 6530TIP3    H241082   6.678   1.441   5.238
 6531TIP3   OH241083   1.295   1.560   3.390
 6531TIP3    H141084   1.388   1.560   3.367
 6531TIP3    H241085   1.262   1.643   3.356
 6532TIP3   OH241086   5.182   4.104  14.793
 6532TIP3    H141087   5.131   4.085  14.714
 6532TIP3    H241088   5.117   4.130  14.858
 6533TIP3   OH241089   3.941   3.110  12.276
 6533TIP3    H141090   3.914   3.168  12.347
 6533TIP3    H241091   3.860   3.065  12.251
 6534TIP3   OH241092   6.686   5.261   2.837
 6534TIP3    H141093   6.605   5.264   2.887
 6534TIP3    H241094   6.698   5.168   2.816
 6535TIP3   OH241095   2.414   1.902   0.214
 6535TIP3    H141096   2.358   1.861   0.147
 6535TIP3    H241097   2.470   1.962   0.164
 6536TIP3   OH241098   3.058   2.150   4.754
 6536TIP3    H141099   3.104   2.073   4.788
 6536TIP3    H241100   2.978   2.115   4.714
 6537TIP3   OH241101   2.032   6.462  11.717
 6537TIP3    H141102   1.949   6.487  11.676
 6537TIP3    H241103   2.092   6.448  11.644
 6538TIP3   OH241104   1.086   3.403   1.699
 6538TIP3    H141105   1.089   3.448   1.783
 6538TIP3    H241106   1.177   3.397   1.671
 6539TIP3   OH241107   1.088   1.244   4.041
 6539TIP3    H141108   1.167   1.208   4.081
 6539TIP3    H241109   1.109   1.336   4.025
 6540TIP3   OH241110   5.491   6.524   2.582
 6540TIP3    H141111   5.439   6.496   2.658
 6540TIP3    H241112   5.540   6.600   2.613
 6541TIP3   OH241113   4.168   5.903  11.012
 6541TIP3    H141114   4.213   5.818  11.010
 6541TIP3    H241115   4.075   5.881  11.000
 6542TIP3   OH241116   5.101   4.575  11.125
 6542TIP3    H141117   5.013   4.543  11.106
 6542TIP3    H241118   5.115   4.557  11.218
 6543TIP3   OH241119   6.259   6.404   2.113
 6543TIP3    H141120   6.233   6.496   2.107
 6543TIP3    H241121   6.266   6.387   2.206
 6544TIP3   OH241122   1.066   5.120   4.458
 6544TIP3    H141123   1.088   5.027   4.460
 6544TIP3    H241124   0.998   5.130   4.525
 6545TIP3   OH241125   0.636   2.655  17.169
 6545TIP3    H141126   0.573   2.725  17.190
 6545TIP3    H241127   0.597   2.576  17.205
 6546TIP3   OH241128   3.370   0.239  14.911
 6546TIP3    H141129   3.443   0.271  14.858
 6546TIP3    H241130   3.345   0.313  14.966
 6547TIP3   OH241131   1.499   5.037  15.614
 6547TIP3    H141132   1.416   5.040  15.660
 6547TIP3    H241133   1.535   5.125  15.624
 6548TIP3   OH241134   6.548   3.901  11.300
 6548TIP3    H141135   6.464   3.896  11.345
 6548TIP3    H241136   6.584   3.986  11.326
 6549TIP3   OH241137   4.831   1.970  15.758
 6549TIP3    H141138   4.838   2.063  15.735
 6549TIP3    H241139   4.786   1.970  15.843
 6550TIP3   OH241140   3.151   1.656   1.022
 6550TIP3    H141141   3.135   1.722   1.090
 6550TIP3    H241142   3.119   1.696   0.941
 6551TIP3   OH241143   2.966   4.821  12.591
 6551TIP3    H141144   3.047   4.837  12.543
 6551TIP3    H241145   2.994   4.800  12.680
 6552TIP3   OH241146   2.145   4.607  12.487
 6552TIP3    H141147   2.087   4.648  12.423
 6552TIP3    H241148   2.209   4.558  12.435
 6553TIP3   OH241149   2.505   5.127   2.628
 6553TIP3    H141150   2.428   5.175   2.659
 6553TIP3    H241151   2.472   5.039   2.608
 6554TIP3   OH241152   2.540   2.856   2.586
 6554TIP3    H141153   2.539   2.809   2.502
 6554TIP3    H241154   2.572   2.943   2.565
 6555TIP3   OH241155   1.469   5.192  11.104
 6555TIP3    H141156   1.435   5.158  11.022
 6555TIP3    H241157   1.465   5.118  11.164
 6556TIP3   OH241158   3.624   1.807  12.002
 6556TIP3    H141159   3.621   1.807  12.097
 6556TIP3    H241160   3.598   1.719  11.977
 6557TIP3   OH241161   2.767   6.189   5.368
 6557TIP3    H141162   2.836   6.225   5.423
 6557TIP3    H241163   2.798   6.102   5.343
 6558TIP3   OH241164   2.353   6.257  10.537
 6558TIP3    H141165   2.364   6.342  10.495
 6558TIP3    H241166   2.418   6.255  10.606
 6559TIP3   OH241167   5.481   0.295  15.855
 6559TIP3    H141168   5.522   0.240  15.788
 6559TIP3    H241169   5.505   0.253  15.938
 6560TIP3   OH241170   3.167   0.192   5.833
 6560TIP3    H141171   3.149   0.100   5.853
 6560TIP3    H241172   3.084   0.237   5.853
 6561TIP3   OH241173   2.740   5.546  16.316
 6561TIP3    H141174   2.723   5.637  16.339
 6561TIP3    H241175   2.835   5.541  16.306
 6562TIP3   OH241176   1.755   1.425   1.554
 6562TIP3    H141177   1.741   1.400   1.462
 6562TIP3    H241178   1.850   1.433   1.562
 6563TIP3   OH241179   4.254   6.565   2.289
 6563TIP3    H141180   4.344   6.567   2.321
 6563TIP3    H241181   4.262   6.561   2.194
 6564TIP3   OH241182   6.400   4.711   6.346
 6564TIP3    H141183   6.353   4.786   6.384
 6564TIP3    H241184   6.461   4.684   6.414
 6565TIP3   OH241185   5.839   3.131  17.007
 6565TIP3    H141186   5.932   3.113  16.997
 6565TIP3    H241187   5.811   3.073  17.078
 6566TIP3   OH241188   4.588   1.126   4.552
 6566TIP3    H141189   4.674   1.159   4.524
 6566TIP3    H241190   4.564   1.182   4.626
 6567TIP3   OH241191   4.303   3.807  14.915
 6567TIP3    H141192   4.315   3.817  14.821
 6567TIP3    H241193   4.239   3.736  14.924
 6568TIP3   OH241194   4.024   0.030   1.894
 6568TIP3    H141195   4.094  -0.035   1.897
 6568TIP3    H241196   4.003   0.047   1.986
 6569TIP3   OH241197   0.142   1.918   2.435
 6569TIP3    H141198   0.224   1.966   2.446
 6569TIP3    H241199   0.092   1.970   2.371
 6570TIP3   OH241200   5.223   2.457   1.445
 6570TIP3    H141201   5.264   2.370   1.445
 6570TIP3    H241202   5.190   2.468   1.534
 6571TIP3   OH241203   6.096   1.656   5.261
 6571TIP3    H141204   6.130   1.573   5.294
 6571TIP3    H241205   6.082   1.709   5.339
 6572TIP3   OH241206   5.135   4.842  15.691
 6572TIP3    H141207   5.159   4.823  15.600
 6572TIP3    H241208   5.130   4.757  15.733
 6573TIP3   OH241209   5.662   4.092   5.433
 6573TIP3    H141210   5.700   4.149   5.367
 6573TIP3    H241211   5.622   4.151   5.497
 6574TIP3   OH241212   4.470   1.230   1.262
 6574TIP3    H141213   4.406   1.159   1.264
 6574TIP3    H241214   4.524   1.211   1.185
 6575TIP3   OH241215   5.152   3.580   1.305
 6575TIP3    H141216   5.100   3.595   1.226
 6575TIP3    H241217   5.165   3.485   1.308
 6576TIP3   OH241218   5.065   2.897   0.389
 6576TIP3    H141219   5.002   2.888   0.318
 6576TIP3    H241220   5.013   2.895   0.469
 6577TIP3   OH241221   5.348   0.580  14.647
 6577TIP3    H141222   5.326   0.503  14.698
 6577TIP3    H241223   5.429   0.557  14.602
 6578TIP3   OH241224   4.898   1.866   3.092
 6578TIP3    H141225   4.927   1.858   3.001
 6578TIP3    H241226   4.879   1.959   3.103
 6579TIP3   OH241227   3.629   4.044   6.701
 6579TIP3    H141228   3.675   4.128   6.698
 6579TIP3    H241229   3.697   3.978   6.691
 6580TIP3   OH241230   2.717   2.740  13.228
 6580TIP3    H141231   2.674   2.798  13.291
 6580TIP3    H241232   2.687   2.771  13.143
 6581TIP3   OH241233   0.408   4.125   0.658
 6581TIP3    H141234   0.421   4.060   0.589
 6581TIP3    H241235   0.454   4.203   0.627
 6582TIP3   OH241236   3.869   4.718   2.593
 6582TIP3    H141237   3.867   4.801   2.545
 6582TIP3    H241238   3.779   4.687   2.592
 6583TIP3   OH241239   2.343   3.364   2.858
 6583TIP3    H141240   2.347   3.410   2.942
 6583TIP3    H241241   2.332   3.272   2.882
 6584TIP3   OH241242   0.932   3.604   2.164
 6584TIP3    H141243   0.973   3.668   2.222
 6584TIP3    H241244   0.848   3.644   2.141
 6585TIP3   OH241245   3.240   2.148   6.198
 6585TIP3    H141246   3.178   2.205   6.244
 6585TIP3    H241247   3.209   2.060   6.216
 6586TIP3   OH241248   6.139   3.452   2.763
 6586TIP3    H141249   6.049   3.453   2.730
 6586TIP3    H241250   6.176   3.536   2.733
 6587TIP3   OH241251   0.017   2.027  13.792
 6587TIP3    H141252   0.077   2.079  13.738
 6587TIP3    H241253   0.074   1.985  13.857
 6588TIP3   OH241254   1.080   3.936  13.215
 6588TIP3    H141255   0.994   3.935  13.255
 6588TIP3    H241256   1.141   3.935  13.289
 6589TIP3   OH241257   4.329   2.677  16.310
 6589TIP3    H141258   4.342   2.680  16.404
 6589TIP3    H241259   4.414   2.698  16.272
 6590TIP3   OH241260   5.702   6.555  13.730
 6590TIP3    H141261   5.702   6.498  13.653
 6590TIP3    H241262   5.787   6.540  13.771
 6591TIP3   OH241263   5.769   6.353  14.611
 6591TIP3    H141264   5.815   6.393  14.536
 6591TIP3    H241265   5.693   6.409  14.626
 6592TIP3   OH241266   3.265   5.648   5.939
 6592TIP3    H141267   3.202   5.594   5.892
 6592TIP3    H241268   3.236   5.646   6.030
 6593TIP3   OH241269   4.911   3.369  15.604
 6593TIP3    H141270   4.895   3.462  15.618
 6593TIP3    H241271   4.870   3.326  15.680
 6594TIP3   OH241272   0.481   3.722  14.536
 6594TIP3    H141273   0.454   3.653  14.475
 6594TIP3    H241274   0.510   3.675  14.614
 6595TIP3   OH241275   0.859   1.890   2.465
 6595TIP3    H141276   0.847   1.797   2.447
 6595TIP3    H241277   0.776   1.930   2.440
 6596TIP3   OH241278   4.899   1.150   0.265
 6596TIP3    H141279   4.986   1.121   0.290
 6596TIP3    H241280   4.886   1.114   0.177
 6597TIP3   OH241281   4.498   3.165   0.817
 6597TIP3    H141282   4.559   3.145   0.746
 6597TIP3    H241283   4.544   3.139   0.896
 6598TIP3   OH241284   4.539   5.878   5.016
 6598TIP3    H141285   4.569   5.941   4.949
 6598TIP3    H241286   4.577   5.795   4.989
 6599TIP3   OH241287   2.091   3.902   3.265
 6599TIP3    H141288   2.024   3.834   3.266
 6599TIP3    H241289   2.122   3.907   3.355
 6600TIP3   OH241290   2.865   3.970  17.249
 6600TIP3    H141291   2.777   3.966  17.210
 6600TIP3    H241292   2.901   4.053  17.217
 6601TIP3   OH241293   2.301   2.186  17.253
 6601TIP3    H141294   2.300   2.172  17.348
 6601TIP3    H241295   2.384   2.148  17.224
 6602TIP3   OH241296   1.731   2.642  15.228
 6602TIP3    H141297   1.651   2.679  15.265
 6602TIP3    H241298   1.749   2.565  15.281
 6603TIP3   OH241299   1.900   3.899  13.494
 6603TIP3    H141300   1.847   3.909  13.573
 6603TIP3    H241301   1.903   3.986  13.455
 6604TIP3   OH241302   5.843   4.523  16.698
 6604TIP3    H141303   5.926   4.564  16.724
 6604TIP3    H241304   5.776   4.579  16.738
 6605TIP3   OH241305   6.412   1.737   2.209
 6605TIP3    H141306   6.415   1.660   2.265
 6605TIP3    H241307   6.401   1.810   2.270
 6606TIP3   OH241308   1.527   3.959  12.198
 6606TIP3    H141309   1.435   3.970  12.222
 6606TIP3    H241310   1.540   3.864  12.193
 6607TIP3   OH241311   3.952   1.636  15.885
 6607TIP3    H141312   3.958   1.590  15.801
 6607TIP3    H241313   4.024   1.698  15.884
 6608TIP3   OH241314   1.104   6.462   0.414
 6608TIP3    H141315   1.164   6.408   0.466
 6608TIP3    H241316   1.159   6.501   0.346
 6609TIP3   OH241317   6.635   5.761   6.688
 6609TIP3    H141318   6.542   5.772   6.709
 6609TIP3    H241319   6.662   5.847   6.656
 6610TIP3   OH241320   3.083   5.433   0.627
 6610TIP3    H141321   3.065   5.473   0.712
 6610TIP3    H241322   3.102   5.508   0.570
 6611TIP3   OH241323   4.624   3.948   1.361
 6611TIP3    H141324   4.599   4.039   1.350
 6611TIP3    H241325   4.570   3.900   1.299
 6612TIP3   OH241326   5.047   5.316  16.726
 6612TIP3    H141327   5.081   5.402  16.750
 6612TIP3    H241328   4.953   5.321  16.745
 6613TIP3   OH241329   6.520   2.186  11.037
 6613TIP3    H141330   6.574   2.113  11.069
 6613TIP3    H241331   6.508   2.167  10.944
 6614TIP3   OH241332   2.250   0.088  13.837
 6614TIP3    H141333   2.180   0.037  13.795
 6614TIP3    H241334   2.217   0.178  13.837
 6615TIP3   OH241335   0.644   6.595   6.502
 6615TIP3    H141336   0.649   6.691   6.499
 6615TIP3    H241337   0.735   6.567   6.507
 6616TIP3   OH241338   3.913   0.057  15.063
 6616TIP3    H141339   3.842   0.028  15.120
 6616TIP3    H241340   3.966   0.115  15.117
 6617TIP3   OH241341   6.645   3.915  16.799
 6617TIP3    H141342   6.554   3.920  16.828
 6617TIP3    H241343   6.697   3.935  16.876
 6618TIP3   OH241344   4.248   4.621   3.193
 6618TIP3    H141345   4.274   4.572   3.115
 6618TIP3    H241346   4.196   4.694   3.160
 6619TIP3   OH241347   2.420   3.840   1.484
 6619TIP3    H141348   2.424   3.820   1.577
 6619TIP3    H241349   2.365   3.919   1.479
 6620TIP3   OH241350   5.202   3.165   5.772
 6620TIP3    H141351   5.121   3.184   5.819
 6620TIP3    H241352   5.220   3.073   5.791
 6621TIP3   OH241353   6.006   1.935   1.192
 6621TIP3    H141354   6.038   1.912   1.105
 6621TIP3    H241355   5.916   1.965   1.178
 6622TIP3   OH241356   6.215   0.226  15.480
 6622TIP3    H141357   6.189   0.318  15.474
 6622TIP3    H241358   6.296   0.221  15.428
 6623TIP3   OH241359   4.291   1.690   3.893
 6623TIP3    H141360   4.200   1.719   3.900
 6623TIP3    H241361   4.336   1.761   3.848
 6624TIP3   OH241362   5.542   2.392  13.245
 6624TIP3    H141363   5.551   2.415  13.337
 6624TIP3    H241364   5.609   2.325  13.230
 6625TIP3   OH241365   1.578   5.648   4.151
 6625TIP3    H141366   1.625   5.657   4.068
 6625TIP3    H241367   1.627   5.581   4.199
 6626TIP3   OH241368   5.710   1.154   0.745
 6626TIP3    H141369   5.633   1.135   0.798
 6626TIP3    H241370   5.703   1.095   0.670
 6627TIP3   OH241371   2.945   3.635  13.521
 6627TIP3    H141372   2.980   3.608  13.606
 6627TIP3    H241373   3.002   3.706  13.492
 6628TIP3   OH241374   0.454   2.422   2.496
 6628TIP3    H141375   0.440   2.330   2.473
 6628TIP3    H241376   0.366   2.454   2.518
 6629TIP3   OH241377   0.456   2.289  16.228
 6629TIP3    H141378   0.533   2.314  16.177
 6629TIP3    H241379   0.481   2.305  16.319
 6630TIP3   OH241380   3.869   5.343   5.903
 6630TIP3    H141381   3.963   5.325   5.909
 6630TIP3    H241382   3.853   5.357   5.810
 6631TIP3   OH241383   2.663   6.333  11.725
 6631TIP3    H141384   2.656   6.317  11.631
 6631TIP3    H241385   2.573   6.344  11.755
 6632TIP3   OH241386   3.834   4.689   3.478
 6632TIP3    H141387   3.774   4.688   3.552
 6632TIP3    H241388   3.778   4.690   3.400
 6633TIP3   OH241389   3.996   2.834   4.205
 6633TIP3    H141390   4.037   2.818   4.119
 6633TIP3    H241391   3.917   2.884   4.185
 6634TIP3   OH241392   2.171   4.696  13.342
 6634TIP3    H141393   2.262   4.686  13.316
 6634TIP3    H241394   2.164   4.649  13.425
 6635TIP3   OH241395   2.339   6.172  15.342
 6635TIP3    H141396   2.361   6.257  15.379
 6635TIP3    H241397   2.264   6.189  15.284
 6636TIP3   OH241398   1.313   3.047  11.856
 6636TIP3    H141399   1.290   3.133  11.820
 6636TIP3    H241400   1.286   3.051  11.948
 6637TIP3   OH241401   3.796   4.026   5.251
 6637TIP3    H141402   3.796   4.121   5.247
 6637TIP3    H241403   3.802   4.005   5.344
 6638TIP3   OH241404   1.160   4.612  11.400
 6638TIP3    H141405   1.071   4.580  11.398
 6638TIP3    H241406   1.153   4.701  11.435
 6639TIP3   OH241407   2.759   1.317   5.883
 6639TIP3    H141408   2.776   1.343   5.974
 6639TIP3    H241409   2.843   1.284   5.852
 6640TIP3   OH241410   5.354   0.691   1.374
 6640TIP3    H141411   5.384   0.650   1.293
 6640TIP3    H241412   5.430   0.689   1.432
 6641TIP3   OH241413   1.845   2.367   5.649
 6641TIP3    H141414   1.817   2.374   5.740
 6641TIP3    H241415   1.898   2.287   5.646
 6642TIP3   OH241416   1.283   4.552  17.004
 6642TIP3    H141417   1.299   4.459  16.987
 6642TIP3    H241418   1.194   4.556  17.037
 6643TIP3   OH241419   0.915   1.998   4.194
 6643TIP3    H141420   0.937   1.906   4.182
 6643TIP3    H241421   0.987   2.034   4.245
 6644TIP3   OH241422   6.789   4.516   4.547
 6644TIP3    H141423   6.796   4.454   4.474
 6644TIP3    H241424   6.833   4.595   4.515
 6645TIP3   OH241425   5.084   3.950  15.100
 6645TIP3    H141426   5.104   3.963  15.192
 6645TIP3    H241427   5.167   3.923  15.061
 6646TIP3   OH241428   2.920   3.059   2.612
 6646TIP3    H141429   2.989   2.999   2.583
 6646TIP3    H241430   2.904   3.034   2.703
 6647TIP3   OH241431   3.803   2.379  10.918
 6647TIP3    H141432   3.897   2.382  10.930
 6647TIP3    H241433   3.788   2.419  10.832
 6648TIP3   OH241434   6.780   5.205  12.550
 6648TIP3    H141435   6.758   5.116  12.523
 6648TIP3    H241436   6.695   5.248  12.560
 6649TIP3   OH241437   1.778   2.848  16.972
 6649TIP3    H141438   1.799   2.868  16.881
 6649TIP3    H241439   1.693   2.889  16.987
 6650TIP3   OH241440   6.587   5.178  14.515
 6650TIP3    H141441   6.682   5.171  14.521
 6650TIP3    H241442   6.555   5.093  14.545
 6651TIP3   OH241443   4.188   1.716  10.466
 6651TIP3    H141444   4.169   1.638  10.414
 6651TIP3    H241445   4.106   1.733  10.513
 6652TIP3   OH241446   2.846   3.733  14.152
 6652TIP3    H141447   2.861   3.639  14.152
 6652TIP3    H241448   2.810   3.752  14.065
 6653TIP3   OH241449   3.483   0.845   5.015
 6653TIP3    H141450   3.412   0.902   4.986
 6653TIP3    H241451   3.563   0.894   4.994
 6654TIP3   OH241452   0.879   1.383   6.003
 6654TIP3    H141453   0.820   1.322   6.047
 6654TIP3    H241454   0.827   1.421   5.932
 6655TIP3   OH241455   0.956   1.443  15.383
 6655TIP3    H141456   0.969   1.459  15.289
 6655TIP3    H241457   0.912   1.521  15.415
 6656TIP3   OH241458   5.082   2.375  13.382
 6656TIP3    H141459   5.078   2.382  13.286
 6656TIP3    H241460   5.091   2.282  13.399
 6657TIP3   OH241461   0.270   0.077   4.150
 6657TIP3    H141462   0.242  -0.011   4.176
 6657TIP3    H241463   0.327   0.106   4.221
 6658TIP3   OH241464   1.689   4.867  15.722
 6658TIP3    H141465   1.658   4.841  15.808
 6658TIP3    H241466   1.617   4.918  15.685
 6659TIP3   OH241467   6.401   6.322   4.320
 6659TIP3    H141468   6.372   6.274   4.242
 6659TIP3    H241469   6.496   6.327   4.311
 6660TIP3   OH241470   5.974   3.932   4.603
 6660TIP3    H141471   5.938   3.977   4.527
 6660TIP3    H241472   6.016   3.854   4.567
 6661TIP3   OH241473   1.972   0.610  14.047
 6661TIP3    H141474   1.916   0.626  13.971
 6661TIP3    H241475   2.038   0.680  14.042
 6662TIP3   OH241476   0.218   0.317  15.962
 6662TIP3    H141477   0.257   0.339  15.877
 6662TIP3    H241478   0.284   0.262  16.005
 6663TIP3   OH241479   0.837   1.232  14.149
 6663TIP3    H141480   0.889   1.161  14.112
 6663TIP3    H241481   0.831   1.296  14.079
 6664TIP3   OH241482   4.049   4.044  10.995
 6664TIP3    H141483   3.967   4.033  10.948
 6664TIP3    H241484   4.075   4.135  10.979
 6665TIP3   OH241485   3.427   0.510   1.245
 6665TIP3    H141486   3.388   0.433   1.205
 6665TIP3    H241487   3.514   0.482   1.273
 6666TIP3   OH241488   3.351   5.287  14.137
 6666TIP3    H141489   3.315   5.290  14.225
 6666TIP3    H241490   3.361   5.193  14.118
 6667TIP3   OH241491   3.067   1.981   0.646
 6667TIP3    H141492   3.015   1.947   0.718
 6667TIP3    H241493   3.017   2.055   0.611
 6668TIP3   OH241494   0.536   4.582  12.118
 6668TIP3    H141495   0.630   4.590  12.134
 6668TIP3    H241496   0.515   4.654  12.058
 6669TIP3   OH241497   4.352   2.127  15.500
 6669TIP3    H141498   4.299   2.102  15.423
 6669TIP3    H241499   4.332   2.220  15.513
 6670TIP3   OH241500   0.639   1.103  11.215
 6670TIP3    H141501   0.663   1.029  11.271
 6670TIP3    H241502   0.630   1.176  11.275
 6671TIP3   OH241503   3.867   3.924   5.508
 6671TIP3    H141504   3.846   3.886   5.593
 6671TIP3    H241505   3.886   3.849   5.452
 6672TIP3   OH241506   1.972   2.117   4.060
 6672TIP3    H141507   2.024   2.080   3.988
 6672TIP3    H241508   1.900   2.162   4.016
 6673TIP3   OH241509   6.274   6.481  12.343
 6673TIP3    H141510   6.251   6.572  12.326
 6673TIP3    H241511   6.191   6.434  12.341
 6674TIP3   OH241512   5.576   6.142   4.004
 6674TIP3    H141513   5.653   6.198   3.994
 6674TIP3    H241514   5.534   6.173   4.084
 6675TIP3   OH241515   2.705   1.370   6.976
 6675TIP3    H141516   2.774   1.312   7.007
 6675TIP3    H241517   2.747   1.421   6.907
 6676TIP3   OH241518   6.606   0.357   0.449
 6676TIP3    H141519   6.674   0.420   0.429
 6676TIP3    H241520   6.645   0.298   0.514
 6677TIP3   OH241521   2.201   6.804   1.945
 6677TIP3    H141522   2.241   6.726   1.984
 6677TIP3    H241523   2.235   6.877   1.996
 6678TIP3   OH241524   4.468   2.101  16.241
 6678TIP3    H141525   4.447   2.008  16.229
 6678TIP3    H241526   4.383   2.144  16.249
 6679TIP3   OH241527   4.077   4.741  14.420
 6679TIP3    H141528   3.985   4.720  14.435
 6679TIP3    H241529   4.076   4.826  14.377
 6680TIP3   OH241530   2.749   0.942  15.199
 6680TIP3    H141531   2.685   0.958  15.130
 6680TIP3    H241532   2.821   1.003  15.180
 6681TIP3   OH241533   0.026   5.977   5.587
 6681TIP3    H141534   0.064   5.913   5.528
 6681TIP3    H241535  -0.068   5.973   5.570
 6682TIP3   OH241536   1.588   1.536  13.061
 6682TIP3    H141537   1.592   1.629  13.038
 6682TIP3    H241538   1.572   1.492  12.978
 6683TIP3   OH241539   3.355   6.502  11.630
 6683TIP3    H141540   3.422   6.434  11.620
 6683TIP3    H241541   3.398   6.569  11.684
 6684TIP3   OH241542   4.268   4.978   1.190
 6684TIP3    H141543   4.353   4.987   1.233
 6684TIP3    H241544   4.209   4.950   1.259
 6685TIP3   OH241545   3.816   4.030  10.841
 6685TIP3    H141546   3.757   4.102  10.819
 6685TIP3    H241547   3.838   3.991  10.757
 6686TIP3   OH241548   2.142   1.490   2.547
 6686TIP3    H141549   2.212   1.429   2.521
 6686TIP3    H241550   2.063   1.454   2.508
 6687TIP3   OH241551   3.135   3.583   4.771
 6687TIP3    H141552   3.188   3.513   4.734
 6687TIP3    H241553   3.076   3.538   4.832
 6688TIP3   OH241554   0.947   5.792   0.871
 6688TIP3    H141555   0.962   5.702   0.841
 6688TIP3    H241556   0.933   5.843   0.792
 6689TIP3   OH241557   4.557   0.077   3.926
 6689TIP3    H141558   4.585   0.139   3.857
 6689TIP3    H241559   4.462   0.085   3.927
 6690TIP3   OH241560   3.448   0.962  11.699
 6690TIP3    H141561   3.542   0.969  11.683
 6690TIP3    H241562   3.438   0.885  11.755
 6691TIP3   OH241563   2.045   4.136   3.982
 6691TIP3    H141564   2.108   4.150   4.053
 6691TIP3    H241565   1.989   4.065   4.013
 6692TIP3   OH241566   5.392   4.887  11.811
 6692TIP3    H141567   5.340   4.808  11.794
 6692TIP3    H241568   5.396   4.931  11.726
 6693TIP3   OH241569   2.050   0.933  15.314
 6693TIP3    H141570   1.987   0.893  15.255
 6693TIP3    H241571   2.000   0.953  15.393
 6694TIP3   OH241572   6.684   2.341   4.942
 6694TIP3    H141573   6.700   2.262   4.993
 6694TIP3    H241574   6.710   2.413   5.000
 6695TIP3   OH241575   0.415   6.550   1.777
 6695TIP3    H141576   0.339   6.551   1.836
 6695TIP3    H241577   0.457   6.465   1.793
 6696TIP3   OH241578   3.623   1.471  12.887
 6696TIP3    H141579   3.626   1.518  12.804
 6696TIP3    H241580   3.531   1.474  12.912
 6697TIP3   OH241581   4.785   1.018   2.991
 6697TIP3    H141582   4.791   0.924   2.977
 6697TIP3    H241583   4.751   1.027   3.080
 6698TIP3   OH241584   6.284   6.304  14.372
 6698TIP3    H141585   6.262   6.345  14.456
 6698TIP3    H241586   6.255   6.214  14.380
 6699TIP3   OH241587   2.289   6.495   2.997
 6699TIP3    H141588   2.206   6.513   3.041
 6699TIP3    H241589   2.354   6.501   3.066
 6700TIP3   OH241590   3.408   6.799  11.231
 6700TIP3    H141591   3.474   6.869  11.233
 6700TIP3    H241592   3.326   6.845  11.213
 6701TIP3   OH241593   2.154   1.933  15.456
 6701TIP3    H141594   2.087   1.984  15.409
 6701TIP3    H241595   2.105   1.886  15.524
 6702TIP3   OH241596   0.133   0.467  17.248
 6702TIP3    H141597   0.080   0.413  17.307
 6702TIP3    H241598   0.070   0.503  17.185
 6703TIP3   OH241599   0.902   2.082   6.702
 6703TIP3    H141600   0.995   2.102   6.706
 6703TIP3    H241601   0.894   1.998   6.747
 6704TIP3   OH241602   1.553   3.796   1.461
 6704TIP3    H141603   1.465   3.791   1.499
 6704TIP3    H241604   1.600   3.856   1.519
 6705TIP3   OH241605   5.569   4.665  17.265
 6705TIP3    H141606   5.571   4.736  17.201
 6705TIP3    H241607   5.610   4.591  17.220
 6706TIP3   OH241608   6.179   4.240   5.619
 6706TIP3    H141609   6.144   4.324   5.648
 6706TIP3    H241610   6.206   4.196   5.700
 6707TIP3   OH241611   3.081   0.013   3.684
 6707TIP3    H141612   3.079  -0.070   3.636
 6707TIP3    H241613   3.152   0.002   3.747
 6708TIP3   OH241614   3.453   0.408  14.397
 6708TIP3    H141615   3.515   0.368  14.335
 6708TIP3    H241616   3.391   0.338  14.416
 6709TIP3   OH241617   3.474   0.576  13.993
 6709TIP3    H141618   3.457   0.647  13.930
 6709TIP3    H241619   3.510   0.620  14.070
 6710TIP3   OH241620   4.609   1.981  15.088
 6710TIP3    H141621   4.604   1.903  15.142
 6710TIP3    H241622   4.518   2.006  15.073
 6711TIP3   OH241623   3.214   0.111   4.840
 6711TIP3    H141624   3.154   0.073   4.776
 6711TIP3    H241625   3.289   0.051   4.842
 6712TIP3   OH241626   4.638   6.768  15.125
 6712TIP3    H141627   4.625   6.721  15.043
 6712TIP3    H241628   4.550   6.788  15.155
 6713TIP3   OH241629   1.160   1.971   2.185
 6713TIP3    H141630   1.166   1.960   2.280
 6713TIP3    H241631   1.245   2.006   2.159
 6714TIP3   OH241632   1.004   2.090  14.142
 6714TIP3    H141633   0.967   2.055  14.223
 6714TIP3    H241634   0.972   2.032  14.073
 6715TIP3   OH241635   1.707   2.936  10.845
 6715TIP3    H141636   1.640   2.989  10.803
 6715TIP3    H241637   1.788   2.960  10.800
 6716TIP3   OH241638   4.121   1.677  16.874
 6716TIP3    H141639   4.212   1.654  16.859
 6716TIP3    H241640   4.087   1.607  16.930
 6717TIP3   OH241641   6.122   6.574   2.506
 6717TIP3    H141642   6.038   6.601   2.543
 6717TIP3    H241643   6.188   6.606   2.568
 6718TIP3   OH241644   3.548   5.712  12.550
 6718TIP3    H141645   3.506   5.657  12.483
 6718TIP3    H241646   3.582   5.650  12.614
 6719TIP3   OH241647   0.692   1.332  16.240
 6719TIP3    H141648   0.751   1.388  16.290
 6719TIP3    H241649   0.624   1.306  16.303
 6720TIP3   OH241650   4.717   3.788  11.926
 6720TIP3    H141651   4.701   3.693  11.925
 6720TIP3    H241652   4.812   3.796  11.935
 6721TIP3   OH241653   0.675   5.033   0.615
 6721TIP3    H141654   0.749   4.976   0.597
 6721TIP3    H241655   0.613   4.978   0.663
 6722TIP3   OH241656   1.273   3.512  15.493
 6722TIP3    H141657   1.188   3.471  15.475
 6722TIP3    H241658   1.262   3.553  15.578
 6723TIP3   OH241659   4.067   2.306   5.061
 6723TIP3    H141660   4.028   2.250   4.993
 6723TIP3    H241661   4.114   2.374   5.013
 6724TIP3   OH241662   1.200   2.117  16.477
 6724TIP3    H141663   1.194   2.200  16.429
 6724TIP3    H241664   1.265   2.135  16.546
 6725TIP3   OH241665   5.925   5.354   3.300
 6725TIP3    H141666   5.921   5.294   3.375
 6725TIP3    H241667   5.835   5.358   3.268
 6726TIP3   OH241668   6.414   2.640  13.980
 6726TIP3    H141669   6.448   2.690  13.906
 6726TIP3    H241670   6.357   2.701  14.026
 6727TIP3   OH241671   3.611   1.849   5.827
 6727TIP3    H141672   3.628   1.829   5.919
 6727TIP3    H241673   3.516   1.837   5.817
 6728TIP3   OH241674   6.749   2.965  15.092
 6728TIP3    H141675   6.828   2.921  15.062
 6728TIP3    H241676   6.766   3.058  15.078
 6729TIP3   OH241677   0.458   2.090  13.686
 6729TIP3    H141678   0.534   2.078  13.742
 6729TIP3    H241679   0.487   2.065  13.598
 6730TIP3   OH241680   3.324   5.802   4.626
 6730TIP3    H141681   3.300   5.862   4.555
 6730TIP3    H241682   3.419   5.801   4.625
 6731TIP3   OH241683   4.829   0.127  15.219
 6731TIP3    H141684   4.802   0.036  15.215
 6731TIP3    H241685   4.751   0.175  15.248
 6732TIP3   OH241686   1.824   2.278   4.820
 6732TIP3    H141687   1.855   2.351   4.872
 6732TIP3    H241688   1.745   2.247   4.866
 6733TIP3   OH241689   6.122   4.126  16.057
 6733TIP3    H141690   6.114   4.037  16.092
 6733TIP3    H241691   6.034   4.147  16.023
 6734TIP3   OH241692   3.104   4.862   2.026
 6734TIP3    H141693   3.059   4.799   1.971
 6734TIP3    H241694   3.038   4.929   2.045
 6735TIP3   OH241695   0.715   5.569   1.076
 6735TIP3    H141696   0.709   5.661   1.101
 6735TIP3    H241697   0.662   5.523   1.141
 6736TIP3   OH241698   6.338   4.208  14.596
 6736TIP3    H141699   6.346   4.136  14.534
 6736TIP3    H241700   6.383   4.177  14.674
 6737TIP3   OH241701   4.203   5.917   6.456
 6737TIP3    H141702   4.210   5.986   6.390
 6737TIP3    H241703   4.118   5.876   6.439
 6738TIP3   OH241704   0.657   1.278   4.687
 6738TIP3    H141705   0.716   1.331   4.739
 6738TIP3    H241706   0.648   1.196   4.736
 6739TIP3   OH241707   6.582   4.156   1.402
 6739TIP3    H141708   6.598   4.118   1.488
 6739TIP3    H241709   6.495   4.124   1.377
 6740TIP3   OH241710   4.576   2.398  15.160
 6740TIP3    H141711   4.582   2.475  15.217
 6740TIP3    H241712   4.481   2.385  15.148
 6741TIP3   OH241713   4.143   4.701  12.327
 6741TIP3    H141714   4.237   4.715  12.336
 6741TIP3    H241715   4.134   4.646  12.249
 6742TIP3   OH241716   0.478   3.781   3.382
 6742TIP3    H141717   0.553   3.784   3.442
 6742TIP3    H241718   0.494   3.853   3.321
 6743TIP3   OH241719   3.938   5.455  11.343
 6743TIP3    H141720   3.874   5.520  11.369
 6743TIP3    H241721   3.979   5.492  11.265
 6744TIP3   OH241722   0.257   4.078   4.858
 6744TIP3    H141723   0.181   4.022   4.850
 6744TIP3    H241724   0.285   4.068   4.949
 6745TIP3   OH241725   5.844   0.714   4.198
 6745TIP3    H141726   5.752   0.702   4.220
 6745TIP3    H241727   5.860   0.808   4.208
 6746TIP3   OH241728   4.274   5.786  15.986
 6746TIP3    H141729   4.216   5.778  16.062
 6746TIP3    H241730   4.265   5.702  15.940
 6747TIP3   OH241731   4.904   3.394   5.093
 6747TIP3    H141732   4.865   3.402   5.005
 6747TIP3    H241733   4.998   3.383   5.076
 6748TIP3   OH241734   6.464   2.899   3.743
 6748TIP3    H141735   6.474   2.897   3.838
 6748TIP3    H241736   6.526   2.965   3.714
 6749TIP3   OH241737   1.176   6.328  15.585
 6749TIP3    H141738   1.208   6.239  15.597
 6749TIP3    H241739   1.255   6.382  15.577
 6750TIP3   OH241740   5.946   2.110  16.538
 6750TIP3    H141741   5.875   2.140  16.594
 6750TIP3    H241742   5.905   2.094  16.453
 6751TIP3   OH241743   5.206   6.220   3.388
 6751TIP3    H141744   5.220   6.276   3.311
 6751TIP3    H241745   5.194   6.132   3.351
 6752TIP3   OH241746   2.434   6.292  16.409
 6752TIP3    H141747   2.382   6.273  16.487
 6752TIP3    H241748   2.507   6.345  16.441
 6753TIP3   OH241749   6.082   4.639   5.140
 6753TIP3    H141750   6.102   4.661   5.231
 6753TIP3    H241751   6.139   4.565   5.120
 6754TIP3   OH241752   0.024   0.226   1.949
 6754TIP3    H141753   0.046   0.262   1.863
 6754TIP3    H241754   0.097   0.167   1.970
 6755TIP3   OH241755   1.497   4.349   4.506
 6755TIP3    H141756   1.404   4.363   4.523
 6755TIP3    H241757   1.514   4.260   4.539
 6756TIP3   OH241758   2.824   6.136  15.979
 6756TIP3    H141759   2.827   6.144  15.884
 6756TIP3    H241760   2.852   6.046  15.997
 6757TIP3   OH241761   1.000   3.237   0.263
 6757TIP3    H141762   1.039   3.244   0.176
 6757TIP3    H241763   1.052   3.297   0.317
 6758TIP3   OH241764   1.372   6.277   2.361
 6758TIP3    H141765   1.419   6.194   2.360
 6758TIP3    H241766   1.417   6.330   2.426
 6759TIP3   OH241767   6.758   6.579  13.409
 6759TIP3    H141768   6.844   6.568  13.369
 6759TIP3    H241769   6.729   6.665  13.380
 6760TIP3   OH241770   6.667   5.016   0.338
 6760TIP3    H141771   6.694   5.081   0.403
 6760TIP3    H241772   6.743   4.958   0.329
 6761TIP3   OH241773   5.963   1.331  16.919
 6761TIP3    H141774   6.037   1.389  16.900
 6761TIP3    H241775   5.949   1.282  16.838
 6762TIP3   OH241776   4.713   5.746  11.771
 6762TIP3    H141777   4.646   5.694  11.727
 6762TIP3    H241778   4.670   5.829  11.791
 6763TIP3   OH241779   4.244   4.061   0.152
 6763TIP3    H141780   4.269   4.008   0.228
 6763TIP3    H241781   4.242   4.151   0.185
 6764TIP3   OH241782   6.056   4.661   2.549
 6764TIP3    H141783   5.982   4.607   2.579
 6764TIP3    H241784   6.015   4.730   2.497
 6765TIP3   OH241785   4.806   3.538  14.193
 6765TIP3    H141786   4.852   3.601  14.248
 6765TIP3    H241787   4.843   3.453  14.218
 6766TIP3   OH241788   6.696   2.822   2.996
 6766TIP3    H141789   6.673   2.849   2.907
 6766TIP3    H241790   6.716   2.904   3.041
 6767TIP3   OH241791   1.482   3.621  14.169
 6767TIP3    H141792   1.565   3.656  14.199
 6767TIP3    H241793   1.437   3.694  14.127
 6768TIP3   OH241794   6.554   0.297   4.796
 6768TIP3    H141795   6.559   0.204   4.774
 6768TIP3    H241796   6.500   0.335   4.727
 6769TIP3   OH241797   6.445   4.175  14.132
 6769TIP3    H141798   6.397   4.218  14.061
 6769TIP3    H241799   6.380   4.162  14.201
 6770TIP3   OH241800   4.569   0.886  11.746
 6770TIP3    H141801   4.544   0.917  11.659
 6770TIP3    H241802   4.638   0.946  11.775
 6771TIP3   OH241803   4.295   0.968  15.827
 6771TIP3    H141804   4.313   1.060  15.848
 6771TIP3    H241805   4.200   0.960  15.833
 6772TIP3   OH241806   3.389   2.806   4.808
 6772TIP3    H141807   3.325   2.737   4.790
 6772TIP3    H241808   3.473   2.760   4.816
 6773TIP3   OH241809   6.680   6.167  16.627
 6773TIP3    H141810   6.743   6.148  16.697
 6773TIP3    H241811   6.687   6.093  16.568
 6774TIP3   OH241812   4.399   6.658   1.506
 6774TIP3    H141813   4.358   6.685   1.424
 6774TIP3    H241814   4.334   6.604   1.549
 6775TIP3   OH241815   1.659   2.667  11.884
 6775TIP3    H141816   1.593   2.734  11.870
 6775TIP3    H241817   1.610   2.591  11.915
 6776TIP3   OH241818   1.802   2.578   2.406
 6776TIP3    H141819   1.718   2.598   2.447
 6776TIP3    H241820   1.847   2.662   2.400
 6777TIP3   OH241821   4.238   1.151  13.765
 6777TIP3    H141822   4.222   1.068  13.721
 6777TIP3    H241823   4.330   1.170  13.748
 6778TIP3   OH241824   1.973   4.474   1.211
 6778TIP3    H141825   1.983   4.410   1.141
 6778TIP3    H241826   2.022   4.550   1.182
 6779TIP3   OH241827   3.132   4.963   4.839
 6779TIP3    H141828   3.161   5.053   4.835
 6779TIP3    H241829   3.180   4.918   4.769
 6780TIP3   OH241830   5.594   6.048  11.926
 6780TIP3    H141831   5.685   6.022  11.913
 6780TIP3    H241832   5.554   5.973  11.969
 6781TIP3   OH241833   2.098   6.738   2.526
 6781TIP3    H141834   2.105   6.769   2.436
 6781TIP3    H241835   2.140   6.652   2.525
 6782TIP3   OH241836   1.960   0.861  15.906
 6782TIP3    H141837   2.053   0.839  15.914
 6782TIP3    H241838   1.914   0.783  15.935
 6783TIP3   OH241839   5.701   5.770   3.789
 6783TIP3    H141840   5.689   5.680   3.820
 6783TIP3    H241841   5.785   5.768   3.742
 6784TIP3   OH241842   6.344   6.525  12.972
 6784TIP3    H141843   6.287   6.509  13.047
 6784TIP3    H241844   6.305   6.474  12.901
 6785TIP3   OH241845   0.547   2.151  15.530
 6785TIP3    H141846   0.537   2.170  15.623
 6785TIP3    H241847   0.473   2.196  15.489
 6786TIP3   OH241848   4.580   2.871   3.264
 6786TIP3    H141849   4.608   2.813   3.193
 6786TIP3    H241850   4.489   2.892   3.243
 6787TIP3   OH241851   3.839   0.047  13.149
 6787TIP3    H141852   3.767   0.051  13.212
 6787TIP3    H241853   3.817   0.115  13.084
 6788TIP3   OH241854   6.182   0.120  14.714
 6788TIP3    H141855   6.209   0.053  14.777
 6788TIP3    H241856   6.258   0.179  14.709
 6789TIP3   OH241857   2.464   4.312  10.502
 6789TIP3    H141858   2.453   4.388  10.559
 6789TIP3    H241859   2.511   4.249  10.555
 6790TIP3   OH241860   0.838   5.543  15.735
 6790TIP3    H141861   0.785   5.571  15.810
 6790TIP3    H241862   0.926   5.533  15.772
 6791TIP3   OH241863   2.000   3.825  14.698
 6791TIP3    H141864   1.935   3.756  14.712
 6791TIP3    H241865   1.991   3.882  14.775
 6792TIP3   OH241866   4.401   1.362  16.299
 6792TIP3    H141867   4.349   1.294  16.256
 6792TIP3    H241868   4.421   1.326  16.386
 6793TIP3   OH241869   2.324   3.953   2.126
 6793TIP3    H141870   2.237   3.982   2.097
 6793TIP3    H241871   2.379   3.960   2.047
 6794TIP3   OH241872   6.408   3.527  11.885
 6794TIP3    H141873   6.358   3.556  11.808
 6794TIP3    H241874   6.500   3.541  11.860
 6795TIP3   OH241875   3.566   6.791  12.595
 6795TIP3    H141876   3.531   6.843  12.667
 6795TIP3    H241877   3.616   6.721  12.638
 6796TIP3   OH241878   1.232   3.327  13.679
 6796TIP3    H141879   1.243   3.391  13.749
 6796TIP3    H241880   1.297   3.351  13.613
 6797TIP3   OH241881   5.937   2.989  11.310
 6797TIP3    H141882   6.029   2.995  11.338
 6797TIP3    H241883   5.926   3.060  11.247
 6798TIP3   OH241884   4.954   6.062   0.241
 6798TIP3    H141885   5.010   6.101   0.173
 6798TIP3    H241886   5.010   5.997   0.283
 6799TIP3   OH241887   5.446   5.987  14.157
 6799TIP3    H141888   5.446   5.976  14.252
 6799TIP3    H241889   5.535   5.963  14.131
 6800TIP3   OH241890   4.948   6.569  15.114
 6800TIP3    H141891   4.923   6.629  15.185
 6800TIP3    H241892   4.977   6.490  15.159
 6801TIP3   OH241893   5.278   5.790   1.698
 6801TIP3    H141894   5.199   5.737   1.697
 6801TIP3    H241895   5.299   5.804   1.606
 6802TIP3   OH241896   3.773   0.928  12.722
 6802TIP3    H141897   3.684   0.954  12.700
 6802TIP3    H241898   3.814   0.910  12.637
 6803TIP3   OH241899   6.384   4.963  11.762
 6803TIP3    H141900   6.458   4.907  11.787
 6803TIP3    H241901   6.368   5.017  11.839
 6804TIP3   OH241902   3.887   1.311  11.880
 6804TIP3    H141903   3.889   1.277  11.969
 6804TIP3    H241904   3.882   1.234  11.825
 6805TIP3   OH241905   1.881   5.700   0.668
 6805TIP3    H141906   1.877   5.795   0.681
 6805TIP3    H241907   1.953   5.672   0.725
 6806TIP3   OH241908   4.722   2.047   5.409
 6806TIP3    H141909   4.707   2.137   5.381
 6806TIP3    H241910   4.662   1.995   5.355
 6807TIP3   OH241911   2.329   4.658   1.127
 6807TIP3    H141912   2.412   4.648   1.080
 6807TIP3    H241913   2.299   4.568   1.142
 6808TIP3   OH241914   3.121   1.326  12.229
 6808TIP3    H141915   3.216   1.339  12.219
 6808TIP3    H241916   3.107   1.234  12.205
 6809TIP3   OH241917   4.307   1.946   0.500
 6809TIP3    H141918   4.218   1.925   0.528
 6809TIP3    H241919   4.332   1.872   0.444
 6810TIP3   OH241920   4.334   0.721  14.656
 6810TIP3    H141921   4.287   0.729  14.739
 6810TIP3    H241922   4.400   0.790  14.658
 6811TIP3   OH241923   4.218   1.262   4.633
 6811TIP3    H141924   4.133   1.235   4.597
 6811TIP3    H241925   4.203   1.270   4.727
 6812TIP3   OH241926   5.325   2.101   4.844
 6812TIP3    H141927   5.244   2.052   4.846
 6812TIP3    H241928   5.299   2.189   4.815
 6813TIP3   OH241929   1.268   1.640   5.899
 6813TIP3    H141930   1.235   1.729   5.914
 6813TIP3    H241931   1.198   1.597   5.850
 6814TIP3   OH241932   0.748   4.386  11.660
 6814TIP3    H141933   0.756   4.326  11.734
 6814TIP3    H241934   0.691   4.340  11.598
 6815TIP3   OH241935   4.709   6.261   1.258
 6815TIP3    H141936   4.703   6.284   1.165
 6815TIP3    H241937   4.785   6.204   1.264
 6816TIP3   OH241938   2.456   6.333  11.244
 6816TIP3    H141939   2.410   6.324  11.327
 6816TIP3    H241940   2.443   6.425  11.219
 6817TIP3   OH241941   1.088   5.931  12.986
 6817TIP3    H141942   1.028   5.974  13.046
 6817TIP3    H241943   1.037   5.859  12.948
 6818TIP3   OH241944   6.314   1.057  15.552
 6818TIP3    H141945   6.262   0.979  15.530
 6818TIP3    H241946   6.311   1.111  15.473
 6819TIP3   OH241947   2.882   3.226   5.383
 6819TIP3    H141948   2.951   3.160   5.376
 6819TIP3    H241949   2.800   3.177   5.383
 6820TIP3   OH241950   6.033   3.294  11.353
 6820TIP3    H141951   6.028   3.384  11.386
 6820TIP3    H241952   6.083   3.247  11.419
 6821TIP3   OH241953   4.691   5.660   3.980
 6821TIP3    H141954   4.783   5.677   3.958
 6821TIP3    H241955   4.642   5.718   3.921
 6822TIP3   OH241956   6.074   4.185   1.297
 6822TIP3    H141957   6.042   4.109   1.345
 6822TIP3    H241958   6.004   4.206   1.235
 6823TIP3   OH241959   0.800   1.110  13.365
 6823TIP3    H141960   0.749   1.188  13.388
 6823TIP3    H241961   0.793   1.054  13.442
 6824TIP3   OH241962   0.510   0.008   6.793
 6824TIP3    H141963   0.439  -0.055   6.803
 6824TIP3    H241964   0.475   0.074   6.733
 6825TIP3   OH241965   6.299   2.780   2.731
 6825TIP3    H141966   6.338   2.865   2.749
 6825TIP3    H241967   6.290   2.777   2.636
 6826TIP3   OH241968   6.423   1.860   1.072
 6826TIP3    H141969   6.329   1.852   1.062
 6826TIP3    H241970   6.437   1.864   1.166
 6827TIP3   OH241971   1.270   6.589  16.871
 6827TIP3    H141972   1.258   6.524  16.801
 6827TIP3    H241973   1.183   6.625  16.885
 6828TIP3   OH241974   6.419   6.337  11.994
 6828TIP3    H141975   6.329   6.339  12.025
 6828TIP3    H241976   6.441   6.429  11.979
 6829TIP3   OH241977   5.288   3.625  13.071
 6829TIP3    H141978   5.213   3.658  13.020
 6829TIP3    H241979   5.254   3.546  13.114
 6830TIP3   OH241980   0.270   0.011   3.524
 6830TIP3    H141981   0.230   0.010   3.611
 6830TIP3    H241982   0.209   0.061   3.470
 6831TIP3   OH241983   3.981   1.547   2.477
 6831TIP3    H141984   4.031   1.509   2.405
 6831TIP3    H241985   3.962   1.472   2.534
 6832TIP3   OH241986   0.799   3.867  16.658
 6832TIP3    H141987   0.728   3.813  16.623
 6832TIP3    H241988   0.786   3.952  16.615
 6833TIP3   OH241989   5.639   2.853   0.981
 6833TIP3    H141990   5.665   2.945   0.970
 6833TIP3    H241991   5.708   2.815   1.035
 6834TIP3   OH241992   3.712   0.437   1.110
 6834TIP3    H141993   3.690   0.511   1.054
 6834TIP3    H241994   3.730   0.365   1.050
 6835TIP3   OH241995   2.017   6.792  16.502
 6835TIP3    H141996   2.030   6.885  16.520
 6835TIP3    H241997   2.104   6.754  16.511
 6836TIP3   OH241998   4.367   6.581  12.174
 6836TIP3    H141999   4.439   6.643  12.179
 6836TIP3    H242000   4.292   6.632  12.143
 6837TIP3   OH242001   4.289   3.498  16.846
 6837TIP3    H142002   4.316   3.563  16.781
 6837TIP3    H242003   4.203   3.529  16.876
 6838TIP3   OH242004   4.648   2.253   4.471
 6838TIP3    H142005   4.628   2.160   4.488
 6838TIP3    H242006   4.722   2.251   4.411
 6839TIP3   OH242007   0.637   0.424   6.293
 6839TIP3    H142008   0.643   0.496   6.355
 6839TIP3    H242009   0.712   0.368   6.313
 6840TIP3   OH242010   5.033   1.844   2.561
 6840TIP3    H142011   5.051   1.928   2.520
 6840TIP3    H242012   5.119   1.802   2.568
 6841TIP3   OH242013   1.555   3.123   2.129
 6841TIP3    H142014   1.460   3.128   2.118
 6841TIP3    H242015   1.578   3.034   2.101
 6842TIP3   OH242016   5.098   6.517   4.051
 6842TIP3    H142017   5.155   6.440   4.058
 6842TIP3    H242018   5.156   6.587   4.022
 6843TIP3   OH242019   4.870   3.455   5.881
 6843TIP3    H142020   4.855   3.360   5.876
 6843TIP3    H242021   4.855   3.477   5.973
 6844TIP3   OH242022   5.339   6.293  15.131
 6844TIP3    H142023   5.417   6.245  15.161
 6844TIP3    H242024   5.374   6.376  15.098
 6845TIP3   OH242025   2.495   1.943  13.784
 6845TIP3    H142026   2.426   2.006  13.804
 6845TIP3    H242027   2.516   1.958  13.692
 6846TIP3   OH242028   6.041   0.750  13.801
 6846TIP3    H142029   6.117   0.693  13.795
 6846TIP3    H242030   5.972   0.695  13.838
 6847TIP3   OH242031   1.210   5.547  13.829
 6847TIP3    H142032   1.302   5.525  13.812
 6847TIP3    H242033   1.175   5.568  13.742
 6848TIP3   OH242034   1.014   1.821   4.412
 6848TIP3    H142035   1.025   1.915   4.399
 6848TIP3    H242036   1.092   1.794   4.458
 6849TIP3   OH242037   6.187   0.270  11.776
 6849TIP3    H142038   6.226   0.319  11.849
 6849TIP3    H242039   6.184   0.332  11.704
 6850TIP3   OH242040   4.173   1.418   5.134
 6850TIP3    H142041   4.256   1.446   5.096
 6850TIP3    H242042   4.132   1.366   5.065
 6851TIP3   OH242043   2.443   0.245  14.176
 6851TIP3    H142044   2.380   0.203  14.117
 6851TIP3    H242045   2.502   0.293  14.118
 6852TIP3   OH242046   6.607   4.898   5.195
 6852TIP3    H142047   6.541   4.901   5.265
 6852TIP3    H242048   6.558   4.917   5.115
 6853TIP3   OH242049   6.441   2.316  15.232
 6853TIP3    H142050   6.456   2.222  15.242
 6853TIP3    H242051   6.506   2.357  15.289
 6854TIP3   OH242052   6.350   2.776   5.643
 6854TIP3    H142053   6.370   2.812   5.556
 6854TIP3    H242054   6.255   2.768   5.645
 6855TIP3   OH242055   2.396   6.126  13.411
 6855TIP3    H142056   2.414   6.190  13.480
 6855TIP3    H242057   2.303   6.105  13.422
 6856TIP3   OH242058   3.622   3.539   2.142
 6856TIP3    H142059   3.582   3.523   2.227
 6856TIP3    H242060   3.693   3.474   2.137
 6857TIP3   OH242061   1.621   1.055   3.305
 6857TIP3    H142062   1.617   1.137   3.355
 6857TIP3    H242063   1.577   0.990   3.360
 6858TIP3   OH242064   6.038   2.693  11.825
 6858TIP3    H142065   6.125   2.685  11.784
 6858TIP3    H242066   6.055   2.682  11.919
 6859TIP3   OH242067   0.044   4.647   5.357
 6859TIP3    H142068   0.123   4.699   5.343
 6859TIP3    H242069  -0.022   4.710   5.386
 6860TIP3   OH242070   4.899   3.325   3.253
 6860TIP3    H142071   4.847   3.247   3.231
 6860TIP3    H242072   4.982   3.290   3.285
 6861TIP3   OH242073   1.156   0.306  12.401
 6861TIP3    H142074   1.247   0.335  12.396
 6861TIP3    H242075   1.154   0.223  12.355
 6862TIP3   OH242076   0.409   6.400  15.452
 6862TIP3    H142077   0.357   6.388  15.531
 6862TIP3    H242078   0.370   6.339  15.388
 6863TIP3   OH242079   0.886   3.454   3.758
 6863TIP3    H142080   0.910   3.374   3.805
 6863TIP3    H242081   0.970   3.499   3.743
 6864TIP3   OH242082   0.141   6.757  14.161
 6864TIP3    H142083   0.090   6.837  14.165
 6864TIP3    H242084   0.209   6.775  14.096
 6865TIP3   OH242085   0.108   2.484  13.338
 6865TIP3    H142086   0.087   2.547  13.408
 6865TIP3    H242087   0.199   2.462  13.353
 6866TIP3   OH242088   1.056   0.765  13.607
 6866TIP3    H142089   1.029   0.833  13.545
 6866TIP3    H242090   1.040   0.683  13.560
 6867TIP3   OH242091   5.142   5.962   4.333
 6867TIP3    H142092   5.176   6.037   4.383
 6867TIP3    H242093   5.214   5.936   4.276
 6868TIP3   OH242094   3.255   4.662  16.112
 6868TIP3    H142095   3.210   4.732  16.160
 6868TIP3    H242096   3.203   4.651  16.032
 6869TIP3   OH242097   3.234   3.830   2.773
 6869TIP3    H142098   3.311   3.836   2.831
 6869TIP3    H242099   3.256   3.885   2.698
 6870TIP3   OH242100   1.556   2.994   4.436
 6870TIP3    H142101   1.606   3.026   4.361
 6870TIP3    H242102   1.533   2.904   4.413
 6871TIP3   OH242103   4.669   2.307  16.040
 6871TIP3    H142104   4.617   2.240  16.085
 6871TIP3    H242105   4.755   2.302  16.082
 6872TIP3   OH242106   1.500   0.851   3.760
 6872TIP3    H142107   1.478   0.759   3.744
 6872TIP3    H242108   1.435   0.881   3.824
 6873TIP3   OH242109   6.189   2.025  16.432
 6873TIP3    H142110   6.220   2.107  16.395
 6873TIP3    H242111   6.114   2.050  16.487
 6874TIP3   OH242112   5.396   2.889   0.082
 6874TIP3    H142113   5.450   2.847   0.015
 6874TIP3    H242114   5.339   2.820   0.114
 6875TIP3   OH242115   1.167   3.306   2.505
 6875TIP3    H142116   1.104   3.240   2.477
 6875TIP3    H242117   1.116   3.366   2.559
 6876TIP3   OH242118   4.087   1.512   1.547
 6876TIP3    H142119   4.087   1.417   1.561
 6876TIP3    H242120   4.166   1.529   1.496
 6877TIP3   OH242121   0.358   3.295   3.997
 6877TIP3    H142122   0.282   3.242   4.023
 6877TIP3    H242123   0.369   3.276   3.903
 6878TIP3   OH242124   6.812   6.077   4.749
 6878TIP3    H142125   6.851   6.149   4.700
 6878TIP3    H242126   6.856   6.080   4.834
 6879TIP3   OH242127   2.787   6.302  14.919
 6879TIP3    H142128   2.774   6.251  14.839
 6879TIP3    H242129   2.786   6.393  14.890
 6880TIP3   OH242130   2.911   6.175   2.718
 6880TIP3    H142131   3.003   6.160   2.696
 6880TIP3    H242132   2.867   6.179   2.634
 6881TIP3   OH242133   2.671   2.207  13.045
 6881TIP3    H142134   2.761   2.175  13.043
 6881TIP3    H242135   2.679   2.299  13.019
 6882TIP3   OH242136   3.301   0.314  11.919
 6882TIP3    H142137   3.323   0.228  11.882
 6882TIP3    H242138   3.373   0.371  11.892
 6883TIP3   OH242139   4.373   5.525  16.012
 6883TIP3    H142140   4.457   5.532  16.058
 6883TIP3    H242141   4.321   5.467  16.066
 6884TIP3   OH242142   1.506   4.233  11.745
 6884TIP3    H142143   1.560   4.273  11.676
 6884TIP3    H242144   1.463   4.306  11.788
 6885TIP3   OH242145   6.170   5.613  13.569
 6885TIP3    H142146   6.213   5.604  13.655
 6885TIP3    H242147   6.096   5.670  13.586
 6886TIP3   OH242148   2.376   3.167   4.672
 6886TIP3    H142149   2.365   3.141   4.764
 6886TIP3    H242150   2.471   3.169   4.659
 6887TIP3   OH242151   5.176   2.663   5.154
 6887TIP3    H142152   5.141   2.608   5.083
 6887TIP3    H242153   5.116   2.737   5.158
 6888TIP3   OH242154   1.128   1.737  13.499
 6888TIP3    H142155   1.203   1.677  13.497
 6888TIP3    H242156   1.167   1.824  13.498
 6889TIP3   OH242157   0.986   5.044  14.273
 6889TIP3    H142158   0.898   5.064  14.242
 6889TIP3    H242159   1.010   5.119  14.327
 6890TIP3   OH242160   5.586   4.992   4.244
 6890TIP3    H142161   5.668   4.954   4.212
 6890TIP3    H242162   5.610   5.078   4.278
 6891TIP3   OH242163   4.030   6.572   1.719
 6891TIP3    H142164   4.041   6.647   1.777
 6891TIP3    H242165   4.118   6.555   1.685
 6892TIP3   OH242166   2.338   4.212  16.818
 6892TIP3    H142167   2.268   4.217  16.754
 6892TIP3    H242168   2.374   4.124  16.807
 6893TIP3   OH242169   5.910   1.204  16.348
 6893TIP3    H142170   5.914   1.226  16.255
 6893TIP3    H242171   5.853   1.127  16.352
 6894TIP3   OH242172   0.804   6.593  15.221
 6894TIP3    H142173   0.875   6.552  15.172
 6894TIP3    H242174   0.820   6.687  15.213
 6895TIP3   OH242175   5.678   3.409   1.626
 6895TIP3    H142176   5.637   3.323   1.616
 6895TIP3    H242177   5.649   3.459   1.549
 6896TIP3   OH242178   4.145   5.377  13.002
 6896TIP3    H142179   4.054   5.407  12.993
 6896TIP3    H242180   4.152   5.348  13.092
 6897TIP3   OH242181   4.378   0.249  12.499
 6897TIP3    H142182   4.451   0.300  12.463
 6897TIP3    H242183   4.330   0.219  12.422
 6898TIP3   OH242184   1.615   4.613   1.837
 6898TIP3    H142185   1.552   4.606   1.766
 6898TIP3    H242186   1.670   4.688   1.814
 6899TIP3   OH242187   5.903   3.557  14.817
 6899TIP3    H142188   5.963   3.486  14.795
 6899TIP3    H242189   5.818   3.515  14.829
 6900TIP3   OH242190   0.870   1.271   5.584
 6900TIP3    H142191   0.934   1.204   5.560
 6900TIP3    H242192   0.914   1.325   5.649
 6901TIP3   OH242193   2.450   1.536   5.122
 6901TIP3    H142194   2.540   1.557   5.149
 6901TIP3    H242195   2.396   1.560   5.197
 6902TIP3   OH242196   5.514   4.320  12.254
 6902TIP3    H142197   5.571   4.378  12.304
 6902TIP3    H242198   5.573   4.270  12.198
 6903TIP3   OH242199   5.705   6.273   1.711
 6903TIP3    H142200   5.669   6.192   1.747
 6903TIP3    H242201   5.794   6.250   1.685
 6904TIP3   OH242202   3.246   2.031   5.644
 6904TIP3    H142203   3.284   1.944   5.657
 6904TIP3    H242204   3.227   2.062   5.732
 6905TIP3   OH242205   4.241   1.458  15.412
 6905TIP3    H142206   4.281   1.454  15.499
 6905TIP3    H242207   4.245   1.550  15.388
 6906TIP3   OH242208   3.561   6.325   6.534
 6906TIP3    H142209   3.587   6.412   6.504
 6906TIP3    H242210   3.548   6.335   6.629
 6907TIP3   OH242211   6.355   4.602   0.030
 6907TIP3    H142212   6.315   4.621   0.115
 6907TIP3    H242213   6.281   4.586  -0.028
 6908TIP3   OH242214   1.892   3.925   4.074
 6908TIP3    H142215   1.805   3.961   4.055
 6908TIP3    H242216   1.881   3.830   4.071
 6909TIP3   OH242217   2.801   2.191  13.500
 6909TIP3    H142218   2.735   2.150  13.445
 6909TIP3    H242219   2.871   2.215  13.439
 6910TIP3   OH242220   4.251   3.885   4.967
 6910TIP3    H142221   4.318   3.827   4.931
 6910TIP3    H242222   4.263   3.880   5.062
 6911TIP3   OH242223   3.357   6.296  17.051
 6911TIP3    H142224   3.354   6.201  17.058
 6911TIP3    H242225   3.283   6.326  17.103
 6912TIP3   OH242226   5.639   0.797   6.417
 6912TIP3    H142227   5.558   0.761   6.381
 6912TIP3    H242228   5.613   0.878   6.460
 6913TIP3   OH242229   4.771   4.786   1.563
 6913TIP3    H142230   4.814   4.870   1.546
 6913TIP3    H242231   4.691   4.789   1.511
 6914TIP3   OH242232   4.775   3.174   2.326
 6914TIP3    H142233   4.834   3.182   2.250
 6914TIP3    H242234   4.732   3.259   2.332
 6915TIP3   OH242235   6.255   2.906  14.385
 6915TIP3    H142236   6.208   2.897  14.468
 6915TIP3    H242237   6.330   2.961  14.406
 6916TIP3   OH242238   4.125   0.741   3.661
 6916TIP3    H142239   4.076   0.812   3.620
 6916TIP3    H242240   4.182   0.708   3.592
 6917TIP3   OH242241   5.707   2.916  11.458
 6917TIP3    H142242   5.794   2.940  11.425
 6917TIP3    H242243   5.646   2.959  11.398
 6918TIP3   OH242244   3.437   0.770  17.150
 6918TIP3    H142245   3.403   0.820  17.224
 6918TIP3    H242246   3.400   0.813  17.072
 6919TIP3   OH242247   2.195   2.401   4.925
 6919TIP3    H142248   2.263   2.375   4.864
 6919TIP3    H242249   2.191   2.330   4.989
 6920TIP3   OH242250   4.573   0.533  12.068
 6920TIP3    H142251   4.546   0.545  11.978
 6920TIP3    H242252   4.546   0.444  12.090
 6921TIP3   OH242253   1.659   1.855   3.508
 6921TIP3    H142254   1.636   1.879   3.419
 6921TIP3    H242255   1.657   1.937   3.557
 6922TIP3   OH242256   6.732   0.768   3.273
 6922TIP3    H142257   6.759   0.683   3.236
 6922TIP3    H242258   6.776   0.772   3.358
 6923TIP3   OH242259   4.552   3.643  11.077
 6923TIP3    H142260   4.519   3.556  11.095
 6923TIP3    H242261   4.636   3.647  11.123
 6924TIP3   OH242262   0.852   0.186   0.311
 6924TIP3    H142263   0.870   0.274   0.344
 6924TIP3    H242264   0.775   0.157   0.360
 6925TIP3   OH242265   5.521   6.766  13.645
 6925TIP3    H142266   5.591   6.706  13.673
 6925TIP3    H242267   5.517   6.753  13.550
 6926TIP3   OH242268   6.722   1.257   1.046
 6926TIP3    H142269   6.717   1.219   0.958
 6926TIP3    H242270   6.744   1.183   1.103
 6927TIP3   OH242271   3.587   3.520   0.414
 6927TIP3    H142272   3.625   3.548   0.498
 6927TIP3    H242273   3.570   3.601   0.367
 6928TIP3   OH242274   4.321   6.578   5.818
 6928TIP3    H142275   4.250   6.525   5.856
 6928TIP3    H242276   4.284   6.666   5.812
 6929TIP3   OH242277   3.984   4.428  13.197
 6929TIP3    H142278   3.975   4.333  13.194
 6929TIP3    H242279   4.009   4.446  13.288
 6930TIP3   OH242280   6.323   0.881  14.561
 6930TIP3    H142281   6.344   0.969  14.532
 6930TIP3    H242282   6.319   0.829  14.481
 6931TIP3   OH242283   5.802   2.137   4.986
 6931TIP3    H142284   5.893   2.155   4.962
 6931TIP3    H242285   5.806   2.054   5.033
 6932TIP3   OH242286   4.809   2.189   0.107
 6932TIP3    H142287   4.716   2.168   0.107
 6932TIP3    H242288   4.838   2.170   0.196
 6933TIP3   OH242289   3.083   5.324   4.346
 6933TIP3    H142290   3.020   5.369   4.291
 6933TIP3    H242291   3.119   5.392   4.403
 6934TIP3   OH242292   4.559   3.890   3.113
 6934TIP3    H142293   4.464   3.893   3.100
 6934TIP3    H242294   4.589   3.977   3.089
 6935TIP3   OH242295   5.893   0.647  10.863
 6935TIP3    H142296   5.825   0.607  10.917
 6935TIP3    H242297   5.931   0.715  10.918
 6936TIP3   OH242298   3.912   3.599  10.969
 6936TIP3    H142299   3.829   3.646  10.955
 6936TIP3    H242300   3.975   3.646  10.915
 6937TIP3   OH242301   0.183   5.140  15.764
 6937TIP3    H142302   0.199   5.055  15.723
 6937TIP3    H242303   0.215   5.204  15.701
 6938TIP3   OH242304   1.770   3.340  15.283
 6938TIP3    H142305   1.784   3.383  15.199
 6938TIP3    H242306   1.855   3.344  15.327
 6939TIP3   OH242307   3.525   2.594   0.179
 6939TIP3    H142308   3.600   2.580   0.121
 6939TIP3    H242309   3.544   2.676   0.223
 6940TIP3   OH242310   4.793   5.078   0.786
 6940TIP3    H142311   4.721   5.086   0.724
 6940TIP3    H242312   4.758   5.023   0.856
 6941TIP3   OH242313   4.936   1.237  11.020
 6941TIP3    H142314   4.904   1.296  10.952
 6941TIP3    H242315   4.999   1.181  10.976
 6942TIP3   OH242316   4.267   2.285  16.447
 6942TIP3    H142317   4.231   2.365  16.408
 6942TIP3    H242318   4.211   2.215  16.412
 6943TIP3   OH242319   1.002   1.940   0.825
 6943TIP3    H142320   1.023   1.951   0.732
 6943TIP3    H242321   1.072   1.884   0.859
 6944TIP3   OH242322   3.381   2.025   2.859
 6944TIP3    H142323   3.449   2.001   2.922
 6944TIP3    H242324   3.368   1.946   2.807
 6945TIP3   OH242325   4.174   0.580  12.181
 6945TIP3    H142326   4.158   0.674  12.188
 6945TIP3    H242327   4.181   0.550  12.271
 6946TIP3   OH242328   1.787   0.724  10.819
 6946TIP3    H142329   1.837   0.673  10.756
 6946TIP3    H242330   1.698   0.725  10.784
 6947TIP3   OH242331   2.562   5.261   0.490
 6947TIP3    H142332   2.646   5.259   0.535
 6947TIP3    H242333   2.536   5.169   0.483
 6948TIP3   OH242334   4.572   2.027  12.622
 6948TIP3    H142335   4.629   1.980  12.560
 6948TIP3    H242336   4.520   1.959  12.664
 6949TIP3   OH242337   4.160   4.732   1.824
 6949TIP3    H142338   4.216   4.710   1.898
 6949TIP3    H242339   4.161   4.828   1.822
 6950TIP3   OH242340   1.742   6.531  14.138
 6950TIP3    H142341   1.766   6.622  14.154
 6950TIP3    H242342   1.648   6.532  14.122
 6951TIP3   OH242343   3.313   5.684  16.860
 6951TIP3    H142344   3.402   5.675  16.826
 6951TIP3    H242345   3.275   5.757  16.811
 6952TIP3   OH242346   0.634   1.694   0.438
 6952TIP3    H142347   0.682   1.616   0.411
 6952TIP3    H242348   0.625   1.685   0.533
 6953TIP3   OH242349   6.072   6.175  13.205
 6953TIP3    H142350   6.055   6.148  13.115
 6953TIP3    H242351   6.167   6.175  13.213
 6954TIP3   OH242352   1.205   1.007  12.014
 6954TIP3    H142353   1.203   0.928  12.067
 6954TIP3    H242354   1.295   1.013  11.983
 6955TIP3   OH242355   0.795   1.242   6.327
 6955TIP3    H142356   0.878   1.261   6.283
 6955TIP3    H242357   0.772   1.324   6.370
 6956TIP3   OH242358   3.383   0.510   5.565
 6956TIP3    H142359   3.319   0.476   5.627
 6956TIP3    H242360   3.349   0.484   5.479
 6957TIP3   OH242361   2.422   3.182  15.453
 6957TIP3    H142362   2.472   3.185  15.372
 6957TIP3    H242363   2.381   3.268  15.460
 6958TIP3   OH242364   3.025   3.534  10.727
 6958TIP3    H142365   3.051   3.523  10.818
 6958TIP3    H242366   3.024   3.628  10.713
 6959TIP3   OH242367   0.386   2.303  14.815
 6959TIP3    H142368   0.308   2.251  14.795
 6959TIP3    H242369   0.434   2.250  14.879
 6960TIP3   OH242370   2.242   2.658  12.222
 6960TIP3    H142371   2.320   2.692  12.267
 6960TIP3    H242372   2.218   2.728  12.161
 6961TIP3   OH242373   3.891   3.372   4.885
 6961TIP3    H142374   3.822   3.429   4.918
 6961TIP3    H242375   3.970   3.427   4.885
 6962TIP3   OH242376   1.101   3.609  16.691
 6962TIP3    H142377   1.020   3.578  16.651
 6962TIP3    H242378   1.129   3.682  16.637
 6963TIP3   OH242379   1.319   2.103   5.227
 6963TIP3    H142380   1.372   2.036   5.183
 6963TIP3    H242381   1.240   2.110   5.172
 6964TIP3   OH242382   0.796   0.599   4.360
 6964TIP3    H142383   0.877   0.621   4.313
 6964TIP3    H242384   0.818   0.616   4.452
 6965TIP3   OH242385   1.351   0.809  13.566
 6965TIP3    H142386   1.264   0.780  13.593
 6965TIP3    H242387   1.336   0.854  13.482
 6966TIP3   OH242388   3.847   6.258   2.159
 6966TIP3    H142389   3.789   6.215   2.096
 6966TIP3    H242390   3.796   6.262   2.240
 6967TIP3   OH242391   3.742   0.281   0.850
 6967TIP3    H142392   3.647   0.271   0.856
 6967TIP3    H242393   3.772   0.198   0.813
 6968TIP3   OH242394   1.992   0.536   1.046
 6968TIP3    H142395   1.999   0.628   1.070
 6968TIP3    H242396   2.074   0.517   1.000
 6969TIP3   OH242397   1.249   5.067  13.648
 6969TIP3    H142398   1.314   4.997  13.653
 6969TIP3    H242399   1.183   5.034  13.588
 6970TIP3   OH242400   6.082   5.622   6.110
 6970TIP3    H142401   6.103   5.540   6.157
 6970TIP3    H242402   6.076   5.688   6.180
 6971TIP3   OH242403   4.810   3.360  10.534
 6971TIP3    H142404   4.723   3.399  10.525
 6971TIP3    H242405   4.817   3.338  10.627
 6972TIP3   OH242406   4.482   3.137   3.422
 6972TIP3    H142407   4.462   3.157   3.514
 6972TIP3    H242408   4.561   3.083   3.426
 6973TIP3   OH242409   4.744   3.624  13.627
 6973TIP3    H142410   4.730   3.609  13.534
 6973TIP3    H242411   4.658   3.648  13.661
 6974TIP3   OH242412   3.183   0.545  14.052
 6974TIP3    H142413   3.250   0.566  13.986
 6974TIP3    H242414   3.207   0.597  14.129
 6975TIP3   OH242415   2.276   5.857  15.064
 6975TIP3    H142416   2.315   5.817  15.142
 6975TIP3    H242417   2.235   5.937  15.096
 6976TIP3   OH242418   0.743   2.050   1.420
 6976TIP3    H142419   0.771   1.959   1.409
 6976TIP3    H242420   0.669   2.059   1.360
 6977TIP3   OH242421   0.716   2.389   5.664
 6977TIP3    H142422   0.638   2.425   5.620
 6977TIP3    H242423   0.776   2.367   5.592
 6978TIP3   OH242424   2.298   6.067  14.702
 6978TIP3    H142425   2.271   6.122  14.776
 6978TIP3    H242426   2.249   5.986  14.713
 6979TIP3   OH242427   1.790   0.414   0.418
 6979TIP3    H142428   1.800   0.494   0.470
 6979TIP3    H242429   1.697   0.411   0.396
 6980TIP3   OH242430   1.743   2.890   5.147
 6980TIP3    H142431   1.786   2.829   5.206
 6980TIP3    H242432   1.708   2.958   5.205
 6981TIP3   OH242433   2.236   5.273   0.491
 6981TIP3    H142434   2.250   5.302   0.581
 6981TIP3    H242435   2.294   5.198   0.481
 6982TIP3   OH242436   0.369   5.017   4.337
 6982TIP3    H142437   0.407   5.101   4.309
 6982TIP3    H242438   0.415   4.952   4.285
 6983TIP3   OH242439   3.974   5.220   3.814
 6983TIP3    H142440   3.892   5.247   3.773
 6983TIP3    H242441   4.003   5.296   3.864
 6984TIP3   OH242442   4.440   2.653  11.788
 6984TIP3    H142443   4.463   2.576  11.735
 6984TIP3    H242444   4.442   2.622  11.878
 6985TIP3   OH242445   2.469   2.119  13.277
 6985TIP3    H142446   2.529   2.153  13.210
 6985TIP3    H242447   2.392   2.090  13.228
 6986TIP3   OH242448   1.881   3.914  15.181
 6986TIP3    H142449   1.974   3.934  15.177
 6986TIP3    H242450   1.863   3.864  15.101
 6987TIP3   OH242451   0.754   5.895  12.457
 6987TIP3    H142452   0.728   5.936  12.540
 6987TIP3    H242453   0.741   5.964  12.392
 6988TIP3   OH242454   3.280   0.753  11.844
 6988TIP3    H142455   3.275   0.672  11.793
 6988TIP3    H242456   3.195   0.758  11.888
 6989TIP3   OH242457   4.482   1.399  14.355
 6989TIP3    H142458   4.554   1.351  14.397
 6989TIP3    H242459   4.421   1.331  14.327
 6990TIP3   OH242460   3.673   4.446  11.129
 6990TIP3    H142461   3.758   4.447  11.085
 6990TIP3    H242462   3.632   4.364  11.101
 6991TIP3   OH242463   4.940   3.215  14.422
 6991TIP3    H142464   4.869   3.246  14.478
 6991TIP3    H242465   4.927   3.120  14.416
 6992TIP3   OH242466   0.883   3.797   3.852
 6992TIP3    H142467   0.942   3.815   3.925
 6992TIP3    H242468   0.919   3.847   3.779
 6993TIP3   OH242469   5.300   1.284  13.987
 6993TIP3    H142470   5.327   1.192  13.995
 6993TIP3    H242471   5.371   1.333  14.027
 6994TIP3   OH242472   5.353   3.494  14.973
 6994TIP3    H142473   5.316   3.582  14.978
 6994TIP3    H242474   5.294   3.440  15.026
 6995TIP3   OH242475   2.775   1.567  12.347
 6995TIP3    H142476   2.800   1.503  12.414
 6995TIP3    H242477   2.790   1.652  12.388
 6996TIP3   OH242478   5.997   4.417   1.945
 6996TIP3    H142479   6.037   4.337   1.912
 6996TIP3    H242480   5.904   4.408   1.924
 6997TIP3   OH242481   3.283   4.426   3.512
 6997TIP3    H142482   3.242   4.476   3.442
 6997TIP3    H242483   3.265   4.334   3.490
 6998TIP3   OH242484   3.214   0.612   4.949
 6998TIP3    H142485   3.237   0.569   4.867
 6998TIP3    H242486   3.217   0.705   4.929
 6999TIP3   OH242487   5.626   0.379   0.546
 6999TIP3    H142488   5.631   0.463   0.499
 6999TIP3    H242489   5.552   0.389   0.606
 7000TIP3   OH242490   0.714   1.547   4.426
 7000TIP3    H142491   0.625   1.535   4.459
 7000TIP3    H242492   0.765   1.476   4.465
 7001TIP3   OH242493   5.247   6.091   4.051
 7001TIP3    H142494   5.296   6.133   4.122
 7001TIP3    H242495   5.155   6.106   4.073
 7002TIP3   OH242496   0.866   4.598  12.659
 7002TIP3    H142497   0.866   4.561  12.570
 7002TIP3    H242498   0.909   4.531  12.712
 7003TIP3   OH242499   4.357   5.637  14.378
 7003TIP3    H142500   4.343   5.551  14.417
 7003TIP3    H242501   4.363   5.620  14.284
 7004TIP3   OH242502   4.171   3.891  16.237
 7004TIP3    H142503   4.232   3.830  16.279
 7004TIP3    H242504   4.113   3.835  16.186
 7005TIP3   OH242505   2.374   5.886   3.965
 7005TIP3    H142506   2.347   5.937   4.041
 7005TIP3    H242507   2.430   5.946   3.915
 7006TIP3   OH242508   0.032   3.582   0.341
 7006TIP3    H142509  -0.001   3.493   0.332
 7006TIP3    H242510  -0.046   3.638   0.338
 7007TIP3   OH242511   5.362   6.597  11.352
 7007TIP3    H142512   5.394   6.591  11.262
 7007TIP3    H242513   5.352   6.507  11.381
 7008TIP3   OH242514   3.692   6.093   1.991
 7008TIP3    H142515   3.606   6.068   2.023
 7008TIP3    H242516   3.733   6.010   1.965
 7009TIP3   OH242517   2.511   4.892   2.455
 7009TIP3    H142518   2.590   4.912   2.406
 7009TIP3    H242519   2.442   4.886   2.389
 7010TIP3   OH242520   4.629   6.350   0.227
 7010TIP3    H142521   4.572   6.326   0.300
 7010TIP3    H242522   4.674   6.269   0.204
 7011TIP3   OH242523   1.769   4.948   5.631
 7011TIP3    H142524   1.821   4.896   5.693
 7011TIP3    H242525   1.684   4.957   5.674
 7012TIP3   OH242526   0.218   6.800   5.398
 7012TIP3    H142527   0.230   6.731   5.463
 7012TIP3    H242528   0.302   6.846   5.396
 7013TIP3   OH242529   2.644   2.226  14.454
 7013TIP3    H142530   2.666   2.133  14.454
 7013TIP3    H242531   2.611   2.243  14.366
 7014TIP3   OH242532   3.792   2.009  14.673
 7014TIP3    H142533   3.868   1.984  14.621
 7014TIP3    H242534   3.717   1.986  14.619
 7015TIP3   OH242535   3.938   6.147  14.412
 7015TIP3    H142536   3.950   6.052  14.409
 7015TIP3    H242537   3.848   6.158  14.444
 7016TIP3   OH242538   2.130   2.433  14.192
 7016TIP3    H142539   2.070   2.378  14.241
 7016TIP3    H242540   2.083   2.516  14.179
 7017TIP3   OH242541   4.670   0.015   3.576
 7017TIP3    H142542   4.732  -0.050   3.542
 7017TIP3    H242543   4.627  -0.029   3.650
 7018TIP3   OH242544   6.491   4.766  14.759
 7018TIP3    H142545   6.459   4.676  14.744
 7018TIP3    H242546   6.455   4.790  14.844
 7019TIP3   OH242547   5.198   6.367   2.225
 7019TIP3    H142548   5.165   6.437   2.281
 7019TIP3    H242549   5.293   6.375   2.229
 7020TIP3   OH242550   0.873   2.977   0.258
 7020TIP3    H142551   0.898   3.069   0.259
 7020TIP3    H242552   0.888   2.949   0.168
 7021TIP3   OH242553   1.860   2.966  11.528
 7021TIP3    H142554   1.897   2.938  11.444
 7021TIP3    H242555   1.803   2.893  11.554
 7022TIP3   OH242556   1.606   2.150   1.119
 7022TIP3    H142557   1.572   2.121   1.034
 7022TIP3    H242558   1.576   2.084   1.181
 7023TIP3   OH242559   0.133   5.675   4.257
 7023TIP3    H142560   0.144   5.671   4.162
 7023TIP3    H242561   0.200   5.618   4.293
 7024TIP3   OH242562   2.554   2.119   0.386
 7024TIP3    H142563   2.583   2.137   0.297
 7024TIP3    H242564   2.592   2.034   0.407
 7025TIP3   OH242565   2.431   2.330  16.125
 7025TIP3    H142566   2.466   2.246  16.153
 7025TIP3    H242567   2.392   2.368  16.204
 7026TIP3   OH242568   0.171   1.674  14.385
 7026TIP3    H142569   0.199   1.604  14.326
 7026TIP3    H242570   0.118   1.732  14.330
 7027TIP3   OH242571   2.873   2.021   1.093
 7027TIP3    H142572   2.961   2.015   1.129
 7027TIP3    H242573   2.846   2.112   1.108
 7028TIP3   OH242574   2.190   0.303  12.075
 7028TIP3    H142575   2.174   0.371  12.141
 7028TIP3    H242576   2.123   0.319  12.008
 7029TIP3   OH242577   5.100   4.304   2.914
 7029TIP3    H142578   5.086   4.397   2.900
 7029TIP3    H242579   5.192   4.290   2.893
 7030TIP3   OH242580   3.679   4.487   3.761
 7030TIP3    H142581   3.714   4.455   3.844
 7030TIP3    H242582   3.694   4.581   3.764
 7031TIP3   OH242583   1.627   4.043  15.976
 7031TIP3    H142584   1.692   3.982  16.012
 7031TIP3    H242585   1.546   4.022  16.023
 7032TIP3   OH242586   6.112   1.827   5.812
 7032TIP3    H142587   6.034   1.772   5.814
 7032TIP3    H242588   6.081   1.913   5.840
 7033TIP3   OH242589   4.189   3.216  14.270
 7033TIP3    H142590   4.271   3.175  14.241
 7033TIP3    H242591   4.125   3.145  14.270
 7034TIP3   OH242592   5.783   3.321   2.427
 7034TIP3    H142593   5.783   3.225   2.436
 7034TIP3    H242594   5.875   3.342   2.409
 7035TIP3   OH242595   6.524   2.711  15.608
 7035TIP3    H142596   6.487   2.793  15.641
 7035TIP3    H242597   6.611   2.707  15.647
 7036TIP3   OH242598   1.076   3.255   1.333
 7036TIP3    H142599   1.159   3.263   1.380
 7036TIP3    H242600   1.021   3.202   1.391
 7037TIP3   OH242601   2.622   5.415  13.067
 7037TIP3    H142602   2.611   5.425  13.162
 7037TIP3    H242603   2.542   5.370  13.039
 7038TIP3   OH242604   3.176   2.254   3.318
 7038TIP3    H142605   3.144   2.315   3.385
 7038TIP3    H242606   3.101   2.242   3.260
 7039TIP3   OH242607   4.693   4.864  11.455
 7039TIP3    H142608   4.635   4.870  11.379
 7039TIP3    H242609   4.656   4.926  11.518
 7040TIP3   OH242610   0.381   1.046   2.645
 7040TIP3    H142611   0.464   1.015   2.680
 7040TIP3    H242612   0.405   1.125   2.595
 7041TIP3   OH242613   1.825   6.508  11.435
 7041TIP3    H142614   1.853   6.583  11.383
 7041TIP3    H242615   1.778   6.546  11.509
 7042TIP3   OH242616   4.005   4.338  15.656
 7042TIP3    H142617   3.952   4.306  15.584
 7042TIP3    H242618   3.952   4.323  15.734
 7043TIP3   OH242619   3.989   4.126  13.180
 7043TIP3    H142620   3.931   4.081  13.118
 7043TIP3    H242621   3.968   4.088  13.265
 7044TIP3   OH242622   1.391   2.374   5.415
 7044TIP3    H142623   1.395   2.303   5.480
 7044TIP3    H242624   1.437   2.447   5.457
 7045TIP3   OH242625   2.003   3.549  12.082
 7045TIP3    H142626   1.983   3.518  11.994
 7045TIP3    H242627   1.981   3.642  12.082
 7046TIP3   OH242628   3.819   1.337   0.964
 7046TIP3    H142629   3.867   1.420   0.961
 7046TIP3    H242630   3.802   1.323   1.057
 7047TIP3   OH242631   4.591   6.808  13.227
 7047TIP3    H142632   4.513   6.763  13.260
 7047TIP3    H242633   4.620   6.754  13.154
 7048TIP3   OH242634   6.543   0.596   3.950
 7048TIP3    H142635   6.615   0.534   3.945
 7048TIP3    H242636   6.586   0.682   3.957
 7049TIP3   OH242637   5.688   3.398   3.366
 7049TIP3    H142638   5.763   3.456   3.380
 7049TIP3    H242639   5.614   3.445   3.403
 7050TIP3   OH242640   4.935   2.943  12.607
 7050TIP3    H142641   4.981   2.863  12.632
 7050TIP3    H242642   4.901   2.978  12.689
 7051TIP3   OH242643   3.893   0.790   5.161
 7051TIP3    H142644   3.885   0.878   5.197
 7051TIP3    H242645   3.837   0.790   5.083
 7052TIP3   OH242646   3.016   0.350  13.946
 7052TIP3    H142647   3.080   0.411  13.983
 7052TIP3    H242648   2.934   0.400  13.945
 7053TIP3   OH242649   5.985   4.163   4.143
 7053TIP3    H142650   5.998   4.091   4.081
 7053TIP3    H242651   5.959   4.119   4.224
 7054TIP3   OH242652   2.039   1.606  16.319
 7054TIP3    H142653   1.971   1.553  16.361
 7054TIP3    H242654   2.029   1.693  16.359
 7055TIP3   OH242655   2.451   0.508  16.365
 7055TIP3    H142656   2.496   0.428  16.338
 7055TIP3    H242657   2.424   0.550  16.283
 7056TIP3   OH242658   1.599   1.785   4.306
 7056TIP3    H142659   1.692   1.795   4.328
 7056TIP3    H242660   1.574   1.702   4.346
 7057TIP3   OH242661   1.445   0.678   1.239
 7057TIP3    H142662   1.500   0.732   1.296
 7057TIP3    H242663   1.493   0.674   1.156
 7058TIP3   OH242664   4.222   3.735   1.500
 7058TIP3    H142665   4.162   3.679   1.450
 7058TIP3    H242666   4.169   3.767   1.573
 7059TIP3   OH242667   4.618   4.301  12.943
 7059TIP3    H142668   4.610   4.395  12.957
 7059TIP3    H242669   4.551   4.262  13.000
 7060TIP3   OH242670   3.570   2.494   4.610
 7060TIP3    H142671   3.475   2.490   4.597
 7060TIP3    H242672   3.580   2.545   4.691
 7061TIP3   OH242673   3.117   1.238   0.540
 7061TIP3    H142674   3.165   1.283   0.470
 7061TIP3    H242675   3.170   1.252   0.618
 7062TIP3   OH242676   6.066   6.630  11.767
 7062TIP3    H142677   6.002   6.702  11.773
 7062TIP3    H242678   6.047   6.589  11.683
 7063TIP3   OH242679   3.110   0.439  11.792
 7063TIP3    H142680   3.161   0.487  11.726
 7063TIP3    H242681   3.172   0.376  11.829
 7064TIP3   OH242682   3.115   0.332   6.330
 7064TIP3    H142683   3.088   0.241   6.319
 7064TIP3    H242684   3.033   0.381   6.330
 7065TIP3   OH242685   1.148   2.982   4.836
 7065TIP3    H142686   1.242   2.983   4.821
 7065TIP3    H242687   1.132   2.900   4.882
 7066TIP3   OH242688   4.947   1.812  10.831
 7066TIP3    H142689   4.926   1.757  10.906
 7066TIP3    H242690   4.876   1.796  10.769
 7067TIP3   OH242691   1.796   2.840  13.904
 7067TIP3    H142692   1.798   2.750  13.870
 7067TIP3    H242693   1.889   2.861  13.920
 7068TIP3   OH242694   5.328   2.185  13.135
 7068TIP3    H142695   5.255   2.241  13.108
 7068TIP3    H242696   5.382   2.241  13.191
 7069TIP3   OH242697   6.338   0.558   2.844
 7069TIP3    H142698   6.373   0.646   2.860
 7069TIP3    H242699   6.288   0.537   2.923
 7070TIP3   OH242700   2.731   1.854  11.594
 7070TIP3    H142701   2.638   1.865  11.614
 7070TIP3    H242702   2.747   1.915  11.522
 7071TIP3   OH242703   0.442   3.133   1.141
 7071TIP3    H142704   0.408   3.219   1.163
 7071TIP3    H242705   0.530   3.149   1.106
 7072TIP3   OH242706   1.625   0.739  15.996
 7072TIP3    H142707   1.636   0.833  15.990
 7072TIP3    H242708   1.531   0.725  15.983
 7073TIP3   OH242709   3.446   1.307  11.631
 7073TIP3    H142710   3.392   1.331  11.556
 7073TIP3    H242711   3.501   1.235  11.600
 7074TIP3   OH242712   1.991   5.100  11.434
 7074TIP3    H142713   2.058   5.046  11.476
 7074TIP3    H242714   1.933   5.038  11.390
 7075TIP3   OH242715   5.213   5.068   0.102
 7075TIP3    H142716   5.164   5.117   0.036
 7075TIP3    H242717   5.179   5.100   0.185
 7076TIP3   OH242718   6.730   2.688   4.612
 7076TIP3    H142719   6.791   2.639   4.668
 7076TIP3    H242720   6.687   2.622   4.558
 7077TIP3   OH242721   4.699   5.197  14.662
 7077TIP3    H142722   4.738   5.110  14.673
 7077TIP3    H242723   4.652   5.191  14.578
 7078TIP3   OH242724   3.254   2.778  15.407
 7078TIP3    H142725   3.294   2.695  15.382
 7078TIP3    H242726   3.326   2.841  15.401
 7079TIP3   OH242727   1.118   5.793   2.060
 7079TIP3    H142728   1.171   5.871   2.045
 7079TIP3    H242729   1.171   5.739   2.119
 7080TIP3   OH242730   1.427   5.928  12.681
 7080TIP3    H142731   1.404   5.835  12.688
 7080TIP3    H242732   1.357   5.974  12.728
 7081TIP3   OH242733   2.719   1.037   1.337
 7081TIP3    H142734   2.757   1.122   1.315
 7081TIP3    H242735   2.640   1.058   1.386
 7082TIP3   OH242736   3.448   4.399  13.505
 7082TIP3    H142737   3.514   4.466  13.523
 7082TIP3    H242738   3.457   4.336  13.577
 7083TIP3   OH242739   2.679   3.718   2.643
 7083TIP3    H142740   2.771   3.734   2.666
 7083TIP3    H242741   2.650   3.650   2.704
 7084TIP3   OH242742   5.931   0.794  17.162
 7084TIP3    H142743   5.865   0.735  17.125
 7084TIP3    H242744   6.010   0.741  17.168
 7085TIP3   OH242745   3.056   6.546   4.439
 7085TIP3    H142746   3.085   6.638   4.436
 7085TIP3    H242747   3.000   6.536   4.362
 7086TIP3   OH242748   2.100   6.731   4.728
 7086TIP3    H142749   2.154   6.739   4.806
 7086TIP3    H242750   2.092   6.820   4.695
 7087TIP3   OH242751   5.540   6.192  13.556
 7087TIP3    H142752   5.522   6.160  13.468
 7087TIP3    H242753   5.597   6.268  13.543
 7088TIP3   OH242754   1.356   0.763  15.940
 7088TIP3    H142755   1.323   0.731  15.856
 7088TIP3    H242756   1.297   0.727  16.005
 7089TIP3   OH242757   3.958   0.623  13.511
 7089TIP3    H142758   3.925   0.537  13.486
 7089TIP3    H242759   3.953   0.674  13.430
 7090TIP3   OH242760   4.492   5.250  16.523
 7090TIP3    H142761   4.413   5.199  16.504
 7090TIP3    H242762   4.475   5.289  16.609
 7091TIP3   OH242763   1.643   1.229   2.290
 7091TIP3    H142764   1.596   1.285   2.229
 7091TIP3    H242765   1.648   1.144   2.247
 7092TIP3   OH242766   0.229   5.287  13.561
 7092TIP3    H142767   0.171   5.241  13.622
 7092TIP3    H242768   0.271   5.218  13.511
 7093TIP3   OH242769   4.659   2.766   3.020
 7093TIP3    H142770   4.593   2.752   2.953
 7093TIP3    H242771   4.724   2.697   3.004
 7094TIP3   OH242772   3.696   5.254  12.386
 7094TIP3    H142773   3.709   5.348  12.399
 7094TIP3    H242774   3.725   5.238  12.296
 7095TIP3   OH242775   5.576   0.123  16.938
 7095TIP3    H142776   5.645   0.173  16.982
 7095TIP3    H242777   5.511   0.107  17.007
 7096TIP3   OH242778   0.978   5.911  16.179
 7096TIP3    H142779   0.956   5.824  16.144
 7096TIP3    H242780   0.928   5.972  16.125
 7097TIP3   OH242781   4.243   2.929  10.527
 7097TIP3    H142782   4.323   2.890  10.491
 7097TIP3    H242783   4.232   3.010  10.478
 7098TIP3   OH242784   5.058   1.631  14.805
 7098TIP3    H142785   5.007   1.710  14.823
 7098TIP3    H242786   5.081   1.639  14.713
 7099TIP3   OH242787   5.177   4.706   0.512
 7099TIP3    H142788   5.213   4.708   0.423
 7099TIP3    H242789   5.086   4.735   0.502
 7100TIP3   OH242790   1.548   1.319   2.906
 7100TIP3    H142791   1.487   1.393   2.911
 7100TIP3    H242792   1.537   1.286   2.817
 7101TIP3   OH242793   5.411   3.189   5.976
 7101TIP3    H142794   5.441   3.273   6.011
 7101TIP3    H242795   5.350   3.213   5.906
 7102TIP3   OH242796   2.179   6.131  11.809
 7102TIP3    H142797   2.149   6.143  11.899
 7102TIP3    H242798   2.212   6.042  11.806
 7103TIP3   OH242799   1.142   0.219   3.697
 7103TIP3    H142800   1.055   0.181   3.683
 7103TIP3    H242801   1.175   0.237   3.609
 7104TIP3   OH242802   0.867   6.498  12.912
 7104TIP3    H142803   0.939   6.442  12.940
 7104TIP3    H242804   0.909   6.582  12.894
 7105TIP3   OH242805   0.531   3.283   5.974
 7105TIP3    H142806   0.480   3.312   6.050
 7105TIP3    H242807   0.603   3.233   6.011
 7106TIP3   OH242808   6.005   3.711  11.649
 7106TIP3    H142809   5.925   3.754  11.618
 7106TIP3    H242810   6.055   3.782  11.688
 7107TIP3   OH242811   5.826   5.378   6.422
 7107TIP3    H142812   5.809   5.442   6.353
 7107TIP3    H242813   5.768   5.305   6.401
 7108TIP3   OH242814   6.483   0.274  15.354
 7108TIP3    H142815   6.521   0.362  15.361
 7108TIP3    H242816   6.543   0.227  15.296
 7109TIP3   OH242817   1.594   1.299   1.294
 7109TIP3    H142818   1.659   1.253   1.240
 7109TIP3    H242819   1.516   1.303   1.239
 7110TIP3   OH242820   2.012   2.969  16.377
 7110TIP3    H142821   1.981   2.977  16.287
 7110TIP3    H242822   2.082   2.904  16.374
 7111TIP3   OH242823   3.693   1.120  11.489
 7111TIP3    H142824   3.737   1.108  11.573
 7111TIP3    H242825   3.693   1.214  11.475
 7112TIP3   OH242826   1.585   3.474  16.185
 7112TIP3    H142827   1.565   3.541  16.120
 7112TIP3    H242828   1.628   3.522  16.256
 7113TIP3   OH242829   5.180   2.898   4.197
 7113TIP3    H142830   5.090   2.929   4.204
 7113TIP3    H242831   5.228   2.945   4.265
 7114TIP3   OH242832   4.483   2.758  13.976
 7114TIP3    H142833   4.470   2.847  13.944
 7114TIP3    H242834   4.429   2.704  13.919
 7115TIP3   OH242835   0.967   4.366  11.987
 7115TIP3    H142836   0.890   4.355  12.043
 7115TIP3    H242837   1.003   4.451  12.012
 7116TIP3   OH242838   6.272   2.967   3.310
 7116TIP3    H142839   6.366   2.958   3.324
 7116TIP3    H242840   6.246   3.040   3.367
 7117TIP3   OH242841   5.463   5.960  14.445
 7117TIP3    H142842   5.513   5.879  14.451
 7117TIP3    H242843   5.373   5.934  14.465
 7118TIP3   OH242844   1.515   1.308  11.981
 7118TIP3    H142845   1.497   1.277  11.892
 7118TIP3    H242846   1.586   1.253  12.012
 7119TIP3   OH242847   0.357   0.110   5.966
 7119TIP3    H142848   0.329   0.166   5.893
 7119TIP3    H242849   0.364   0.170   6.040
 7120TIP3   OH242850   6.378   3.385  13.935
 7120TIP3    H142851   6.300   3.393  13.991
 7120TIP3    H242852   6.343   3.371  13.847
 7121TIP3   OH242853   6.428   2.856   6.548
 7121TIP3    H142854   6.366   2.830   6.616
 7121TIP3    H242855   6.455   2.945   6.573
 7122TIP3   OH242856   6.780   5.431  15.192
 7122TIP3    H142857   6.762   5.525  15.200
 7122TIP3    H242858   6.870   5.421  15.223
 7123TIP3   OH242859   6.136   3.960  12.936
 7123TIP3    H142860   6.133   3.917  12.851
 7123TIP3    H242861   6.178   3.897  12.994
 7124TIP3   OH242862   6.042   4.546   0.449
 7124TIP3    H142863   6.049   4.640   0.465
 7124TIP3    H242864   6.039   4.507   0.536
 7125TIP3   OH242865   2.633   6.450  15.609
 7125TIP3    H142866   2.560   6.439  15.548
 7125TIP3    H242867   2.681   6.526  15.575
 7126TIP3   OH242868   2.855   4.409   1.514
 7126TIP3    H142869   2.806   4.349   1.571
 7126TIP3    H242870   2.884   4.354   1.442
 7127TIP3   OH242871   1.569   1.524   4.380
 7127TIP3    H142872   1.653   1.491   4.412
 7127TIP3    H242873   1.563   1.491   4.291
 7128TIP3   OH242874   1.013   5.157   3.390
 7128TIP3    H142875   1.039   5.065   3.380
 7128TIP3    H242876   1.091   5.207   3.368
 7129TIP3   OH242877   3.397   4.360  12.945
 7129TIP3    H142878   3.454   4.374  13.020
 7129TIP3    H242879   3.401   4.441  12.895
 7130TIP3   OH242880   2.318   2.001   5.714
 7130TIP3    H142881   2.260   1.964   5.648
 7130TIP3    H242882   2.322   2.095   5.693
 7131TIP3   OH242883   6.575   4.294  16.779
 7131TIP3    H142884   6.594   4.264  16.690
 7131TIP3    H242885   6.661   4.310  16.817
 7132TIP3   OH242886   2.339   2.602   1.669
 7132TIP3    H142887   2.411   2.593   1.606
 7132TIP3    H242888   2.272   2.541   1.638
 7133TIP3   OH242889   1.097   6.663  16.044
 7133TIP3    H142890   1.050   6.603  15.985
 7133TIP3    H242891   1.180   6.681  15.999
 7134TIP3   OH242892   4.876   1.013  13.346
 7134TIP3    H142893   4.971   1.024  13.344
 7134TIP3    H242894   4.860   0.935  13.293
 7135TIP3   OH242895   4.312   4.419  16.542
 7135TIP3    H142896   4.319   4.328  16.513
 7135TIP3    H242897   4.249   4.417  16.613
 7136TIP3   OH242898   0.370   0.458  15.416
 7136TIP3    H142899   0.340   0.442  15.505
 7136TIP3    H242900   0.451   0.406  15.408
 7137TIP3   OH242901   5.328   2.922  12.259
 7137TIP3    H142902   5.308   2.844  12.207
 7137TIP3    H242903   5.401   2.964  12.213
 7138TIP3   OH242904   1.483   4.154   5.256
 7138TIP3    H142905   1.547   4.220   5.230
 7138TIP3    H242906   1.453   4.116   5.173
 7139TIP3   OH242907   2.711   0.080  12.346
 7139TIP3    H142908   2.624   0.057  12.313
 7139TIP3    H242909   2.742   0.147  12.285
 7140TIP3   OH242910   6.552   2.943   3.310
 7140TIP3    H142911   6.621   3.002   3.340
 7140TIP3    H242912   6.559   2.866   3.367
 7141TIP3   OH242913   4.174   6.163  16.920
 7141TIP3    H142914   4.096   6.215  16.902
 7141TIP3    H242915   4.235   6.187  16.851
 7142TIP3   OH242916   3.972   2.831   1.782
 7142TIP3    H142917   3.948   2.761   1.722
 7142TIP3    H242918   4.059   2.806   1.814
 7143TIP3   OH242919   2.792   3.465  11.568
 7143TIP3    H142920   2.732   3.464  11.642
 7143TIP3    H242921   2.742   3.506  11.497
 7144TIP3   OH242922   2.486   4.543  10.351
 7144TIP3    H142923   2.496   4.448  10.341
 7144TIP3    H242924   2.408   4.552  10.406
 7145TIP3   OH242925   1.253   2.572  13.612
 7145TIP3    H142926   1.224   2.484  13.591
 7145TIP3    H242927   1.270   2.570  13.706
 7146TIP3   OH242928   6.636   1.890   2.903
 7146TIP3    H142929   6.705   1.942   2.943
 7146TIP3    H242930   6.663   1.880   2.812
 7147TIP3   OH242931   0.726   2.540  13.246
 7147TIP3    H142932   0.650   2.511  13.195
 7147TIP3    H242933   0.800   2.531  13.185
 7148TIP3   OH242934   1.338   3.973  13.965
 7148TIP3    H142935   1.308   4.028  13.893
 7148TIP3    H242936   1.271   3.904  13.970
 7149TIP3   OH242937   5.352   1.002   0.561
 7149TIP3    H142938   5.275   0.981   0.508
 7149TIP3    H242939   5.334   0.961   0.646
 7150TIP3   OH242940   2.180   3.176   4.935
 7150TIP3    H142941   2.196   3.265   4.903
 7150TIP3    H242942   2.097   3.151   4.895
 7151TIP3   OH242943   1.015   0.186   6.155
 7151TIP3    H142944   1.081   0.255   6.156
 7151TIP3    H242945   1.058   0.111   6.197
 7152TIP3   OH242946   6.439   0.256   5.052
 7152TIP3    H142947   6.485   0.282   4.972
 7152TIP3    H242948   6.385   0.333   5.074
 7153TIP3   OH242949   1.015   1.604   0.350
 7153TIP3    H142950   0.929   1.569   0.374
 7153TIP3    H242951   1.012   1.613   0.254
 7154TIP3   OH242952   3.955   6.392  10.648
 7154TIP3    H142953   3.900   6.460  10.688
 7154TIP3    H242954   3.945   6.316  10.706
 7155TIP3   OH242955   1.672   4.028  10.689
 7155TIP3    H142956   1.681   4.033  10.594
 7155TIP3    H242957   1.591   3.978  10.702
 7156TIP3   OH242958   4.973   1.003   1.028
 7156TIP3    H142959   4.925   0.929   0.990
 7156TIP3    H242960   4.926   1.024   1.109
 7157TIP3   OH242961   4.174   1.620   1.113
 7157TIP3    H142962   4.244   1.643   1.173
 7157TIP3    H242963   4.101   1.595   1.170
 7158TIP3   OH242964   5.919   2.030   2.888
 7158TIP3    H142965   5.945   2.114   2.848
 7158TIP3    H242966   5.909   2.051   2.981
 7159TIP3   OH242967   6.757   2.002   0.440
 7159TIP3    H142968   6.710   1.970   0.517
 7159TIP3    H242969   6.694   2.058   0.395
 7160TIP3   OH242970   3.583   3.640   3.869
 7160TIP3    H142971   3.538   3.724   3.881
 7160TIP3    H242972   3.515   3.575   3.879
 7161TIP3   OH242973   1.217   4.905  11.187
 7161TIP3    H142974   1.170   4.985  11.163
 7161TIP3    H242975   1.152   4.835  11.175
 7162TIP3   OH242976   1.318   4.941   6.028
 7162TIP3    H142977   1.348   5.029   6.048
 7162TIP3    H242978   1.224   4.951   6.011
 7163TIP3   OH242979   4.595   3.708  10.807
 7163TIP3    H142980   4.553   3.706  10.893
 7163TIP3    H242981   4.688   3.708  10.826
 7164TIP3   OH242982   6.424   3.708   5.090
 7164TIP3    H142983   6.384   3.768   5.027
 7164TIP3    H242984   6.365   3.632   5.090
 7165TIP3   OH242985   1.539   4.646   4.492
 7165TIP3    H142986   1.454   4.603   4.499
 7165TIP3    H242987   1.528   4.710   4.422
 7166TIP3   OH242988   4.539   4.381   0.155
 7166TIP3    H142989   4.584   4.333   0.085
 7166TIP3    H242990   4.446   4.372   0.135
 7167TIP3   OH242991   4.322   3.782   3.636
 7167TIP3    H142992   4.314   3.863   3.585
 7167TIP3    H242993   4.360   3.811   3.719
 7168TIP3   OH242994   4.554   1.631   2.366
 7168TIP3    H142995   4.542   1.703   2.428
 7168TIP3    H242996   4.518   1.555   2.411
 7169TIP3   OH242997   4.893   6.785  12.311
 7169TIP3    H142998   4.946   6.710  12.336
 7169TIP3    H242999   4.815   6.779  12.367
 7170TIP3   OH243000   3.697   1.256   3.999
 7170TIP3    H143001   3.704   1.351   4.013
 7170TIP3    H243002   3.768   1.219   4.051
 7171TIP3   OH243003   4.498   0.576   2.574
 7171TIP3    H143004   4.466   0.487   2.583
 7171TIP3    H243005   4.470   0.604   2.487
 7172TIP3   OH243006   2.882   5.811  12.999
 7172TIP3    H143007   2.890   5.799  13.094
 7172TIP3    H243008   2.874   5.905  12.987
 7173TIP3   OH243009   3.439   6.190   2.908
 7173TIP3    H143010   3.525   6.232   2.900
 7173TIP3    H243011   3.448   6.109   2.857
 7174TIP3   OH243012   1.860   5.193   1.724
 7174TIP3    H143013   1.811   5.148   1.655
 7174TIP3    H243014   1.901   5.267   1.679
 7175TIP3   OH243015   3.120   2.450  13.555
 7175TIP3    H143016   3.211   2.427  13.536
 7175TIP3    H243017   3.095   2.391  13.627
 7176TIP3   OH243018   6.050   1.635  12.536
 7176TIP3    H143019   5.986   1.699  12.506
 7176TIP3    H243020   6.130   1.686  12.550
 7177TIP3   OH243021   3.963   4.405  15.048
 7177TIP3    H143022   3.964   4.404  15.144
 7177TIP3    H243023   4.039   4.458  15.024
 7178TIP3   OH243024   4.972   0.024   4.644
 7178TIP3    H143025   5.067   0.038   4.641
 7178TIP3    H243026   4.962  -0.069   4.664
 7179TIP3   OH243027   6.135   3.645   4.722
 7179TIP3    H143028   6.046   3.673   4.702
 7179TIP3    H243029   6.166   3.605   4.640
 7180TIP3   OH243030   2.498   4.115   1.879
 7180TIP3    H143031   2.566   4.048   1.878
 7180TIP3    H243032   2.517   4.168   1.956
 7181TIP3   OH243033   2.538   6.271  12.672
 7181TIP3    H143034   2.557   6.177  12.675
 7181TIP3    H243035   2.446   6.278  12.698
 7182TIP3   OH243036   4.975   2.603   5.567
 7182TIP3    H143037   5.034   2.677   5.581
 7182TIP3    H243038   5.000   2.567   5.482
 7183TIP3   OH243039   4.263   1.019  14.469
 7183TIP3    H143040   4.312   1.050  14.393
 7183TIP3    H243041   4.276   0.924  14.468
 7184TIP3   OH243042   2.890   1.071  11.505
 7184TIP3    H143043   2.804   1.106  11.530
 7184TIP3    H243044   2.953   1.127  11.550
 7185TIP3   OH243045   5.132   2.055   2.439
 7185TIP3    H143046   5.123   2.139   2.394
 7185TIP3    H243047   5.224   2.053   2.468
 7186TIP3   OH243048   3.601   0.365   5.658
 7186TIP3    H143049   3.562   0.285   5.623
 7186TIP3    H243050   3.536   0.433   5.640
 7187TIP3   OH243051   5.982   0.985   4.512
 7187TIP3    H143052   5.892   0.978   4.480
 7187TIP3    H243053   6.017   1.063   4.470
 7188TIP3   OH243054   6.111   1.757  15.079
 7188TIP3    H143055   6.140   1.666  15.071
 7188TIP3    H243056   6.191   1.807  15.092
 7189TIP3   OH243057   5.750   3.747  14.588
 7189TIP3    H143058   5.722   3.691  14.516
 7189TIP3    H243059   5.844   3.731  14.595
 7190TIP3   OH243060   3.609   1.423  12.186
 7190TIP3    H143061   3.699   1.393  12.179
 7190TIP3    H243062   3.604   1.499  12.128
 7191TIP3   OH243063   6.572   0.207   0.799
 7191TIP3    H143064   6.494   0.217   0.854
 7191TIP3    H243065   6.634   0.271   0.834
 7192TIP3   OH243066   1.607   4.524   2.492
 7192TIP3    H143067   1.662   4.589   2.536
 7192TIP3    H243068   1.590   4.458   2.559
 7193TIP3   OH243069   1.526   1.492   6.382
 7193TIP3    H143070   1.520   1.587   6.370
 7193TIP3    H243071   1.457   1.471   6.444
 7194TIP3   OH243072   1.678   4.614   0.260
 7194TIP3    H143073   1.679   4.647   0.349
 7194TIP3    H243074   1.763   4.570   0.250
 7195TIP3   OH243075   4.257   5.085  16.464
 7195TIP3    H143076   4.167   5.055  16.471
 7195TIP3    H243077   4.273   5.093  16.370
 7196TIP3   OH243078   4.606   3.052  15.103
 7196TIP3    H143079   4.544   3.111  15.061
 7196TIP3    H243080   4.670   3.111  15.144
 7197TIP3   OH243081   4.866   2.497  16.710
 7197TIP3    H143082   4.861   2.539  16.796
 7197TIP3    H243083   4.948   2.447  16.713
 7198TIP3   OH243084   1.393   4.522  11.238
 7198TIP3    H143085   1.325   4.556  11.296
 7198TIP3    H243086   1.357   4.533  11.150
 7199TIP3   OH243087   1.244   6.594  16.277
 7199TIP3    H143088   1.193   6.633  16.206
 7199TIP3    H243089   1.210   6.635  16.357
 7200TIP3   OH243090   0.459   2.612  10.668
 7200TIP3    H143091   0.489   2.560  10.593
 7200TIP3    H243092   0.366   2.592  10.675
 7201TIP3   OH243093   5.487   2.363   0.514
 7201TIP3    H143094   5.416   2.417   0.479
 7201TIP3    H243095   5.513   2.408   0.595
 7202TIP3   OH243096   1.113   4.751  13.204
 7202TIP3    H143097   1.069   4.713  13.128
 7202TIP3    H243098   1.205   4.730  13.191
 7203TIP3   OH243099   5.383   0.867  14.614
 7203TIP3    H143100   5.415   0.793  14.666
 7203TIP3    H243101   5.336   0.826  14.541
 7204TIP3   OH243102   4.000   0.931  11.967
 7204TIP3    H143103   4.033   1.005  11.915
 7204TIP3    H243104   3.969   0.869  11.901
 7205TIP3   OH243105   3.363   3.177   2.474
 7205TIP3    H143106   3.395   3.249   2.529
 7205TIP3    H243107   3.381   3.098   2.526
 7206TIP3   OH243108   4.752   6.238   2.103
 7206TIP3    H143109   4.783   6.269   2.189
 7206TIP3    H243110   4.825   6.257   2.044
 7207TIP3   OH243111   2.176   6.097  13.620
 7207TIP3    H143112   2.199   6.012  13.658
 7207TIP3    H243113   2.217   6.161  13.677
 7208TIP3   OH243114   2.404   2.705   2.172
 7208TIP3    H143115   2.376   2.644   2.104
 7208TIP3    H243116   2.399   2.791   2.130
 7209TIP3   OH243117   5.871   0.494   0.020
 7209TIP3    H143118   5.885   0.443   0.099
 7209TIP3    H243119   5.957   0.534   0.002
 7210TIP3   OH243120   1.700   4.471  11.748
 7210TIP3    H143121   1.735   4.440  11.665
 7210TIP3    H243122   1.706   4.395  11.806
 7211TIP3   OH243123   4.521   6.127  15.671
 7211TIP3    H143124   4.558   6.042  15.644
 7211TIP3    H243125   4.594   6.188  15.663
 7212TIP3   OH243126   6.237   1.177  16.893
 7212TIP3    H143127   6.212   1.258  16.848
 7212TIP3    H243128   6.188   1.180  16.976
 7213TIP3   OH243129   6.170   5.095   0.219
 7213TIP3    H143130   6.086   5.125   0.254
 7213TIP3    H243131   6.189   5.015   0.269
 7214TIP3   OH243132   4.692   1.779  13.903
 7214TIP3    H143133   4.753   1.732  13.961
 7214TIP3    H243134   4.711   1.872  13.918
 7215TIP3   OH243135   2.160   2.735   5.644
 7215TIP3    H143136   2.170   2.731   5.549
 7215TIP3    H243137   2.237   2.784   5.674
 7216TIP3   OH243138   2.605   6.132   0.802
 7216TIP3    H143139   2.536   6.193   0.777
 7216TIP3    H243140   2.687   6.176   0.778
 7217TIP3   OH243141   0.946   0.461  15.802
 7217TIP3    H143142   0.965   0.425  15.889
 7217TIP3    H243143   1.026   0.445  15.751
 7218TIP3   OH243144   0.531   5.268   0.103
 7218TIP3    H143145   0.578   5.270   0.186
 7218TIP3    H243146   0.501   5.177   0.095
 7219TIP3   OH243147   3.219   0.583  10.427
 7219TIP3    H143148   3.135   0.606  10.466
 7219TIP3    H243149   3.273   0.662  10.436
 7220TIP3   OH243150   2.871   0.564   5.802
 7220TIP3    H143151   2.908   0.555   5.891
 7220TIP3    H243152   2.782   0.595   5.816
 7221TIP3   OH243153   2.154   1.181  14.107
 7221TIP3    H143154   2.237   1.180  14.059
 7221TIP3    H243155   2.126   1.272  14.105
 7222TIP3   OH243156   2.988   0.075  12.072
 7222TIP3    H143157   3.012  -0.014  12.099
 7222TIP3    H243158   3.051   0.132  12.117
 7223TIP3   OH243159   3.694   5.155  15.437
 7223TIP3    H143160   3.755   5.086  15.464
 7223TIP3    H243161   3.653   5.185  15.519
 7224TIP3   OH243162   2.464   5.717   0.915
 7224TIP3    H143163   2.390   5.662   0.942
 7224TIP3    H243164   2.530   5.654   0.886
 7225TIP3   OH243165   2.279   3.708  13.021
 7225TIP3    H143166   2.301   3.786  13.073
 7225TIP3    H243167   2.308   3.635  13.075
 7226TIP3   OH243168   6.139   6.018   0.562
 7226TIP3    H143169   6.095   5.936   0.539
 7226TIP3    H243170   6.126   6.027   0.656
 7227TIP3   OH243171   5.512   5.965   0.168
 7227TIP3    H143172   5.595   5.917   0.160
 7227TIP3    H243173   5.460   5.913   0.229
 7228TIP3   OH243174   2.139   4.496   5.821
 7228TIP3    H143175   2.218   4.464   5.776
 7228TIP3    H243176   2.172   4.563   5.881
 7229TIP3   OH243177   4.753   5.851   4.698
 7229TIP3    H143178   4.672   5.897   4.677
 7229TIP3    H243179   4.733   5.759   4.683
 7230TIP3   OH243180   2.381   5.241  13.775
 7230TIP3    H143181   2.432   5.191  13.712
 7230TIP3    H243182   2.420   5.219  13.860
 7231TIP3   OH243183   2.947   0.906   1.982
 7231TIP3    H143184   3.003   0.904   1.904
 7231TIP3    H243185   2.983   0.978   2.034
 7232TIP3   OH243186   3.093   1.799  12.146
 7232TIP3    H143187   3.030   1.736  12.180
 7232TIP3    H243188   3.178   1.757  12.159
 7233TIP3   OH243189   2.042   4.889  14.415
 7233TIP3    H143190   2.062   4.798  14.434
 7233TIP3    H243191   2.093   4.939  14.478
 7234TIP3   OH243192   0.409   3.588   6.013
 7234TIP3    H143193   0.479   3.541   6.058
 7234TIP3    H243194   0.337   3.591   6.076
 7235TIP3   OH243195   2.430   4.336   2.603
 7235TIP3    H143196   2.420   4.430   2.613
 7235TIP3    H243197   2.362   4.311   2.540
 7236TIP3   OH243198   2.926   3.839   5.118
 7236TIP3    H143199   2.917   3.807   5.208
 7236TIP3    H243200   2.867   3.914   5.113
 7237TIP3   OH243201   5.217   6.254   4.322
 7237TIP3    H143202   5.221   6.273   4.416
 7237TIP3    H243203   5.160   6.322   4.286
 7238TIP3   OH243204   2.050   4.207   0.285
 7238TIP3    H143205   2.052   4.223   0.191
 7238TIP3    H243206   1.974   4.256   0.316
 7239TIP3   OH243207   3.142   3.657  15.820
 7239TIP3    H143208   3.158   3.604  15.742
 7239TIP3    H243209   3.150   3.595  15.893
 7240TIP3   OH243210   3.797   3.715  12.669
 7240TIP3    H143211   3.757   3.710  12.755
 7240TIP3    H243212   3.744   3.778  12.621
 7241TIP3   OH243213   0.340   2.501   1.858
 7241TIP3    H143214   0.387   2.471   1.781
 7241TIP3    H243215   0.348   2.429   1.921
 7242TIP3   OH243216   4.466   6.333   0.504
 7242TIP3    H143217   4.396   6.349   0.567
 7242TIP3    H243218   4.456   6.241   0.479
 7243TIP3   OH243219   2.740   2.372  15.260
 7243TIP3    H143220   2.829   2.338  15.247
 7243TIP3    H243221   2.721   2.422  15.181
 7244TIP3   OH243222   4.866   4.555   4.923
 7244TIP3    H143223   4.949   4.597   4.945
 7244TIP3    H243224   4.802   4.627   4.921
 7245TIP3   OH243225   2.715   4.577  17.171
 7245TIP3    H143226   2.761   4.619  17.243
 7245TIP3    H243227   2.782   4.560  17.105
 7246TIP3   OH243228   4.321   1.081  16.541
 7246TIP3    H143229   4.320   1.015  16.610
 7246TIP3    H243230   4.322   1.030  16.459
 7247TIP3   OH243231   2.459   2.021   2.622
 7247TIP3    H143232   2.472   2.086   2.691
 7247TIP3    H243233   2.377   2.048   2.579
 7248TIP3   OH243234   6.450   3.318  14.506
 7248TIP3    H143235   6.526   3.340  14.559
 7248TIP3    H243236   6.437   3.395  14.449
 7249TIP3   OH243237   1.250   3.020  15.069
 7249TIP3    H143238   1.289   3.108  15.070
 7249TIP3    H243239   1.181   3.025  15.004
 7250TIP3   OH243240   2.260   6.556  13.957
 7250TIP3    H143241   2.266   6.570  14.051
 7250TIP3    H243242   2.193   6.617  13.927
 7251TIP3   OH243243   2.070   1.556  16.052
 7251TIP3    H143244   1.984   1.570  16.013
 7251TIP3    H243245   2.060   1.583  16.144
 7252TIP3   OH243246   2.265   0.877  17.160
 7252TIP3    H143247   2.309   0.958  17.138
 7252TIP3    H243248   2.177   0.886  17.124
 7253TIP3   OH243249   5.075   1.534   0.749
 7253TIP3    H143250   5.128   1.582   0.685
 7253TIP3    H243251   5.030   1.467   0.698
 7254TIP3   OH243252   5.971   1.063  11.085
 7254TIP3    H143253   6.007   1.141  11.044
 7254TIP3    H243254   6.036   0.995  11.067
 7255TIP3   OH243255   2.364   2.318   3.173
 7255TIP3    H143256   2.388   2.310   3.265
 7255TIP3    H243257   2.321   2.235   3.152
 7256TIP3   OH243258   4.897   2.742   2.168
 7256TIP3    H143259   4.959   2.679   2.133
 7256TIP3    H243260   4.825   2.744   2.104
 7257TIP3   OH243261   4.892   3.384   2.596
 7257TIP3    H143262   4.877   3.477   2.577
 7257TIP3    H243263   4.929   3.349   2.515
 7258TIP3   OH243264   2.854   4.201   1.818
 7258TIP3    H143265   2.921   4.216   1.885
 7258TIP3    H243266   2.794   4.274   1.828
 7259TIP3   OH243267   3.765   2.964   3.770
 7259TIP3    H143268   3.849   2.918   3.764
 7259TIP3    H243269   3.779   3.044   3.719
 7260TIP3   OH243270   1.270   4.944   3.402
 7260TIP3    H143271   1.348   4.914   3.354
 7260TIP3    H243272   1.299   4.950   3.493
 7261TIP3   OH243273   3.585   5.687   3.623
 7261TIP3    H143274   3.630   5.620   3.572
 7261TIP3    H243275   3.551   5.640   3.699
 7262TIP3   OH243276   1.566   5.575   3.458
 7262TIP3    H143277   1.516   5.521   3.518
 7262TIP3    H243278   1.657   5.548   3.470
 7263TIP3   OH243279   1.503   0.369  11.961
 7263TIP3    H143280   1.531   0.434  12.025
 7263TIP3    H243281   1.494   0.288  12.011
 7264TIP3   OH243282   4.946   6.500   1.396
 7264TIP3    H143283   4.851   6.488   1.396
 7264TIP3    H243284   4.959   6.589   1.365
 7265TIP3   OH243285   2.369   2.946  14.609
 7265TIP3    H143286   2.455   2.986  14.618
 7265TIP3    H243287   2.375   2.891  14.531
 7266TIP3   OH243288   6.348   6.295  11.540
 7266TIP3    H143289   6.305   6.380  11.529
 7266TIP3    H243290   6.335   6.250  11.457
 7267TIP3   OH243291   3.535   0.022  16.341
 7267TIP3    H143292   3.449   0.038  16.380
 7267TIP3    H243293   3.546  -0.073  16.345
 7268TIP3   OH243294   5.417   5.655   3.973
 7268TIP3    H143295   5.490   5.609   3.931
 7268TIP3    H243296   5.448   5.746   3.981
 7269TIP3   OH243297   0.935   4.874   4.955
 7269TIP3    H143298   1.017   4.895   5.000
 7269TIP3    H243299   0.889   4.815   5.015
 7270TIP3   OH243300   5.073   1.821   1.457
 7270TIP3    H143301   5.153   1.842   1.506
 7270TIP3    H243302   5.104   1.800   1.369
 7271TIP3   OH243303   2.626   4.226   4.513
 7271TIP3    H143304   2.607   4.313   4.548
 7271TIP3    H243305   2.553   4.172   4.542
 7272TIP3   OH243306   4.362   1.723   1.260
 7272TIP3    H143307   4.358   1.757   1.350
 7272TIP3    H243308   4.390   1.797   1.207
 7273TIP3   OH243309   1.601   5.506   1.624
 7273TIP3    H143310   1.692   5.482   1.608
 7273TIP3    H243311   1.567   5.436   1.679
 7274TIP3   OH243312   2.285   4.279   4.414
 7274TIP3    H143313   2.347   4.330   4.467
 7274TIP3    H243314   2.204   4.279   4.466
 7275TIP3   OH243315   4.732   3.141  11.272
 7275TIP3    H143316   4.787   3.118  11.197
 7275TIP3    H243317   4.754   3.078  11.340
 7276TIP3   OH243318   0.190   2.672   5.193
 7276TIP3    H143319   0.253   2.628   5.250
 7276TIP3    H243320   0.122   2.704   5.253
 7277TIP3   OH243321   5.767   5.203  12.583
 7277TIP3    H143322   5.856   5.234  12.564
 7277TIP3    H243323   5.780   5.134  12.648
 7278TIP3   OH243324   5.741   5.170   3.944
 7278TIP3    H143325   5.834   5.172   3.921
 7278TIP3    H243326   5.725   5.080   3.973
 7279TIP3   OH243327   5.266   0.899  16.807
 7279TIP3    H143328   5.204   0.967  16.782
 7279TIP3    H243329   5.343   0.915  16.752
 7280TIP3   OH243330   3.655   2.028  12.525
 7280TIP3    H143331   3.694   2.105  12.483
 7280TIP3    H243332   3.719   2.002  12.591
 7281TIP3   OH243333   5.306   0.529  15.815
 7281TIP3    H143334   5.317   0.589  15.741
 7281TIP3    H243335   5.368   0.458  15.797
 7282TIP3   OH243336   5.055   4.986   4.181
 7282TIP3    H143337   4.972   5.009   4.222
 7282TIP3    H243338   5.084   4.908   4.228
 7283TIP3   OH243339   5.435   5.352  12.909
 7283TIP3    H143340   5.371   5.367  12.839
 7283TIP3    H243341   5.500   5.295  12.870
 7284TIP3   OH243342   1.510   3.804  12.843
 7284TIP3    H143343   1.566   3.729  12.865
 7284TIP3    H243344   1.462   3.823  12.923
 7285TIP3   OH243345   2.529   4.921   5.958
 7285TIP3    H143346   2.502   4.994   5.902
 7285TIP3    H243347   2.612   4.950   5.996
 7286TIP3   OH243348   0.948   1.926   5.529
 7286TIP3    H143349   0.867   1.945   5.577
 7286TIP3    H243350   0.940   1.975   5.447
 7287TIP3   OH243351   1.943   2.004   6.011
 7287TIP3    H143352   2.016   2.064   6.023
 7287TIP3    H243353   1.947   1.947   6.088
 7288TIP3   OH243354   4.454   1.425   2.512
 7288TIP3    H143355   4.372   1.417   2.559
 7288TIP3    H243356   4.521   1.401   2.576
 7289TIP3   OH243357   2.982   6.259  11.571
 7289TIP3    H143358   2.923   6.332  11.552
 7289TIP3    H243359   2.923   6.186  11.592
 7290TIP3   OH243360   6.507   4.122   6.064
 7290TIP3    H143361   6.479   4.052   6.123
 7290TIP3    H243362   6.502   4.084   5.977
 7291TIP3   OH243363   6.738   0.397   0.907
 7291TIP3    H143364   6.819   0.437   0.873
 7291TIP3    H243365   6.705   0.460   0.970
 7292TIP3   OH243366   2.081   2.563  15.636
 7292TIP3    H143367   2.066   2.477  15.675
 7292TIP3    H243368   2.044   2.624  15.700
 7293TIP3   OH243369   0.955   2.029  14.808
 7293TIP3    H143370   1.040   2.063  14.782
 7293TIP3    H243371   0.898   2.107  14.811
 7294TIP3   OH243372   0.524   3.516  13.809
 7294TIP3    H143373   0.488   3.583  13.751
 7294TIP3    H243374   0.541   3.440  13.752
 7295TIP3   OH243375   6.321   6.327   6.155
 7295TIP3    H143376   6.401   6.375   6.131
 7295TIP3    H243377   6.353   6.250   6.202
 7296TIP3   OH243378   4.350   1.267   0.962
 7296TIP3    H143379   4.354   1.362   0.961
 7296TIP3    H243380   4.256   1.247   0.959
 7297TIP3   OH243381   4.289   4.080   1.477
 7297TIP3    H143382   4.326   4.080   1.565
 7297TIP3    H243383   4.360   4.110   1.420
 7298TIP3   OH243384   4.066   2.133  12.686
 7298TIP3    H143385   4.114   2.196  12.634
 7298TIP3    H243386   4.071   2.166  12.776
 7299TIP3   OH243387   5.435   5.526  15.759
 7299TIP3    H143388   5.359   5.580  15.739
 7299TIP3    H243389   5.483   5.575  15.826
 7300TIP3   OH243390   5.598   0.598   4.271
 7300TIP3    H143391   5.561   0.607   4.359
 7300TIP3    H243392   5.528   0.627   4.213
 7301TIP3   OH243393   4.906   1.082   1.294
 7301TIP3    H143394   4.836   1.143   1.316
 7301TIP3    H243395   4.977   1.104   1.354
 7302TIP3   OH243396   3.757   6.526  10.810
 7302TIP3    H143397   3.796   6.601  10.855
 7302TIP3    H243398   3.669   6.555  10.788
 7303TIP3   OH243399   4.878   3.108   5.070
 7303TIP3    H143400   4.906   3.199   5.060
 7303TIP3    H243401   4.789   3.115   5.105
 7304TIP3   OH243402   0.065   3.015  12.696
 7304TIP3    H143403   0.002   2.984  12.631
 7304TIP3    H243404   0.149   2.984  12.663
 7305TIP3   OH243405   6.566   2.029  14.949
 7305TIP3    H143406   6.579   2.029  14.855
 7305TIP3    H243407   6.565   2.122  14.974
 7306TIP3   OH243408   3.459   4.585   4.718
 7306TIP3    H143409   3.443   4.672   4.754
 7306TIP3    H243410   3.505   4.602   4.636
 7307TIP3   OH243411   2.623   2.101  12.513
 7307TIP3    H143412   2.595   2.028  12.568
 7307TIP3    H243413   2.545   2.154  12.502
 7308TIP3   OH243414   4.394   0.565  12.710
 7308TIP3    H143415   4.450   0.523  12.775
 7308TIP3    H243416   4.448   0.636  12.675
 7309TIP3   OH243417   0.618   1.014  15.726
 7309TIP3    H143418   0.689   1.042  15.784
 7309TIP3    H243419   0.661   0.963  15.657
 7310TIP3   OH243420   6.197   3.194   4.524
 7310TIP3    H143421   6.184   3.171   4.432
 7310TIP3    H243422   6.292   3.189   4.536
 7311TIP3   OH243423   1.058   1.147  13.241
 7311TIP3    H143424   0.970   1.118  13.264
 7311TIP3    H243425   1.063   1.136  13.146
 7312TIP3   OH243426   1.258   6.272   4.628
 7312TIP3    H143427   1.191   6.340   4.619
 7312TIP3    H243428   1.316   6.286   4.553
 7313TIP3   OH243429   3.708   0.202  12.556
 7313TIP3    H143430   3.671   0.114  12.553
 7313TIP3    H243431   3.760   0.209  12.476
 7314TIP3   OH243432   0.257   6.474  17.187
 7314TIP3    H143433   0.230   6.494  17.098
 7314TIP3    H243434   0.326   6.409  17.178
 7315TIP3   OH243435   4.531   3.327  17.180
 7315TIP3    H143436   4.494   3.326  17.092
 7315TIP3    H243437   4.616   3.284  17.171
 7316TIP3   OH243438   4.458   6.457  17.184
 7316TIP3    H143439   4.444   6.529  17.122
 7316TIP3    H243440   4.515   6.495  17.252
 7317TIP3   OH243441   0.811   4.678   5.494
 7317TIP3    H143442   0.817   4.706   5.585
 7317TIP3    H243443   0.848   4.589   5.494
 7318TIP3   OH243444   3.477   0.633  14.995
 7318TIP3    H143445   3.531   0.625  15.074
 7318TIP3    H243446   3.521   0.579  14.930
 7319TIP3   OH243447   6.381   1.600  13.716
 7319TIP3    H143448   6.455   1.589  13.657
 7319TIP3    H243449   6.410   1.664  13.781
 7320TIP3   OH243450   1.124   4.925  12.101
 7320TIP3    H143451   1.084   5.004  12.136
 7320TIP3    H243452   1.104   4.857  12.166
 7321TIP3   OH243453   0.662   6.432   2.812
 7321TIP3    H143454   0.575   6.460   2.783
 7321TIP3    H243455   0.678   6.351   2.763
 7322TIP3   OH243456   0.057   5.405  16.543
 7322TIP3    H143457   0.140   5.378  16.582
 7322TIP3    H243458   0.008   5.443  16.615
 7323TIP3   OH243459   2.347   2.793  11.639
 7323TIP3    H143460   2.328   2.878  11.599
 7323TIP3    H243461   2.274   2.778  11.699
 7324TIP3   OH243462   4.787   6.336  12.633
 7324TIP3    H143463   4.718   6.298  12.687
 7324TIP3    H243464   4.741   6.398  12.576
 7325TIP3   OH243465   1.701   0.477   4.675
 7325TIP3    H143466   1.607   0.490   4.660
 7325TIP3    H243467   1.708   0.386   4.705
 7326TIP3   OH243468   6.353   1.963   2.379
 7326TIP3    H143469   6.392   1.926   2.459
 7326TIP3    H243470   6.298   2.034   2.409
 7327TIP3   OH243471   1.753   3.899   3.022
 7327TIP3    H143472   1.690   3.932   2.959
 7327TIP3    H243473   1.789   3.820   2.982
 7328TIP3   OH243474   4.110   0.343   1.830
 7328TIP3    H143475   4.151   0.318   1.747
 7328TIP3    H243476   4.084   0.259   1.869
 7329TIP3   OH243477   2.388   4.860  15.638
 7329TIP3    H143478   2.294   4.844  15.633
 7329TIP3    H243479   2.414   4.878  15.548
 7330TIP3   OH243480   4.446   0.728   3.676
 7330TIP3    H143481   4.410   0.814   3.653
 7330TIP3    H243482   4.505   0.745   3.749
 7331TIP3   OH243483   5.255   5.522   4.169
 7331TIP3    H143484   5.337   5.525   4.119
 7331TIP3    H243485   5.215   5.438   4.145
 7332TIP3   OH243486   4.822   4.961   3.301
 7332TIP3    H143487   4.845   5.042   3.255
 7332TIP3    H243488   4.754   4.921   3.247
 7333TIP3   OH243489   5.759   6.521   0.707
 7333TIP3    H143490   5.767   6.522   0.611
 7333TIP3    H243491   5.777   6.431   0.732
 7334TIP3   OH243492   4.407   1.373  13.649
 7334TIP3    H143493   4.467   1.412  13.712
 7334TIP3    H243494   4.461   1.312  13.598
 7335TIP3   OH243495   2.329   4.341   5.239
 7335TIP3    H143496   2.397   4.403   5.213
 7335TIP3    H243497   2.373   4.279   5.297
 7336TIP3   OH243498   3.434   1.172   3.751
 7336TIP3    H143499   3.348   1.190   3.788
 7336TIP3    H243500   3.478   1.258   3.751
 7337TIP3   OH243501   5.776   3.172   3.711
 7337TIP3    H143502   5.739   3.236   3.771
 7337TIP3    H243503   5.832   3.224   3.652
 7338TIP3   OH243504   1.620   5.658   6.015
 7338TIP3    H143505   1.572   5.707   5.948
 7338TIP3    H243506   1.557   5.594   6.048
 7339TIP3   OH243507   4.494   3.147  11.744
 7339TIP3    H143508   4.439   3.140  11.665
 7339TIP3    H243509   4.467   3.072  11.798
 7340TIP3   OH243510   5.360   0.239  16.273
 7340TIP3    H143511   5.409   0.271  16.349
 7340TIP3    H243512   5.326   0.318  16.231
 7341TIP3   OH243513   2.672   6.591   4.289
 7341TIP3    H143514   2.628   6.603   4.205
 7341TIP3    H243515   2.601   6.577   4.352
 7342TIP3   OH243516   6.674   4.634  14.499
 7342TIP3    H143517   6.692   4.550  14.458
 7342TIP3    H243518   6.708   4.625  14.588
 7343TIP3   OH243519   2.781   5.159  12.121
 7343TIP3    H143520   2.780   5.252  12.145
 7343TIP3    H243521   2.870   5.143  12.089
 7344TIP3   OH243522   4.409   0.344   0.999
 7344TIP3    H143523   4.348   0.285   1.042
 7344TIP3    H243524   4.407   0.424   1.052
 7345TIP3   OH243525   6.009   2.041   0.442
 7345TIP3    H143526   6.002   1.980   0.515
 7345TIP3    H243527   5.922   2.042   0.403
 7346TIP3   OH243528   1.555   3.311   2.944
 7346TIP3    H143529   1.513   3.369   2.881
 7346TIP3    H243530   1.571   3.230   2.895
 7347TIP3   OH243531   2.490   5.276  16.764
 7347TIP3    H143532   2.457   5.192  16.734
 7347TIP3    H243533   2.433   5.300  16.837
 7348TIP3   OH243534   5.084   2.720  12.704
 7348TIP3    H143535   5.056   2.634  12.736
 7348TIP3    H243536   5.179   2.715  12.704
 7349TIP3   OH243537   1.871   0.194   0.864
 7349TIP3    H143538   1.805   0.260   0.843
 7349TIP3    H243539   1.836   0.150   0.942
 7350TIP3   OH243540   3.366   4.052  15.182
 7350TIP3    H143541   3.317   4.133  15.201
 7350TIP3    H243542   3.381   4.055  15.088
 7351TIP3   OH243543   1.842   6.374   4.224
 7351TIP3    H143544   1.899   6.445   4.253
 7351TIP3    H243545   1.820   6.326   4.304
 7352TIP3   OH243546   6.784   3.726   3.557
 7352TIP3    H143547   6.875   3.715   3.585
 7352TIP3    H243548   6.774   3.820   3.543
 7353TIP3   OH243549   4.925   5.791   1.520
 7353TIP3    H143550   4.849   5.792   1.578
 7353TIP3    H243551   4.894   5.832   1.439
 7354TIP3   OH243552   2.502   0.360   2.992
 7354TIP3    H143553   2.597   0.366   3.005
 7354TIP3    H243554   2.489   0.384   2.900
 7355TIP3   OH243555   2.918   2.185  12.968
 7355TIP3    H143556   3.003   2.147  12.989
 7355TIP3    H243557   2.935   2.242  12.893
 7356TIP3   OH243558   0.336   4.424  12.744
 7356TIP3    H143559   0.410   4.456  12.692
 7356TIP3    H243560   0.369   4.420  12.833
 7357TIP3   OH243561   1.612   3.163  14.948
 7357TIP3    H143562   1.531   3.172  14.998
 7357TIP3    H243563   1.597   3.211  14.867
 7358TIP3   OH243564   2.846   3.166  13.760
 7358TIP3    H143565   2.860   3.112  13.682
 7358TIP3    H243566   2.767   3.217  13.740
 7359TIP3   OH243567   1.301   1.243   2.373
 7359TIP3    H143568   1.266   1.254   2.285
 7359TIP3    H243569   1.317   1.332   2.404
 7360TIP3   OH243570   4.349   0.850   0.473
 7360TIP3    H143571   4.420   0.805   0.519
 7360TIP3    H243572   4.307   0.782   0.420
 7361TIP3   OH243573   3.125   0.907  15.213
 7361TIP3    H143574   3.090   0.818  15.214
 7361TIP3    H243575   3.118   0.935  15.121
 7362TIP3   OH243576   6.491   3.692   6.094
 7362TIP3    H143577   6.555   3.660   6.158
 7362TIP3    H243578   6.439   3.756   6.143
 7363TIP3   OH243579   4.143   2.105  14.202
 7363TIP3    H143580   4.194   2.097  14.122
 7363TIP3    H243581   4.130   2.015  14.231
 7364TIP3   OH243582   1.776   0.214   4.626
 7364TIP3    H143583   1.765   0.243   4.535
 7364TIP3    H243584   1.722   0.136   4.632
 7365TIP3   OH243585   0.406   6.143  11.892
 7365TIP3    H143586   0.326   6.092  11.882
 7365TIP3    H243587   0.399   6.212  11.826
 7366TIP3   OH243588   2.411   4.828  15.353
 7366TIP3    H143589   2.327   4.818  15.308
 7366TIP3    H243590   2.447   4.739  15.356
 7367TIP3   OH243591   0.438   0.088  12.579
 7367TIP3    H143592   0.473   0.001  12.602
 7367TIP3    H243593   0.511   0.148  12.596
 7368TIP3   OH243594   4.116   2.560  14.499
 7368TIP3    H143595   4.171   2.633  14.472
 7368TIP3    H243596   4.176   2.486  14.507
 7369TIP3   OH243597   4.295   6.577  16.375
 7369TIP3    H143598   4.225   6.532  16.422
 7369TIP3    H243599   4.303   6.529  16.293
 7370TIP3   OH243600   3.541   6.094  13.948
 7370TIP3    H143601   3.614   6.154  13.933
 7370TIP3    H243602   3.578   6.007  13.933
 7371TIP3   OH243603   2.422   0.638   1.794
 7371TIP3    H143604   2.363   0.635   1.870
 7371TIP3    H243605   2.506   0.668   1.830
 7372TIP3   OH243606   1.937   6.453  16.115
 7372TIP3    H143607   2.014   6.433  16.169
 7372TIP3    H243608   1.952   6.542  16.084
 7373TIP3   OH243609   0.656   1.935  14.859
 7373TIP3    H143610   0.740   1.945  14.815
 7373TIP3    H243611   0.635   2.022  14.892
 7374TIP3   OH243612   1.593   1.303  13.220
 7374TIP3    H143613   1.600   1.377  13.159
 7374TIP3    H243614   1.510   1.261  13.197
 7375TIP3   OH243615   1.842   4.828  15.488
 7375TIP3    H143616   1.792   4.845  15.568
 7375TIP3    H243617   1.901   4.903  15.480
 7376TIP3   OH243618   5.605   6.606  12.788
 7376TIP3    H143619   5.636   6.694  12.766
 7376TIP3    H243620   5.625   6.553  12.711
 7377TIP3   OH243621   6.345   2.662   6.098
 7377TIP3    H143622   6.263   2.712   6.105
 7377TIP3    H243623   6.405   2.706   6.158
 7378TIP3   OH243624   3.875   0.512   2.659
 7378TIP3    H143625   3.871   0.526   2.564
 7378TIP3    H243626   3.802   0.563   2.694
 7379TIP3   OH243627   6.173   0.442  17.034
 7379TIP3    H143628   6.088   0.476  17.007
 7379TIP3    H243629   6.228   0.448  16.955
 7380TIP3   OH243630   5.339   3.445  15.883
 7380TIP3    H143631   5.407   3.512  15.891
 7380TIP3    H243632   5.257   3.493  15.894
 7381TIP3   OH243633   0.362   3.163   0.381
 7381TIP3    H143634   0.332   3.077   0.411
 7381TIP3    H243635   0.457   3.161   0.394
 7382TIP3   OH243636   6.335   5.707  14.199
 7382TIP3    H143637   6.410   5.747  14.245
 7382TIP3    H243638   6.314   5.629  14.249
 7383TIP3   OH243639   1.724   0.492   0.977
 7383TIP3    H143640   1.685   0.578   0.991
 7383TIP3    H243641   1.818   0.509   0.972
 7384TIP3   OH243642   2.083   6.314   1.442
 7384TIP3    H143643   2.088   6.238   1.384
 7384TIP3    H243644   1.994   6.312   1.476
 7385TIP3   OH243645   6.276   4.291  13.914
 7385TIP3    H143646   6.216   4.256  13.848
 7385TIP3    H243647   6.260   4.385  13.914
 7386TIP3   OH243648   6.705   2.906   4.456
 7386TIP3    H143649   6.612   2.890   4.441
 7386TIP3    H243650   6.732   2.834   4.514
 7387TIP3   OH243651   2.966   6.314   1.787
 7387TIP3    H143652   2.875   6.320   1.757
 7387TIP3    H243653   2.986   6.401   1.820
 7388TIP3   OH243654   2.018   5.065  13.939
 7388TIP3    H143655   1.924   5.084  13.942
 7388TIP3    H243656   2.026   4.994  13.875
 7389TIP3   OH243657   1.940   3.676   0.781
 7389TIP3    H143658   1.928   3.676   0.876
 7389TIP3    H243659   1.961   3.767   0.760
 7390TIP3   OH243660   6.401   1.463  12.906
 7390TIP3    H143661   6.342   1.419  12.844
 7390TIP3    H243662   6.385   1.419  12.989
 7391TIP3   OH243663   5.050   4.209  14.096
 7391TIP3    H143664   5.039   4.268  14.171
 7391TIP3    H243665   5.132   4.163  14.114
 7392TIP3   OH243666   0.793   3.560   0.316
 7392TIP3    H143667   0.885   3.586   0.312
 7392TIP3    H243668   0.775   3.517   0.233
 7393TIP3   OH243669   0.036   1.799  15.512
 7393TIP3    H143670   0.113   1.760  15.472
 7393TIP3    H243671   0.015   1.874  15.456
 7394TIP3   OH243672   3.531   3.018  14.611
 7394TIP3    H143673   3.624   3.041  14.615
 7394TIP3    H243674   3.521   2.951  14.679
 7395TIP3   OH243675   4.969   5.635  11.739
 7395TIP3    H143676   5.000   5.556  11.696
 7395TIP3    H243677   4.873   5.629  11.733
 7396TIP3   OH243678   0.099   4.252  12.529
 7396TIP3    H143679   0.094   4.245  12.434
 7396TIP3    H243680   0.014   4.290  12.555
 7397TIP3   OH243681   4.370   3.423   0.430
 7397TIP3    H143682   4.364   3.470   0.347
 7397TIP3    H243683   4.461   3.432   0.456
 7398TIP3   OH243684   5.587   2.464  16.244
 7398TIP3    H143685   5.572   2.536  16.183
 7398TIP3    H243686   5.579   2.385  16.191
 7399TIP3   OH243687   4.164   1.449  11.852
 7399TIP3    H143688   4.198   1.414  11.769
 7399TIP3    H243689   4.186   1.382  11.917
 7400TIP3   OH243690   1.574   0.555   3.743
 7400TIP3    H143691   1.642   0.575   3.807
 7400TIP3    H243692   1.542   0.469   3.768
 7401TIP3   OH243693   3.108   0.276   3.462
 7401TIP3    H143694   3.113   0.282   3.366
 7401TIP3    H243695   3.078   0.187   3.478
 7402TIP3   OH243696   6.068   2.193   4.930
 7402TIP3    H143697   6.143   2.155   4.977
 7402TIP3    H243698   6.085   2.287   4.929
 7403TIP3   OH243699   0.376   1.551  13.412
 7403TIP3    H143700   0.348   1.642  13.403
 7403TIP3    H243701   0.312   1.501  13.362
 7404TIP3   OH243702   6.629   5.665  13.701
 7404TIP3    H143703   6.544   5.655  13.659
 7404TIP3    H243704   6.631   5.596  13.768
 7405TIP3   OH243705   4.332   2.994   1.681
 7405TIP3    H143706   4.298   3.082   1.698
 7405TIP3    H243707   4.393   3.006   1.609
 7406TIP3   OH243708   3.016   6.169   5.113
 7406TIP3    H143709   2.981   6.257   5.131
 7406TIP3    H243710   3.077   6.153   5.185
 7407TIP3   OH243711   5.508   1.978  11.909
 7407TIP3    H143712   5.431   2.008  11.957
 7407TIP3    H243713   5.473   1.927  11.836
 7408TIP3   OH243714   4.472   0.472   0.105
 7408TIP3    H143715   4.497   0.381   0.088
 7408TIP3    H243716   4.476   0.514   0.019
 7409TIP3   OH243717   1.366   1.563   1.013
 7409TIP3    H143718   1.429   1.623   1.051
 7409TIP3    H243719   1.413   1.520   0.941
 7410TIP3   OH243720   0.978   6.245   3.890
 7410TIP3    H143721   1.057   6.192   3.902
 7410TIP3    H243722   0.966   6.249   3.795
 7411TIP3   OH243723   1.170   4.002  12.954
 7411TIP3    H143724   1.249   3.957  12.984
 7411TIP3    H243725   1.099   3.965  13.007
 7412TIP3   OH243726   1.518   3.165   3.240
 7412TIP3    H143727   1.541   3.075   3.264
 7412TIP3    H243728   1.522   3.166   3.145
 7413TIP3   OH243729   0.783   5.486  13.221
 7413TIP3    H143730   0.689   5.504  13.217
 7413TIP3    H243731   0.813   5.490  13.131
 7414TIP3   OH243732   2.961   6.598   1.870
 7414TIP3    H143733   3.026   6.662   1.843
 7414TIP3    H243734   2.939   6.623   1.960
 7415TIP3   OH243735   6.029   4.506   0.978
 7415TIP3    H143736   6.021   4.537   1.069
 7415TIP3    H243737   6.097   4.562   0.940
 7416TIP3   OH243738   3.259   2.026  16.720
 7416TIP3    H143739   3.166   2.025  16.697
 7416TIP3    H243740   3.290   1.938  16.697
 7417TIP3   OH243741   1.613   1.013  15.922
 7417TIP3    H143742   1.571   0.966  15.851
 7417TIP3    H243743   1.565   1.096  15.929
 7418TIP3   OH243744   4.416   1.242   1.711
 7418TIP3    H143745   4.385   1.201   1.792
 7418TIP3    H243746   4.463   1.173   1.665
 7419TIP3   OH243747   2.131   0.501  12.255
 7419TIP3    H143748   2.205   0.561  12.268
 7419TIP3    H243749   2.104   0.477  12.344
 7420TIP3   OH243750   0.780   3.663  15.829
 7420TIP3    H143751   0.733   3.667  15.746
 7420TIP3    H243752   0.799   3.754  15.851
 7421TIP3   OH243753   1.300   1.304  12.204
 7421TIP3    H143754   1.344   1.322  12.121
 7421TIP3    H243755   1.207   1.304  12.182
 7422TIP3   OH243756   1.984   6.542  15.671
 7422TIP3    H143757   1.999   6.450  15.649
 7422TIP3    H243758   2.025   6.554  15.756
 7423TIP3   OH243759   0.124   6.063  13.036
 7423TIP3    H143760   0.198   6.114  13.068
 7423TIP3    H243761   0.067   6.128  12.993
 7424TIP3   OH243762   1.638   1.730  11.684
 7424TIP3    H143763   1.706   1.678  11.726
 7424TIP3    H243764   1.572   1.744  11.752
 7425TIP3   OH243765   0.373   6.575   0.329
 7425TIP3    H143766   0.300   6.632   0.352
 7425TIP3    H243767   0.451   6.626   0.351
 7426TIP3   OH243768   6.004   4.720  11.471
 7426TIP3    H143769   5.958   4.777  11.410
 7426TIP3    H243770   6.082   4.770  11.496
 7427TIP3   OH243771   1.145   5.444   1.592
 7427TIP3    H143772   1.066   5.449   1.646
 7427TIP3    H243773   1.129   5.368   1.535
 7428TIP3   OH243774   4.451   0.985  13.748
 7428TIP3    H143775   4.541   0.998  13.780
 7428TIP3    H243776   4.420   0.907  13.796
 7429TIP3   OH243777   2.619   4.905   3.702
 7429TIP3    H143778   2.566   4.848   3.647
 7429TIP3    H243779   2.629   4.857   3.784
 7430TIP3   OH243780   0.284   5.253   2.794
 7430TIP3    H143781   0.223   5.281   2.725
 7430TIP3    H243782   0.266   5.160   2.805
 7431TIP3   OH243783   4.467   4.358   2.100
 7431TIP3    H143784   4.481   4.444   2.138
 7431TIP3    H243785   4.376   4.337   2.120
 7432TIP3   OH243786   5.373   0.464  12.363
 7432TIP3    H143787   5.305   0.497  12.305
 7432TIP3    H243788   5.431   0.414  12.306
 7433TIP3   OH243789   4.776   6.530  13.902
 7433TIP3    H143790   4.774   6.463  13.971
 7433TIP3    H243791   4.703   6.508  13.844
 7434TIP3   OH243792   2.702   4.599  14.466
 7434TIP3    H143793   2.696   4.504  14.451
 7434TIP3    H243794   2.640   4.616  14.537
 7435TIP3   OH243795   1.999   1.493   3.594
 7435TIP3    H143796   2.069   1.496   3.658
 7435TIP3    H243797   2.043   1.497   3.509
 7436TIP3   OH243798   3.709   2.018   5.621
 7436TIP3    H143799   3.648   2.091   5.633
 7436TIP3    H243800   3.671   1.947   5.673
 7437TIP3   OH243801   4.819   1.708   4.941
 7437TIP3    H143802   4.859   1.656   4.871
 7437TIP3    H243803   4.769   1.775   4.895
 7438TIP3   OH243804   1.268   1.121   1.397
 7438TIP3    H143805   1.216   1.147   1.321
 7438TIP3    H243806   1.222   1.046   1.433
 7439TIP3   OH243807   6.167   2.411  14.664
 7439TIP3    H143808   6.204   2.364  14.739
 7439TIP3    H243809   6.200   2.500  14.673
 7440TIP3   OH243810   4.008   1.443   0.610
 7440TIP3    H143811   4.074   1.374   0.611
 7440TIP3    H243812   4.059   1.524   0.602
 7441TIP3   OH243813   2.801   0.835  16.850
 7441TIP3    H143814   2.743   0.826  16.774
 7441TIP3    H243815   2.742   0.846  16.924
 7442TIP3   OH243816   4.416   3.959  16.080
 7442TIP3    H143817   4.477   3.895  16.117
 7442TIP3    H243818   4.395   3.925  15.993
 7443TIP3   OH243819   1.848   6.698  15.463
 7443TIP3    H143820   1.860   6.661  15.551
 7443TIP3    H243821   1.911   6.769  15.459
 7444TIP3   OH243822   0.867   3.215  10.831
 7444TIP3    H143823   0.894   3.149  10.767
 7444TIP3    H243824   0.804   3.270  10.784
 7445TIP3   OH243825   6.502   0.237   6.786
 7445TIP3    H143826   6.410   0.262   6.796
 7445TIP3    H243827   6.512   0.161   6.843
 7446TIP3   OH243828   4.650   4.912   5.600
 7446TIP3    H143829   4.730   4.909   5.653
 7446TIP3    H243830   4.579   4.913   5.665
 7447TIP3   OH243831   5.546   6.800   0.094
 7447TIP3    H143832   5.461   6.772   0.129
 7447TIP3    H243833   5.566   6.881   0.141
 7448TIP3   OH243834   3.557   2.990  11.074
 7448TIP3    H143835   3.520   2.979  10.987
 7448TIP3    H243836   3.481   2.991  11.133
 7449TIP3   OH243837   2.244   5.889   2.930
 7449TIP3    H143838   2.247   5.833   3.007
 7449TIP3    H243839   2.152   5.889   2.904
 7450TIP3   OH243840   1.457   3.748   2.219
 7450TIP3    H143841   1.499   3.825   2.181
 7450TIP3    H243842   1.434   3.775   2.308
 7451TIP3   OH243843   3.384   3.156   3.015
 7451TIP3    H143844   3.330   3.158   2.936
 7451TIP3    H243845   3.397   3.062   3.032
 7452TIP3   OH243846   6.508   5.702  13.225
 7452TIP3    H143847   6.581   5.669  13.173
 7452TIP3    H243848   6.538   5.787  13.257
 7453TIP3   OH243849   2.024   5.354   0.963
 7453TIP3    H143850   1.956   5.297   0.999
 7453TIP3    H243851   2.068   5.390   1.040
 7454TIP3   OH243852   2.598   2.917  11.954
 7454TIP3    H143853   2.631   2.827  11.960
 7454TIP3    H243854   2.608   2.940  11.862
 7455TIP3   OH243855   0.850   5.554  16.176
 7455TIP3    H143856   0.819   5.625  16.231
 7455TIP3    H243857   0.789   5.553  16.102
 7456TIP3   OH243858   0.717   2.194   4.239
 7456TIP3    H143859   0.745   2.283   4.218
 7456TIP3    H243860   0.766   2.139   4.177
 7457TIP3   OH243861   6.737   2.317   4.346
 7457TIP3    H143862   6.758   2.283   4.259
 7457TIP3    H243863   6.820   2.348   4.380
 7458TIP3   OH243864   1.458   4.063  12.489
 7458TIP3    H143865   1.389   4.024  12.543
 7458TIP3    H243866   1.538   4.021  12.519
 7459TIP3   OH243867   4.279   5.321  13.673
 7459TIP3    H143868   4.238   5.376  13.740
 7459TIP3    H243869   4.212   5.256  13.650
 7460TIP3   OH243870   4.339   1.869   0.063
 7460TIP3    H143871   4.288   1.789   0.077
 7460TIP3    H243872   4.378   1.857  -0.024
 7461TIP3   OH243873   5.691   5.838   0.500
 7461TIP3    H143874   5.778   5.799   0.510
 7461TIP3    H243875   5.631   5.763   0.500
 7462TIP3   OH243876   5.705   2.949   3.390
 7462TIP3    H143877   5.744   2.962   3.304
 7462TIP3    H243878   5.737   2.864   3.419
 7463TIP3   OH243879   4.881   1.920   0.012
 7463TIP3    H143880   4.968   1.895   0.043
 7463TIP3    H243881   4.880   2.015   0.014
 7464TIP3   OH243882   1.436   4.537  11.855
 7464TIP3    H143883   1.373   4.510  11.789
 7464TIP3    H243884   1.519   4.502  11.824
 7465TIP3   OH243885   2.045   3.909  14.103
 7465TIP3    H143886   2.049   3.935  14.196
 7465TIP3    H243887   1.956   3.929  14.077
 7466TIP3   OH243888   3.699   3.362   5.608
 7466TIP3    H143889   3.617   3.313   5.611
 7466TIP3    H243890   3.714   3.379   5.515
 7467TIP3   OH243891   1.395   3.979   4.413
 7467TIP3    H143892   1.458   4.045   4.387
 7467TIP3    H243893   1.343   4.020   4.482
 7468TIP3   OH243894   5.626   1.318   3.794
 7468TIP3    H143895   5.692   1.253   3.772
 7468TIP3    H243896   5.616   1.311   3.889
 7469TIP3   OH243897   5.624   5.860  13.759
 7469TIP3    H143898   5.572   5.938  13.779
 7469TIP3    H243899   5.715   5.891  13.760
 7470TIP3   OH243900   2.552   6.595   2.473
 7470TIP3    H143901   2.616   6.540   2.518
 7470TIP3    H243902   2.574   6.684   2.498
 7471TIP3   OH243903   1.927   1.954   0.739
 7471TIP3    H143904   1.984   1.880   0.718
 7471TIP3    H243905   1.965   1.991   0.819
 7472TIP3   OH243906   5.383   5.805   4.252
 7472TIP3    H143907   5.393   5.718   4.215
 7472TIP3    H243908   5.452   5.857   4.209
 7473TIP3   OH243909   5.565   4.689   5.089
 7473TIP3    H143910   5.523   4.672   5.005
 7473TIP3    H243911   5.555   4.607   5.138
 7474TIP3   OH243912   2.943   0.262   5.051
 7474TIP3    H143913   2.901   0.331   4.999
 7474TIP3    H243914   3.001   0.218   4.989
 7475TIP3   OH243915   2.568   3.677   4.915
 7475TIP3    H143916   2.625   3.601   4.905
 7475TIP3    H243917   2.626   3.752   4.903
 7476TIP3   OH243918   2.572   3.692  13.235
 7476TIP3    H143919   2.656   3.663  13.271
 7476TIP3    H243920   2.521   3.612  13.226
 7477TIP3   OH243921   1.722   1.017   3.757
 7477TIP3    H143922   1.672   0.937   3.742
 7477TIP3    H243923   1.779   1.024   3.681
 7478TIP3   OH243924   2.999   0.781   4.732
 7478TIP3    H143925   2.949   0.862   4.737
 7478TIP3    H243926   3.075   0.796   4.789
 7479TIP3   OH243927   4.341   6.228   1.761
 7479TIP3    H143928   4.339   6.169   1.836
 7479TIP3    H243929   4.434   6.236   1.740
 7480TIP3   OH243930   0.765   2.094   3.032
 7480TIP3    H143931   0.787   2.063   2.944
 7480TIP3    H243932   0.847   2.133   3.064
 7481TIP3   OH243933   5.735   3.782   3.869
 7481TIP3    H143934   5.730   3.851   3.802
 7481TIP3    H243935   5.748   3.701   3.820
 7482TIP3   OH243936   3.167   0.434  11.233
 7482TIP3    H143937   3.198   0.452  11.144
 7482TIP3    H243938   3.182   0.340  11.245
 7483TIP3   OH243939   5.533   3.067  14.857
 7483TIP3    H143940   5.577   3.055  14.941
 7483TIP3    H243941   5.498   2.980  14.835
 7484TIP3   OH243942   0.374   5.498  13.284
 7484TIP3    H143943   0.369   5.412  13.242
 7484TIP3    H243944   0.347   5.481  13.375
 7485TIP3   OH243945   6.668   4.033   6.791
 7485TIP3    H143946   6.668   3.948   6.746
 7485TIP3    H243947   6.703   4.095   6.727
 7486TIP3   OH243948   1.329   3.591   4.194
 7486TIP3    H143949   1.390   3.520   4.173
 7486TIP3    H243950   1.340   3.605   4.288
 7487TIP3   OH243951   4.921   0.462  11.255
 7487TIP3    H143952   4.898   0.448  11.347
 7487TIP3    H243953   5.013   0.437  11.249
 7488TIP3   OH243954   3.961   6.386  12.687
 7488TIP3    H143955   3.929   6.467  12.647
 7488TIP3    H243956   4.027   6.353  12.626
 7489TIP3   OH243957   4.566   1.951  16.748
 7489TIP3    H143958   4.553   1.964  16.654
 7489TIP3    H243959   4.478   1.940  16.783
 7490TIP3   OH243960   3.028   3.553   2.966
 7490TIP3    H143961   2.984   3.623   3.014
 7490TIP3    H243962   3.098   3.524   3.025
 7491TIP3   OH243963   0.872   3.373   4.576
 7491TIP3    H143964   0.842   3.464   4.588
 7491TIP3    H243965   0.927   3.355   4.652
 7492TIP3   OH243966   1.032   5.158  16.257
 7492TIP3    H143967   0.995   5.083  16.210
 7492TIP3    H243968   1.074   5.119  16.334
 7493TIP3   OH243969   3.870   4.859  10.776
 7493TIP3    H143970   3.784   4.868  10.815
 7493TIP3    H243971   3.886   4.765  10.771
 7494TIP3   OH243972   0.478   5.101   0.975
 7494TIP3    H143973   0.505   5.189   1.000
 7494TIP3    H243974   0.559   5.050   0.976
 7495TIP3   OH243975   6.202   3.068   3.723
 7495TIP3    H143976   6.206   3.105   3.635
 7495TIP3    H243977   6.281   3.014   3.729
 7496TIP3   OH243978   6.784   0.500  15.166
 7496TIP3    H143979   6.792   0.587  15.129
 7496TIP3    H243980   6.864   0.488  15.218
 7497TIP3   OH243981   5.303   6.663   1.614
 7497TIP3    H143982   5.297   6.568   1.607
 7497TIP3    H243983   5.374   6.679   1.676
 7498TIP3   OH243984   0.189   6.134  16.595
 7498TIP3    H143985   0.268   6.147  16.542
 7498TIP3    H243986   0.212   6.064  16.656
 7499TIP3   OH243987   4.629   5.302   4.102
 7499TIP3    H143988   4.575   5.250   4.162
 7499TIP3    H243989   4.709   5.319   4.151
 7500TIP3   OH243990   3.453   5.465   1.013
 7500TIP3    H143991   3.439   5.468   1.108
 7500TIP3    H243992   3.533   5.414   1.002
 7501TIP3   OH243993   1.336   6.753   6.102
 7501TIP3    H143994   1.359   6.775   6.011
 7501TIP3    H243995   1.409   6.788   6.154
 7502TIP3   OH243996   1.618   2.656  16.028
 7502TIP3    H143997   1.578   2.673  16.114
 7502TIP3    H243998   1.544   2.642  15.970
 7503TIP3   OH243999   4.025   2.278  14.382
 7503TIP3    H144000   4.093   2.342  14.403
 7503TIP3    H244001   4.060   2.229  14.308
 7504TIP3   OH244002   0.000   0.267   5.878
 7504TIP3    H144003   0.050   0.317   5.943
 7504TIP3    H244004  -0.017   0.330   5.807
 7505TIP3   OH244005   3.596   4.021  11.233
 7505TIP3    H144006   3.575   4.103  11.279
 7505TIP3    H244007   3.576   4.040  11.141
 7506TIP3   OH244008   4.632   5.603   1.032
 7506TIP3    H144009   4.625   5.522   0.982
 7506TIP3    H244010   4.574   5.665   0.987
 7507TIP3   OH244011   4.795   6.475   1.886
 7507TIP3    H144012   4.805   6.537   1.959
 7507TIP3    H244013   4.885   6.450   1.864
 7508TIP3   OH244014   1.308   4.022   5.844
 7508TIP3    H144015   1.395   4.061   5.849
 7508TIP3    H244016   1.300   3.971   5.925
 7509TIP3   OH244017   6.388   1.697   0.638
 7509TIP3    H144018   6.389   1.643   0.716
 7509TIP3    H244019   6.302   1.739   0.638
 7510TIP3   OH244020   3.514   4.288  14.822
 7510TIP3    H144021   3.549   4.338  14.749
 7510TIP3    H244022   3.566   4.317  14.898
 7511TIP3   OH244023   5.678   1.515   5.498
 7511TIP3    H144024   5.595   1.468   5.513
 7511TIP3    H244025   5.742   1.468   5.552
 7512TIP3   OH244026   5.606   3.103   2.137
 7512TIP3    H144027   5.635   3.194   2.141
 7512TIP3    H244028   5.559   3.097   2.053
 7513TIP3   OH244029   0.709   5.616   1.596
 7513TIP3    H144030   0.621   5.601   1.563
 7513TIP3    H244031   0.698   5.683   1.664
 7514TIP3   OH244032   4.375   4.302   2.832
 7514TIP3    H144033   4.338   4.365   2.770
 7514TIP3    H244034   4.463   4.336   2.851
 7515TIP3   OH244035   6.655   0.944  13.592
 7515TIP3    H144036   6.663   1.031  13.553
 7515TIP3    H244037   6.743   0.907  13.586
 7516TIP3   OH244038   6.285   2.559   2.928
 7516TIP3    H144039   6.201   2.561   2.974
 7516TIP3    H244040   6.331   2.637   2.959
 7517TIP3   OH244041   3.791   3.049  13.818
 7517TIP3    H144042   3.787   3.087  13.906
 7517TIP3    H244043   3.845   3.111  13.768
 7518TIP3   OH244044   1.080   2.652  16.830
 7518TIP3    H144045   1.167   2.651  16.790
 7518TIP3    H244046   1.087   2.716  16.901
 7519TIP3   OH244047   5.801   2.227   5.795
 7519TIP3    H144048   5.809   2.207   5.889
 7519TIP3    H244049   5.890   2.252   5.768
 7520TIP3   OH244050   1.389   5.266  12.446
 7520TIP3    H144051   1.458   5.209  12.477
 7520TIP3    H244052   1.315   5.207  12.427
 7521TIP3   OH244053   3.216   2.847   5.291
 7521TIP3    H144054   3.221   2.751   5.289
 7521TIP3    H244055   3.273   2.876   5.220
 7522TIP3   OH244056   1.321   1.656   5.498
 7522TIP3    H144057   1.369   1.737   5.516
 7522TIP3    H244058   1.232   1.684   5.480
 7523TIP3   OH244059   6.066   3.930   1.083
 7523TIP3    H144060   6.104   4.008   1.123
 7523TIP3    H244061   6.119   3.858   1.117
 7524TIP3   OH244062   6.349   0.493   0.636
 7524TIP3    H144063   6.398   0.456   0.563
 7524TIP3    H244064   6.263   0.513   0.599
 7525TIP3   OH244065   1.708   3.120   3.828
 7525TIP3    H144066   1.682   3.195   3.881
 7525TIP3    H244067   1.753   3.159   3.753
 7526TIP3   OH244068   1.521   0.513   4.923
 7526TIP3    H144069   1.520   0.536   5.016
 7526TIP3    H244070   1.613   0.517   4.898
 7527TIP3   OH244071   6.314   1.528   3.998
 7527TIP3    H144072   6.374   1.453   4.007
 7527TIP3    H244073   6.366   1.604   4.023
 7528TIP3   OH244074   0.632   4.563   1.113
 7528TIP3    H144075   0.560   4.549   1.051
 7528TIP3    H244076   0.627   4.489   1.173
 7529TIP3   OH244077   0.986   0.030   2.213
 7529TIP3    H144078   0.934   0.075   2.146
 7529TIP3    H244079   1.077   0.044   2.186
 7530TIP3   OH244080   2.515   5.772  13.905
 7530TIP3    H144081   2.528   5.679  13.887
 7530TIP3    H244082   2.423   5.779  13.928
 7531TIP3   OH244083   1.139   5.438  14.818
 7531TIP3    H144084   1.191   5.440  14.899
 7531TIP3    H244085   1.203   5.424  14.748
 7532TIP3   OH244086   6.474   2.795   4.323
 7532TIP3    H144087   6.427   2.729   4.374
 7532TIP3    H244088   6.405   2.841   4.275
 7533TIP3   OH244089   0.223   3.958   5.800
 7533TIP3    H144090   0.156   3.913   5.851
 7533TIP3    H244091   0.178   4.033   5.761
 7534TIP3   OH244092   5.979   2.470  12.985
 7534TIP3    H144093   5.928   2.549  12.968
 7534TIP3    H244094   6.070   2.499  12.980
 7535TIP3   OH244095   6.758   4.999  16.974
 7535TIP3    H144096   6.709   5.010  17.055
 7535TIP3    H244097   6.804   5.082  16.962
 7536TIP3   OH244098   5.468   2.973   2.945
 7536TIP3    H144099   5.376   2.951   2.931
 7536TIP3    H244100   5.466   3.063   2.977
 7537TIP3   OH244101   0.329   3.665   1.169
 7537TIP3    H144102   0.387   3.734   1.135
 7537TIP3    H244103   0.269   3.711   1.228
 7538TIP3   OH244104   1.974   4.988  12.732
 7538TIP3    H144105   1.889   4.948  12.748
 7538TIP3    H244106   2.037   4.924  12.766
 7539TIP3   OH244107   2.892   0.022   3.933
 7539TIP3    H144108   2.834  -0.014   3.865
 7539TIP3    H244109   2.884   0.117   3.924
 7540TIP3   OH244110   6.368   1.810  14.819
 7540TIP3    H144111   6.400   1.852  14.899
 7540TIP3    H244112   6.386   1.717  14.831
 7541TIP3   OH244113   1.164   5.327   6.171
 7541TIP3    H144114   1.073   5.347   6.193
 7541TIP3    H244115   1.215   5.397   6.213
 7542TIP3   OH244116   3.287   5.149  15.487
 7542TIP3    H144117   3.223   5.078  15.495
 7542TIP3    H244118   3.347   5.135  15.560
 7543TIP3   OH244119   3.468   5.249  17.046
 7543TIP3    H144120   3.489   5.176  17.105
 7543TIP3    H244121   3.456   5.207  16.961
 7544TIP3   OH244122   0.199   4.470   6.840
 7544TIP3    H144123   0.247   4.531   6.784
 7544TIP3    H244124   0.229   4.491   6.929
 7545TIP3   OH244125   2.555   0.094   0.883
 7545TIP3    H144126   2.597   0.164   0.833
 7545TIP3    H244127   2.601   0.014   0.855
 7546TIP3   OH244128   6.000   4.854   5.651
 7546TIP3    H144129   5.933   4.787   5.643
 7546TIP3    H244130   6.055   4.842   5.574
 7547TIP3   OH244131   0.293   5.513   5.883
 7547TIP3    H144132   0.250   5.495   5.967
 7547TIP3    H244133   0.231   5.570   5.836
 7548TIP3   OH244134   0.120   1.588   5.431
 7548TIP3    H144135   0.169   1.634   5.500
 7548TIP3    H244136   0.186   1.532   5.389
 7549TIP3   OH244137   5.598   0.916  12.897
 7549TIP3    H144138   5.537   0.922  12.824
 7549TIP3    H244139   5.548   0.873  12.966
 7550TIP3   OH244140   5.461   4.136   2.162
 7550TIP3    H144141   5.549   4.099   2.167
 7550TIP3    H244142   5.442   4.139   2.068
 7551TIP3   OH244143   0.419   5.047  10.865
 7551TIP3    H144144   0.407   5.126  10.917
 7551TIP3    H244145   0.403   5.076  10.775
 7552TIP3   OH244146   0.124   5.946   6.746
 7552TIP3    H144147   0.109   5.856   6.774
 7552TIP3    H244148   0.165   5.988   6.822
 7553TIP3   OH244149   2.368   4.932   6.244
 7553TIP3    H144150   2.300   4.998   6.250
 7553TIP3    H244151   2.449   4.982   6.234
 7554TIP3   OH244152   5.466   2.717  14.126
 7554TIP3    H144153   5.449   2.624  14.112
 7554TIP3    H244154   5.465   2.755  14.038
 7555TIP3   OH244155   5.887   1.846   5.017
 7555TIP3    H144156   5.822   1.827   4.950
 7555TIP3    H244157   5.954   1.779   5.005
 7556TIP3   OH244158   2.019   6.533   1.991
 7556TIP3    H144159   2.030   6.504   1.900
 7556TIP3    H244160   2.086   6.485   2.040
 7557TIP3   OH244161   5.933   2.850  13.845
 7557TIP3    H144162   5.964   2.895  13.923
 7557TIP3    H244163   5.841   2.873  13.838
 7558TIP3   OH244164   1.805   2.725   0.634
 7558TIP3    H144165   1.741   2.790   0.665
 7558TIP3    H244166   1.865   2.713   0.708
 7559TIP3   OH244167   4.092   3.802  12.669
 7559TIP3    H144168   4.060   3.720  12.707
 7559TIP3    H244169   4.013   3.852  12.650
 7560TIP3   OH244170   5.025   3.786   5.131
 7560TIP3    H144171   5.062   3.874   5.123
 7560TIP3    H244172   5.060   3.738   5.056
 7561TIP3   OH244173   0.944   3.372  11.470
 7561TIP3    H144174   1.013   3.342  11.411
 7561TIP3    H244175   0.990   3.426  11.534
 7562TIP3   OH244176   5.593   5.274  11.205
 7562TIP3    H144177   5.541   5.326  11.143
 7562TIP3    H244178   5.588   5.324  11.287
 7563TIP3   OH244179   2.179   1.979  16.205
 7563TIP3    H144180   2.271   2.002  16.220
 7563TIP3    H244181   2.146   1.956  16.292
 7564TIP3   OH244182   3.983   6.657  17.163
 7564TIP3    H144183   4.049   6.594  17.191
 7564TIP3    H244184   3.924   6.666  17.238
 7565TIP3   OH244185   5.311   5.952  13.876
 7565TIP3    H144186   5.318   5.857  13.872
 7565TIP3    H244187   5.394   5.984  13.841
 7566TIP3   OH244188   4.086   5.371  14.558
 7566TIP3    H144189   4.042   5.453  14.579
 7566TIP3    H244190   4.022   5.303  14.582
 7567TIP3   OH244191   3.668   5.421   1.443
 7567TIP3    H144192   3.763   5.405   1.445
 7567TIP3    H244193   3.657   5.502   1.494
 7568TIP3   OH244194   6.144   3.405  16.250
 7568TIP3    H144195   6.200   3.384  16.324
 7568TIP3    H244196   6.066   3.351  16.262
 7569TIP3   OH244197   0.775   0.190   2.356
 7569TIP3    H144198   0.783   0.109   2.406
 7569TIP3    H244199   0.688   0.185   2.315
 7570TIP3   OH244200   1.693   5.683  13.723
 7570TIP3    H144201   1.720   5.769  13.756
 7570TIP3    H244202   1.680   5.697  13.629
 7571TIP3   OH244203   6.490   5.022   6.519
 7571TIP3    H144204   6.446   5.064   6.592
 7571TIP3    H244205   6.423   5.016   6.451
 7572TIP3   OH244206   0.295   1.865  11.747
 7572TIP3    H144207   0.244   1.839  11.670
 7572TIP3    H244208   0.239   1.929  11.791
 7573TIP3   OH244209   6.186   6.738  12.285
 7573TIP3    H144210   6.197   6.754  12.191
 7573TIP3    H244211   6.202   6.823  12.326
 7574TIP3   OH244212   5.931   1.816  13.551
 7574TIP3    H144213   5.838   1.810  13.572
 7574TIP3    H244214   5.965   1.729  13.569
 7575TIP3   OH244215   4.360   6.621   6.124
 7575TIP3    H144216   4.389   6.691   6.066
 7575TIP3    H244217   4.416   6.629   6.201
 7576TIP3   OH244218   4.188   3.159  16.274
 7576TIP3    H144219   4.169   3.221  16.204
 7576TIP3    H244220   4.276   3.181  16.303
 7577TIP3   OH244221   3.629   2.237  15.301
 7577TIP3    H144222   3.639   2.211  15.393
 7577TIP3    H244223   3.551   2.191  15.271
 7578TIP3   OH244224   2.984   6.533   3.768
 7578TIP3    H144225   2.987   6.452   3.717
 7578TIP3    H244226   3.076   6.553   3.786
 7579TIP3   OH244227   5.027   6.157   2.114
 7579TIP3    H144228   5.093   6.217   2.149
 7579TIP3    H244229   5.067   6.121   2.035
 7580TIP3   OH244230   6.080   1.954  15.797
 7580TIP3    H144231   6.151   1.936  15.858
 7580TIP3    H244232   6.001   1.949  15.851
 7581TIP3   OH244233   0.469   6.125  12.782
 7581TIP3    H144234   0.379   6.117  12.752
 7581TIP3    H244235   0.462   6.146  12.875
 7582TIP3   OH244236   3.362   1.522   4.497
 7582TIP3    H144237   3.324   1.497   4.413
 7582TIP3    H244238   3.442   1.570   4.474
 7583TIP3   OH244239   6.568   5.933   1.222
 7583TIP3    H144240   6.522   5.849   1.230
 7583TIP3    H244241   6.501   5.999   1.238
 7584TIP3   OH244242   1.088   5.029   3.663
 7584TIP3    H144243   1.048   5.056   3.746
 7584TIP3    H244244   1.158   5.093   3.649
 7585TIP3   OH244245   0.783   1.248   1.324
 7585TIP3    H144246   0.819   1.214   1.242
 7585TIP3    H244247   0.690   1.229   1.319
 7586TIP3   OH244248   6.688   2.522   0.837
 7586TIP3    H144249   6.656   2.490   0.922
 7586TIP3    H244250   6.780   2.543   0.852
 7587TIP3   OH244251   6.298   2.821   2.000
 7587TIP3    H144252   6.225   2.793   1.946
 7587TIP3    H244253   6.369   2.761   1.977
 7588TIP3   OH244254   1.985   5.826   3.431
 7588TIP3    H144255   2.011   5.905   3.383
 7588TIP3    H244256   1.948   5.769   3.364
 7589TIP3   OH244257   5.537   2.646   1.447
 7589TIP3    H144258   5.539   2.622   1.355
 7589TIP3    H244259   5.445   2.639   1.472
 7590TIP3   OH244260   0.658   2.575  10.853
 7590TIP3    H144261   0.685   2.662  10.881
 7590TIP3    H244262   0.591   2.591  10.786
 7591TIP3   OH244263   5.606   6.672  16.687
 7591TIP3    H144264   5.541   6.605  16.667
 7591TIP3    H244265   5.598   6.735  16.615
 7592TIP3   OH244266   0.282   0.360  12.248
 7592TIP3    H144267   0.374   0.388  12.245
 7592TIP3    H244268   0.286   0.266  12.229
 7593TIP3   OH244269   2.428   1.876  15.379
 7593TIP3    H144270   2.334   1.892  15.383
 7593TIP3    H244271   2.437   1.795  15.328
 7594TIP3   OH244272   0.480   4.003  14.609
 7594TIP3    H144273   0.490   3.908  14.601
 7594TIP3    H244274   0.570   4.037  14.603
 7595TIP3   OH244275   6.377   4.863   2.716
 7595TIP3    H144276   6.383   4.767   2.720
 7595TIP3    H244277   6.351   4.889   2.805
 7596TIP3   OH244278   0.360   2.892  11.970
 7596TIP3    H144279   0.306   2.913  11.894
 7596TIP3    H244280   0.314   2.818  12.012
 7597TIP3   OH244281   3.463   3.577   1.918
 7597TIP3    H144282   3.512   3.569   2.000
 7597TIP3    H244283   3.401   3.504   1.920
 7598TIP3   OH244284   4.325   4.062  15.019
 7598TIP3    H144285   4.237   4.066  15.055
 7598TIP3    H244286   4.324   3.984  14.963
 7599TIP3   OH244287   0.916   0.770  16.080
 7599TIP3    H144288   0.824   0.788  16.060
 7599TIP3    H244289   0.913   0.706  16.151
 7600TIP3   OH244290   1.576   0.554   5.185
 7600TIP3    H144291   1.620   0.639   5.181
 7600TIP3    H244292   1.540   0.551   5.274
 7601TIP3   OH244293   5.327   0.905  15.474
 7601TIP3    H144294   5.339   0.846  15.400
 7601TIP3    H244295   5.413   0.945  15.487
 7602TIP3   OH244296   5.197   4.654  15.450
 7602TIP3    H144297   5.102   4.653  15.451
 7602TIP3    H244298   5.220   4.668  15.358
 7603TIP3   OH244299   3.631   0.417  13.828
 7603TIP3    H144300   3.600   0.446  13.742
 7603TIP3    H244301   3.567   0.453  13.890
 7604TIP3   OH244302   4.147   0.836   2.371
 7604TIP3    H144303   4.173   0.770   2.307
 7604TIP3    H244304   4.202   0.819   2.447
 7605TIP3   OH244305   3.072   4.896  12.197
 7605TIP3    H144306   3.121   4.978  12.198
 7605TIP3    H244307   3.110   4.845  12.269
 7606TIP3   OH244308   6.247   0.491  15.358
 7606TIP3    H144309   6.317   0.463  15.300
 7606TIP3    H244310   6.194   0.550  15.304
 7607TIP3   OH244311   6.374   1.870   3.736
 7607TIP3    H144312   6.309   1.800   3.739
 7607TIP3    H244313   6.454   1.831   3.771
 7608TIP3   OH244314   0.259   5.101   2.052
 7608TIP3    H144315   0.312   5.073   1.977
 7608TIP3    H244316   0.180   5.048   2.048
 7609TIP3   OH244317   2.259   4.000   3.075
 7609TIP3    H144318   2.331   4.023   3.133
 7609TIP3    H244319   2.201   3.946   3.128
 7610TIP3   OH244320   3.501   6.388   2.659
 7610TIP3    H144321   3.518   6.298   2.632
 7610TIP3    H244322   3.491   6.436   2.576
 7611TIP3   OH244323   5.045   0.421   2.112
 7611TIP3    H144324   4.989   0.438   2.187
 7611TIP3    H244325   4.992   0.365   2.055
 7612TIP3   OH244326   2.098   4.248  14.198
 7612TIP3    H144327   2.115   4.316  14.133
 7612TIP3    H244328   2.025   4.197  14.162
 7613TIP3   OH244329   0.612   5.451  15.633
 7613TIP3    H144330   0.699   5.488  15.641
 7613TIP3    H244331   0.621   5.382  15.567
 7614TIP3   OH244332   4.523   3.280  13.283
 7614TIP3    H144333   4.500   3.370  13.306
 7614TIP3    H244334   4.533   3.281  13.188
 7615TIP3   OH244335   0.530   3.052   1.632
 7615TIP3    H144336   0.485   3.023   1.552
 7615TIP3    H244337   0.562   2.971   1.672
 7616TIP3   OH244338   4.401   4.097  17.003
 7616TIP3    H144339   4.420   4.024  17.062
 7616TIP3    H244340   4.449   4.078  16.923
 7617TIP3   OH244341   5.960   5.841  11.229
 7617TIP3    H144342   5.994   5.787  11.158
 7617TIP3    H244343   6.021   5.915  11.235
 7618TIP3   OH244344   4.060   3.104   3.482
 7618TIP3    H144345   3.977   3.089   3.437
 7618TIP3    H244346   4.057   3.045   3.557
 7619TIP3   OH244347   2.127   2.116  14.789
 7619TIP3    H144348   2.040   2.133  14.752
 7619TIP3    H244349   2.178   2.194  14.766
 7620TIP3   OH244350   3.148   6.760   3.948
 7620TIP3    H144351   3.147   6.665   3.935
 7620TIP3    H244352   3.056   6.783   3.959
 7621TIP3   OH244353   0.565   6.549   4.501
 7621TIP3    H144354   0.622   6.578   4.430
 7621TIP3    H244355   0.585   6.456   4.512
 7622TIP3   OH244356   4.264   6.797   2.852
 7622TIP3    H144357   4.181   6.835   2.882
 7622TIP3    H244358   4.327   6.869   2.856
 7623TIP3   OH244359   5.955   6.502   4.204
 7623TIP3    H144360   6.037   6.551   4.203
 7623TIP3    H244361   5.951   6.464   4.292
 7624TIP3   OH244362   1.294   4.278  15.983
 7624TIP3    H144363   1.226   4.335  16.020
 7624TIP3    H244364   1.286   4.196  16.032
 7625TIP3   OH244365   4.746   2.332  13.575
 7625TIP3    H144366   4.746   2.340  13.670
 7625TIP3    H244367   4.744   2.238  13.559
 7626TIP3   OH244368   5.553   1.146   4.779
 7626TIP3    H144369   5.489   1.216   4.791
 7626TIP3    H244370   5.638   1.190   4.785
 7627TIP3   OH244371   4.328   2.932  11.878
 7627TIP3    H144372   4.354   2.840  11.891
 7627TIP3    H244373   4.293   2.935  11.789
 7628TIP3   OH244374   6.533   3.086  16.499
 7628TIP3    H144375   6.583   3.056  16.423
 7628TIP3    H244376   6.447   3.046  16.489
 7629TIP3   OH244377   3.099   0.465   4.032
 7629TIP3    H144378   3.158   0.461   3.957
 7629TIP3    H244379   3.065   0.555   4.031
 7630TIP3   OH244380   3.056   5.627   0.003
 7630TIP3    H144381   3.000   5.622   0.081
 7630TIP3    H244382   3.014   5.695  -0.051
 7631TIP3   OH244383   1.153   4.028  15.157
 7631TIP3    H144384   1.128   3.945  15.116
 7631TIP3    H244385   1.167   4.006  15.249
 7632TIP3   OH244386   2.156   2.665   6.239
 7632TIP3    H144387   2.249   2.689   6.248
 7632TIP3    H244388   2.109   2.748   6.246
 7633TIP3   OH244389   1.491   3.277   5.270
 7633TIP3    H144390   1.417   3.338   5.278
 7633TIP3    H244391   1.457   3.194   5.303
 7634TIP3   OH244392   6.540   5.897   0.798
 7634TIP3    H144393   6.605   5.930   0.860
 7634TIP3    H244394   6.592   5.865   0.724
 7635TIP3   OH244395   3.189   0.143  11.240
 7635TIP3    H144396   3.119   0.133  11.304
 7635TIP3    H244397   3.144   0.176  11.161
 7636TIP3   OH244398   6.605   3.332  13.380
 7636TIP3    H144399   6.535   3.302  13.322
 7636TIP3    H244400   6.647   3.252  13.411
 7637TIP3   OH244401   1.037   4.206   3.655
 7637TIP3    H144402   0.964   4.250   3.698
 7637TIP3    H244403   1.073   4.271   3.594
 7638TIP3   OH244404   1.619   2.873  14.133
 7638TIP3    H144405   1.683   2.831  14.077
 7638TIP3    H244406   1.535   2.835  14.107
 7639TIP3   OH244407   1.751   6.117   5.066
 7639TIP3    H144408   1.807   6.048   5.030
 7639TIP3    H244409   1.813   6.179   5.105
 7640TIP3   OH244410   5.581   6.381  14.897
 7640TIP3    H144411   5.671   6.361  14.925
 7640TIP3    H244412   5.544   6.431  14.970
 7641TIP3   OH244413   3.619   6.137  15.481
 7641TIP3    H144414   3.600   6.197  15.553
 7641TIP3    H244415   3.678   6.186  15.423
 7642TIP3   OH244416   3.469   5.269  11.678
 7642TIP3    H144417   3.479   5.331  11.605
 7642TIP3    H244418   3.552   5.222  11.681
 7643TIP3   OH244419   5.521   0.528  13.388
 7643TIP3    H144420   5.487   0.439  13.385
 7643TIP3    H244421   5.443   0.583  13.385
 7644TIP3   OH244422   4.549   2.980  10.934
 7644TIP3    H144423   4.484   2.909  10.939
 7644TIP3    H244424   4.505   3.049  10.885
 7645TIP3   OH244425   1.372   1.123   4.031
 7645TIP3    H144426   1.377   1.057   4.100
 7645TIP3    H244427   1.463   1.144   4.011
 7646TIP3   OH244428   0.612   2.014  13.958
 7646TIP3    H144429   0.593   2.085  14.019
 7646TIP3    H244430   0.659   2.057  13.886
 7647TIP3   OH244431   5.966   1.550  15.476
 7647TIP3    H144432   6.028   1.623  15.484
 7647TIP3    H244433   5.894   1.574  15.534
 7648TIP3   OH244434   3.382   6.319   1.216
 7648TIP3    H144435   3.439   6.293   1.144
 7648TIP3    H244436   3.419   6.275   1.293
 7649TIP3   OH244437   4.182   1.519  11.404
 7649TIP3    H144438   4.156   1.597  11.453
 7649TIP3    H244439   4.248   1.551  11.343
 7650TIP3   OH244440   0.640   4.989  15.286
 7650TIP3    H144441   0.566   5.013  15.230
 7650TIP3    H244442   0.605   4.990  15.375
 7651TIP3   OH244443   6.219   1.159  16.424
 7651TIP3    H144444   6.254   1.087  16.371
 7651TIP3    H244445   6.132   1.176  16.388
 7652TIP3   OH244446   3.331   0.317   2.183
 7652TIP3    H144447   3.409   0.365   2.210
 7652TIP3    H244448   3.262   0.384   2.175
 7653TIP3   OH244449   1.956   2.396  17.275
 7653TIP3    H144450   1.896   2.349  17.218
 7653TIP3    H244451   1.903   2.423  17.350
 7654TIP3   OH244452   2.483   6.510  14.266
 7654TIP3    H144453   2.578   6.519  14.260
 7654TIP3    H244454   2.465   6.426  14.225
 7655TIP3   OH244455   5.656   6.428   5.319
 7655TIP3    H144456   5.596   6.470   5.381
 7655TIP3    H244457   5.737   6.477   5.326
 7656TIP3   OH244458   3.505   4.033  14.466
 7656TIP3    H144459   3.472   3.948  14.438
 7656TIP3    H244460   3.428   4.090  14.466
 7657TIP3   OH244461   0.862   4.067  12.389
 7657TIP3    H144462   0.857   4.041  12.297
 7657TIP3    H244463   0.826   4.156  12.391
 7658TIP3   OH244464   2.695   3.760  13.912
 7658TIP3    H144465   2.775   3.771  13.860
 7658TIP3    H244466   2.625   3.784  13.852
 7659TIP3   OH244467   6.237   0.200  10.956
 7659TIP3    H144468   6.196   0.232  11.036
 7659TIP3    H244469   6.222   0.269  10.891
 7660TIP3   OH244470   2.232   2.553  12.507
 7660TIP3    H144471   2.256   2.634  12.553
 7660TIP3    H244472   2.237   2.577  12.414
 7661TIP3   OH244473   0.629   0.921   4.529
 7661TIP3    H144474   0.684   0.908   4.606
 7661TIP3    H244475   0.584   0.837   4.517
 7662TIP3   OH244476   3.896   3.344   4.166
 7662TIP3    H144477   3.928   3.427   4.132
 7662TIP3    H244478   3.880   3.360   4.259
 7663TIP3   OH244479   2.333   0.834  14.424
 7663TIP3    H144480   2.319   0.919  14.464
 7663TIP3    H244481   2.355   0.853  14.333
 7664TIP3   OH244482   0.060   2.249   4.622
 7664TIP3    H144483   0.075   2.343   4.630
 7664TIP3    H244484   0.086   2.227   4.533
 7665TIP3   OH244485   4.876   6.789  16.757
 7665TIP3    H144486   4.876   6.853  16.685
 7665TIP3    H244487   4.889   6.842  16.836
 7666TIP3   OH244488   1.586   5.349  16.206
 7666TIP3    H144489   1.591   5.443  16.187
 7666TIP3    H244490   1.499   5.337  16.243
 7667TIP3   OH244491   3.651   1.629   4.835
 7667TIP3    H144492   3.728   1.687   4.833
 7667TIP3    H244493   3.656   1.587   4.921
 7668TIP3   OH244494   1.364   2.296   5.758
 7668TIP3    H144495   1.391   2.387   5.770
 7668TIP3    H244496   1.442   2.252   5.724
 7669TIP3   OH244497   1.202   2.677  12.678
 7669TIP3    H144498   1.145   2.678  12.600
 7669TIP3    H244499   1.271   2.614  12.656
 7670TIP3   OH244500   0.921   4.783  15.736
 7670TIP3    H144501   1.011   4.786  15.705
 7670TIP3    H244502   0.927   4.748  15.825
 7671TIP3   OH244503   5.946   3.537  10.972
 7671TIP3    H144504   6.009   3.589  10.922
 7671TIP3    H244505   5.989   3.452  10.981
 7672TIP3   OH244506   2.043   1.016  14.334
 7672TIP3    H144507   2.069   1.083  14.271
 7672TIP3    H244508   1.965   1.052  14.377
 7673TIP3   OH244509   3.034   6.418  10.962
 7673TIP3    H144510   3.011   6.384  10.875
 7673TIP3    H244511   3.090   6.493  10.944
 7674TIP3   OH244512   5.227   4.491   5.001
 7674TIP3    H144513   5.294   4.545   4.958
 7674TIP3    H244514   5.226   4.410   4.949
 7675TIP3   OH244515   5.739   0.247  13.006
 7675TIP3    H144516   5.819   0.243  13.059
 7675TIP3    H244517   5.721   0.340  12.996
 7676TIP3   OH244518   2.430   1.640  15.269
 7676TIP3    H144519   2.457   1.588  15.194
 7676TIP3    H244520   2.439   1.581  15.344
 7677TIP3   OH244521   6.071   3.846  13.790
 7677TIP3    H144522   6.121   3.910  13.739
 7677TIP3    H244523   6.133   3.773  13.804
 7678TIP3   OH244524   1.489   4.176   2.669
 7678TIP3    H144525   1.544   4.235   2.721
 7678TIP3    H244526   1.496   4.091   2.713
 7679TIP3   OH244527   4.162   0.541  11.368
 7679TIP3    H144528   4.219   0.475  11.329
 7679TIP3    H244529   4.080   0.534  11.319
 7680TIP3   OH244530   3.282   1.729  10.646
 7680TIP3    H144531   3.377   1.719  10.650
 7680TIP3    H244532   3.263   1.800  10.708
 7681TIP3   OH244533   3.058   0.215  11.010
 7681TIP3    H144534   3.015   0.253  10.933
 7681TIP3    H244535   3.004   0.140  11.032
 7682TIP3   OH244536   6.441   0.745  15.276
 7682TIP3    H144537   6.474   0.721  15.190
 7682TIP3    H244538   6.358   0.789  15.258
 7683TIP3   OH244539   4.406   6.315   2.248
 7683TIP3    H144540   4.486   6.314   2.300
 7683TIP3    H244541   4.430   6.359   2.167
 7684TIP3   OH244542   1.038   1.528   5.079
 7684TIP3    H144543   1.011   1.615   5.048
 7684TIP3    H244544   0.972   1.503   5.143
 7685TIP3   OH244545   1.434   4.950   0.385
 7685TIP3    H144546   1.431   5.027   0.327
 7685TIP3    H244547   1.526   4.944   0.411
 7686TIP3   OH244548   4.399   6.619  13.593
 7686TIP3    H144549   4.310   6.594  13.616
 7686TIP3    H244550   4.445   6.536  13.582
 7687TIP3   OH244551   4.957   2.719  14.729
 7687TIP3    H144552   4.938   2.645  14.672
 7687TIP3    H244553   4.874   2.766  14.735
 7688TIP3   OH244554   2.154   1.130  16.018
 7688TIP3    H144555   2.061   1.147  16.003
 7688TIP3    H244556   2.179   1.190  16.088
 7689TIP3   OH244557   0.089   1.076   3.237
 7689TIP3    H144558   0.122   0.993   3.271
 7689TIP3    H244559   0.014   1.096   3.293
 7690TIP3   OH244560   1.342   3.263   6.214
 7690TIP3    H144561   1.268   3.295   6.266
 7690TIP3    H244562   1.320   3.171   6.196
 7691TIP3   OH244563   1.157   0.439   4.911
 7691TIP3    H144564   1.215   0.387   4.854
 7691TIP3    H244565   1.132   0.379   4.981
 7692TIP3   OH244566   3.582   4.528  16.532
 7692TIP3    H144567   3.565   4.611  16.487
 7692TIP3    H244568   3.630   4.475  16.468
 7693TIP3   OH244569   2.720   3.755   6.129
 7693TIP3    H144570   2.634   3.715   6.140
 7693TIP3    H244571   2.774   3.685   6.094
 7694TIP3   OH244572   5.338   3.770  10.754
 7694TIP3    H144573   5.331   3.706  10.824
 7694TIP3    H244574   5.330   3.855  10.798
 7695TIP3   OH244575   5.324   2.985   1.526
 7695TIP3    H144576   5.298   3.058   1.583
 7695TIP3    H244577   5.267   2.913   1.552
 7696TIP3   OH244578   5.243   3.414   4.375
 7696TIP3    H144579   5.172   3.420   4.312
 7696TIP3    H244580   5.203   3.441   4.458
 7697TIP3   OH244581   5.515   3.101  12.321
 7697TIP3    H144582   5.435   3.056  12.347
 7697TIP3    H244583   5.572   3.095  12.398
 7698TIP3   OH244584   2.878   5.101  10.896
 7698TIP3    H144585   2.828   5.030  10.855
 7698TIP3    H244586   2.882   5.169  10.829
 7699TIP3   OH244587   3.419   6.450   2.384
 7699TIP3    H144588   3.390   6.500   2.307
 7699TIP3    H244589   3.514   6.446   2.374
 7700TIP3   OH244590   1.560   0.132  15.988
 7700TIP3    H144591   1.614   0.120  15.910
 7700TIP3    H244592   1.552   0.044  16.025
 7701TIP3   OH244593   3.723   2.755  11.764
 7701TIP3    H144594   3.790   2.775  11.698
 7701TIP3    H244595   3.710   2.838  11.810
 7702TIP3   OH244596   5.683   2.948  13.757
 7702TIP3    H144597   5.616   3.011  13.784
 7702TIP3    H244598   5.706   2.973  13.668
 7703TIP3   OH244599   1.608   3.926   2.071
 7703TIP3    H144600   1.682   3.877   2.036
 7703TIP3    H244601   1.648   4.005   2.110
 7704TIP3   OH244602   0.394   4.078   5.484
 7704TIP3    H144603   0.358   3.992   5.504
 7704TIP3    H244604   0.489   4.068   5.497
 7705TIP3   OH244605   5.400   4.906   4.026
 7705TIP3    H144606   5.345   4.975   3.989
 7705TIP3    H244607   5.447   4.948   4.097
 7706TIP3   OH244608   1.061   0.443  14.287
 7706TIP3    H144609   0.975   0.406  14.305
 7706TIP3    H244610   1.111   0.371  14.250
 7707TIP3   OH244611   6.414   2.994   0.843
 7707TIP3    H144612   6.420   3.048   0.764
 7707TIP3    H244613   6.441   2.907   0.815
 7708TIP3   OH244614   1.216   5.641  16.283
 7708TIP3    H144615   1.253   5.712  16.336
 7708TIP3    H244616   1.145   5.607  16.337
 7709TIP3   OH244617   6.075   4.463  11.584
 7709TIP3    H144618   6.048   4.554  11.593
 7709TIP3    H244619   6.129   4.461  11.505
 7710TIP3   OH244620   3.437   6.653   5.572
 7710TIP3    H144621   3.452   6.559   5.581
 7710TIP3    H244622   3.444   6.670   5.478
 7711TIP3   OH244623   6.240   1.717   4.477
 7711TIP3    H144624   6.314   1.681   4.428
 7711TIP3    H244625   6.261   1.811   4.485
 7712TIP3   OH244626   2.791   2.470   5.955
 7712TIP3    H144627   2.844   2.541   5.917
 7712TIP3    H244628   2.819   2.467   6.047
 7713TIP3   OH244629   3.685   6.130  15.781
 7713TIP3    H144630   3.751   6.129  15.851
 7713TIP3    H244631   3.660   6.222  15.774
 7714TIP3   OH244632   2.121   5.304   6.433
 7714TIP3    H144633   2.110   5.373   6.499
 7714TIP3    H244634   2.082   5.226   6.474
 7715TIP3   OH244635   4.869   5.951  16.536
 7715TIP3    H144636   4.959   5.978  16.518
 7715TIP3    H244637   4.821   6.033  16.544
 7716TIP3   OH244638   0.449   6.335   0.226
 7716TIP3    H144639   0.417   6.418   0.263
 7716TIP3    H244640   0.420   6.269   0.289
 7717TIP3   OH244641   0.232   4.053   2.737
 7717TIP3    H144642   0.279   4.092   2.663
 7717TIP3    H244643   0.146   4.031   2.702
 7718TIP3   OH244644   5.905   0.068   0.703
 7718TIP3    H144645   5.971   0.007   0.671
 7718TIP3    H244646   5.931   0.087   0.793
 7719TIP3   OH244647   2.644   3.157  14.388
 7719TIP3    H144648   2.553   3.178  14.367
 7719TIP3    H244649   2.644   3.138  14.481
 7720TIP3   OH244650   1.083   4.236  14.259
 7720TIP3    H144651   1.107   4.318  14.301
 7720TIP3    H244652   1.163   4.184  14.260
 7721TIP3   OH244653   5.762   6.102  12.245
 7721TIP3    H144654   5.842   6.119  12.195
 7721TIP3    H244655   5.768   6.010  12.269
 7722TIP3   OH244656   5.555   4.296   5.600
 7722TIP3    H144657   5.648   4.296   5.621
 7722TIP3    H244658   5.514   4.338   5.676
 7723TIP3   OH244659   4.021   6.147  13.764
 7723TIP3    H144660   4.027   6.165  13.670
 7723TIP3    H244661   4.111   6.153  13.796
 7724TIP3   OH244662   1.510   5.037   2.810
 7724TIP3    H144663   1.548   4.984   2.740
 7724TIP3    H244664   1.585   5.083   2.848
 7725TIP3   OH244665   4.116   5.513  11.132
 7725TIP3    H144666   4.184   5.447  11.146
 7725TIP3    H244667   4.158   5.580  11.078
 7726TIP3   OH244668   5.322   1.642   3.355
 7726TIP3    H144669   5.364   1.564   3.391
 7726TIP3    H244670   5.231   1.635   3.384
 7727TIP3   OH244671   2.280   4.608   1.653
 7727TIP3    H144672   2.332   4.575   1.726
 7727TIP3    H244673   2.304   4.553   1.579
 7728TIP3   OH244674   6.007   4.548   5.824
 7728TIP3    H144675   5.968   4.535   5.737
 7728TIP3    H244676   6.099   4.566   5.807
 7729TIP3   OH244677   1.838   3.068  14.224
 7729TIP3    H144678   1.814   2.985  14.265
 7729TIP3    H244679   1.754   3.109  14.203
 7730TIP3   OH244680   6.356   4.658   4.917
 7730TIP3    H144681   6.361   4.563   4.919
 7730TIP3    H244682   6.440   4.686   4.881
 7731TIP3   OH244683   4.693   0.544  16.580
 7731TIP3    H144684   4.775   0.539  16.531
 7731TIP3    H244685   4.641   0.609  16.533
 7732TIP3   OH244686   0.354   2.592   5.817
 7732TIP3    H144687   0.368   2.519   5.757
 7732TIP3    H244688   0.274   2.569   5.865
 7733TIP3   OH244689   0.174   2.177  11.051
 7733TIP3    H144690   0.156   2.256  11.000
 7733TIP3    H244691   0.208   2.114  10.988
 7734TIP3   OH244692   5.399   6.108   4.860
 7734TIP3    H144693   5.419   6.040   4.924
 7734TIP3    H244694   5.338   6.167   4.905
 7735TIP3   OH244695   4.226   3.055  10.987
 7735TIP3    H144696   4.281   3.075  11.063
 7735TIP3    H244697   4.156   3.000  11.022
 7736TIP3   OH244698   3.162   5.977  14.357
 7736TIP3    H144699   3.163   6.066  14.390
 7736TIP3    H244700   3.153   5.986  14.263
 7737TIP3   OH244701   6.605   6.573   1.916
 7737TIP3    H144702   6.684   6.623   1.896
 7737TIP3    H244703   6.613   6.550   2.008
 7738TIP3   OH244704   4.653   0.500   4.482
 7738TIP3    H144705   4.565   0.509   4.444
 7738TIP3    H244706   4.700   0.578   4.451
 7739TIP3   OH244707   2.306   2.716  13.389
 7739TIP3    H144708   2.238   2.655  13.416
 7739TIP3    H244709   2.311   2.780  13.460
 7740TIP3   OH244710   5.641   0.410   2.937
 7740TIP3    H144711   5.690   0.329   2.929
 7740TIP3    H244712   5.631   0.442   2.847
 7741TIP3   OH244713   3.695   5.304   1.019
 7741TIP3    H144714   3.762   5.355   1.063
 7741TIP3    H244715   3.708   5.321   0.926
 7742TIP3   OH244716   6.750   1.402   2.077
 7742TIP3    H144717   6.659   1.387   2.100
 7742TIP3    H244718   6.747   1.452   1.996
 7743TIP3   OH244719   0.093   2.518   5.872
 7743TIP3    H144720   0.078   2.424   5.859
 7743TIP3    H244721   0.013   2.549   5.913
 7744TIP3   OH244722   3.605   1.634  12.666
 7744TIP3    H144723   3.590   1.711  12.721
 7744TIP3    H244724   3.535   1.638  12.601
 7745TIP3   OH244725   4.986   1.016  11.513
 7745TIP3    H144726   5.007   0.975  11.597
 7745TIP3    H244727   5.005   1.109  11.526
 7746TIP3   OH244728   5.353   6.356  12.761
 7746TIP3    H144729   5.301   6.311  12.694
 7746TIP3    H244730   5.345   6.448  12.738
 7747TIP3   OH244731   4.636   4.205  11.232
 7747TIP3    H144732   4.697   4.266  11.274
 7747TIP3    H244733   4.678   4.183  11.149
 7748TIP3   OH244734   2.581   6.106   4.962
 7748TIP3    H144735   2.609   6.197   4.972
 7748TIP3    H244736   2.488   6.112   4.943
 7749TIP3   OH244737   3.682   2.653   5.496
 7749TIP3    H144738   3.613   2.586   5.499
 7749TIP3    H244739   3.760   2.609   5.530
 7750TIP3   OH244740   2.978   1.307  16.389
 7750TIP3    H144741   2.929   1.317  16.308
 7750TIP3    H244742   3.070   1.308  16.362
 7751TIP3   OH244743   3.408   2.510  15.233
 7751TIP3    H144744   3.447   2.528  15.148
 7751TIP3    H244745   3.462   2.560  15.295
 7752TIP3   OH244746   2.930   3.455   3.910
 7752TIP3    H144747   2.852   3.508   3.929
 7752TIP3    H244748   2.896   3.366   3.899
 7753TIP3   OH244749   1.612   2.699  12.467
 7753TIP3    H144750   1.686   2.641  12.452
 7753TIP3    H244751   1.650   2.786  12.475
 7754TIP3   OH244752   5.025   3.689  14.313
 7754TIP3    H144753   5.104   3.739  14.293
 7754TIP3    H244754   5.057   3.616  14.366
 7755TIP3   OH244755   0.333   3.326   2.059
 7755TIP3    H144756   0.407   3.279   2.022
 7755TIP3    H244757   0.310   3.278   2.139
 7756TIP3   OH244758   0.102   4.457  15.221
 7756TIP3    H144759   0.076   4.428  15.308
 7756TIP3    H244760   0.175   4.400  15.197
 7757TIP3   OH244761   1.690   6.054  13.447
 7757TIP3    H144762   1.755   6.078  13.513
 7757TIP3    H244763   1.619   6.116  13.459
 7758TIP3   OH244764   4.235   2.271   1.357
 7758TIP3    H144765   4.202   2.190   1.394
 7758TIP3    H244766   4.202   2.340   1.415
 7759TIP3   OH244767   1.309   5.597   0.700
 7759TIP3    H144768   1.355   5.526   0.655
 7759TIP3    H244769   1.329   5.675   0.649
 7760TIP3   OH244770   0.089   0.490  14.825
 7760TIP3    H144771   0.068   0.462  14.914
 7760TIP3    H244772   0.123   0.579  14.835
 7761TIP3   OH244773   0.790   6.331  17.095
 7761TIP3    H144774   0.737   6.306  17.171
 7761TIP3    H244775   0.726   6.363  17.031
 7762TIP3   OH244776   5.958   2.240   3.728
 7762TIP3    H144777   5.939   2.149   3.706
 7762TIP3    H244778   6.032   2.236   3.789
 7763TIP3   OH244779   5.424   1.239  16.554
 7763TIP3    H144780   5.505   1.188  16.545
 7763TIP3    H244781   5.357   1.187  16.510
 7764TIP3   OH244782   0.312   1.977  16.419
 7764TIP3    H144783   0.242   1.927  16.460
 7764TIP3    H244784   0.357   2.019  16.492
 7765TIP3   OH244785   2.661   2.718   4.358
 7765TIP3    H144786   2.579   2.712   4.406
 7765TIP3    H244787   2.717   2.651   4.397
 7766TIP3   OH244788   3.157   5.688   6.211
 7766TIP3    H144789   3.138   5.770   6.257
 7766TIP3    H244790   3.071   5.648   6.197
 7767TIP3   OH244791   5.423   4.260  16.965
 7767TIP3    H144792   5.509   4.276  16.926
 7767TIP3    H244793   5.410   4.334  17.024
 7768TIP3   OH244794   3.849   6.214  10.821
 7768TIP3    H144795   3.881   6.125  10.837
 7768TIP3    H244796   3.767   6.201  10.774
 7769TIP3   OH244797   1.035   2.265   6.138
 7769TIP3    H144798   1.043   2.229   6.050
 7769TIP3    H244799   1.044   2.359   6.127
 7770TIP3   OH244800   6.237   6.055   4.868
 7770TIP3    H144801   6.264   6.147   4.862
 7770TIP3    H244802   6.141   6.058   4.858
 7771TIP3   OH244803   4.077   1.751   5.080
 7771TIP3    H144804   4.123   1.822   5.124
 7771TIP3    H244805   4.050   1.692   5.151
 7772TIP3   OH244806   2.001   2.092  12.759
 7772TIP3    H144807   2.079   2.089  12.815
 7772TIP3    H244808   2.019   2.163  12.697
 7773TIP3   OH244809   2.706   1.921  10.860
 7773TIP3    H144810   2.711   1.935  10.765
 7773TIP3    H244811   2.789   1.877  10.882
 7774TIP3   OH244812   6.674   6.627  16.306
 7774TIP3    H144813   6.593   6.612  16.258
 7774TIP3    H244814   6.650   6.617  16.398
 7775TIP3   OH244815   5.710   0.405   3.236
 7775TIP3    H144816   5.638   0.364   3.187
 7775TIP3    H244817   5.684   0.397   3.327
 7776TIP3   OH244818   5.871   3.790   5.842
 7776TIP3    H144819   5.911   3.864   5.796
 7776TIP3    H244820   5.901   3.799   5.933
 7777TIP3   OH244821   2.809   2.005   4.228
 7777TIP3    H144822   2.769   1.988   4.143
 7777TIP3    H244823   2.764   2.082   4.262
 7778TIP3   OH244824   1.818   6.422   0.908
 7778TIP3    H144825   1.894   6.431   0.852
 7778TIP3    H244826   1.770   6.504   0.897
 7779TIP3   OH244827   1.003   2.146  11.423
 7779TIP3    H144828   0.993   2.055  11.395
 7779TIP3    H244829   0.922   2.189  11.395
 7780TIP3   OH244830   0.861   1.779  10.701
 7780TIP3    H144831   0.828   1.858  10.658
 7780TIP3    H244832   0.895   1.810  10.785
 7781TIP3   OH244833   3.311   5.560   3.678
 7781TIP3    H144834   3.323   5.632   3.616
 7781TIP3    H244835   3.256   5.597   3.747
 7782TIP3   OH244836   0.876   5.677  12.313
 7782TIP3    H144837   0.846   5.679  12.223
 7782TIP3    H244838   0.860   5.766  12.346
 7783TIP3   OH244839   4.533   3.879   5.338
 7783TIP3    H144840   4.570   3.874   5.426
 7783TIP3    H244841   4.607   3.901   5.282
 7784TIP3   OH244842   2.280   5.319  16.919
 7784TIP3    H144843   2.185   5.307  16.911
 7784TIP3    H244844   2.294   5.351  17.008
 7785TIP3   OH244845   1.811   3.398   4.958
 7785TIP3    H144846   1.816   3.430   4.868
 7785TIP3    H244847   1.766   3.313   4.950
 7786TIP3   OH244848   3.607   0.350  12.859
 7786TIP3    H144849   3.631   0.443  12.853
 7786TIP3    H244850   3.645   0.321  12.942
 7787TIP3   OH244851   2.154   0.628   2.790
 7787TIP3    H144852   2.141   0.534   2.797
 7787TIP3    H244853   2.219   0.649   2.857
 7788TIP3   OH244854   0.247   5.019   3.325
 7788TIP3    H144855   0.274   5.083   3.391
 7788TIP3    H244856   0.250   4.935   3.370
 7789TIP3   OH244857   1.292   3.809   4.777
 7789TIP3    H144858   1.277   3.718   4.751
 7789TIP3    H244859   1.325   3.803   4.866
 7790TIP3   OH244860   2.633   3.781  12.971
 7790TIP3    H144861   2.627   3.807  13.063
 7790TIP3    H244862   2.627   3.685  12.973
 7791TIP3   OH244863   3.652   4.494   0.359
 7791TIP3    H144864   3.624   4.494   0.450
 7791TIP3    H244865   3.601   4.563   0.317
 7792TIP3   OH244866   0.537   6.626  12.032
 7792TIP3    H144867   0.574   6.559  11.974
 7792TIP3    H244868   0.609   6.689  12.044
 7793TIP3   OH244869   2.577   2.385   6.744
 7793TIP3    H144870   2.510   2.386   6.812
 7793TIP3    H244871   2.553   2.457   6.685
 7794TIP3   OH244872   4.815   2.855   1.297
 7794TIP3    H144873   4.746   2.911   1.335
 7794TIP3    H244874   4.768   2.793   1.242
 7795TIP3   OH244875   4.591   0.754  16.469
 7795TIP3    H144876   4.550   0.768  16.554
 7795TIP3    H244877   4.605   0.842  16.434
 7796TIP3   OH244878   2.388   3.133  11.792
 7796TIP3    H144879   2.309   3.185  11.781
 7796TIP3    H244880   2.388   3.072  11.719
 7797TIP3   OH244881   3.926   3.925  11.197
 7797TIP3    H144882   3.988   3.970  11.140
 7797TIP3    H244883   3.840   3.945  11.160
 7798TIP3   OH244884   4.845   4.227   0.576
 7798TIP3    H144885   4.842   4.178   0.494
 7798TIP3    H244886   4.835   4.318   0.550
 7799TIP3   OH244887   1.851   3.416   3.868
 7799TIP3    H144888   1.756   3.429   3.878
 7799TIP3    H244889   1.875   3.364   3.944
 7800TIP3   OH244890   4.362   2.407  15.521
 7800TIP3    H144891   4.438   2.387  15.467
 7800TIP3    H244892   4.386   2.486  15.569
 7801TIP3   OH244893   2.073   3.339  16.748
 7801TIP3    H144894   2.139   3.274  16.723
 7801TIP3    H244895   2.123   3.419  16.764
 7802TIP3   OH244896   2.261   5.907  12.587
 7802TIP3    H144897   2.296   5.819  12.576
 7802TIP3    H244898   2.323   5.963  12.541
 7803TIP3   OH244899   2.551   3.111   4.902
 7803TIP3    H144900   2.518   3.029   4.939
 7803TIP3    H244901   2.616   3.084   4.837
 7804TIP3   OH244902   4.488   3.583  15.065
 7804TIP3    H144903   4.569   3.540  15.093
 7804TIP3    H244904   4.460   3.632  15.142
 7805TIP3   OH244905   3.597   6.122  14.225
 7805TIP3    H144906   3.585   6.091  14.315
 7805TIP3    H244907   3.509   6.126  14.189
 7806TIP3   OH244908   2.170   5.860   0.771
 7806TIP3    H144909   2.086   5.901   0.750
 7806TIP3    H244910   2.153   5.766   0.769
 7807TIP3   OH244911   4.768   1.144  15.916
 7807TIP3    H144912   4.750   1.050  15.921
 7807TIP3    H244913   4.828   1.160  15.989
 7808TIP3   OH244914   3.013   0.561   6.035
 7808TIP3    H144915   3.082   0.497   6.052
 7808TIP3    H244916   3.055   0.629   5.982
 7809TIP3   OH244917   5.287   3.033   4.848
 7809TIP3    H144918   5.294   3.043   4.943
 7809TIP3    H244919   5.294   3.122   4.814
 7810TIP3   OH244920   0.735   4.634   5.963
 7810TIP3    H144921   0.756   4.726   5.972
 7810TIP3    H244922   0.819   4.589   5.966
 7811TIP3   OH244923   6.651   6.562   3.496
 7811TIP3    H144924   6.608   6.491   3.448
 7811TIP3    H244925   6.629   6.641   3.446
 7812TIP3   OH244926   4.656   4.105  14.072
 7812TIP3    H144927   4.569   4.072  14.094
 7812TIP3    H244928   4.714   4.030  14.088
 7813TIP3   OH244929   6.510   0.539   3.241
 7813TIP3    H144930   6.603   0.538   3.217
 7813TIP3    H244931   6.499   0.620   3.289
 7814TIP3   OH244932   5.652   0.616   0.156
 7814TIP3    H144933   5.601   0.651   0.083
 7814TIP3    H244934   5.735   0.590   0.118
 7815TIP3   OH244935   1.769   5.377  14.155
 7815TIP3    H144936   1.706   5.439  14.192
 7815TIP3    H244937   1.761   5.390  14.060
 7816TIP3   OH244938   4.754   4.230   0.270
 7816TIP3    H144939   4.722   4.247   0.182
 7816TIP3    H244940   4.808   4.152   0.261
 7817TIP3   OH244941   2.373   5.509   6.374
 7817TIP3    H144942   2.300   5.507   6.436
 7817TIP3    H244943   2.337   5.471   6.294
 7818TIP3   OH244944   5.631   2.720   2.501
 7818TIP3    H144945   5.678   2.637   2.495
 7818TIP3    H244946   5.672   2.776   2.436
 7819TIP3   OH244947   5.564   5.105   2.068
 7819TIP3    H144948   5.469   5.094   2.063
 7819TIP3    H244949   5.579   5.142   2.155
 7820TIP3   OH244950   1.702   4.328  15.188
 7820TIP3    H144951   1.640   4.349  15.259
 7820TIP3    H244952   1.673   4.382  15.115
 7821TIP3   OH244953   5.831   0.835   0.323
 7821TIP3    H144954   5.915   0.846   0.277
 7821TIP3    H244955   5.766   0.875   0.265
 7822TIP3   OH244956   3.052   4.709  15.901
 7822TIP3    H144957   2.990   4.758  15.847
 7822TIP3    H244958   2.997   4.656  15.959
 7823TIP3   OH244959   1.335   3.150  11.194
 7823TIP3    H144960   1.356   3.166  11.102
 7823TIP3    H244961   1.300   3.061  11.195
 7824TIP3   OH244962   0.080   4.892  11.311
 7824TIP3    H144963   0.091   4.891  11.216
 7824TIP3    H244964   0.155   4.844  11.345
 7825TIP3   OH244965   5.969   0.458   6.832
 7825TIP3    H144966   5.937   0.369   6.816
 7825TIP3    H244967   6.037   0.446   6.899
 7826TIP3   OH244968   6.697   0.712  11.788
 7826TIP3    H144969   6.657   0.783  11.737
 7826TIP3    H244970   6.780   0.747  11.818
 7827TIP3   OH244971   6.681   4.257  12.865
 7827TIP3    H144972   6.666   4.351  12.861
 7827TIP3    H244973   6.776   4.247  12.851
 7828TIP3   OH244974   0.281   1.994  12.303
 7828TIP3    H144975   0.253   2.063  12.364
 7828TIP3    H244976   0.243   1.914  12.338
 7829TIP3   OH244977   6.372   1.836   5.105
 7829TIP3    H144978   6.309   1.778   5.147
 7829TIP3    H244979   6.458   1.798   5.126
 7830TIP3   OH244980   0.562   1.644  12.842
 7830TIP3    H144981   0.608   1.584  12.900
 7830TIP3    H244982   0.479   1.600  12.821
 7831TIP3   OH244983   3.007   4.090  12.130
 7831TIP3    H144984   2.976   4.106  12.041
 7831TIP3    H244985   3.047   4.173  12.157
 7832TIP3   OH244986   6.215   5.865   1.300
 7832TIP3    H144987   6.159   5.917   1.242
 7832TIP3    H244988   6.176   5.777   1.298
 7833TIP3   OH244989   3.382   0.199   2.604
 7833TIP3    H144990   3.418   0.110   2.597
 7833TIP3    H244991   3.398   0.238   2.518
 7834TIP3   OH244992   5.258   1.910  13.757
 7834TIP3    H144993   5.172   1.918  13.799
 7834TIP3    H244994   5.260   1.980  13.693
 7835TIP3   OH244995   4.113   4.989  14.312
 7835TIP3    H144996   4.071   5.058  14.261
 7835TIP3    H244997   4.186   5.032  14.355
 7836TIP3   OH244998   4.664   2.423  15.519
 7836TIP3    H144999   4.687   2.513  15.500
 7836TIP3    H245000   4.743   2.386  15.560
 7837TIP3   OH245001   1.797   4.953  11.292
 7837TIP3    H145002   1.788   4.862  11.263
 7837TIP3    H245003   1.772   5.005  11.216
 7838TIP3   OH245004   6.672   0.491  15.639
 7838TIP3    H145005   6.652   0.479  15.546
 7838TIP3    H245006   6.739   0.559  15.641
 7839TIP3   OH245007   2.117   1.863   6.947
 7839TIP3    H145008   2.115   1.768   6.951
 7839TIP3    H245009   2.122   1.883   6.853
 7840TIP3   OH245010   4.650   2.346  13.111
 7840TIP3    H145011   4.578   2.338  13.174
 7840TIP3    H245012   4.676   2.256  13.094
 7841TIP3   OH245013   3.200   0.776   0.810
 7841TIP3    H145014   3.219   0.763   0.903
 7841TIP3    H245015   3.167   0.865   0.804
 7842TIP3   OH245016   6.702   2.615   1.420
 7842TIP3    H145017   6.617   2.571   1.421
 7842TIP3    H245018   6.687   2.695   1.370
 7843TIP3   OH245019   5.558   3.823  16.703
 7843TIP3    H145020   5.577   3.908  16.663
 7843TIP3    H245021   5.470   3.833  16.739
 7844TIP3   OH245022   0.611   3.145   3.494
 7844TIP3    H145023   0.683   3.208   3.487
 7844TIP3    H245024   0.653   3.060   3.500
 7845TIP3   OH245025   4.855   4.221   2.863
 7845TIP3    H145026   4.949   4.236   2.874
 7845TIP3    H245027   4.845   4.126   2.869
 7846TIP3   OH245028   6.023   3.895  15.159
 7846TIP3    H145029   5.940   3.913  15.116
 7846TIP3    H245030   6.066   3.831  15.101
 7847TIP3   OH245031   3.407   1.872   4.449
 7847TIP3    H145032   3.446   1.952   4.414
 7847TIP3    H245033   3.347   1.901   4.517
 7848TIP3   OH245034   0.221   0.328  12.604
 7848TIP3    H145035   0.170   0.355  12.528
 7848TIP3    H245036   0.256   0.242  12.580
 7849TIP3   OH245037   4.366   1.509   6.116
 7849TIP3    H145038   4.368   1.585   6.057
 7849TIP3    H245039   4.275   1.504   6.145
 7850TIP3   OH245040   5.082   6.010   5.646
 7850TIP3    H145041   5.044   5.982   5.729
 7850TIP3    H245042   5.060   6.103   5.640
 7851TIP3   OH245043   6.702   4.006  13.624
 7851TIP3    H145044   6.693   3.918  13.587
 7851TIP3    H245045   6.795   4.025  13.621
 7852TIP3   OH245046   0.422   6.254   5.307
 7852TIP3    H145047   0.366   6.257   5.384
 7852TIP3    H245048   0.451   6.163   5.301
 7853TIP3   OH245049   1.654   4.969  14.953
 7853TIP3    H145050   1.617   4.900  14.898
 7853TIP3    H245051   1.703   5.025  14.892
 7854TIP3   OH245052   4.989   6.280   3.712
 7854TIP3    H145053   4.987   6.374   3.729
 7854TIP3    H245054   4.909   6.246   3.752
 7855TIP3   OH245055   4.266   3.550   1.793
 7855TIP3    H145056   4.260   3.541   1.698
 7855TIP3    H245057   4.310   3.634   1.807
 7856TIP3   OH245058   3.317   5.912   4.141
 7856TIP3    H145059   3.316   6.004   4.168
 7856TIP3    H245060   3.370   5.911   4.061
 7857TIP3   OH245061   2.373   1.657  16.274
 7857TIP3    H145062   2.401   1.698  16.192
 7857TIP3    H245063   2.293   1.704  16.298
 7858TIP3   OH245064   2.954   2.984  12.030
 7858TIP3    H145065   2.904   3.043  11.974
 7858TIP3    H245066   3.038   3.028  12.042
 7859TIP3   OH245067   4.967   0.825  14.226
 7859TIP3    H145068   4.972   0.884  14.302
 7859TIP3    H245069   4.959   0.737  14.264
 7860TIP3   OH245070   1.025   0.875  11.762
 7860TIP3    H145071   1.081   0.939  11.805
 7860TIP3    H245072   0.985   0.826  11.834
 7861TIP3   OH245073   4.976   5.989   4.687
 7861TIP3    H145074   4.947   6.073   4.651
 7861TIP3    H245075   4.895   5.938   4.695
 7862TIP3   OH245076   3.682   5.978   3.139
 7862TIP3    H145077   3.716   5.986   3.228
 7862TIP3    H245078   3.640   5.892   3.137
 7863TIP3   OH245079   1.762   3.023   4.637
 7863TIP3    H145080   1.686   3.011   4.579
 7863TIP3    H245081   1.808   2.939   4.634
 7864TIP3   OH245082   1.029   2.559  14.032
 7864TIP3    H145083   1.073   2.531  14.112
 7864TIP3    H245084   0.958   2.616  14.063
 7865TIP3   OH245085   0.964   5.983  14.609
 7865TIP3    H145086   0.914   5.916  14.563
 7865TIP3    H245087   0.909   6.061  14.604
 7866TIP3   OH245088   3.693   6.464  16.660
 7866TIP3    H145089   3.750   6.530  16.622
 7866TIP3    H245090   3.694   6.483  16.754
 7867TIP3   OH245091   6.606   2.898   0.542
 7867TIP3    H145092   6.553   2.977   0.552
 7867TIP3    H245093   6.583   2.865   0.455
 7868TIP3   OH245094   6.803   1.118   5.962
 7868TIP3    H145095   6.803   1.022   5.955
 7868TIP3    H245096   6.715   1.144   5.933
 7869TIP3   OH245097   0.163   4.502  17.272
 7869TIP3    H145098   0.255   4.480  17.253
 7869TIP3    H245099   0.156   4.595  17.248
 7870TIP3   OH245100   5.525   3.131   2.717
 7870TIP3    H145101   5.444   3.080   2.723
 7870TIP3    H245102   5.550   3.148   2.808
 7871TIP3   OH245103   0.272   2.508   6.228
 7871TIP3    H145104   0.254   2.445   6.159
 7871TIP3    H245105   0.190   2.557   6.237
 7872TIP3   OH245106   3.351   1.493   2.825
 7872TIP3    H145107   3.435   1.537   2.831
 7872TIP3    H245108   3.340   1.448   2.908
 7873TIP3   OH245109   3.744   2.504   0.586
 7873TIP3    H145110   3.806   2.512   0.659
 7873TIP3    H245111   3.685   2.434   0.613
 7874TIP3   OH245112   6.554   0.287   5.394
 7874TIP3    H145113   6.494   0.360   5.379
 7874TIP3    H245114   6.531   0.224   5.326
 7875TIP3   OH245115   0.258   5.327  16.206
 7875TIP3    H145116   0.288   5.318  16.115
 7875TIP3    H245117   0.174   5.280  16.208
 7876TIP3   OH245118   1.775   1.530   0.381
 7876TIP3    H145119   1.800   1.442   0.353
 7876TIP3    H245120   1.810   1.587   0.312
 7877TIP3   OH245121   5.086   4.575   2.913
 7877TIP3    H145122   5.005   4.620   2.890
 7877TIP3    H245123   5.125   4.629   2.982
 7878TIP3   OH245124   5.375   6.720  12.081
 7878TIP3    H145125   5.323   6.639  12.073
 7878TIP3    H245126   5.352   6.771  12.004
 7879TIP3   OH245127   0.514   6.813  16.957
 7879TIP3    H145128   0.486   6.832  17.046
 7879TIP3    H245129   0.434   6.819  16.904
 7880TIP3   OH245130   6.793   2.359   3.345
 7880TIP3    H145131   6.872   2.395   3.386
 7880TIP3    H245132   6.785   2.406   3.262
 7881TIP3   OH245133   5.595   1.499  16.456
 7881TIP3    H145134   5.686   1.503  16.428
 7881TIP3    H245135   5.599   1.489  16.551
 7882TIP3   OH245136   5.877   0.483   1.779
 7882TIP3    H145137   5.782   0.479   1.791
 7882TIP3    H245138   5.913   0.452   1.863
 7883TIP3   OH245139   1.398   3.560   1.166
 7883TIP3    H145140   1.482   3.601   1.143
 7883TIP3    H245141   1.336   3.633   1.168
 7884TIP3   OH245142   1.898   2.558   0.431
 7884TIP3    H145143   1.966   2.616   0.396
 7884TIP3    H245144   1.881   2.591   0.519
 7885TIP3   OH245145   3.493   0.664   3.543
 7885TIP3    H145146   3.425   0.707   3.596
 7885TIP3    H245147   3.444   0.614   3.478
 7886TIP3   OH245148   6.668   0.744   1.507
 7886TIP3    H145149   6.581   0.706   1.502
 7886TIP3    H245150   6.722   0.673   1.543
 7887TIP3   OH245151   5.140   1.608  15.427
 7887TIP3    H145152   5.146   1.545  15.499
 7887TIP3    H245153   5.220   1.594  15.376
 7888TIP3   OH245154   1.337   6.025   2.964
 7888TIP3    H145155   1.252   6.002   2.926
 7888TIP3    H245156   1.342   6.120   2.955
 7889TIP3   OH245157   2.793   5.784   0.949
 7889TIP3    H145158   2.706   5.798   0.986
 7889TIP3    H245159   2.839   5.866   0.966
 7890TIP3   OH245160   3.375   2.712   1.207
 7890TIP3    H145161   3.310   2.657   1.163
 7890TIP3    H245162   3.456   2.696   1.159
 7891TIP3   OH245163   4.762   1.329   1.374
 7891TIP3    H145164   4.668   1.315   1.388
 7891TIP3    H245165   4.773   1.424   1.382
 7892TIP3   OH245166   6.157   1.495   6.145
 7892TIP3    H145167   6.235   1.484   6.199
 7892TIP3    H245168   6.084   1.479   6.205
 7893TIP3   OH245169   1.515   1.912   4.051
 7893TIP3    H145170   1.494   1.934   4.142
 7893TIP3    H245171   1.588   1.850   4.057
 7894TIP3   OH245172   1.215   2.170  16.128
 7894TIP3    H145173   1.265   2.195  16.050
 7894TIP3    H245174   1.245   2.229  16.197
 7895TIP3   OH245175   2.337   5.753  12.295
 7895TIP3    H145176   2.321   5.661  12.273
 7895TIP3    H245177   2.402   5.782  12.231
 7896TIP3   OH245178   4.541   3.195   4.855
 7896TIP3    H145179   4.485   3.155   4.788
 7896TIP3    H245180   4.567   3.122   4.911
 7897TIP3   OH245181   5.669   4.638  12.152
 7897TIP3    H145182   5.694   4.594  12.233
 7897TIP3    H245183   5.752   4.662  12.110
 7898TIP3   OH245184   2.167   6.486   3.695
 7898TIP3    H145185   2.164   6.391   3.709
 7898TIP3    H245186   2.245   6.500   3.641
 7899TIP3   OH245187   2.230   0.167   6.956
 7899TIP3    H145188   2.169   0.190   6.885
 7899TIP3    H245189   2.173   0.148   7.031
 7900TIP3   OH245190   4.686   0.905  11.445
 7900TIP3    H145191   4.724   0.819  11.462
 7900TIP3    H245192   4.756   0.967  11.468
 7901TIP3   OH245193   2.394   4.172  14.618
 7901TIP3    H145194   2.328   4.112  14.652
 7901TIP3    H245195   2.406   4.144  14.527
 7902TIP3   OH245196   6.596   1.096   2.769
 7902TIP3    H145197   6.568   1.158   2.701
 7902TIP3    H245198   6.649   1.031   2.722
 7903TIP3   OH245199   1.798   2.628  13.148
 7903TIP3    H145200   1.856   2.645  13.222
 7903TIP3    H245201   1.710   2.645  13.181
 7904TIP3   OH245202   6.520   2.159  14.199
 7904TIP3    H145203   6.546   2.192  14.113
 7904TIP3    H245204   6.435   2.198  14.215
 7905TIP3   OH245205   5.284   2.824  16.283
 7905TIP3    H145206   5.295   2.825  16.378
 7905TIP3    H245207   5.298   2.732  16.258
 7906TIP3   OH245208   0.268   1.979  13.919
 7906TIP3    H145209   0.360   1.997  13.899
 7906TIP3    H245210   0.270   1.896  13.967
 7907TIP3   OH245211   4.931   5.770  12.919
 7907TIP3    H145212   4.878   5.849  12.909
 7907TIP3    H245213   5.021   5.801  12.915
 7908TIP3   OH245214   4.401   2.788   0.959
 7908TIP3    H145215   4.455   2.720   0.999
 7908TIP3    H245216   4.406   2.769   0.865
 7909TIP3   OH245217   6.058   0.551   5.421
 7909TIP3    H145218   6.066   0.568   5.327
 7909TIP3    H245219   5.964   0.546   5.437
 7910TIP3   OH245220   2.365   6.123   0.661
 7910TIP3    H145221   2.380   6.069   0.583
 7910TIP3    H245222   2.326   6.063   0.725
 7911TIP3   OH245223   5.080   2.897   1.335
 7911TIP3    H145224   5.087   2.972   1.276
 7911TIP3    H245225   4.987   2.874   1.334
 7912TIP3   OH245226   0.640   0.101  15.621
 7912TIP3    H145227   0.733   0.115  15.638
 7912TIP3    H245228   0.620   0.019  15.666
 7913TIP3   OH245229   1.230   4.695  16.618
 7913TIP3    H145230   1.174   4.669  16.690
 7913TIP3    H245231   1.172   4.746  16.560
 7914TIP3   OH245232   2.822   0.200   1.342
 7914TIP3    H145233   2.893   0.183   1.280
 7914TIP3    H245234   2.864   0.200   1.428
 7915TIP3   OH245235   2.821   2.366   6.658
 7915TIP3    H145236   2.805   2.306   6.586
 7915TIP3    H245237   2.742   2.360   6.712
 7916TIP3   OH245238   5.184   2.920  12.874
 7916TIP3    H145239   5.118   2.883  12.815
 7916TIP3    H245240   5.250   2.852  12.881
 7917TIP3   OH245241   1.799   2.281   3.936
 7917TIP3    H145242   1.704   2.290   3.948
 7917TIP3    H245243   1.836   2.352   3.988
 7918TIP3   OH245244   2.232   2.352   1.594
 7918TIP3    H145245   2.322   2.360   1.564
 7918TIP3    H245246   2.232   2.277   1.654
 7919TIP3   OH245247   5.425   5.540  11.627
 7919TIP3    H145248   5.351   5.478  11.625
 7919TIP3    H245249   5.398   5.607  11.689
 7920TIP3   OH245250   2.708   5.210  16.526
 7920TIP3    H145251   2.656   5.270  16.474
 7920TIP3    H245252   2.756   5.267  16.587
 7921TIP3   OH245253   0.756   0.696  15.383
 7921TIP3    H145254   0.748   0.616  15.331
 7921TIP3    H245255   0.666   0.725  15.397
 7922TIP3   OH245256   5.165   6.109  13.053
 7922TIP3    H145257   5.140   6.053  12.980
 7922TIP3    H245258   5.088   6.165  13.067
 7923TIP3   OH245259   4.405   3.664  15.798
 7923TIP3    H145260   4.354   3.734  15.839
 7923TIP3    H245261   4.427   3.698  15.711
 7924TIP3   OH245262   3.614   2.274   3.365
 7924TIP3    H145263   3.592   2.357   3.408
 7924TIP3    H245264   3.582   2.284   3.276
 7925TIP3   OH245265   1.354   5.770  11.694
 7925TIP3    H145266   1.278   5.713  11.683
 7925TIP3    H245267   1.426   5.710  11.714
 7926TIP3   OH245268   6.338   2.699   3.581
 7926TIP3    H145269   6.373   2.771   3.634
 7926TIP3    H245270   6.412   2.640   3.570
 7927TIP3   OH245271   5.471   6.402   4.696
 7927TIP3    H145272   5.519   6.480   4.722
 7927TIP3    H245273   5.417   6.381   4.773
 7928TIP3   OH245274   6.241   0.519  14.453
 7928TIP3    H145275   6.228   0.467  14.373
 7928TIP3    H245276   6.329   0.555  14.444
 7929TIP3   OH245277   0.407   0.968   0.536
 7929TIP3    H145278   0.386   0.893   0.481
 7929TIP3    H245279   0.502   0.981   0.524
 7930TIP3   OH245280   3.048   0.946  16.855
 7930TIP3    H145281   2.963   0.902  16.850
 7930TIP3    H245282   3.043   1.000  16.934
 7931TIP3   OH245283   1.741   2.894  15.583
 7931TIP3    H145284   1.829   2.911  15.615
 7931TIP3    H245285   1.718   2.808  15.619
 7932TIP3   OH245286   0.618   4.972  16.122
 7932TIP3    H145287   0.582   5.031  16.056
 7932TIP3    H245288   0.563   4.987  16.199
 7933TIP3   OH245289   4.667   5.961   2.484
 7933TIP3    H145290   4.700   5.919   2.563
 7933TIP3    H245291   4.574   5.975   2.502
 7934TIP3   OH245292   6.756   0.421  11.882
 7934TIP3    H145293   6.758   0.501  11.831
 7934TIP3    H245294   6.819   0.437  11.953
 7935TIP3   OH245295   4.301   3.931   5.779
 7935TIP3    H145296   4.208   3.941   5.756
 7935TIP3    H245297   4.326   4.016   5.815
 7936TIP3   OH245298   4.406   2.230   1.145
 7936TIP3    H145299   4.362   2.267   1.221
 7936TIP3    H245300   4.352   2.155   1.120
 7937TIP3   OH245301   2.015   6.508   5.976
 7937TIP3    H145302   2.059   6.497   5.891
 7937TIP3    H245303   1.977   6.595   5.972
 7938TIP3   OH245304   1.861   3.129   2.176
 7938TIP3    H145305   1.775   3.117   2.136
 7938TIP3    H245306   1.891   3.214   2.145
 7939TIP3   OH245307   4.775   1.942   2.007
 7939TIP3    H145308   4.694   1.945   2.058
 7939TIP3    H245309   4.790   1.849   1.991
 7940TIP3   OH245310   5.031   1.808  12.983
 7940TIP3    H145311   5.107   1.750  12.988
 7940TIP3    H245312   4.968   1.760  12.929
 7941TIP3   OH245313   6.317   4.406   5.445
 7941TIP3    H145314   6.264   4.477   5.479
 7941TIP3    H245315   6.272   4.326   5.472
 7942TIP3   OH245316   3.863   5.878   0.405
 7942TIP3    H145317   3.801   5.950   0.407
 7942TIP3    H245318   3.852   5.838   0.319
 7943TIP3   OH245319   4.402   1.080   5.678
 7943TIP3    H145320   4.385   1.104   5.770
 7943TIP3    H245321   4.405   1.163   5.632
 7944TIP3   OH245322   0.998   4.850  14.910
 7944TIP3    H145323   1.010   4.892  14.995
 7944TIP3    H245324   1.021   4.918  14.846
 7945TIP3   OH245325   1.779   6.183  12.070
 7945TIP3    H145326   1.731   6.100  12.069
 7945TIP3    H245327   1.760   6.223  11.984
 7946TIP3   OH245328   3.016   5.374  14.576
 7946TIP3    H145329   3.068   5.316  14.632
 7946TIP3    H245330   2.946   5.405  14.633
 7947TIP3   OH245331   2.119   0.985  13.829
 7947TIP3    H145332   2.029   0.986  13.861
 7947TIP3    H245333   2.123   0.907  13.773
 7948TIP3   OH245334   3.148   4.403   2.882
 7948TIP3    H145335   3.210   4.375   2.815
 7948TIP3    H245336   3.114   4.321   2.918
 7949TIP3   OH245337   1.697   5.631  14.966
 7949TIP3    H145338   1.763   5.586  14.913
 7949TIP3    H245339   1.618   5.577  14.957
 7950TIP3   OH245340   3.377   6.527   4.464
 7950TIP3    H145341   3.397   6.549   4.555
 7950TIP3    H245342   3.461   6.503   4.426
 7951TIP3   OH245343   1.107   4.180   4.391
 7951TIP3    H145344   1.067   4.225   4.465
 7951TIP3    H245345   1.078   4.090   4.399
 7952TIP3   OH245346   1.240   2.687   4.036
 7952TIP3    H145347   1.222   2.624   3.966
 7952TIP3    H245348   1.216   2.772   3.999
 7953TIP3   OH245349   5.301   3.739   2.841
 7953TIP3    H145350   5.380   3.792   2.832
 7953TIP3    H245351   5.328   3.665   2.895
 7954TIP3   OH245352   1.641   4.883   2.613
 7954TIP3    H145353   1.733   4.902   2.599
 7954TIP3    H245354   1.604   4.879   2.525
 7955TIP3   OH245355   0.181   3.277  13.840
 7955TIP3    H145356   0.211   3.268  13.750
 7955TIP3    H245357   0.257   3.311  13.887
 7956TIP3   OH245358   0.063   1.425  13.585
 7956TIP3    H145359   0.122   1.497  13.565
 7956TIP3    H245360   0.118   1.361  13.631
 7957TIP3   OH245361   1.545   2.098  16.214
 7957TIP3    H145362   1.516   2.173  16.162
 7957TIP3    H245363   1.606   2.051  16.156
 7958TIP3   OH245364   0.644   1.891   4.883
 7958TIP3    H145365   0.678   1.812   4.841
 7958TIP3    H245366   0.557   1.867   4.913
 7959TIP3   OH245367   3.015   0.771  12.110
 7959TIP3    H145368   3.106   0.765  12.139
 7959TIP3    H245369   2.991   0.681  12.086
 7960TIP3   OH245370   1.774   6.737   6.155
 7960TIP3    H145371   1.773   6.724   6.061
 7960TIP3    H245372   1.741   6.655   6.191
 7961TIP3   OH245373   1.220   5.173  17.275
 7961TIP3    H145374   1.288   5.129  17.224
 7961TIP3    H245375   1.140   5.160  17.225
 7962TIP3   OH245376   5.820   1.683   2.246
 7962TIP3    H145377   5.914   1.665   2.243
 7962TIP3    H245378   5.801   1.696   2.339
 7963TIP3   OH245379   0.547   1.327  15.615
 7963TIP3    H145380   0.529   1.284  15.699
 7963TIP3    H245381   0.639   1.351  15.619
 7964TIP3   OH245382   0.771   6.115   1.595
 7964TIP3    H145383   0.819   6.033   1.604
 7964TIP3    H245384   0.760   6.126   1.500
 7965TIP3   OH245385   1.373   6.432  12.312
 7965TIP3    H145386   1.399   6.356  12.260
 7965TIP3    H245387   1.303   6.473  12.261
 7966TIP3   OH245388   0.288   4.747  16.526
 7966TIP3    H145389   0.292   4.730  16.432
 7966TIP3    H245390   0.350   4.818  16.540
 7967TIP3   OH245391   6.011   0.426  11.487
 7967TIP3    H145392   5.970   0.450  11.405
 7967TIP3    H245393   6.055   0.343  11.468
 7968TIP3   OH245394   1.362   4.386  14.891
 7968TIP3    H145395   1.360   4.300  14.931
 7968TIP3    H245396   1.343   4.446  14.964
 7969TIP3   OH245397   6.223   3.550   5.145
 7969TIP3    H145398   6.198   3.486   5.212
 7969TIP3    H245399   6.169   3.627   5.164
 7970TIP3   OH245400   6.374   5.688  12.749
 7970TIP3    H145401   6.391   5.768  12.800
 7970TIP3    H245402   6.406   5.617  12.804
 7971TIP3   OH245403   0.599   5.808  15.803
 7971TIP3    H145404   0.550   5.756  15.866
 7971TIP3    H245405   0.536   5.874  15.772
 7972TIP3   OH245406   2.541   3.130   4.304
 7972TIP3    H145407   2.465   3.072   4.299
 7972TIP3    H245408   2.562   3.149   4.213
 7973TIP3   OH245409   6.244   5.686  11.885
 7973TIP3    H145410   6.266   5.732  11.966
 7973TIP3    H245411   6.287   5.737  11.817
 7974TIP3   OH245412   4.677   3.680   1.111
 7974TIP3    H145413   4.749   3.632   1.070
 7974TIP3    H245414   4.699   3.772   1.098
 7975TIP3   OH245415   6.710   1.860   5.658
 7975TIP3    H145416   6.682   1.768   5.660
 7975TIP3    H245417   6.629   1.909   5.643
 7976TIP3   OH245418   5.990   3.097   6.455
 7976TIP3    H145419   6.029   3.099   6.367
 7976TIP3    H245420   5.958   3.186   6.468
 7977TIP3   OH245421   0.781   1.263  12.895
 7977TIP3    H145422   0.700   1.309  12.873
 7977TIP3    H245423   0.760   1.216  12.976
 7978TIP3   OH245424   2.259   4.166   1.197
 7978TIP3    H145425   2.258   4.260   1.218
 7978TIP3    H245426   2.252   4.123   1.282
 7979TIP3   OH245427   0.884   6.052   0.446
 7979TIP3    H145428   0.796   6.063   0.412
 7979TIP3    H245429   0.914   6.140   0.467
 7980TIP3   OH245430   3.229   2.395  16.499
 7980TIP3    H145431   3.279   2.476  16.508
 7980TIP3    H245432   3.210   2.388  16.405
 7981TIP3   OH245433   1.777   3.944  13.769
 7981TIP3    H145434   1.728   3.919  13.848
 7981TIP3    H245435   1.722   4.010  13.727
 7982TIP3   OH245436   6.518   3.909  14.188
 7982TIP3    H145437   6.442   3.896  14.244
 7982TIP3    H245438   6.514   4.000  14.161
 7983TIP3   OH245439   4.239   3.443   4.143
 7983TIP3    H145440   4.220   3.536   4.158
 7983TIP3    H245441   4.210   3.426   4.054
 7984TIP3   OH245442   4.884   1.683  11.074
 7984TIP3    H145443   4.878   1.759  11.131
 7984TIP3    H245444   4.794   1.649  11.070
 7985TIP3   OH245445   1.234   3.872  12.666
 7985TIP3    H145446   1.200   3.857  12.754
 7985TIP3    H245447   1.225   3.967  12.653
 7986TIP3   OH245448   4.048   0.039   0.881
 7986TIP3    H145449   4.081   0.128   0.877
 7986TIP3    H245450   3.974   0.037   0.819
 7987TIP3   OH245451   4.670   3.120  17.059
 7987TIP3    H145452   4.750   3.068  17.070
 7987TIP3    H245453   4.599   3.062  17.087
 7988TIP3   OH245454   1.623   3.995   4.079
 7988TIP3    H145455   1.590   3.911   4.111
 7988TIP3    H245456   1.545   4.048   4.065
 7989TIP3   OH245457   3.439   0.700   1.063
 7989TIP3    H145458   3.518   0.669   1.017
 7989TIP3    H245459   3.418   0.629   1.124
 7990TIP3   OH245460   4.468   3.103  13.484
 7990TIP3    H145461   4.496   3.159  13.412
 7990TIP3    H245462   4.547   3.056  13.511
 7991TIP3   OH245463   1.004   4.411  15.807
 7991TIP3    H145464   0.952   4.476  15.854
 7991TIP3    H245465   1.081   4.458  15.776
 7992TIP3   OH245466   2.658   2.702   2.863
 7992TIP3    H145467   2.651   2.625   2.919
 7992TIP3    H245468   2.570   2.740   2.864
 7993TIP3   OH245469   6.448   2.263   4.840
 7993TIP3    H145470   6.538   2.278   4.869
 7993TIP3    H245471   6.414   2.199   4.902
 7994TIP3   OH245472   4.968   1.031   4.669
 7994TIP3    H145473   4.921   0.966   4.616
 7994TIP3    H245474   5.044   0.984   4.703
 7995TIP3   OH245475   6.408   1.015  11.288
 7995TIP3    H145476   6.470   1.087  11.283
 7995TIP3    H245477   6.326   1.050  11.253
 7996TIP3   OH245478   6.121   6.787  13.209
 7996TIP3    H145479   6.030   6.813  13.195
 7996TIP3    H245480   6.121   6.691  13.199
 7997TIP3   OH245481   2.138   0.721  13.361
 7997TIP3    H145482   2.192   0.708  13.439
 7997TIP3    H245483   2.153   0.813  13.338
 7998TIP3   OH245484   3.399   4.464   1.420
 7998TIP3    H145485   3.324   4.413   1.449
 7998TIP3    H245486   3.461   4.400   1.386
 7999TIP3   OH245487   2.798   6.686  15.601
 7999TIP3    H145488   2.735   6.724  15.664
 7999TIP3    H245489   2.877   6.670  15.653
 8000TIP3   OH245490   6.072   1.614   4.104
 8000TIP3    H145491   6.163   1.601   4.079
 8000TIP3    H245492   6.034   1.526   4.104
 8001TIP3   OH245493   1.796   4.535  16.900
 8001TIP3    H145494   1.755   4.508  16.818
 8001TIP3    H245495   1.740   4.500  16.969
 8002TIP3   OH245496   2.808   2.048  16.140
 8002TIP3    H145497   2.785   2.101  16.216
 8002TIP3    H245498   2.850   2.109  16.080
 8003TIP3   OH245499   0.089   0.827  13.590
 8003TIP3    H145500   0.148   0.862  13.524
 8003TIP3    H245501   0.125   0.741  13.612
 8004TIP3   OH245502   3.037   2.053  14.680
 8004TIP3    H145503   2.995   2.060  14.594
 8004TIP3    H245504   3.085   1.970  14.677
 8005TIP3   OH245505   1.987   1.694   2.071
 8005TIP3    H145506   2.056   1.744   2.026
 8005TIP3    H245507   2.033   1.621   2.111
 8006TIP3   OH245508   5.594   2.044   1.390
 8006TIP3    H145509   5.673   2.062   1.440
 8006TIP3    H245510   5.623   1.994   1.314
 8007TIP3   OH245511   5.831   2.802  16.853
 8007TIP3    H145512   5.829   2.897  16.837
 8007TIP3    H245513   5.919   2.786  16.888
 8008TIP3   OH245514   4.978   4.130  13.301
 8008TIP3    H145515   4.965   4.047  13.348
 8008TIP3    H245516   4.890   4.159  13.278
 8009TIP3   OH245517   4.844   4.025  14.435
 8009TIP3    H145518   4.877   4.021  14.345
 8009TIP3    H245519   4.793   3.945  14.446
 8010TIP3   OH245520   1.643   5.629  16.216
 8010TIP3    H145521   1.587   5.703  16.240
 8010TIP3    H245522   1.677   5.652  16.129
 8011TIP3   OH245523   4.126   1.770   1.655
 8011TIP3    H145524   4.197   1.782   1.591
 8011TIP3    H245525   4.099   1.679   1.644
 8012TIP3   OH245526   3.081   2.590  17.239
 8012TIP3    H145527   3.163   2.541  17.243
 8012TIP3    H245528   3.046   2.572  17.152
 8013TIP3   OH245529   0.329   1.847  17.113
 8013TIP3    H145530   0.240   1.846  17.149
 8013TIP3    H245531   0.336   1.765  17.064
 8014TIP3   OH245532   2.244   5.587  13.689
 8014TIP3    H145533   2.210   5.519  13.747
 8014TIP3    H245534   2.309   5.634  13.742
 8015TIP3   OH245535   3.898   2.467   5.233
 8015TIP3    H145536   3.951   2.546   5.224
 8015TIP3    H245537   3.951   2.398   5.193
 8016TIP3   OH245538   2.757   2.932  17.134
 8016TIP3    H145539   2.799   2.904  17.053
 8016TIP3    H245540   2.664   2.914  17.120
 8017TIP3   OH245541   4.186   3.819  10.961
 8017TIP3    H145542   4.142   3.780  10.885
 8017TIP3    H245543   4.131   3.893  10.985
 8018TIP3   OH245544   5.673   1.032   1.544
 8018TIP3    H145545   5.590   1.069   1.513
 8018TIP3    H245546   5.699   1.089   1.616
 8019TIP3   OH245547   0.900   6.136   0.170
 8019TIP3    H145548   0.872   6.147   0.261
 8019TIP3    H245549   0.966   6.203   0.156
 8020TIP3   OH245550   1.639   3.941   1.705
 8020TIP3    H145551   1.562   3.912   1.754
 8020TIP3    H245552   1.638   4.037   1.714
 8021TIP3   OH245553   0.616   0.398  15.819
 8021TIP3    H145554   0.541   0.350  15.784
 8021TIP3    H245555   0.689   0.371  15.764
 8022TIP3   OH245556   5.081   5.611   1.640
 8022TIP3    H145557   5.027   5.539   1.672
 8022TIP3    H245558   5.018   5.674   1.604
 8023TIP3   OH245559   3.053   3.368  12.398
 8023TIP3    H145560   2.967   3.370  12.440
 8023TIP3    H245561   3.060   3.452  12.352
 8024TIP3   OH245562   1.343   4.591   3.653
 8024TIP3    H145563   1.263   4.636   3.681
 8024TIP3    H245564   1.411   4.659   3.655
 8025TIP3   OH245565   1.475   6.505   4.805
 8025TIP3    H145566   1.541   6.464   4.862
 8025TIP3    H245567   1.391   6.474   4.839
 8026TIP3   OH245568   4.067   2.093  16.395
 8026TIP3    H145569   4.073   2.012  16.345
 8026TIP3    H245570   3.988   2.136  16.363
 8027TIP3   OH245571   5.202   5.250  13.039
 8027TIP3    H145572   5.233   5.248  13.129
 8027TIP3    H245573   5.276   5.284  12.989
 8028TIP3   OH245574   2.984   2.044  12.456
 8028TIP3    H145575   3.060   2.089  12.418
 8028TIP3    H245576   2.909   2.095  12.425
 8029TIP3   OH245577   4.786   6.733   0.742
 8029TIP3    H145578   4.830   6.790   0.678
 8029TIP3    H245579   4.792   6.781   0.824
 8030TIP3   OH245580   0.607   2.608  14.445
 8030TIP3    H145581   0.515   2.581  14.436
 8030TIP3    H245582   0.610   2.697  14.411
 8031TIP3   OH245583   0.189   2.465   1.055
 8031TIP3    H145584   0.177   2.425   0.969
 8031TIP3    H245585   0.222   2.395   1.110
 8032TIP3   OH245586   0.567   4.460  12.592
 8032TIP3    H145587   0.537   4.505  12.513
 8032TIP3    H245588   0.655   4.429  12.571
 8033TIP3   OH245589   0.435   5.767   1.360
 8033TIP3    H145590   0.400   5.749   1.447
 8033TIP3    H245591   0.453   5.861   1.361
 8034TIP3   OH245592   2.058   6.086  16.706
 8034TIP3    H145593   2.101   6.054  16.627
 8034TIP3    H245594   1.985   6.025  16.720
 8035TIP3   OH245595   5.245   2.749  16.566
 8035TIP3    H145596   5.210   2.661  16.579
 8035TIP3    H245597   5.168   2.806  16.561
 8036TIP3   OH245598   0.579   3.892   2.673
 8036TIP3    H145599   0.600   3.802   2.700
 8036TIP3    H245600   0.661   3.927   2.641
 8037TIP3   OH245601   6.792   2.749   5.413
 8037TIP3    H145602   6.731   2.766   5.484
 8037TIP3    H245603   6.746   2.776   5.334
 8038TIP3   OH245604   0.048   0.933  11.172
 8038TIP3    H145605   0.141   0.933  11.196
 8038TIP3    H245606   0.043   0.881  11.092
 8039TIP3   OH245607   2.815   6.113  13.194
 8039TIP3    H145608   2.826   6.177  13.123
 8039TIP3    H245609   2.722   6.115  13.215
 8040TIP3   OH245610   6.338   4.549   1.460
 8040TIP3    H145611   6.271   4.616   1.468
 8040TIP3    H245612   6.330   4.498   1.541
 8041TIP3   OH245613   6.553   1.279   5.346
 8041TIP3    H145614   6.492   1.209   5.367
 8041TIP3    H245615   6.611   1.284   5.422
 8042TIP3   OH245616   1.267   3.131   2.964
 8042TIP3    H145617   1.252   3.118   3.058
 8042TIP3    H245618   1.251   3.224   2.950
 8043TIP3   OH245619   2.416   1.808   3.579
 8043TIP3    H145620   2.496   1.807   3.632
 8043TIP3    H245621   2.433   1.747   3.507
 8044TIP3   OH245622   0.927   5.045   2.195
 8044TIP3    H145623   0.934   5.004   2.109
 8044TIP3    H245624   0.838   5.027   2.224
 8045TIP3   OH245625   5.565   5.321  14.457
 8045TIP3    H145626   5.476   5.356  14.452
 8045TIP3    H245627   5.561   5.238  14.409
 8046TIP3   OH245628   1.682   5.668  16.781
 8046TIP3    H145629   1.649   5.592  16.829
 8046TIP3    H245630   1.615   5.735  16.793
 8047TIP3   OH245631   6.048   2.104   4.230
 8047TIP3    H145632   6.052   2.021   4.276
 8047TIP3    H245633   5.957   2.132   4.240
 8048TIP3   OH245634   0.042   0.261   0.655
 8048TIP3    H145635   0.066   0.222   0.571
 8048TIP3    H245636  -0.021   0.199   0.692
 8049TIP3   OH245637   0.514   2.894  15.254
 8049TIP3    H145638   0.466   2.846  15.187
 8049TIP3    H245639   0.602   2.858  15.252
 8050TIP3   OH245640   5.542   1.281  12.751
 8050TIP3    H145641   5.596   1.215  12.708
 8050TIP3    H245642   5.584   1.296  12.836
 8051TIP3   OH245643   1.353   5.165  15.311
 8051TIP3    H145644   1.447   5.151  15.313
 8051TIP3    H245645   1.332   5.173  15.218
 8052TIP3   OH245646   6.360   6.313   0.289
 8052TIP3    H145647   6.310   6.246   0.242
 8052TIP3    H245648   6.416   6.353   0.222
 8053TIP3   OH245649   1.140   1.837  12.332
 8053TIP3    H145650   1.046   1.822  12.320
 8053TIP3    H245651   1.146   1.889  12.412
 8054TIP3   OH245652   1.639   3.569  12.967
 8054TIP3    H145653   1.713   3.519  13.002
 8054TIP3    H245654   1.605   3.515  12.896
 8055TIP3   OH245655   5.389   4.123  12.516
 8055TIP3    H145656   5.322   4.087  12.574
 8055TIP3    H245657   5.453   4.053  12.506
 8056TIP3   OH245658   2.982   5.976   0.984
 8056TIP3    H145659   3.062   5.994   0.933
 8056TIP3    H245660   3.014   5.954   1.072
 8057TIP3   OH245661   1.295   2.168   6.217
 8057TIP3    H145662   1.230   2.234   6.191
 8057TIP3    H245663   1.257   2.129   6.296
 8058TIP3   OH245664   6.698   1.437   2.758
 8058TIP3    H145665   6.793   1.425   2.758
 8058TIP3    H245666   6.684   1.514   2.813
 8059TIP3   OH245667   3.822   1.159  11.230
 8059TIP3    H145668   3.898   1.202  11.269
 8059TIP3    H245669   3.777   1.117  11.304
 8060TIP3   OH245670   4.928   4.818  13.430
 8060TIP3    H145671   4.835   4.804  13.411
 8060TIP3    H245672   4.950   4.750  13.494
 8061TIP3   OH245673   6.096   4.265   4.533
 8061TIP3    H145674   6.048   4.332   4.581
 8061TIP3    H245675   6.034   4.192   4.527
 8062TIP3   OH245676   4.828   2.568   2.910
 8062TIP3    H145677   4.845   2.544   2.819
 8062TIP3    H245678   4.893   2.519   2.960
 8063TIP3   OH245679   2.702   0.332   4.555
 8063TIP3    H145680   2.746   0.281   4.487
 8063TIP3    H245681   2.751   0.414   4.559
 8064TIP3   OH245682   0.535   1.561  16.496
 8064TIP3    H145683   0.500   1.623  16.559
 8064TIP3    H245684   0.521   1.475  16.535
 8065TIP3   OH245685   6.133   5.465  16.441
 8065TIP3    H145686   6.121   5.371  16.448
 8065TIP3    H245687   6.182   5.490  16.519
 8066TIP3   OH245688   6.362   2.225  11.590
 8066TIP3    H145689   6.356   2.315  11.621
 8066TIP3    H245690   6.318   2.226  11.505
 8067TIP3   OH245691   2.332   6.608   2.748
 8067TIP3    H145692   2.324   6.575   2.837
 8067TIP3    H245693   2.426   6.623   2.736
 8068TIP3   OH245694   5.831   3.889  13.997
 8068TIP3    H145695   5.835   3.903  13.903
 8068TIP3    H245696   5.805   3.797  14.007
 8069TIP3   OH245697   5.679   0.524  13.013
 8069TIP3    H145698   5.714   0.545  12.927
 8069TIP3    H245699   5.595   0.569  13.018
 8070TIP3   OH245700   2.489   1.323   4.967
 8070TIP3    H145701   2.479   1.397   5.027
 8070TIP3    H245702   2.399   1.291   4.954
 8071TIP3   OH245703   0.922   6.767   2.464
 8071TIP3    H145704   0.948   6.789   2.375
 8071TIP3    H245705   0.883   6.680   2.457
 8072TIP3   OH245706   6.503   5.410  16.827
 8072TIP3    H145707   6.532   5.378  16.913
 8072TIP3    H245708   6.548   5.494  16.817
 8073TIP3   OH245709   2.352   6.152   1.235
 8073TIP3    H145710   2.394   6.077   1.192
 8073TIP3    H245711   2.259   6.130   1.234
 8074TIP3   OH245712   5.359   5.184  16.369
 8074TIP3    H145713   5.299   5.253  16.338
 8074TIP3    H245714   5.445   5.212  16.338
 8075TIP3   OH245715   5.126   1.685  12.468
 8075TIP3    H145716   5.126   1.645  12.380
 8075TIP3    H245717   5.067   1.630  12.519
 8076TIP3   OH245718   4.944   4.887  11.662
 8076TIP3    H145719   4.877   4.821  11.642
 8076TIP3    H245720   5.024   4.852  11.622
 8077TIP3   OH245721   4.339   3.689  13.184
 8077TIP3    H145722   4.261   3.719  13.136
 8077TIP3    H245723   4.408   3.688  13.118
 8078TIP3   OH245724   1.808   2.816  16.459
 8078TIP3    H145725   1.856   2.737  16.483
 8078TIP3    H245726   1.873   2.872  16.418
 8079TIP3   OH245727   5.437   2.216  13.505
 8079TIP3    H145728   5.412   2.130  13.472
 8079TIP3    H245729   5.525   2.230  13.469
 8080TIP3   OH245730   6.764   4.948  13.297
 8080TIP3    H145731   6.671   4.970  13.295
 8080TIP3    H245732   6.766   4.858  13.329
 8081TIP3   OH245733   5.632   0.253   0.159
 8081TIP3    H145734   5.726   0.262   0.174
 8081TIP3    H245735   5.595   0.234   0.245
 8082TIP3   OH245736   1.292   4.562  15.744
 8082TIP3    H145737   1.296   4.553  15.649
 8082TIP3    H245738   1.362   4.505  15.776
 8083TIP3   OH245739   1.094   5.552   4.804
 8083TIP3    H145740   1.166   5.612   4.787
 8083TIP3    H245741   1.057   5.534   4.718
 8084TIP3   OH245742   6.790   4.239   1.672
 8084TIP3    H145743   6.797   4.152   1.633
 8084TIP3    H245744   6.724   4.230   1.741
 8085TIP3   OH245745   1.760   5.882  12.369
 8085TIP3    H145746   1.855   5.893  12.378
 8085TIP3    H245747   1.747   5.788  12.370
 8086TIP3   OH245748   2.945   2.060   3.453
 8086TIP3    H145749   2.996   2.019   3.523
 8086TIP3    H245750   2.952   2.154   3.470
 8087TIP3   OH245751   5.914   1.419   6.544
 8087TIP3    H145752   5.931   1.371   6.625
 8087TIP3    H245753   5.830   1.384   6.513
 8088TIP3   OH245754   6.461   3.910   1.607
 8088TIP3    H145755   6.456   3.821   1.570
 8088TIP3    H245756   6.454   3.897   1.701
 8089TIP3   OH245757   5.037   2.165  10.232
 8089TIP3    H145758   5.118   2.209  10.260
 8089TIP3    H245759   5.065   2.077  10.206
 8090TIP3   OH245760   0.118   2.517  13.792
 8090TIP3    H145761   0.061   2.552  13.861
 8090TIP3    H245762   0.123   2.588  13.728
 8091TIP3   OH245763   2.667   6.407  16.253
 8091TIP3    H145764   2.678   6.488  16.202
 8091TIP3    H245765   2.579   6.377  16.230
 8092TIP3   OH245766   2.621   0.003   3.756
 8092TIP3    H145767   2.630   0.096   3.734
 8092TIP3    H245768   2.536  -0.003   3.800
 8093TIP3   OH245769   4.291   4.634   4.814
 8093TIP3    H145770   4.233   4.616   4.740
 8093TIP3    H245771   4.307   4.549   4.853
 8094TIP3   OH245772   6.354   3.727  11.424
 8094TIP3    H145773   6.420   3.683  11.477
 8094TIP3    H245774   6.372   3.699  11.335
 8095TIP3   OH245775   5.539   3.884   2.546
 8095TIP3    H145776   5.592   3.804   2.544
 8095TIP3    H245777   5.494   3.884   2.461
 8096TIP3   OH245778   2.650   3.066   2.030
 8096TIP3    H145779   2.586   3.005   1.995
 8096TIP3    H245780   2.610   3.152   2.019
 8097TIP3   OH245781   5.312   5.990   2.373
 8097TIP3    H145782   5.405   5.998   2.391
 8097TIP3    H245783   5.269   6.030   2.448
 8098TIP3   OH245784   0.306   2.717  13.133
 8098TIP3    H145785   0.290   2.624  13.115
 8098TIP3    H245786   0.382   2.718  13.190
 8099TIP3   OH245787   3.835   2.596   2.120
 8099TIP3    H145788   3.757   2.649   2.138
 8099TIP3    H245789   3.908   2.651   2.151
 8100TIP3   OH245790   6.261   4.249  15.103
 8100TIP3    H145791   6.325   4.183  15.128
 8100TIP3    H245792   6.312   4.330  15.098
 8101TIP3   OH245793   4.423   1.524   1.770
 8101TIP3    H145794   4.395   1.554   1.683
 8101TIP3    H245795   4.406   1.429   1.769
 8102TIP3   OH245796   3.189   6.046   3.077
 8102TIP3    H145797   3.244   5.994   3.019
 8102TIP3    H245798   3.227   6.133   3.075
 8103TIP3   OH245799   1.901   5.712   2.073
 8103TIP3    H145800   1.876   5.747   1.988
 8103TIP3    H245801   1.826   5.731   2.130
 8104TIP3   OH245802   2.902   4.567   1.089
 8104TIP3    H145803   2.878   4.648   1.044
 8104TIP3    H245804   2.821   4.538   1.131
 8105TIP3   OH245805   4.248   2.248  12.523
 8105TIP3    H145806   4.304   2.251  12.600
 8105TIP3    H245807   4.271   2.327  12.473
 8106TIP3   OH245808   1.597   6.253   0.385
 8106TIP3    H145809   1.558   6.331   0.423
 8106TIP3    H245810   1.609   6.275   0.292
 8107TIP3   OH245811   2.152   2.356   2.567
 8107TIP3    H145812   2.134   2.270   2.530
 8107TIP3    H245813   2.126   2.418   2.499
 8108TIP3   OH245814   4.649   3.834  14.418
 8108TIP3    H145815   4.580   3.900  14.426
 8108TIP3    H245816   4.640   3.801  14.328
 8109TIP3   OH245817   6.759   2.194   2.824
 8109TIP3    H145818   6.701   2.266   2.848
 8109TIP3    H245819   6.712   2.147   2.755
 8110TIP3   OH245820   1.015   3.123  16.516
 8110TIP3    H145821   0.992   3.174  16.438
 8110TIP3    H245822   1.010   3.032  16.487
 8111TIP3   OH245823   6.424   0.447  16.509
 8111TIP3    H145824   6.374   0.390  16.568
 8111TIP3    H245825   6.408   0.535  16.541
 8112TIP3   OH245826   5.365   0.732   5.672
 8112TIP3    H145827   5.312   0.671   5.723
 8112TIP3    H245828   5.408   0.676   5.607
 8113TIP3   OH245829   5.646   6.425   5.003
 8113TIP3    H145830   5.650   6.503   5.057
 8113TIP3    H245831   5.703   6.443   4.928
 8114TIP3   OH245832   5.776   1.141   5.735
 8114TIP3    H145833   5.685   1.111   5.727
 8114TIP3    H245834   5.828   1.060   5.736
 8115TIP3   OH245835   1.969   1.651  14.133
 8115TIP3    H145836   1.912   1.654  14.210
 8115TIP3    H245837   2.045   1.600  14.161
 8116TIP3   OH245838   6.489   4.312   3.686
 8116TIP3    H145839   6.552   4.268   3.630
 8116TIP3    H245840   6.430   4.242   3.716
 8117TIP3   OH245841   3.699   1.043  13.825
 8117TIP3    H145842   3.698   0.955  13.787
 8117TIP3    H245843   3.619   1.047  13.877
 8118TIP3   OH245844   0.893   4.539   0.773
 8118TIP3    H145845   0.811   4.495   0.796
 8118TIP3    H245846   0.871   4.632   0.771
 8119TIP3   OH245847   2.046   3.241  12.141
 8119TIP3    H145848   1.987   3.174  12.105
 8119TIP3    H245849   2.003   3.324  12.122
 8120TIP3   OH245850   4.110   3.993   2.188
 8120TIP3    H145851   4.129   3.929   2.120
 8120TIP3    H245852   4.019   3.976   2.213
 8121TIP3   OH245853   3.451   4.627  14.882
 8121TIP3    H145854   3.474   4.574  14.958
 8121TIP3    H245855   3.522   4.691  14.875
 8122TIP3   OH245856   4.115   1.536   3.595
 8122TIP3    H145857   4.105   1.614   3.539
 8122TIP3    H245858   4.146   1.468   3.535
 8123TIP3   OH245859   0.585   1.459   5.997
 8123TIP3    H145860   0.590   1.548   5.960
 8123TIP3    H245861   0.581   1.472   6.091
 8124TIP3   OH245862   2.545   2.169   2.986
 8124TIP3    H145863   2.604   2.164   3.062
 8124TIP3    H245864   2.471   2.113   3.010
 8125TIP3   OH245865   1.956   1.557   6.126
 8125TIP3    H145866   1.993   1.637   6.163
 8125TIP3    H245867   1.982   1.488   6.188
 8126TIP3   OH245868   2.333   5.428  11.763
 8126TIP3    H145869   2.428   5.412  11.761
 8126TIP3    H245870   2.296   5.361  11.706
 8127TIP3   OH245871   4.577   2.606  17.093
 8127TIP3    H145872   4.549   2.529  17.143
 8127TIP3    H245873   4.504   2.624  17.034
 8128TIP3   OH245874   5.565   1.666   3.539
 8128TIP3    H145875   5.564   1.573   3.516
 8128TIP3    H245876   5.538   1.711   3.459
 8129TIP3   OH245877   2.609   5.611  16.001
 8129TIP3    H145878   2.608   5.642  16.092
 8129TIP3    H245879   2.550   5.535  16.001
 8130TIP3   OH245880   6.068   3.119  16.729
 8130TIP3    H145881   6.157   3.144  16.703
 8130TIP3    H245882   6.080   3.076  16.814
 8131TIP3   OH245883   1.687   4.748   1.429
 8131TIP3    H145884   1.759   4.804   1.460
 8131TIP3    H245885   1.654   4.792   1.351
 8132TIP3   OH245886   1.722   4.193   1.004
 8132TIP3    H145887   1.699   4.141   1.081
 8132TIP3    H245888   1.803   4.238   1.028
 8133TIP3   OH245889   2.303   5.799  13.405
 8133TIP3    H145890   2.332   5.779  13.316
 8133TIP3    H245891   2.363   5.867  13.435
 8134TIP3   OH245892   0.188   0.353   3.966
 8134TIP3    H145893   0.275   0.381   3.938
 8134TIP3    H245894   0.201   0.268   4.008
 8135TIP3   OH245895   4.008   0.970   6.282
 8135TIP3    H145896   4.024   1.064   6.272
 8135TIP3    H245897   3.913   0.961   6.285
 8136TIP3   OH245898   4.280   6.071  14.794
 8136TIP3    H145899   4.317   5.995  14.748
 8136TIP3    H245900   4.271   6.138  14.726
 8137TIP3   OH245901   2.849   0.566  13.929
 8137TIP3    H145902   2.847   0.597  14.019
 8137TIP3    H245903   2.757   0.557  13.904
 8138TIP3   OH245904   2.282   6.376  12.753
 8138TIP3    H145905   2.236   6.362  12.670
 8138TIP3    H245906   2.211   6.389  12.817
 8139TIP3   OH245907   0.544   0.980   5.380
 8139TIP3    H145908   0.504   0.972   5.467
 8139TIP3    H245909   0.628   0.934   5.389
 8140TIP3   OH245910   6.563   3.095   3.029
 8140TIP3    H145911   6.544   3.071   3.120
 8140TIP3    H245912   6.589   3.187   3.034
 8141TIP3   OH245913   0.842   2.180   4.548
 8141TIP3    H145914   0.782   2.155   4.478
 8141TIP3    H245915   0.928   2.154   4.516
 8142TIP3   OH245916   1.533   6.216  14.280
 8142TIP3    H145917   1.472   6.289  14.293
 8142TIP3    H245918   1.609   6.239  14.335
 8143TIP3   OH245919   4.255   6.522  16.104
 8143TIP3    H145920   4.292   6.454  16.048
 8143TIP3    H245921   4.162   6.500  16.112
 8144TIP3   OH245922   6.466   0.038  15.615
 8144TIP3    H145923   6.522   0.027  15.692
 8144TIP3    H245924   6.526   0.032  15.540
 8145TIP3   OH245925   3.087   3.229   2.437
 8145TIP3    H145926   3.013   3.194   2.487
 8145TIP3    H245927   3.162   3.178   2.467
 8146TIP3   OH245928   2.480   1.572   4.354
 8146TIP3    H145929   2.425   1.599   4.428
 8146TIP3    H245930   2.514   1.486   4.379
 8147TIP3   OH245931   1.869   3.364   2.880
 8147TIP3    H145932   1.895   3.455   2.868
 8147TIP3    H245933   1.779   3.368   2.910
 8148TIP3   OH245934   1.437   1.338  14.082
 8148TIP3    H145935   1.366   1.287  14.043
 8148TIP3    H245936   1.487   1.275  14.134
 8149TIP3   OH245937   0.343   1.370  10.331
 8149TIP3    H145938   0.274   1.417  10.284
 8149TIP3    H245939   0.421   1.380  10.277
 8150TIP3   OH245940   4.394   0.060  11.523
 8150TIP3    H145941   4.474   0.113  11.517
 8150TIP3    H245942   4.343   0.100  11.593
 8151TIP3   OH245943   6.429   4.424  14.360
 8151TIP3    H145944   6.470   4.459  14.281
 8151TIP3    H245945   6.337   4.447  14.351
 8152TIP3   OH245946   5.818   1.229  17.186
 8152TIP3    H145947   5.780   1.235  17.274
 8152TIP3    H245948   5.862   1.313  17.174
 8153TIP3   OH245949   1.391   2.907  12.483
 8153TIP3    H145950   1.452   2.852  12.531
 8153TIP3    H245951   1.315   2.915  12.540
 8154TIP3   OH245952   4.221   5.035  11.656
 8154TIP3    H145953   4.286   5.017  11.725
 8154TIP3    H245954   4.171   5.109  11.691
 8155TIP3   OH245955   2.044   5.777  14.485
 8155TIP3    H145956   1.980   5.841  14.453
 8155TIP3    H245957   2.125   5.799  14.439
 8156TIP3   OH245958   0.381   5.460  12.404
 8156TIP3    H145959   0.344   5.537  12.448
 8156TIP3    H245960   0.307   5.401  12.392
 8157TIP3   OH245961   2.277   3.084   3.438
 8157TIP3    H145962   2.216   3.016   3.466
 8157TIP3    H245963   2.237   3.123   3.361
 8158TIP3   OH245964   5.867   3.195  10.854
 8158TIP3    H145965   5.896   3.125  10.795
 8158TIP3    H245966   5.942   3.210  10.912
 8159TIP3   OH245967   6.418   0.948   4.102
 8159TIP3    H145968   6.481   0.987   4.040
 8159TIP3    H245969   6.462   0.952   4.187
 8160TIP3   OH245970   5.999   6.527  11.503
 8160TIP3    H145971   5.925   6.582  11.477
 8160TIP3    H245972   5.986   6.445  11.455
 8161TIP3   OH245973   1.065   4.614   4.377
 8161TIP3    H145974   0.976   4.590   4.401
 8161TIP3    H245975   1.079   4.700   4.417
 8162TIP3   OH245976   3.600   0.182   1.758
 8162TIP3    H145977   3.514   0.144   1.740
 8162TIP3    H245978   3.598   0.202   1.852
 8163TIP3   OH245979   6.728   3.363   1.018
 8163TIP3    H145980   6.689   3.321   1.094
 8163TIP3    H245981   6.655   3.403   0.971
 8164TIP3   OH245982   2.967   5.004   2.950
 8164TIP3    H145983   2.986   5.067   2.881
 8164TIP3    H245984   2.947   4.922   2.904
 8165TIP3   OH245985   1.590   1.256   5.256
 8165TIP3    H145986   1.519   1.197   5.282
 8165TIP3    H245987   1.564   1.342   5.291
 8166TIP3   OH245988   3.866   1.589  12.068
 8166TIP3    H145989   3.869   1.506  12.114
 8166TIP3    H245990   3.857   1.655  12.137
 8167TIP3   OH245991   3.137   3.035   4.549
 8167TIP3    H145992   3.185   2.962   4.588
 8167TIP3    H245993   3.093   2.997   4.473
 8168TIP3   OH245994   3.439   3.864   5.892
 8168TIP3    H145995   3.449   3.890   5.984
 8168TIP3    H245996   3.429   3.769   5.894
 8169TIP3   OH245997   3.061   2.631  15.623
 8169TIP3    H145998   2.971   2.641  15.656
 8169TIP3    H245999   3.089   2.720  15.604
 8170TIP3   OH246000   5.740   4.460   6.535
 8170TIP3    H146001   5.659   4.506   6.558
 8170TIP3    H246002   5.742   4.384   6.593
 8171TIP3   OH246003   6.555   0.439   6.571
 8171TIP3    H146004   6.498   0.484   6.509
 8171TIP3    H246005   6.496   0.396   6.632
 8172TIP3   OH246006   6.235   0.450  12.455
 8172TIP3    H146007   6.172   0.450  12.384
 8172TIP3    H246008   6.206   0.382  12.515
 8173TIP3   OH246009   2.572   2.758  14.932
 8173TIP3    H146010   2.493   2.709  14.957
 8173TIP3    H246011   2.632   2.744  15.004
 8174TIP3   OH246012   6.412   4.757   3.686
 8174TIP3    H146013   6.353   4.817   3.641
 8174TIP3    H246014   6.467   4.814   3.740
 8175TIP3   OH246015   4.567   1.478  12.938
 8175TIP3    H146016   4.553   1.399  12.990
 8175TIP3    H246017   4.647   1.516  12.975
 8176TIP3   OH246018   0.174   5.803   4.619
 8176TIP3    H146019   0.214   5.873   4.567
 8176TIP3    H246020   0.094   5.780   4.572
 8177TIP3   OH246021   2.640   0.355   5.965
 8177TIP3    H146022   2.637   0.441   6.007
 8177TIP3    H246023   2.713   0.310   6.008
 8178TIP3   OH246024   3.383   4.499  11.987
 8178TIP3    H146025   3.306   4.485  11.932
 8178TIP3    H246026   3.451   4.445  11.948
 8179TIP3   OH246027   1.466   6.234  13.570
 8179TIP3    H146028   1.403   6.219  13.641
 8179TIP3    H246029   1.518   6.308  13.600
 8180TIP3   OH246030   5.238   0.432  13.531
 8180TIP3    H146031   5.169   0.392  13.584
 8180TIP3    H246032   5.196   0.508  13.491
 8181TIP3   OH246033   5.559   6.785  14.653
 8181TIP3    H146034   5.465   6.801  14.647
 8181TIP3    H246035   5.566   6.690  14.666
 8182TIP3   OH246036   2.761   0.753  14.446
 8182TIP3    H146037   2.821   0.777  14.375
 8182TIP3    H246038   2.741   0.836  14.490
 8183TIP3   OH246039   3.278   1.561   5.858
 8183TIP3    H146040   3.305   1.476   5.823
 8183TIP3    H246041   3.218   1.539   5.930
 8184TIP3   OH246042   6.274   5.369  16.208
 8184TIP3    H146043   6.232   5.299  16.158
 8184TIP3    H246044   6.200   5.417  16.247
 8185TIP3   OH246045   3.633   2.918   0.934
 8185TIP3    H146046   3.723   2.944   0.915
 8185TIP3    H246047   3.629   2.826   0.910
 8186TIP3   OH246048   5.333   6.278   5.399
 8186TIP3    H146049   5.244   6.252   5.377
 8186TIP3    H246050   5.383   6.197   5.398
 8187TIP3   OH246051   1.641   2.832   4.872
 8187TIP3    H146052   1.553   2.869   4.874
 8187TIP3    H246053   1.684   2.869   4.949
 8188TIP3   OH246054   4.915   6.656  12.706
 8188TIP3    H146055   4.910   6.749  12.683
 8188TIP3    H246056   4.914   6.611  12.622
 8189TIP3   OH246057   5.913   4.264   1.022
 8189TIP3    H146058   5.833   4.285   1.070
 8189TIP3    H246059   5.943   4.348   0.987
 8190TIP3   OH246060   6.223   0.382   3.463
 8190TIP3    H146061   6.138   0.395   3.505
 8190TIP3    H246062   6.273   0.329   3.525
 8191TIP3   OH246063   3.215   2.280   6.520
 8191TIP3    H146064   3.275   2.354   6.528
 8191TIP3    H246065   3.144   2.312   6.465
 8192TIP3   OH246066   6.357   6.025   2.074
 8192TIP3    H146067   6.386   6.104   2.028
 8192TIP3    H246068   6.274   6.052   2.115
 8193TIP3   OH246069   3.006   2.769   6.380
 8193TIP3    H146070   2.923   2.764   6.332
 8193TIP3    H246071   2.989   2.727   6.464
 8194TIP3   OH246072   5.028   4.575   3.655
 8194TIP3    H146073   4.941   4.570   3.616
 8194TIP3    H246074   5.013   4.601   3.746
 8195TIP3   OH246075   4.505   0.824   4.969
 8195TIP3    H146076   4.480   0.902   4.918
 8195TIP3    H246077   4.580   0.852   5.020
 8196TIP3   OH246078   0.185   0.594   2.606
 8196TIP3    H146079   0.115   0.588   2.671
 8196TIP3    H246080   0.193   0.688   2.588
 8197TIP3   OH246081   1.990   5.553   4.026
 8197TIP3    H146082   1.911   5.538   4.078
 8197TIP3    H246083   1.974   5.636   3.981
 8198TIP3   OH246084   4.484   4.495   0.879
 8198TIP3    H146085   4.541   4.531   0.811
 8198TIP3    H246086   4.421   4.441   0.832
 8199TIP3   OH246087   0.635   1.669   3.239
 8199TIP3    H146088   0.544   1.649   3.220
 8199TIP3    H246089   0.685   1.601   3.195
 8200TIP3   OH246090   2.240   0.228   0.600
 8200TIP3    H146091   2.310   0.212   0.537
 8200TIP3    H246092   2.160   0.225   0.547
 8201TIP3   OH246093   1.642   6.635   1.351
 8201TIP3    H146094   1.622   6.719   1.391
 8201TIP3    H246095   1.569   6.618   1.292
 8202TIP3   OH246096   4.596   5.444   0.715
 8202TIP3    H146097   4.516   5.496   0.707
 8202TIP3    H246098   4.665   5.509   0.724
 8203TIP3   OH246099   2.359   2.749   0.941
 8203TIP3    H146100   2.268   2.778   0.937
 8203TIP3    H246101   2.352   2.654   0.955
 8204TIP3   OH246102   5.431   4.318   4.278
 8204TIP3    H146103   5.512   4.362   4.305
 8204TIP3    H246104   5.394   4.375   4.211
 8205TIP3   OH246105   2.570   1.122   0.968
 8205TIP3    H146106   2.598   1.157   1.053
 8205TIP3    H246107   2.528   1.196   0.924
 8206TIP3   OH246108   5.094   4.124   0.418
 8206TIP3    H146109   5.128   4.105   0.331
 8206TIP3    H246110   5.172   4.128   0.474
 8207TIP3   OH246111   6.018   5.024   4.172
 8207TIP3    H146112   6.027   4.932   4.148
 8207TIP3    H246113   6.064   5.032   4.256
 8208TIP3   OH246114   6.228   2.674  14.970
 8208TIP3    H146115   6.254   2.584  14.949
 8208TIP3    H246116   6.163   2.664  15.039
 8209TIP3   OH246117   4.821   2.452   1.544
 8209TIP3    H146118   4.905   2.483   1.579
 8209TIP3    H246119   4.763   2.527   1.551
 8210TIP3   OH246120   4.539   1.276   3.250
 8210TIP3    H146121   4.516   1.330   3.175
 8210TIP3    H246122   4.519   1.186   3.222
 8211TIP3   OH246123   5.113   0.097  13.700
 8211TIP3    H146124   5.192   0.136  13.662
 8211TIP3    H246125   5.052   0.170  13.711
 8212TIP3   OH246126   1.655   2.163  11.617
 8212TIP3    H146127   1.593   2.148  11.545
 8212TIP3    H246128   1.720   2.094  11.606
 8213TIP3   OH246129   0.463   3.888   4.817
 8213TIP3    H146130   0.552   3.921   4.830
 8213TIP3    H246131   0.407   3.956   4.854
 8214TIP3   OH246132   0.739   5.929  13.266
 8214TIP3    H146133   0.711   5.930  13.358
 8214TIP3    H246134   0.767   5.839  13.251
 8215TIP3   OH246135   5.533   3.162  13.867
 8215TIP3    H146136   5.532   3.129  13.957
 8215TIP3    H246137   5.531   3.257  13.876
 8216TIP3   OH246138   5.291   2.031  16.823
 8216TIP3    H146139   5.310   2.053  16.732
 8216TIP3    H246140   5.375   2.037  16.867
 8217TIP3   OH246141   2.525   1.757  15.678
 8217TIP3    H146142   2.597   1.819  15.687
 8217TIP3    H246143   2.495   1.768  15.588
 8218TIP3   OH246144   5.648   4.050   0.134
 8218TIP3    H146145   5.640   4.136   0.095
 8218TIP3    H246146   5.703   4.001   0.073
 8219TIP3   OH246147   3.801   2.401  17.016
 8219TIP3    H146148   3.738   2.469  16.994
 8219TIP3    H246149   3.754   2.319  17.001
 8220TIP3   OH246150   4.973   4.771  16.004
 8220TIP3    H146151   4.981   4.849  16.058
 8220TIP3    H246152   5.059   4.764  15.961
 8221TIP3   OH246153   4.840   1.583  11.343
 8221TIP3    H146154   4.889   1.575  11.261
 8221TIP3    H246155   4.803   1.496  11.357
 8222TIP3   OH246156   3.014   5.534  16.166
 8222TIP3    H146157   2.961   5.556  16.089
 8222TIP3    H246158   3.020   5.616  16.216
 8223TIP3   OH246159   0.388   3.559  14.101
 8223TIP3    H146160   0.381   3.572  14.006
 8223TIP3    H246161   0.433   3.474  14.110
 8224TIP3   OH246162   4.307   6.154   0.175
 8224TIP3    H146163   4.330   6.201   0.095
 8224TIP3    H246164   4.365   6.190   0.242
 8225TIP3   OH246165   4.216   4.981  12.215
 8225TIP3    H146166   4.175   4.954  12.133
 8225TIP3    H246167   4.292   4.925  12.224
 8226TIP3   OH246168   2.607   1.593  11.684
 8226TIP3    H146169   2.675   1.592  11.616
 8226TIP3    H246170   2.627   1.518  11.739
 8227TIP3   OH246171   4.897   0.701   1.688
 8227TIP3    H146172   4.830   0.633   1.699
 8227TIP3    H246173   4.975   0.653   1.661
 8228TIP3   OH246174   1.707   0.872  11.591
 8228TIP3    H146175   1.616   0.862  11.619
 8228TIP3    H246176   1.746   0.786  11.603
 8229TIP3   OH246177   3.073   2.610  12.920
 8229TIP3    H146178   3.005   2.677  12.927
 8229TIP3    H246179   3.094   2.588  13.011
 8230TIP3   OH246180   0.742   4.645   4.806
 8230TIP3    H146181   0.723   4.617   4.717
 8230TIP3    H246182   0.685   4.721   4.821
 8231TIP3   OH246183   1.498   5.138  13.845
 8231TIP3    H146184   1.546   5.164  13.766
 8231TIP3    H246185   1.444   5.064  13.817
 8232TIP3   OH246186   4.405   2.148   3.059
 8232TIP3    H146187   4.455   2.184   2.986
 8232TIP3    H246188   4.355   2.223   3.093
 8233TIP3   OH246189   0.800   4.049   3.444
 8233TIP3    H146190   0.776   3.995   3.369
 8233TIP3    H246191   0.851   4.121   3.407
 8234TIP3   OH246192   5.272   4.607  14.054
 8234TIP3    H146193   5.293   4.520  14.021
 8234TIP3    H246194   5.280   4.598  14.149
 8235TIP3   OH246195   6.493   2.225   1.210
 8235TIP3    H146196   6.401   2.230   1.186
 8235TIP3    H246197   6.502   2.141   1.254
 8236TIP3   OH246198   4.925   2.364   1.966
 8236TIP3    H146199   4.946   2.288   1.911
 8236TIP3    H246200   4.834   2.351   1.991
 8237TIP3   OH246201   3.027   4.579  12.386
 8237TIP3    H146202   2.947   4.606  12.429
 8237TIP3    H246203   3.071   4.521  12.449
 8238TIP3   OH246204   5.748   0.657  12.088
 8238TIP3    H146205   5.728   0.732  12.032
 8238TIP3    H246206   5.836   0.675  12.121
 8239TIP3   OH246207   0.528   1.756  13.157
 8239TIP3    H146208   0.602   1.717  13.110
 8239TIP3    H246209   0.555   1.755  13.249
 8240TIP3   OH246210   6.661   4.594  16.778
 8240TIP3    H146211   6.721   4.524  16.804
 8240TIP3    H246212   6.620   4.562  16.698
 8241TIP3   OH246213   1.546   3.925   0.894
 8241TIP3    H146214   1.478   3.920   0.827
 8241TIP3    H246215   1.499   3.911   0.976
 8242TIP3   OH246216   0.914   3.590  13.392
 8242TIP3    H146217   0.916   3.605  13.297
 8242TIP3    H246218   0.948   3.671  13.430
 8243TIP3   OH246219   2.185   5.082   3.738
 8243TIP3    H146220   2.163   5.032   3.817
 8243TIP3    H246221   2.271   5.120   3.758
 8244TIP3   OH246222   5.238   1.257  15.309
 8244TIP3    H146223   5.219   1.240  15.401
 8244TIP3    H246224   5.160   1.229  15.262
 8245TIP3   OH246225   5.212   2.408   5.461
 8245TIP3    H146226   5.263   2.416   5.381
 8245TIP3    H246227   5.269   2.444   5.529
 8246TIP3   OH246228   6.773   0.309  13.559
 8246TIP3    H146229   6.714   0.383  13.574
 8246TIP3    H246230   6.760   0.287  13.466
 8247TIP3   OH246231   4.154   3.151   4.261
 8247TIP3    H146232   4.145   3.217   4.192
 8247TIP3    H246233   4.206   3.081   4.222
 8248TIP3   OH246234   0.794   0.364  14.393
 8248TIP3    H146235   0.714   0.415  14.401
 8248TIP3    H246236   0.856   0.409  14.451
 8249TIP3   OH246237   4.182   3.546   2.894
 8249TIP3    H146238   4.262   3.544   2.947
 8249TIP3    H246239   4.209   3.589   2.812
 8250TIP3   OH246240   1.866   5.910  12.695
 8250TIP3    H146241   1.887   5.832  12.745
 8250TIP3    H246242   1.787   5.887  12.646
 8251TIP3   OH246243   2.572   6.758  14.060
 8251TIP3    H146244   2.606   6.721  13.979
 8251TIP3    H246245   2.633   6.730  14.128
 8252TIP3   OH246246   0.539   0.188   3.089
 8252TIP3    H146247   0.511   0.106   3.130
 8252TIP3    H246248   0.460   0.222   3.047
 8253TIP3   OH246249   1.566   1.391   0.892
 8253TIP3    H146250   1.581   1.416   0.800
 8253TIP3    H246251   1.646   1.417   0.937
 8254TIP3   OH246252   1.566   2.703  16.340
 8254TIP3    H146253   1.559   2.797  16.324
 8254TIP3    H246254   1.648   2.693  16.390
 8255TIP3   OH246255   1.347   3.346  12.526
 8255TIP3    H146256   1.387   3.390  12.601
 8255TIP3    H246257   1.261   3.386  12.518
 8256TIP3   OH246258   6.669   2.442   2.709
 8256TIP3    H146259   6.608   2.509   2.740
 8256TIP3    H246260   6.616   2.384   2.656
 8257TIP3   OH246261   1.184   3.206  13.408
 8257TIP3    H146262   1.191   3.111  13.412
 8257TIP3    H246263   1.140   3.230  13.490
 8258TIP3   OH246264   3.376   3.901   3.058
 8258TIP3    H146265   3.313   3.881   3.127
 8258TIP3    H246266   3.369   3.995   3.046
 8259TIP3   OH246267   3.715   6.254   2.404
 8259TIP3    H146268   3.722   6.216   2.491
 8259TIP3    H246269   3.727   6.348   2.417
 8260TIP3   OH246270   1.960   3.469   2.097
 8260TIP3    H146271   1.894   3.457   2.030
 8260TIP3    H246272   2.044   3.462   2.051
 8261TIP3   OH246273   2.728   4.925  15.523
 8261TIP3    H146274   2.758   4.835  15.514
 8261TIP3    H246275   2.727   4.959  15.434
 8262TIP3   OH246276   6.744   3.429  11.368
 8262TIP3    H146277   6.764   3.371  11.295
 8262TIP3    H246278   6.789   3.511  11.347
 8263TIP3   OH246279   5.261   2.382   2.861
 8263TIP3    H146280   5.247   2.287   2.857
 8263TIP3    H246281   5.288   2.399   2.951
 8264TIP3   OH246282   3.313   2.588  11.466
 8264TIP3    H146283   3.396   2.594  11.514
 8264TIP3    H246284   3.258   2.656  11.505
 8265TIP3   OH246285   5.832   2.695   3.433
 8265TIP3    H146286   5.864   2.607   3.454
 8265TIP3    H246287   5.857   2.748   3.509
 8266TIP3   OH246288   2.008   4.886  12.469
 8266TIP3    H146289   1.994   4.932  12.552
 8266TIP3    H246290   2.023   4.956  12.406
 8267TIP3   OH246291   5.894   3.388  16.753
 8267TIP3    H146292   5.915   3.371  16.845
 8267TIP3    H246293   5.930   3.313  16.706
 8268TIP3   OH246294   0.968   3.695   6.387
 8268TIP3    H146295   1.027   3.620   6.397
 8268TIP3    H246296   1.007   3.746   6.316
 8269TIP3   OH246297   4.526   5.472   4.453
 8269TIP3    H146298   4.501   5.468   4.361
 8269TIP3    H246299   4.606   5.419   4.458
 8270TIP3   OH246300   3.736   1.750  15.500
 8270TIP3    H146301   3.787   1.822  15.537
 8270TIP3    H246302   3.705   1.701  15.575
 8271TIP3   OH246303   1.997   2.493   1.603
 8271TIP3    H146304   2.076   2.443   1.624
 8271TIP3    H246305   1.927   2.428   1.601
 8272TIP3   OH246306   4.337   5.713   4.011
 8272TIP3    H146307   4.362   5.621   4.022
 8272TIP3    H246308   4.308   5.719   3.920
 8273TIP3   OH246309   5.788   4.896  15.518
 8273TIP3    H146310   5.761   4.977  15.562
 8273TIP3    H246311   5.732   4.892  15.440
 8274TIP3   OH246312   4.113   1.289   5.381
 8274TIP3    H146313   4.105   1.315   5.289
 8274TIP3    H246314   4.040   1.332   5.424
 8275TIP3   OH246315   6.703   6.056   3.635
 8275TIP3    H146316   6.741   6.128   3.686
 8275TIP3    H246317   6.673   6.098   3.554
 8276TIP3   OH246318   5.941   1.819  14.193
 8276TIP3    H146319   6.014   1.866  14.234
 8276TIP3    H246320   5.869   1.883  14.192
 8277TIP3   OH246321   1.912   6.656   6.804
 8277TIP3    H146322   1.905   6.705   6.886
 8277TIP3    H246323   1.949   6.719   6.742
 8278TIP3   OH246324   4.742   2.975  12.034
 8278TIP3    H146325   4.716   2.899  11.981
 8278TIP3    H246326   4.669   2.987  12.095
 8279TIP3   OH246327   3.150   1.447   1.638
 8279TIP3    H146328   3.199   1.398   1.703
 8279TIP3    H246329   3.136   1.533   1.678
 8280TIP3   OH246330   4.798   2.821   0.344
 8280TIP3    H146331   4.721   2.765   0.354
 8280TIP3    H246332   4.769   2.908   0.371
 8281TIP3   OH246333   1.906   5.798  12.051
 8281TIP3    H146334   1.892   5.722  12.107
 8281TIP3    H246335   1.970   5.852  12.099
 8282TIP3   OH246336   3.578   0.213  11.718
 8282TIP3    H146337   3.550   0.303  11.736
 8282TIP3    H246338   3.502   0.159  11.740
 8283TIP3   OH246339   6.341   4.840  15.605
 8283TIP3    H146340   6.369   4.794  15.685
 8283TIP3    H246341   6.320   4.770  15.543
 8284TIP3   OH246342   0.505   2.717   3.636
 8284TIP3    H146343   0.577   2.757   3.589
 8284TIP3    H246344   0.447   2.684   3.567
 8285TIP3   OH246345   6.150   0.083   4.969
 8285TIP3    H146346   6.095   0.023   4.919
 8285TIP3    H246347   6.147   0.049   5.059
 8286TIP3   OH246348   5.429   0.924   2.193
 8286TIP3    H146349   5.376   0.932   2.113
 8286TIP3    H246350   5.518   0.944   2.165
 8287TIP3   OH246351   0.187   5.686   6.203
 8287TIP3    H146352   0.193   5.729   6.118
 8287TIP3    H246353   0.178   5.593   6.182
 8288TIP3   OH246354   0.001   5.199   4.259
 8288TIP3    H146355   0.030   5.210   4.350
 8288TIP3    H246356  -0.076   5.142   4.265
 8289TIP3   OH246357   6.766   3.100   2.400
 8289TIP3    H146358   6.735   3.011   2.415
 8289TIP3    H246359   6.698   3.156   2.438
 8290TIP3   OH246360   4.313   0.520  12.984
 8290TIP3    H146361   4.401   0.506  13.019
 8290TIP3    H246362   4.325   0.587  12.917
 8291TIP3   OH246363   1.883   5.479   2.802
 8291TIP3    H146364   1.900   5.386   2.787
 8291TIP3    H246365   1.913   5.522   2.722
 8292TIP3   OH246366   4.324   2.145  11.686
 8292TIP3    H146367   4.299   2.235  11.665
 8292TIP3    H246368   4.246   2.108  11.728
 8293TIP3   OH246369   2.894   6.034   4.448
 8293TIP3    H146370   2.874   6.113   4.497
 8293TIP3    H246371   2.815   5.981   4.455
 8294TIP3   OH246372   5.166   6.820  16.948
 8294TIP3    H146373   5.120   6.856  17.024
 8294TIP3    H246374   5.186   6.730  16.973
 8295TIP3   OH246375   0.136   0.394   3.687
 8295TIP3    H146376   0.056   0.349   3.659
 8295TIP3    H246377   0.142   0.377   3.781
 8296TIP3   OH246378   3.487   3.861  13.694
 8296TIP3    H146379   3.434   3.907  13.628
 8296TIP3    H246380   3.453   3.772  13.694
 8297TIP3   OH246381   5.858   4.744   3.328
 8297TIP3    H146382   5.868   4.705   3.242
 8297TIP3    H246383   5.903   4.828   3.322
 8298TIP3   OH246384   6.666   5.789   3.556
 8298TIP3    H146385   6.638   5.795   3.465
 8298TIP3    H246386   6.683   5.880   3.582
 8299TIP3   OH246387   2.081   5.510  14.632
 8299TIP3    H146388   2.084   5.601  14.604
 8299TIP3    H246389   2.000   5.502  14.681
 8300TIP3   OH246390   6.791   5.973   5.274
 8300TIP3    H146391   6.726   6.027   5.318
 8300TIP3    H246392   6.742   5.899   5.239
 8301TIP3   OH246393   2.154   3.266  11.708
 8301TIP3    H146394   2.165   3.284  11.615
 8301TIP3    H246395   2.071   3.218  11.713
 8302TIP3   OH246396   5.986   4.470   5.538
 8302TIP3    H146397   6.014   4.558   5.514
 8302TIP3    H246398   5.981   4.422   5.455
 8303TIP3   OH246399   1.432   2.326   4.696
 8303TIP3    H146400   1.343   2.296   4.718
 8303TIP3    H246401   1.464   2.261   4.633
 8304TIP3   OH246402   6.241   0.453   5.086
 8304TIP3    H146403   6.174   0.398   5.046
 8304TIP3    H246404   6.214   0.542   5.066
 8305TIP3   OH246405   5.747   1.983   3.396
 8305TIP3    H146406   5.813   1.925   3.359
 8305TIP3    H246407   5.776   1.999   3.486
 8306TIP3   OH246408   0.243   6.110  13.692
 8306TIP3    H146409   0.320   6.058  13.671
 8306TIP3    H246410   0.193   6.114  13.611
 8307TIP3   OH246411   6.145   5.978   5.122
 8307TIP3    H146412   6.168   5.978   5.029
 8307TIP3    H246413   6.228   5.993   5.167
 8308TIP3   OH246414   4.343   0.365   2.345
 8308TIP3    H146415   4.326   0.281   2.301
 8308TIP3    H246416   4.359   0.342   2.436
 8309TIP3   OH246417   2.305   2.046   3.111
 8309TIP3    H146418   2.275   1.956   3.101
 8309TIP3    H246419   2.337   2.052   3.201
 8310TIP3   OH246420   5.339   3.525   6.823
 8310TIP3    H146421   5.257   3.574   6.820
 8310TIP3    H246422   5.407   3.593   6.824
 8311TIP3   OH246423   5.190   2.179  13.656
 8311TIP3    H146424   5.133   2.183  13.579
 8311TIP3    H246425   5.276   2.205  13.623
 8312TIP3   OH246426   5.043   3.708  10.683
 8312TIP3    H146427   5.083   3.737  10.601
 8312TIP3    H246428   5.113   3.661  10.729
 8313TIP3   OH246429   1.696   5.065   1.503
 8313TIP3    H146430   1.756   4.997   1.471
 8313TIP3    H246431   1.683   5.123   1.427
 8314TIP3   OH246432   3.374   1.677  12.010
 8314TIP3    H146433   3.319   1.718  11.943
 8314TIP3    H246434   3.403   1.595  11.969
 8315TIP3   OH246435   2.266   1.611  16.784
 8315TIP3    H146436   2.351   1.572  16.761
 8315TIP3    H246437   2.216   1.610  16.703
 8316TIP3   OH246438   2.380   5.415  12.273
 8316TIP3    H146439   2.445   5.364  12.320
 8316TIP3    H246440   2.416   5.426  12.185
 8317TIP3   OH246441   4.485   4.422   1.136
 8317TIP3    H146442   4.491   4.469   1.052
 8317TIP3    H246443   4.477   4.330   1.111
 8318TIP3   OH246444   3.267   3.596  12.215
 8318TIP3    H146445   3.192   3.607  12.157
 8318TIP3    H246446   3.342   3.584  12.156
 8319TIP3   OH246447   3.741   4.457  12.439
 8319TIP3    H146448   3.767   4.513  12.512
 8319TIP3    H246449   3.795   4.487  12.365
 8320TIP3   OH246450   3.271   0.599   2.878
 8320TIP3    H146451   3.211   0.528   2.854
 8320TIP3    H246452   3.339   0.596   2.810
 8321TIP3   OH246453   3.437   0.666   4.735
 8321TIP3    H146454   3.392   0.702   4.658
 8321TIP3    H246455   3.414   0.727   4.806
 8322TIP3   OH246456   6.501   5.098   1.672
 8322TIP3    H146457   6.560   5.048   1.616
 8322TIP3    H246458   6.558   5.139   1.737
 8323TIP3   OH246459   0.433   1.182  10.928
 8323TIP3    H146460   0.343   1.148  10.921
 8323TIP3    H246461   0.437   1.252  10.862
 8324TIP3   OH246462   5.506   2.933  14.253
 8324TIP3    H146463   5.505   2.839  14.232
 8324TIP3    H246464   5.471   2.975  14.175
 8325TIP3   OH246465   2.655   0.836   2.516
 8325TIP3    H146466   2.597   0.809   2.587
 8325TIP3    H246467   2.732   0.780   2.525
 8326TIP3   OH246468   1.020   0.964   5.186
 8326TIP3    H146469   0.944   0.920   5.224
 8326TIP3    H246470   1.094   0.930   5.235
 8327TIP3   OH246471   0.424   2.378   2.814
 8327TIP3    H146472   0.494   2.436   2.783
 8327TIP3    H246473   0.375   2.432   2.876
 8328TIP3   OH246474   2.825   2.554  13.807
 8328TIP3    H146475   2.777   2.483  13.764
 8328TIP3    H246476   2.766   2.584  13.876
 8329TIP3   OH246477   2.576   5.314   5.212
 8329TIP3    H146478   2.637   5.340   5.143
 8329TIP3    H246479   2.491   5.305   5.168
 8330TIP3   OH246480   4.505   2.337  13.344
 8330TIP3    H146481   4.414   2.333  13.374
 8330TIP3    H246482   4.557   2.340  13.424
 8331TIP3   OH246483   3.201   1.740   0.507
 8331TIP3    H146484   3.241   1.687   0.576
 8331TIP3    H246485   3.155   1.809   0.554
 8332TIP3   OH246486   6.433   6.555   0.396
 8332TIP3    H146487   6.388   6.471   0.403
 8332TIP3    H246488   6.366   6.617   0.368
 8333TIP3   OH246489   2.429   0.021  12.283
 8333TIP3    H146490   2.457  -0.014  12.199
 8333TIP3    H246491   2.334   0.023  12.278
 8334TIP3   OH246492   4.455   3.044  13.925
 8334TIP3    H146493   4.549   3.047  13.906
 8334TIP3    H246494   4.416   3.108  13.866
 8335TIP3   OH246495   0.812   3.144  14.441
 8335TIP3    H146496   0.868   3.215  14.409
 8335TIP3    H246497   0.817   3.151  14.537
 8336TIP3   OH246498   2.127   2.480   3.406
 8336TIP3    H146499   2.127   2.498   3.312
 8336TIP3    H246500   2.176   2.552   3.444
 8337TIP3   OH246501   5.866   5.336  13.546
 8337TIP3    H146502   5.930   5.288  13.493
 8337TIP3    H246503   5.861   5.422  13.505
 8338TIP3   OH246504   3.354   3.129  11.813
 8338TIP3    H146505   3.321   3.039  11.820
 8338TIP3    H246506   3.276   3.183  11.800
 8339TIP3   OH246507   5.252   0.133   3.789
 8339TIP3    H146508   5.314   0.155   3.719
 8339TIP3    H246509   5.167   0.132   3.746
 8340TIP3   OH246510   0.947   3.840   1.988
 8340TIP3    H146511   0.868   3.788   1.972
 8340TIP3    H246512   0.917   3.913   2.042
 8341TIP3   OH246513   0.783   0.816   5.403
 8341TIP3    H146514   0.860   0.763   5.378
 8341TIP3    H246515   0.804   0.849   5.490
 8342TIP3   OH246516   0.500   3.264  13.229
 8342TIP3    H146517   0.468   3.354  13.222
 8342TIP3    H246518   0.573   3.269  13.291
 8343TIP3   OH246519   6.260   3.421   4.218
 8343TIP3    H146520   6.178   3.379   4.191
 8343TIP3    H246521   6.300   3.449   4.135
 8344TIP3   OH246522   5.394   2.481  16.477
 8344TIP3    H146523   5.362   2.391  16.487
 8344TIP3    H246524   5.452   2.478  16.402
 8345TIP3   OH246525   5.099   5.963  14.078
 8345TIP3    H146526   5.094   5.869  14.099
 8345TIP3    H246527   5.181   5.973  14.031
 8346TIP3   OH246528   5.339   0.162  13.568
 8346TIP3    H146529   5.416   0.113  13.599
 8346TIP3    H246530   5.375   0.244  13.536
 8347TIP3   OH246531   1.249   4.661   5.748
 8347TIP3    H146532   1.232   4.568   5.763
 8347TIP3    H246533   1.342   4.672   5.767
 8348TIP3   OH246534   5.287   5.402   3.503
 8348TIP3    H146535   5.319   5.488   3.477
 8348TIP3    H246536   5.361   5.343   3.485
 8349TIP3   OH246537   3.457   1.351  15.740
 8349TIP3    H146538   3.383   1.290  15.738
 8349TIP3    H246539   3.447   1.405  15.662
 8350TIP3   OH246540   3.918   4.716  16.244
 8350TIP3    H146541   3.930   4.698  16.338
 8350TIP3    H246542   3.998   4.681  16.204
 8351TIP3   OH246543   2.073   1.539  14.536
 8351TIP3    H146544   2.068   1.514  14.628
 8351TIP3    H246545   2.072   1.635  14.537
 8352TIP3   OH246546   4.179   3.309   0.002
 8352TIP3    H146547   4.117   3.348  -0.058
 8352TIP3    H246548   4.132   3.303   0.085
 8353TIP3   OH246549   5.420   3.604   0.192
 8353TIP3    H146550   5.495   3.583   0.136
 8353TIP3    H246551   5.399   3.695   0.170
 8354TIP3   OH246552   0.235   6.526  14.270
 8354TIP3    H146553   0.162   6.465  14.278
 8354TIP3    H246554   0.193   6.612  14.265
 8355TIP3   OH246555   2.204   3.966  11.701
 8355TIP3    H146556   2.271   3.954  11.768
 8355TIP3    H246557   2.187   3.877  11.668
 8356TIP3   OH246558   5.290   1.627   2.667
 8356TIP3    H146559   5.348   1.671   2.604
 8356TIP3    H246560   5.326   1.648   2.752
 8357TIP3   OH246561   6.599   3.210  13.915
 8357TIP3    H146562   6.536   3.274  13.949
 8357TIP3    H246563   6.665   3.202  13.983
 8358TIP3   OH246564   2.148   5.893  11.311
 8358TIP3    H146565   2.207   5.884  11.386
 8358TIP3    H246566   2.205   5.885  11.235
 8359TIP3   OH246567   4.586   0.453  11.385
 8359TIP3    H146568   4.524   0.462  11.312
 8359TIP3    H246569   4.531   0.452  11.463
 8360TIP3   OH246570   3.429   2.723  17.069
 8360TIP3    H146571   3.392   2.649  17.116
 8360TIP3    H246572   3.406   2.708  16.978
 8361TIP3   OH246573   2.969   0.964  13.266
 8361TIP3    H146574   2.966   0.917  13.183
 8361TIP3    H246575   2.923   0.907  13.328
 8362TIP3   OH246576   2.086   5.911  10.757
 8362TIP3    H146577   2.094   5.937  10.848
 8362TIP3    H246578   2.068   5.993  10.710
 8363TIP3   OH246579   2.588   5.282  14.504
 8363TIP3    H146580   2.621   5.253  14.419
 8363TIP3    H246581   2.632   5.366  14.520
 8364TIP3   OH246582   3.550   6.651  14.616
 8364TIP3    H146583   3.523   6.687  14.701
 8364TIP3    H246584   3.641   6.623  14.629
 8365TIP3   OH246585   4.655   3.500   6.176
 8365TIP3    H146586   4.749   3.508   6.157
 8365TIP3    H246587   4.626   3.589   6.196
 8366TIP3   OH246588   4.677   4.518   1.622
 8366TIP3    H146589   4.686   4.596   1.676
 8366TIP3    H246590   4.627   4.457   1.676
 8367TIP3   OH246591   2.266   3.529   1.526
 8367TIP3    H146592   2.344   3.514   1.578
 8367TIP3    H246593   2.198   3.477   1.568
 8368TIP3   OH246594   2.854   3.175  12.886
 8368TIP3    H146595   2.932   3.203  12.837
 8368TIP3    H246596   2.841   3.243  12.952
 8369TIP3   OH246597   2.086   3.883   0.477
 8369TIP3    H146598   2.137   3.822   0.530
 8369TIP3    H246599   2.140   3.962   0.472
 8370TIP3   OH246600   2.820   3.784   3.019
 8370TIP3    H146601   2.785   3.832   2.944
 8370TIP3    H246602   2.856   3.851   3.076
 8371TIP3   OH246603   1.711   3.752   5.469
 8371TIP3    H146604   1.806   3.751   5.458
 8371TIP3    H246605   1.698   3.745   5.563
 8372TIP3   OH246606   1.163   2.019  12.599
 8372TIP3    H146607   1.178   2.044  12.691
 8372TIP3    H246608   1.248   2.031  12.557
 8373TIP3   OH246609   4.008   1.879  15.115
 8373TIP3    H146610   3.995   1.814  15.184
 8373TIP3    H246611   3.949   1.852  15.045
 8374TIP3   OH246612   5.709   2.194   0.509
 8374TIP3    H146613   5.649   2.267   0.494
 8374TIP3    H246614   5.792   2.236   0.533
 8375TIP3   OH246615   5.437   6.634   4.845
 8375TIP3    H146616   5.476   6.625   4.932
 8375TIP3    H246617   5.343   6.627   4.860
 8376TIP3   OH246618   0.658   5.185   4.144
 8376TIP3    H146619   0.700   5.270   4.129
 8376TIP3    H246620   0.684   5.132   4.068
 8377TIP3   OH246621   6.797   5.746   2.032
 8377TIP3    H146622   6.865   5.697   1.986
 8377TIP3    H246623   6.748   5.790   1.962
 8378TIP3   OH246624   3.038   5.620  14.033
 8378TIP3    H146625   2.975   5.683  14.000
 8378TIP3    H246626   3.122   5.648  13.998
 8379TIP3   OH246627   2.286   3.501   6.462
 8379TIP3    H146628   2.340   3.468   6.390
 8379TIP3    H246629   2.319   3.589   6.478
 8380TIP3   OH246630   1.836   5.636  15.221
 8380TIP3    H146631   1.784   5.633  15.141
 8380TIP3    H246632   1.835   5.546  15.254
 8381TIP3   OH246633   1.182   2.740   5.167
 8381TIP3    H146634   1.133   2.699   5.239
 8381TIP3    H246635   1.213   2.823   5.204
 8382TIP3   OH246636   1.360   5.930  17.215
 8382TIP3    H146637   1.365   6.007  17.159
 8382TIP3    H246638   1.285   5.880  17.181
 8383TIP3   OH246639   6.103   5.776  14.819
 8383TIP3    H146640   6.061   5.731  14.745
 8383TIP3    H246641   6.123   5.863  14.785
 8384TIP3   OH246642   4.269   2.513  16.840
 8384TIP3    H146643   4.193   2.481  16.888
 8384TIP3    H246644   4.291   2.596  16.881
 8385TIP3   OH246645   5.786   6.034   0.343
 8385TIP3    H146646   5.779   5.963   0.406
 8385TIP3    H246647   5.758   5.996   0.260
 8386TIP3   OH246648   6.376   4.251  11.689
 8386TIP3    H146649   6.394   4.325  11.631
 8386TIP3    H246650   6.407   4.174  11.642
 8387TIP3   OH246651   2.628   5.372   4.745
 8387TIP3    H146652   2.586   5.286   4.756
 8387TIP3    H246653   2.682   5.362   4.666
 8388TIP3   OH246654   0.136   1.497  14.779
 8388TIP3    H146655   0.231   1.491  14.788
 8388TIP3    H246656   0.119   1.590  14.764
 8389TIP3   OH246657   4.389   4.137  16.558
 8389TIP3    H146658   4.480   4.118  16.535
 8389TIP3    H246659   4.389   4.144  16.653
 8390TIP3   OH246660   3.607   1.937  14.496
 8390TIP3    H146661   3.578   2.028  14.498
 8390TIP3    H246662   3.599   1.912  14.404
 8391TIP3   OH246663   5.104   5.616   0.256
 8391TIP3    H146664   5.009   5.619   0.241
 8391TIP3    H246665   5.131   5.708   0.254
 8392TIP3   OH246666   6.124   3.446   3.943
 8392TIP3    H146667   6.197   3.388   3.923
 8392TIP3    H246668   6.146   3.528   3.897
 8393TIP3   OH246669   2.013   2.801  12.547
 8393TIP3    H146670   2.048   2.839  12.466
 8393TIP3    H246671   1.952   2.734  12.517
 8394TIP3   OH246672   2.663   3.632  12.530
 8394TIP3    H146673   2.717   3.696  12.576
 8394TIP3    H246674   2.584   3.624  12.583
 8395TIP3   OH246675   4.975   1.710  12.062
 8395TIP3    H146676   5.001   1.792  12.103
 8395TIP3    H246677   4.904   1.735  12.002
 8396TIP3   OH246678   1.679   6.691  12.260
 8396TIP3    H146679   1.734   6.636  12.203
 8396TIP3    H246680   1.596   6.697  12.214
 8397TIP3   OH246681   1.698   0.623  14.507
 8397TIP3    H146682   1.679   0.531  14.491
 8397TIP3    H246683   1.721   0.659  14.421
 8398TIP3   OH246684   6.137   6.430   0.825
 8398TIP3    H146685   6.194   6.485   0.878
 8398TIP3    H246686   6.196   6.379   0.769
 8399TIP3   OH246687   2.663   4.330  13.981
 8399TIP3    H146688   2.635   4.320  13.890
 8399TIP3    H246689   2.652   4.243  14.020
 8400TIP3   OH246690   4.050   3.753   3.400
 8400TIP3    H146691   3.971   3.739   3.453
 8400TIP3    H246692   4.022   3.735   3.310
 8401TIP3   OH246693   4.167   2.375   2.883
 8401TIP3    H146694   4.145   2.397   2.973
 8401TIP3    H246695   4.246   2.427   2.864
 8402TIP3   OH246696   3.612   2.104  14.889
 8402TIP3    H146697   3.617   2.058  14.973
 8402TIP3    H246698   3.659   2.047  14.828
 8403TIP3   OH246699   2.566   1.220  17.217
 8403TIP3    H146700   2.659   1.221  17.193
 8403TIP3    H246701   2.562   1.167  17.296
 8404TIP3   OH246702   3.001   0.337   4.762
 8404TIP3    H146703   3.075   0.286   4.794
 8404TIP3    H246704   3.021   0.354   4.670
 8405TIP3   OH246705   2.718   4.480   2.805
 8405TIP3    H146706   2.677   4.415   2.863
 8405TIP3    H246707   2.699   4.564   2.847
 8406TIP3   OH246708   3.992   3.169  15.675
 8406TIP3    H146709   3.958   3.250  15.713
 8406TIP3    H246710   4.029   3.121  15.749
 8407TIP3   OH246711   4.355   3.536  14.091
 8407TIP3    H146712   4.376   3.629  14.089
 8407TIP3    H246713   4.422   3.497  14.147
 8408TIP3   OH246714   0.761   0.691  13.478
 8408TIP3    H146715   0.679   0.705  13.431
 8408TIP3    H246716   0.829   0.713  13.414
 8409TIP3   OH246717   3.484   1.836   3.823
 8409TIP3    H146718   3.441   1.787   3.754
 8409TIP3    H246719   3.537   1.901   3.777
 8410TIP3   OH246720   4.985   2.450  12.729
 8410TIP3    H146721   4.937   2.407  12.799
 8410TIP3    H246722   4.918   2.497  12.679
 8411TIP3   OH246723   1.839   2.793   4.040
 8411TIP3    H146724   1.759   2.799   3.987
 8411TIP3    H246725   1.910   2.789   3.976
 8412TIP3   OH246726   5.222   1.483  14.565
 8412TIP3    H146727   5.286   1.553  14.580
 8412TIP3    H246728   5.204   1.487  14.471
 8413TIP3   OH246729   3.744   0.912  14.093
 8413TIP3    H146730   3.728   1.000  14.125
 8413TIP3    H246731   3.824   0.919  14.040
 8414TIP3   OH246732   0.216   5.356  15.552
 8414TIP3    H146733   0.155   5.405  15.498
 8414TIP3    H246734   0.256   5.293  15.492
 8415TIP3   OH246735   3.699   4.683  11.244
 8415TIP3    H146736   3.688   4.607  11.185
 8415TIP3    H246737   3.732   4.752  11.187
 8416TIP3   OH246738   0.328   6.165   3.957
 8416TIP3    H146739   0.311   6.193   4.047
 8416TIP3    H246740   0.421   6.182   3.943
 8417TIP3   OH246741   3.884   5.986  15.522
 8417TIP3    H146742   3.860   5.913  15.465
 8417TIP3    H246743   3.886   6.062  15.465
 8418TIP3   OH246744   2.744   6.215  15.161
 8418TIP3    H146745   2.760   6.243  15.071
 8418TIP3    H246746   2.735   6.120  15.156
 8419TIP3   OH246747   3.668   6.187   5.857
 8419TIP3    H146748   3.642   6.114   5.801
 8419TIP3    H246749   3.762   6.199   5.839
 8420TIP3   OH246750   4.734   1.661  16.722
 8420TIP3    H146751   4.793   1.586  16.722
 8420TIP3    H246752   4.770   1.720  16.656
 8421TIP3   OH246753   6.375   6.676  14.364
 8421TIP3    H146754   6.460   6.714  14.344
 8421TIP3    H246755   6.385   6.582  14.346
 8422TIP3   OH246756   3.756   4.131  13.481
 8422TIP3    H146757   3.788   4.048  13.444
 8422TIP3    H246758   3.670   4.110  13.516
 8423TIP3   OH246759   1.721   2.061   3.301
 8423TIP3    H146760   1.814   2.039   3.301
 8423TIP3    H246761   1.704   2.096   3.213
 8424TIP3   OH246762   5.477   2.058  14.515
 8424TIP3    H146763   5.452   1.978  14.469
 8424TIP3    H246764   5.432   2.053  14.599
 8425TIP3   OH246765   0.740   2.284  11.530
 8425TIP3    H146766   0.684   2.337  11.473
 8425TIP3    H246767   0.796   2.349  11.575
 8426TIP3   OH246768   1.973   1.243  12.180
 8426TIP3    H146769   2.011   1.308  12.239
 8426TIP3    H246770   2.042   1.226  12.116
 8427TIP3   OH246771   6.754   5.459   4.758
 8427TIP3    H146772   6.677   5.515   4.752
 8427TIP3    H246773   6.728   5.387   4.815
 8428TIP3   OH246774   1.588   5.167  13.593
 8428TIP3    H146775   1.668   5.202  13.553
 8428TIP3    H246776   1.521   5.182  13.527
 8429TIP3   OH246777   2.365   3.608   1.231
 8429TIP3    H146778   2.282   3.653   1.217
 8429TIP3    H246779   2.365   3.585   1.324
 8430TIP3   OH246780   4.763   1.194  11.545
 8430TIP3    H146781   4.676   1.165  11.516
 8430TIP3    H246782   4.764   1.176  11.638
 8431TIP3   OH246783   6.450   3.621  16.852
 8431TIP3    H146784   6.407   3.683  16.793
 8431TIP3    H246785   6.401   3.539  16.841
 8432TIP3   OH246786   6.678   2.723   3.968
 8432TIP3    H146787   6.630   2.800   3.998
 8432TIP3    H246788   6.701   2.676   4.048
 8433TIP3   OH246789   3.209   4.977  13.085
 8433TIP3    H146790   3.120   5.002  13.063
 8433TIP3    H246791   3.210   4.882  13.081
 8434TIP3   OH246792   6.680   5.950  13.713
 8434TIP3    H146793   6.608   5.956  13.776
 8434TIP3    H246794   6.688   5.857  13.693
 8435TIP3   OH246795   5.475   4.671   5.403
 8435TIP3    H146796   5.570   4.663   5.395
 8435TIP3    H246797   5.456   4.761   5.376
 8436TIP3   OH246798   4.043   3.131   5.559
 8436TIP3    H146799   4.033   3.036   5.566
 8436TIP3    H246800   3.987   3.166   5.629
 8437TIP3   OH246801   0.233   1.652   3.240
 8437TIP3    H146802   0.260   1.565   3.209
 8437TIP3    H246803   0.310   1.685   3.286
 8438TIP3   OH246804   3.191   3.397   5.632
 8438TIP3    H146805   3.275   3.431   5.662
 8438TIP3    H246806   3.137   3.476   5.620
 8439TIP3   OH246807   3.390   4.374   1.763
 8439TIP3    H146808   3.323   4.361   1.695
 8439TIP3    H246809   3.456   4.428   1.719
 8440TIP3   OH246810   2.447   4.039   3.284
 8440TIP3    H146811   2.476   3.977   3.351
 8440TIP3    H246812   2.519   4.042   3.220
 8441TIP3   OH246813   4.112   1.574  14.690
 8441TIP3    H146814   4.019   1.551  14.683
 8441TIP3    H246815   4.153   1.496  14.727
 8442TIP3   OH246816   3.553   5.860  13.031
 8442TIP3    H146817   3.502   5.814  12.964
 8442TIP3    H246818   3.636   5.813  13.034
 8443TIP3   OH246819   1.004   3.259   3.955
 8443TIP3    H146820   1.085   3.252   4.004
 8443TIP3    H246821   0.953   3.181   3.980
 8444TIP3   OH246822   2.217   5.071  15.154
 8444TIP3    H146823   2.207   5.138  15.221
 8444TIP3    H246824   2.147   5.009  15.172
 8445TIP3   OH246825   5.984   4.019  11.222
 8445TIP3    H146826   5.894   3.989  11.214
 8445TIP3    H246827   6.014   3.984  11.306
 8446TIP3   OH246828   2.053   5.470  11.817
 8446TIP3    H146829   2.148   5.474  11.833
 8446TIP3    H246830   2.030   5.379  11.837
 8447TIP3   OH246831   0.082   5.240  13.877
 8447TIP3    H146832  -0.012   5.234  13.898
 8447TIP3    H246833   0.107   5.150  13.855
 8448TIP3   OH246834   2.113   2.592   3.167
 8448TIP3    H146835   2.138   2.654   3.099
 8448TIP3    H246836   2.020   2.574   3.150
 8449TIP3   OH246837   0.681   4.373  16.152
 8449TIP3    H146838   0.726   4.446  16.110
 8449TIP3    H246839   0.735   4.353  16.229
 8450TIP3   OH246840   0.899   2.671  13.608
 8450TIP3    H146841   0.921   2.683  13.700
 8450TIP3    H246842   0.974   2.708  13.561
 8451TIP3   OH246843   5.348   0.812  12.705
 8451TIP3    H146844   5.276   0.812  12.642
 8451TIP3    H246845   5.375   0.903  12.710
 8452TIP3   OH246846   2.995   6.508  16.087
 8452TIP3    H146847   2.915   6.482  16.042
 8452TIP3    H246848   3.033   6.576  16.031
 8453TIP3   OH246849   1.363   5.280   1.160
 8453TIP3    H146850   1.319   5.224   1.097
 8453TIP3    H246851   1.293   5.309   1.219
 8454TIP3   OH246852   4.478   1.581  14.141
 8454TIP3    H146853   4.391   1.558  14.110
 8454TIP3    H246854   4.495   1.520  14.214
 8455TIP3   OH246855   5.623   4.944  15.305
 8455TIP3    H146856   5.630   5.040  15.307
 8455TIP3    H246857   5.655   4.920  15.218
 8456TIP3   OH246858   1.384   5.435   3.664
 8456TIP3    H146859   1.355   5.526   3.669
 8456TIP3    H246860   1.417   5.415   3.751
 8457TIP3   OH246861   5.698   4.136  12.094
 8457TIP3    H146862   5.631   4.078  12.057
 8457TIP3    H246863   5.763   4.145  12.024
 8458TIP3   OH246864   0.788   6.354  14.264
 8458TIP3    H146865   0.732   6.377  14.190
 8458TIP3    H246866   0.765   6.417  14.332
 8459TIP3   OH246867   5.275   1.090  12.175
 8459TIP3    H146868   5.198   1.045  12.209
 8459TIP3    H246869   5.242   1.171  12.137
 8460TIP3   OH246870   4.532   5.129   1.202
 8460TIP3    H146871   4.554   5.149   1.293
 8460TIP3    H246872   4.615   5.104   1.162
 8461TIP3   OH246873   4.328   3.282   5.217
 8461TIP3    H146874   4.337   3.304   5.310
 8461TIP3    H246875   4.258   3.217   5.214
 8462TIP3   OH246876   4.741   4.120   5.919
 8462TIP3    H146877   4.654   4.131   5.880
 8462TIP3    H246878   4.724   4.117   6.013
 8463TIP3   OH246879   1.449   4.636   4.211
 8463TIP3    H146880   1.475   4.617   4.120
 8463TIP3    H246881   1.531   4.630   4.261
 8464TIP3   OH246882   4.880   0.718  11.769
 8464TIP3    H146883   4.857   0.651  11.834
 8464TIP3    H246884   4.821   0.703  11.696
 8465TIP3   OH246885   6.068   1.977  13.722
 8465TIP3    H146886   6.014   1.917  13.670
 8465TIP3    H246887   6.100   1.923  13.795
 8466TIP3   OH246888   0.680   4.566   3.215
 8466TIP3    H146889   0.656   4.517   3.293
 8466TIP3    H246890   0.770   4.595   3.231
 8467TIP3   OH246891   2.133   0.538  16.092
 8467TIP3    H146892   2.046   0.560  16.059
 8467TIP3    H246893   2.130   0.444  16.106
 8468TIP3   OH246894   3.849   6.448  12.945
 8468TIP3    H146895   3.862   6.439  12.851
 8468TIP3    H246896   3.760   6.418  12.960
 8469TIP3   OH246897   3.389   5.280  12.785
 8469TIP3    H146898   3.303   5.254  12.753
 8469TIP3    H246899   3.450   5.221  12.741
 8470TIP3   OH246900   5.730   2.615   4.963
 8470TIP3    H146901   5.805   2.621   4.905
 8470TIP3    H246902   5.695   2.527   4.949
 8471TIP3   OH246903   5.299   1.432   5.755
 8471TIP3    H146904   5.291   1.342   5.787
 8471TIP3    H246905   5.294   1.486   5.834
 8472TIP3   OH246906   3.060   6.367   4.635
 8472TIP3    H146907   3.055   6.423   4.557
 8472TIP3    H246908   3.096   6.424   4.703
 8473TIP3   OH246909   4.794   5.810   5.292
 8473TIP3    H146910   4.855   5.765   5.351
 8473TIP3    H246911   4.800   5.761   5.210
 8474TIP3   OH246912   5.285   4.827   1.950
 8474TIP3    H146913   5.356   4.811   1.888
 8474TIP3    H246914   5.274   4.922   1.952
 8475TIP3   OH246915   0.313   0.679   4.035
 8475TIP3    H146916   0.355   0.710   4.116
 8475TIP3    H246917   0.377   0.619   3.996
 8476TIP3   OH246918   0.125   6.501   6.170
 8476TIP3    H146919   0.121   6.429   6.233
 8476TIP3    H246920   0.093   6.577   6.217
 8477TIP3   OH246921   4.193   2.116   4.870
 8477TIP3    H146922   4.188   2.208   4.842
 8477TIP3    H246923   4.143   2.069   4.803
 8478TIP3   OH246924   2.293   4.079   0.032
 8478TIP3    H146925   2.213   4.027   0.036
 8478TIP3    H246926   2.291   4.119  -0.055
 8479TIP3   OH246927   0.767   3.230  12.014
 8479TIP3    H146928   0.718   3.233  11.931
 8479TIP3    H246929   0.744   3.311  12.059
 8480TIP3   OH246930   1.723   0.484   4.268
 8480TIP3    H146931   1.637   0.489   4.226
 8480TIP3    H246932   1.716   0.407   4.326
 8481TIP3   OH246933   3.433   2.892   3.689
 8481TIP3    H146934   3.393   2.815   3.649
 8481TIP3    H246935   3.400   2.966   3.638
 8482TIP3   OH246936   5.729   0.380   4.360
 8482TIP3    H146937   5.707   0.470   4.335
 8482TIP3    H246938   5.715   0.329   4.281
 8483TIP3   OH246939   3.015   3.133   0.632
 8483TIP3    H146940   2.954   3.180   0.690
 8483TIP3    H246941   3.099   3.138   0.678
 8484TIP3   OH246942   4.760   0.966   3.794
 8484TIP3    H146943   4.706   0.912   3.851
 8484TIP3    H246944   4.838   0.986   3.846
 8485TIP3   OH246945   3.229   5.965  12.384
 8485TIP3    H146946   3.206   5.963  12.291
 8485TIP3    H246947   3.165   6.025  12.423
 8486TIP3   OH246948   5.438   5.771   1.161
 8486TIP3    H146949   5.527   5.736   1.161
 8486TIP3    H246950   5.401   5.742   1.244
 8487TIP3   OH246951   3.816   0.762   5.586
 8487TIP3    H146952   3.728   0.793   5.567
 8487TIP3    H246953   3.850   0.733   5.502
 8488TIP3   OH246954   4.106   3.532  15.488
 8488TIP3    H146955   4.107   3.623  15.517
 8488TIP3    H246956   4.033   3.493  15.536
 8489TIP3   OH246957   2.151   5.222   5.890
 8489TIP3    H146958   2.079   5.233   5.952
 8489TIP3    H246959   2.169   5.128   5.892
 8490TIP3   OH246960   5.100   5.753   2.055
 8490TIP3    H146961   5.168   5.786   2.113
 8490TIP3    H246962   5.137   5.674   2.017
 8491TIP3   OH246963   5.731   3.455   4.237
 8491TIP3    H146964   5.773   3.484   4.318
 8491TIP3    H246965   5.641   3.486   4.244
 8492TIP3   OH246966   6.140   1.782  13.906
 8492TIP3    H146967   6.202   1.848  13.939
 8492TIP3    H246968   6.068   1.783  13.968
 8493TIP3   OH246969   5.009   3.319   2.239
 8493TIP3    H146970   5.032   3.264   2.164
 8493TIP3    H246971   5.088   3.318   2.294
 8494TIP3   OH246972   3.780   3.074   1.560
 8494TIP3    H146973   3.708   3.113   1.511
 8494TIP3    H246974   3.809   3.143   1.619
 8495TIP3   OH246975   0.254   5.044  13.768
 8495TIP3    H146976   0.350   5.043  13.767
 8495TIP3    H246977   0.228   5.027  13.677
 8496TIP3   OH246978   2.267   0.521   3.449
 8496TIP3    H146979   2.321   0.456   3.494
 8496TIP3    H246980   2.215   0.470   3.387
 8497TIP3   OH246981   0.302   4.037  13.859
 8497TIP3    H146982   0.279   4.031  13.951
 8497TIP3    H246983   0.300   4.131  13.839
 8498TIP3   OH246984   1.981   1.207  13.535
 8498TIP3    H146985   1.897   1.185  13.495
 8498TIP3    H246986   2.030   1.248  13.464
 8499TIP3   OH246987   5.426   5.667   4.940
 8499TIP3    H146988   5.485   5.604   4.899
 8499TIP3    H246989   5.442   5.657   5.034
 8500TIP3   OH246990   6.574   2.032  14.666
 8500TIP3    H146991   6.600   1.944  14.692
 8500TIP3    H246992   6.574   2.030  14.570
 8501TIP3   OH246993   5.063   1.850  11.743
 8501TIP3    H146994   5.135   1.862  11.681
 8501TIP3    H246995   5.066   1.929  11.797
 8502TIP3   OH246996   1.673   6.057   2.612
 8502TIP3    H146997   1.657   6.064   2.706
 8502TIP3    H246998   1.725   6.134   2.590
 8503TIP3   OH246999   1.549   5.596   2.109
 8503TIP3    H147000   1.551   5.652   2.031
 8503TIP3    H247001   1.595   5.517   2.083
 8504TIP3   OH247002   2.696   2.407  12.058
 8504TIP3    H147003   2.613   2.360  12.071
 8504TIP3    H247004   2.763   2.344  12.085
 8505TIP3   OH247005   6.703   4.941  13.974
 8505TIP3    H147006   6.646   4.935  14.050
 8505TIP3    H247007   6.788   4.912  14.005
 8506TIP3   OH247008   2.559   4.618   2.557
 8506TIP3    H147009   2.520   4.681   2.616
 8506TIP3    H247010   2.610   4.671   2.495
 8507TIP3   OH247011   1.344   1.330  10.854
 8507TIP3    H147012   1.422   1.385  10.848
 8507TIP3    H247013   1.279   1.375  10.800
 8508TIP3   OH247014   1.530   0.935   4.988
 8508TIP3    H147015   1.590   0.914   5.059
 8508TIP3    H247016   1.459   0.984   5.029
 8509TIP3   OH247017   6.010   4.648  14.469
 8509TIP3    H147018   5.930   4.662  14.521
 8509TIP3    H247019   6.081   4.655  14.532
 8510TIP3   OH247020   4.406   0.029  16.677
 8510TIP3    H147021   4.472   0.079  16.724
 8510TIP3    H247022   4.433   0.033  16.586
 8511TIP3   OH247023   3.957   1.619   0.913
 8511TIP3    H147024   4.043   1.652   0.941
 8511TIP3    H247025   3.931   1.678   0.842
 8512TIP3   OH247026   5.495   0.238  13.319
 8512TIP3    H147027   5.429   0.169  13.315
 8512TIP3    H247028   5.578   0.193  13.306
 8513TIP3   OH247029   2.882   2.407   2.752
 8513TIP3    H147030   2.941   2.455   2.695
 8513TIP3    H247031   2.802   2.397   2.700
 8514TIP3   OH247032   5.497   0.150   0.402
 8514TIP3    H147033   5.525   0.198   0.480
 8514TIP3    H247034   5.419   0.103   0.430
 8515TIP3   OH247035   6.765   2.507  11.969
 8515TIP3    H147036   6.815   2.439  11.923
 8515TIP3    H247037   6.828   2.577  11.983
 8516TIP3   OH247038   2.035   0.069  15.474
 8516TIP3    H147039   2.000   0.142  15.525
 8516TIP3    H247040   2.066   0.110  15.393
 8517TIP3   OH247041   1.224   0.612   6.860
 8517TIP3    H147042   1.281   0.546   6.822
 8517TIP3    H247043   1.198   0.667   6.786
 8518TIP3   OH247044   2.226   2.963   6.335
 8518TIP3    H147045   2.150   2.961   6.393
 8518TIP3    H247046   2.300   2.944   6.392
 8519TIP3   OH247047   2.854   5.608   4.259
 8519TIP3    H147048   2.811   5.677   4.208
 8519TIP3    H247049   2.948   5.620   4.241
 8520TIP3   OH247050   4.101   1.173   0.908
 8520TIP3    H147051   4.080   1.080   0.909
 8520TIP3    H247052   4.021   1.215   0.941
 8521TIP3   OH247053   1.180   2.286  11.255
 8521TIP3    H147054   1.194   2.192  11.264
 8521TIP3    H247055   1.098   2.303  11.301
 8522TIP3   OH247056   3.043   1.823   2.396
 8522TIP3    H147057   3.089   1.904   2.375
 8522TIP3    H247058   3.080   1.758   2.336
 8523TIP3   OH247059   1.717   0.392  10.866
 8523TIP3    H147060   1.626   0.395  10.837
 8523TIP3    H247061   1.724   0.463  10.929
 8524TIP3   OH247062   4.518   3.948  14.712
 8524TIP3    H147063   4.491   3.906  14.630
 8524TIP3    H247064   4.493   4.040  14.701
 8525TIP3   OH247065   6.034   2.555   3.042
 8525TIP3    H147066   5.950   2.510   3.045
 8525TIP3    H247067   6.018   2.639   3.084
 8526TIP3   OH247068   0.937   1.373   4.559
 8526TIP3    H147069   0.948   1.359   4.653
 8526TIP3    H247070   0.897   1.292   4.527
 8527TIP3   OH247071   1.417   1.610  16.488
 8527TIP3    H147072   1.426   1.665  16.410
 8527TIP3    H247073   1.454   1.662  16.559
 8528TIP3   OH247074   4.414   0.236  12.844
 8528TIP3    H147075   4.452   0.319  12.814
 8528TIP3    H247076   4.486   0.173  12.838
 8529TIP3   OH247077   5.760   1.148   2.615
 8529TIP3    H147078   5.668   1.162   2.593
 8529TIP3    H247079   5.775   1.055   2.598
 8530TIP3   OH247080   2.978   2.264  15.794
 8530TIP3    H147081   2.890   2.228  15.781
 8530TIP3    H247082   2.986   2.274  15.888
 8531TIP3   OH247083   4.595   1.424   6.487
 8531TIP3    H147084   4.519   1.397   6.540
 8531TIP3    H247085   4.641   1.342   6.469
 8532TIP3   OH247086   3.098   2.431   0.762
 8532TIP3    H147087   3.064   2.502   0.708
 8532TIP3    H247088   3.037   2.359   0.749
 8533TIP3   OH247089   0.571   1.895  11.783
 8533TIP3    H147090   0.576   1.990  11.795
 8533TIP3    H247091   0.478   1.875  11.790
 8534TIP3   OH247092   3.981   3.865  13.713
 8534TIP3    H147093   3.954   3.804  13.645
 8534TIP3    H247094   4.034   3.930  13.668
 8535TIP3   OH247095   1.037   1.102  14.282
 8535TIP3    H147096   0.984   1.041  14.334
 8535TIP3    H247097   0.978   1.176  14.265
 8536TIP3   OH247098   5.003   2.360  16.434
 8536TIP3    H147099   4.967   2.272  16.445
 8536TIP3    H247100   5.077   2.364  16.494
 8537TIP3   OH247101   2.059   2.090  14.405
 8537TIP3    H147102   2.086   2.154  14.471
 8537TIP3    H247103   2.141   2.047  14.378
 8538TIP3   OH247104   5.227   0.233   2.031
 8538TIP3    H147105   5.158   0.167   2.026
 8538TIP3    H247106   5.181   0.314   2.053
 8539TIP3   OH247107   5.091   3.343  12.566
 8539TIP3    H147108   5.039   3.396  12.627
 8539TIP3    H247109   5.141   3.284  12.622
 8540TIP3   OH247110   0.905   1.598   2.681
 8540TIP3    H147111   0.953   1.677   2.705
 8540TIP3    H247112   0.927   1.584   2.588
 8541TIP3   OH247113   2.566   4.440  16.411
 8541TIP3    H147114   2.501   4.465  16.476
 8541TIP3    H247115   2.632   4.390  16.459
 8542TIP3   OH247116   2.219   1.429  17.049
 8542TIP3    H147117   2.310   1.448  17.025
 8542TIP3    H247118   2.225   1.395  17.138
 8543TIP3   OH247119   3.104   3.270  10.641
 8543TIP3    H147120   3.171   3.308  10.697
 8543TIP3    H247121   3.024   3.316  10.664
 8544TIP3   OH247122   3.796   0.455  12.205
 8544TIP3    H147123   3.880   0.457  12.251
 8544TIP3    H247124   3.763   0.366  12.217
 8545TIP3   OH247125   5.165   4.843  13.917
 8545TIP3    H147126   5.163   4.757  13.959
 8545TIP3    H247127   5.078   4.853  13.879
 8546TIP3   OH247128   1.490   0.964   4.494
 8546TIP3    H147129   1.561   1.027   4.488
 8546TIP3    H247130   1.498   0.925   4.581
 8547TIP3   OH247131   2.806   3.777  17.028
 8547TIP3    H147132   2.890   3.820  17.035
 8547TIP3    H247133   2.827   3.689  16.996
 8548TIP3   OH247134   5.716   2.007   2.436
 8548TIP3    H147135   5.756   2.084   2.396
 8548TIP3    H247136   5.716   2.026   2.530
 8549TIP3   OH247137   4.295   0.969   0.724
 8549TIP3    H147138   4.362   0.974   0.793
 8549TIP3    H247139   4.322   0.895   0.670
 8550TIP3   OH247140   4.362   4.984  15.960
 8550TIP3    H147141   4.295   4.921  15.933
 8550TIP3    H247142   4.364   5.048  15.889
 8551TIP3   OH247143   2.033   5.975   0.003
 8551TIP3    H147144   2.093   5.960  -0.070
 8551TIP3    H247145   2.011   5.888   0.035
 8552TIP3   OH247146   1.473   3.064   3.604
 8552TIP3    H147147   1.433   3.079   3.690
 8552TIP3    H247148   1.457   2.971   3.586
 8553TIP3   OH247149   5.542   5.107   0.598
 8553TIP3    H147150   5.471   5.043   0.592
 8553TIP3    H247151   5.558   5.134   0.508
 8554TIP3   OH247152   4.283   0.121  14.879
 8554TIP3    H147153   4.364   0.136  14.928
 8554TIP3    H247154   4.217   0.172  14.925
 8555TIP3   OH247155   5.523   4.599   6.617
 8555TIP3    H147156   5.549   4.690   6.626
 8555TIP3    H247157   5.457   4.599   6.547
 8556TIP3   OH247158   4.994   2.268  15.079
 8556TIP3    H147159   4.975   2.251  14.987
 8556TIP3    H247160   4.922   2.224  15.126
 8557TIP3   OH247161   1.082   2.932   1.697
 8557TIP3    H147162   1.046   2.867   1.637
 8557TIP3    H247163   1.050   3.016   1.664
 8558TIP3   OH247164   3.656   5.003  11.183
 8558TIP3    H147165   3.735   5.057  11.187
 8558TIP3    H247166   3.616   5.013  11.269
 8559TIP3   OH247167   2.031   6.047  14.187
 8559TIP3    H147168   2.099   6.113  14.180
 8559TIP3    H247169   1.986   6.067  14.268
 8560TIP3   OH247170   3.076   6.274   0.801
 8560TIP3    H147171   3.133   6.226   0.862
 8560TIP3    H247172   3.133   6.294   0.726
 8561TIP3   OH247173   3.505   0.880   3.231
 8561TIP3    H147174   3.487   0.971   3.206
 8561TIP3    H247175   3.567   0.887   3.304
 8562TIP3   OH247176   0.312   2.016   0.092
 8562TIP3    H147177   0.398   2.023   0.050
 8562TIP3    H247178   0.263   2.091   0.060
 8563TIP3   OH247179   3.260   6.676   5.255
 8563TIP3    H147180   3.221   6.683   5.168
 8563TIP3    H247181   3.350   6.706   5.244
 8564TIP3   OH247182   6.631   2.887   1.013
 8564TIP3    H147183   6.557   2.894   0.952
 8564TIP3    H247184   6.703   2.857   0.958
 8565TIP3   OH247185   2.003   3.946   1.504
 8565TIP3    H147186   2.003   3.862   1.549
 8565TIP3    H247187   1.946   4.002   1.556
 8566TIP3   OH247188   6.810   1.684  11.072
 8566TIP3    H147189   6.819   1.595  11.038
 8566TIP3    H247190   6.896   1.724  11.059
 8567TIP3   OH247191   0.251   4.404   5.970
 8567TIP3    H147192   0.233   4.348   5.895
 8567TIP3    H247193   0.340   4.379   5.998
 8568TIP3   OH247194   6.025   0.123  13.892
 8568TIP3    H147195   6.011   0.046  13.946
 8568TIP3    H247196   5.968   0.109  13.816
 8569TIP3   OH247197   0.092   6.325   4.659
 8569TIP3    H147198   0.070   6.411   4.625
 8569TIP3    H247199   0.153   6.342   4.730
 8570TIP3   OH247200   0.184   3.551   4.988
 8570TIP3    H147201   0.205   3.509   4.905
 8570TIP3    H247202   0.196   3.482   5.053
 8571TIP3   OH247203   4.497   4.956   5.245
 8571TIP3    H147204   4.403   4.945   5.233
 8571TIP3    H247205   4.536   4.897   5.180
 8572TIP3   OH247206   5.049   1.673   3.994
 8572TIP3    H147207   5.098   1.625   3.928
 8572TIP3    H247208   4.962   1.685   3.955
 8573TIP3   OH247209   4.105   2.735  14.054
 8573TIP3    H147210   4.138   2.791  13.984
 8573TIP3    H247211   4.141   2.772  14.134
 8574TIP3   OH247212   3.669   4.087  15.329
 8574TIP3    H147213   3.669   4.038  15.411
 8574TIP3    H247214   3.578   4.085  15.299
 8575TIP3   OH247215   0.535   2.571  15.302
 8575TIP3    H147216   0.491   2.648  15.339
 8575TIP3    H247217   0.621   2.603  15.275
 8576TIP3   OH247218   0.196   6.119  17.068
 8576TIP3    H147219   0.290   6.136  17.062
 8576TIP3    H247220   0.183   6.085  17.156
 8577TIP3   OH247221   2.241   4.015  14.969
 8577TIP3    H147222   2.225   3.924  14.993
 8577TIP3    H247223   2.328   4.034  15.003
 8578TIP3   OH247224   3.303   2.154   3.541
 8578TIP3    H147225   3.262   2.174   3.457
 8578TIP3    H247226   3.254   2.079   3.575
 8579TIP3   OH247227   1.914   0.847   4.005
 8579TIP3    H147228   1.914   0.812   3.915
 8579TIP3    H247229   1.943   0.938   3.995
 8580TIP3   OH247230   4.998   1.144   4.400
 8580TIP3    H147231   4.924   1.202   4.417
 8580TIP3    H247232   5.008   1.094   4.481
 8581TIP3   OH247233   0.554   1.919  11.503
 8581TIP3    H147234   0.500   1.977  11.450
 8581TIP3    H247235   0.502   1.901  11.581
 8582TIP3   OH247236   1.852   2.529   3.169
 8582TIP3    H147237   1.812   2.601   3.121
 8582TIP3    H247238   1.809   2.450   3.135
 8583TIP3   OH247239   6.773   6.625  15.060
 8583TIP3    H147240   6.713   6.690  15.024
 8583TIP3    H247241   6.720   6.545  15.065
 8584TIP3   OH247242   3.573   0.040   0.840
 8584TIP3    H147243   3.628  -0.005   0.776
 8584TIP3    H247244   3.485   0.035   0.805
 8585TIP3   OH247245   6.440   3.247  13.184
 8585TIP3    H147246   6.428   3.341  13.171
 8585TIP3    H247247   6.462   3.214  13.097
 8586TIP3   OH247248   6.375   4.635  12.824
 8586TIP3    H147249   6.412   4.593  12.746
 8586TIP3    H247250   6.312   4.571  12.857
 8587TIP3   OH247251   2.973   4.561   2.704
 8587TIP3    H147252   3.021   4.532   2.781
 8587TIP3    H247253   2.884   4.527   2.717
 8588TIP3   OH247254   0.240   1.645  12.767
 8588TIP3    H147255   0.294   1.639  12.688
 8588TIP3    H247256   0.150   1.653  12.734
 8589TIP3   OH247257   4.677   3.700   4.896
 8589TIP3    H147258   4.707   3.706   4.987
 8589TIP3    H247259   4.736   3.636   4.855
 8590TIP3   OH247260   4.162   3.247   6.293
 8590TIP3    H147261   4.110   3.226   6.371
 8590TIP3    H247262   4.231   3.305   6.325
 8591TIP3   OH247263   5.312   1.592   5.973
 8591TIP3    H147264   5.249   1.582   6.045
 8591TIP3    H247265   5.395   1.563   6.010
 8592TIP3   OH247266   4.828   2.164   0.382
 8592TIP3    H147267   4.800   2.238   0.435
 8592TIP3    H247268   4.815   2.088   0.439
 8593TIP3   OH247269   1.531   0.721  15.296
 8593TIP3    H147270   1.610   0.740  15.245
 8593TIP3    H247271   1.465   0.697  15.230
 8594TIP3   OH247272   6.555   3.120   3.575
 8594TIP3    H147273   6.483   3.176   3.545
 8594TIP3    H247274   6.618   3.121   3.503
 8595TIP3   OH247275   3.386   3.276   4.738
 8595TIP3    H147276   3.368   3.302   4.829
 8595TIP3    H247277   3.436   3.194   4.746
 8596TIP3   OH247278   3.241   6.441  13.163
 8596TIP3    H147279   3.328   6.441  13.121
 8596TIP3    H247280   3.180   6.430  13.090
 8597TIP3   OH247281   4.107   6.384  16.508
 8597TIP3    H147282   4.121   6.322  16.436
 8597TIP3    H247283   4.017   6.415  16.495
 8598TIP3   OH247284   4.753   2.349   6.279
 8598TIP3    H147285   4.755   2.434   6.236
 8598TIP3    H247286   4.838   2.342   6.323
 8599TIP3   OH247287   4.595   4.708   3.600
 8599TIP3    H147288   4.674   4.747   3.563
 8599TIP3    H247289   4.544   4.679   3.524
 8600TIP3   OH247290   2.574   3.405   4.789
 8600TIP3    H147291   2.534   3.325   4.823
 8600TIP3    H247292   2.668   3.389   4.793
 8601TIP3   OH247293   1.121   4.200  14.607
 8601TIP3    H147294   1.070   4.134  14.561
 8601TIP3    H247295   1.055   4.253  14.652
 8602TIP3   OH247296   3.415   3.356  12.300
 8602TIP3    H147297   3.348   3.289  12.286
 8602TIP3    H247298   3.366   3.437  12.309
 8603TIP3   OH247299   0.858   1.569  10.529
 8603TIP3    H147300   0.845   1.640  10.592
 8603TIP3    H247301   0.822   1.492  10.572
 8604TIP3   OH247302   5.607   5.522   5.751
 8604TIP3    H147303   5.666   5.568   5.811
 8604TIP3    H247304   5.565   5.455   5.805
 8605TIP3   OH247305   0.964   0.308  16.961
 8605TIP3    H147306   1.051   0.340  16.934
 8605TIP3    H247307   0.983   0.235  17.020
 8606TIP3   OH247308   2.264   6.534  13.336
 8606TIP3    H147309   2.218   6.458  13.372
 8606TIP3    H247310   2.356   6.510  13.341
 8607TIP3   OH247311   5.948   4.816  13.728
 8607TIP3    H147312   6.041   4.795  13.718
 8607TIP3    H247313   5.908   4.734  13.756
 8608TIP3   OH247314   0.170   5.670   5.694
 8608TIP3    H147315   0.109   5.671   5.620
 8608TIP3    H247316   0.251   5.706   5.659
 8609TIP3   OH247317   3.635   4.329   2.032
 8609TIP3    H147318   3.542   4.308   2.021
 8609TIP3    H247319   3.636   4.423   2.048
 8610TIP3   OH247320   6.342   4.672   2.406
 8610TIP3    H147321   6.263   4.676   2.459
 8610TIP3    H247322   6.402   4.616   2.456
 8611TIP3   OH247323   4.766   3.064  13.820
 8611TIP3    H147324   4.790   3.079  13.728
 8611TIP3    H247325   4.763   3.152  13.858
 8612TIP3   OH247326   0.305   1.055   5.001
 8612TIP3    H147327   0.305   1.004   5.082
 8612TIP3    H247328   0.343   0.996   4.935
 8613TIP3   OH247329   2.162   5.309   0.212
 8613TIP3    H147330   2.132   5.308   0.303
 8613TIP3    H247331   2.140   5.396   0.180
 8614TIP3   OH247332   5.011   1.425   0.249
 8614TIP3    H147333   4.941   1.428   0.313
 8614TIP3    H247334   5.053   1.511   0.255
 8615TIP3   OH247335   1.262   1.556  12.057
 8615TIP3    H147336   1.256   1.651  12.061
 8615TIP3    H247337   1.184   1.529  12.007
 8616TIP3   OH247338   3.963   4.587  16.488
 8616TIP3    H147339   3.992   4.499  16.461
 8616TIP3    H247340   3.907   4.571  16.564
 8617TIP3   OH247341   1.453   6.581  15.286
 8617TIP3    H147342   1.548   6.573  15.297
 8617TIP3    H247343   1.437   6.547  15.198
 8618TIP3   OH247344   4.648   3.455   0.740
 8618TIP3    H147345   4.627   3.482   0.651
 8618TIP3    H247346   4.573   3.482   0.792
 8619TIP3   OH247347   0.487   3.259   4.866
 8619TIP3    H147348   0.457   3.257   4.775
 8619TIP3    H247349   0.422   3.208   4.914
 8620TIP3   OH247350   2.051   6.050  15.118
 8620TIP3    H147351   2.002   6.005  15.187
 8620TIP3    H247352   1.984   6.086  15.060
 8621TIP3   OH247353   6.012   4.446   6.115
 8621TIP3    H147354   6.023   4.459   6.021
 8621TIP3    H247355   5.921   4.471   6.132
 8622TIP3   OH247356   1.140   4.214  11.623
 8622TIP3    H147357   1.198   4.153  11.578
 8622TIP3    H247358   1.054   4.172  11.620
 8623TIP3   OH247359   0.729   2.287   1.579
 8623TIP3    H147360   0.736   2.200   1.542
 8623TIP3    H247361   0.809   2.297   1.631
 8624TIP3   OH247362   6.362   5.474   2.668
 8624TIP3    H147363   6.348   5.380   2.682
 8624TIP3    H247364   6.456   5.482   2.653
 8625TIP3   OH247365   3.634   0.438   4.135
 8625TIP3    H147366   3.717   0.477   4.110
 8625TIP3    H247367   3.593   0.503   4.193
 8626TIP3   OH247368   5.257   3.117   0.115
 8626TIP3    H147369   5.239   3.105   0.208
 8626TIP3    H247370   5.306   3.039   0.090
 8627TIP3   OH247371   0.815   2.532   6.249
 8627TIP3    H147372   0.797   2.620   6.281
 8627TIP3    H247373   0.889   2.542   6.189
 8628TIP3   OH247374   1.574   4.517  17.062
 8628TIP3    H147375   1.529   4.523  17.147
 8628TIP3    H247376   1.513   4.557  17.000
 8629TIP3   OH247377   4.220   4.319  15.229
 8629TIP3    H147378   4.170   4.367  15.295
 8629TIP3    H247379   4.224   4.378  15.154
 8630TIP3   OH247380   6.482   6.104   3.458
 8630TIP3    H147381   6.460   6.021   3.416
 8630TIP3    H247382   6.471   6.169   3.389
 8631TIP3   OH247383   1.361   4.101  11.053
 8631TIP3    H147384   1.274   4.115  11.088
 8631TIP3    H247385   1.386   4.185  11.015
 8632TIP3   OH247386   3.796   0.898   3.302
 8632TIP3    H147387   3.850   0.933   3.373
 8632TIP3    H247388   3.795   0.803   3.317
 8633TIP3   OH247389   6.166   2.862  13.291
 8633TIP3    H147390   6.181   2.771  13.314
 8633TIP3    H247391   6.130   2.859  13.203
 8634TIP3   OH247392   0.259   3.390  15.099
 8634TIP3    H147393   0.276   3.433  15.183
 8634TIP3    H247394   0.333   3.330  15.088
 8635TIP3   OH247395   5.228   5.824  14.495
 8635TIP3    H147396   5.174   5.769  14.438
 8635TIP3    H247397   5.182   5.823  14.579
 8636TIP3   OH247398   5.793   0.915  14.538
 8636TIP3    H147399   5.731   0.981  14.506
 8636TIP3    H247400   5.798   0.851  14.467
 8637TIP3   OH247401   1.562   5.007   5.806
 8637TIP3    H147402   1.513   4.973   5.881
 8637TIP3    H247403   1.502   5.068   5.763
 8638TIP3   OH247404   1.673   1.099  12.105
 8638TIP3    H147405   1.632   1.100  12.192
 8638TIP3    H247406   1.740   1.167  12.110
 8639TIP3   OH247407   1.382   3.317  17.092
 8639TIP3    H147408   1.349   3.229  17.110
 8639TIP3    H247409   1.309   3.362  17.049
 8640TIP3   OH247410   0.778   1.453   0.430
 8640TIP3    H147411   0.796   1.416   0.516
 8640TIP3    H247412   0.729   1.385   0.384
 8641TIP3   OH247413   2.619   6.755  12.796
 8641TIP3    H147414   2.631   6.810  12.718
 8641TIP3    H247415   2.532   6.716  12.785
 8642TIP3   OH247416   5.787   1.890  14.549
 8642TIP3    H147417   5.801   1.951  14.476
 8642TIP3    H247418   5.851   1.917  14.615
 8643TIP3   OH247419   1.459   5.854   4.300
 8643TIP3    H147420   1.430   5.777   4.350
 8643TIP3    H247421   1.501   5.818   4.222
 8644TIP3   OH247422   3.031   4.288  11.523
 8644TIP3    H147423   3.047   4.230  11.598
 8644TIP3    H247424   2.939   4.272  11.500
 8645TIP3   OH247425   0.983   6.287   3.589
 8645TIP3    H147426   0.982   6.348   3.515
 8645TIP3    H247427   0.952   6.204   3.552
 8646TIP3   OH247428   4.871   3.823  16.853
 8646TIP3    H147429   4.881   3.854  16.763
 8646TIP3    H247430   4.783   3.786  16.856
 8647TIP3   OH247431   1.009   6.622   5.903
 8647TIP3    H147432   1.000   6.707   5.859
 8647TIP3    H247433   1.032   6.561   5.832
 8648TIP3   OH247434   1.220   6.124   1.072
 8648TIP3    H147435   1.217   6.044   1.020
 8648TIP3    H247436   1.289   6.177   1.032
 8649TIP3   OH247437   4.071   4.270   5.238
 8649TIP3    H147438   4.053   4.361   5.260
 8649TIP3    H247439   4.063   4.223   5.321
 8650TIP3   OH247440   5.693   4.548  17.051
 8650TIP3    H147441   5.756   4.607  17.009
 8650TIP3    H247442   5.695   4.468  16.998
 8651TIP3   OH247443   6.247   3.159  14.234
 8651TIP3    H147444   6.252   3.142  14.328
 8651TIP3    H247445   6.181   3.098  14.202
 8652TIP3   OH247446   1.132   0.546   0.543
 8652TIP3    H147447   1.174   0.575   0.461
 8652TIP3    H247448   1.064   0.611   0.559
 8653TIP3   OH247449   1.987   0.834   0.396
 8653TIP3    H147450   2.020   0.842   0.307
 8653TIP3    H247451   1.983   0.924   0.429
 8654TIP3   OH247452   0.568   4.019   3.250
 8654TIP3    H147453   0.517   4.086   3.204
 8654TIP3    H247454   0.602   3.963   3.182
 8655TIP3   OH247455   5.004   0.571   6.568
 8655TIP3    H147456   5.026   0.508   6.637
 8655TIP3    H247457   5.089   0.605   6.539
 8656TIP3   OH247458   6.035   3.069  15.565
 8656TIP3    H147459   6.059   3.160  15.544
 8656TIP3    H247460   6.072   3.017  15.494
 8657TIP3   OH247461   4.761   5.182   4.859
 8657TIP3    H147462   4.701   5.248   4.893
 8657TIP3    H247463   4.712   5.140   4.787
 8658TIP3   OH247464   4.034   1.296   3.826
 8658TIP3    H147465   4.070   1.368   3.774
 8658TIP3    H247466   4.012   1.336   3.910
 8659TIP3   OH247467   0.115   3.261   1.157
 8659TIP3    H147468   0.130   3.170   1.132
 8659TIP3    H247469   0.076   3.301   1.079
 8660TIP3   OH247470   1.326   4.050  16.125
 8660TIP3    H147471   1.378   3.970  16.118
 8660TIP3    H247472   1.235   4.021  16.112
 8661TIP3   OH247473   3.181   4.411  12.555
 8661TIP3    H147474   3.261   4.378  12.516
 8661TIP3    H247475   3.175   4.367  12.639
 8662TIP3   OH247476   0.342   1.516   0.619
 8662TIP3    H147477   0.408   1.455   0.652
 8662TIP3    H247478   0.346   1.507   0.524
 8663TIP3   OH247479   6.475   2.067  16.426
 8663TIP3    H147480   6.532   2.134  16.389
 8663TIP3    H247481   6.387   2.098  16.409
 8664TIP3   OH247482   5.841   0.523  11.668
 8664TIP3    H147483   5.831   0.618  11.659
 8664TIP3    H247484   5.883   0.495  11.587
 8665TIP3   OH247485   4.268   4.028   4.587
 8665TIP3    H147486   4.206   4.069   4.648
 8665TIP3    H247487   4.246   3.935   4.589
 8666TIP3   OH247488   4.089   5.830   4.396
 8666TIP3    H147489   4.157   5.896   4.382
 8666TIP3    H247490   4.120   5.779   4.471
 8667TIP3   OH247491   2.277   6.630   2.179
 8667TIP3    H147492   2.267   6.580   2.260
 8667TIP3    H247493   2.367   6.613   2.151
 8668TIP3   OH247494   2.383   0.383   1.748
 8668TIP3    H147495   2.448   0.368   1.817
 8668TIP3    H247496   2.362   0.476   1.755
 8669TIP3   OH247497   2.503   2.844  16.579
 8669TIP3    H147498   2.457   2.901  16.517
 8669TIP3    H247499   2.505   2.758  16.536
 8670TIP3   OH247500   2.729   0.516   2.589
 8670TIP3    H147501   2.678   0.525   2.508
 8670TIP3    H247502   2.819   0.507   2.560
 8671TIP3   OH247503   6.686   3.240   1.401
 8671TIP3    H147504   6.735   3.158   1.414
 8671TIP3    H247505   6.753   3.306   1.387
 8672TIP3   OH247506   2.974   6.012   5.583
 8672TIP3    H147507   2.878   6.009   5.580
 8672TIP3    H247508   2.994   6.062   5.662
 8673TIP3   OH247509   0.185   3.531   1.716
 8673TIP3    H147510   0.175   3.541   1.621
 8673TIP3    H247511   0.264   3.478   1.727
 8674TIP3   OH247512   0.072   0.548  15.949
 8674TIP3    H147513   0.122   0.629  15.943
 8674TIP3    H247514   0.136   0.482  15.974
 8675TIP3   OH247515   2.808   5.039   4.816
 8675TIP3    H147516   2.831   5.073   4.730
 8675TIP3    H247517   2.716   5.015   4.809
 8676TIP3   OH247518   0.830   5.478  14.960
 8676TIP3    H147519   0.853   5.489  14.868
 8676TIP3    H247520   0.787   5.559  14.985
 8677TIP3   OH247521   4.153   6.102   5.616
 8677TIP3    H147522   4.166   6.073   5.526
 8677TIP3    H247523   4.240   6.103   5.655
 8678TIP3   OH247524   3.140   6.475   5.633
 8678TIP3    H147525   3.101   6.557   5.604
 8678TIP3    H247526   3.180   6.496   5.718
 8679TIP3   OH247527   2.146   1.931  12.131
 8679TIP3    H147528   2.158   1.837  12.117
 8679TIP3    H247529   2.128   1.939  12.224
 8680TIP3   OH247530   4.885   0.839  12.459
 8680TIP3    H147531   4.857   0.887  12.538
 8680TIP3    H247532   4.833   0.759  12.461
 8681TIP3   OH247533   0.575   4.140   5.230
 8681TIP3    H147534   0.595   4.081   5.303
 8681TIP3    H247535   0.528   4.213   5.271
 8682TIP3   OH247536   5.334   1.044   3.795
 8682TIP3    H147537   5.353   1.042   3.889
 8682TIP3    H247538   5.298   1.131   3.780
 8683TIP3   OH247539   2.173   3.122  14.513
 8683TIP3    H147540   2.192   3.211  14.545
 8683TIP3    H247541   2.239   3.067  14.556
 8684TIP3   OH247542   6.053   3.893   2.194
 8684TIP3    H147543   6.100   3.942   2.262
 8684TIP3    H247544   6.121   3.872   2.129
 8685TIP3   OH247545   1.790   1.790   4.926
 8685TIP3    H147546   1.786   1.884   4.946
 8685TIP3    H247547   1.702   1.768   4.897
 8686TIP3   OH247548   4.356   5.630   3.686
 8686TIP3    H147549   4.410   5.555   3.710
 8686TIP3    H247550   4.276   5.592   3.649
 8687TIP3   OH247551   6.203   6.710   5.693
 8687TIP3    H147552   6.192   6.805   5.689
 8687TIP3    H247553   6.254   6.695   5.773
 8688TIP3   OH247554   0.899   2.300  13.974
 8688TIP3    H147555   0.919   2.261  14.059
 8688TIP3    H247556   0.890   2.394  13.992
 8689TIP3   OH247557   3.625   2.628   4.866
 8689TIP3    H147558   3.661   2.675   4.941
 8689TIP3    H247559   3.616   2.538   4.896
 8690TIP3   OH247560   2.739   3.250  14.906
 8690TIP3    H147561   2.687   3.329  14.921
 8690TIP3    H247562   2.681   3.178  14.930
 8691TIP3   OH247563   6.478   3.328   3.359
 8691TIP3    H147564   6.530   3.398   3.400
 8691TIP3    H247565   6.541   3.260   3.338
 8692TIP3   OH247566   0.942   2.926  15.075
 8692TIP3    H147567   0.945   3.013  15.036
 8692TIP3    H247568   0.890   2.874  15.014
 8693TIP3   OH247569   3.552   0.500   0.141
 8693TIP3    H147570   3.550   0.410   0.107
 8693TIP3    H247571   3.481   0.545   0.095
 8694TIP3   OH247572   5.598   5.586  15.976
 8694TIP3    H147573   5.598   5.682  15.980
 8694TIP3    H247574   5.644   5.559  16.056
 8695TIP3   OH247575   6.613   5.329  13.644
 8695TIP3    H147576   6.680   5.303  13.581
 8695TIP3    H247577   6.661   5.346  13.725
 8696TIP3   OH247578   1.098   6.674   3.862
 8696TIP3    H147579   1.026   6.703   3.807
 8696TIP3    H247580   1.149   6.753   3.878
 8697TIP3   OH247581   5.361   6.311   0.412
 8697TIP3    H147582   5.452   6.312   0.441
 8697TIP3    H247583   5.364   6.266   0.327
 8698TIP3   OH247584   6.285   0.123  14.263
 8698TIP3    H147585   6.375   0.155  14.261
 8698TIP3    H247586   6.291   0.035  14.300
 8699TIP3   OH247587   2.803   2.157  12.085
 8699TIP3    H147588   2.728   2.146  12.026
 8699TIP3    H247589   2.861   2.084  12.064
 8700TIP3   OH247590   1.600   5.717  12.896
 8700TIP3    H147591   1.512   5.718  12.933
 8700TIP3    H247592   1.653   5.766  12.959
 8701TIP3   OH247593   6.073   5.221  11.798
 8701TIP3    H147594   6.119   5.194  11.877
 8701TIP3    H247595   6.070   5.317  11.804
 8702TIP3   OH247596   6.279   1.582  12.252
 8702TIP3    H147597   6.187   1.603  12.233
 8702TIP3    H247598   6.300   1.637  12.328
 8703TIP3   OH247599   1.324   2.658   3.385
 8703TIP3    H147600   1.306   2.565   3.391
 8703TIP3    H247601   1.265   2.690   3.317
 8704TIP3   OH247602   6.432   1.857   1.935
 8704TIP3    H147603   6.399   1.781   1.887
 8704TIP3    H247604   6.361   1.880   1.994
 8705TIP3   OH247605   1.995   5.996   2.006
 8705TIP3    H147606   2.032   6.021   2.090
 8705TIP3    H247607   2.054   5.929   1.972
 8706TIP3   OH247608   6.662   0.055   0.546
 8706TIP3    H147609   6.692  -0.030   0.580
 8706TIP3    H247610   6.583   0.075   0.596
 8707TIP3   OH247611   5.905   0.714  15.800
 8707TIP3    H147612   5.942   0.674  15.879
 8707TIP3    H247613   5.812   0.693  15.804
 8708TIP3   OH247614   3.014   0.577  11.386
 8708TIP3    H147615   3.080   0.535  11.332
 8708TIP3    H247616   3.019   0.670  11.362
 8709TIP3   OH247617   6.683   4.477  16.534
 8709TIP3    H147618   6.692   4.445  16.445
 8709TIP3    H247619   6.771   4.503  16.560
 8710TIP3   OH247620   1.843   6.062  14.417
 8710TIP3    H147621   1.781   5.997  14.383
 8710TIP3    H247622   1.789   6.136  14.444
 8711TIP3   OH247623   4.036   3.953  11.747
 8711TIP3    H147624   4.017   3.937  11.839
 8711TIP3    H247625   4.047   4.047  11.740
 8712TIP3   OH247626   3.917   5.744  11.288
 8712TIP3    H147627   4.010   5.751  11.311
 8712TIP3    H247628   3.895   5.830  11.254
 8713TIP3   OH247629   6.576   1.690   3.833
 8713TIP3    H147630   6.630   1.692   3.912
 8713TIP3    H247631   6.588   1.602   3.797
 8714TIP3   OH247632   0.774   3.896   1.143
 8714TIP3    H147633   0.833   3.956   1.097
 8714TIP3    H247634   0.720   3.859   1.073
 8715TIP3   OH247635   6.794   0.131  14.114
 8715TIP3    H147636   6.797   0.211  14.167
 8715TIP3    H247637   6.800   0.163  14.024
 8716TIP3   OH247638   3.611   1.194  11.924
 8716TIP3    H147639   3.519   1.187  11.899
 8716TIP3    H247640   3.609   1.206  12.019
 8717TIP3   OH247641   6.033   5.342   1.314
 8717TIP3    H147642   6.033   5.257   1.359
 8717TIP3    H247643   6.106   5.338   1.253
 8718TIP3   OH247644   2.619   4.266   1.632
 8718TIP3    H147645   2.567   4.235   1.707
 8718TIP3    H247646   2.590   4.212   1.559
 8719TIP3   OH247647   3.045   4.758  14.192
 8719TIP3    H147648   3.102   4.688  14.160
 8719TIP3    H247649   2.964   4.713  14.216
 8720TIP3   OH247650   2.184   3.624   5.823
 8720TIP3    H147651   2.145   3.676   5.893
 8720TIP3    H247652   2.203   3.688   5.754
 8721TIP3   OH247653   6.365   1.150   4.668
 8721TIP3    H147654   6.339   1.201   4.592
 8721TIP3    H247655   6.460   1.162   4.674
 8722TIP3   OH247656   1.175   0.019   2.826
 8722TIP3    H147657   1.165   0.097   2.772
 8722TIP3    H247658   1.112  -0.043   2.790
 8723TIP3   OH247659   4.964   6.138  11.937
 8723TIP3    H147660   4.907   6.215  11.941
 8723TIP3    H247661   5.043   6.170  11.892
 8724TIP3   OH247662   5.296   2.503   0.331
 8724TIP3    H147663   5.260   2.567   0.269
 8724TIP3    H247664   5.220   2.451   0.357
 8725TIP3   OH247665   2.930   0.066  15.124
 8725TIP3    H147666   2.864   0.123  15.161
 8725TIP3    H247667   2.943   0.099  15.035
 8726TIP3   OH247668   4.166   5.973   0.515
 8726TIP3    H147669   4.143   5.897   0.461
 8726TIP3    H247670   4.105   6.041   0.487
 8727TIP3   OH247671   1.835   0.168   3.515
 8727TIP3    H147672   1.912   0.118   3.543
 8727TIP3    H247673   1.830   0.241   3.577
 8728TIP3   OH247674   4.054   3.107   0.542
 8728TIP3    H147675   3.994   3.035   0.560
 8728TIP3    H247676   4.141   3.071   0.562
 8729TIP3   OH247677   2.202   6.018  16.447
 8729TIP3    H147678   2.249   5.938  16.472
 8729TIP3    H247679   2.137   5.989  16.383
 8730TIP3   OH247680   4.064   4.121  14.310
 8730TIP3    H147681   4.083   4.196  14.365
 8730TIP3    H247682   4.140   4.113  14.252
 8731TIP3   OH247683   5.580   6.544   1.025
 8731TIP3    H147684   5.511   6.480   1.045
 8731TIP3    H247685   5.559   6.620   1.080
 8732TIP3   OH247686   1.538   0.705  11.910
 8732TIP3    H147687   1.496   0.719  11.995
 8732TIP3    H247688   1.632   0.705  11.929
 8733TIP3   OH247689   4.720   2.919  14.766
 8733TIP3    H147690   4.698   2.830  14.796
 8733TIP3    H247691   4.641   2.950  14.723
 8734TIP3   OH247692   5.684   6.738  15.802
 8734TIP3    H147693   5.595   6.719  15.773
 8734TIP3    H247694   5.736   6.740  15.721
 8735TIP3   OH247695   1.202   4.300   2.353
 8735TIP3    H147696   1.223   4.333   2.441
 8735TIP3    H247697   1.280   4.320   2.301
 8736TIP3   OH247698   4.479   1.603   2.804
 8736TIP3    H147699   4.454   1.687   2.842
 8736TIP3    H247700   4.409   1.583   2.742
 8737TIP3   OH247701   0.494   0.833  11.110
 8737TIP3    H147702   0.532   0.750  11.139
 8737TIP3    H247703   0.441   0.810  11.034
 8738TIP3   OH247704   0.614   6.623  13.548
 8738TIP3    H147705   0.577   6.668  13.472
 8738TIP3    H247706   0.629   6.693  13.612
 8739TIP3   OH247707   6.817   6.178  12.614
 8739TIP3    H147708   6.782   6.173  12.525
 8739TIP3    H247709   6.751   6.228  12.662
 8740TIP3   OH247710   4.159   6.763   4.578
 8740TIP3    H147711   4.109   6.835   4.616
 8740TIP3    H247712   4.225   6.742   4.644
 8741TIP3   OH247713   1.628   5.023  15.345
 8741TIP3    H147714   1.641   4.936  15.381
 8741TIP3    H247715   1.592   5.074  15.418
 8742TIP3   OH247716   1.636   1.944   2.045
 8742TIP3    H147717   1.605   1.877   1.984
 8742TIP3    H247718   1.678   2.010   1.990
 8743TIP3   OH247719   1.201   0.519  14.526
 8743TIP3    H147720   1.134   0.539  14.460
 8743TIP3    H247721   1.247   0.443  14.492
 8744TIP3   OH247722   0.438   5.848  11.130
 8744TIP3    H147723   0.501   5.914  11.160
 8744TIP3    H247724   0.483   5.765  11.141
 8745TIP3   OH247725   2.741   5.808  14.423
 8745TIP3    H147726   2.690   5.821  14.503
 8745TIP3    H247727   2.764   5.897  14.395
 8746TIP3   OH247728   1.723   1.869  13.886
 8746TIP3    H147729   1.636   1.892  13.855
 8746TIP3    H247730   1.779   1.940  13.856
 8747TIP3   OH247731   5.592   0.514   3.877
 8747TIP3    H147732   5.516   0.485   3.826
 8747TIP3    H247733   5.590   0.461   3.956
 8748TIP3   OH247734   6.053   5.897   2.368
 8748TIP3    H147735   6.098   5.835   2.310
 8748TIP3    H247736   6.102   5.894   2.450
 8749TIP3   OH247737   0.014   0.247   1.163
 8749TIP3    H147738  -0.050   0.315   1.141
 8749TIP3    H247739  -0.021   0.207   1.243
 8750TIP3   OH247740   6.416   3.087  15.887
 8750TIP3    H147741   6.334   3.130  15.911
 8750TIP3    H247742   6.478   3.115  15.954
 8751TIP3   OH247743   1.239   2.220   0.338
 8751TIP3    H147744   1.268   2.286   0.276
 8751TIP3    H247745   1.266   2.253   0.424
 8752TIP3   OH247746   5.452   4.712   5.692
 8752TIP3    H147747   5.459   4.708   5.597
 8752TIP3    H247748   5.386   4.647   5.714
 8753TIP3   OH247749   5.880   3.819  16.405
 8753TIP3    H147750   5.829   3.739  16.422
 8753TIP3    H247751   5.821   3.874  16.353
 8754TIP3   OH247752   4.167   2.938  14.966
 8754TIP3    H147753   4.131   2.903  14.884
 8754TIP3    H247754   4.183   3.030  14.948
 8755TIP3   OH247755   3.057   3.889  14.202
 8755TIP3    H147756   3.014   3.974  14.212
 8755TIP3    H247757   2.987   3.826  14.213
 8756TIP3   OH247758   5.126   1.536   1.024
 8756TIP3    H147759   5.074   1.509   0.948
 8756TIP3    H247760   5.090   1.484   1.096
 8757TIP3   OH247761   5.585   1.926  12.938
 8757TIP3    H147762   5.630   1.842  12.941
 8757TIP3    H247763   5.571   1.943  12.845
 8758TIP3   OH247764   6.456   3.297   1.549
 8758TIP3    H147765   6.546   3.281   1.520
 8758TIP3    H247766   6.465   3.341   1.633
 8759TIP3   OH247767   1.934   0.225  15.654
 8759TIP3    H147768   1.895   0.311  15.639
 8759TIP3    H247769   1.989   0.237  15.732
 8760TIP3   OH247770   4.373   2.525   3.007
 8760TIP3    H147771   4.360   2.532   3.101
 8760TIP3    H247772   4.431   2.598   2.986
 8761TIP3   OH247773   1.638   6.072   1.834
 8761TIP3    H147774   1.592   6.156   1.829
 8761TIP3    H247775   1.572   6.009   1.864
 8762TIP3   OH247776   5.791   4.723   4.532
 8762TIP3    H147777   5.825   4.801   4.575
 8762TIP3    H247778   5.707   4.706   4.576
 8763TIP3   OH247779   1.449   6.771  12.876
 8763TIP3    H147780   1.462   6.676  12.872
 8763TIP3    H247781   1.428   6.796  12.786
 8764TIP3   OH247782   3.294   2.733   5.669
 8764TIP3    H147783   3.262   2.644   5.678
 8764TIP3    H247784   3.220   2.788   5.695
 8765TIP3   OH247785   2.351   6.437  11.988
 8765TIP3    H147786   2.258   6.443  11.967
 8765TIP3    H247787   2.373   6.522  12.026
 8766TIP3   OH247788   5.850   2.982   3.168
 8766TIP3    H147789   5.802   2.947   3.093
 8766TIP3    H247790   5.931   3.015   3.130
 8767TIP3   OH247791   3.659   4.774  14.844
 8767TIP3    H147792   3.750   4.748  14.854
 8767TIP3    H247793   3.646   4.844  14.908
 8768TIP3   OH247794   1.423   3.255  16.130
 8768TIP3    H147795   1.487   3.307  16.179
 8768TIP3    H247796   1.381   3.318  16.071
 8769TIP3   OH247797   1.514   4.917   2.346
 8769TIP3    H147798   1.457   4.843   2.326
 8769TIP3    H247799   1.588   4.908   2.285
 8770TIP3   OH247800   4.086   4.215  16.406
 8770TIP3    H147801   4.059   4.250  16.491
 8770TIP3    H247802   4.076   4.120  16.415
 8771TIP3   OH247803   4.453   5.634  14.758
 8771TIP3    H147804   4.417   5.549  14.733
 8771TIP3    H247805   4.469   5.627  14.852
 8772TIP3   OH247806   2.876   1.606   5.818
 8772TIP3    H147807   2.811   1.676   5.810
 8772TIP3    H247808   2.825   1.525   5.820
 8773TIP3   OH247809   1.439   0.837   6.357
 8773TIP3    H147810   1.396   0.892   6.422
 8773TIP3    H247811   1.531   0.837   6.382
 8774TIP3   OH247812   1.581   3.477   3.173
 8774TIP3    H147813   1.647   3.432   3.226
 8774TIP3    H247814   1.549   3.411   3.112
 8775TIP3   OH247815   4.784   3.071   3.148
 8775TIP3    H147816   4.813   3.079   3.057
 8775TIP3    H247817   4.747   2.983   3.153
 8776TIP3   OH247818   5.997   4.356  12.439
 8776TIP3    H147819   6.007   4.327  12.348
 8776TIP3    H247820   6.082   4.336  12.479
 8777TIP3   OH247821   4.121   4.276   1.006
 8777TIP3    H147822   4.100   4.234   1.090
 8777TIP3    H247823   4.038   4.315   0.978
 8778TIP3   OH247824   4.970   1.131  12.446
 8778TIP3    H147825   5.001   1.081  12.371
 8778TIP3    H247826   5.035   1.114  12.514
 8779TIP3   OH247827   2.235   2.253   5.470
 8779TIP3    H147828   2.330   2.257   5.485
 8779TIP3    H247829   2.203   2.339   5.495
 8780TIP3   OH247830   4.144   4.906  10.787
 8780TIP3    H147831   4.144   4.955  10.869
 8780TIP3    H247832   4.051   4.895  10.766
 8781TIP3   OH247833   0.584   5.712   4.286
 8781TIP3    H147834   0.583   5.805   4.267
 8781TIP3    H247835   0.525   5.673   4.221
 8782TIP3   OH247836   4.894   1.441  16.715
 8782TIP3    H147837   4.860   1.378  16.778
 8782TIP3    H247838   4.970   1.398  16.676
 8783TIP3   OH247839   3.909   0.146   4.059
 8783TIP3    H147840   3.879   0.210   3.994
 8783TIP3    H247841   3.829   0.098   4.084
 8784TIP3   OH247842   4.484   4.573  11.523
 8784TIP3    H147843   4.489   4.667  11.506
 8784TIP3    H247844   4.403   4.546  11.480
 8785TIP3   OH247845   5.407   3.703  15.917
 8785TIP3    H147846   5.425   3.777  15.858
 8785TIP3    H247847   5.432   3.735  16.003
 8786TIP3   OH247848   4.317   2.402  14.758
 8786TIP3    H147849   4.395   2.350  14.739
 8786TIP3    H247850   4.245   2.339  14.756
 8787TIP3   OH247851   0.704   6.411   7.009
 8787TIP3    H147852   0.795   6.392   7.032
 8787TIP3    H247853   0.658   6.329   7.030
 8788TIP3   OH247854   6.590   3.598  12.955
 8788TIP3    H147855   6.641   3.529  12.913
 8788TIP3    H247856   6.642   3.677  12.944
 8789TIP3   OH247857   2.974   1.257  12.941
 8789TIP3    H147858   2.895   1.207  12.961
 8789TIP3    H247859   2.955   1.300  12.857
 8790TIP3   OH247860   4.866   6.168   4.900
 8790TIP3    H147861   4.779   6.148   4.867
 8790TIP3    H247862   4.922   6.101   4.860
 8791TIP3   OH247863   6.629   1.452   3.683
 8791TIP3    H147864   6.617   1.359   3.702
 8791TIP3    H247865   6.689   1.454   3.608
 8792TIP3   OH247866   6.627   2.594   3.200
 8792TIP3    H147867   6.562   2.621   3.135
 8792TIP3    H247868   6.591   2.624   3.284
 8793TIP3   OH247869   3.934   1.857   5.527
 8793TIP3    H147870   3.922   1.799   5.603
 8793TIP3    H247871   3.863   1.920   5.535
 8794TIP3   OH247872   0.355   4.859  15.292
 8794TIP3    H147873   0.273   4.888  15.331
 8794TIP3    H247874   0.335   4.848  15.199
 8795TIP3   OH247875   2.019   2.657  15.374
 8795TIP3    H147876   2.045   2.617  15.457
 8795TIP3    H247877   2.012   2.584  15.313
 8796TIP3   OH247878   0.047   0.052  14.514
 8796TIP3    H147879   0.113   0.113  14.483
 8796TIP3    H247880   0.084  -0.035  14.498
 8797TIP3   OH247881   1.468   5.704  12.412
 8797TIP3    H147882   1.395   5.648  12.437
 8797TIP3    H247883   1.531   5.694  12.483
 8798TIP3   OH247884   2.612   3.254   4.079
 8798TIP3    H147885   2.553   3.323   4.049
 8798TIP3    H247886   2.599   3.182   4.017
 8799TIP3   OH247887   3.637   5.491  12.705
 8799TIP3    H147888   3.553   5.448  12.716
 8799TIP3    H247889   3.695   5.424  12.669
 8800TIP3   OH247890   5.886   0.153  14.877
 8800TIP3    H147891   5.887   0.246  14.856
 8800TIP3    H247892   5.976   0.124  14.864
 8801TIP3   OH247893   2.275   0.261  16.218
 8801TIP3    H147894   2.193   0.231  16.179
 8801TIP3    H247895   2.255   0.347  16.255
 8802TIP3   OH247896   5.471   3.247  11.957
 8802TIP3    H147897   5.549   3.260  11.904
 8802TIP3    H247898   5.462   3.152  11.964
 8803TIP3   OH247899   1.500   5.016  11.803
 8803TIP3    H147900   1.580   4.969  11.829
 8803TIP3    H247901   1.429   4.968  11.846
 8804TIP3   OH247902   2.478   2.061  17.098
 8804TIP3    H147903   2.549   2.099  17.046
 8804TIP3    H247904   2.503   1.970  17.111
 8805TIP3   OH247905   3.513   5.616  15.718
 8805TIP3    H147906   3.437   5.604  15.661
 8805TIP3    H247907   3.522   5.533  15.764
 8806TIP3   OH247908   5.059   4.707   5.098
 8806TIP3    H147909   5.141   4.661   5.116
 8806TIP3    H247910   5.063   4.786   5.150
 8807TIP3   OH247911   5.514   4.123  14.993
 8807TIP3    H147912   5.493   4.030  15.008
 8807TIP3    H247913   5.503   4.135  14.899
 8808TIP3   OH247914   6.516   6.452   1.678
 8808TIP3    H147915   6.431   6.495   1.679
 8808TIP3    H247916   6.560   6.485   1.757
 8809TIP3   OH247917   2.714   1.571   2.656
 8809TIP3    H147918   2.805   1.588   2.634
 8809TIP3    H247919   2.668   1.651   2.631
 8810TIP3   OH247920   5.854   6.615   2.613
 8810TIP3    H147921   5.768   6.631   2.573
 8810TIP3    H247922   5.835   6.562   2.690
 8811TIP3   OH247923   3.640   1.966  13.308
 8811TIP3    H147924   3.701   1.969  13.234
 8811TIP3    H247925   3.675   2.030  13.370
 8812TIP3   OH247926   5.653   0.979   0.530
 8812TIP3    H147927   5.675   0.992   0.437
 8812TIP3    H247928   5.559   0.994   0.534
 8813TIP3   OH247929   0.250   2.567  16.897
 8813TIP3    H147930   0.296   2.488  16.926
 8813TIP3    H247931   0.189   2.588  16.968
 8814TIP3   OH247932   4.850   5.010   5.052
 8814TIP3    H147933   4.830   4.928   5.007
 8814TIP3    H247934   4.945   5.020   5.042
 8815TIP3   OH247935   1.348   3.394   3.735
 8815TIP3    H147936   1.415   3.378   3.801
 8815TIP3    H247937   1.328   3.487   3.743
 8816TIP3   OH247938   2.889   1.242   4.838
 8816TIP3    H147939   2.808   1.275   4.876
 8816TIP3    H247940   2.958   1.271   4.898
 8817TIP3   OH247941   6.749   3.360  16.268
 8817TIP3    H147942   6.791   3.440  16.236
 8817TIP3    H247943   6.739   3.373  16.362
 8818TIP3   OH247944   4.318   5.388  14.702
 8818TIP3    H147945   4.321   5.326  14.775
 8818TIP3    H247946   4.234   5.370  14.659
 8819TIP3   OH247947   2.344   2.777   3.233
 8819TIP3    H147948   2.334   2.774   3.328
 8819TIP3    H247949   2.270   2.727   3.199
 8820TIP3   OH247950   4.740   6.572   4.801
 8820TIP3    H147951   4.689   6.582   4.721
 8820TIP3    H247952   4.676   6.571   4.871
 8821TIP3   OH247953   2.525   1.125   3.567
 8821TIP3    H147954   2.604   1.177   3.583
 8821TIP3    H247955   2.516   1.124   3.472
 8822TIP3   OH247956   3.892   1.406  14.633
 8822TIP3    H147957   3.953   1.333  14.632
 8822TIP3    H247958   3.841   1.396  14.552
 8823TIP3   OH247959   3.951   2.451   3.804
 8823TIP3    H147960   3.880   2.471   3.744
 8823TIP3    H247961   4.030   2.451   3.750
 8824TIP3   OH247962   2.498   1.256   1.537
 8824TIP3    H147963   2.454   1.311   1.472
 8824TIP3    H247964   2.524   1.318   1.605
 8825TIP3   OH247965   5.117   2.954  13.502
 8825TIP3    H147966   5.064   2.929  13.427
 8825TIP3    H247967   5.157   3.038  13.477
 8826TIP3   OH247968   3.480   0.353   0.631
 8826TIP3    H147969   3.458   0.399   0.713
 8826TIP3    H247970   3.411   0.288   0.621
 8827TIP3   OH247971   0.609   2.976  13.163
 8827TIP3    H147972   0.600   3.069  13.185
 8827TIP3    H247973   0.579   2.930  13.241
 8828TIP3   OH247974   2.022   0.099  12.616
 8828TIP3    H147975   1.996   0.143  12.697
 8828TIP3    H247976   2.106   0.138  12.593
 8829TIP3   OH247977   3.301   0.028   2.186
 8829TIP3    H147978   3.320   0.120   2.164
 8829TIP3    H247979   3.380  -0.002   2.232
 8830TIP3   OH247980   6.113   5.235   5.206
 8830TIP3    H147981   6.045   5.292   5.242
 8830TIP3    H247982   6.070   5.150   5.195
 8831TIP3   OH247983   6.330   5.890  16.840
 8831TIP3    H147984   6.281   5.946  16.900
 8831TIP3    H247985   6.393   5.844  16.895
 8832TIP3   OH247986   1.944   6.778  14.060
 8832TIP3    H147987   1.920   6.868  14.082
 8832TIP3    H247988   2.008   6.754  14.127
 8833TIP3   OH247989   4.925   4.438  12.746
 8833TIP3    H147990   4.862   4.508  12.729
 8833TIP3    H247991   4.879   4.358  12.720
 8834TIP3   OH247992   2.079   5.673   5.190
 8834TIP3    H147993   2.006   5.636   5.141
 8834TIP3    H247994   2.123   5.731   5.129
 8835TIP3   OH247995   6.683   0.091  16.554
 8835TIP3    H147996   6.617   0.092  16.485
 8835TIP3    H247997   6.764   0.118  16.511
 8836TIP3   OH247998   0.180   4.672  12.443
 8836TIP3    H147999   0.213   4.588  12.412
 8836TIP3    H248000   0.259   4.722  12.465
 8837TIP3   OH248001   1.759   4.610  12.116
 8837TIP3    H148002   1.773   4.637  12.206
 8837TIP3    H248003   1.715   4.684  12.075
 8838TIP3   OH248004   4.054   0.360  16.386
 8838TIP3    H148005   3.978   0.373  16.442
 8838TIP3    H248006   4.117   0.315  16.443
 8839TIP3   OH248007   0.206   5.833   5.952
 8839TIP3    H148008   0.219   5.823   5.857
 8839TIP3    H248009   0.283   5.881   5.982
 8840TIP3   OH248010   5.763   4.755   0.372
 8840TIP3    H148011   5.705   4.693   0.329
 8840TIP3    H248012   5.732   4.759   0.462
 8841TIP3   OH248013   3.329   3.719   6.196
 8841TIP3    H148014   3.421   3.715   6.170
 8841TIP3    H248015   3.312   3.813   6.208
 8842TIP3   OH248016   2.706   0.390   0.225
 8842TIP3    H148017   2.790   0.432   0.240
 8842TIP3    H248018   2.727   0.305   0.187
 8843TIP3   OH248019   2.775   2.819   6.227
 8843TIP3    H148020   2.725   2.894   6.195
 8843TIP3    H248021   2.712   2.766   6.275
 8844TIP3   OH248022   2.049   2.333   1.042
 8844TIP3    H148023   1.974   2.287   1.003
 8844TIP3    H248024   2.049   2.305   1.134
 8845TIP3   OH248025   2.092   1.204   0.001
 8845TIP3    H148026   2.154   1.159  -0.056
 8845TIP3    H248027   2.145   1.234   0.075
 8846TIP3   OH248028   1.888   1.917   5.635
 8846TIP3    H148029   1.919   1.987   5.692
 8846TIP3    H248030   1.837   1.961   5.567
 8847TIP3   OH248031   1.831   6.144   0.513
 8847TIP3    H148032   1.756   6.190   0.476
 8847TIP3    H248033   1.879   6.110   0.437
 8848TIP3   OH248034   5.446   5.733   2.556
 8848TIP3    H148035   5.482   5.798   2.495
 8848TIP3    H248036   5.388   5.680   2.503
 8849TIP3   OH248037   2.168   3.252  15.240
 8849TIP3    H148038   2.115   3.219  15.312
 8849TIP3    H248039   2.139   3.202  15.164
 8850TIP3   OH248040   4.255   2.121  15.863
 8850TIP3    H148041   4.219   2.127  15.774
 8850TIP3    H248042   4.338   2.076  15.853
 8851TIP3   OH248043   6.451   5.134   2.314
 8851TIP3    H148044   6.377   5.177   2.356
 8851TIP3    H248045   6.486   5.076   2.382
 8852TIP3   OH248046   6.511   0.339  14.451
 8852TIP3    H148047   6.590   0.381  14.486
 8852TIP3    H248048   6.520   0.345  14.356
 8853TIP3   OH248049   0.279   2.832   4.847
 8853TIP3    H148050   0.226   2.841   4.768
 8853TIP3    H248051   0.339   2.761   4.827
 8854TIP3   OH248052   4.282   3.364  11.741
 8854TIP3    H148053   4.329   3.417  11.677
 8854TIP3    H248054   4.317   3.275  11.729
 8855TIP3   OH248055   2.445   6.486   3.909
 8855TIP3    H148056   2.519   6.478   3.848
 8855TIP3    H248057   2.438   6.400   3.949
 8856TIP3   OH248058   5.733   5.806   0.125
 8856TIP3    H148059   5.826   5.786   0.137
 8856TIP3    H248060   5.694   5.722   0.101
 8857TIP3   OH248061   0.558   0.231  16.242
 8857TIP3    H148062   0.576   0.297  16.176
 8857TIP3    H248063   0.643   0.214  16.283
 8858TIP3   OH248064   0.280   4.842  11.105
 8858TIP3    H148065   0.251   4.752  11.116
 8858TIP3    H248066   0.330   4.841  11.023
 8859TIP3   OH248067   6.731   5.493  13.924
 8859TIP3    H148068   6.778   5.424  13.972
 8859TIP3    H248069   6.648   5.502  13.971
 8860TIP3   OH248070   6.334   0.940   3.126
 8860TIP3    H148071   6.426   0.949   3.148
 8860TIP3    H248072   6.293   0.906   3.205
 8861TIP3   OH248073   3.230   6.070   0.465
 8861TIP3    H148074   3.184   6.024   0.535
 8861TIP3    H248075   3.238   6.004   0.395
 8862TIP3   OH248076   4.729   0.933  13.817
 8862TIP3    H148077   4.735   0.937  13.912
 8862TIP3    H248078   4.818   0.954  13.787
 8863TIP3   OH248079   5.688   6.057   4.449
 8863TIP3    H148080   5.635   6.136   4.452
 8863TIP3    H248081   5.767   6.079   4.499
 8864TIP3   OH248082   4.866   3.794  10.436
 8864TIP3    H148083   4.962   3.795  10.439
 8864TIP3    H248084   4.845   3.716  10.385
 8865TIP3   OH248085   1.991   3.827  12.506
 8865TIP3    H148086   1.957   3.799  12.421
 8865TIP3    H248087   2.027   3.747  12.544
 8866TIP3   OH248088   6.434   1.178  13.406
 8866TIP3    H148089   6.362   1.199  13.466
 8866TIP3    H248090   6.512   1.214  13.448
 8867TIP3   OH248091   2.518   4.245   5.614
 8867TIP3    H148092   2.467   4.320   5.584
 8867TIP3    H248093   2.504   4.178   5.546
 8868TIP3   OH248094   1.051   2.172   3.927
 8868TIP3    H148095   1.105   2.121   3.987
 8868TIP3    H248096   1.090   2.259   3.927
 8869TIP3   OH248097   1.146   5.625  12.860
 8869TIP3    H148098   1.092   5.619  12.781
 8869TIP3    H248099   1.220   5.566  12.844
 8870TIP3   OH248100   0.434   1.701   4.199
 8870TIP3    H148101   0.496   1.774   4.196
 8870TIP3    H248102   0.489   1.623   4.209
 8871TIP3   OH248103   5.337   2.322   3.831
 8871TIP3    H148104   5.389   2.390   3.874
 8871TIP3    H248105   5.391   2.243   3.836
 8872TIP3   OH248106   4.088   2.456  11.292
 8872TIP3    H148107   4.132   2.473  11.208
 8872TIP3    H248108   4.041   2.537  11.311
 8873TIP3   OH248109   2.578   1.350   2.563
 8873TIP3    H148110   2.600   1.432   2.609
 8873TIP3    H248111   2.655   1.331   2.510
 8874TIP3   OH248112   3.858   0.855  12.445
 8874TIP3    H148113   3.931   0.795  12.454
 8874TIP3    H248114   3.871   0.896  12.360
 8875TIP3   OH248115   3.030   5.050  13.916
 8875TIP3    H148116   3.096   5.043  13.985
 8875TIP3    H248117   2.958   5.098  13.957
 8876TIP3   OH248118   4.776   2.142  16.769
 8876TIP3    H148119   4.728   2.222  16.792
 8876TIP3    H248120   4.715   2.072  16.790
 8877TIP3   OH248121   3.246   1.204  16.279
 8877TIP3    H148122   3.260   1.284  16.227
 8877TIP3    H248123   3.231   1.136  16.214
 8878TIP3   OH248124   3.061   6.677   1.293
 8878TIP3    H148125   3.146   6.654   1.255
 8878TIP3    H248126   3.057   6.629   1.375
 8879TIP3   OH248127   6.170   2.174   5.977
 8879TIP3    H148128   6.201   2.263   5.958
 8879TIP3    H248129   6.081   2.186   6.010
 8880TIP3   OH248130   0.041   4.770   0.160
 8880TIP3    H148131   0.069   4.684   0.189
 8880TIP3    H248132  -0.052   4.760   0.139
 8881TIP3   OH248133   4.203   6.115  14.137
 8881TIP3    H148134   4.202   6.210  14.126
 8881TIP3    H248135   4.230   6.102  14.228
 8882TIP3   OH248136   4.558   0.453  12.412
 8882TIP3    H148137   4.499   0.528  12.407
 8882TIP3    H248138   4.645   0.490  12.397
 8883TIP3   OH248139   5.002   5.475   3.147
 8883TIP3    H148140   5.058   5.399   3.131
 8883TIP3    H248141   5.062   5.549   3.148
 8884TIP3   OH248142   1.754   0.984   4.784
 8884TIP3    H148143   1.727   1.049   4.720
 8884TIP3    H248144   1.695   0.998   4.858
 8885TIP3   OH248145   5.562   3.757  14.767
 8885TIP3    H148146   5.625   3.748  14.695
 8885TIP3    H248147   5.478   3.770  14.724
 8886TIP3   OH248148   4.471   2.360  14.136
 8886TIP3    H148149   4.475   2.355  14.040
 8886TIP3    H248150   4.384   2.327  14.158
 8887TIP3   OH248151   6.678   3.918  16.160
 8887TIP3    H148152   6.586   3.912  16.135
 8887TIP3    H248153   6.681   3.882  16.249
 8888TIP3   OH248154   3.738   1.655  11.796
 8888TIP3    H148155   3.726   1.748  11.779
 8888TIP3    H248156   3.655   1.614  11.774
 8889TIP3   OH248157   5.455   4.124   3.682
 8889TIP3    H148158   5.378   4.072   3.706
 8889TIP3    H248159   5.466   4.185   3.756
 8890TIP3   OH248160   3.837   3.216  11.808
 8890TIP3    H148161   3.827   3.243  11.900
 8890TIP3    H248162   3.875   3.292  11.765
 8891TIP3   OH248163   1.923   1.377  15.377
 8891TIP3    H148164   1.911   1.302  15.435
 8891TIP3    H248165   1.844   1.430  15.389
 8892TIP3   OH248166   6.526   6.211  13.534
 8892TIP3    H148167   6.453   6.159  13.567
 8892TIP3    H248168   6.599   6.150  13.529
 8893TIP3   OH248169   5.925   1.436   2.818
 8893TIP3    H148170   6.012   1.412   2.849
 8893TIP3    H248171   5.906   1.519   2.863
 8894TIP3   OH248172   3.755   2.293   2.379
 8894TIP3    H148173   3.772   2.356   2.448
 8894TIP3    H248174   3.820   2.313   2.311
 8895TIP3   OH248175   3.676   5.032  13.740
 8895TIP3    H148176   3.623   5.076  13.674
 8895TIP3    H248177   3.624   4.956  13.766
 8896TIP3   OH248178   4.287   3.054   0.031
 8896TIP3    H148179   4.198   3.020   0.036
 8896TIP3    H248180   4.278   3.140  -0.011
 8897TIP3   OH248181   0.120   0.202  16.473
 8897TIP3    H148182   0.154   0.254  16.400
 8897TIP3    H248183   0.143   0.112  16.450
 8898TIP3   OH248184   4.829   0.718   0.411
 8898TIP3    H148185   4.881   0.723   0.331
 8898TIP3    H248186   4.755   0.662   0.389
 8899TIP3   OH248187   6.382   3.956  13.303
 8899TIP3    H148188   6.462   3.968  13.252
 8899TIP3    H248189   6.365   3.861  13.298
 8900TIP3   OH248190   6.019   1.429  17.180
 8900TIP3    H148191   6.008   1.384  17.096
 8900TIP3    H248192   6.113   1.442  17.189
 8901TIP3   OH248193   1.672   3.559   5.945
 8901TIP3    H148194   1.689   3.512   5.863
 8901TIP3    H248195   1.594   3.517   5.982
 8902TIP3   OH248196   3.836   6.039   0.059
 8902TIP3    H148197   3.891   6.094   0.114
 8902TIP3    H248198   3.816   6.094  -0.017
 8903TIP3   OH248199   3.010   1.969  12.735
 8903TIP3    H148200   3.000   1.997  12.644
 8903TIP3    H248201   3.089   2.013  12.766
 8904TIP3   OH248202   5.728   1.266  12.267
 8904TIP3    H148203   5.685   1.330  12.210
 8904TIP3    H248204   5.752   1.315  12.345
 8905TIP3   OH248205   6.606   6.814  14.291
 8905TIP3    H148206   6.660   6.822  14.213
 8905TIP3    H248207   6.669   6.804  14.363
 8906TIP3   OH248208   5.136   5.968   5.145
 8906TIP3    H148209   5.229   5.977   5.125
 8906TIP3    H248210   5.112   6.051   5.187
 8907TIP3   OH248211   2.285   4.888  17.092
 8907TIP3    H148212   2.194   4.859  17.092
 8907TIP3    H248213   2.297   4.930  17.006
 8908TIP3   OH248214   5.346   2.499   0.930
 8908TIP3    H148215   5.360   2.594   0.924
 8908TIP3    H248216   5.266   2.490   0.981
 8909TIP3   OH248217   3.419   5.108  16.820
 8909TIP3    H148218   3.483   5.085  16.753
 8909TIP3    H248219   3.335   5.086  16.780
 8910TIP3   OH248220   1.834   3.420   0.724
 8910TIP3    H148221   1.882   3.355   0.673
 8910TIP3    H248222   1.889   3.499   0.720
 8911TIP3   OH248223   6.590   3.071  12.195
 8911TIP3    H148224   6.507   3.055  12.240
 8911TIP3    H248225   6.631   3.143  12.243
 8912TIP3   OH248226   2.290   3.500   4.946
 8912TIP3    H148227   2.247   3.576   4.985
 8912TIP3    H248228   2.383   3.512   4.968
 8913TIP3   OH248229   1.612   2.610   1.790
 8913TIP3    H148230   1.587   2.702   1.779
 8913TIP3    H248231   1.619   2.576   1.701
 8914TIP3   OH248232   5.689   0.248  14.621
 8914TIP3    H148233   5.666   0.156  14.606
 8914TIP3    H248234   5.782   0.253  14.598
 8915TIP3   OH248235   5.413   5.099  15.708
 8915TIP3    H148236   5.505   5.083  15.730
 8915TIP3    H248237   5.394   5.039  15.637
 8916TIP3   OH248238   1.666   4.227   0.114
 8916TIP3    H148239   1.704   4.311   0.139
 8916TIP3    H248240   1.590   4.217   0.171
 8917TIP3   OH248241   0.417   0.272  12.931
 8917TIP3    H148242   0.330   0.250  12.898
 8917TIP3    H248243   0.409   0.363  12.959
 8918TIP3   OH248244   2.993   3.292   2.912
 8918TIP3    H148245   2.942   3.283   2.832
 8918TIP3    H248246   2.990   3.386   2.932
 8919TIP3   OH248247   5.337   0.986  13.952
 8919TIP3    H148248   5.254   0.937  13.946
 8919TIP3    H248249   5.404   0.922  13.928
 8920TIP3   OH248250   1.019   2.166   5.363
 8920TIP3    H148251   1.044   2.225   5.292
 8920TIP3    H248252   1.047   2.080   5.334
 8921TIP3   OH248253   1.332   4.896   4.195
 8921TIP3    H148254   1.301   4.919   4.283
 8921TIP3    H248255   1.338   4.800   4.196
 8922TIP3   OH248256   1.915   4.004  11.935
 8922TIP3    H148257   1.872   3.921  11.916
 8922TIP3    H248258   1.846   4.060  11.970
 8923TIP3   OH248259   5.492   3.837  14.058
 8923TIP3    H148260   5.456   3.920  14.086
 8923TIP3    H248261   5.477   3.835  13.963
 8924TIP3   OH248262   5.862   1.593  11.393
 8924TIP3    H148263   5.894   1.668  11.343
 8924TIP3    H248264   5.769   1.612  11.407
 8925TIP3   OH248265   0.444   5.813  12.279
 8925TIP3    H148266   0.435   5.742  12.215
 8925TIP3    H248267   0.435   5.893  12.227
 8926TIP3   OH248268   3.173   5.020  16.734
 8926TIP3    H148269   3.081   5.027  16.759
 8926TIP3    H248270   3.184   5.087  16.667
 8927TIP3   OH248271   5.743   2.244   2.291
 8927TIP3    H148272   5.658   2.288   2.291
 8927TIP3    H248273   5.783   2.271   2.208
 8928TIP3   OH248274   5.318   1.482  11.163
 8928TIP3    H148275   5.370   1.468  11.084
 8928TIP3    H248276   5.257   1.409  11.165
 8929TIP3   OH248277   5.657   0.799   3.823
 8929TIP3    H148278   5.657   0.703   3.819
 8929TIP3    H248279   5.686   0.827   3.736
 8930TIP3   OH248280   6.304   5.894   0.961
 8930TIP3    H148281   6.366   5.881   0.889
 8930TIP3    H248282   6.346   5.958   1.018
 8931TIP3   OH248283   0.128   4.257  16.467
 8931TIP3    H148284   0.123   4.167  16.499
 8931TIP3    H248285   0.044   4.296  16.492
 8932TIP3   OH248286   1.207   1.353   2.086
 8932TIP3    H148287   1.151   1.287   2.047
 8932TIP3    H248288   1.197   1.430   2.029
 8933TIP3   OH248289   1.191   0.022  15.055
 8933TIP3    H148290   1.214  -0.021  15.138
 8933TIP3    H248291   1.259  -0.006  14.994
 8934TIP3   OH248292   5.849   3.485   5.121
 8934TIP3    H148293   5.925   3.529   5.159
 8934TIP3    H248294   5.774   3.531   5.159
 8935TIP3   OH248295   0.149   1.919   5.632
 8935TIP3    H148296   0.055   1.905   5.639
 8935TIP3    H248297   0.188   1.836   5.660
 8936TIP3   OH248298   1.381   4.677   5.192
 8936TIP3    H148299   1.326   4.681   5.270
 8936TIP3    H248300   1.465   4.715   5.219
 8937TIP3   OH248301   3.717   2.951  15.343
 8937TIP3    H148302   3.730   2.884  15.411
 8937TIP3    H248303   3.778   3.021  15.367
 8938TIP3   OH248304   4.504   2.700   2.801
 8938TIP3    H148305   4.436   2.752   2.759
 8938TIP3    H248306   4.552   2.661   2.729
 8939TIP3   OH248307   1.545   3.865  16.228
 8939TIP3    H148308   1.618   3.808  16.250
 8939TIP3    H248309   1.469   3.824  16.269
 8940TIP3   OH248310   0.982   5.786  14.802
 8940TIP3    H148311   1.014   5.735  14.728
 8940TIP3    H248312   0.958   5.871  14.764
 8941TIP3   OH248313   6.604   1.141  12.820
 8941TIP3    H148314   6.546   1.095  12.758
 8941TIP3    H248315   6.684   1.089  12.822
 8942TIP3   OH248316   5.503   1.436   4.586
 8942TIP3    H148317   5.552   1.358   4.559
 8942TIP3    H248318   5.569   1.495   4.621
 8943TIP3   OH248319   3.034   5.952   3.301
 8943TIP3    H148320   3.001   5.862   3.308
 8943TIP3    H248321   3.053   5.964   3.208
 8944TIP3   OH248322   2.089   2.021   4.976
 8944TIP3    H148323   2.089   1.936   4.932
 8944TIP3    H248324   2.013   2.019   5.034
 8945TIP3   OH248325   1.000   6.420   1.877
 8945TIP3    H148326   1.020   6.416   1.970
 8945TIP3    H248327   1.016   6.511   1.853
 8946TIP3   OH248328   6.163   1.628   2.711
 8946TIP3    H148329   6.155   1.594   2.800
 8946TIP3    H248330   6.148   1.722   2.721
 8947TIP3   OH248331   2.358   1.567   0.701
 8947TIP3    H148332   2.335   1.500   0.766
 8947TIP3    H248333   2.431   1.615   0.740
 8948TIP3   OH248334   6.583   6.506   0.106
 8948TIP3    H148335   6.513   6.571   0.109
 8948TIP3    H248336   6.559   6.448   0.034
 8949TIP3   OH248337   0.727   0.928  16.660
 8949TIP3    H148338   0.759   0.993  16.722
 8949TIP3    H248339   0.689   0.859  16.714
 8950TIP3   OH248340   6.133   0.301  15.786
 8950TIP3    H148341   6.177   0.331  15.865
 8950TIP3    H248342   6.053   0.260  15.817
 8951TIP3   OH248343   6.587   3.412   0.725
 8951TIP3    H148344   6.531   3.430   0.800
 8951TIP3    H248345   6.581   3.491   0.671
 8952TIP3   OH248346   4.096   5.498   3.705
 8952TIP3    H148347   4.110   5.547   3.623
 8952TIP3    H248348   4.022   5.541   3.747
 8953TIP3   OH248349   4.880   3.260  14.089
 8953TIP3    H148350   4.948   3.205  14.128
 8953TIP3    H248351   4.928   3.332  14.049
 8954TIP3   OH248352   1.051   2.820   2.706
 8954TIP3    H148353   0.961   2.835   2.735
 8954TIP3    H248354   1.090   2.907   2.703
 8955TIP3   OH248355   4.523   0.158   5.489
 8955TIP3    H148356   4.576   0.124   5.417
 8955TIP3    H248357   4.460   0.216   5.447
 8956TIP3   OH248358   3.400   5.452  14.443
 8956TIP3    H148359   3.306   5.436  14.440
 8956TIP3    H248360   3.410   5.543  14.414
 8957TIP3   OH248361   4.080   4.358   4.034
 8957TIP3    H148362   4.145   4.292   4.006
 8957TIP3    H248363   4.111   4.387   4.119
 8958TIP3   OH248364   6.448   3.732  13.595
 8958TIP3    H148365   6.519   3.676  13.625
 8958TIP3    H248366   6.458   3.734  13.500
 8959TIP3   OH248367   0.456   5.833  16.878
 8959TIP3    H148368   0.389   5.764  16.870
 8959TIP3    H248369   0.525   5.794  16.931
 8960TIP3   OH248370   5.506   2.162  15.081
 8960TIP3    H148371   5.448   2.191  15.151
 8960TIP3    H248372   5.565   2.236  15.066
 8961TIP3   OH248373   0.151   3.130   1.692
 8961TIP3    H148374   0.212   3.184   1.643
 8961TIP3    H248375   0.084   3.191   1.723
 8962TIP3   OH248376   6.181   0.804   1.776
 8962TIP3    H148377   6.152   0.718   1.745
 8962TIP3    H248378   6.191   0.856   1.696
 8963TIP3   OH248379   6.087   3.196   5.181
 8963TIP3    H148380   6.007   3.208   5.130
 8963TIP3    H248381   6.079   3.258   5.253
 8964TIP3   OH248382   6.132   6.005   1.858
 8964TIP3    H148383   6.125   6.055   1.939
 8964TIP3    H248384   6.226   5.988   1.850
 8965TIP3   OH248385   6.671   2.529  16.141
 8965TIP3    H148386   6.740   2.592  16.123
 8965TIP3    H248387   6.693   2.453  16.087
 8966TIP3   OH248388   6.045   5.650   1.271
 8966TIP3    H148389   5.991   5.603   1.335
 8966TIP3    H248390   5.982   5.697   1.217
 8967TIP3   OH248391   5.226   2.765  11.144
 8967TIP3    H148392   5.167   2.815  11.199
 8967TIP3    H248393   5.186   2.769  11.057
 8968TIP3   OH248394   0.703   6.449  16.827
 8968TIP3    H148395   0.692   6.539  16.857
 8968TIP3    H248396   0.614   6.416  16.816
 8969TIP3   OH248397   6.518   5.785   4.165
 8969TIP3    H148398   6.486   5.803   4.253
 8969TIP3    H248399   6.479   5.701   4.141
 8970TIP3   OH248400   3.416   5.780  12.280
 8970TIP3    H148401   3.374   5.852  12.327
 8970TIP3    H248402   3.374   5.781  12.194
 8971TIP3   OH248403   2.376   1.118  11.739
 8971TIP3    H148404   2.460   1.080  11.761
 8971TIP3    H248405   2.317   1.043  11.727
 8972TIP3   OH248406   4.291   0.755  14.322
 8972TIP3    H148407   4.330   0.676  14.358
 8972TIP3    H248408   4.196   0.744  14.334
 8973TIP3   OH248409   5.593   4.448   5.234
 8973TIP3    H148410   5.598   4.354   5.220
 8973TIP3    H248411   5.579   4.458   5.328
 8974TIP3   OH248412   3.097   4.730  17.234
 8974TIP3    H148413   3.058   4.644  17.250
 8974TIP3    H248414   3.112   4.732  17.139
 8975TIP3   OH248415   3.706   0.419  13.191
 8975TIP3    H148416   3.676   0.509  13.200
 8975TIP3    H248417   3.628   0.366  13.208
 8976TIP3   OH248418   6.426   5.757   3.760
 8976TIP3    H148419   6.420   5.790   3.671
 8976TIP3    H248420   6.475   5.675   3.752
 8977TIP3   OH248421   2.858   6.762   4.850
 8977TIP3    H148422   2.856   6.814   4.770
 8977TIP3    H248423   2.881   6.674   4.820
 8978TIP3   OH248424   2.299   5.443   5.072
 8978TIP3    H148425   2.246   5.490   5.136
 8978TIP3    H248426   2.238   5.382   5.030
 8979TIP3   OH248427   1.712   1.292  14.717
 8979TIP3    H148428   1.792   1.239  14.715
 8979TIP3    H248429   1.678   1.279  14.806
 8980TIP3   OH248430   1.092   2.801  11.703
 8980TIP3    H148431   1.123   2.776  11.616
 8980TIP3    H248432   1.102   2.896  11.706
 8981TIP3   OH248433   1.783   6.599  13.043
 8981TIP3    H148434   1.742   6.627  12.961
 8981TIP3    H248435   1.854   6.541  13.016
 8982TIP3   OH248436   3.111   1.412  11.345
 8982TIP3    H148437   3.039   1.467  11.312
 8982TIP3    H248438   3.149   1.373  11.266
 8983TIP3   OH248439   0.132   2.721   1.143
 8983TIP3    H148440   0.151   2.633   1.110
 8983TIP3    H248441   0.096   2.767   1.067
 8984TIP3   OH248442   3.790   4.418   5.697
 8984TIP3    H148443   3.816   4.507   5.671
 8984TIP3    H248444   3.802   4.417   5.792
 8985TIP3   OH248445   6.018   0.725  12.491
 8985TIP3    H148446   6.078   0.683  12.553
 8985TIP3    H248447   5.931   0.696  12.519
 8986TIP3   OH248448   5.892   3.501   2.632
 8986TIP3    H148449   5.835   3.500   2.554
 8986TIP3    H248450   5.835   3.471   2.703
 8987TIP3   OH248451   4.901   6.120   5.967
 8987TIP3    H148452   4.848   6.119   6.047
 8987TIP3    H248453   4.902   6.029   5.938
 8988TIP3   OH248454   2.637   0.082   6.540
 8988TIP3    H148455   2.669   0.111   6.454
 8988TIP3    H248456   2.645   0.159   6.596
 8989TIP3   OH248457   1.730   3.813   5.195
 8989TIP3    H148458   1.824   3.832   5.185
 8989TIP3    H248459   1.720   3.791   5.287
 8990TIP3   OH248460   4.346   0.951   4.527
 8990TIP3    H148461   4.375   0.945   4.618
 8990TIP3    H248462   4.407   1.014   4.488
 8991TIP3   OH248463   6.580   3.026   3.983
 8991TIP3    H148464   6.654   3.021   3.923
 8991TIP3    H248465   6.590   3.110   4.027
 8992TIP3   OH248466   5.521   5.231   0.344
 8992TIP3    H148467   5.471   5.157   0.310
 8992TIP3    H248468   5.454   5.294   0.373
 8993TIP3   OH248469   0.964   1.535   3.080
 8993TIP3    H148470   1.021   1.542   3.156
 8993TIP3    H248471   0.880   1.505   3.115
 8994TIP3   OH248472   5.094   6.573   5.676
 8994TIP3    H148473   5.117   6.500   5.732
 8994TIP3    H248474   5.027   6.621   5.724
 8995TIP3   OH248475   5.116   3.837  14.019
 8995TIP3    H148476   5.192   3.891  14.040
 8995TIP3    H248477   5.151   3.765  13.966
 8996TIP3   OH248478   2.762   0.174   6.306
 8996TIP3    H148479   2.806   0.258   6.321
 8996TIP3    H248480   2.834   0.113   6.289
 8997TIP3   OH248481   3.510   5.762  11.587
 8997TIP3    H148482   3.513   5.722  11.674
 8997TIP3    H248483   3.587   5.727  11.543
 8998TIP3   OH248484   6.661   6.003   4.072
 8998TIP3    H148485   6.743   5.964   4.042
 8998TIP3    H248486   6.609   5.929   4.102
 8999TIP3   OH248487   5.770   4.962  16.144
 8999TIP3    H148488   5.700   4.917  16.098
 8999TIP3    H248489   5.842   4.967  16.081
 9000TIP3   OH248490   4.552   2.976   5.917
 9000TIP3    H148491   4.587   2.912   5.979
 9000TIP3    H248492   4.620   3.043   5.911
 9001TIP3   OH248493   3.797   3.376   0.125
 9001TIP3    H148494   3.876   3.352   0.174
 9001TIP3    H248495   3.760   3.292   0.097
 9002TIP3   OH248496   5.109   4.133  12.352
 9002TIP3    H148497   5.051   4.116  12.426
 9002TIP3    H248498   5.055   4.180  12.289
 9003TIP3   OH248499   5.100   0.854   0.544
 9003TIP3    H148500   5.039   0.781   0.548
 9003TIP3    H248501   5.130   0.856   0.453
 9004TIP3   OH248502   5.150   2.581  15.823
 9004TIP3    H148503   5.154   2.581  15.727
 9004TIP3    H248504   5.056   2.573  15.842
 9005TIP3   OH248505   1.670   0.386   1.254
 9005TIP3    H148506   1.729   0.384   1.329
 9005TIP3    H248507   1.713   0.443   1.191
 9006TIP3   OH248508   1.055   1.160   0.825
 9006TIP3    H148509   1.049   1.065   0.829
 9006TIP3    H248510   1.146   1.178   0.802
 9007TIP3   OH248511   4.507   3.724  11.374
 9007TIP3    H148512   4.576   3.782  11.341
 9007TIP3    H248513   4.548   3.638  11.381
 9008TIP3   OH248514   4.734   0.756  14.677
 9008TIP3    H148515   4.736   0.703  14.597
 9008TIP3    H248516   4.644   0.790  14.681
 9009TIP3   OH248517   0.561   6.074  13.097
 9009TIP3    H148518   0.529   5.990  13.064
 9009TIP3    H248519   0.617   6.051  13.171
 9010TIP3   OH248520   4.430   1.190  15.505
 9010TIP3    H148521   4.496   1.252  15.536
 9010TIP3    H248522   4.430   1.201  15.410
 9011TIP3   OH248523   1.886   5.065   1.967
 9011TIP3    H148524   1.972   5.094   1.998
 9011TIP3    H248525   1.871   5.116   1.887
 9012TIP3   OH248526   2.368   5.975  17.227
 9012TIP3    H148527   2.309   6.032  17.276
 9012TIP3    H248528   2.343   5.988  17.135
 9013TIP3   OH248529   6.283   1.102   0.494
 9013TIP3    H148530   6.269   1.121   0.587
 9013TIP3    H248531   6.377   1.090   0.485
 9014TIP3   OH248532   4.503   6.448   2.051
 9014TIP3    H148533   4.589   6.412   2.072
 9014TIP3    H248534   4.506   6.465   1.957
 9015TIP3   OH248535   0.562   4.961  14.448
 9015TIP3    H148536   0.644   4.926  14.484
 9015TIP3    H248537   0.522   5.007  14.521
 9016TIP3   OH248538   6.650   6.066   2.113
 9016TIP3    H148539   6.715   6.041   2.180
 9016TIP3    H248540   6.681   6.150   2.080
 9017TIP3   OH248541   5.769   6.450   2.072
 9017TIP3    H148542   5.769   6.546   2.066
 9017TIP3    H248543   5.772   6.432   2.166
 9018TIP3   OH248544   5.965   4.473  13.511
 9018TIP3    H148545   5.904   4.399  13.505
 9018TIP3    H248546   6.032   4.454  13.446
 9019TIP3   OH248547   2.156   1.995  11.787
 9019TIP3    H148548   2.188   1.963  11.872
 9019TIP3    H248549   2.123   1.916  11.744
 9020TIP3   OH248550   0.045   3.787  14.794
 9020TIP3    H148551   0.059   3.766  14.702
 9020TIP3    H248552   0.104   3.727  14.841
 9021TIP3   OH248553   5.190   5.882  10.490
 9021TIP3    H148554   5.263   5.860  10.432
 9021TIP3    H248555   5.138   5.802  10.494
 9022TIP3   OH248556   5.322   3.807  16.971
 9022TIP3    H148557   5.316   3.851  16.886
 9022TIP3    H248558   5.384   3.860  17.021
 9023TIP3   OH248559   3.452   2.426  12.016
 9023TIP3    H148560   3.382   2.487  12.038
 9023TIP3    H248561   3.531   2.480  12.013
 9024TIP3   OH248562   6.104   2.095  14.044
 9024TIP3    H148563   6.067   2.137  13.966
 9024TIP3    H248564   6.187   2.057  14.014
 9025TIP3   OH248565   4.420   5.802  11.999
 9025TIP3    H148566   4.434   5.834  12.089
 9025TIP3    H248567   4.478   5.856  11.945
 9026TIP3   OH248568   3.873   3.132   2.097
 9026TIP3    H148569   3.858   3.046   2.138
 9026TIP3    H248570   3.960   3.126   2.059
 9027TIP3   OH248571   3.227   5.140   3.313
 9027TIP3    H148572   3.245   5.099   3.228
 9027TIP3    H248573   3.211   5.232   3.292
 9028TIP3   OH248574   6.678   3.730  16.385
 9028TIP3    H148575   6.640   3.729  16.473
 9028TIP3    H248576   6.622   3.673  16.333
 9029TIP3   OH248577   4.450   4.935  16.614
 9029TIP3    H148578   4.386   4.994  16.572
 9029TIP3    H248579   4.513   4.915  16.545
 9030TIP3   OH248580   1.427   0.049   4.150
 9030TIP3    H148581   1.379   0.073   4.070
 9030TIP3    H248582   1.461  -0.039   4.131
 9031TIP3   OH248583   2.903   4.892   2.521
 9031TIP3    H148584   2.971   4.955   2.497
 9031TIP3    H248585   2.849   4.938   2.585
 9032TIP3   OH248586   3.725   3.380  11.370
 9032TIP3    H148587   3.668   3.456  11.358
 9032TIP3    H248588   3.702   3.321  11.298
 9033TIP3   OH248589   6.095   0.155   5.613
 9033TIP3    H148590   6.120   0.237   5.656
 9033TIP3    H248591   6.000   0.162   5.603
 9034TIP3   OH248592   2.485   6.314  13.612
 9034TIP3    H148593   2.450   6.388  13.562
 9034TIP3    H248594   2.484   6.344  13.703
 9035TIP3   OH248595   2.331   4.994  12.840
 9035TIP3    H148596   2.420   4.975  12.870
 9035TIP3    H248597   2.279   4.994  12.920
 9036TIP3   OH248598   4.901   5.187  11.126
 9036TIP3    H148599   4.843   5.224  11.059
 9036TIP3    H248600   4.937   5.108  11.085
 9037TIP3   OH248601   1.034   2.710  13.163
 9037TIP3    H148602   0.965   2.651  13.132
 9037TIP3    H248603   0.991   2.795  13.170
 9038TIP3   OH248604   4.991   0.971  11.905
 9038TIP3    H148605   5.023   0.946  11.991
 9038TIP3    H248606   4.945   0.893  11.872
 9039TIP3   OH248607   5.010   5.156   2.150
 9039TIP3    H148608   5.018   5.157   2.055
 9039TIP3    H248609   4.982   5.244   2.173
 9040TIP3   OH248610   2.849   5.460  13.874
 9040TIP3    H148611   2.892   5.474  13.958
 9040TIP3    H248612   2.796   5.381  13.887
 9041TIP3   OH248613   1.648   3.335   2.293
 9041TIP3    H148614   1.571   3.356   2.346
 9041TIP3    H248615   1.634   3.245   2.264
 9042TIP3   OH248616   2.637   3.964   4.862
 9042TIP3    H148617   2.583   3.984   4.786
 9042TIP3    H248618   2.726   3.986   4.835
 9043TIP3   OH248619   1.043   2.974   3.017
 9043TIP3    H148620   1.106   3.013   2.957
 9043TIP3    H248621   1.000   3.049   3.059
 9044TIP3   OH248622   4.570   6.102  13.153
 9044TIP3    H148623   4.588   6.140  13.239
 9044TIP3    H248624   4.476   6.115  13.140
 9045TIP3   OH248625   0.463   4.869   5.678
 9045TIP3    H148626   0.458   4.932   5.750
 9045TIP3    H248627   0.507   4.793   5.714
 9046TIP3   OH248628   4.227   4.406   0.775
 9046TIP3    H148629   4.245   4.338   0.711
 9046TIP3    H248630   4.225   4.360   0.859
 9047TIP3   OH248631   4.702   4.978  12.687
 9047TIP3    H148632   4.709   5.040  12.616
 9047TIP3    H248633   4.652   5.024  12.755
 9048TIP3   OH248634   2.987   0.291  15.866
 9048TIP3    H148635   2.993   0.376  15.911
 9048TIP3    H248636   2.935   0.309  15.788
 9049TIP3   OH248637   5.121   5.924  16.134
 9049TIP3    H148638   5.089   5.908  16.045
 9049TIP3    H248639   5.091   6.012  16.155
 9050TIP3   OH248640   2.099   4.959  11.971
 9050TIP3    H148641   2.005   4.945  11.986
 9050TIP3    H248642   2.130   4.999  12.052
 9051TIP3   OH248643   1.495   0.697  11.639
 9051TIP3    H148644   1.513   0.705  11.733
 9051TIP3    H248645   1.401   0.683  11.634
 9052TIP3   OH248646   2.075   4.808  11.193
 9052TIP3    H148647   2.099   4.892  11.233
 9052TIP3    H248648   2.049   4.831  11.104
 9053TIP3   OH248649   2.843   4.145   5.443
 9053TIP3    H148650   2.798   4.064   5.421
 9053TIP3    H248651   2.932   4.117   5.465
 9054TIP3   OH248652   6.028   2.886   2.733
 9054TIP3    H148653   5.976   2.813   2.766
 9054TIP3    H248654   6.118   2.854   2.734
 9055TIP3   OH248655   0.260   2.078   4.722
 9055TIP3    H148656   0.175   2.036   4.715
 9055TIP3    H248657   0.266   2.132   4.643
 9056TIP3   OH248658   5.229   5.431  12.688
 9056TIP3    H148659   5.149   5.457  12.643
 9056TIP3    H248660   5.284   5.394  12.618
 9057TIP3   OH248661   0.056   1.110   3.720
 9057TIP3    H148662   0.117   1.183   3.718
 9057TIP3    H248663   0.018   1.114   3.808
 9058TIP3   OH248664   4.908   0.880  12.948
 9058TIP3    H148665   4.872   0.929  12.874
 9058TIP3    H248666   5.002   0.879  12.933
 9059TIP3   OH248667   2.218   1.081   2.252
 9059TIP3    H148668   2.286   1.026   2.292
 9059TIP3    H248669   2.255   1.105   2.166
 9060TIP3   OH248670   6.485   0.935  12.679
 9060TIP3    H148671   6.436   0.963  12.602
 9060TIP3    H248672   6.556   0.882  12.644
 9061TIP3   OH248673   4.858   1.961  14.287
 9061TIP3    H148674   4.890   2.050  14.302
 9061TIP3    H248675   4.833   1.930  14.374
 9062TIP3   OH248676   4.325   4.304   6.210
 9062TIP3    H148677   4.258   4.318   6.144
 9062TIP3    H248678   4.280   4.317   6.294
 9063TIP3   OH248679   4.712   1.780  11.530
 9063TIP3    H148680   4.740   1.707  11.475
 9063TIP3    H248681   4.632   1.749  11.573
 9064TIP3   OH248682   0.552   1.161   4.130
 9064TIP3    H148683   0.525   1.098   4.197
 9064TIP3    H248684   0.646   1.172   4.144
 9065TIP3   OH248685   4.090   6.430   4.350
 9065TIP3    H148686   4.161   6.473   4.303
 9065TIP3    H248687   4.014   6.486   4.336
 9066TIP3   OH248688   3.842   0.096   0.674
 9066TIP3    H148689   3.766   0.131   0.627
 9066TIP3    H248690   3.863   0.015   0.628
 9067TIP3   OH248691   2.842   2.480   0.568
 9067TIP3    H148692   2.761   2.429   0.576
 9067TIP3    H248693   2.826   2.539   0.494
 9068TIP3   OH248694   6.724   6.291  12.951
 9068TIP3    H148695   6.804   6.344  12.946
 9068TIP3    H248696   6.659   6.349  12.989
 9069TIP3   OH248697   1.178   5.998   4.649
 9069TIP3    H148698   1.124   6.003   4.727
 9069TIP3    H248699   1.216   6.086   4.640
 9070TIP3   OH248700   5.806   0.297  14.012
 9070TIP3    H148701   5.719   0.256  14.017
 9070TIP3    H248702   5.867   0.227  14.036
 9071TIP3   OH248703   3.122   3.689   5.712
 9071TIP3    H148704   3.141   3.682   5.805
 9071TIP3    H248705   3.044   3.743   5.707
 9072TIP3   OH248706   2.636   6.425   3.035
 9072TIP3    H148707   2.619   6.467   2.951
 9072TIP3    H248708   2.713   6.371   3.020
 9073TIP3   OH248709   1.737   3.373  12.162
 9073TIP3    H148710   1.658   3.403  12.206
 9073TIP3    H248711   1.753   3.286  12.198
 9074TIP3   OH248712   2.375   2.915   5.862
 9074TIP3    H148713   2.303   2.931   5.923
 9074TIP3    H248714   2.378   2.819   5.853
 9075TIP3   OH248715   0.274   2.083   4.431
 9075TIP3    H148716   0.369   2.084   4.446
 9075TIP3    H248717   0.265   2.106   4.338
 9076TIP3   OH248718   4.585   1.458   5.762
 9076TIP3    H148719   4.670   1.416   5.748
 9076TIP3    H248720   4.531   1.389   5.801
 9077TIP3   OH248721   3.330   2.728  13.343
 9077TIP3    H148722   3.273   2.749  13.416
 9077TIP3    H248723   3.271   2.699  13.273
 9078TIP3   OH248724   2.028   3.378   4.151
 9078TIP3    H148725   2.064   3.454   4.196
 9078TIP3    H248726   2.072   3.303   4.190
 9079TIP3   OH248727   4.353   5.584  13.224
 9079TIP3    H148728   4.337   5.517  13.291
 9079TIP3    H248729   4.448   5.596  13.224
 9080TIP3   OH248730   1.096   4.170  17.008
 9080TIP3    H148731   1.023   4.196  17.064
 9080TIP3    H248732   1.061   4.100  16.953
 9081TIP3   OH248733   3.759   5.729   0.895
 9081TIP3    H148734   3.766   5.709   0.989
 9081TIP3    H248735   3.820   5.801   0.881
 9082TIP3   OH248736   4.636   1.372  17.072
 9082TIP3    H148737   4.621   1.348  17.163
 9082TIP3    H248738   4.686   1.453  17.076
 9083TIP3   OH248739   4.428   2.965   5.686
 9083TIP3    H148740   4.395   2.875   5.682
 9083TIP3    H248741   4.469   2.971   5.772
 9084TIP3   OH248742   3.967   2.329   4.628
 9084TIP3    H148743   4.015   2.289   4.701
 9084TIP3    H248744   4.003   2.417   4.620
 9085TIP3   OH248745   2.602   2.332   5.804
 9085TIP3    H148746   2.668   2.387   5.847
 9085TIP3    H248747   2.638   2.244   5.807
 9086TIP3   OH248748   0.036   2.013  12.542
 9086TIP3    H148749   0.010   1.946  12.478
 9086TIP3    H248750   0.119   1.981  12.578
 9087TIP3   OH248751   0.049   4.933   2.069
 9087TIP3    H148752  -0.035   4.978   2.057
 9087TIP3    H248753   0.030   4.864   2.132
 9088TIP3   OH248754   0.627   6.217  15.152
 9088TIP3    H148755   0.645   6.140  15.099
 9088TIP3    H248756   0.713   6.244  15.185
 9089TIP3   OH248757   3.131   1.757   5.102
 9089TIP3    H148758   3.138   1.663   5.117
 9089TIP3    H248759   3.036   1.774   5.097
 9090TIP3   OH248760   3.159   0.643   5.387
 9090TIP3    H148761   3.154   0.554   5.351
 9090TIP3    H248762   3.205   0.693   5.319
 9091TIP3   OH248763   6.320   5.373  14.097
 9091TIP3    H148764   6.360   5.323  14.026
 9091TIP3    H248765   6.345   5.326  14.177
 9092TIP3   OH248766   5.828   6.628   4.546
 9092TIP3    H148767   5.767   6.622   4.473
 9092TIP3    H248768   5.801   6.706   4.594
 9093TIP3   OH248769   2.762   4.266  16.535
 9093TIP3    H148770   2.747   4.171  16.531
 9093TIP3    H248771   2.745   4.289  16.626
 9094TIP3   OH248772   4.106   3.318   3.680
 9094TIP3    H148773   4.115   3.385   3.612
 9094TIP3    H248774   4.104   3.235   3.631
 9095TIP3   OH248775   6.133   3.348  15.461
 9095TIP3    H148776   6.138   3.382  15.372
 9095TIP3    H248777   6.040   3.351  15.483
 9096TIP3   OH248778   1.311   0.066   3.884
 9096TIP3    H148779   1.391   0.013   3.881
 9096TIP3    H248780   1.298   0.093   3.793
 9097TIP3   OH248781   5.395   0.430   3.041
 9097TIP3    H148782   5.349   0.405   2.961
 9097TIP3    H248783   5.487   0.427   3.018
 9098TIP3   OH248784   6.577   4.774   0.917
 9098TIP3    H148785   6.497   4.820   0.942
 9098TIP3    H248786   6.564   4.685   0.949
 9099TIP3   OH248787   5.015   6.794   3.588
 9099TIP3    H148788   5.012   6.888   3.601
 9099TIP3    H248789   5.045   6.758   3.671
 9100TIP3   OH248790   2.794   6.416  15.946
 9100TIP3    H148791   2.844   6.434  15.866
 9100TIP3    H248792   2.786   6.321  15.948
 9101TIP3   OH248793   5.832   4.733  12.631
 9101TIP3    H148794   5.759   4.761  12.575
 9101TIP3    H248795   5.881   4.671  12.577
 9102TIP3   OH248796   0.512   5.986   3.212
 9102TIP3    H148797   0.433   6.036   3.232
 9102TIP3    H248798   0.483   5.921   3.147
 9103TIP3   OH248799   3.256   3.206  11.376
 9103TIP3    H148800   3.350   3.192  11.382
 9103TIP3    H248801   3.243   3.244  11.288
 9104TIP3   OH248802   3.567   5.424  15.465
 9104TIP3    H148803   3.514   5.403  15.542
 9104TIP3    H248804   3.514   5.395  15.391
 9105TIP3   OH248805   0.018   5.090  14.610
 9105TIP3    H148806  -0.031   5.039  14.674
 9105TIP3    H248807   0.077   5.027  14.568
 9106TIP3   OH248808   1.834   4.791  11.554
 9106TIP3    H148809   1.927   4.775  11.540
 9106TIP3    H248810   1.809   4.853  11.486
 9107TIP3   OH248811   5.185   1.298  11.754
 9107TIP3    H148812   5.209   1.345  11.835
 9107TIP3    H248813   5.091   1.285  11.762
 9108TIP3   OH248814   6.638   4.391  13.572
 9108TIP3    H148815   6.605   4.341  13.647
 9108TIP3    H248816   6.593   4.352  13.496
 9109TIP3   OH248817   4.432   2.199   5.741
 9109TIP3    H148818   4.349   2.151   5.751
 9109TIP3    H248819   4.497   2.130   5.724
 9110TIP3   OH248820   0.498   4.414   2.382
 9110TIP3    H148821   0.451   4.497   2.388
 9110TIP3    H248822   0.590   4.437   2.393
 9111TIP3   OH248823   2.960   3.782  12.965
 9111TIP3    H148824   3.049   3.815  12.970
 9111TIP3    H248825   2.953   3.720  13.038
 9112TIP3   OH248826   6.061   5.973   0.022
 9112TIP3    H148827   5.970   5.970  -0.009
 9112TIP3    H248828   6.055   5.953   0.116
 9113TIP3   OH248829   5.279   2.077  11.735
 9113TIP3    H148830   5.238   2.151  11.689
 9113TIP3    H248831   5.337   2.038  11.671
 9114TIP3   OH248832   6.609   2.542   5.593
 9114TIP3    H148833   6.656   2.460   5.606
 9114TIP3    H248834   6.596   2.576   5.681
 9115TIP3   OH248835   4.758   5.846  17.064
 9115TIP3    H148836   4.829   5.783  17.053
 9115TIP3    H248837   4.768   5.908  16.992
 9116TIP3   OH248838   2.668   4.999  14.024
 9116TIP3    H148839   2.607   5.020  14.094
 9116TIP3    H248840   2.754   4.995  14.066
 9117TIP3   OH248841   5.568   0.170  16.073
 9117TIP3    H148842   5.503   0.155  16.141
 9117TIP3    H248843   5.640   0.214  16.118
 9118TIP3   OH248844   5.941   4.013  16.837
 9118TIP3    H148845   6.006   3.994  16.770
 9118TIP3    H248846   5.977   4.087  16.885
 9119TIP3   OH248847   2.502   1.177   2.793
 9119TIP3    H148848   2.592   1.145   2.795
 9119TIP3    H248849   2.486   1.198   2.701
 9120TIP3   OH248850   1.117   0.257  11.604
 9120TIP3    H148851   1.174   0.232  11.677
 9120TIP3    H248852   1.140   0.197  11.533
 9121TIP3   OH248853   4.729   4.694   0.062
 9121TIP3    H148854   4.650   4.693   0.008
 9121TIP3    H248855   4.700   4.660   0.147
 9122TIP3   OH248856   6.419   6.177  13.989
 9122TIP3    H148857   6.446   6.242  13.924
 9122TIP3    H248858   6.394   6.229  14.066
 9123TIP3   OH248859   4.442   2.964  13.123
 9123TIP3    H148860   4.445   3.045  13.073
 9123TIP3    H248861   4.518   2.969  13.182
 9124TIP3   OH248862   6.163   3.401   0.183
 9124TIP3    H148863   6.114   3.471   0.139
 9124TIP3    H248864   6.137   3.321   0.137
 9125TIP3   OH248865   2.412   1.701  14.780
 9125TIP3    H148866   2.362   1.645  14.839
 9125TIP3    H248867   2.410   1.788  14.821
 9126TIP3   OH248868   2.706   5.690   5.014
 9126TIP3    H148869   2.714   5.783   5.033
 9126TIP3    H248870   2.615   5.677   4.989
 9127TIP3   OH248871   4.214   3.802   6.414
 9127TIP3    H148872   4.258   3.745   6.351
 9127TIP3    H248873   4.208   3.749   6.494
 9128TIP3   OH248874   3.912   4.369  13.502
 9128TIP3    H148875   3.864   4.399  13.579
 9128TIP3    H248876   3.881   4.279  13.489
 9129TIP3   OH248877   2.743   3.699  15.950
 9129TIP3    H148878   2.668   3.709  16.009
 9129TIP3    H248879   2.777   3.612  15.969
 9130TIP3   OH248880   5.887   6.527  14.433
 9130TIP3    H148881   5.946   6.499  14.363
 9130TIP3    H248882   5.839   6.601  14.396
 9131TIP3   OH248883   2.714   6.352   0.178
 9131TIP3    H148884   2.765   6.353   0.097
 9131TIP3    H248885   2.655   6.277   0.169
 9132TIP3   OH248886   2.039   1.861   3.579
 9132TIP3    H148887   2.013   1.949   3.605
 9132TIP3    H248888   2.092   1.829   3.652
 9133TIP3   OH248889   5.828   2.791  14.794
 9133TIP3    H148890   5.828   2.805  14.888
 9133TIP3    H248891   5.745   2.746  14.776
 9134TIP3   OH248892   0.615   3.698  13.052
 9134TIP3    H148893   0.540   3.651  13.016
 9134TIP3    H248894   0.611   3.785  13.012
 9135TIP3   OH248895   6.350   5.872  11.736
 9135TIP3    H148896   6.279   5.877  11.672
 9135TIP3    H248897   6.397   5.955  11.727
 9136TIP3   OH248898   2.579   3.262  13.404
 9136TIP3    H148899   2.655   3.207  13.382
 9136TIP3    H248900   2.550   3.297  13.319
 9137TIP3   OH248901   0.710   2.645  16.434
 9137TIP3    H148902   0.625   2.643  16.389
 9137TIP3    H248903   0.688   2.658  16.526
 9138TIP3   OH248904   1.412   2.934  15.298
 9138TIP3    H148905   1.477   2.999  15.270
 9138TIP3    H248906   1.337   2.948  15.240
 9139TIP3   OH248907   0.618   0.833   4.903
 9139TIP3    H148908   0.713   0.825   4.913
 9139TIP3    H248909   0.582   0.792   4.981
 9140TIP3   OH248910   0.105   2.224  12.965
 9140TIP3    H148911   0.139   2.158  12.904
 9140TIP3    H248912   0.104   2.305  12.915
 9141TIP3   OH248913   4.378   2.271   3.679
 9141TIP3    H148914   4.382   2.235   3.767
 9141TIP3    H248915   4.442   2.221   3.629
 9142TIP3   OH248916   3.014   2.832  15.932
 9142TIP3    H148917   3.091   2.839  15.876
 9142TIP3    H248918   2.943   2.807  15.871
 9143TIP3   OH248919   3.803   2.989   5.033
 9143TIP3    H148920   3.842   2.907   5.003
 9143TIP3    H248921   3.809   3.047   4.958
 9144TIP3   OH248922   5.825   6.721  11.444
 9144TIP3    H148923   5.741   6.678  11.460
 9144TIP3    H248924   5.804   6.815  11.439
 9145TIP3   OH248925   1.138   2.092  13.757
 9145TIP3    H148926   1.160   2.162  13.819
 9145TIP3    H248927   1.085   2.031  13.807
 9146TIP3   OH248928   2.607   6.387   3.502
 9146TIP3    H148929   2.553   6.309   3.492
 9146TIP3    H248930   2.591   6.416   3.592
 9147TIP3   OH248931   0.982   5.849   0.172
 9147TIP3    H148932   0.965   5.943   0.172
 9147TIP3    H248933   0.935   5.816   0.095
 9148TIP3   OH248934   5.246   2.501  14.285
 9148TIP3    H148935   5.290   2.462  14.210
 9148TIP3    H248936   5.272   2.446  14.359
 9149TIP3   OH248937   5.102   1.479   4.365
 9149TIP3    H148938   5.013   1.448   4.383
 9149TIP3    H248939   5.136   1.505   4.450
 9150TIP3   OH248940   5.163   3.313   1.351
 9150TIP3    H148941   5.161   3.247   1.281
 9150TIP3    H248942   5.247   3.298   1.395
 9151TIP3   OH248943   1.274   0.362   3.928
 9151TIP3    H148944   1.246   0.304   3.857
 9151TIP3    H248945   1.224   0.333   4.004
 9152TIP3   OH248946   2.630   6.441  12.235
 9152TIP3    H148947   2.600   6.485  12.314
 9152TIP3    H248948   2.587   6.488  12.164
 9153TIP3   OH248949   1.425   0.411   4.434
 9153TIP3    H148950   1.346   0.425   4.381
 9153TIP3    H248951   1.408   0.457   4.516
 9154TIP3   OH248952   1.999   2.958   6.514
 9154TIP3    H148953   2.012   2.871   6.550
 9154TIP3    H248954   1.904   2.969   6.510
 9155TIP3   OH248955   2.945   0.320   5.388
 9155TIP3    H148956   2.920   0.412   5.391
 9155TIP3    H248957   2.866   0.272   5.411
 9156TIP3   OH248958   4.978   5.307  14.222
 9156TIP3    H148959   4.968   5.239  14.289
 9156TIP3    H248960   4.907   5.369  14.240
 9157TIP3   OH248961   0.332   6.272   1.748
 9157TIP3    H148962   0.292   6.186   1.757
 9157TIP3    H248963   0.274   6.331   1.798
 9158TIP3   OH248964   0.585   5.302   1.798
 9158TIP3    H148965   0.679   5.291   1.782
 9158TIP3    H248966   0.574   5.395   1.818
 9159TIP3   OH248967   3.052   2.695  13.825
 9159TIP3    H148968   3.016   2.772  13.868
 9159TIP3    H248969   2.981   2.631  13.824
 9160TIP3   OH248970   0.818   5.472   0.296
 9160TIP3    H148971   0.831   5.420   0.217
 9160TIP3    H248972   0.829   5.410   0.368
 9161TIP3   OH248973   6.267   4.803   0.558
 9161TIP3    H148974   6.324   4.839   0.490
 9161TIP3    H248975   6.301   4.715   0.573
 9162TIP3   OH248976   3.412   0.879  16.872
 9162TIP3    H148977   3.360   0.799  16.879
 9162TIP3    H248978   3.360   0.936  16.816
 9163TIP3   OH248979   5.791   0.880  16.130
 9163TIP3    H148980   5.798   0.787  16.106
 9163TIP3    H248981   5.751   0.921  16.053
 9164TIP3   OH248982   1.527   4.228   6.087
 9164TIP3    H148983   1.497   4.187   6.006
 9164TIP3    H248984   1.588   4.164   6.125
 9165TIP3   OH248985   5.821   6.741  13.205
 9165TIP3    H148986   5.849   6.687  13.279
 9165TIP3    H248987   5.808   6.828  13.243
 9166TIP3   OH248988   6.447   2.234   2.205
 9166TIP3    H148989   6.351   2.228   2.197
 9166TIP3    H248990   6.467   2.325   2.183
 9167TIP3   OH248991   4.956   0.449  14.627
 9167TIP3    H148992   5.028   0.392  14.600
 9167TIP3    H248993   4.991   0.538  14.617
 9168TIP3   OH248994   4.528   0.853  15.594
 9168TIP3    H148995   4.454   0.908  15.620
 9168TIP3    H248996   4.548   0.801  15.672
 9169TIP3   OH248997   0.349   2.255  10.753
 9169TIP3    H148998   0.420   2.290  10.807
 9169TIP3    H248999   0.299   2.333  10.727
 9170TIP3   OH249000   4.842   0.524  11.940
 9170TIP3    H149001   4.759   0.522  11.988
 9170TIP3    H249002   4.852   0.435  11.906
 9171TIP3   OH249003   3.650   2.304   0.749
 9171TIP3    H149004   3.597   2.231   0.780
 9171TIP3    H249005   3.719   2.313   0.814
 9172TIP3   OH249006   3.217   2.906  11.894
 9172TIP3    H149007   3.122   2.896  11.881
 9172TIP3    H249008   3.243   2.827  11.942
 9173TIP3   OH249009   1.323   3.131   1.445
 9173TIP3    H149010   1.350   3.172   1.528
 9173TIP3    H249011   1.403   3.127   1.393
 9174TIP3   OH249012   0.730   1.730  13.388
 9174TIP3    H149013   0.769   1.737  13.301
 9174TIP3    H249014   0.785   1.667  13.434
 9175TIP3   OH249015   4.229   3.430   4.704
 9175TIP3    H149016   4.253   3.407   4.794
 9175TIP3    H249017   4.215   3.524   4.707
 9176TIP3   OH249018   2.304   3.287   2.339
 9176TIP3    H149019   2.338   3.278   2.428
 9176TIP3    H249020   2.222   3.334   2.348
 9177TIP3   OH249021   0.331   4.590   4.449
 9177TIP3    H149022   0.334   4.652   4.377
 9177TIP3    H249023   0.315   4.505   4.408
 9178TIP3   OH249024   4.527   1.204  14.077
 9178TIP3    H149025   4.575   1.122  14.066
 9178TIP3    H249026   4.595   1.267  14.102
 9179TIP3   OH249027   0.316   1.803  13.527
 9179TIP3    H149028   0.304   1.897  13.536
 9179TIP3    H249029   0.263   1.765  13.597
 9180TIP3   OH249030   3.137   3.525   0.544
 9180TIP3    H149031   3.148   3.521   0.449
 9180TIP3    H249032   3.044   3.505   0.558
 9181TIP3   OH249033   3.157   0.300  12.141
 9181TIP3    H149034   3.208   0.319  12.063
 9181TIP3    H249035   3.180   0.369  12.203
 9182TIP3   OH249036   5.551   0.094   1.482
 9182TIP3    H149037   5.496   0.125   1.409
 9182TIP3    H249038   5.565   0.002   1.463
 9183TIP3   OH249039   0.234   5.502  15.228
 9183TIP3    H149040   0.226   5.510  15.133
 9183TIP3    H249041   0.307   5.560  15.250
 9184TIP3   OH249042   6.359   4.803   4.473
 9184TIP3    H149043   6.344   4.720   4.518
 9184TIP3    H249044   6.453   4.820   4.485
 9185TIP3   OH249045   2.108   2.120   2.927
 9185TIP3    H149046   2.104   2.215   2.934
 9185TIP3    H249047   2.189   2.096   2.973
 9186TIP3   OH249048   1.413   6.361  11.670
 9186TIP3    H149049   1.403   6.423  11.598
 9186TIP3    H249050   1.388   6.276  11.632
 9187TIP3   OH249051   5.455   1.392   0.266
 9187TIP3    H149052   5.508   1.469   0.245
 9187TIP3    H249053   5.366   1.418   0.241
 9188TIP3   OH249054   2.044   5.309   5.663
 9188TIP3    H149055   2.061   5.283   5.754
 9188TIP3    H249056   1.954   5.280   5.646
 9189TIP3   OH249057   1.723   1.610  15.403
 9189TIP3    H149058   1.630   1.588  15.411
 9189TIP3    H249059   1.732   1.693  15.449
 9190TIP3   OH249060   1.822   3.853  16.122
 9190TIP3    H149061   1.880   3.776  16.124
 9190TIP3    H249062   1.842   3.900  16.202
 9191TIP3   OH249063   0.721   6.582  15.722
 9191TIP3    H149064   0.667   6.508  15.752
 9191TIP3    H249065   0.747   6.558  15.633
 9192TIP3   OH249066   5.241   3.067   2.735
 9192TIP3    H149067   5.274   2.999   2.677
 9192TIP3    H249068   5.160   3.032   2.771
 9193TIP3   OH249069   3.085   6.026  16.906
 9193TIP3    H149070   3.013   6.076  16.945
 9193TIP3    H249071   3.086   6.052  16.814
 9194TIP3   OH249072   5.680   3.128  14.470
 9194TIP3    H149073   5.629   3.067  14.416
 9194TIP3    H249074   5.639   3.125  14.556
 9195TIP3   OH249075   5.614   2.593   3.057
 9195TIP3    H149076   5.700   2.559   3.032
 9195TIP3    H249077   5.577   2.628   2.976
 9196TIP3   OH249078   4.601   1.221   5.474
 9196TIP3    H149079   4.662   1.239   5.545
 9196TIP3    H249080   4.525   1.275   5.494
 9197TIP3   OH249081   4.971   0.137  12.624
 9197TIP3    H149082   4.903   0.205  12.628
 9197TIP3    H249083   5.009   0.136  12.712
 9198TIP3   OH249084   1.083   5.149  16.870
 9198TIP3    H149085   1.127   5.074  16.830
 9198TIP3    H249086   0.990   5.125  16.871
 9199TIP3   OH249087   4.422   2.199  12.746
 9199TIP3    H149088   4.451   2.137  12.680
 9199TIP3    H249089   4.427   2.151  12.829
 9200TIP3   OH249090   3.707   5.459   3.030
 9200TIP3    H149091   3.636   5.407   2.994
 9200TIP3    H249092   3.772   5.463   2.960
 9201TIP3   OH249093   0.390   3.327  15.385
 9201TIP3    H149094   0.432   3.246  15.413
 9201TIP3    H249095   0.330   3.349  15.456
 9202TIP3   OH249096   1.470   3.965   0.192
 9202TIP3    H149097   1.379   3.990   0.177
 9202TIP3    H249098   1.511   3.970   0.106
 9203TIP3   OH249099   3.475   5.295   2.498
 9203TIP3    H149100   3.501   5.242   2.423
 9203TIP3    H249101   3.436   5.232   2.559
 9204TIP3   OH249102   1.527   2.693  15.388
 9204TIP3    H149103   1.535   2.699  15.484
 9204TIP3    H249104   1.510   2.783  15.360
 9205TIP3   OH249105   3.295   3.868  12.724
 9205TIP3    H149106   3.279   3.962  12.731
 9205TIP3    H249107   3.225   3.835  12.667
 9206TIP3   OH249108   1.902   0.716  11.061
 9206TIP3    H149109   1.916   0.622  11.074
 9206TIP3    H249110   1.891   0.725  10.966
 9207TIP3   OH249111   3.057   6.185  12.449
 9207TIP3    H149112   3.133   6.198  12.392
 9207TIP3    H249113   3.000   6.260  12.431
 9208TIP3   OH249114   6.289   6.570  11.581
 9208TIP3    H149115   6.200   6.585  11.549
 9208TIP3    H249116   6.294   6.619  11.663
 9209TIP3   OH249117   2.667   4.888  12.037
 9209TIP3    H149118   2.666   4.977  12.074
 9209TIP3    H249119   2.747   4.885  11.985
 9210TIP3   OH249120   3.834   5.057  11.778
 9210TIP3    H149121   3.814   5.077  11.687
 9210TIP3    H249122   3.892   4.980  11.773
 9211TIP3   OH249123   2.951   5.465   3.891
 9211TIP3    H149124   2.999   5.538   3.850
 9211TIP3    H249125   2.987   5.387   3.850
 9212TIP3   OH249126   6.310   6.686   2.686
 9212TIP3    H149127   6.299   6.778   2.711
 9212TIP3    H249128   6.405   6.674   2.680
 9213TIP3   OH249129   5.699   6.430  10.895
 9213TIP3    H149130   5.786   6.459  10.868
 9213TIP3    H249131   5.642   6.504  10.876
 9214TIP3   OH249132   0.505   5.382   2.913
 9214TIP3    H149133   0.438   5.328   2.872
 9214TIP3    H249134   0.506   5.463   2.862
 9215TIP3   OH249135   5.259   3.114   2.128
 9215TIP3    H149136   5.317   3.078   2.196
 9215TIP3    H249137   5.307   3.102   2.046
 9216TIP3   OH249138   5.991   2.493   1.483
 9216TIP3    H149139   6.085   2.493   1.497
 9216TIP3    H249140   5.967   2.401   1.481
 9217TIP3   OH249141   1.003   3.849   4.946
 9217TIP3    H149142   1.056   3.885   5.017
 9217TIP3    H249143   1.064   3.838   4.874
 9218TIP3   OH249144   1.619   0.819   4.185
 9218TIP3    H149145   1.627   0.837   4.279
 9218TIP3    H249146   1.559   0.745   4.179
 9219TIP3   OH249147   0.065   5.868  10.867
 9219TIP3    H149148   0.063   5.773  10.871
 9219TIP3    H249149   0.150   5.889  10.827
 9220TIP3   OH249150   2.603   3.688   0.845
 9220TIP3    H149151   2.574   3.766   0.798
 9220TIP3    H249152   2.633   3.628   0.777
 9221TIP3   OH249153   0.632   3.492  13.420
 9221TIP3    H149154   0.721   3.494  13.383
 9221TIP3    H249155   0.600   3.582  13.411
 9222TIP3   OH249156   6.619   1.635  15.912
 9222TIP3    H149157   6.605   1.540  15.916
 9222TIP3    H249158   6.624   1.654  15.818
 9223TIP3   OH249159   0.457   1.516  13.689
 9223TIP3    H149160   0.428   1.537  13.600
 9223TIP3    H249161   0.385   1.545  13.745
 9224TIP3   OH249162   5.138   4.155  15.575
 9224TIP3    H149163   5.217   4.141  15.627
 9224TIP3    H249164   5.163   4.222  15.511
 9225TIP3   OH249165   5.635   4.614   4.096
 9225TIP3    H149166   5.606   4.531   4.059
 9225TIP3    H249167   5.691   4.589   4.170
 9226TIP3   OH249168   1.468   3.388  15.327
 9226TIP3    H149169   1.398   3.444  15.363
 9226TIP3    H249170   1.522   3.365  15.403
 9227TIP3   OH249171   5.801   2.789  15.069
 9227TIP3    H149172   5.788   2.709  15.120
 9227TIP3    H249173   5.739   2.852  15.105
 9228TIP3   OH249174   1.089   0.881   1.066
 9228TIP3    H149175   1.065   0.855   1.155
 9228TIP3    H249176   1.009   0.867   1.014
 9229TIP3   OH249177   2.437   0.279   3.516
 9229TIP3    H149178   2.371   0.219   3.551
 9229TIP3    H249179   2.485   0.227   3.451
 9230TIP3   OH249180   1.864   5.865  16.843
 9230TIP3    H149181   1.784   5.894  16.886
 9230TIP3    H249182   1.835   5.794  16.785
 9231TIP3   OH249183   0.121   1.066   0.442
 9231TIP3    H149184   0.073   0.995   0.401
 9231TIP3    H249185   0.214   1.044   0.429
 9232TIP3   OH249186   0.739   5.923  13.543
 9232TIP3    H149187   0.692   5.997  13.582
 9232TIP3    H249188   0.742   5.857  13.612
 9233TIP3   OH249189   2.315   1.022   1.937
 9233TIP3    H149190   2.402   1.060   1.951
 9233TIP3    H249191   2.277   1.075   1.867
 9234TIP3   OH249192   6.700   1.199   3.013
 9234TIP3    H149193   6.716   1.148   2.933
 9234TIP3    H249194   6.766   1.268   3.010
 9235TIP3   OH249195   0.183   4.423  14.414
 9235TIP3    H149196   0.172   4.405  14.321
 9235TIP3    H249197   0.235   4.350  14.447
 9236TIP3   OH249198   6.629   1.375  13.745
 9236TIP3    H149199   6.553   1.319  13.761
 9236TIP3    H249200   6.683   1.326  13.683
 9237TIP3   OH249201   1.388   2.380  11.675
 9237TIP3    H149202   1.326   2.444  11.710
 9237TIP3    H249203   1.336   2.302  11.660
 9238TIP3   OH249204   6.354   5.961   1.505
 9238TIP3    H149205   6.394   5.880   1.536
 9238TIP3    H249206   6.314   5.937   1.421
 9239TIP3   OH249207   3.202   2.830   2.771
 9239TIP3    H149208   3.217   2.741   2.739
 9239TIP3    H249209   3.253   2.835   2.852
 9240TIP3   OH249210   0.676   1.807  15.117
 9240TIP3    H149211   0.591   1.813  15.159
 9240TIP3    H249212   0.669   1.863  15.040
 9241TIP3   OH249213   2.001   6.302  11.464
 9241TIP3    H149214   1.939   6.373  11.450
 9241TIP3    H249215   1.963   6.250  11.536
 9242TIP3   OH249216   0.409   6.638   3.378
 9242TIP3    H149217   0.480   6.695   3.348
 9242TIP3    H249218   0.357   6.693   3.436
 9243TIP3   OH249219   2.578   3.891  14.731
 9243TIP3    H149220   2.618   3.970  14.769
 9243TIP3    H249221   2.484   3.909  14.734
 9244TIP3   OH249222   3.492   4.794  15.484
 9244TIP3    H149223   3.413   4.747  15.510
 9244TIP3    H249224   3.462   4.861  15.422
 9245TIP3   OH249225   3.883   2.735  16.682
 9245TIP3    H149226   3.941   2.660  16.697
 9245TIP3    H249227   3.862   2.731  16.589
 9246TIP3   OH249228   0.765   6.247   2.582
 9246TIP3    H149229   0.697   6.180   2.590
 9246TIP3    H249230   0.846   6.202   2.603
 9247TIP3   OH249231   6.510   6.156  13.124
 9247TIP3    H149232   6.437   6.189  13.071
 9247TIP3    H249233   6.588   6.193  13.082
 9248TIP3   OH249234   2.258   6.243   0.340
 9248TIP3    H149235   2.167   6.271   0.346
 9248TIP3    H249236   2.306   6.322   0.314
 9249TIP3   OH249237   2.097   5.051   1.381
 9249TIP3    H149238   2.173   5.088   1.425
 9249TIP3    H249239   2.129   4.970   1.341
 9250TIP3   OH249240   3.791   3.801  14.428
 9250TIP3    H149241   3.713   3.803  14.484
 9250TIP3    H249242   3.772   3.731  14.365
 9251TIP3   OH249243   5.785   3.572   6.078
 9251TIP3    H149244   5.843   3.521   6.134
 9251TIP3    H249245   5.822   3.660   6.078
 9252TIP3   OH249246   1.800   4.274   4.694
 9252TIP3    H149247   1.735   4.336   4.661
 9252TIP3    H249248   1.750   4.196   4.718
 9253TIP3   OH249249   4.198   1.806  11.532
 9253TIP3    H149250   4.257   1.858  11.476
 9253TIP3    H249251   4.133   1.869  11.563
 9254TIP3   OH249252   6.585   4.811  12.216
 9254TIP3    H149253   6.636   4.798  12.137
 9254TIP3    H249254   6.524   4.882  12.195
 9255TIP3   OH249255   1.462   2.834  17.184
 9255TIP3    H149256   1.493   2.802  17.269
 9255TIP3    H249257   1.374   2.797  17.175
 9256TIP3   OH249258   1.999   4.417  17.075
 9256TIP3    H149259   2.054   4.348  17.037
 9256TIP3    H249260   1.922   4.421  17.018
 9257TIP3   OH249261   2.668   5.241  11.372
 9257TIP3    H149262   2.702   5.231  11.283
 9257TIP3    H249263   2.735   5.201  11.428
 9258TIP3   OH249264   0.700   3.003   6.696
 9258TIP3    H149265   0.679   2.972   6.608
 9258TIP3    H249266   0.666   3.093   6.699
 9259TIP3   OH249267   1.833   4.688  10.327
 9259TIP3    H149268   1.906   4.750  10.333
 9259TIP3    H249269   1.870   4.604  10.354
 9260TIP3   OH249270   2.561   4.047  11.829
 9260TIP3    H149271   2.565   4.140  11.854
 9260TIP3    H249272   2.496   4.010  11.887
 9261TIP3   OH249273   2.428   6.525   4.379
 9261TIP3    H149274   2.342   6.498   4.347
 9261TIP3    H249275   2.411   6.559   4.467
 9262TIP3   OH249276   4.945   4.832   4.723
 9262TIP3    H149277   5.022   4.855   4.776
 9262TIP3    H249278   4.981   4.795   4.643
 9263TIP3   OH249279   3.331   0.008  15.456
 9263TIP3    H149280   3.289   0.043  15.378
 9263TIP3    H249281   3.423   0.030  15.446
 9264TIP3   OH249282   3.088   2.392   6.767
 9264TIP3    H149283   3.139   2.326   6.720
 9264TIP3    H249284   2.997   2.364   6.757
 9265TIP3   OH249285   6.569   2.064   0.947
 9265TIP3    H149286   6.538   2.000   1.012
 9265TIP3    H249287   6.498   2.128   0.941
 9266TIP3   OH249288   0.504   4.719   2.128
 9266TIP3    H149289   0.430   4.687   2.077
 9266TIP3    H249290   0.481   4.699   2.219
 9267TIP3   OH249291   5.955   3.414   1.499
 9267TIP3    H149292   5.862   3.393   1.488
 9267TIP3    H249293   5.976   3.386   1.588
 9268TIP3   OH249294   6.140   3.370  13.532
 9268TIP3    H149295   6.123   3.343  13.622
 9268TIP3    H249296   6.210   3.312  13.502
 9269TIP3   OH249297   1.762   4.421  13.497
 9269TIP3    H149298   1.698   4.436  13.566
 9269TIP3    H249299   1.815   4.501  13.495
 9270TIP3   OH249300   5.676   4.989   0.269
 9270TIP3    H149301   5.580   4.984   0.270
 9270TIP3    H249302   5.705   4.904   0.302
 9271TIP3   OH249303   5.185   2.711   0.170
 9271TIP3    H149304   5.159   2.739   0.082
 9271TIP3    H249305   5.127   2.760   0.228
 9272TIP3   OH249306   2.242   6.609  12.189
 9272TIP3    H149307   2.249   6.601  12.284
 9272TIP3    H249308   2.172   6.672  12.175
 9273TIP3   OH249309   6.683   2.954  17.160
 9273TIP3    H149310   6.778   2.945  17.162
 9273TIP3    H249311   6.650   2.875  17.203
 9274TIP3   OH249312   0.667   4.865  15.027
 9274TIP3    H149313   0.746   4.812  15.035
 9274TIP3    H249314   0.609   4.835  15.097
 9275TIP3   OH249315   0.391   5.094  14.644
 9275TIP3    H149316   0.394   5.025  14.710
 9275TIP3    H249317   0.302   5.089  14.607
 9276TIP3   OH249318   2.462   2.524   4.800
 9276TIP3    H149319   2.485   2.501   4.891
 9276TIP3    H249320   2.366   2.526   4.800
 9277TIP3   OH249321   3.226   4.823   4.594
 9277TIP3    H149322   3.211   4.893   4.532
 9277TIP3    H249323   3.271   4.755   4.544
 9278TIP3   OH249324   0.569   1.649  14.763
 9278TIP3    H149325   0.640   1.662  14.701
 9278TIP3    H249326   0.594   1.702  14.839
 9279TIP3   OH249327   3.987   2.976   5.862
 9279TIP3    H149328   3.958   3.065   5.846
 9279TIP3    H249329   4.024   2.947   5.779
 9280TIP3   OH249330   4.691   3.457  16.225
 9280TIP3    H149331   4.662   3.530  16.171
 9280TIP3    H249332   4.658   3.379  16.180
 9281TIP3   OH249333   0.681   3.059  16.443
 9281TIP3    H149334   0.747   3.028  16.505
 9281TIP3    H249335   0.602   3.010  16.465
 9282TIP3   OH249336   3.930   1.451   3.311
 9282TIP3    H149337   3.923   1.377   3.250
 9282TIP3    H249338   3.875   1.519   3.272
 9283TIP3   OH249339   4.711   5.763  14.979
 9283TIP3    H149340   4.701   5.851  14.942
 9283TIP3    H249341   4.747   5.711  14.908
 9284TIP3   OH249342   0.112   0.106  10.276
 9284TIP3    H149343   0.108   0.011  10.278
 9284TIP3    H249344   0.173   0.130  10.345
 9285TIP3   OH249345   2.460   0.108   3.300
 9285TIP3    H149346   2.503   0.051   3.236
 9285TIP3    H249347   2.367   0.086   3.293
 9286TIP3   OH249348   5.159   4.695  12.089
 9286TIP3    H149349   5.098   4.690  12.163
 9286TIP3    H249350   5.244   4.676  12.127
 9287TIP3   OH249351   0.787   2.816   0.793
 9287TIP3    H149352   0.712   2.817   0.734
 9287TIP3    H249353   0.857   2.859   0.743
 9288TIP3   OH249354   2.933   4.482  13.358
 9288TIP3    H149355   2.969   4.566  13.331
 9288TIP3    H249356   2.995   4.417  13.325
 9289TIP3   OH249357   6.295   3.829  15.259
 9289TIP3    H149358   6.315   3.790  15.174
 9289TIP3    H249359   6.204   3.858  15.251
 9290TIP3   OH249360   0.689   1.083  13.057
 9290TIP3    H149361   0.611   1.034  13.029
 9290TIP3    H249362   0.679   1.093  13.151
 9291TIP3   OH249363   5.699   0.136  11.444
 9291TIP3    H149364   5.619   0.109  11.400
 9291TIP3    H249365   5.681   0.223  11.478
 9292TIP3   OH249366   3.449   4.699   3.960
 9292TIP3    H149367   3.373   4.735   4.005
 9292TIP3    H249368   3.411   4.637   3.897
 9293TIP3   OH249369   3.751   3.242   2.499
 9293TIP3    H149370   3.737   3.253   2.593
 9293TIP3    H249371   3.839   3.277   2.484
 9294TIP3   OH249372   4.467   3.272   3.050
 9294TIP3    H149373   4.543   3.217   3.068
 9294TIP3    H249374   4.420   3.227   2.980
 9295TIP3   OH249375   2.161   3.924   3.794
 9295TIP3    H149376   2.120   3.992   3.848
 9295TIP3    H249377   2.244   3.907   3.837
 9296TIP3   OH249378   5.100   0.147   1.110
 9296TIP3    H149379   5.081   0.070   1.163
 9296TIP3    H249380   5.102   0.114   1.020
 9297TIP3   OH249381   3.335   6.210  16.241
 9297TIP3    H149382   3.351   6.233  16.333
 9297TIP3    H249383   3.285   6.129  16.244
 9298TIP3   OH249384   4.202   0.187   4.198
 9298TIP3    H149385   4.262   0.243   4.150
 9298TIP3    H249386   4.130   0.171   4.137
 9299TIP3   OH249387   1.237   4.763  15.906
 9299TIP3    H149388   1.243   4.685  15.852
 9299TIP3    H249389   1.211   4.833  15.845
 9300TIP3   OH249390   4.877   1.587  15.881
 9300TIP3    H149391   4.813   1.516  15.874
 9300TIP3    H249392   4.828   1.666  15.860
 9301TIP3   OH249393   5.097   6.794   1.730
 9301TIP3    H149394   5.154   6.742   1.673
 9301TIP3    H249395   5.128   6.884   1.718
 9302TIP3   OH249396   2.129   2.493  11.928
 9302TIP3    H149397   2.088   2.575  11.956
 9302TIP3    H249398   2.109   2.487  11.835
 9303TIP3   OH249399   2.299   3.415   3.665
 9303TIP3    H149400   2.332   3.464   3.589
 9303TIP3    H249401   2.377   3.389   3.712
 9304TIP3   OH249402   5.567   6.452  13.373
 9304TIP3    H149403   5.486   6.410  13.403
 9304TIP3    H249404   5.580   6.417  13.285
 9305TIP3   OH249405   5.493   6.641  15.999
 9305TIP3    H149406   5.472   6.567  16.057
 9305TIP3    H249407   5.582   6.666  16.023
 9306TIP3   OH249408   6.262   4.590  15.508
 9306TIP3    H149409   6.176   4.633  15.501
 9306TIP3    H249410   6.256   4.537  15.587
 9307TIP3   OH249411   4.016   2.020   6.166
 9307TIP3    H149412   3.956   2.030   6.091
 9307TIP3    H249413   4.034   1.926   6.170
 9308TIP3   OH249414   3.027   0.382   2.811
 9308TIP3    H149415   2.989   0.371   2.899
 9308TIP3    H249416   2.973   0.450   2.771
 9309TIP3   OH249417   2.060   6.448   6.765
 9309TIP3    H149418   2.025   6.536   6.780
 9309TIP3    H249419   1.993   6.404   6.713
 9310TIP3   OH249420   3.302   0.324   1.683
 9310TIP3    H149421   3.300   0.257   1.751
 9310TIP3    H249422   3.369   0.386   1.712
 9311TIP3   OH249423   1.468   5.116   3.967
 9311TIP3    H149424   1.491   5.023   3.963
 9311TIP3    H249425   1.393   5.119   4.025
 9312TIP3   OH249426   0.431   4.089   2.229
 9312TIP3    H149427   0.343   4.107   2.195
 9312TIP3    H249428   0.424   4.001   2.268
 9313TIP3   OH249429   1.099   2.519  14.316
 9313TIP3    H149430   1.018   2.534  14.365
 9313TIP3    H249431   1.160   2.583  14.352
 9314TIP3   OH249432   0.789   0.991  12.459
 9314TIP3    H149433   0.819   0.945  12.538
 9314TIP3    H249434   0.700   1.020  12.482
 9315TIP3   OH249435   2.417   5.514  11.029
 9315TIP3    H149436   2.506   5.513  10.994
 9315TIP3    H249437   2.429   5.514  11.124
 9316TIP3   OH249438   4.997   0.710   0.187
 9316TIP3    H149439   5.055   0.786   0.186
 9316TIP3    H249440   4.985   0.687   0.095
 9317TIP3   OH249441   2.622   2.750  15.887
 9317TIP3    H149442   2.617   2.818  15.955
 9317TIP3    H249443   2.531   2.734  15.862
 9318TIP3   OH249444   2.494   5.935   5.940
 9318TIP3    H149445   2.403   5.922   5.914
 9318TIP3    H249446   2.529   5.995   5.874
 9319TIP3   OH249447   3.365   1.360   3.074
 9319TIP3    H149448   3.330   1.272   3.088
 9319TIP3    H249449   3.381   1.393   3.162
 9320TIP3   OH249450   3.662   4.639   3.289
 9320TIP3    H149451   3.699   4.613   3.205
 9320TIP3    H249452   3.639   4.557   3.332
 9321TIP3   OH249453   3.214   5.572   5.214
 9321TIP3    H149454   3.279   5.636   5.184
 9321TIP3    H249455   3.181   5.531   5.134
 9322TIP3   OH249456   1.215   1.012   4.756
 9322TIP3    H149457   1.171   1.067   4.821
 9322TIP3    H249458   1.159   1.016   4.679
 9323TIP3   OH249459   5.493   2.871  13.252
 9323TIP3    H149460   5.445   2.793  13.224
 9323TIP3    H249461   5.556   2.838  13.316
 9324TIP3   OH249462   1.909   3.538   5.715
 9324TIP3    H149463   1.864   3.622   5.720
 9324TIP3    H249464   1.845   3.479   5.674
 9325TIP3   OH249465   1.186   5.727  16.031
 9325TIP3    H149466   1.171   5.708  16.124
 9325TIP3    H249467   1.274   5.765  16.029
 9326TIP3   OH249468   1.011   3.671  10.739
 9326TIP3    H149469   1.054   3.756  10.744
 9326TIP3    H249470   1.053   3.627  10.665
 9327TIP3   OH249471   1.845   0.962  12.503
 9327TIP3    H149472   1.774   1.013  12.463
 9327TIP3    H249473   1.905   0.944  12.431
 9328TIP3   OH249474   4.751   2.583   3.768
 9328TIP3    H149475   4.836   2.602   3.808
 9328TIP3    H249476   4.710   2.519   3.826
 9329TIP3   OH249477   5.121   2.273  11.965
 9329TIP3    H149478   5.083   2.323  11.893
 9329TIP3    H249479   5.199   2.323  11.990
 9330TIP3   OH249480   4.722   5.997   5.617
 9330TIP3    H149481   4.653   6.041   5.667
 9330TIP3    H249482   4.727   5.910   5.657
 9331TIP3   OH249483   0.143   2.932   4.605
 9331TIP3    H149484   0.069   2.967   4.653
 9331TIP3    H249485   0.155   2.992   4.531
 9332TIP3   OH249486   4.995   1.379   1.904
 9332TIP3    H149487   4.978   1.429   1.984
 9332TIP3    H249488   4.916   1.393   1.850
 9333TIP3   OH249489   1.255   2.662  16.330
 9333TIP3    H149490   1.342   2.665  16.370
 9333TIP3    H249491   1.269   2.687  16.239
 9334TIP3   OH249492   0.032   2.069   2.210
 9334TIP3    H149493   0.076   2.153   2.199
 9334TIP3    H249494   0.074   2.012   2.145
 9335TIP3   OH249495   0.043   5.324   3.290
 9335TIP3    H149496   0.133   5.301   3.265
 9335TIP3    H249497   0.048   5.416   3.315
 9336TIP3   OH249498   0.917   3.416  14.380
 9336TIP3    H149499   0.856   3.472  14.428
 9336TIP3    H249500   0.953   3.473  14.312
 9337TIP3   OH249501   0.099   2.654   1.952
 9337TIP3    H149502   0.138   2.576   1.912
 9337TIP3    H249503   0.114   2.724   1.888
 9338TIP3   OH249504   2.489   5.574   4.890
 9338TIP3    H149505   2.417   5.529   4.934
 9338TIP3    H249506   2.528   5.507   4.834
 9339TIP3   OH249507   4.075   3.140   1.357
 9339TIP3    H149508   4.158   3.103   1.326
 9339TIP3    H249509   4.048   3.082   1.428
 9340TIP3   OH249510   6.004   2.485   3.625
 9340TIP3    H149511   6.011   2.542   3.702
 9340TIP3    H249512   5.987   2.398   3.661
 9341TIP3   OH249513   3.671   1.369  15.084
 9341TIP3    H149514   3.701   1.412  15.004
 9341TIP3    H249515   3.638   1.440  15.139
 9342TIP3   OH249516   0.659   5.952  12.705
 9342TIP3    H149517   0.581   6.007  12.695
 9342TIP3    H249518   0.625   5.866  12.728
 9343TIP3   OH249519   4.163   0.018  16.364
 9343TIP3    H149520   4.210   0.058  16.290
 9343TIP3    H249521   4.209  -0.064  16.381
 9344TIP3   OH249522   4.617   2.640  15.286
 9344TIP3    H149523   4.611   2.711  15.222
 9344TIP3    H249524   4.548   2.658  15.350
 9345TIP3   OH249525   2.328   1.905   5.979
 9345TIP3    H149526   2.329   1.961   5.902
 9345TIP3    H249527   2.419   1.901   6.008
 9346TIP3   OH249528   3.202   4.127   5.293
 9346TIP3    H149529   3.204   4.192   5.364
 9346TIP3    H249530   3.216   4.043   5.338
 9347TIP3   OH249531   6.292   4.137   4.932
 9347TIP3    H149532   6.359   4.134   4.864
 9347TIP3    H249533   6.298   4.053   4.977
 9348TIP3   OH249534   2.265   5.433  12.514
 9348TIP3    H149535   2.302   5.446  12.426
 9348TIP3    H249536   2.342   5.430  12.571
 9349TIP3   OH249537   0.856   2.626  11.183
 9349TIP3    H149538   0.916   2.695  11.211
 9349TIP3    H249539   0.773   2.671  11.167
 9350TIP3   OH249540   1.483   1.441   5.791
 9350TIP3    H149541   1.446   1.521   5.828
 9350TIP3    H249542   1.527   1.470   5.711
 9351TIP3   OH249543   5.331   2.111  14.753
 9351TIP3    H149544   5.306   2.204  14.750
 9351TIP3    H249545   5.388   2.104  14.829
 9352TIP3   OH249546   0.307   6.336  15.690
 9352TIP3    H149547   0.260   6.342  15.773
 9352TIP3    H249548   0.254   6.279  15.636
 9353TIP3   OH249549   4.072   1.030   4.107
 9353TIP3    H149550   4.007   1.095   4.136
 9353TIP3    H249551   4.022   0.966   4.057
 9354TIP3   OH249552   6.702   1.642   2.214
 9354TIP3    H149553   6.761   1.674   2.283
 9354TIP3    H249554   6.733   1.553   2.196
 9355TIP3   OH249555   6.166   3.215  14.502
 9355TIP3    H149556   6.118   3.298  14.508
 9355TIP3    H249557   6.257   3.240  14.520
 9356TIP3   OH249558   1.049   1.400   2.312
 9356TIP3    H149559   1.087   1.352   2.239
 9356TIP3    H249560   0.983   1.341   2.348
 9357TIP3   OH249561   4.674   1.762   3.210
 9357TIP3    H149562   4.682   1.668   3.224
 9357TIP3    H249563   4.755   1.788   3.167
 9358TIP3   OH249564   4.789   0.478  17.273
 9358TIP3    H149565   4.858   0.425  17.314
 9358TIP3    H249566   4.829   0.510  17.192
 9359TIP3   OH249567   4.012   6.205   3.571
 9359TIP3    H149568   3.994   6.279   3.514
 9359TIP3    H249569   4.096   6.226   3.613
 9360TIP3   OH249570   4.162   1.986   5.158
 9360TIP3    H149571   4.249   2.009   5.190
 9360TIP3    H249572   4.156   2.027   5.072
 9361TIP3   OH249573   1.354   4.127   3.180
 9361TIP3    H149574   1.423   4.062   3.195
 9361TIP3    H249575   1.368   4.193   3.248
 9362TIP3   OH249576   5.540   4.273  15.939
 9362TIP3    H149577   5.539   4.366  15.914
 9362TIP3    H249578   5.626   4.242  15.911
 9363TIP3   OH249579   4.634   5.678   0.515
 9363TIP3    H149580   4.550   5.688   0.470
 9363TIP3    H249581   4.627   5.737   0.591
 9364TIP3   OH249582   4.881   5.007  11.886
 9364TIP3    H149583   4.808   4.956  11.921
 9364TIP3    H249584   4.897   4.968  11.800
 9365TIP3   OH249585   6.683   4.364   0.146
 9365TIP3    H149586   6.713   4.446   0.185
 9365TIP3    H249587   6.715   4.367   0.055
 9366TIP3   OH249588   2.632   2.062   0.084
 9366TIP3    H149589   2.641   2.050  -0.010
 9366TIP3    H249590   2.677   2.145   0.102
 9367TIP3   OH249591   4.020   2.918  12.617
 9367TIP3    H149592   3.983   2.872  12.542
 9367TIP3    H249593   4.013   3.011  12.594
 9368TIP3   OH249594   5.476   2.709  11.259
 9368TIP3    H149595   5.499   2.669  11.175
 9368TIP3    H249596   5.394   2.756  11.241
 9369TIP3   OH249597   6.767   2.644   1.696
 9369TIP3    H149598   6.725   2.651   1.610
 9369TIP3    H249599   6.854   2.682   1.683
 9370TIP3   OH249600   1.628   6.433  13.335
 9370TIP3    H149601   1.601   6.431  13.427
 9370TIP3    H249602   1.723   6.421  13.337
 9371TIP3   OH249603   0.335   5.084  11.232
 9371TIP3    H149604   0.376   5.135  11.162
 9371TIP3    H249605   0.331   4.995  11.196
 9372TIP3   OH249606   5.074   4.912  12.420
 9372TIP3    H149607   5.039   4.906  12.509
 9372TIP3    H249608   5.167   4.890  12.429
 9373TIP3   OH249609   6.631   1.749   5.142
 9373TIP3    H149610   6.641   1.673   5.199
 9373TIP3    H249611   6.673   1.723   5.060
 9374TIP3   OH249612   0.282   3.923   3.073
 9374TIP3    H149613   0.349   3.883   3.019
 9374TIP3    H249614   0.216   3.854   3.085
 9375TIP3   OH249615   1.955   4.345  16.591
 9375TIP3    H149616   1.862   4.364  16.605
 9375TIP3    H249617   1.965   4.341  16.496
 9376TIP3   OH249618   2.898   3.937  13.832
 9376TIP3    H149619   2.899   4.003  13.764
 9376TIP3    H249620   2.989   3.905  13.836
 9377TIP3   OH249621   5.192   1.190  14.711
 9377TIP3    H149622   5.098   1.208  14.707
 9377TIP3    H249623   5.199   1.099  14.739
 9378TIP3   OH249624   4.660   6.761   6.558
 9378TIP3    H149625   4.598   6.794   6.492
 9378TIP3    H249626   4.640   6.668   6.565
 9379TIP3   OH249627   6.451   4.423   5.205
 9379TIP3    H149628   6.410   4.430   5.291
 9379TIP3    H249629   6.543   4.443   5.220
 9380TIP3   OH249630   5.769   0.161  12.203
 9380TIP3    H149631   5.833   0.154  12.132
 9380TIP3    H249632   5.718   0.080  12.197
 9381TIP3   OH249633   5.810   1.388   4.238
 9381TIP3    H149634   5.806   1.480   4.264
 9381TIP3    H249635   5.865   1.387   4.159
 9382TIP3   OH249636   3.133   1.919   0.198
 9382TIP3    H149637   3.171   1.997   0.237
 9382TIP3    H249638   3.040   1.922   0.222
 9383TIP3   OH249639   0.732   6.177   0.741
 9383TIP3    H149640   0.647   6.133   0.740
 9383TIP3    H249641   0.711   6.270   0.733
 9384TIP3   OH249642   1.673   3.591   0.894
 9384TIP3    H149643   1.758   3.591   0.938
 9384TIP3    H249644   1.664   3.503   0.857
 9385TIP3   OH249645   0.505   4.416  13.242
 9385TIP3    H149646   0.580   4.470  13.218
 9385TIP3    H249647   0.441   4.478  13.276
 9386TIP3   OH249648   0.095   5.015  16.305
 9386TIP3    H149649   0.066   5.074  16.236
 9386TIP3    H249650   0.029   5.024  16.374
 9387TIP3   OH249651   6.606   1.953   0.665
 9387TIP3    H149652   6.523   1.981   0.626
 9387TIP3    H249653   6.597   1.973   0.758
 9388TIP3   OH249654   5.241   0.140   4.642
 9388TIP3    H149655   5.316   0.115   4.588
 9388TIP3    H249656   5.277   0.151   4.730
 9389TIP3   OH249657   1.217   4.288   6.637
 9389TIP3    H149658   1.195   4.280   6.730
 9389TIP3    H249659   1.304   4.248   6.629
 9390TIP3   OH249660   2.407   6.740  12.541
 9390TIP3    H149661   2.326   6.701  12.507
 9390TIP3    H249662   2.432   6.805  12.475
 9391TIP3   OH249663   3.251   4.303   1.043
 9391TIP3    H149664   3.327   4.346   1.084
 9391TIP3    H249665   3.236   4.225   1.096
 9392TIP3   OH249666   4.807   3.038  11.521
 9392TIP3    H149667   4.750   2.963  11.540
 9392TIP3    H249668   4.846   3.061  11.605
 9393TIP3   OH249669   4.778   3.112  16.759
 9393TIP3    H149670   4.847   3.172  16.788
 9393TIP3    H249671   4.813   3.025  16.775
 9394TIP3   OH249672   4.091   6.397  10.410
 9394TIP3    H149673   4.041   6.385  10.491
 9394TIP3    H249674   4.155   6.326  10.409
 9395TIP3   OH249675   5.179   1.654  11.341
 9395TIP3    H149676   5.187   1.613  11.255
 9395TIP3    H249677   5.223   1.593  11.401
 9396TIP3   OH249678   5.913   4.019   2.387
 9396TIP3    H149679   6.001   4.032   2.421
 9396TIP3    H249680   5.919   3.942   2.331
 9397TIP3   OH249681   0.345   1.048   3.460
 9397TIP3    H149682   0.372   1.083   3.375
 9397TIP3    H249683   0.425   1.009   3.496
 9398TIP3   OH249684   6.360   1.056   5.424
 9398TIP3    H149685   6.290   0.992   5.416
 9398TIP3    H249686   6.325   1.125   5.480
 9399TIP3   OH249687   5.508   4.863  17.077
 9399TIP3    H149688   5.484   4.819  16.996
 9399TIP3    H249689   5.467   4.949  17.071
 9400TIP3   OH249690   1.398   6.502  15.543
 9400TIP3    H149691   1.432   6.578  15.591
 9400TIP3    H249692   1.437   6.509  15.456
 9401TIP3   OH249693   1.626   5.089  12.528
 9401TIP3    H149694   1.717   5.092  12.498
 9401TIP3    H249695   1.604   4.996  12.531
 9402TIP3   OH249696   2.125   3.983  13.241
 9402TIP3    H149697   2.188   3.966  13.170
 9402TIP3    H249698   2.044   4.007  13.196
 9403TIP3   OH249699   2.914   5.114   1.397
 9403TIP3    H149700   2.909   5.052   1.469
 9403TIP3    H249701   3.007   5.133   1.387
 9404TIP3   OH249702   0.054   5.997  14.298
 9404TIP3    H149703   0.124   6.051  14.333
 9404TIP3    H249704   0.052   6.017  14.205
 9405TIP3   OH249705   4.332   0.327  16.525
 9405TIP3    H149706   4.400   0.260  16.518
 9405TIP3    H249707   4.347   0.385  16.450
 9406TIP3   OH249708   6.748   0.659  11.134
 9406TIP3    H149709   6.794   0.683  11.053
 9406TIP3    H249710   6.684   0.729  11.146
 9407TIP3   OH249711   3.471   3.617  12.455
 9407TIP3    H149712   3.428   3.687  12.406
 9407TIP3    H249713   3.401   3.575  12.505
 9408TIP3   OH249714   1.411   1.445  15.539
 9408TIP3    H149715   1.350   1.371  15.531
 9408TIP3    H249716   1.357   1.517  15.572
 9409TIP3   OH249717   2.193   2.649  13.808
 9409TIP3    H149718   2.175   2.704  13.732
 9409TIP3    H249719   2.237   2.708  13.870
 9410TIP3   OH249720   3.877   0.613  14.072
 9410TIP3    H149721   3.901   0.580  13.985
 9410TIP3    H249722   3.785   0.638  14.063
 9411TIP3   OH249723   5.169   0.326  14.500
 9411TIP3    H149724   5.252   0.348  14.542
 9411TIP3    H249725   5.167   0.230  14.499
 9412TIP3   OH249726   5.310   3.572   0.751
 9412TIP3    H149727   5.241   3.505   0.757
 9412TIP3    H249728   5.391   3.525   0.767
 9413TIP3   OH249729   3.349   4.387  15.830
 9413TIP3    H149730   3.310   4.466  15.792
 9413TIP3    H249731   3.276   4.343  15.874
 9414TIP3   OH249732   2.429   4.910   0.685
 9414TIP3    H149733   2.427   4.956   0.601
 9414TIP3    H249734   2.351   4.855   0.684
 9415TIP3   OH249735   4.505   4.180   0.388
 9415TIP3    H149736   4.459   4.208   0.309
 9415TIP3    H249737   4.589   4.148   0.356
 9416TIP3   OH249738   3.518   1.846  11.255
 9416TIP3    H149739   3.521   1.871  11.163
 9416TIP3    H249740   3.426   1.825  11.271
 9417TIP3   OH249741   0.672   0.140  12.905
 9417TIP3    H149742   0.690   0.101  12.819
 9417TIP3    H249743   0.593   0.191  12.892
 9418TIP3   OH249744   6.528   5.612   4.710
 9418TIP3    H149745   6.472   5.584   4.782
 9418TIP3    H249746   6.572   5.691   4.742
 9419TIP3   OH249747   5.466   4.183  15.471
 9419TIP3    H149748   5.535   4.121  15.446
 9419TIP3    H249749   5.416   4.196  15.390
 9420TIP3   OH249750   6.053   4.786  13.285
 9420TIP3    H149751   6.144   4.756  13.278
 9420TIP3    H249752   6.052   4.869  13.236
 9421TIP3   OH249753   4.246   1.614   0.154
 9421TIP3    H149754   4.210   1.577   0.234
 9421TIP3    H249755   4.314   1.553   0.127
 9422TIP3   OH249756   2.688   1.254  15.260
 9422TIP3    H149757   2.621   1.193  15.230
 9422TIP3    H249758   2.771   1.217  15.229
 9423TIP3   OH249759   0.651   0.394   6.005
 9423TIP3    H149760   0.582   0.338   5.969
 9423TIP3    H249761   0.648   0.378   6.099
 9424TIP3   OH249762   5.750   5.178  15.615
 9424TIP3    H149763   5.813   5.246  15.640
 9424TIP3    H249764   5.733   5.130  15.695
 9425TIP3   OH249765   2.335   6.298   3.557
 9425TIP3    H149766   2.267   6.265   3.498
 9425TIP3    H249767   2.312   6.262   3.643
 9426TIP3   OH249768   5.328   1.746  12.233
 9426TIP3    H149769   5.335   1.651  12.237
 9426TIP3    H249770   5.280   1.762  12.151
 9427TIP3   OH249771   1.254   3.507   0.062
 9427TIP3    H149772   1.216   3.422   0.039
 9427TIP3    H249773   1.219   3.567  -0.004
 9428TIP3   OH249774   0.789   3.739   6.568
 9428TIP3    H149775   0.837   3.716   6.489
 9428TIP3    H249776   0.852   3.791   6.620
 9429TIP3   OH249777   6.309   2.127   1.567
 9429TIP3    H149778   6.247   2.140   1.639
 9429TIP3    H249779   6.381   2.078   1.607
 9430TIP3   OH249780   5.857   6.454  11.153
 9430TIP3    H149781   5.838   6.444  11.060
 9430TIP3    H249782   5.937   6.403  11.166
 9431TIP3   OH249783   6.622   1.432  17.089
 9431TIP3    H149784   6.538   1.451  17.047
 9431TIP3    H249785   6.640   1.341  17.067
 9432TIP3   OH249786   6.070   5.135  17.222
 9432TIP3    H149787   5.986   5.090  17.219
 9432TIP3    H249788   6.120   5.088  17.288
 9433TIP3   OH249789   4.900   3.838   1.433
 9433TIP3    H149790   4.986   3.880   1.433
 9433TIP3    H249791   4.840   3.907   1.405
 9434TIP3   OH249792   4.432   2.560   3.327
 9434TIP3    H149793   4.344   2.542   3.358
 9434TIP3    H249794   4.486   2.562   3.407
 9435TIP3   OH249795   2.214   5.488  13.009
 9435TIP3    H149796   2.128   5.473  13.049
 9435TIP3    H249797   2.216   5.582  12.989
 9436TIP3   OH249798   5.902   5.546  12.606
 9436TIP3    H149799   5.986   5.592  12.601
 9436TIP3    H249800   5.863   5.577  12.688
 9437TIP3   OH249801   2.057   0.392  13.394
 9437TIP3    H149802   2.107   0.426  13.320
 9437TIP3    H249803   2.117   0.333  13.439
 9438TIP3   OH249804   2.743   0.646   4.055
 9438TIP3    H149805   2.674   0.593   4.014
 9438TIP3    H249806   2.696   0.719   4.095
 9439TIP3   OH249807   2.989   5.095  13.339
 9439TIP3    H149808   3.021   5.096  13.249
 9439TIP3    H249809   3.044   5.157  13.386
 9440TIP3   OH249810   1.243   2.316   1.896
 9440TIP3    H149811   1.306   2.348   1.832
 9440TIP3    H249812   1.158   2.336   1.857
 9441TIP3   OH249813   6.368   6.106   1.097
 9441TIP3    H149814   6.295   6.129   1.154
 9441TIP3    H249815   6.419   6.187   1.088
 9442TIP3   OH249816   2.232   5.922   5.889
 9442TIP3    H149817   2.161   5.906   5.952
 9442TIP3    H249818   2.187   5.930   5.805
 9443TIP3   OH249819   2.177   6.410   4.308
 9443TIP3    H149820   2.177   6.348   4.381
 9443TIP3    H249821   2.176   6.354   4.230
 9444TIP3   OH249822   0.381   4.666   6.659
 9444TIP3    H149823   0.448   4.685   6.726
 9444TIP3    H249824   0.386   4.740   6.598
 9445TIP3   OH249825   3.314   5.214  12.061
 9445TIP3    H149826   3.241   5.197  12.121
 9445TIP3    H249827   3.281   5.188  11.975
 9446TIP3   OH249828   5.680   5.407   4.114
 9446TIP3    H149829   5.709   5.316   4.104
 9446TIP3    H249830   5.751   5.450   4.161
 9447TIP3   OH249831   3.432   4.217   3.852
 9447TIP3    H149832   3.368   4.163   3.807
 9447TIP3    H249833   3.385   4.252   3.928
 9448TIP3   OH249834   0.114   5.632  11.939
 9448TIP3    H149835   0.080   5.720  11.954
 9448TIP3    H249836   0.169   5.614  12.016
 9449TIP3   OH249837   2.875   3.116  12.591
 9449TIP3    H149838   2.937   3.167  12.643
 9449TIP3    H249839   2.805   3.178  12.569
 9450TIP3   OH249840   1.988   4.249  16.874
 9450TIP3    H149841   2.017   4.162  16.902
 9450TIP3    H249842   2.000   4.249  16.779
 9451TIP3   OH249843   3.851   6.636   4.082
 9451TIP3    H149844   3.796   6.710   4.107
 9451TIP3    H249845   3.877   6.596   4.165
 9452TIP3   OH249846   1.489   1.039   2.725
 9452TIP3    H149847   1.541   1.115   2.701
 9452TIP3    H249848   1.401   1.059   2.694
 9453TIP3   OH249849   1.471   6.226  12.153
 9453TIP3    H149850   1.499   6.137  12.131
 9453TIP3    H249851   1.412   6.251  12.081
 9454TIP3   OH249852   5.004   2.562   4.469
 9454TIP3    H149853   4.958   2.583   4.387
 9454TIP3    H249854   4.985   2.635   4.527
 9455TIP3   OH249855   1.727   3.749   2.497
 9455TIP3    H149856   1.740   3.678   2.433
 9455TIP3    H249857   1.815   3.774   2.523
 9456TIP3   OH249858   2.952   0.067  12.459
 9456TIP3    H149859   2.951  -0.009  12.517
 9456TIP3    H249860   2.865   0.069  12.421
 9457TIP3   OH249861   3.613   2.471   3.598
 9457TIP3    H149862   3.578   2.557   3.573
 9457TIP3    H249863   3.618   2.474   3.694
 9458TIP3   OH249864   2.094   6.428  16.548
 9458TIP3    H149865   2.013   6.379  16.538
 9458TIP3    H249866   2.153   6.367  16.592
 9459TIP3   OH249867   1.097   4.626  11.832
 9459TIP3    H149868   1.136   4.559  11.776
 9459TIP3    H249869   1.123   4.601  11.921
 9460TIP3   OH249870   2.477   2.585  12.796
 9460TIP3    H149871   2.385   2.596  12.817
 9460TIP3    H249872   2.480   2.511  12.735
 9461TIP3   OH249873   5.266   5.073  12.537
 9461TIP3    H149874   5.171   5.082  12.546
 9461TIP3    H249875   5.295   5.035  12.620
 9462TIP3   OH249876   6.265   5.250  13.200
 9462TIP3    H149877   6.300   5.263  13.288
 9462TIP3    H249878   6.186   5.303  13.198
 9463TIP3   OH249879   4.719   3.388  16.828
 9463TIP3    H149880   4.730   3.432  16.743
 9463TIP3    H249881   4.780   3.433  16.886
 9464TIP3   OH249882   0.085   2.509   5.516
 9464TIP3    H149883   0.030   2.580   5.482
 9464TIP3    H249884   0.102   2.453   5.440
 9465TIP3   OH249885   4.372   3.587  11.602
 9465TIP3    H149886   4.391   3.609  11.511
 9465TIP3    H249887   4.394   3.667  11.651
 9466TIP3   OH249888   3.445   3.445   0.135
 9466TIP3    H149889   3.486   3.433   0.221
 9466TIP3    H249890   3.374   3.381   0.133
 9467TIP3   OH249891   6.665   1.007   1.409
 9467TIP3    H149892   6.682   0.913   1.421
 9467TIP3    H249893   6.576   1.011   1.375
 9468TIP3   OH249894   1.915   6.443  13.339
 9468TIP3    H149895   1.962   6.384  13.397
 9468TIP3    H249896   1.943   6.531  13.366
 9469TIP3   OH249897   0.893   1.495  14.437
 9469TIP3    H149898   0.890   1.558  14.364
 9469TIP3    H249899   0.972   1.444  14.420
 9470TIP3   OH249900   5.748   5.884  16.436
 9470TIP3    H149901   5.758   5.882  16.341
 9470TIP3    H249902   5.689   5.959  16.451
 9471TIP3   OH249903   5.768   3.613  17.088
 9471TIP3    H149904   5.816   3.535  17.060
 9471TIP3    H249905   5.763   3.667  17.009
 9472TIP3   OH249906   5.895   6.529  16.996
 9472TIP3    H149907   5.872   6.444  17.033
 9472TIP3    H249908   5.823   6.587  17.023
 9473TIP3   OH249909   1.932   2.284   3.345
 9473TIP3    H149910   2.013   2.333   3.352
 9473TIP3    H249911   1.957   2.202   3.303
 9474TIP3   OH249912   6.797   0.798   6.328
 9474TIP3    H149913   6.843   0.719   6.301
 9474TIP3    H249914   6.742   0.821   6.253
 9475TIP3   OH249915   5.909   1.820  12.405
 9475TIP3    H149916   5.985   1.803  12.350
 9475TIP3    H249917   5.836   1.829  12.344
 9476TIP3   OH249918   3.657   4.128   4.012
 9476TIP3    H149919   3.584   4.163   3.962
 9476TIP3    H249920   3.673   4.192   4.081
 9477TIP3   OH249921   3.353   0.076  11.807
 9477TIP3    H149922   3.325   0.033  11.726
 9477TIP3    H249923   3.366   0.004  11.869
 9478TIP3   OH249924   3.296   3.643  11.334
 9478TIP3    H149925   3.334   3.583  11.270
 9478TIP3    H249926   3.213   3.602  11.360
 9479TIP3   OH249927   4.782   0.232   4.465
 9479TIP3    H149928   4.872   0.256   4.490
 9479TIP3    H249929   4.731   0.311   4.485
 9480TIP3   OH249930   1.760   3.882  15.434
 9480TIP3    H149931   1.805   3.875  15.350
 9480TIP3    H249932   1.749   3.976  15.448
 9481TIP3   OH249933   2.462   2.425  15.852
 9481TIP3    H149934   2.458   2.404  15.945
 9481TIP3    H249935   2.407   2.502  15.842
 9482TIP3   OH249936   3.595   2.361   0.345
 9482TIP3    H149937   3.625   2.417   0.416
 9482TIP3    H249938   3.619   2.408   0.265
 9483TIP3   OH249939   0.428   4.413  17.284
 9483TIP3    H149940   0.473   4.382  17.205
 9483TIP3    H249941   0.499   4.441  17.342
 9484TIP3   OH249942   5.430   3.511   0.469
 9484TIP3    H149943   5.465   3.465   0.393
 9484TIP3    H249944   5.505   3.560   0.503
 9485TIP3   OH249945   6.382   3.126  10.593
 9485TIP3    H149946   6.405   3.215  10.617
 9485TIP3    H249947   6.292   3.132  10.559
 9486TIP3   OH249948   4.028   2.164   0.631
 9486TIP3    H149949   3.942   2.141   0.595
 9486TIP3    H249950   4.085   2.169   0.554
 9487TIP3   OH249951   1.159   3.827  11.317
 9487TIP3    H149952   1.073   3.787  11.329
 9487TIP3    H249953   1.188   3.848  11.406
 9488TIP3   OH249954   0.851   5.333   1.060
 9488TIP3    H149955   0.806   5.417   1.052
 9488TIP3    H249956   0.807   5.289   1.133
 9489TIP3   OH249957   6.230   4.497   3.629
 9489TIP3    H149958   6.181   4.415   3.638
 9489TIP3    H249959   6.174   4.552   3.573
 9490TIP3   OH249960   6.281   5.046  16.613
 9490TIP3    H149961   6.329   5.001  16.544
 9490TIP3    H249962   6.208   5.088  16.568
 9491TIP3   OH249963   5.595   1.569   2.056
 9491TIP3    H149964   5.502   1.592   2.046
 9491TIP3    H249965   5.642   1.642   2.016
 9492TIP3   OH249966   2.422   1.186   0.519
 9492TIP3    H149967   2.513   1.202   0.494
 9492TIP3    H249968   2.424   1.104   0.568
 9493TIP3   OH249969   5.979   4.181   0.754
 9493TIP3    H149970   5.939   4.182   0.841
 9493TIP3    H249971   6.040   4.108   0.755
 9494TIP3   OH249972   5.595   0.395   1.155
 9494TIP3    H149973   5.529   0.465   1.147
 9494TIP3    H249974   5.561   0.325   1.099
 9495TIP3   OH249975   2.540   6.100   3.864
 9495TIP3    H149976   2.520   6.082   3.772
 9495TIP3    H249977   2.633   6.120   3.865
 9496TIP3   OH249978   5.640   4.316   4.750
 9496TIP3    H149979   5.680   4.229   4.747
 9496TIP3    H249980   5.555   4.304   4.708
 9497TIP3   OH249981   1.095   0.245  13.219
 9497TIP3    H149982   1.183   0.207  13.224
 9497TIP3    H249983   1.071   0.262  13.310
 9498TIP3   OH249984   4.588   5.335   0.975
 9498TIP3    H149985   4.515   5.291   1.017
 9498TIP3    H249986   4.561   5.344   0.883
 9499TIP3   OH249987   3.367   2.400   4.313
 9499TIP3    H149988   3.295   2.462   4.324
 9499TIP3    H249989   3.416   2.432   4.237
 9500TIP3   OH249990   1.547   0.828   3.460
 9500TIP3    H149991   1.547   0.827   3.555
 9500TIP3    H249992   1.611   0.761   3.435
 9501TIP3   OH249993   1.353   5.629   0.037
 9501TIP3    H149994   1.309   5.544   0.036
 9501TIP3    H249995   1.315   5.676   0.111
 9502TIP3   OH249996   5.211   6.787   4.335
 9502TIP3    H149997   5.211   6.783   4.239
 9502TIP3    H249998   5.118   6.794   4.358
 9503TIP3   OH249999   6.717   0.720  16.553
 9503TIP3    H150000   6.786   0.687  16.611
 9503TIP3    H250001   6.732   0.674  16.470
 9504TIP3   OH250002   0.578   1.635  10.396
 9504TIP3    H150003   0.608   1.684  10.320
 9504TIP3    H250004   0.657   1.617  10.447
 9505TIP3   OH250005   3.301   3.499   3.179
 9505TIP3    H150006   3.275   3.585   3.211
 9505TIP3    H250007   3.393   3.510   3.155
 9506TIP3   OH250008   0.258   3.731  15.880
 9506TIP3    H150009   0.352   3.712  15.887
 9506TIP3    H250010   0.217   3.645  15.876
 9507TIP3   OH250011   3.426   0.820   2.167
 9507TIP3    H150012   3.494   0.887   2.174
 9507TIP3    H250013   3.394   0.809   2.257
 9508TIP3   OH250014   1.813   0.428   5.697
 9508TIP3    H150015   1.832   0.471   5.781
 9508TIP3    H250016   1.836   0.493   5.631
 9509TIP3   OH250017   5.862   4.455  16.086
 9509TIP3    H150018   5.944   4.484  16.126
 9509TIP3    H250019   5.811   4.535  16.076
 9510TIP3   OH250020   1.862   6.557   3.529
 9510TIP3    H150021   1.830   6.505   3.603
 9510TIP3    H250022   1.920   6.622   3.570
 9511TIP3   OH250023   5.475   3.628   3.303
 9511TIP3    H150024   5.472   3.598   3.394
 9511TIP3    H250025   5.390   3.603   3.266
 9512TIP3   OH250026   5.033   4.963   1.198
 9512TIP3    H150027   5.083   4.919   1.268
 9512TIP3    H250028   4.942   4.956   1.226
 9513TIP3   OH250029   2.867   4.908   4.285
 9513TIP3    H150030   2.774   4.890   4.302
 9513TIP3    H250031   2.896   4.833   4.233
 9514TIP3   OH250032   1.105   6.359  13.011
 9514TIP3    H150033   1.063   6.352  13.097
 9514TIP3    H250034   1.190   6.400  13.028
 9515TIP3   OH250035   5.136   1.845   6.006
 9515TIP3    H150036   5.191   1.883   6.075
 9515TIP3    H250037   5.052   1.890   6.015
 9516TIP3   OH250038   1.282   0.770   4.208
 9516TIP3    H150039   1.291   0.860   4.239
 9516TIP3    H250040   1.297   0.775   4.114
 9517TIP3   OH250041   1.121   0.087  12.213
 9517TIP3    H150042   1.141   0.005  12.258
 9517TIP3    H250043   1.099   0.060  12.124
 9518TIP3   OH250044   3.233   5.729   2.367
 9518TIP3    H150045   3.318   5.752   2.330
 9518TIP3    H250046   3.172   5.733   2.293
 9519TIP3   OH250047   3.073   6.142   5.822
 9519TIP3    H150048   3.055   6.220   5.770
 9519TIP3    H250049   3.082   6.175   5.912
 9520TIP3   OH250050   3.106   1.694   3.542
 9520TIP3    H150051   3.175   1.650   3.493
 9520TIP3    H250052   3.024   1.658   3.508
 9521TIP3   OH250053   5.314   4.335   5.471
 9521TIP3    H150054   5.294   4.429   5.464
 9521TIP3    H250055   5.405   4.332   5.498
 9522TIP3   OH250056   6.612   1.985   4.073
 9522TIP3    H150057   6.655   2.065   4.102
 9522TIP3    H250058   6.523   2.012   4.049
 9523TIP3   OH250059   1.467   4.612   3.930
 9523TIP3    H150060   1.400   4.571   3.874
 9523TIP3    H250061   1.528   4.541   3.950
 9524TIP3   OH250062   2.449   5.787  13.165
 9524TIP3    H150063   2.482   5.751  13.082
 9524TIP3    H250064   2.374   5.841  13.139
 9525TIP3   OH250065   4.222   3.976   0.427
 9525TIP3    H150066   4.137   4.020   0.420
 9525TIP3    H250067   4.200   3.883   0.428
 9526TIP3   OH250068   2.432   1.998   2.172
 9526TIP3    H150069   2.420   1.903   2.179
 9526TIP3    H250070   2.348   2.030   2.137
 9527TIP3   OH250071   1.462   2.572  12.641
 9527TIP3    H150072   1.492   2.597  12.554
 9527TIP3    H250073   1.522   2.616  12.701
 9528TIP3   OH250074   3.714   5.100   5.947
 9528TIP3    H150075   3.772   5.174   5.965
 9528TIP3    H250076   3.772   5.032   5.913
 9529TIP3   OH250077   2.899   2.387   4.322
 9529TIP3    H150078   2.813   2.353   4.296
 9529TIP3    H250079   2.930   2.326   4.388
 9530TIP3   OH250080   3.966   1.979  15.933
 9530TIP3    H150081   4.061   1.982  15.925
 9530TIP3    H250082   3.942   2.068  15.961
 9531TIP3   OH250083   6.527   1.562   4.791
 9531TIP3    H150084   6.482   1.492   4.743
 9531TIP3    H250085   6.578   1.607   4.724
 9532TIP3   OH250086   3.491   0.527   1.763
 9532TIP3    H150087   3.471   0.570   1.847
 9532TIP3    H250088   3.584   0.505   1.769
 9533TIP3   OH250089   3.241   5.647  12.467
 9533TIP3    H150090   3.214   5.739  12.466
 9533TIP3    H250091   3.334   5.649  12.442
 9534TIP3   OH250092   2.215   0.936  11.516
 9534TIP3    H150093   2.267   0.866  11.476
 9534TIP3    H250094   2.262   1.016  11.492
 9535TIP3   OH250095   2.745   2.130   2.683
 9535TIP3    H150096   2.754   2.061   2.749
 9535TIP3    H250097   2.745   2.083   2.600
 9536TIP3   OH250098   2.014   3.741   1.938
 9536TIP3    H150099   1.944   3.730   2.003
 9536TIP3    H250100   1.968   3.742   1.854
 9537TIP3   OH250101   4.632   5.259  15.165
 9537TIP3    H150102   4.687   5.181  15.176
 9537TIP3    H250103   4.655   5.315  15.239
 9538TIP3   OH250104   3.244   3.556  14.227
 9538TIP3    H150105   3.204   3.497  14.163
 9538TIP3    H250106   3.261   3.636  14.177
 9539TIP3   OH250107   5.422   0.581   1.715
 9539TIP3    H150108   5.463   0.494   1.715
 9539TIP3    H250109   5.492   0.640   1.689
 9540TIP3   OH250110   2.871   6.559  12.166
 9540TIP3    H150111   2.823   6.580  12.085
 9540TIP3    H250112   2.804   6.523  12.225
 9541TIP3   OH250113   5.992   1.027   1.706
 9541TIP3    H150114   6.032   0.992   1.626
 9541TIP3    H250115   5.915   1.076   1.676
 9542TIP3   OH250116   6.673   2.229   1.877
 9542TIP3    H150117   6.694   2.150   1.927
 9542TIP3    H250118   6.662   2.297   1.943
 9543TIP3   OH250119   6.173   0.189   2.080
 9543TIP3    H150120   6.168   0.269   2.132
 9543TIP3    H250121   6.236   0.134   2.127
 9544TIP3   OH250122   4.209   5.459  12.182
 9544TIP3    H150123   4.219   5.431  12.273
 9544TIP3    H250124   4.152   5.536  12.187
 9545TIP3   OH250125   5.995   2.734  13.585
 9545TIP3    H150126   6.038   2.651  13.605
 9545TIP3    H250127   5.963   2.766  13.670
 9546TIP3   OH250128   4.059   0.905  17.257
 9546TIP3    H150129   3.969   0.874  17.248
 9546TIP3    H250130   4.098   0.848  17.324
 9547TIP3   OH250131   1.865   1.470  11.216
 9547TIP3    H150132   1.819   1.477  11.133
 9547TIP3    H250133   1.937   1.409  11.199
 9548TIP3   OH250134   2.404   4.720  17.267
 9548TIP3    H150135   2.430   4.659  17.197
 9548TIP3    H250136   2.376   4.799  17.220
 9549TIP3   OH250137   5.415   3.330  12.800
 9549TIP3    H150138   5.342   3.292  12.751
 9549TIP3    H250139   5.482   3.349  12.734
 9550TIP3   OH250140   2.930   5.338  15.331
 9550TIP3    H150141   2.968   5.389  15.259
 9550TIP3    H250142   2.838   5.365  15.333
 9551TIP3   OH250143   5.516   4.960  13.866
 9551TIP3    H150144   5.508   4.985  13.775
 9551TIP3    H250145   5.610   4.968  13.885
 9552TIP3   OH250146   4.999   3.688   4.357
 9552TIP3    H150147   4.983   3.681   4.263
 9552TIP3    H250148   4.971   3.777   4.379
 9553TIP3   OH250149   3.985   2.500  10.724
 9553TIP3    H150150   3.896   2.468  10.705
 9553TIP3    H250151   4.021   2.524  10.639
 9554TIP3   OH250152   0.668   2.803  11.105
 9554TIP3    H150153   0.718   2.817  11.025
 9554TIP3    H250154   0.651   2.891  11.138
 9555TIP3   OH250155   5.776   6.632  14.069
 9555TIP3    H150156   5.800   6.723  14.087
 9555TIP3    H250157   5.693   6.620  14.116
 9556TIP3   OH250158   0.942   2.881  13.809
 9556TIP3    H150159   0.974   2.846  13.893
 9556TIP3    H250160   0.993   2.961  13.795
 9557TIP3   OH250161   2.539   0.438  11.809
 9557TIP3    H150162   2.449   0.459  11.784
 9557TIP3    H250163   2.556   0.353  11.768
 9558TIP3   OH250164   4.464   3.337   2.517
 9558TIP3    H150165   4.372   3.351   2.539
 9558TIP3    H250166   4.469   3.355   2.423
 9559TIP3   OH250167   1.871   3.699   4.940
 9559TIP3    H150168   1.795   3.641   4.932
 9559TIP3    H250169   1.922   3.662   5.012
 9560TIP3   OH250170   5.033   2.952   4.848
 9560TIP3    H150171   5.123   2.978   4.831
 9560TIP3    H250172   5.009   3.000   4.928
 9561TIP3   OH250173   5.230   3.352  10.514
 9561TIP3    H150174   5.148   3.373  10.469
 9561TIP3    H250175   5.289   3.424  10.492
 9562TIP3   OH250176   1.437   5.350   6.480
 9562TIP3    H150177   1.384   5.400   6.417
 9562TIP3    H250178   1.388   5.270   6.494
 9563TIP3   OH250179   5.192   4.884   3.005
 9563TIP3    H150180   5.276   4.851   3.036
 9563TIP3    H250181   5.131   4.863   3.075
 9564TIP3   OH250182   6.752   3.767   3.889
 9564TIP3    H150183   6.841   3.762   3.854
 9564TIP3    H250184   6.709   3.832   3.833
 9565TIP3   OH250185   5.932   0.845   0.675
 9565TIP3    H150186   5.893   0.763   0.705
 9565TIP3    H250187   5.900   0.856   0.586
 9566TIP3   OH250188   0.063   2.223   5.868
 9566TIP3    H150189   0.004   2.153   5.894
 9566TIP3    H250190   0.037   2.245   5.779
 9567TIP3   OH250191   5.283   5.919  13.244
 9567TIP3    H150192   5.338   5.855  13.199
 9567TIP3    H250193   5.264   5.985  13.177
 9568TIP3   OH250194   6.504   4.543   1.823
 9568TIP3    H150195   6.573   4.526   1.887
 9568TIP3    H250196   6.458   4.460   1.814
 9569TIP3   OH250197   2.221   2.320  12.143
 9569TIP3    H150198   2.272   2.270  12.079
 9569TIP3    H250199   2.258   2.408  12.141
 9570TIP3   OH250200   1.826   4.200  14.915
 9570TIP3    H150201   1.797   4.256  14.843
 9570TIP3    H250202   1.785   4.237  14.993
 9571TIP3   OH250203   3.519   5.094  16.476
 9571TIP3    H150204   3.562   5.021  16.520
 9571TIP3    H250205   3.580   5.167  16.485
 9572TIP3   OH250206   3.730   3.074  12.582
 9572TIP3    H150207   3.729   3.165  12.611
 9572TIP3    H250208   3.820   3.059  12.552
 9573TIP3   OH250209   5.728   4.526  16.366
 9573TIP3    H150210   5.764   4.600  16.414
 9573TIP3    H250211   5.804   4.479  16.332
 9574TIP3   OH250212   2.262   6.105  13.900
 9574TIP3    H150213   2.167   6.115  13.899
 9574TIP3    H250214   2.293   6.171  13.961
 9575TIP3   OH250215   2.654   3.061   2.886
 9575TIP3    H150216   2.600   3.019   2.953
 9575TIP3    H250217   2.717   2.994   2.861
 9576TIP3   OH250218   6.655   0.409   3.577
 9576TIP3    H150219   6.588   0.384   3.640
 9576TIP3    H250220   6.701   0.328   3.557
 9577TIP3   OH250221   2.195   3.913   3.523
 9577TIP3    H150222   2.285   3.881   3.517
 9577TIP3    H250223   2.173   3.908   3.616
 9578TIP3   OH250224   6.109   2.294  11.783
 9578TIP3    H150225   6.019   2.306  11.754
 9578TIP3    H250226   6.161   2.350  11.725
 9579TIP3   OH250227   0.555   0.213   0.866
 9579TIP3    H150228   0.521   0.144   0.809
 9579TIP3    H250229   0.621   0.169   0.919
 9580TIP3   OH250230   2.237   3.111  14.254
 9580TIP3    H150231   2.173   3.171  14.216
 9580TIP3    H250232   2.220   3.114  14.348
 9581TIP3   OH250233   6.247   4.646  11.775
 9581TIP3    H150234   6.170   4.588  11.772
 9581TIP3    H250235   6.218   4.726  11.732
 9582TIP3   OH250236   0.595   0.102  14.767
 9582TIP3    H150237   0.621   0.147  14.847
 9582TIP3    H250238   0.541   0.029  14.797
 9583TIP3   OH250239   2.459   4.546  16.630
 9583TIP3    H150240   2.368   4.534  16.603
 9583TIP3    H250241   2.453   4.567  16.723
 9584TIP3   OH250242   4.875   4.252  11.499
 9584TIP3    H150243   4.822   4.311  11.446
 9584TIP3    H250244   4.963   4.290  11.498
 9585TIP3   OH250245   0.475   4.663  14.448
 9585TIP3    H150246   0.532   4.718  14.395
 9585TIP3    H250247   0.455   4.588  14.392
 9586TIP3   OH250248   6.635   4.906  16.513
 9586TIP3    H150249   6.602   4.874  16.429
 9586TIP3    H250250   6.666   4.995  16.494
 9587TIP3   OH250251   5.303   6.531   2.770
 9587TIP3    H150252   5.307   6.483   2.853
 9587TIP3    H250253   5.322   6.622   2.793
 9588TIP3   OH250254   0.786   2.441   4.635
 9588TIP3    H150255   0.849   2.492   4.585
 9588TIP3    H250256   0.803   2.350   4.610
 9589TIP3   OH250257   4.053   3.182   6.060
 9589TIP3    H150258   3.962   3.207   6.045
 9589TIP3    H250259   4.070   3.204   6.152
 9590TIP3   OH250260   0.241   2.894   2.131
 9590TIP3    H150261   0.213   2.926   2.045
 9590TIP3    H250262   0.285   2.811   2.112
 9591TIP3   OH250263   6.280   2.425   3.511
 9591TIP3    H150264   6.249   2.510   3.479
 9591TIP3    H250265   6.309   2.442   3.600
 9592TIP3   OH250266   1.640   6.738  11.106
 9592TIP3    H150267   1.562   6.756  11.159
 9592TIP3    H250268   1.690   6.674  11.157
 9593TIP3   OH250269   5.107   4.484   0.649
 9593TIP3    H150270   5.142   4.567   0.615
 9593TIP3    H250271   5.018   4.479   0.615
 9594TIP3   OH250272   4.983   6.551   3.772
 9594TIP3    H150273   5.071   6.577   3.798
 9594TIP3    H250274   4.929   6.570   3.850
 9595TIP3   OH250275   1.790   1.193  11.071
 9595TIP3    H150276   1.861   1.177  11.010
 9595TIP3    H250277   1.777   1.288  11.071
 9596TIP3   OH250278   4.135   2.203   0.884
 9596TIP3    H150279   4.186   2.284   0.879
 9596TIP3    H250280   4.112   2.184   0.793
 9597TIP3   OH250281   4.517   6.398  12.553
 9597TIP3    H150282   4.537   6.475  12.606
 9597TIP3    H250283   4.500   6.433  12.465
 9598TIP3   OH250284   1.069   4.718  16.384
 9598TIP3    H150285   1.120   4.717  16.303
 9598TIP3    H250286   1.045   4.809  16.397
 9599TIP3   OH250287   4.803   1.216   4.167
 9599TIP3    H150288   4.772   1.247   4.252
 9599TIP3    H250289   4.794   1.291   4.109
 9600TIP3   OH250290   2.938   0.755   2.556
 9600TIP3    H150291   2.980   0.808   2.488
 9600TIP3    H250292   2.960   0.665   2.534
 9601TIP3   OH250293   4.510   6.463   2.585
 9601TIP3    H150294   4.532   6.432   2.673
 9601TIP3    H250295   4.420   6.495   2.593
 9602TIP3   OH250296   5.638   2.366   4.627
 9602TIP3    H150297   5.679   2.452   4.631
 9602TIP3    H250298   5.640   2.342   4.535
 9603TIP3   OH250299   2.270   5.756   3.584
 9603TIP3    H150300   2.302   5.800   3.505
 9603TIP3    H250301   2.228   5.676   3.552
 9604TIP3   OH250302   0.689   1.763  14.033
 9604TIP3    H150303   0.655   1.845  13.997
 9604TIP3    H250304   0.719   1.714  13.957
 9605TIP3   OH250305   3.781   2.547  12.597
 9605TIP3    H150306   3.700   2.546  12.546
 9605TIP3    H250307   3.756   2.586  12.680
 9606TIP3   OH250308   4.566   5.372   3.770
 9606TIP3    H150309   4.525   5.286   3.775
 9606TIP3    H250310   4.652   5.361   3.810
 9607TIP3   OH250311   0.835   0.157  11.321
 9607TIP3    H150312   0.931   0.157  11.325
 9607TIP3    H250313   0.807   0.117  11.403
 9608TIP3   OH250314   1.375   2.329  12.068
 9608TIP3    H150315   1.298   2.282  12.099
 9608TIP3    H250316   1.389   2.296  11.979
 9609TIP3   OH250317   4.241   4.315  15.770
 9609TIP3    H150318   4.164   4.332  15.715
 9609TIP3    H250319   4.315   4.320  15.710
 9610TIP3   OH250320   1.597   3.710  12.387
 9610TIP3    H150321   1.685   3.674  12.375
 9610TIP3    H250322   1.538   3.637  12.371
 9611TIP3   OH250323   2.688   6.503   5.505
 9611TIP3    H150324   2.672   6.494   5.411
 9611TIP3    H250325   2.611   6.463   5.546
 9612TIP3   OH250326   3.518   0.977   5.661
 9612TIP3    H150327   3.523   0.896   5.713
 9612TIP3    H250328   3.585   1.034   5.699
 9613TIP3   OH250329   1.465   6.297   1.912
 9613TIP3    H150330   1.416   6.363   1.961
 9613TIP3    H250331   1.402   6.261   1.850
 9614TIP3   OH250332   1.691   6.018  11.319
 9614TIP3    H150333   1.685   5.990  11.228
 9614TIP3    H250334   1.664   5.941  11.370
 9615TIP3   OH250335   5.044   1.090   1.885
 9615TIP3    H150336   5.121   1.103   1.829
 9615TIP3    H250337   4.994   1.171   1.877
 9616TIP3   OH250338   3.373   4.073  14.151
 9616TIP3    H150339   3.352   4.046  14.240
 9616TIP3    H250340   3.400   3.992  14.107
 9617TIP3   OH250341   2.682   4.647  12.745
 9617TIP3    H150342   2.598   4.645  12.699
 9617TIP3    H250343   2.659   4.645  12.837
 9618TIP3   OH250344   2.523   6.731  13.610
 9618TIP3    H150345   2.507   6.824  13.624
 9618TIP3    H250346   2.525   6.720  13.515
 9619TIP3   OH250347   0.714   1.972   0.897
 9619TIP3    H150348   0.734   2.044   0.957
 9619TIP3    H250349   0.658   2.012   0.830
 9620TIP3   OH250350   1.792   6.059   2.161
 9620TIP3    H150351   1.835   5.997   2.102
 9620TIP3    H250352   1.755   6.004   2.230
 9621TIP3   OH250353   4.450   1.806  10.511
 9621TIP3    H150354   4.461   1.737  10.577
 9621TIP3    H250355   4.364   1.788  10.472
 9622TIP3   OH250356   1.685   4.409   2.244
 9622TIP3    H150357   1.592   4.388   2.237
 9622TIP3    H250358   1.695   4.449   2.330
 9623TIP3   OH250359   0.316   6.655   5.979
 9623TIP3    H150360   0.249   6.642   5.912
 9623TIP3    H250361   0.334   6.749   5.978
 9624TIP3   OH250362   1.288   4.689   5.442
 9624TIP3    H150363   1.215   4.686   5.504
 9624TIP3    H250364   1.358   4.734   5.489
 9625TIP3   OH250365   1.184   6.749  16.535
 9625TIP3    H150366   1.089   6.756  16.527
 9625TIP3    H250367   1.207   6.812  16.603
 9626TIP3   OH250368   1.035   3.096  16.226
 9626TIP3    H150369   1.003   3.006  16.216
 9626TIP3    H250370   1.126   3.092  16.196
 9627TIP3   OH250371   2.167   4.579  15.470
 9627TIP3    H150372   2.113   4.511  15.510
 9627TIP3    H250373   2.150   4.657  15.522
 9628TIP3   OH250374   5.879   5.962  13.779
 9628TIP3    H150375   5.946   5.933  13.841
 9628TIP3    H250376   5.905   6.051  13.756
 9629TIP3   OH250377   2.182   0.784   1.888
 9629TIP3    H150378   2.242   0.847   1.928
 9629TIP3    H250379   2.104   0.834   1.867
 9630TIP3   OH250380   3.756   3.705   5.055
 9630TIP3    H150381   3.727   3.682   5.143
 9630TIP3    H250382   3.782   3.797   5.062
 9631TIP3   OH250383   4.353   0.379   4.057
 9631TIP3    H150384   4.367   0.412   3.969
 9631TIP3    H250385   4.384   0.449   4.114
 9632TIP3   OH250386   2.740   6.592   3.285
 9632TIP3    H150387   2.747   6.669   3.228
 9632TIP3    H250388   2.735   6.628   3.374
 9633TIP3   OH250389   4.074   5.216  12.128
 9633TIP3    H150390   4.135   5.145  12.146
 9633TIP3    H250391   4.127   5.296  12.137
 9634TIP3   OH250392   1.183   0.403  16.135
 9634TIP3    H150393   1.121   0.344  16.179
 9634TIP3    H250394   1.269   0.368  16.157
 9635TIP3   OH250395   1.381   6.065  13.375
 9635TIP3    H150396   1.409   6.126  13.443
 9635TIP3    H250397   1.287   6.081  13.364
 9636TIP3   OH250398   4.364   4.186   1.078
 9636TIP3    H150399   4.285   4.226   1.043
 9636TIP3    H250400   4.346   4.092   1.076
 9637TIP3   OH250401   5.514   1.793   2.664
 9637TIP3    H150402   5.592   1.848   2.654
 9637TIP3    H250403   5.542   1.706   2.634
 9638TIP3   OH250404   3.235   6.307   4.381
 9638TIP3    H150405   3.147   6.339   4.403
 9638TIP3    H250406   3.292   6.382   4.396
 9639TIP3   OH250407   1.254   0.843   5.257
 9639TIP3    H150408   1.247   0.784   5.332
 9639TIP3    H250409   1.237   0.787   5.181
 9640TIP3   OH250410   4.445   1.815   2.541
 9640TIP3    H150411   4.360   1.827   2.497
 9640TIP3    H250412   4.430   1.847   2.630
 9641TIP3   OH250413   1.818   5.332   5.121
 9641TIP3    H150414   1.851   5.315   5.209
 9641TIP3    H250415   1.785   5.247   5.092
 9642TIP3   OH250416   2.243   5.175   6.239
 9642TIP3    H150417   2.223   5.243   6.175
 9642TIP3    H250418   2.211   5.209   6.323
 9643TIP3   OH250419   5.972   3.312   3.147
 9643TIP3    H150420   5.937   3.290   3.233
 9643TIP3    H250421   6.061   3.279   3.148
 9644TIP3   OH250422   5.824   3.343   6.422
 9644TIP3    H150423   5.772   3.419   6.446
 9644TIP3    H250424   5.764   3.269   6.430
 9645TIP3   OH250425   2.887   5.536   3.557
 9645TIP3    H150426   2.923   5.577   3.636
 9645TIP3    H250427   2.932   5.451   3.552
 9646TIP3   OH250428   4.836   5.761  14.618
 9646TIP3    H150429   4.754   5.794  14.581
 9646TIP3    H250430   4.901   5.777  14.550
 9647TIP3   OH250431   1.290   0.060   1.201
 9647TIP3    H150432   1.259   0.103   1.122
 9647TIP3    H250433   1.249  -0.026   1.200
 9648TIP3   OH250434   2.031   2.959  16.992
 9648TIP3    H150435   1.936   2.943  16.990
 9648TIP3    H250436   2.070   2.872  17.002
 9649TIP3   OH250437   5.751   4.400   0.802
 9649TIP3    H150438   5.758   4.478   0.857
 9649TIP3    H250439   5.764   4.432   0.713
 9650TIP3   OH250440   2.677   2.689  15.183
 9650TIP3    H150441   2.761   2.646  15.169
 9650TIP3    H250442   2.700   2.777  15.213
 9651TIP3   OH250443   0.877   1.516   1.224
 9651TIP3    H150444   0.972   1.524   1.220
 9651TIP3    H250445   0.862   1.423   1.239
 9652TIP3   OH250446   1.814   6.567  16.463
 9652TIP3    H150447   1.747   6.616  16.511
 9652TIP3    H250448   1.885   6.630  16.451
 9653TIP3   OH250449   1.677   0.564   3.500
 9653TIP3    H150450   1.626   0.521   3.431
 9653TIP3    H250451   1.616   0.576   3.572
 9654TIP3   OH250452   4.841   6.574   4.417
 9654TIP3    H150453   4.891   6.650   4.388
 9654TIP3    H250454   4.758   6.611   4.449
 9655TIP3   OH250455   0.026   6.150   5.795
 9655TIP3    H150456   0.026   6.234   5.749
 9655TIP3    H250457   0.034   6.084   5.726
 9656TIP3   OH250458   2.300   3.987  16.233
 9656TIP3    H150459   2.327   4.060  16.177
 9656TIP3    H250460   2.282   3.916  16.171
 9657TIP3   OH250461   5.082   5.207   1.415
 9657TIP3    H150462   5.105   5.223   1.323
 9657TIP3    H250463   5.166   5.206   1.461
 9658TIP3   OH250464   0.362   5.565  14.392
 9658TIP3    H150465   0.392   5.616  14.468
 9658TIP3    H250466   0.282   5.609  14.365
 9659TIP3   OH250467   5.645   2.946  11.143
 9659TIP3    H150468   5.728   2.937  11.097
 9659TIP3    H250469   5.602   2.860  11.133
 9660TIP3   OH250470   4.708   1.966   0.555
 9660TIP3    H150471   4.626   1.920   0.573
 9660TIP3    H250472   4.776   1.908   0.589
 9661TIP3   OH250473   3.648   2.775   3.576
 9661TIP3    H150474   3.730   2.742   3.614
 9661TIP3    H250475   3.608   2.826   3.646
 9662TIP3   OH250476   6.642   3.957   4.080
 9662TIP3    H150477   6.688   3.887   4.033
 9662TIP3    H250478   6.700   3.979   4.153
 9663TIP3   OH250479   2.018   0.896  11.237
 9663TIP3    H150480   1.980   0.828  11.182
 9663TIP3    H250481   2.100   0.858  11.268
 9664TIP3   OH250482   3.949   4.013   6.185
 9664TIP3    H150483   3.930   4.100   6.148
 9664TIP3    H250484   3.865   3.967   6.179
 9665TIP3   OH250485   6.271   2.288  12.047
 9665TIP3    H150486   6.248   2.245  11.965
 9665TIP3    H250487   6.187   2.302  12.091
 9666TIP3   OH250488   6.343   3.088   1.103
 9666TIP3    H150489   6.248   3.098   1.097
 9666TIP3    H250490   6.370   3.058   1.016
 9667TIP3   OH250491   2.196   4.985  16.548
 9667TIP3    H150492   2.180   4.943  16.463
 9667TIP3    H250493   2.291   4.993  16.553
 9668TIP3   OH250494   3.829   5.269  17.093
 9668TIP3    H150495   3.769   5.202  17.061
 9668TIP3    H250496   3.777   5.321  17.154
 9669TIP3   OH250497   0.002   0.435  11.537
 9669TIP3    H150498   0.085   0.413  11.580
 9669TIP3    H250499  -0.058   0.366  11.565
 9670TIP3   OH250500   4.392   0.406   5.093
 9670TIP3    H150501   4.379   0.350   5.170
 9670TIP3    H250502   4.354   0.490   5.119
 9671TIP3   OH250503   5.709   4.329   1.927
 9671TIP3    H150504   5.648   4.397   1.956
 9671TIP3    H250505   5.674   4.299   1.844
 9672TIP3   OH250506   0.018   5.716  15.234
 9672TIP3    H150507   0.092   5.727  15.294
 9672TIP3    H250508   0.035   5.777  15.163
 9673TIP3   OH250509   6.812   5.853   3.885
 9673TIP3    H150510   6.752   5.905   3.833
 9673TIP3    H250511   6.787   5.762   3.867
 9674TIP3   OH250512   2.412   6.596   5.317
 9674TIP3    H150513   2.351   6.553   5.257
 9674TIP3    H250514   2.461   6.657   5.261
 9675TIP3   OH250515   2.040   4.341  14.665
 9675TIP3    H150516   2.088   4.385  14.595
 9675TIP3    H250517   1.980   4.282  14.619
 9676TIP3   OH250518   4.539   5.752   2.760
 9676TIP3    H150519   4.497   5.806   2.693
 9676TIP3    H250520   4.628   5.787   2.767
 9677TIP3   OH250521   0.680   1.993   6.431
 9677TIP3    H150522   0.638   1.932   6.370
 9677TIP3    H250523   0.751   2.032   6.381
 9678TIP3   OH250524   5.534   6.112  13.814
 9678TIP3    H150525   5.536   6.131  13.720
 9678TIP3    H250526   5.476   6.178  13.850
 9679TIP3   OH250527   0.830   2.357  11.238
 9679TIP3    H150528   0.736   2.340  11.238
 9679TIP3    H250529   0.837   2.452  11.225
 9680TIP3   OH250530   5.077   0.564   0.601
 9680TIP3    H150531   5.134   0.640   0.599
 9680TIP3    H250532   5.108   0.512   0.676
 9681TIP3   OH250533   4.001   6.753  14.662
 9681TIP3    H150534   3.970   6.785  14.747
 9681TIP3    H250535   4.085   6.797  14.649
 9682TIP3   OH250536   3.093   2.935   2.421
 9682TIP3    H150537   3.038   2.865   2.388
 9682TIP3    H250538   3.182   2.901   2.415
 9683TIP3   OH250539   2.967   0.575   0.280
 9683TIP3    H150540   3.058   0.571   0.310
 9683TIP3    H250541   2.972   0.623   0.197
 9684TIP3   OH250542   3.185   0.564   3.520
 9684TIP3    H150543   3.159   0.472   3.513
 9684TIP3    H250544   3.209   0.589   3.431
 9685TIP3   OH250545   5.639   4.172   1.653
 9685TIP3    H150546   5.552   4.167   1.612
 9685TIP3    H250547   5.662   4.081   1.671
 9686TIP3   OH250548   6.742   3.983   1.542
 9686TIP3    H150549   6.677   3.955   1.608
 9686TIP3    H250550   6.780   3.901   1.511
 9687TIP3   OH250551   2.715   2.240   3.206
 9687TIP3    H150552   2.706   2.313   3.268
 9687TIP3    H250553   2.731   2.163   3.261
 9688TIP3   OH250554   6.198   1.455   2.949
 9688TIP3    H150555   6.219   1.367   2.918
 9688TIP3    H250556   6.264   1.472   3.017
 9689TIP3   OH250557   1.381   1.922   3.651
 9689TIP3    H150558   1.362   1.996   3.593
 9689TIP3    H250559   1.447   1.872   3.604
 9690TIP3   OH250560   3.626   5.709   3.136
 9690TIP3    H150561   3.684   5.634   3.145
 9690TIP3    H250562   3.564   5.684   3.067
 9691TIP3   OH250563   4.226   3.453  15.051
 9691TIP3    H150564   4.293   3.511  15.016
 9691TIP3    H250565   4.251   3.439  15.142
 9692TIP3   OH250566   2.158   2.265  16.093
 9692TIP3    H150567   2.124   2.179  16.116
 9692TIP3    H250568   2.249   2.263  16.123
 9693TIP3   OH250569   3.988   2.588  12.213
 9693TIP3    H150570   4.061   2.532  12.186
 9693TIP3    H250571   3.972   2.644  12.138
 9694TIP3   OH250572   2.899   3.234   4.159
 9694TIP3    H150573   2.922   3.143   4.141
 9694TIP3    H250574   2.834   3.256   4.091
 9695TIP3   OH250575   3.179   5.276   0.097
 9695TIP3    H150576   3.121   5.234   0.032
 9695TIP3    H250577   3.119   5.305   0.166
 9696TIP3   OH250578   0.625   5.974  15.005
 9696TIP3    H150579   0.590   6.000  14.920
 9696TIP3    H250580   0.552   5.933  15.050
 9697TIP3   OH250581   6.638   3.750   4.810
 9697TIP3    H150582   6.585   3.746   4.730
 9697TIP3    H250583   6.634   3.661   4.846
 9698TIP3   OH250584   0.197   1.029   6.921
 9698TIP3    H150585   0.107   1.060   6.928
 9698TIP3    H250586   0.244   1.103   6.881
 9699TIP3   OH250587   1.541   1.359   2.066
 9699TIP3    H150588   1.468   1.314   2.025
 9699TIP3    H250589   1.619   1.317   2.029
 9700TIP3   OH250590   1.579   6.765   3.035
 9700TIP3    H150591   1.609   6.694   3.091
 9700TIP3    H250592   1.484   6.757   3.035
 9701TIP3   OH250593   4.679   5.336  15.441
 9701TIP3    H150594   4.710   5.246  15.457
 9701TIP3    H250595   4.587   5.334  15.467
 9702TIP3   OH250596   6.484   4.136   0.981
 9702TIP3    H150597   6.390   4.156   0.980
 9702TIP3    H250598   6.489   4.043   1.007
 9703TIP3   OH250599   2.772   0.648  12.582
 9703TIP3    H150600   2.859   0.647  12.541
 9703TIP3    H250601   2.758   0.557  12.610
 9704TIP3   OH250602   1.489   4.322  12.527
 9704TIP3    H150603   1.446   4.354  12.607
 9704TIP3    H250604   1.459   4.232  12.519
 9705TIP3   OH250605   6.704   1.351  13.028
 9705TIP3    H150606   6.773   1.414  13.012
 9705TIP3    H250607   6.658   1.344  12.944
 9706TIP3   OH250608   3.766   4.149   6.424
 9706TIP3    H150609   3.861   4.139   6.427
 9706TIP3    H250610   3.735   4.070   6.380
 9707TIP3   OH250611   3.919   0.128   1.658
 9707TIP3    H150612   3.958   0.090   1.737
 9707TIP3    H250613   3.862   0.058   1.624
 9708TIP3   OH250614   5.215   2.248   3.221
 9708TIP3    H150615   5.148   2.286   3.278
 9708TIP3    H250616   5.250   2.322   3.172
 9709TIP3   OH250617   1.745   5.533  11.519
 9709TIP3    H150618   1.806   5.467  11.488
 9709TIP3    H250619   1.762   5.539  11.613
 9710TIP3   OH250620   1.285   1.145  15.098
 9710TIP3    H150621   1.234   1.084  15.151
 9710TIP3    H250622   1.372   1.104  15.093
 9711TIP3   OH250623   4.329   3.475  10.888
 9711TIP3    H150624   4.312   3.553  10.941
 9711TIP3    H250625   4.318   3.402  10.949
 9712TIP3   OH250626   2.632   0.734  13.188
 9712TIP3    H150627   2.598   0.789  13.260
 9712TIP3    H250628   2.616   0.644  13.217
 9713TIP3   OH250629   3.663   2.069  13.685
 9713TIP3    H150630   3.744   2.055  13.636
 9713TIP3    H250631   3.615   1.986  13.677
 9714TIP3   OH250632   6.364   0.408   4.009
 9714TIP3    H150633   6.399   0.488   3.968
 9714TIP3    H250634   6.427   0.340   3.986
 9715TIP3   OH250635   3.299   0.545   0.005
 9715TIP3    H150636   3.216   0.529   0.050
 9715TIP3    H250637   3.278   0.611  -0.061
 9716TIP3   OH250638   4.070   6.415   3.416
 9716TIP3    H150639   4.136   6.420   3.347
 9716TIP3    H250640   4.085   6.492   3.470
 9717TIP3   OH250641   6.053   0.983  11.818
 9717TIP3    H150642   6.060   1.038  11.740
 9717TIP3    H250643   5.967   1.004  11.855
 9718TIP3   OH250644   2.634   1.016   5.352
 9718TIP3    H150645   2.572   0.954   5.313
 9718TIP3    H250646   2.638   1.089   5.290
 9719TIP3   OH250647   5.785   5.394  10.606
 9719TIP3    H150648   5.702   5.441  10.607
 9719TIP3    H250649   5.844   5.452  10.557
 9720TIP3   OH250650   5.547   5.615  12.161
 9720TIP3    H150651   5.642   5.628  12.167
 9720TIP3    H250652   5.515   5.696  12.122
 9721TIP3   OH250653   2.239   2.296   2.278
 9721TIP3    H150654   2.185   2.362   2.322
 9721TIP3    H250655   2.258   2.232   2.347
 9722TIP3   OH250656   4.722   0.728   5.348
 9722TIP3    H150657   4.652   0.683   5.395
 9722TIP3    H250658   4.719   0.692   5.260
 9723TIP3   OH250659   3.354   2.885   2.984
 9723TIP3    H150660   3.307   2.836   3.051
 9723TIP3    H250661   3.440   2.843   2.980
 9724TIP3   OH250662   6.213   4.757   4.098
 9724TIP3    H150663   6.166   4.699   4.158
 9724TIP3    H250664   6.273   4.699   4.051
 9725TIP3   OH250665   1.258   4.943  10.694
 9725TIP3    H150666   1.273   5.028  10.735
 9725TIP3    H250667   1.306   4.948  10.612
 9726TIP3   OH250668   4.470   0.602   2.295
 9726TIP3    H150669   4.419   0.522   2.279
 9726TIP3    H250670   4.560   0.578   2.275
 9727TIP3   OH250671   3.207   3.799  14.931
 9727TIP3    H150672   3.301   3.780  14.930
 9727TIP3    H250673   3.179   3.790  14.840
 9728TIP3   OH250674   1.865   0.649  11.414
 9728TIP3    H150675   1.931   0.664  11.481
 9728TIP3    H250676   1.911   0.599  11.346
 9729TIP3   OH250677   0.446   5.950  13.936
 9729TIP3    H150678   0.402   5.934  14.019
 9729TIP3    H250679   0.425   5.873  13.882
 9730TIP3   OH250680   4.618   0.226  12.148
 9730TIP3    H150681   4.528   0.248  12.170
 9730TIP3    H250682   4.665   0.228  12.231
 9731TIP3   OH250683   5.325   5.407   5.166
 9731TIP3    H150684   5.312   5.346   5.239
 9731TIP3    H250685   5.272   5.370   5.095
 9732TIP3   OH250686   3.059   5.416   1.332
 9732TIP3    H150687   3.117   5.491   1.319
 9732TIP3    H250688   3.016   5.404   1.248
 9733TIP3   OH250689   1.995   0.274  16.137
 9733TIP3    H150690   1.911   0.314  16.157
 9733TIP3    H250691   1.977   0.180  16.131
 9734TIP3   OH250692   6.294   1.488   4.641
 9734TIP3    H150693   6.278   1.432   4.565
 9734TIP3    H250694   6.297   1.577   4.605
 9735TIP3   OH250695   6.158   1.420   5.416
 9735TIP3    H150696   6.226   1.440   5.480
 9735TIP3    H250697   6.200   1.364   5.352
 9736TIP3   OH250698   4.098   1.119  11.780
 9736TIP3    H150699   4.123   1.187  11.718
 9736TIP3    H250700   4.074   1.044  11.725
 9737TIP3   OH250701   0.157   0.494   1.413
 9737TIP3    H150702   0.102   0.499   1.491
 9737TIP3    H250703   0.204   0.411   1.421
 9738TIP3   OH250704   0.953   3.177   2.019
 9738TIP3    H150705   1.013   3.155   1.948
 9738TIP3    H250706   1.008   3.218   2.086
 9739TIP3   OH250707   4.040   5.425   4.008
 9739TIP3    H150708   4.134   5.441   4.006
 9739TIP3    H250709   4.000   5.512   4.008
 9740TIP3   OH250710   3.302   0.983  14.340
 9740TIP3    H150711   3.301   0.927  14.262
 9740TIP3    H250712   3.211   0.986  14.369
 9741TIP3   OH250713   5.375   1.968  15.555
 9741TIP3    H150714   5.422   1.939  15.477
 9741TIP3    H250715   5.428   1.939  15.629
 9742TIP3   OH250716   1.244   0.723   4.480
 9742TIP3    H150717   1.291   0.795   4.520
 9742TIP3    H250718   1.275   0.721   4.389
 9743TIP3   OH250719   2.312   2.412  15.276
 9743TIP3    H150720   2.243   2.464  15.234
 9743TIP3    H250721   2.374   2.477  15.309
 9744TIP3   OH250722   1.203   4.225   4.146
 9744TIP3    H150723   1.184   4.200   4.236
 9744TIP3    H250724   1.212   4.320   4.149
 9745TIP3   OH250725   1.660   0.816   5.226
 9745TIP3    H150726   1.676   0.911   5.229
 9745TIP3    H250727   1.748   0.778   5.223
 9746TIP3   OH250728   3.943   5.805  14.952
 9746TIP3    H150729   4.031   5.772  14.930
 9746TIP3    H250730   3.886   5.728  14.943
 9747TIP3   OH250731   4.941   5.894  15.914
 9747TIP3    H150732   4.921   5.831  15.983
 9747TIP3    H250733   4.942   5.842  15.834
 9748TIP3   OH250734   2.742   5.669  15.592
 9748TIP3    H150735   2.679   5.727  15.634
 9748TIP3    H250736   2.706   5.653  15.504
 9749TIP3   OH250737   6.637   5.664  16.715
 9749TIP3    H150738   6.637   5.736  16.777
 9749TIP3    H250739   6.596   5.700  16.636
 9750TIP3   OH250740   4.330   3.715   3.278
 9750TIP3    H150741   4.241   3.749   3.268
 9750TIP3    H250742   4.353   3.680   3.192
 9751TIP3   OH250743   2.739   0.805   6.096
 9751TIP3    H150744   2.791   0.885   6.089
 9751TIP3    H250745   2.785   0.753   6.161
 9752TIP3   OH250746   1.060   1.141   2.869
 9752TIP3    H150747   1.108   1.197   2.931
 9752TIP3    H250748   1.007   1.203   2.818
 9753TIP3   OH250749   6.025   2.723  11.221
 9753TIP3    H150750   5.977   2.798  11.255
 9753TIP3    H250751   5.982   2.702  11.138
 9754TIP3   OH250752   5.895   5.833   4.596
 9754TIP3    H150753   5.823   5.804   4.541
 9754TIP3    H250754   5.942   5.753   4.618
 9755TIP3   OH250755   3.965   2.160  13.249
 9755TIP3    H150756   3.942   2.075  13.212
 9755TIP3    H250757   3.893   2.218  13.225
 9756TIP3   OH250758   0.798   1.388   1.555
 9756TIP3    H150759   0.781   1.330   1.482
 9756TIP3    H250760   0.712   1.400   1.597
 9757TIP3   OH250761   6.224   5.005  13.535
 9757TIP3    H150762   6.206   4.946  13.609
 9757TIP3    H250763   6.315   5.032  13.547
 9758TIP3   OH250764   5.943   6.618   5.672
 9758TIP3    H150765   5.916   6.580   5.756
 9758TIP3    H250766   6.034   6.645   5.686
 9759TIP3   OH250767   6.106   4.191   1.825
 9759TIP3    H150768   6.032   4.202   1.766
 9759TIP3    H250769   6.166   4.133   1.778
 9760TIP3   OH250770   0.696   0.830  15.088
 9760TIP3    H150771   0.696   0.758  15.151
 9760TIP3    H250772   0.625   0.888  15.117
 9761TIP3   OH250773   2.575   3.091  12.867
 9761TIP3    H150774   2.658   3.125  12.834
 9761TIP3    H250775   2.600   3.027  12.934
 9762TIP3   OH250776   2.209   3.120   5.601
 9762TIP3    H150777   2.215   3.212   5.578
 9762TIP3    H250778   2.158   3.118   5.683
 9763TIP3   OH250779   3.513   0.077   3.731
 9763TIP3    H150780   3.587   0.135   3.715
 9763TIP3    H250781   3.507   0.073   3.827
 9764TIP3   OH250782   6.300   2.456  16.980
 9764TIP3    H150783   6.386   2.414  16.982
 9764TIP3    H250784   6.252   2.410  16.912
 9765TIP3   OH250785   6.104   6.355  14.801
 9765TIP3    H150786   6.082   6.277  14.750
 9765TIP3    H250787   6.119   6.423  14.736
 9766TIP3   OH250788   0.351   4.909   0.705
 9766TIP3    H150789   0.353   4.887   0.612
 9766TIP3    H250790   0.420   4.856   0.745
 9767TIP3   OH250791   1.568   3.607  16.761
 9767TIP3    H150792   1.550   3.563  16.844
 9767TIP3    H250793   1.618   3.685  16.785
 9768TIP3   OH250794   0.257   1.733  14.025
 9768TIP3    H150795   0.193   1.683  14.077
 9768TIP3    H250796   0.337   1.680  14.029
 9769TIP3   OH250797   2.977   1.487  16.728
 9769TIP3    H150798   2.969   1.469  16.634
 9769TIP3    H250799   2.972   1.583  16.733
 9770TIP3   OH250800   5.456   5.517   2.250
 9770TIP3    H150801   5.416   5.532   2.336
 9770TIP3    H250802   5.415   5.581   2.193
 9771TIP3   OH250803   2.788   4.180   5.062
 9771TIP3    H150804   2.789   4.268   5.026
 9771TIP3    H250805   2.804   4.123   4.986
 9772TIP3   OH250806   0.803   2.739  14.904
 9772TIP3    H150807   0.760   2.745  14.819
 9772TIP3    H250808   0.757   2.668  14.949
 9773TIP3   OH250809   0.404   6.454   2.706
 9773TIP3    H150810   0.367   6.482   2.790
 9773TIP3    H250811   0.343   6.488   2.641
 9774TIP3   OH250812   1.779   4.355   0.386
 9774TIP3    H150813   1.771   4.282   0.448
 9774TIP3    H250814   1.731   4.427   0.427
 9775TIP3   OH250815   1.380   2.878  16.669
 9775TIP3    H150816   1.383   2.968  16.639
 9775TIP3    H250817   1.356   2.884  16.762
 9776TIP3   OH250818   3.568   4.296   0.562
 9776TIP3    H150819   3.622   4.230   0.605
 9776TIP3    H250820   3.541   4.354   0.634
 9777TIP3   OH250821   3.169   0.263   3.195
 9777TIP3    H150822   3.084   0.237   3.159
 9777TIP3    H250823   3.192   0.343   3.147
 9778TIP3   OH250824   4.554   4.139   4.014
 9778TIP3    H150825   4.592   4.214   3.969
 9778TIP3    H250826   4.486   4.175   4.069
 9779TIP3   OH250827   5.330   5.657   5.673
 9779TIP3    H150828   5.419   5.627   5.652
 9779TIP3    H250829   5.338   5.752   5.682
 9780TIP3   OH250830   5.209   2.912   6.488
 9780TIP3    H150831   5.230   2.831   6.536
 9780TIP3    H250832   5.294   2.952   6.471
 9781TIP3   OH250833   2.615   2.516   2.064
 9781TIP3    H150834   2.599   2.423   2.082
 9781TIP3    H250835   2.529   2.556   2.065
 9782TIP3   OH250836   2.475   4.306  11.571
 9782TIP3    H150837   2.456   4.216  11.543
 9782TIP3    H250838   2.451   4.307  11.664
 9783TIP3   OH250839   4.460   2.765   4.225
 9783TIP3    H150840   4.374   2.724   4.220
 9783TIP3    H250841   4.522   2.694   4.211
 9784TIP3   OH250842   2.280   3.776   2.926
 9784TIP3    H150843   2.277   3.869   2.950
 9784TIP3    H250844   2.325   3.774   2.842
 9785TIP3   OH250845   1.650   2.484   4.205
 9785TIP3    H150846   1.741   2.468   4.180
 9785TIP3    H250847   1.625   2.561   4.154
 9786TIP3   OH250848   3.460   4.209  15.647
 9786TIP3    H150849   3.381   4.164  15.618
 9786TIP3    H250850   3.431   4.268  15.716
 9787TIP3   OH250851   2.432   5.755  15.282
 9787TIP3    H150852   2.526   5.771  15.283
 9787TIP3    H250853   2.397   5.809  15.353
 9788TIP3   OH250854   3.589   6.699  13.878
 9788TIP3    H150855   3.595   6.772  13.817
 9788TIP3    H250856   3.540   6.734  13.952
 9789TIP3   OH250857   6.606   4.088  15.506
 9789TIP3    H150858   6.622   4.103  15.599
 9789TIP3    H250859   6.523   4.039  15.504
 9790TIP3   OH250860   2.492   3.391  16.333
 9790TIP3    H150861   2.474   3.396  16.427
 9790TIP3    H250862   2.420   3.440  16.292
 9791TIP3   OH250863   0.997   3.295   0.644
 9791TIP3    H150864   1.027   3.366   0.702
 9791TIP3    H250865   1.035   3.317   0.559
 9792TIP3   OH250866   2.210   1.013  13.378
 9792TIP3    H150867   2.226   1.031  13.471
 9792TIP3    H250868   2.182   1.097  13.342
 9793TIP3   OH250869   1.921   5.909  11.571
 9793TIP3    H150870   1.831   5.885  11.593
 9793TIP3    H250871   1.961   5.827  11.543
 9794TIP3   OH250872   2.828   6.745   0.970
 9794TIP3    H150873   2.798   6.670   0.918
 9794TIP3    H250874   2.793   6.728   1.058
 9795TIP3   OH250875   4.149   4.555  14.250
 9795TIP3    H150876   4.229   4.588  14.209
 9795TIP3    H250877   4.135   4.615  14.324
 9796TIP3   OH250878   4.340   5.944   2.152
 9796TIP3    H150879   4.286   5.965   2.076
 9796TIP3    H250880   4.416   6.001   2.144
 9797TIP3   OH250881   1.286   1.999  14.033
 9797TIP3    H150882   1.326   1.950  13.961
 9797TIP3    H250883   1.195   1.970  14.034
 9798TIP3   OH250884   5.513   6.466   1.970
 9798TIP3    H150885   5.492   6.528   2.039
 9798TIP3    H250886   5.608   6.453   1.977
 9799TIP3   OH250887   1.617   1.858   0.701
 9799TIP3    H150888   1.634   1.840   0.793
 9799TIP3    H250889   1.562   1.785   0.672
 9800TIP3   OH250890   4.638   3.165   5.205
 9800TIP3    H150891   4.611   3.242   5.255
 9800TIP3    H250892   4.614   3.091   5.261
 9801TIP3   OH250893   2.610   4.217   6.526
 9801TIP3    H150894   2.537   4.193   6.584
 9801TIP3    H250895   2.676   4.150   6.543
 9802TIP3   OH250896   3.559   5.220   5.443
 9802TIP3    H150897   3.533   5.297   5.494
 9802TIP3    H250898   3.635   5.249   5.393
 9803TIP3   OH250899   3.263   0.739   5.831
 9803TIP3    H150900   3.355   0.743   5.805
 9803TIP3    H250901   3.219   0.695   5.758
 9804TIP3   OH250902   1.817   5.860  13.870
 9804TIP3    H150903   1.869   5.940  13.883
 9804TIP3    H250904   1.797   5.829  13.958
 9805TIP3   OH250905   0.410   0.221  14.010
 9805TIP3    H150906   0.437   0.274  13.935
 9805TIP3    H250907   0.349   0.157  13.973
 9806TIP3   OH250908   0.052   5.279   2.599
 9806TIP3    H150909   0.012   5.282   2.686
 9806TIP3    H250910   0.003   5.211   2.552
 9807TIP3   OH250911   0.872   5.027  12.950
 9807TIP3    H150912   0.917   5.065  13.025
 9807TIP3    H250913   0.922   5.057  12.874
 9808TIP3   OH250914   5.444   0.774  15.261
 9808TIP3    H150915   5.518   0.713  15.267
 9808TIP3    H250916   5.475   0.845  15.205
 9809TIP3   OH250917   1.545   4.051  13.437
 9809TIP3    H150918   1.505   3.968  13.463
 9809TIP3    H250919   1.533   4.054  13.342
 9810TIP3   OH250920   4.046   1.853   0.443
 9810TIP3    H150921   3.956   1.881   0.461
 9810TIP3    H250922   4.070   1.901   0.363
 9811TIP3   OH250923   0.244   5.869  16.398
 9811TIP3    H150924   0.152   5.885  16.375
 9811TIP3    H250925   0.241   5.801  16.464
 9812TIP3   OH250926   5.727   2.953   1.322
 9812TIP3    H150927   5.801   3.014   1.321
 9812TIP3    H250928   5.667   2.987   1.257
 9813TIP3   OH250929   6.590   6.471  13.120
 9813TIP3    H150930   6.510   6.476  13.068
 9813TIP3    H250931   6.618   6.562  13.129
 9814TIP3   OH250932   5.169   2.821   3.360
 9814TIP3    H150933   5.254   2.807   3.403
 9814TIP3    H250934   5.109   2.841   3.432
 9815TIP3   OH250935   4.892   0.264   1.945
 9815TIP3    H150936   4.804   0.294   1.922
 9815TIP3    H250937   4.899   0.178   1.905
 9816TIP3   OH250938   1.789   2.189  13.046
 9816TIP3    H150939   1.857   2.249  13.077
 9816TIP3    H250940   1.718   2.246  13.017
 9817TIP3   OH250941   5.964   2.016  10.593
 9817TIP3    H150942   5.989   1.946  10.653
 9817TIP3    H250943   6.044   2.069  10.582
 9818TIP3   OH250944   1.900   5.878   5.065
 9818TIP3    H150945   1.995   5.874   5.065
 9818TIP3    H250946   1.871   5.788   5.080
 9819TIP3   OH250947   2.740   4.474   3.714
 9819TIP3    H150948   2.795   4.446   3.786
 9819TIP3    H250949   2.653   4.485   3.752
 9820TIP3   OH250950   6.692   1.710   0.612
 9820TIP3    H150951   6.603   1.677   0.616
 9820TIP3    H250952   6.684   1.804   0.632
 9821TIP3   OH250953   4.599   5.730  14.453
 9821TIP3    H150954   4.518   5.684  14.430
 9821TIP3    H250955   4.646   5.737  14.370
 9822TIP3   OH250956   0.792   1.387  15.672
 9822TIP3    H150957   0.886   1.373  15.662
 9822TIP3    H250958   0.782   1.411  15.765
 9823TIP3   OH250959   0.585   0.326  16.630
 9823TIP3    H150960   0.669   0.280  16.634
 9823TIP3    H250961   0.564   0.345  16.721
 9824TIP3   OH250962   3.752   1.521  14.402
 9824TIP3    H150963   3.657   1.514  14.394
 9824TIP3    H250964   3.784   1.433  14.385
 9825TIP3   OH250965   2.833   3.545  16.881
 9825TIP3    H150966   2.913   3.493  16.888
 9825TIP3    H250967   2.764   3.486  16.911
 9826TIP3   OH250968   6.044   4.003  14.634
 9826TIP3    H150969   6.066   3.913  14.610
 9826TIP3    H250970   6.110   4.026  14.700
 9827TIP3   OH250971   0.765   2.133  13.772
 9827TIP3    H150972   0.798   2.176  13.693
 9827TIP3    H250973   0.818   2.169  13.843
 9828TIP3   OH250974   6.697   5.874   0.309
 9828TIP3    H150975   6.704   5.894   0.215
 9828TIP3    H250976   6.648   5.948   0.345
 9829TIP3   OH250977   1.141   2.366   1.144
 9829TIP3    H150978   1.106   2.279   1.161
 9829TIP3    H250979   1.069   2.413   1.102
 9830TIP3   OH250980   6.657   2.932   1.857
 9830TIP3    H150981   6.681   2.961   1.945
 9830TIP3    H250982   6.647   2.837   1.865
 9831TIP3   OH250983   6.533   0.860   3.433
 9831TIP3    H150984   6.609   0.812   3.464
 9831TIP3    H250985   6.567   0.924   3.371
 9832TIP3   OH250986   1.232   4.605   1.375
 9832TIP3    H150987   1.232   4.521   1.422
 9832TIP3    H250988   1.263   4.668   1.439
 9833TIP3   OH250989   5.918   2.815  17.288
 9833TIP3    H150990   5.909   2.771  17.203
 9833TIP3    H250991   5.868   2.897  17.278
 9834TIP3   OH250992   6.546   1.592  11.683
 9834TIP3    H150993   6.463   1.552  11.658
 9834TIP3    H250994   6.564   1.557  11.770
 9835TIP3   OH250995   2.679   5.968  12.729
 9835TIP3    H150996   2.698   5.887  12.682
 9835TIP3    H250997   2.753   6.025  12.710
 9836TIP3   OH250998   2.000   6.102  13.214
 9836TIP3    H150999   1.911   6.135  13.216
 9836TIP3    H251000   1.993   6.014  13.177
 9837TIP3   OH251001   1.461   4.772   4.924
 9837TIP3    H151002   1.435   4.864   4.926
 9837TIP3    H251003   1.447   4.740   5.013
 9838TIP3   OH251004   3.128   1.429   2.649
 9838TIP3    H151005   3.202   1.461   2.700
 9838TIP3    H251006   3.053   1.438   2.708
 9839TIP3   OH251007   0.763   6.812   0.915
 9839TIP3    H151008   0.701   6.740   0.902
 9839TIP3    H251009   0.838   6.788   0.860
 9840TIP3   OH251010   1.110   5.715  14.364
 9840TIP3    H151011   1.063   5.684  14.441
 9840TIP3    H251012   1.062   5.792  14.335
 9841TIP3   OH251013   2.689   4.359  13.444
 9841TIP3    H151014   2.649   4.417  13.379
 9841TIP3    H251015   2.781   4.387  13.446
 9842TIP3   OH251016   1.706   4.404   1.962
 9842TIP3    H151017   1.676   4.492   1.940
 9842TIP3    H251018   1.664   4.385   2.046
 9843TIP3   OH251019   2.266   3.613  10.672
 9843TIP3    H151020   2.336   3.549  10.660
 9843TIP3    H251021   2.190   3.573  10.629
 9844TIP3   OH251022   5.362   1.127  11.636
 9844TIP3    H151023   5.401   1.153  11.552
 9844TIP3    H251024   5.292   1.190  11.650
 9845TIP3   OH251025   0.599   2.500  12.463
 9845TIP3    H151026   0.620   2.562  12.393
 9845TIP3    H251027   0.568   2.555  12.535
 9846TIP3   OH251028   3.838   5.225   0.271
 9846TIP3    H151029   3.784   5.239   0.349
 9846TIP3    H251030   3.887   5.307   0.262
 9847TIP3   OH251031   5.566   5.980   1.535
 9847TIP3    H151032   5.540   6.003   1.625
 9847TIP3    H251033   5.638   5.918   1.547
 9848TIP3   OH251034   3.763   4.022   5.915
 9848TIP3    H151035   3.793   4.104   5.953
 9848TIP3    H251036   3.673   4.013   5.946
 9849TIP3   OH251037   0.640   2.723  14.693
 9849TIP3    H151038   0.624   2.675  14.612
 9849TIP3    H251039   0.559   2.770  14.710
 9850TIP3   OH251040   2.862   0.907   0.675
 9850TIP3    H151041   2.788   0.848   0.661
 9850TIP3    H251042   2.937   0.848   0.691
 9851TIP3   OH251043   3.710   3.396   1.607
 9851TIP3    H151044   3.805   3.390   1.595
 9851TIP3    H251045   3.697   3.385   1.702
 9852TIP3   OH251046   0.634   5.007  13.189
 9852TIP3    H151047   0.698   5.004  13.260
 9852TIP3    H251048   0.676   4.963  13.116
 9853TIP3   OH251049   0.604   2.321  12.809
 9853TIP3    H151050   0.573   2.262  12.740
 9853TIP3    H251051   0.668   2.376  12.766
 9854TIP3   OH251052   0.900   2.830   5.510
 9854TIP3    H151053   0.878   2.857   5.599
 9854TIP3    H251054   0.990   2.798   5.516
 9855TIP3   OH251055   0.292   2.007  10.888
 9855TIP3    H151056   0.267   1.962  10.807
 9855TIP3    H251057   0.331   2.089  10.859
 9856TIP3   OH251058   5.981   1.613  14.752
 9856TIP3    H151059   6.029   1.637  14.673
 9856TIP3    H251060   6.047   1.574  14.809
 9857TIP3   OH251061   1.818   1.204   0.701
 9857TIP3    H151062   1.803   1.126   0.754
 9857TIP3    H251063   1.886   1.252   0.749
 9858TIP3   OH251064   3.347   4.091  12.481
 9858TIP3    H151065   3.335   3.997  12.472
 9858TIP3    H251066   3.386   4.103  12.568
 9859TIP3   OH251067   6.158   6.776  15.972
 9859TIP3    H151068   6.143   6.684  15.997
 9859TIP3    H251069   6.148   6.777  15.877
 9860TIP3   OH251070   5.841   5.007   0.609
 9860TIP3    H151071   5.789   4.927   0.612
 9860TIP3    H251072   5.777   5.078   0.600
 9861TIP3   OH251073   0.644   2.826  15.897
 9861TIP3    H151074   0.671   2.747  15.851
 9861TIP3    H251075   0.623   2.796  15.986
 9862TIP3   OH251076   3.033   5.124  11.970
 9862TIP3    H151077   2.974   5.049  11.967
 9862TIP3    H251078   3.120   5.087  11.955
 9863TIP3   OH251079   3.537   3.933   5.623
 9863TIP3    H151080   3.508   3.926   5.714
 9863TIP3    H251081   3.597   4.008   5.623
 9864TIP3   OH251082   0.549   3.186  12.398
 9864TIP3    H151083   0.627   3.141  12.430
 9864TIP3    H251084   0.522   3.135  12.322
 9865TIP3   OH251085   4.550   4.036   6.125
 9865TIP3    H151086   4.508   3.961   6.082
 9865TIP3    H251087   4.478   4.082   6.168
 9866TIP3   OH251088   1.740   5.593   1.336
 9866TIP3    H151089   1.725   5.563   1.247
 9866TIP3    H251090   1.660   5.572   1.383
 9867TIP3   OH251091   1.878   5.343   5.935
 9867TIP3    H151092   1.878   5.255   5.971
 9867TIP3    H251093   1.788   5.357   5.905
 9868TIP3   OH251094   0.025   6.393  13.909
 9868TIP3    H151095  -0.029   6.394  13.830
 9868TIP3    H251096   0.004   6.475  13.954
 9869TIP3   OH251097   5.582   4.014  13.591
 9869TIP3    H151098   5.653   3.956  13.563
 9869TIP3    H251099   5.547   4.050  13.510
 9870TIP3   OH251100   2.883   6.215  16.237
 9870TIP3    H151101   2.832   6.296  16.244
 9870TIP3    H251102   2.881   6.193  16.144
 9871TIP3   OH251103   0.682   5.497   4.778
 9871TIP3    H151104   0.660   5.504   4.685
 9871TIP3    H251105   0.624   5.429   4.811
 9872TIP3   OH251106   1.936   5.248   2.211
 9872TIP3    H151107   1.997   5.293   2.271
 9872TIP3    H251108   1.993   5.205   2.147
 9873TIP3   OH251109   3.595   6.472   4.099
 9873TIP3    H151110   3.662   6.505   4.159
 9873TIP3    H251111   3.616   6.511   4.015
 9874TIP3   OH251112   4.339   5.284  10.606
 9874TIP3    H151113   4.338   5.189  10.597
 9874TIP3    H251114   4.268   5.304  10.666
 9875TIP3   OH251115   3.340   3.742   4.402
 9875TIP3    H151116   3.415   3.684   4.406
 9875TIP3    H251117   3.350   3.790   4.320
 9876TIP3   OH251118   2.573   0.426  14.037
 9876TIP3    H151119   2.607   0.344  14.002
 9876TIP3    H251120   2.589   0.491  13.968
 9877TIP3   OH251121   5.601   2.970   0.228
 9877TIP3    H151122   5.573   2.953   0.318
 9877TIP3    H251123   5.522   2.953   0.176
 9878TIP3   OH251124   2.385   3.064  13.286
 9878TIP3    H151125   2.462   3.089  13.236
 9878TIP3    H251126   2.394   3.110  13.370
 9879TIP3   OH251127   3.660   1.517   4.053
 9879TIP3    H151128   3.582   1.571   4.042
 9879TIP3    H251129   3.700   1.549   4.134
 9880TIP3   OH251130   3.218   2.260  14.710
 9880TIP3    H151131   3.185   2.176  14.678
 9880TIP3    H251132   3.209   2.319  14.635
 9881TIP3   OH251133   4.343   2.773  16.948
 9881TIP3    H151134   4.411   2.835  16.975
 9881TIP3    H251135   4.262   2.823  16.951
 9882TIP3   OH251136   0.674   6.700   7.052
 9882TIP3    H151137   0.588   6.709   7.011
 9882TIP3    H251138   0.696   6.608   7.043
 9883TIP3   OH251139   0.443   0.526   1.975
 9883TIP3    H151140   0.427   0.553   2.065
 9883TIP3    H251141   0.498   0.595   1.938
 9884TIP3   OH251142   2.712   6.147  14.715
 9884TIP3    H151143   2.733   6.058  14.689
 9884TIP3    H251144   2.639   6.137  14.777
 9885TIP3   OH251145   2.114   2.620   1.164
 9885TIP3    H151146   2.055   2.555   1.126
 9885TIP3    H251147   2.113   2.693   1.103
 9886TIP3   OH251148   5.687   4.957   4.922
 9886TIP3    H151149   5.719   4.942   4.833
 9886TIP3    H251150   5.753   4.917   4.979
 9887TIP3   OH251151   1.715   2.203  17.289
 9887TIP3    H151152   1.621   2.183  17.297
 9887TIP3    H251153   1.739   2.235  17.376
 9888TIP3   OH251154   3.566   0.862  16.323
 9888TIP3    H151155   3.619   0.859  16.403
 9888TIP3    H251156   3.482   0.898  16.351
 9889TIP3   OH251157   1.347   3.728  15.303
 9889TIP3    H151158   1.380   3.731  15.393
 9889TIP3    H251159   1.289   3.652  15.301
 9890TIP3   OH251160   2.878   0.874  11.824
 9890TIP3    H151161   2.860   0.799  11.881
 9890TIP3    H251162   2.923   0.837  11.748
 9891TIP3   OH251163   3.252   0.940   4.184
 9891TIP3    H151164   3.253   0.926   4.279
 9891TIP3    H251165   3.220   1.030   4.173
 9892TIP3   OH251166   2.701   2.096  11.834
 9892TIP3    H151167   2.735   2.008  11.847
 9892TIP3    H251168   2.720   2.115  11.742
 9893TIP3   OH251169   0.940   3.367  12.721
 9893TIP3    H151170   1.006   3.397  12.783
 9893TIP3    H251171   0.865   3.425  12.734
 9894TIP3   OH251172   3.005   2.578   3.183
 9894TIP3    H151173   2.969   2.606   3.099
 9894TIP3    H251174   3.007   2.482   3.177
 9895TIP3   OH251175   2.696   6.475   3.794
 9895TIP3    H151176   2.709   6.510   3.882
 9895TIP3    H251177   2.779   6.493   3.749
 9896TIP3   OH251178   0.423   4.520   0.676
 9896TIP3    H151179   0.347   4.507   0.733
 9896TIP3    H251180   0.398   4.591   0.618
 9897TIP3   OH251181   6.219   6.669   3.039
 9897TIP3    H151182   6.135   6.673   3.085
 9897TIP3    H251183   6.195   6.674   2.946
 9898TIP3   OH251184   2.266   3.917  11.285
 9898TIP3    H151185   2.292   3.852  11.219
 9898TIP3    H251186   2.292   3.878  11.369
 9899TIP3   OH251187   0.804   0.928  11.037
 9899TIP3    H151188   0.886   0.937  11.084
 9899TIP3    H251189   0.829   0.929  10.944
 9900TIP3   OH251190   3.111   1.598  14.892
 9900TIP3    H151191   3.127   1.675  14.837
 9900TIP3    H251192   3.022   1.611  14.926
 9901TIP3   OH251193   2.587   2.973  12.292
 9901TIP3    H151194   2.664   2.915  12.284
 9901TIP3    H251195   2.606   3.045  12.231
 9902TIP3   OH251196   2.878   1.048  16.164
 9902TIP3    H151197   2.909   1.118  16.107
 9902TIP3    H251198   2.790   1.029  16.133
 9903TIP3   OH251199   5.098   4.465   4.527
 9903TIP3    H151200   5.071   4.390   4.580
 9903TIP3    H251201   5.063   4.446   4.439
 9904TIP3   OH251202   3.609   1.686   2.831
 9904TIP3    H151203   3.640   1.738   2.904
 9904TIP3    H251204   3.681   1.625   2.812
 9905TIP3   OH251205   2.399   1.076   1.239
 9905TIP3    H151206   2.450   1.155   1.223
 9905TIP3    H251207   2.316   1.092   1.193
 9906TIP3   OH251208   0.195   5.198  12.656
 9906TIP3    H151209   0.273   5.184  12.602
 9906TIP3    H251210   0.125   5.218  12.594
 9907TIP3   OH251211   0.936   0.799  15.765
 9907TIP3    H151212   1.031   0.784  15.757
 9907TIP3    H251213   0.914   0.765  15.851
 9908TIP3   OH251214   1.788   4.543  15.400
 9908TIP3    H151215   1.794   4.501  15.315
 9908TIP3    H251216   1.753   4.630  15.382
 9909TIP3   OH251217   0.249   2.745  12.833
 9909TIP3    H151218   0.306   2.735  12.909
 9909TIP3    H251219   0.161   2.733  12.867
 9910TIP3   OH251220   0.194   4.298  10.491
 9910TIP3    H151221   0.283   4.328  10.473
 9910TIP3    H251222   0.196   4.269  10.582
 9911TIP3   OH251223   2.456   4.643  12.593
 9911TIP3    H151224   2.414   4.719  12.554
 9911TIP3    H251225   2.407   4.568  12.559
 9912TIP3   OH251226   0.761   6.760  12.065
 9912TIP3    H151227   0.785   6.670  12.085
 9912TIP3    H251228   0.733   6.797  12.149
 9913TIP3   OH251229   5.922   0.469  11.192
 9913TIP3    H151230   5.952   0.560  11.198
 9913TIP3    H251231   5.836   0.475  11.153
 9914TIP3   OH251232   1.454   0.128  12.087
 9914TIP3    H151233   1.387   0.159  12.148
 9914TIP3    H251234   1.466   0.035  12.109
 9915TIP3   OH251235   5.925   6.286  17.138
 9915TIP3    H151236   6.012   6.325  17.128
 9915TIP3    H251237   5.940   6.207  17.190
 9916TIP3   OH251238   0.401   2.600  16.405
 9916TIP3    H151239   0.396   2.541  16.480
 9916TIP3    H251240   0.333   2.569  16.346
 9917TIP3   OH251241   0.390   4.629  13.048
 9917TIP3    H151242   0.301   4.615  13.018
 9917TIP3    H251243   0.383   4.700  13.113
 9918TIP3   OH251244   1.474   1.088  16.590
 9918TIP3    H151245   1.566   1.109  16.607
 9918TIP3    H251246   1.430   1.172  16.586
 9919TIP3   OH251247   4.651   4.944  15.844
 9919TIP3    H151248   4.592   5.018  15.829
 9919TIP3    H251249   4.594   4.876  15.881
 9920TIP3   OH251250   1.233   5.311   4.602
 9920TIP3    H151251   1.211   5.402   4.583
 9920TIP3    H251252   1.199   5.262   4.527
 9921TIP3   OH251253   2.154   2.793  13.141
 9921TIP3    H151254   2.189   2.813  13.228
 9921TIP3    H251255   2.059   2.792  13.153
 9922TIP3   OH251256   5.251   1.482  11.541
 9922TIP3    H151257   5.171   1.429  11.542
 9922TIP3    H251258   5.258   1.517  11.629
 9923TIP3   OH251259   1.887   0.145  15.187
 9923TIP3    H151260   1.841   0.093  15.121
 9923TIP3    H251261   1.957   0.188  15.138
 9924TIP3   OH251262   3.130   1.255   3.371
 9924TIP3    H151263   3.180   1.174   3.382
 9924TIP3    H251264   3.098   1.250   3.281
 9925TIP3   OH251265   4.366   3.417   4.957
 9925TIP3    H151266   4.366   3.372   5.042
 9925TIP3    H251267   4.441   3.381   4.911
 9926TIP3   OH251268   5.104   3.157  13.037
 9926TIP3    H151269   5.172   3.138  13.103
 9926TIP3    H251270   5.108   3.083  12.977
 9927TIP3   OH251271   1.929   4.237  15.329
 9927TIP3    H151272   1.872   4.203  15.399
 9927TIP3    H251273   1.868   4.270  15.263
 9928TIP3   OH251274   5.855   2.480  12.419
 9928TIP3    H151275   5.869   2.390  12.389
 9928TIP3    H251276   5.905   2.534  12.358
 9929TIP3   OH251277   6.006   0.925   0.125
 9929TIP3    H151278   5.975   0.897   0.040
 9929TIP3    H251279   5.994   1.020   0.125
 9930TIP3   OH251280   3.738   2.988  12.131
 9930TIP3    H151281   3.689   3.009  12.052
 9930TIP3    H251282   3.699   2.906  12.162
 9931TIP3   OH251283   1.503   4.826  10.813
 9931TIP3    H151284   1.538   4.915  10.805
 9931TIP3    H251285   1.417   4.831  10.771
 9932TIP3   OH251286   2.700   5.780   4.103
 9932TIP3    H151287   2.611   5.802   4.130
 9932TIP3    H251288   2.700   5.791   4.008
 9933TIP3   OH251289   5.810   4.939   2.068
 9933TIP3    H151290   5.811   4.886   1.988
 9933TIP3    H251291   5.722   4.976   2.071
 9934TIP3   OH251292   0.792   6.790   1.630
 9934TIP3    H151293   0.863   6.843   1.594
 9934TIP3    H251294   0.800   6.705   1.587
 9935TIP3   OH251295   0.555   6.159   6.160
 9935TIP3    H151296   0.640   6.189   6.128
 9935TIP3    H251297   0.551   6.192   6.250
 9936TIP3   OH251298   6.396   3.110   5.792
 9936TIP3    H151299   6.312   3.135   5.830
 9936TIP3    H251300   6.434   3.049   5.855
 9937TIP3   OH251301   0.625   3.115   2.821
 9937TIP3    H151302   0.543   3.085   2.781
 9937TIP3    H251303   0.655   3.186   2.765
 9938TIP3   OH251304   0.799   0.635  12.554
 9938TIP3    H151305   0.845   0.586  12.486
 9938TIP3    H251306   0.711   0.598  12.554
 9939TIP3   OH251307   3.620   0.389  14.790
 9939TIP3    H151308   3.692   0.451  14.793
 9939TIP3    H251309   3.645   0.326  14.722
 9940TIP3   OH251310   4.705   0.391  11.084
 9940TIP3    H151311   4.782   0.396  11.141
 9940TIP3    H251312   4.740   0.402  10.995
 9941TIP3   OH251313   5.075   2.573   2.068
 9941TIP3    H151314   5.163   2.575   2.105
 9941TIP3    H251315   5.059   2.481   2.049
 9942TIP3   OH251316   2.275   4.209   4.142
 9942TIP3    H151317   2.286   4.303   4.131
 9942TIP3    H251318   2.274   4.195   4.237
 9943TIP3   OH251319   2.300   4.783   3.071
 9943TIP3    H151320   2.291   4.813   2.980
 9943TIP3    H251321   2.291   4.688   3.066
 9944TIP3   OH251322   0.434   2.994  10.316
 9944TIP3    H151323   0.469   3.060  10.256
 9944TIP3    H251324   0.506   2.933  10.329
 9945TIP3   OH251325   3.077   0.038   0.781
 9945TIP3    H151326   3.066  -0.011   0.862
 9945TIP3    H251327   3.054  -0.025   0.712
 9946TIP3   OH251328   5.572   5.732  12.472
 9946TIP3    H151329   5.502   5.761  12.413
 9946TIP3    H251330   5.633   5.685  12.415
 9947TIP3   OH251331   0.899   4.516  11.331
 9947TIP3    H151332   0.812   4.476  11.332
 9947TIP3    H251333   0.956   4.449  11.292
 9948TIP3   OH251334   1.605   5.034   1.002
 9948TIP3    H151335   1.609   4.948   0.961
 9948TIP3    H251336   1.587   5.095   0.930
 9949TIP3   OH251337   2.303   5.653   0.025
 9949TIP3    H151338   2.295   5.727   0.085
 9949TIP3    H251339   2.394   5.653  -0.002
 9950TIP3   OH251340   3.066   6.024  15.388
 9950TIP3    H151341   3.050   5.947  15.334
 9950TIP3    H251342   3.127   5.993  15.456
 9951TIP3   OH251343   1.913   3.572  15.061
 9951TIP3    H151344   1.925   3.487  15.017
 9951TIP3    H251345   1.829   3.604  15.028
 9952TIP3   OH251346   6.405   2.788   3.051
 9952TIP3    H151347   6.378   2.869   3.008
 9952TIP3    H251348   6.440   2.817   3.136
 9953TIP3   OH251349   6.545   3.124  15.413
 9953TIP3    H151350   6.496   3.068  15.353
 9953TIP3    H251351   6.478   3.170  15.463
 9954TIP3   OH251352   6.022   4.702  15.558
 9954TIP3    H151353   5.987   4.789  15.580
 9954TIP3    H251354   5.960   4.640  15.597
 9955TIP3   OH251355   0.928   3.129   3.534
 9955TIP3    H151356   0.965   3.205   3.579
 9955TIP3    H251357   0.996   3.102   3.472
 9956TIP3   OH251358   5.910   5.831  16.811
 9956TIP3    H151359   5.957   5.771  16.868
 9956TIP3    H251360   5.934   5.918  16.843
 9957TIP3   OH251361   1.759   5.140  16.247
 9957TIP3    H151362   1.731   5.232  16.248
 9957TIP3    H251363   1.802   5.130  16.162
 9958TIP3   OH251364   4.640   3.570   2.310
 9958TIP3    H151365   4.642   3.566   2.406
 9958TIP3    H251366   4.731   3.584   2.285
 9959TIP3   OH251367   3.155   6.736  12.990
 9959TIP3    H151368   3.192   6.731  13.078
 9959TIP3    H251369   3.060   6.740  13.004
 9960TIP3   OH251370   0.500   1.297   1.565
 9960TIP3    H151371   0.411   1.266   1.547
 9960TIP3    H251372   0.505   1.382   1.521
 9961TIP3   OH251373   2.829   0.432  12.970
 9961TIP3    H151374   2.835   0.526  12.991
 9961TIP3    H251375   2.859   0.388  13.050
 9962TIP3   OH251376   0.312   1.455   5.323
 9962TIP3    H151377   0.322   1.371   5.279
 9962TIP3    H251378   0.361   1.446   5.405
 9963TIP3   OH251379   5.411   6.431   5.143
 9963TIP3    H151380   5.483   6.432   5.080
 9963TIP3    H251381   5.437   6.366   5.208
 9964TIP3   OH251382   5.064   4.779   1.401
 9964TIP3    H151383   4.972   4.750   1.398
 9964TIP3    H251384   5.110   4.708   1.446
 9965TIP3   OH251385   1.574   5.840  16.369
 9965TIP3    H151386   1.638   5.778  16.402
 9965TIP3    H251387   1.624   5.921  16.354
 9966TIP3   OH251388   4.466   3.914   0.551
 9966TIP3    H151389   4.552   3.916   0.509
 9966TIP3    H251390   4.406   3.949   0.485
 9967TIP3   OH251391   5.641   1.006  12.608
 9967TIP3    H151392   5.653   0.972  12.519
 9967TIP3    H251393   5.729   1.025  12.639
 9968TIP3   OH251394   5.165   0.389  11.380
 9968TIP3    H151395   5.166   0.319  11.315
 9968TIP3    H251396   5.255   0.421  11.383
 9969TIP3   OH251397   6.048   3.863  12.325
 9969TIP3    H151398   6.126   3.872  12.270
 9969TIP3    H251399   5.992   3.937  12.299
 9970TIP3   OH251400   0.470   5.981   4.733
 9970TIP3    H151401   0.514   5.899   4.711
 9970TIP3    H251402   0.409   5.996   4.661
 9971TIP3   OH251403   5.567   0.447   5.562
 9971TIP3    H151404   5.499   0.383   5.584
 9971TIP3    H251405   5.600   0.477   5.647
 9972TIP3   OH251406   3.437   0.014   4.469
 9972TIP3    H151407   3.425   0.108   4.467
 9972TIP3    H251408   3.350  -0.022   4.451
 9973TIP3   OH251409   4.079   5.564   3.229
 9973TIP3    H151410   4.101   5.504   3.157
 9973TIP3    H251411   4.008   5.618   3.195
 9974TIP3   OH251412   0.193   2.097   2.795
 9974TIP3    H151413   0.211   2.037   2.868
 9974TIP3    H251414   0.104   2.128   2.812
 9975TIP3   OH251415   2.131   6.541   3.979
 9975TIP3    H151416   2.201   6.605   3.989
 9975TIP3    H251417   2.113   6.539   3.885
 9976TIP3   OH251418   5.158   2.817  16.003
 9976TIP3    H151419   5.191   2.877  16.069
 9976TIP3    H251420   5.180   2.858  15.920
 9977TIP3   OH251421   2.444   5.469  10.654
 9977TIP3    H151422   2.437   5.398  10.591
 9977TIP3    H251423   2.483   5.428  10.732
 9978TIP3   OH251424   3.336   3.974   2.508
 9978TIP3    H151425   3.240   3.980   2.506
 9978TIP3    H251426   3.359   3.923   2.431
 9979TIP3   OH251427   0.997   6.632  14.605
 9979TIP3    H151428   1.000   6.602  14.514
 9979TIP3    H251429   0.933   6.702  14.605
 9980TIP3   OH251430   3.969   4.142   3.860
 9980TIP3    H151431   3.986   4.233   3.835
 9980TIP3    H251432   3.882   4.123   3.825
 9981TIP3   OH251433   1.513   4.485  16.006
 9981TIP3    H151434   1.521   4.481  16.101
 9981TIP3    H251435   1.454   4.413  15.984
 9982TIP3   OH251436   5.880   0.314   2.337
 9982TIP3    H151437   5.827   0.241   2.306
 9982TIP3    H251438   5.952   0.273   2.385
 9983TIP3   OH251439   2.739   2.487   4.560
 9983TIP3    H151440   2.776   2.403   4.532
 9983TIP3    H251441   2.716   2.473   4.652
 9984TIP3   OH251442   0.723   0.097  12.310
 9984TIP3    H151443   0.795   0.116  12.370
 9984TIP3    H251444   0.714   0.176  12.257
 9985TIP3   OH251445   4.426   6.691   3.537
 9985TIP3    H151446   4.380   6.703   3.620
 9985TIP3    H251447   4.504   6.640   3.561
 9986TIP3   OH251448   1.426   6.317  11.161
 9986TIP3    H151449   1.334   6.345  11.155
 9986TIP3    H251450   1.425   6.226  11.132
 9987TIP3   OH251451   4.079   5.518  16.789
 9987TIP3    H151452   4.140   5.452  16.755
 9987TIP3    H251453   4.121   5.550  16.869
 9988TIP3   OH251454   1.346   2.497  10.587
 9988TIP3    H151455   1.275   2.439  10.559
 9988TIP3    H251456   1.347   2.566  10.521
 9989TIP3   OH251457   4.914   3.770  12.547
 9989TIP3    H151458   4.920   3.821  12.466
 9989TIP3    H251459   4.939   3.832  12.616
 9990TIP3   OH251460   6.602   5.703  14.273
 9990TIP3    H151461   6.657   5.715  14.195
 9990TIP3    H251462   6.596   5.608  14.283
 9991TIP3   OH251463   1.709   4.514   3.702
 9991TIP3    H151464   1.742   4.456   3.633
 9991TIP3    H251465   1.677   4.455   3.770
 9992TIP3   OH251466   6.565   5.805  12.558
 9992TIP3    H151467   6.617   5.839  12.630
 9992TIP3    H251468   6.502   5.746  12.601
 9993TIP3   OH251469   5.528   3.979  11.374
 9993TIP3    H151470   5.594   4.000  11.308
 9993TIP3    H251471   5.522   3.883  11.371
 9994TIP3   OH251472   5.661   1.794   5.435
 9994TIP3    H151473   5.592   1.825   5.494
 9994TIP3    H251474   5.683   1.707   5.469
 9995TIP3   OH251475   2.124   2.860  15.186
 9995TIP3    H151476   2.081   2.845  15.270
 9995TIP3    H251477   2.217   2.845  15.204
 9996TIP3   OH251478   0.078   0.659   6.949
 9996TIP3    H151479   0.101   0.639   7.039
 9996TIP3    H251480   0.163   0.668   6.904
 9997TIP3   OH251481   0.009   2.911   4.975
 9997TIP3    H151482  -0.029   2.954   4.898
 9997TIP3    H251483   0.101   2.897   4.952
 9998TIP3   OH251484   4.086   1.037   0.352
 9998TIP3    H151485   4.080   0.956   0.401
 9998TIP3    H251486   3.999   1.076   0.359
 9999TIP3   OH251487   3.815   4.339   5.373
 9999TIP3    H151488   3.818   4.430   5.342
 9999TIP3    H251489   3.725   4.327   5.403
10000TIP3   OH251490   1.405   2.677  15.863
10000TIP3    H151491   1.339   2.623  15.908
10000TIP3    H251492   1.358   2.713  15.788
10001TIP3   OH251493   6.363   2.255  12.611
10001TIP3    H151494   6.278   2.214  12.629
10001TIP3    H251495   6.352   2.346  12.638
10002TIP3   OH251496   6.159   3.852  15.704
10002TIP3    H151497   6.143   3.797  15.627
10002TIP3    H251498   6.242   3.820  15.739
10003TIP3   OH251499   3.820   0.179  12.273
10003TIP3    H151500   3.805   0.129  12.192
10003TIP3    H251501   3.914   0.173  12.288
10004TIP3   OH251502   3.539   1.667   5.477
10004TIP3    H151503   3.553   1.761   5.464
10004TIP3    H251504   3.513   1.635   5.391
10005TIP3   OH251505   6.249   2.055   1.846
10005TIP3    H151506   6.218   1.990   1.783
10005TIP3    H251507   6.242   2.012   1.931
10006TIP3   OH251508   2.842   6.616  14.962
10006TIP3    H151509   2.850   6.710  14.979
10006TIP3    H251510   2.801   6.582  15.041
10007TIP3   OH251511   0.009   3.956   4.277
10007TIP3    H151512  -0.010   4.006   4.356
10007TIP3    H251513   0.057   3.879   4.308
10008TIP3   OH251514   3.430   2.960   2.617
10008TIP3    H151515   3.357   2.939   2.676
10008TIP3    H251516   3.503   2.909   2.651
10009TIP3   OH251517   3.638   6.373  15.695
10009TIP3    H151518   3.549   6.403  15.678
10009TIP3    H251519   3.690   6.411  15.624
10010TIP3   OH251520   0.226   6.491   5.438
10010TIP3    H151521   0.164   6.461   5.505
10010TIP3    H251522   0.293   6.539   5.486
10011TIP3   OH251523   0.678   5.557   0.781
10011TIP3    H151524   0.717   5.641   0.759
10011TIP3    H251525   0.702   5.542   0.873
10012TIP3   OH251526   1.815   2.016  13.426
10012TIP3    H151527   1.899   1.971  13.440
10012TIP3    H251528   1.821   2.095  13.480
10013TIP3   OH251529   1.871   4.025   6.458
10013TIP3    H151530   1.883   3.953   6.520
10013TIP3    H251531   1.954   4.072   6.461
10014TIP3   OH251532   1.353   3.849  14.412
10014TIP3    H151533   1.433   3.797  14.413
10014TIP3    H251534   1.284   3.785  14.395
10015TIP3   OH251535   2.452   0.949  14.033
10015TIP3    H151536   2.499   0.910  14.106
10015TIP3    H251537   2.450   1.043  14.053
10016TIP3   OH251538   6.058   5.023  16.855
10016TIP3    H151539   6.123   4.976  16.906
10016TIP3    H251540   6.067   4.989  16.766
10017TIP3   OH251541   4.170   0.938   1.517
10017TIP3    H151542   4.219   0.892   1.585
10017TIP3    H251543   4.114   0.870   1.478
10018TIP3   OH251544   5.136   4.747   4.283
10018TIP3    H151545   5.070   4.686   4.250
10018TIP3    H251546   5.116   4.756   4.376
10019TIP3   OH251547   1.718   0.027  11.790
10019TIP3    H151548   1.670   0.109  11.783
10019TIP3    H251549   1.810   0.053  11.792
10020TIP3   OH251550   2.905   1.558  11.276
10020TIP3    H151551   2.821   1.552  11.231
10020TIP3    H251552   2.946   1.637  11.241
10021TIP3   OH251553   3.301   1.112  14.646
10021TIP3    H151554   3.302   1.054  14.722
10021TIP3    H251555   3.385   1.158  14.650
10022TIP3   OH251556   3.241   4.092   1.919
10022TIP3    H151557   3.280   4.073   2.005
10022TIP3    H251558   3.271   4.181   1.899
10023TIP3   OH251559   0.228   0.416   0.758
10023TIP3    H151560   0.239   0.377   0.845
10023TIP3    H251561   0.165   0.359   0.714
10024TIP3   OH251562   2.624   5.208   2.970
10024TIP3    H151563   2.557   5.152   3.009
10024TIP3    H251564   2.593   5.225   2.881
10025TIP3   OH251565   3.393   3.335   2.681
10025TIP3    H151566   3.357   3.422   2.663
10025TIP3    H251567   3.320   3.286   2.717
10026TIP3   OH251568   4.398   6.121   2.892
10026TIP3    H151569   4.467   6.059   2.913
10026TIP3    H251570   4.358   6.143   2.976
10027TIP3   OH251571   0.468   6.586   5.510
10027TIP3    H151572   0.481   6.679   5.490
10027TIP3    H251573   0.488   6.541   5.427
10028TIP3   OH251574   6.117   0.886  14.189
10028TIP3    H151575   6.149   0.878  14.279
10028TIP3    H251576   6.163   0.817  14.141
10029TIP3   OH251577   1.424   6.153  15.369
10029TIP3    H151578   1.416   6.093  15.443
10029TIP3    H251579   1.423   6.240  15.409
10030TIP3   OH251580   5.497   1.750   0.454
10030TIP3    H151581   5.417   1.697   0.460
10030TIP3    H251582   5.557   1.697   0.401
10031TIP3   OH251583   6.301   5.113   0.805
10031TIP3    H151584   6.224   5.110   0.749
10031TIP3    H251585   6.375   5.122   0.743
10032TIP3   OH251586   4.195   6.242  16.283
10032TIP3    H151587   4.128   6.258  16.216
10032TIP3    H251588   4.258   6.184  16.240
10033TIP3   OH251589   6.148   0.603   3.788
10033TIP3    H151590   6.230   0.613   3.740
10033TIP3    H251591   6.083   0.647   3.733
10034TIP3   OH251592   1.258   5.358  15.498
10034TIP3    H151593   1.278   5.279  15.447
10034TIP3    H251594   1.334   5.414  15.487
10035TIP3   OH251595   6.619   6.144   5.048
10035TIP3    H151596   6.606   6.214   4.984
10035TIP3    H251597   6.696   6.097   5.018
10036TIP3   OH251598   5.303   2.413  15.001
10036TIP3    H151599   5.381   2.392  15.052
10036TIP3    H251600   5.242   2.451  15.065
10037TIP3   OH251601   6.419   5.139   3.952
10037TIP3    H151602   6.364   5.216   3.944
10037TIP3    H251603   6.403   5.107   4.041
10038TIP3   OH251604   3.294   0.272  17.220
10038TIP3    H151605   3.280   0.274  17.125
10038TIP3    H251606   3.302   0.364  17.245
10039TIP3   OH251607   1.833   0.164  14.158
10039TIP3    H151608   1.877   0.242  14.190
10039TIP3    H251609   1.740   0.183  14.168
10040TIP3   OH251610   4.281   1.516   0.884
10040TIP3    H151611   4.239   1.556   0.960
10040TIP3    H251612   4.285   1.585   0.819
10041TIP3   OH251613   1.845   2.930  16.726
10041TIP3    H151614   1.850   3.025  16.722
10041TIP3    H251615   1.837   2.902  16.635
10042TIP3   OH251616   5.479   1.706  14.982
10042TIP3    H151617   5.449   1.761  15.054
10042TIP3    H251618   5.553   1.754  14.945
10043TIP3   OH251619   3.653   0.102  11.172
10043TIP3    H151620   3.741   0.118  11.207
10043TIP3    H251621   3.667   0.049  11.094
10044TIP3   OH251622   2.490   2.895   6.139
10044TIP3    H151623   2.409   2.946   6.136
10044TIP3    H251624   2.482   2.841   6.217
10045TIP3   OH251625   4.283   5.264   2.232
10045TIP3    H151626   4.357   5.219   2.272
10045TIP3    H251627   4.220   5.194   2.212
10046TIP3   OH251628   0.217   3.589   0.905
10046TIP3    H151629   0.150   3.647   0.870
10046TIP3    H251630   0.234   3.621   0.994
10047TIP3   OH251631   6.712   4.499   5.202
10047TIP3    H151632   6.696   4.541   5.287
10047TIP3    H251633   6.792   4.541   5.170
10048TIP3   OH251634   3.941   2.687  16.146
10048TIP3    H151635   3.974   2.771  16.180
10048TIP3    H251636   4.012   2.625  16.163
10049TIP3   OH251637   2.471   6.331   5.541
10049TIP3    H151638   2.451   6.299   5.453
10049TIP3    H251639   2.389   6.372   5.571
10050TIP3   OH251640   3.943   6.327   0.691
10050TIP3    H151641   3.872   6.276   0.731
10050TIP3    H251642   3.955   6.402   0.749
10051TIP3   OH251643   5.471   2.154   4.150
10051TIP3    H151644   5.563   2.178   4.142
10051TIP3    H251645   5.424   2.238   4.150
10052TIP3   OH251646   6.172   2.626  16.074
10052TIP3    H151647   6.236   2.685  16.035
10052TIP3    H251648   6.222   2.577  16.140
10053TIP3   OH251649   1.377   5.824  14.349
10053TIP3    H151650   1.290   5.785  14.349
10053TIP3    H251651   1.361   5.917  14.328
10054TIP3   OH251652   1.338   0.356   2.101
10054TIP3    H151653   1.345   0.423   2.033
10054TIP3    H251654   1.246   0.331   2.101
10055TIP3   OH251655   0.338   2.928  12.623
10055TIP3    H151656   0.431   2.926  12.647
10055TIP3    H251657   0.292   2.895  12.700
10056TIP3   OH251658   1.474   0.584   0.808
10056TIP3    H151659   1.518   0.634   0.876
10056TIP3    H251660   1.531   0.591   0.732
10057TIP3   OH251661   4.423   6.781  16.097
10057TIP3    H151662   4.373   6.778  16.016
10057TIP3    H251663   4.391   6.706  16.147
10058TIP3   OH251664   3.077   4.300   1.324
10058TIP3    H151665   3.140   4.228   1.318
10058TIP3    H251666   2.996   4.263   1.288
10059TIP3   OH251667   5.600   0.320   2.145
10059TIP3    H151668   5.604   0.410   2.179
10059TIP3    H251669   5.606   0.265   2.223
10060TIP3   OH251670   4.271   6.319  12.139
10060TIP3    H151671   4.305   6.408  12.134
10060TIP3    H251672   4.349   6.264  12.148
10061TIP3   OH251673   4.397   6.014  17.027
10061TIP3    H151674   4.311   6.043  16.998
10061TIP3    H251675   4.453   6.091  17.021
10062TIP3   OH251676   6.275   0.230   6.464
10062TIP3    H151677   6.219   0.173   6.517
10062TIP3    H251678   6.244   0.218   6.374
10063TIP3   OH251679   3.074   1.325   2.411
10063TIP3    H151680   3.149   1.323   2.351
10063TIP3    H251681   3.104   1.378   2.484
10064TIP3   OH251682   3.907   0.735  15.073
10064TIP3    H151683   3.986   0.765  15.027
10064TIP3    H251684   3.880   0.809  15.126
10065TIP3   OH251685   0.005   5.416   0.042
10065TIP3    H151686   0.067   5.343   0.035
10065TIP3    H251687   0.061   5.494   0.046
10066TIP3   OH251688   6.030   5.601  15.960
10066TIP3    H151689   6.042   5.613  15.866
10066TIP3    H251690   6.020   5.507  15.971
10067TIP3   OH251691   5.438   1.396  12.536
10067TIP3    H151692   5.472   1.363  12.619
10067TIP3    H251693   5.450   1.323  12.475
10068TIP3   OH251694   6.704   3.994   3.750
10068TIP3    H151695   6.792   3.998   3.785
10068TIP3    H251696   6.690   4.080   3.709
10069TIP3   OH251697   6.791   0.459  12.397
10069TIP3    H151698   6.747   0.508  12.466
10069TIP3    H251699   6.771   0.367  12.416
10070TIP3   OH251700   6.626   4.400  15.648
10070TIP3    H151701   6.692   4.429  15.711
10070TIP3    H251702   6.586   4.323  15.690
10071TIP3   OH251703   2.741   4.621  15.256
10071TIP3    H151704   2.655   4.663  15.245
10071TIP3    H251705   2.732   4.537  15.212
10072TIP3   OH251706   4.968   2.889   5.830
10072TIP3    H151707   4.975   2.855   5.919
10072TIP3    H251708   4.953   2.983   5.842
10073TIP3   OH251709   4.312   5.847   1.407
10073TIP3    H151710   4.390   5.796   1.430
10073TIP3    H251711   4.266   5.857   1.490
10074TIP3   OH251712   4.187   3.554   3.546
10074TIP3    H151713   4.256   3.612   3.579
10074TIP3    H251714   4.133   3.610   3.490
10075TIP3   OH251715   6.714   2.064  17.018
10075TIP3    H151716   6.765   2.142  17.039
10075TIP3    H251717   6.778   2.001  16.984
10076TIP3   OH251718   0.710   1.433   3.147
10076TIP3    H151719   0.670   1.378   3.080
10076TIP3    H251720   0.680   1.396   3.230
10077TIP3   OH251721   0.289   6.029  14.645
10077TIP3    H151722   0.233   6.073  14.710
10077TIP3    H251723   0.281   5.936  14.666
10078TIP3   OH251724   6.336   0.235  13.569
10078TIP3    H151725   6.295   0.291  13.504
10078TIP3    H251726   6.393   0.293  13.620
10079TIP3   OH251727   6.148   3.510  15.212
10079TIP3    H151728   6.153   3.428  15.164
10079TIP3    H251729   6.057   3.539  15.201
10080TIP3   OH251730   3.328   6.461  14.888
10080TIP3    H151731   3.233   6.473  14.892
10080TIP3    H251732   3.363   6.537  14.933
10081TIP3   OH251733   4.374   2.928   2.303
10081TIP3    H151734   4.410   2.978   2.377
10081TIP3    H251735   4.312   2.987   2.262
10082TIP3   OH251736   0.030   6.114  14.047
10082TIP3    H151737   0.048   6.187  13.988
10082TIP3    H251738   0.049   6.036  13.995
10083TIP3   OH251739   0.867   2.277  14.908
10083TIP3    H151740   0.929   2.308  14.974
10083TIP3    H251741   0.789   2.252  14.957
10084TIP3   OH251742   1.583   4.944   4.299
10084TIP3    H151743   1.505   4.911   4.254
10084TIP3    H251744   1.550   4.984   4.379
10085TIP3   OH251745   5.030   3.224  16.094
10085TIP3    H151746   5.056   3.158  16.157
10085TIP3    H251747   5.106   3.281  16.085
10086TIP3   OH251748   3.728   0.527  15.185
10086TIP3    H151749   3.721   0.543  15.279
10086TIP3    H251750   3.793   0.591  15.155
10087TIP3   OH251751   3.431   1.325   1.973
10087TIP3    H151752   3.344   1.358   1.949
10087TIP3    H251753   3.426   1.307   2.067
10088TIP3   OH251754   0.516   6.332   2.436
10088TIP3    H151755   0.485   6.410   2.390
10088TIP3    H251756   0.500   6.351   2.529
10089TIP3   OH251757   1.077   4.873   2.413
10089TIP3    H151758   0.986   4.887   2.389
10089TIP3    H251759   1.075   4.850   2.506
10090TIP3   OH251760   1.146   1.170   0.039
10090TIP3    H151761   1.208   1.200  -0.028
10090TIP3    H251762   1.092   1.104  -0.005
10091TIP3   OH251763   1.178   1.980   4.971
10091TIP3    H151764   1.263   1.993   4.929
10091TIP3    H251765   1.121   1.946   4.902
10092TIP3   OH251766   3.322   3.806  13.305
10092TIP3    H151767   3.398   3.848  13.265
10092TIP3    H251768   3.353   3.721  13.335
10093TIP3   OH251769   3.230   4.858  12.770
10093TIP3    H151770   3.184   4.775  12.783
10093TIP3    H251771   3.313   4.833  12.731
10094TIP3   OH251772   1.610   4.241   1.752
10094TIP3    H151773   1.633   4.297   1.826
10094TIP3    H251774   1.520   4.267   1.730
10095TIP3   OH251775   4.342   1.205  12.740
10095TIP3    H151776   4.283   1.235  12.809
10095TIP3    H251777   4.416   1.167  12.786
10096TIP3   OH251778   0.779   1.758  15.930
10096TIP3    H151779   0.861   1.807  15.935
10096TIP3    H251780   0.721   1.815  15.879
10097TIP3   OH251781   0.747   3.263   4.998
10097TIP3    H151782   0.780   3.352   4.992
10097TIP3    H251783   0.662   3.266   4.953
10098TIP3   OH251784   1.092   0.408   6.419
10098TIP3    H151785   1.093   0.331   6.476
10098TIP3    H251786   1.016   0.458   6.448
10099TIP3   OH251787   3.572   3.322  12.523
10099TIP3    H151788   3.509   3.360  12.462
10099TIP3    H251789   3.658   3.346  12.487
10100TIP3   OH251790   0.047   3.051   5.452
10100TIP3    H151791   0.027   3.116   5.518
10100TIP3    H251792   0.077   2.974   5.501
10101TIP3   OH251793   5.725   4.293  12.992
10101TIP3    H151794   5.803   4.244  13.017
10101TIP3    H251795   5.659   4.267  13.057
10102TIP3   OH251796   6.154   4.384   4.171
10102TIP3    H151797   6.081   4.322   4.166
10102TIP3    H251798   6.217   4.353   4.106
10103TIP3   OH251799   2.164   2.364  11.388
10103TIP3    H151800   2.229   2.388  11.454
10103TIP3    H251801   2.105   2.304  11.433
10104TIP3   OH251802   2.271   0.237  10.855
10104TIP3    H151803   2.357   0.207  10.883
10104TIP3    H251804   2.282   0.255  10.761
10105TIP3   OH251805   5.939   4.314  12.145
10105TIP3    H151806   5.929   4.386  12.084
10105TIP3    H251807   5.956   4.237  12.090
10106TIP3   OH251808   3.679   3.771  15.458
10106TIP3    H151809   3.695   3.681  15.485
10106TIP3    H251810   3.685   3.822  15.539
10107TIP3   OH251811   1.023   6.781  12.677
10107TIP3    H151812   1.103   6.729  12.668
10107TIP3    H251813   1.039   6.834  12.756
10108TIP3   OH251814   0.989   0.658  16.792
10108TIP3    H151815   0.918   0.595  16.805
10108TIP3    H251816   1.068   0.604  16.791
10109TIP3   OH251817   4.516   2.611  13.652
10109TIP3    H151818   4.529   2.703  13.632
10109TIP3    H251819   4.462   2.578  13.581
10110TIP3   OH251820   4.948   6.155   4.107
10110TIP3    H151821   4.936   6.229   4.167
10110TIP3    H251822   4.923   6.078   4.158
10111TIP3   OH251823   0.218   2.935  13.321
10111TIP3    H151824   0.249   2.865  13.264
10111TIP3    H251825   0.205   3.010  13.263
10112TIP3   OH251826   4.941   6.700   5.433
10112TIP3    H151827   4.871   6.643   5.466
10112TIP3    H251828   5.012   6.640   5.410
10113TIP3   OH251829   5.197   2.002   1.201
10113TIP3    H151830   5.230   1.951   1.275
10113TIP3    H251831   5.173   1.936   1.136
10114TIP3   OH251832   4.076   0.615   1.770
10114TIP3    H151833   4.069   0.639   1.863
10114TIP3    H251834   4.088   0.520   1.770
10115TIP3   OH251835   4.640   1.293   2.650
10115TIP3    H151836   4.671   1.281   2.561
10115TIP3    H251837   4.718   1.283   2.705
10116TIP3   OH251838   4.410   4.781   0.088
10116TIP3    H151839   4.336   4.832   0.054
10116TIP3    H251840   4.391   4.691   0.063
10117TIP3   OH251841   3.390   0.539  16.866
10117TIP3    H151842   3.313   0.596  16.864
10117TIP3    H251843   3.354   0.450  16.862
10118TIP3   OH251844   3.627   6.134  12.215
10118TIP3    H151845   3.698   6.075  12.191
10118TIP3    H251846   3.576   6.086  12.280
10119TIP3   OH251847   1.012   3.258   4.794
10119TIP3    H151848   1.067   3.181   4.804
10119TIP3    H251849   0.937   3.241   4.850
10120TIP3   OH251850   2.941   2.544   2.097
10120TIP3    H151851   2.915   2.579   2.182
10120TIP3    H251852   2.906   2.606   2.034
10121TIP3   OH251853   3.055   2.257  14.941
10121TIP3    H151854   3.037   2.166  14.965
10121TIP3    H251855   3.080   2.252  14.849
10122TIP3   OH251856   6.748   2.983   2.095
10122TIP3    H151857   6.809   3.054   2.112
10122TIP3    H251858   6.752   2.929   2.174
10123TIP3   OH251859   4.643   2.571   5.283
10123TIP3    H151860   4.679   2.651   5.246
10123TIP3    H251861   4.685   2.501   5.235
10124TIP3   OH251862   5.755   4.823  13.491
10124TIP3    H151863   5.783   4.746  13.441
10124TIP3    H251864   5.819   4.830  13.562
10125TIP3   OH251865   5.152   2.906   5.577
10125TIP3    H151866   5.155   2.933   5.669
10125TIP3    H251867   5.231   2.853   5.565
10126TIP3   OH251868   2.565   5.314  10.854
10126TIP3    H151869   2.521   5.244  10.902
10126TIP3    H251870   2.632   5.269  10.802
10127TIP3   OH251871   2.475   5.932   1.155
10127TIP3    H151872   2.534   5.866   1.191
10127TIP3    H251873   2.444   5.894   1.073
10128TIP3   OH251874   5.586   2.003  15.370
10128TIP3    H151875   5.646   2.076  15.358
10128TIP3    H251876   5.579   1.964  15.283
10129TIP3   OH251877   0.070   1.389   3.838
10129TIP3    H151878   0.047   1.430   3.754
10129TIP3    H251879   0.131   1.451   3.878
10130TIP3   OH251880   6.435   3.346   4.842
10130TIP3    H151881   6.467   3.351   4.932
10130TIP3    H251882   6.350   3.390   4.845
10131TIP3   OH251883   3.299   2.200  16.931
10131TIP3    H151884   3.286   2.152  16.849
10131TIP3    H251885   3.323   2.132  16.995
10132TIP3   OH251886   1.108   2.170  11.876
10132TIP3    H151887   1.104   2.205  11.787
10132TIP3    H251888   1.020   2.184  11.911
10133TIP3   OH251889   2.499   4.574   5.168
10133TIP3    H151890   2.568   4.605   5.227
10133TIP3    H251891   2.510   4.626   5.089
10134TIP3   OH251892   1.201   4.725  14.755
10134TIP3    H151893   1.187   4.778  14.676
10134TIP3    H251894   1.134   4.757  14.816
10135TIP3   OH251895   3.022   6.804   2.198
10135TIP3    H151896   2.996   6.892   2.223
10135TIP3    H251897   3.117   6.807   2.193
10136TIP3   OH251898   1.431   1.950   1.591
10136TIP3    H151899   1.426   1.887   1.519
10136TIP3    H251900   1.494   1.912   1.652
10137TIP3   OH251901   5.813   0.689  14.802
10137TIP3    H151902   5.825   0.745  14.725
10137TIP3    H251903   5.832   0.746  14.877
10138TIP3   OH251904   4.310   4.128   5.966
10138TIP3    H151905   4.320   4.084   6.051
10138TIP3    H251906   4.232   4.183   5.978
10139TIP3   OH251907   4.662   2.647   1.999
10139TIP3    H151908   4.667   2.558   2.033
10139TIP3    H251909   4.578   2.650   1.953
10140TIP3   OH251910   2.296   6.320   0.889
10140TIP3    H151911   2.267   6.282   0.806
10140TIP3    H251912   2.245   6.273   0.955
10141TIP3   OH251913   0.375   3.062  15.659
10141TIP3    H151914   0.429   2.994  15.700
10141TIP3    H251915   0.433   3.105  15.596
10142TIP3   OH251916   1.756   4.042  11.165
10142TIP3    H151917   1.786   4.005  11.082
10142TIP3    H251918   1.837   4.059  11.214
10143TIP3   OH251919   0.718   3.210   0.711
10143TIP3    H151920   0.678   3.244   0.632
10143TIP3    H251921   0.808   3.189   0.685
10144TIP3   OH251922   3.152   4.759   2.623
10144TIP3    H151923   3.104   4.784   2.544
10144TIP3    H251924   3.099   4.691   2.663
10145TIP3   OH251925   5.624   4.353   2.668
10145TIP3    H151926   5.645   4.269   2.627
10145TIP3    H251927   5.547   4.384   2.620
10146TIP3   OH251928   0.458   2.397   1.632
10146TIP3    H151929   0.404   2.324   1.602
10146TIP3    H251930   0.548   2.369   1.614
10147TIP3   OH251931   0.031   2.012  11.426
10147TIP3    H151932   0.016   2.037  11.335
10147TIP3    H251933  -0.054   2.025  11.469
10148TIP3   OH251934   1.252   3.878   1.306
10148TIP3    H151935   1.297   3.825   1.372
10148TIP3    H251936   1.163   3.843   1.303
10149TIP3   OH251937   2.741   3.044  14.121
10149TIP3    H151938   2.646   3.046  14.113
10149TIP3    H251939   2.766   3.135  14.137
10150TIP3   OH251940   5.439   4.893  10.781
10150TIP3    H151941   5.402   4.824  10.726
10150TIP3    H251942   5.363   4.941  10.814
10151TIP3   OH251943   2.651   1.239  11.511
10151TIP3    H151944   2.705   1.317  11.504
10151TIP3    H251945   2.613   1.228  11.424
10152TIP3   OH251946   5.800   1.026  12.155
10152TIP3    H151947   5.716   0.996  12.121
10152TIP3    H251948   5.784   1.116  12.184
10153TIP3   OH251949   6.577   2.703  11.360
10153TIP3    H151950   6.605   2.703  11.451
10153TIP3    H251951   6.581   2.611  11.334
10154TIP3   OH251952   6.026   1.545   0.969
10154TIP3    H151953   5.968   1.501   0.906
10154TIP3    H251954   6.081   1.475   1.003
10155TIP3   OH251955   0.458   0.960  11.489
10155TIP3    H151956   0.510   1.029  11.448
10155TIP3    H251957   0.369   0.997  11.493
10156TIP3   OH251958   0.357   1.217  14.987
10156TIP3    H151959   0.377   1.290  14.928
10156TIP3    H251960   0.418   1.228  15.060
10157TIP3   OH251961   5.301   0.825   0.083
10157TIP3    H151962   5.283   0.736   0.052
10157TIP3    H251963   5.321   0.874   0.004
10158TIP3   OH251964   2.807   1.591  16.059
10158TIP3    H151965   2.739   1.587  15.991
10158TIP3    H251966   2.876   1.644  16.020
10159TIP3   OH251967   3.197   1.963   4.093
10159TIP3    H151968   3.206   1.897   4.162
10159TIP3    H251969   3.166   1.915   4.017
10160TIP3   OH251970   6.324   6.370  15.228
10160TIP3    H151971   6.251   6.313  15.204
10160TIP3    H251972   6.283   6.453  15.252
10161TIP3   OH251973   0.724   6.711   0.640
10161TIP3    H151974   0.673   6.710   0.559
10161TIP3    H251975   0.816   6.707   0.611
10162TIP3   OH251976   1.132   5.399   5.138
10162TIP3    H151977   1.142   5.320   5.192
10162TIP3    H251978   1.046   5.390   5.098
10163TIP3   OH251979   0.944   6.476   5.666
10163TIP3    H151980   0.983   6.416   5.603
10163TIP3    H251981   0.892   6.536   5.612
10164TIP3   OH251982   4.703   0.279  13.094
10164TIP3    H151983   4.743   0.213  13.151
10164TIP3    H251984   4.659   0.340  13.154
10165TIP3   OH251985   1.865   0.517  16.893
10165TIP3    H151986   1.778   0.483  16.874
10165TIP3    H251987   1.882   0.490  16.983
10166TIP3   OH251988   3.029   1.311  15.916
10166TIP3    H151989   3.110   1.356  15.940
10166TIP3    H251990   2.965   1.342  15.980
10167TIP3   OH251991   0.264   5.265   1.537
10167TIP3    H151992   0.269   5.173   1.510
10167TIP3    H251993   0.174   5.291   1.515
10168TIP3   OH251994   1.764   0.287  15.386
10168TIP3    H151995   1.701   0.227  15.426
10168TIP3    H251996   1.810   0.234  15.321
10169TIP3   OH251997   6.481   4.922  13.378
10169TIP3    H151998   6.480   5.017  13.395
10169TIP3    H251999   6.396   4.906  13.336
10170TIP3   OH252000   1.203   0.698  14.836
10170TIP3    H152001   1.138   0.750  14.788
10170TIP3    H252002   1.153   0.622  14.867
10171TIP3   OH252003   1.050   2.430   5.758
10171TIP3    H152004   0.987   2.447   5.828
10171TIP3    H252005   1.093   2.349   5.783
10172TIP3   OH252006   2.212   5.741   5.517
10172TIP3    H152007   2.197   5.648   5.499
10172TIP3    H252008   2.253   5.742   5.604
10173TIP3   OH252009   4.378   6.709  15.797
10173TIP3    H152010   4.342   6.762  15.725
10173TIP3    H252011   4.301   6.671  15.840
10174TIP3   OH252012   4.756   2.930  15.441
10174TIP3    H152013   4.735   3.015  15.403
10174TIP3    H252014   4.799   2.882  15.370
10175TIP3   OH252015   1.536   5.495   5.200
10175TIP3    H152016   1.588   5.493   5.280
10175TIP3    H252017   1.463   5.553   5.222
10176TIP3   OH252018   0.519   0.546   0.434
10176TIP3    H152019   0.520   0.583   0.523
10176TIP3    H252020   0.589   0.592   0.388
10177TIP3   OH252021   4.099   0.965   3.139
10177TIP3    H152022   4.012   0.951   3.175
10177TIP3    H252023   4.095   0.926   3.052
10178TIP3   OH252024   3.651   4.777   1.308
10178TIP3    H152025   3.579   4.838   1.322
10178TIP3    H252026   3.636   4.741   1.221
10179TIP3   OH252027   4.084   0.257   2.547
10179TIP3    H152028   4.052   0.189   2.606
10179TIP3    H252029   4.127   0.320   2.605
10180TIP3   OH252030   3.859   0.231  16.200
10180TIP3    H152031   3.948   0.233  16.235
10180TIP3    H252032   3.832   0.323  16.197
10181TIP3   OH252033   5.572   0.593   5.069
10181TIP3    H152034   5.546   0.550   5.150
10181TIP3    H252035   5.528   0.678   5.073
10182TIP3   OH252036   3.834   1.104   6.098
10182TIP3    H152037   3.925   1.133   6.105
10182TIP3    H252038   3.836   1.014   6.130
10183TIP3   OH252039   2.676   3.449  10.346
10183TIP3    H152040   2.751   3.389  10.343
10183TIP3    H252041   2.704   3.525  10.295
10184TIP3   OH252042   1.187   3.959   5.126
10184TIP3    H152043   1.282   3.967   5.119
10184TIP3    H252044   1.173   3.904   5.203
10185TIP3   OH252045   4.954   5.076  14.404
10185TIP3    H152046   5.003   4.995  14.420
10185TIP3    H252047   4.975   5.132  14.479
10186TIP3   OH252048   2.717   1.238  14.420
10186TIP3    H152049   2.701   1.167  14.482
10186TIP3    H252050   2.747   1.311  14.475
10187TIP3   OH252051   1.799   5.169   3.899
10187TIP3    H152052   1.740   5.168   3.974
10187TIP3    H252053   1.884   5.193   3.936
10188TIP3   OH252054   1.829   3.078   6.034
10188TIP3    H152055   1.896   3.092   5.968
10188TIP3    H252056   1.750   3.057   5.984
10189TIP3   OH252057   3.684   5.114   4.599
10189TIP3    H152058   3.730   5.080   4.522
10189TIP3    H252059   3.734   5.191   4.624
10190TIP3   OH252060   5.611   1.008  17.147
10190TIP3    H152061   5.600   1.101  17.129
10190TIP3    H252062   5.694   0.985  17.104
10191TIP3   OH252063   1.954   5.406   1.571
10191TIP3    H152064   1.916   5.430   1.487
10191TIP3    H252065   2.046   5.388   1.551
10192TIP3   OH252066   5.329   2.881  14.795
10192TIP3    H152067   5.245   2.874  14.840
10192TIP3    H252068   5.309   2.864  14.703
10193TIP3   OH252069   3.672   4.466   5.062
10193TIP3    H152070   3.691   4.479   4.969
10193TIP3    H252071   3.598   4.405   5.063
10194TIP3   OH252072   2.994   6.691  12.649
10194TIP3    H152073   2.940   6.682  12.728
10194TIP3    H252074   3.078   6.723  12.681
10195TIP3   OH252075   5.080   2.321   0.373
10195TIP3    H152076   5.071   2.227   0.360
10195TIP3    H252077   5.004   2.359   0.328
10196TIP3   OH252078   5.378   0.993   4.070
10196TIP3    H152079   5.344   0.912   4.108
10196TIP3    H252080   5.331   1.063   4.115
10197TIP3   OH252081   3.012   1.387  15.086
10197TIP3    H152082   3.098   1.398  15.045
10197TIP3    H252083   2.987   1.476  15.112
10198TIP3   OH252084   4.079   6.310   4.030
10198TIP3    H152085   4.058   6.403   4.021
10198TIP3    H252086   3.994   6.266   4.036
10199TIP3   OH252087   0.150   4.224  16.196
10199TIP3    H152088   0.158   4.277  16.276
10199TIP3    H252089   0.217   4.157  16.206
10200TIP3   OH252090   1.522   6.099  12.978
10200TIP3    H152091   1.492   6.179  12.936
10200TIP3    H252092   1.444   6.062  13.019
10201TIP3   OH252093   1.610   0.878   2.024
10201TIP3    H152094   1.588   0.968   2.046
10201TIP3    H252095   1.621   0.878   1.929
10202TIP3   OH252096   6.597   3.625  15.176
10202TIP3    H152097   6.681   3.585  15.154
10202TIP3    H252098   6.534   3.584  15.117
10203TIP3   OH252099   4.789   5.521  10.643
10203TIP3    H152100   4.851   5.453  10.619
10203TIP3    H252101   4.714   5.473  10.678
10204TIP3   OH252102   3.536   1.970  10.595
10204TIP3    H152103   3.569   1.989  10.683
10204TIP3    H252104   3.520   1.875  10.596
10205TIP3   OH252105   0.971   6.527  16.385
10205TIP3    H152106   1.029   6.464  16.343
10205TIP3    H252107   0.976   6.506  16.478
10206TIP3   OH252108   0.808   5.736   5.790
10206TIP3    H152109   0.808   5.761   5.698
10206TIP3    H252110   0.849   5.649   5.791
10207TIP3   OH252111   5.781   1.540  16.099
10207TIP3    H152112   5.833   1.555  16.177
10207TIP3    H252113   5.709   1.483  16.128
10208TIP3   OH252114   3.473   3.754   3.525
10208TIP3    H152115   3.426   3.678   3.558
10208TIP3    H252116   3.503   3.799   3.604
10209TIP3   OH252117   3.720   1.946   1.941
10209TIP3    H152118   3.698   1.877   1.878
10209TIP3    H252119   3.666   2.020   1.915
10210TIP3   OH252120   1.072   3.676   4.542
10210TIP3    H152121   1.137   3.611   4.517
10210TIP3    H252122   0.998   3.660   4.484
10211TIP3   OH252123   1.549   4.973   5.367
10211TIP3    H152124   1.553   5.065   5.342
10211TIP3    H252125   1.584   4.926   5.291
10212TIP3   OH252126   4.140   3.193   3.980
10212TIP3    H152127   4.049   3.220   3.992
10212TIP3    H252128   4.175   3.253   3.914
10213TIP3   OH252129   1.927   3.236   3.112
10213TIP3    H152130   1.926   3.286   3.031
10213TIP3    H252131   1.852   3.268   3.162
10214TIP3   OH252132   5.506   1.567  13.115
10214TIP3    H152133   5.566   1.629  13.156
10214TIP3    H252134   5.563   1.508  13.065
10215TIP3   OH252135   4.052   1.558  16.381
10215TIP3    H152136   3.999   1.547  16.461
10215TIP3    H252137   4.138   1.583  16.413
10216TIP3   OH252138   3.227   4.242   2.426
10216TIP3    H152139   3.189   4.254   2.339
10216TIP3    H252140   3.183   4.164   2.460
10217TIP3   OH252141   5.407   6.793  15.586
10217TIP3    H152142   5.454   6.870  15.556
10217TIP3    H252143   5.328   6.827  15.629
10218TIP3   OH252144   0.051   3.062  13.508
10218TIP3    H152145   0.104   2.983  13.501
10218TIP3    H252146   0.023   3.079  13.418
10219TIP3   OH252147   2.595   3.058  13.669
10219TIP3    H152148   2.553   3.143  13.683
10219TIP3    H252149   2.556   3.001  13.736
10220TIP3   OH252150   5.378   3.069  13.652
10220TIP3    H152151   5.429   3.143  13.685
10220TIP3    H252152   5.287   3.090  13.675
10221TIP3   OH252153   3.510   4.287   5.166
10221TIP3    H152154   3.526   4.296   5.260
10221TIP3    H252155   3.516   4.192   5.150
10222TIP3   OH252156   0.182   5.833  12.909
10222TIP3    H152157   0.175   5.766  12.977
10222TIP3    H252158   0.145   5.912  12.949
10223TIP3   OH252159   1.671   0.605  12.790
10223TIP3    H152160   1.649   0.680  12.846
10223TIP3    H252161   1.761   0.623  12.761
10224TIP3   OH252162   0.837   4.993  11.173
10224TIP3    H152163   0.827   5.011  11.079
10224TIP3    H252164   0.882   4.908  11.176
10225TIP3   OH252165   5.407   5.349  15.977
10225TIP3    H152166   5.416   5.403  15.898
10225TIP3    H252167   5.390   5.412  16.047
10226TIP3   OH252168   2.765   1.634  15.487
10226TIP3    H152169   2.695   1.584  15.528
10226TIP3    H252170   2.719   1.705  15.441
10227TIP3   OH252171   5.268   2.502   4.532
10227TIP3    H152172   5.175   2.516   4.515
10227TIP3    H252173   5.309   2.587   4.517
10228TIP3   OH252174   2.202   6.276  12.510
10228TIP3    H152175   2.261   6.241  12.443
10228TIP3    H252176   2.123   6.223  12.501
10229TIP3   OH252177   4.873   3.338  17.226
10229TIP3    H152178   4.928   3.392  17.283
10229TIP3    H252179   4.862   3.389  17.146
10230TIP3   OH252180   3.568   3.940  13.939
10230TIP3    H152181   3.662   3.935  13.921
10230TIP3    H252182   3.526   3.907  13.859
10231TIP3   OH252183   5.453   6.047   1.134
10231TIP3    H152184   5.459   5.953   1.151
10231TIP3    H252185   5.377   6.076   1.183
10232TIP3   OH252186   1.608   2.332   4.441
10232TIP3    H152187   1.603   2.404   4.504
10232TIP3    H252188   1.613   2.375   4.355
10233TIP3   OH252189   4.405   1.651   4.508
10233TIP3    H152190   4.466   1.579   4.493
10233TIP3    H252191   4.326   1.627   4.459
10234TIP3   OH252192   6.808   6.710   1.823
10234TIP3    H152193   6.786   6.799   1.851
10234TIP3    H252194   6.788   6.710   1.729
10235TIP3   OH252195   0.178   1.830  15.262
10235TIP3    H152196   0.236   1.756  15.242
10235TIP3    H252197   0.228   1.884  15.323
10236TIP3   OH252198   4.197   0.644   2.153
10236TIP3    H152199   4.119   0.618   2.104
10236TIP3    H252200   4.269   0.597   2.111
10237TIP3   OH252201   5.704   2.049   2.698
10237TIP3    H152202   5.784   2.065   2.747
10237TIP3    H252203   5.634   2.051   2.764
10238TIP3   OH252204   6.668   0.414  12.775
10238TIP3    H152205   6.585   0.371  12.794
10238TIP3    H252206   6.644   0.504  12.753
10239TIP3   OH252207   0.797   3.432   5.496
10239TIP3    H152208   0.752   3.422   5.580
10239TIP3    H252209   0.787   3.525   5.474
10240TIP3   OH252210   1.642   0.205  16.644
10240TIP3    H152211   1.652   0.272  16.577
10240TIP3    H252212   1.592   0.247  16.713
10241TIP3   OH252213   2.887   4.818   0.104
10241TIP3    H152214   2.956   4.756   0.126
10241TIP3    H252215   2.891   4.825   0.008
10242TIP3   OH252216   0.769   4.673  11.884
10242TIP3    H152217   0.816   4.634  11.957
10242TIP3    H252218   0.677   4.656  11.901
10243TIP3   OH252219   4.120   4.997  11.092
10243TIP3    H152220   4.091   5.065  11.152
10243TIP3    H252221   4.040   4.949  11.070
10244TIP3   OH252222   5.650   5.196   6.349
10244TIP3    H152223   5.608   5.188   6.434
10244TIP3    H252224   5.582   5.233   6.292
10245TIP3   OH252225   3.795   6.728   5.227
10245TIP3    H152226   3.886   6.736   5.199
10245TIP3    H252227   3.780   6.805   5.281
10246TIP3   OH252228   1.550   5.307  15.711
10246TIP3    H152229   1.517   5.293  15.800
10246TIP3    H252230   1.615   5.376  15.720
10247TIP3   OH252231   1.480   0.097   0.363
10247TIP3    H152232   1.538   0.097   0.439
10247TIP3    H252233   1.495   0.013   0.320
10248TIP3   OH252234   2.016   2.654   5.038
10248TIP3    H152235   1.957   2.624   4.969
10248TIP3    H252236   2.009   2.750   5.037
10249TIP3   OH252237   2.264   0.472  16.766
10249TIP3    H152238   2.180   0.456  16.723
10249TIP3    H252239   2.250   0.447  16.857
10250TIP3   OH252240   6.807   1.815   1.967
10250TIP3    H152241   6.806   1.785   1.876
10250TIP3    H252242   6.892   1.856   1.978
10251TIP3   OH252243   3.144   3.659  15.391
10251TIP3    H152244   3.218   3.716  15.367
10251TIP3    H252245   3.170   3.572  15.362
10252TIP3   OH252246   0.336   0.171   5.671
10252TIP3    H152247   0.273   0.212   5.611
10252TIP3    H252248   0.421   0.198   5.638
10253TIP3   OH252249   2.986   6.692   2.556
10253TIP3    H152250   3.008   6.785   2.553
10253TIP3    H252251   3.071   6.648   2.567
10254TIP3   OH252252   0.809   6.482  12.097
10254TIP3    H152253   0.739   6.447  12.151
10254TIP3    H252254   0.889   6.448  12.136
10255TIP3   OH252255   4.154   5.673  16.220
10255TIP3    H152256   4.202   5.625  16.288
10255TIP3    H252257   4.080   5.712  16.265
10256TIP3   OH252258   6.735   1.639  13.716
10256TIP3    H152259   6.686   1.648  13.635
10256TIP3    H252260   6.714   1.551  13.747
10257TIP3   OH252261   6.253   5.299   1.713
10257TIP3    H152262   6.236   5.206   1.729
10257TIP3    H252263   6.341   5.302   1.676
10258TIP3   OH252264   4.493   5.712   1.766
10258TIP3    H152265   4.441   5.634   1.785
10258TIP3    H252266   4.488   5.722   1.671
10259TIP3   OH252267   1.248   4.336  13.883
10259TIP3    H152268   1.251   4.425  13.849
10259TIP3    H252269   1.278   4.281  13.810
10260TIP3   OH252270   4.425   5.125   5.027
10260TIP3    H152271   4.388   5.043   4.995
10260TIP3    H252272   4.447   5.174   4.947
10261TIP3   OH252273   3.158   6.561   3.031
10261TIP3    H152274   3.227   6.583   3.093
10261TIP3    H252275   3.079   6.552   3.084
10262TIP3   OH252276   4.797   6.028  12.911
10262TIP3    H152277   4.721   6.083  12.892
10262TIP3    H252278   4.867   6.091  12.929
10263TIP3   OH252279   3.073   0.970  13.572
10263TIP3    H152280   3.074   0.881  13.536
10263TIP3    H252281   2.990   1.007  13.543
10264TIP3   OH252282   3.883   1.192   4.215
10264TIP3    H152283   3.849   1.265   4.268
10264TIP3    H252284   3.892   1.120   4.276
10265TIP3   OH252285   2.462   0.687   2.732
10265TIP3    H152286   2.400   0.711   2.801
10265TIP3    H252287   2.543   0.667   2.779
10266TIP3   OH252288   2.517   2.128   5.447
10266TIP3    H152289   2.509   2.034   5.432
10266TIP3    H252290   2.578   2.135   5.521
10267TIP3   OH252291   2.477   5.508  13.863
10267TIP3    H152292   2.530   5.487  13.940
10267TIP3    H252293   2.430   5.427  13.844
10268TIP3   OH252294   5.198   4.336   3.190
10268TIP3    H152295   5.170   4.256   3.145
10268TIP3    H252296   5.116   4.382   3.209
10269TIP3   OH252297   4.396   5.865  16.699
10269TIP3    H152298   4.389   5.830  16.788
10269TIP3    H252299   4.457   5.938  16.706
10270TIP3   OH252300   2.583   6.755   0.423
10270TIP3    H152301   2.588   6.714   0.510
10270TIP3    H252302   2.502   6.720   0.385
10271TIP3   OH252303   1.355   6.351  13.136
10271TIP3    H152304   1.350   6.259  13.110
10271TIP3    H252305   1.329   6.352  13.228
10272TIP3   OH252306   5.326   2.414  12.818
10272TIP3    H152307   5.274   2.434  12.740
10272TIP3    H252308   5.373   2.495  12.837
10273TIP3   OH252309   1.678   5.228   6.527
10273TIP3    H152310   1.653   5.144   6.488
10273TIP3    H252311   1.598   5.281   6.521
10274TIP3   OH252312   0.385   5.913  15.656
10274TIP3    H152313   0.347   5.964  15.584
10274TIP3    H252314   0.320   5.845  15.674
10275TIP3   OH252315   3.688   5.952  11.312
10275TIP3    H152316   3.705   5.859  11.325
10275TIP3    H252317   3.612   5.954  11.252
10276TIP3   OH252318   5.564   5.262   3.746
10276TIP3    H152319   5.618   5.215   3.810
10276TIP3    H252320   5.475   5.233   3.764
10277TIP3   OH252321   0.893   2.846  16.143
10277TIP3    H152322   0.808   2.886  16.162
10277TIP3    H252323   0.873   2.754  16.124
10278TIP3   OH252324   3.265   5.123  11.807
10278TIP3    H152325   3.315   5.171  11.741
10278TIP3    H252326   3.220   5.054  11.757
10279TIP3   OH252327   0.470   4.281   3.148
10279TIP3    H152328   0.400   4.278   3.083
10279TIP3    H252329   0.483   4.375   3.165
10280TIP3   OH252330   5.381   0.081  17.180
10280TIP3    H152331   5.410   0.172  17.179
10280TIP3    H252332   5.459   0.031  17.206
10281TIP3   OH252333   3.795   6.532  15.558
10281TIP3    H152334   3.780   6.577  15.641
10281TIP3    H252335   3.774   6.597  15.491
10282TIP3   OH252336   4.130   3.613  12.301
10282TIP3    H152337   4.142   3.673  12.227
10282TIP3    H252338   4.104   3.530  12.262
10283TIP3   OH252339   4.973   6.536   5.157
10283TIP3    H152340   4.916   6.465   5.126
10283TIP3    H252341   4.921   6.581   5.223
10284TIP3   OH252342   5.179   4.223   4.828
10284TIP3    H152343   5.085   4.241   4.818
10284TIP3    H252344   5.186   4.127   4.824
10285TIP3   OH252345   5.730   5.172   0.081
10285TIP3    H152346   5.731   5.093   0.028
10285TIP3    H252347   5.701   5.143   0.168
10286TIP3   OH252348   5.873   0.202   2.060
10286TIP3    H152349   5.804   0.268   2.065
10286TIP3    H252350   5.954   0.251   2.047
10287TIP3   OH252351   3.400   0.857  14.091
10287TIP3    H152352   3.459   0.811  14.151
10287TIP3    H252353   3.374   0.790  14.027
10288TIP3   OH252354   5.026   0.244   3.656
10288TIP3    H152355   5.054   0.319   3.604
10288TIP3    H252356   4.987   0.282   3.734
10289TIP3   OH252357   3.101   6.641  16.292
10289TIP3    H152358   3.039   6.713  16.292
10289TIP3    H252359   3.066   6.579  16.228
10290TIP3   OH252360   4.351   5.878  12.305
10290TIP3    H152361   4.380   5.958  12.348
10290TIP3    H252362   4.258   5.870  12.329
10291TIP3   OH252363   5.875   5.636  10.874
10291TIP3    H152364   5.952   5.657  10.927
10291TIP3    H252365   5.819   5.714  10.880
10292TIP3   OH252366   2.587   0.511   0.464
10292TIP3    H152367   2.525   0.438   0.468
10292TIP3    H252368   2.623   0.507   0.376
10293TIP3   OH252369   5.163   3.228   3.331
10293TIP3    H152370   5.212   3.274   3.399
10293TIP3    H252371   5.216   3.151   3.311
10294TIP3   OH252372   2.216   6.132   5.549
10294TIP3    H152373   2.245   6.095   5.465
10294TIP3    H252374   2.170   6.212   5.525
10295TIP3   OH252375   0.343   2.986   3.233
10295TIP3    H152376   0.254   2.973   3.200
10295TIP3    H252377   0.331   3.003   3.326
10296TIP3   OH252378   2.435   0.460  12.059
10296TIP3    H152379   2.357   0.406  12.053
10296TIP3    H252380   2.466   0.469  11.969
10297TIP3   OH252381   5.980   0.711  12.218
10297TIP3    H152382   6.073   0.701  12.196
10297TIP3    H252383   5.979   0.727  12.312
10298TIP3   OH252384   5.558   5.206  11.514
10298TIP3    H152385   5.478   5.179  11.559
10298TIP3    H252386   5.544   5.298  11.493
10299TIP3   OH252387   6.485   5.234   0.996
10299TIP3    H152388   6.432   5.197   0.926
10299TIP3    H252389   6.568   5.255   0.954
10300TIP3   OH252390   5.929   4.795  16.374
10300TIP3    H152391   6.014   4.813  16.335
10300TIP3    H252392   5.866   4.807  16.303
10301TIP3   OH252393   0.099   1.664   1.688
10301TIP3    H152394   0.050   1.637   1.610
10301TIP3    H252395   0.187   1.627   1.675
10302TIP3   OH252396   6.698   6.237   1.707
10302TIP3    H152397   6.654   6.315   1.672
10302TIP3    H252398   6.667   6.165   1.651
10303TIP3   OH252399   0.539   5.725  14.593
10303TIP3    H152400   0.589   5.806  14.588
10303TIP3    H252401   0.504   5.724  14.682
10304TIP3   OH252402   4.571   5.440  11.218
10304TIP3    H152403   4.645   5.486  11.179
10304TIP3    H252404   4.513   5.420  11.144
10305TIP3   OH252405   4.874   2.925  14.023
10305TIP3    H152406   4.845   2.975  13.947
10305TIP3    H252407   4.812   2.851  14.028
10306TIP3   OH252408   2.413   5.671  16.294
10306TIP3    H152409   2.418   5.581  16.264
10306TIP3    H252410   2.328   5.702  16.264
10307TIP3   OH252411   4.844   3.779  16.324
10307TIP3    H152412   4.905   3.722  16.278
10307TIP3    H252413   4.863   3.765  16.417
10308TIP3   OH252414   5.414   3.669   1.354
10308TIP3    H152415   5.338   3.619   1.324
10308TIP3    H252416   5.422   3.741   1.291
10309TIP3   OH252417   5.193   5.239  15.635
10309TIP3    H152418   5.266   5.178  15.630
10309TIP3    H252419   5.234   5.326  15.636
10310TIP3   OH252420   1.860   4.657  13.430
10310TIP3    H152421   1.830   4.680  13.343
10310TIP3    H252422   1.952   4.684  13.432
10311TIP3   OH252423   5.260   4.613  11.688
10311TIP3    H152424   5.168   4.613  11.716
10311TIP3    H252425   5.292   4.526  11.712
10312TIP3   OH252426   6.774   1.219  16.012
10312TIP3    H152427   6.790   1.129  16.038
10312TIP3    H252428   6.693   1.244  16.056
10313TIP3   OH252429   5.992   5.020  14.413
10313TIP3    H152430   6.068   5.015  14.471
10313TIP3    H252431   6.003   5.102  14.365
10314TIP3   OH252432   3.862   4.665  13.122
10314TIP3    H152433   3.933   4.730  13.121
10314TIP3    H252434   3.907   4.581  13.119
10315TIP3   OH252435   2.366   0.159  11.717
10315TIP3    H152436   2.362   0.074  11.674
10315TIP3    H252437   2.370   0.223  11.646
10316TIP3   OH252438   6.683   5.829  12.261
10316TIP3    H152439   6.745   5.862  12.326
10316TIP3    H252440   6.653   5.746  12.298
10317TIP3   OH252441   4.034   6.285   5.433
10317TIP3    H152442   4.061   6.338   5.509
10317TIP3    H252443   4.115   6.270   5.384
10318TIP3   OH252444   5.549   3.436  17.254
10318TIP3    H152445   5.480   3.424  17.189
10318TIP3    H252446   5.625   3.463  17.203
10319TIP3   OH252447   0.282   1.033   1.220
10319TIP3    H152448   0.330   0.963   1.176
10319TIP3    H252449   0.193   1.025   1.186
10320TIP3   OH252450   2.884   0.466  15.082
10320TIP3    H152451   2.816   0.421  15.133
10320TIP3    H252452   2.838   0.501  15.006
10321TIP3   OH252453   6.569   4.465   2.244
10321TIP3    H152454   6.504   4.414   2.293
10321TIP3    H252455   6.518   4.534   2.202
10322TIP3   OH252456   4.693   6.426  15.933
10322TIP3    H152457   4.666   6.516  15.919
10322TIP3    H252458   4.612   6.375  15.926
10323TIP3   OH252459   3.546   0.773   3.907
10323TIP3    H152460   3.458   0.760   3.872
10323TIP3    H252461   3.594   0.815   3.836
10324TIP3   OH252462   1.912   0.641   4.695
10324TIP3    H152463   1.860   0.562   4.684
10324TIP3    H252464   1.976   0.638   4.624
10325TIP3   OH252465   3.913   5.759  16.896
10325TIP3    H152466   3.902   5.706  16.975
10325TIP3    H252467   3.984   5.716  16.848
10326TIP3   OH252468   3.300   3.210   4.068
10326TIP3    H152469   3.371   3.146   4.075
10326TIP3    H252470   3.241   3.173   4.003
10327TIP3   OH252471   0.713   6.753   4.974
10327TIP3    H152472   0.640   6.711   5.020
10327TIP3    H252473   0.750   6.683   4.920
10328TIP3   OH252474   2.139   1.478   1.142
10328TIP3    H152475   2.177   1.432   1.067
10328TIP3    H252476   2.117   1.565   1.107
10329TIP3   OH252477   5.705   5.113  13.633
10329TIP3    H152478   5.749   5.149  13.710
10329TIP3    H252479   5.738   5.165  13.559
10330TIP3   OH252480   3.590   0.073  13.061
10330TIP3    H152481   3.594  -0.014  13.102
10330TIP3    H252482   3.559   0.130  13.131
10331TIP3   OH252483   6.032   5.010  12.269
10331TIP3    H152484   6.071   4.940  12.216
10331TIP3    H252485   5.960   5.043  12.216
10332TIP3   OH252486   4.420   3.703   2.239
10332TIP3    H152487   4.494   3.665   2.287
10332TIP3    H252488   4.460   3.763   2.176
10333TIP3   OH252489   6.766   0.946  10.857
10333TIP3    H152490   6.709   0.911  10.788
10333TIP3    H252491   6.819   0.871  10.885
10334TIP3   OH252492   5.905   3.721  15.640
10334TIP3    H152493   5.822   3.763  15.618
10334TIP3    H252494   5.972   3.776  15.600
10335TIP3   OH252495   4.930   0.346  16.871
10335TIP3    H152496   4.927   0.436  16.903
10335TIP3    H252497   4.910   0.353  16.778
10336TIP3   OH252498   0.113   3.769   5.981
10336TIP3    H152499   0.162   3.713   6.042
10336TIP3    H252500   0.059   3.824   6.037
10337TIP3   OH252501   4.690   1.008  16.801
10337TIP3    H152502   4.768   0.963  16.769
10337TIP3    H252503   4.721   1.093  16.831
10338TIP3   OH252504   0.825   1.192   0.249
10338TIP3    H152505   0.851   1.100   0.245
10338TIP3    H252506   0.729   1.190   0.249
10339TIP3   OH252507   4.858   3.901  16.591
10339TIP3    H152508   4.808   3.964  16.539
10339TIP3    H252509   4.947   3.906  16.556
10340TIP3   OH252510   3.881   6.787  10.881
10340TIP3    H152511   3.946   6.857  10.871
10340TIP3    H252512   3.870   6.751  10.792
10341TIP3   OH252513   0.801   6.214  14.613
10341TIP3    H152514   0.823   6.249  14.700
10341TIP3    H252515   0.772   6.291  14.564
10342TIP3   OH252516   1.806   1.737   1.093
10342TIP3    H152517   1.847   1.691   1.019
10342TIP3    H252518   1.731   1.683   1.116
10343TIP3   OH252519   1.395   5.113  11.488
10343TIP3    H152520   1.413   5.022  11.512
10343TIP3    H252521   1.481   5.154  11.480
10344TIP3   OH252522   3.372   4.875   4.362
10344TIP3    H152523   3.370   4.964   4.399
10344TIP3    H252524   3.451   4.874   4.308
10345TIP3   OH252525   5.121   2.205  15.712
10345TIP3    H152526   5.036   2.233  15.747
10345TIP3    H252527   5.100   2.156  15.632
10346TIP3   OH252528   0.029   3.458   1.357
10346TIP3    H152529   0.091   3.427   1.291
10346TIP3    H252530   0.065   3.541   1.386
10347TIP3   OH252531   3.917   1.179  14.061
10347TIP3    H152532   3.931   1.243  14.130
10347TIP3    H252533   3.822   1.170  14.055
10348TIP3   OH252534   0.250   5.504  11.664
10348TIP3    H152535   0.221   5.413  11.667
10348TIP3    H252536   0.281   5.522  11.752
10349TIP3   OH252537   4.743   4.863  16.814
10349TIP3    H152538   4.818   4.917  16.839
10349TIP3    H252539   4.780   4.800  16.751
10350TIP3   OH252540   1.665   1.421   0.602
10350TIP3    H152541   1.714   1.341   0.622
10350TIP3    H252542   1.714   1.462   0.531
10351TIP3   OH252543   2.432   6.025  11.422
10351TIP3    H152544   2.467   6.113  11.430
10351TIP3    H252545   2.436   5.988  11.510
10352TIP3   OH252546   4.489   4.222   2.436
10352TIP3    H152547   4.446   4.207   2.353
10352TIP3    H252548   4.578   4.251   2.413
10353TIP3   OH252549   5.371   2.494   5.700
10353TIP3    H152550   5.373   2.527   5.790
10353TIP3    H252551   5.441   2.429   5.697
10354TIP3   OH252552   4.042   6.376  14.263
10354TIP3    H152553   4.060   6.429  14.341
10354TIP3    H252554   4.004   6.295  14.297
10355TIP3   OH252555   2.790   4.716  14.223
10355TIP3    H152556   2.708   4.713  14.174
10355TIP3    H252557   2.776   4.657  14.297
10356TIP3   OH252558   0.904   4.560   1.726
10356TIP3    H152559   0.907   4.556   1.821
10356TIP3    H252560   0.842   4.630   1.706
10357TIP3   OH252561   5.483   1.220  14.847
10357TIP3    H152562   5.449   1.137  14.878
10357TIP3    H252563   5.500   1.270  14.927
10358TIP3   OH252564   6.693   3.984   0.251
10358TIP3    H152565   6.740   4.056   0.293
10358TIP3    H252566   6.676   4.016   0.162
10359TIP3   OH252567   3.906   0.750  10.532
10359TIP3    H152568   3.942   0.674  10.578
10359TIP3    H252569   3.980   0.785  10.482
10360TIP3   OH252570   2.734   3.093   1.741
10360TIP3    H152571   2.805   3.142   1.782
10360TIP3    H252572   2.768   3.068   1.655
10361TIP3   OH252573   3.564   1.439   6.029
10361TIP3    H152574   3.572   1.504   5.960
10361TIP3    H252575   3.514   1.483   6.098
10362TIP3   OH252576   0.345   2.746  15.470
10362TIP3    H152577   0.422   2.799  15.490
10362TIP3    H252578   0.270   2.802  15.493
10363TIP3   OH252579   0.369   3.798  12.626
10363TIP3    H152580   0.437   3.842  12.576
10363TIP3    H252581   0.304   3.772  12.561
10364TIP3   OH252582   3.443   2.220  15.751
10364TIP3    H152583   3.506   2.195  15.683
10364TIP3    H252584   3.438   2.315  15.746
10365TIP3   OH252585   6.421   3.737   4.324
10365TIP3    H152586   6.479   3.751   4.249
10365TIP3    H252587   6.341   3.700   4.286
10366TIP3   OH252588   0.649   6.270  15.458
10366TIP3    H152589   0.574   6.318  15.493
10366TIP3    H252590   0.616   6.181  15.445
10367TIP3   OH252591   0.407   0.306   0.534
10367TIP3    H152592   0.338   0.355   0.579
10367TIP3    H252593   0.476   0.371   0.519
10368TIP3   OH252594   2.977   6.365  16.564
10368TIP3    H152595   2.933   6.449  16.575
10368TIP3    H252596   2.944   6.332  16.480
10369TIP3   OH252597   5.358   0.118   6.668
10369TIP3    H152598   5.274   0.114   6.714
10369TIP3    H252599   5.376   0.211   6.658
10370TIP3   OH252600   4.687   4.835  15.372
10370TIP3    H152601   4.608   4.874  15.336
10370TIP3    H252602   4.667   4.822  15.465
10371TIP3   OH252603   1.067   2.335  15.558
10371TIP3    H152604   1.125   2.268  15.524
10371TIP3    H252605   0.980   2.311  15.525
10372TIP3   OH252606   0.029   5.349  14.244
10372TIP3    H152607   0.113   5.383  14.213
10372TIP3    H252608   0.021   5.263  14.202
10373TIP3   OH252609   0.783   5.732  11.418
10373TIP3    H152610   0.848   5.769  11.358
10373TIP3    H252611   0.711   5.705  11.361
10374TIP3   OH252612   3.119   0.172  14.464
10374TIP3    H152613   3.198   0.147  14.511
10374TIP3    H252614   3.148   0.189  14.375
10375TIP3   OH252615   2.906   0.660  14.189
10375TIP3    H152616   2.992   0.678  14.152
10375TIP3    H252617   2.924   0.602  14.264
10376TIP3   OH252618   0.766   2.081  15.206
10376TIP3    H152619   0.829   2.151  15.222
10376TIP3    H252620   0.772   2.026  15.285
10377TIP3   OH252621   0.025   2.943   3.861
10377TIP3    H152622  -0.003   2.861   3.901
10377TIP3    H252623   0.102   2.919   3.809
10378TIP3   OH252624   4.346   1.059   3.212
10378TIP3    H152625   4.414   0.994   3.229
10378TIP3    H252626   4.269   1.008   3.189
10379TIP3   OH252627   1.934   0.966  14.064
10379TIP3    H152628   1.998   1.037  14.064
10379TIP3    H252629   1.850   1.010  14.047
10380TIP3   OH252630   3.282   3.363   1.917
10380TIP3    H152631   3.221   3.314   1.974
10380TIP3    H252632   3.229   3.384   1.840
10381TIP3   OH252633   3.101   5.596   0.403
10381TIP3    H152634   3.010   5.614   0.378
10381TIP3    H252635   3.141   5.560   0.324
10382TIP3   OH252636   0.964   4.689   5.221
10382TIP3    H152637   0.906   4.729   5.285
10382TIP3    H252638   0.926   4.603   5.203
10383TIP3   OH252639   0.712   2.766   4.324
10383TIP3    H152640   0.804   2.788   4.341
10383TIP3    H252641   0.701   2.679   4.361
10384TIP3   OH252642   4.501   0.626   5.485
10384TIP3    H152643   4.491   0.531   5.483
10384TIP3    H252644   4.521   0.646   5.576
10385TIP3   OH252645   6.687   1.210  16.969
10385TIP3    H152646   6.781   1.199  16.958
10385TIP3    H252647   6.648   1.158  16.898
10386TIP3   OH252648   1.744   6.128   0.898
10386TIP3    H152649   1.702   6.172   0.825
10386TIP3    H252650   1.688   6.146   0.973
10387TIP3   OH252651   4.173   0.096   2.343
10387TIP3    H152652   4.222   0.024   2.384
10387TIP3    H252653   4.143   0.149   2.416
10388TIP3   OH252654   4.479   1.103   0.475
10388TIP3    H152655   4.421   1.028   0.487
10388TIP3    H252656   4.564   1.073   0.509
10389TIP3   OH252657   4.768   5.734  10.801
10389TIP3    H152658   4.676   5.724  10.824
10389TIP3    H252659   4.782   5.672  10.730
10390TIP3   OH252660   3.122   0.403  12.903
10390TIP3    H152661   3.186   0.381  12.971
10390TIP3    H252662   3.038   0.404  12.949
10391TIP3   OH252663   3.452   1.551   5.222
10391TIP3    H152664   3.526   1.529   5.165
10391TIP3    H252665   3.380   1.570   5.161
10392TIP3   OH252666   6.251   5.833  13.110
10392TIP3    H152667   6.171   5.809  13.064
10392TIP3    H252668   6.274   5.756  13.162
10393TIP3   OH252669   5.881   1.959   3.641
10393TIP3    H152670   5.887   1.866   3.621
10393TIP3    H252671   5.796   1.970   3.683
10394TIP3   OH252672   3.000   4.346   2.012
10394TIP3    H152673   3.042   4.272   2.055
10394TIP3    H252674   2.914   4.353   2.055
10395TIP3   OH252675   1.876   4.981   0.231
10395TIP3    H152676   1.872   4.922   0.306
10395TIP3    H252677   1.837   5.062   0.262
10396TIP3   OH252678   6.429   4.645  16.450
10396TIP3    H152679   6.512   4.662  16.495
10396TIP3    H252680   6.380   4.589  16.511
10397TIP3   OH252681   6.806   1.408  11.010
10397TIP3    H152682   6.747   1.351  10.961
10397TIP3    H252683   6.795   1.381  11.101
10398TIP3   OH252684   4.235   1.788   2.344
10398TIP3    H152685   4.189   1.767   2.262
10398TIP3    H252686   4.295   1.715   2.357
10399TIP3   OH252687   1.941   1.671  12.941
10399TIP3    H152688   1.999   1.678  12.865
10399TIP3    H252689   1.931   1.761  12.972
10400TIP3   OH252690   3.132   2.374   0.250
10400TIP3    H152691   3.079   2.346   0.176
10400TIP3    H252692   3.169   2.459   0.223
10401TIP3   OH252693   4.851   2.910   4.163
10401TIP3    H152694   4.845   2.977   4.232
10401TIP3    H252695   4.847   2.959   4.081
10402TIP3   OH252696   5.079   1.844  15.769
10402TIP3    H152697   5.110   1.864  15.681
10402TIP3    H252698   4.984   1.832  15.759
10403TIP3   OH252699   0.851   6.304   4.118
10403TIP3    H152700   0.884   6.391   4.139
10403TIP3    H252701   0.888   6.284   4.032
10404TIP3   OH252702   6.526   6.131   3.871
10404TIP3    H152703   6.583   6.090   3.937
10404TIP3    H252704   6.586   6.178   3.814
10405TIP3   OH252705   6.399   5.251  14.329
10405TIP3    H152706   6.320   5.269  14.379
10405TIP3    H252707   6.462   5.219  14.394
10406TIP3   OH252708   2.202   0.222   2.141
10406TIP3    H152709   2.135   0.166   2.180
10406TIP3    H252710   2.153   0.280   2.083
10407TIP3   OH252711   2.095   4.342  15.608
10407TIP3    H152712   2.145   4.332  15.689
10407TIP3    H252713   2.104   4.258  15.563
10408TIP3   OH252714   5.497   2.834   0.452
10408TIP3    H152715   5.413   2.790   0.447
10408TIP3    H252716   5.561   2.763   0.449
10409TIP3   OH252717   1.935   5.568   2.553
10409TIP3    H152718   2.008   5.628   2.541
10409TIP3    H252719   1.927   5.522   2.470
10410TIP3   OH252720   5.550   2.272  16.020
10410TIP3    H152721   5.457   2.248  16.018
10410TIP3    H252722   5.573   2.286  15.928
10411TIP3   OH252723   6.777   3.758  11.334
10411TIP3    H152724   6.697   3.808  11.317
10411TIP3    H252725   6.827   3.765  11.252
10412TIP3   OH252726   3.121   6.194   0.053
10412TIP3    H152727   3.202   6.144   0.067
10412TIP3    H252728   3.051   6.134   0.079
10413TIP3   OH252729   3.578   5.051  15.002
10413TIP3    H152730   3.486   5.030  14.986
10413TIP3    H252731   3.579   5.146  15.017
10414TIP3   OH252732   2.726   4.485   3.263
10414TIP3    H152733   2.756   4.565   3.221
10414TIP3    H252734   2.655   4.513   3.320
10415TIP3   OH252735   2.329   0.690  12.325
10415TIP3    H152736   2.414   0.647  12.336
10415TIP3    H252737   2.296   0.699  12.415
10416TIP3   OH252738   4.604   0.079   5.758
10416TIP3    H152739   4.678   0.131   5.789
10416TIP3    H252740   4.585   0.113   5.671
10417TIP3   OH252741   1.083   0.284   4.088
10417TIP3    H152742   1.103   0.206   4.140
10417TIP3    H252743   1.004   0.261   4.040
10418TIP3   OH252744   4.485   0.653   3.095
10418TIP3    H152745   4.455   0.663   3.004
10418TIP3    H252746   4.505   0.560   3.103
10419TIP3   OH252747   5.331   5.773   2.187
10419TIP3    H152748   5.397   5.795   2.120
10419TIP3    H252749   5.318   5.855   2.235
10420TIP3   OH252750   0.945   6.175  11.232
10420TIP3    H152751   1.026   6.124  11.236
10420TIP3    H252752   0.880   6.120  11.274
10421TIP3   OH252753   4.394   5.823   0.134
10421TIP3    H152754   4.458   5.882   0.095
10421TIP3    H252755   4.380   5.755   0.069
10422TIP3   OH252756   5.920   4.316  14.007
10422TIP3    H152757   5.955   4.327  14.096
10422TIP3    H252758   5.948   4.229  13.981
10423TIP3   OH252759   6.200   3.692   1.143
10423TIP3    H152760   6.244   3.651   1.068
10423TIP3    H252761   6.162   3.618   1.192
10424TIP3   OH252762   2.215   4.739   0.659
10424TIP3    H152763   2.133   4.692   0.647
10424TIP3    H252764   2.283   4.679   0.628
10425TIP3   OH252765   2.389   3.111  10.807
10425TIP3    H152766   2.456   3.145  10.747
10425TIP3    H252767   2.310   3.161  10.787
10426TIP3   OH252768   0.874   4.070  13.421
10426TIP3    H152769   0.813   4.143  13.411
10426TIP3    H252770   0.824   4.003  13.468
10427TIP3   OH252771   4.216   6.585  14.911
10427TIP3    H152772   4.269   6.615  14.837
10427TIP3    H252773   4.184   6.666  14.951
10428TIP3   OH252774   2.024   4.559  15.061
10428TIP3    H152775   2.037   4.486  15.000
10428TIP3    H252776   1.968   4.620  15.014
10429TIP3   OH252777   3.051   1.685   5.603
10429TIP3    H152778   3.040   1.781   5.601
10429TIP3    H252779   3.010   1.659   5.686
10430TIP3   OH252780   5.576   1.479   6.052
10430TIP3    H152781   5.528   1.408   6.095
10430TIP3    H252782   5.632   1.435   5.987
10431TIP3   OH252783   4.073   6.407   2.057
10431TIP3    H152784   4.032   6.459   1.988
10431TIP3    H252785   4.002   6.353   2.093
10432TIP3   OH252786   1.050   3.590  11.634
10432TIP3    H152787   1.145   3.597  11.643
10432TIP3    H252788   1.016   3.653  11.697
10433TIP3   OH252789   4.154   3.733   0.557
10433TIP3    H152790   4.182   3.669   0.622
10433TIP3    H252791   4.102   3.683   0.494
10434TIP3   OH252792   0.365   5.379   3.892
10434TIP3    H152793   0.332   5.301   3.938
10434TIP3    H252794   0.286   5.422   3.859
10435TIP3   OH252795   4.578   2.024  11.753
10435TIP3    H152796   4.497   2.064  11.722
10435TIP3    H252797   4.561   1.930  11.750
10436TIP3   OH252798   0.541   4.622   1.744
10436TIP3    H152799   0.478   4.680   1.702
10436TIP3    H252800   0.564   4.559   1.676
10437TIP3   OH252801   0.727   0.686   0.131
10437TIP3    H152802   0.684   0.736   0.061
10437TIP3    H252803   0.655   0.644   0.178
10438TIP3   OH252804   1.607   0.136  17.065
10438TIP3    H152805   1.656   0.108  16.988
10438TIP3    H252806   1.561   0.057  17.095
10439TIP3   OH252807   1.399   1.460   1.811
10439TIP3    H152808   1.459   1.417   1.751
10439TIP3    H252809   1.446   1.539   1.840
10440TIP3   OH252810   3.491   1.060   2.487
10440TIP3    H152811   3.576   1.092   2.517
10440TIP3    H252812   3.428   1.123   2.521
10441TIP3   OH252813   0.910   2.157  16.993
10441TIP3    H152814   0.978   2.121  16.937
10441TIP3    H252815   0.900   2.248  16.965
10442TIP3   OH252816   5.900   3.679   1.153
10442TIP3    H152817   5.900   3.673   1.248
10442TIP3    H252818   5.931   3.768   1.134
10443TIP3   OH252819   2.746   5.340  16.099
10443TIP3    H152820   2.735   5.435  16.100
10443TIP3    H252821   2.823   5.325  16.043
10444TIP3   OH252822   3.945   5.743  14.666
10444TIP3    H152823   3.876   5.772  14.725
10444TIP3    H252824   3.913   5.661  14.630
10445TIP3   OH252825   4.239   5.952   5.400
10445TIP3    H152826   4.273   5.959   5.311
10445TIP3    H252827   4.318   5.951   5.455
10446TIP3   OH252828   1.874   3.412  13.005
10446TIP3    H152829   1.952   3.365  12.977
10446TIP3    H252830   1.831   3.354  13.067
10447TIP3   OH252831   0.009   3.974   2.623
10447TIP3    H152832   0.050   3.934   2.546
10447TIP3    H252833  -0.082   3.987   2.598
10448TIP3   OH252834   1.436   3.408  13.429
10448TIP3    H152835   1.450   3.362  13.346
10448TIP3    H252836   1.374   3.478  13.407
10449TIP3   OH252837   2.222   1.839   3.286
10449TIP3    H152838   2.307   1.883   3.299
10449TIP3    H252839   2.182   1.837   3.373
10450TIP3   OH252840   0.378   6.396  13.367
10450TIP3    H152841   0.286   6.375  13.354
10450TIP3    H252842   0.382   6.492  13.369
10451TIP3   OH252843   5.096   3.495  14.487
10451TIP3    H152844   5.174   3.472  14.537
10451TIP3    H252845   5.053   3.412  14.470
10452TIP3   OH252846   0.654   4.429  11.269
10452TIP3    H152847   0.656   4.339  11.236
10452TIP3    H252848   0.570   4.435  11.315
10453TIP3   OH252849   5.982   1.856   3.296
10453TIP3    H152850   6.035   1.839   3.374
10453TIP3    H252851   5.998   1.780   3.240
10454TIP3   OH252852   5.512   3.842  15.019
10454TIP3    H152853   5.562   3.804  14.947
10454TIP3    H252854   5.428   3.867  14.980
10455TIP3   OH252855   1.258   1.143   3.281
10455TIP3    H152856   1.200   1.207   3.241
10455TIP3    H252857   1.315   1.195   3.338
10456TIP3   OH252858   5.870   5.346  14.382
10456TIP3    H152859   5.829   5.420  14.337
10456TIP3    H252860   5.950   5.329  14.331
10457TIP3   OH252861   1.458   6.341  16.683
10457TIP3    H152862   1.472   6.336  16.589
10457TIP3    H252863   1.368   6.373  16.691
10458TIP3   OH252864   5.734   0.720   6.173
10458TIP3    H152865   5.670   0.733   6.243
10458TIP3    H252866   5.750   0.626   6.172
10459TIP3   OH252867   5.832   0.186   5.602
10459TIP3    H152868   5.811   0.220   5.689
10459TIP3    H252869   5.747   0.173   5.560
10460TIP3   OH252870   3.644   4.969   3.976
10460TIP3    H152871   3.626   5.054   3.938
10460TIP3    H252872   3.561   4.941   4.014
10461TIP3   OH252873   3.690   1.649   1.157
10461TIP3    H152874   3.748   1.581   1.191
10461TIP3    H252875   3.607   1.635   1.203
10462TIP3   OH252876   6.436   0.616   1.433
10462TIP3    H152877   6.446   0.555   1.360
10462TIP3    H252878   6.341   0.624   1.444
10463TIP3   OH252879   2.779   0.047   0.613
10463TIP3    H152880   2.744   0.014   0.531
10463TIP3    H252881   2.850  -0.013   0.635
10464TIP3   OH252882   5.369   4.699   6.429
10464TIP3    H152883   5.419   4.748   6.363
10464TIP3    H252884   5.278   4.716   6.407
10465TIP3   OH252885   6.473   4.384  13.129
10465TIP3    H152886   6.414   4.316  13.096
10465TIP3    H252887   6.522   4.413  13.052
10466TIP3   OH252888   5.094   6.637  16.677
10466TIP3    H152889   5.162   6.682  16.726
10466TIP3    H252890   5.013   6.654  16.726
10467TIP3   OH252891   1.055   5.921  16.757
10467TIP3    H152892   1.145   5.894  16.776
10467TIP3    H252893   1.042   5.898  16.665
10468TIP3   OH252894   5.159   0.425  14.893
10468TIP3    H152895   5.180   0.341  14.853
10468TIP3    H252896   5.064   0.423  14.905
10469TIP3   OH252897   5.274   2.701   0.585
10469TIP3    H152898   5.360   2.725   0.619
10469TIP3    H252899   5.266   2.607   0.605
10470TIP3   OH252900   6.062   1.190   5.757
10470TIP3    H152901   6.158   1.201   5.760
10470TIP3    H252902   6.041   1.153   5.843
10471TIP3   OH252903   1.946   0.615  14.608
10471TIP3    H152904   1.851   0.611  14.597
10471TIP3    H252905   1.979   0.638  14.521
10472TIP3   OH252906   2.837   5.928   2.790
10472TIP3    H152907   2.851   6.021   2.776
10472TIP3    H252908   2.749   5.911   2.758
10473TIP3   OH252909   3.411   4.947  13.296
10473TIP3    H152910   3.331   4.949  13.243
10473TIP3    H252911   3.479   4.920  13.235
10474TIP3   OH252912   2.893   5.705   1.530
10474TIP3    H152913   2.976   5.666   1.558
10474TIP3    H252914   2.876   5.772   1.596
10475TIP3   OH252915   4.267   5.628  14.065
10475TIP3    H152916   4.181   5.635  14.107
10475TIP3    H252917   4.292   5.718  14.046
10476TIP3   OH252918   3.414   0.201  16.675
10476TIP3    H152919   3.357   0.144  16.624
10476TIP3    H252920   3.453   0.261  16.611
10477TIP3   OH252921   5.609   5.295  16.551
10477TIP3    H152922   5.606   5.208  16.590
10477TIP3    H252923   5.612   5.278  16.456
10478TIP3   OH252924   5.550   6.215   1.377
10478TIP3    H152925   5.561   6.144   1.440
10478TIP3    H252926   5.561   6.295   1.428
10479TIP3   OH252927   3.005   4.336  14.547
10479TIP3    H152928   3.000   4.423  14.587
10479TIP3    H252929   2.965   4.278  14.612
10480TIP3   OH252930   5.663   3.269  15.686
10480TIP3    H152931   5.713   3.222  15.618
10480TIP3    H252932   5.575   3.231  15.681
10481TIP3   OH252933   5.288   5.524  12.104
10481TIP3    H152934   5.361   5.570  12.144
10481TIP3    H252935   5.329   5.458  12.048
10482TIP3   OH252936   1.086   1.034   5.770
10482TIP3    H152937   1.163   1.025   5.714
10482TIP3    H252938   1.092   1.123   5.805
10483TIP3   OH252939   3.808   0.058   3.631
10483TIP3    H152940   3.775   0.147   3.624
10483TIP3    H252941   3.835   0.036   3.542
10484TIP3   OH252942   4.793   0.115   0.377
10484TIP3    H152943   4.809   0.206   0.353
10484TIP3    H252944   4.849   0.099   0.452
10485TIP3   OH252945   5.569   2.185  12.241
10485TIP3    H152946   5.584   2.100  12.200
10485TIP3    H252947   5.599   2.249  12.177
10486TIP3   OH252948   2.051   5.045  15.808
10486TIP3    H152949   2.010   5.085  15.885
10486TIP3    H252950   2.143   5.069  15.816
10487TIP3   OH252951   3.946   6.764  11.889
10487TIP3    H152952   3.965   6.854  11.862
10487TIP3    H252953   3.867   6.740  11.841
10488TIP3   OH252954   3.733   6.776   1.875
10488TIP3    H152955   3.695   6.855   1.838
10488TIP3    H252956   3.828   6.793   1.876
10489TIP3   OH252957   3.484   4.911  11.815
10489TIP3    H152958   3.494   4.993  11.766
10489TIP3    H252959   3.493   4.937  11.906
10490TIP3   OH252960   1.854   5.446   3.403
10490TIP3    H152961   1.898   5.408   3.479
10490TIP3    H252962   1.817   5.372   3.356
10491TIP3   OH252963   5.282   1.315  10.899
10491TIP3    H152964   5.217   1.351  10.839
10491TIP3    H252965   5.362   1.310  10.848
10492TIP3   OH252966   0.919   0.297   1.796
10492TIP3    H152967   0.979   0.354   1.748
10492TIP3    H252968   0.917   0.216   1.744
10493TIP3   OH252969   4.657   4.932  13.087
10493TIP3    H152970   4.593   4.894  13.027
10493TIP3    H252971   4.612   4.937  13.171
10494TIP3   OH252972   5.753   1.096  16.795
10494TIP3    H152973   5.677   1.040  16.780
10494TIP3    H252974   5.790   1.064  16.877
10495TIP3   OH252975   2.334   2.270   5.785
10495TIP3    H152976   2.424   2.304   5.777
10495TIP3    H252977   2.284   2.344   5.818
10496TIP3   OH252978   6.067   6.441  15.058
10496TIP3    H152979   6.032   6.364  15.102
10496TIP3    H252980   6.086   6.411  14.969
10497TIP3   OH252981   2.256   0.594   0.996
10497TIP3    H152982   2.301   0.676   1.015
10497TIP3    H252983   2.289   0.533   1.061
10498TIP3   OH252984   0.573   5.226   4.419
10498TIP3    H152985   0.554   5.139   4.454
10498TIP3    H252986   0.634   5.210   4.347
10499TIP3   OH252987   2.322   0.213   4.566
10499TIP3    H152988   2.239   0.165   4.569
10499TIP3    H252989   2.308   0.281   4.500
10500TIP3   OH252990   4.767   4.455   3.666
10500TIP3    H152991   4.773   4.405   3.585
10500TIP3    H252992   4.685   4.504   3.658
10501TIP3   OH252993   5.409   3.416  13.922
10501TIP3    H152994   5.442   3.465  13.997
10501TIP3    H252995   5.421   3.475  13.847
10502TIP3   OH252996   4.485   1.900   1.089
10502TIP3    H152997   4.407   1.948   1.063
10502TIP3    H252998   4.519   1.863   1.008
10503TIP3   OH252999   4.930   3.000  17.188
10503TIP3    H153000   4.950   2.907  17.182
10503TIP3    H253001   4.970   3.038  17.110
10504TIP3   OH253002   1.195   0.402   1.848
10504TIP3    H153003   1.261   0.436   1.788
10504TIP3    H253004   1.122   0.464   1.842
10505TIP3   OH253005   1.154   0.539  17.111
10505TIP3    H153006   1.110   0.604  17.165
10505TIP3    H253007   1.166   0.463  17.168
10506TIP3   OH253008   2.320   5.897   4.417
10506TIP3    H153009   2.255   5.847   4.368
10506TIP3    H253010   2.401   5.889   4.365
10507TIP3   OH253011   2.212   6.794   3.255
10507TIP3    H153012   2.149   6.818   3.322
10507TIP3    H253013   2.159   6.773   3.178
10508TIP3   OH253014   1.433   2.068  14.598
10508TIP3    H153015   1.399   2.063  14.508
10508TIP3    H253016   1.380   2.004  14.647
10509TIP3   OH253017   1.774   4.049   2.378
10509TIP3    H153018   1.854   4.017   2.336
10509TIP3    H253019   1.792   4.041   2.472
10510TIP3   OH253020   0.744   3.557  12.801
10510TIP3    H153021   0.681   3.539  12.871
10510TIP3    H253022   0.692   3.560  12.721
10511TIP3   OH253023   2.706   5.519  15.102
10511TIP3    H153024   2.714   5.512  15.197
10511TIP3    H253025   2.758   5.446  15.068
10512TIP3   OH253026   0.023   3.449  12.502
10512TIP3    H153027  -0.064   3.413  12.522
10512TIP3    H253028   0.076   3.372  12.480
10513TIP3   OH253029   6.281   4.442   0.320
10513TIP3    H153030   6.257   4.532   0.301
10513TIP3    H253031   6.207   4.390   0.289
10514TIP3   OH253032   4.676   1.980   2.825
10514TIP3    H153033   4.632   2.064   2.838
10514TIP3    H253034   4.762   2.003   2.792
10515TIP3   OH253035   6.119   5.145   4.683
10515TIP3    H153036   6.060   5.212   4.720
10515TIP3    H253037   6.189   5.138   4.748
10516TIP3   OH253038   4.418   1.193   2.755
10516TIP3    H153039   4.495   1.247   2.737
10516TIP3    H253040   4.379   1.177   2.669
10517TIP3   OH253041   6.738   6.237   3.230
10517TIP3    H153042   6.763   6.155   3.272
10517TIP3    H253043   6.755   6.222   3.137
10518TIP3   OH253044   4.325   0.937   5.287
10518TIP3    H153045   4.328   1.022   5.331
10518TIP3    H253046   4.363   0.876   5.350
10519TIP3   OH253047   6.762   6.507   2.311
10519TIP3    H153048   6.722   6.590   2.284
10519TIP3    H253049   6.698   6.441   2.286
10520TIP3   OH253050   2.605   1.753   1.533
10520TIP3    H153051   2.656   1.673   1.544
10520TIP3    H253052   2.552   1.759   1.613
10521TIP3   OH253053   4.332   3.240  13.736
10521TIP3    H153054   4.329   3.179  13.662
10521TIP3    H253055   4.413   3.289  13.723
10522TIP3   OH253056   5.827   5.026   2.603
10522TIP3    H153057   5.900   4.971   2.573
10522TIP3    H253058   5.751   4.994   2.555
10523TIP3   OH253059   6.782   0.292  10.411
10523TIP3    H153060   6.814   0.214  10.366
10523TIP3    H253061   6.822   0.366  10.364
10524TIP3   OH253062   2.292   0.587   2.238
10524TIP3    H153063   2.211   0.603   2.190
10524TIP3    H253064   2.361   0.615   2.179
10525TIP3   OH253065   5.697   2.562   5.936
10525TIP3    H153066   5.668   2.623   6.004
10525TIP3    H253067   5.716   2.481   5.982
10526TIP3   OH253068   4.180   0.297  13.998
10526TIP3    H153069   4.181   0.358  14.072
10526TIP3    H253070   4.128   0.341  13.931
10527TIP3   OH253071   4.973   1.367  17.242
10527TIP3    H153072   5.035   1.295  17.240
10527TIP3    H253073   4.960   1.385  17.335
10528TIP3   OH253074   0.968   0.978  17.200
10528TIP3    H153075   0.962   0.909  17.134
10528TIP3    H253076   0.897   1.039  17.177
10529TIP3   OH253077   2.026   4.588  16.758
10529TIP3    H153078   2.026   4.493  16.742
10529TIP3    H253079   1.954   4.601  16.820
10530TIP3   OH253080   0.633   6.316   0.017
10530TIP3    H153081   0.569   6.322   0.087
10530TIP3    H253082   0.704   6.374   0.045
10531TIP3   OH253083   6.055   0.668   5.129
10531TIP3    H153084   6.016   0.750   5.160
10531TIP3    H253085   6.015   0.653   5.043
10532TIP3   OH253086   2.224   3.380   4.716
10532TIP3    H153087   2.266   3.418   4.793
10532TIP3    H253088   2.282   3.309   4.689
10533TIP3   OH253089   3.241   2.053  15.799
10533TIP3    H153090   3.305   2.118  15.770
10533TIP3    H253091   3.156   2.090  15.773
10534TIP3   OH253092   5.188   3.778   6.388
10534TIP3    H153093   5.228   3.844   6.445
10534TIP3    H253094   5.094   3.785   6.407
10535TIP3   OH253095   4.740   0.016  15.567
10535TIP3    H153096   4.783  -0.026  15.641
10535TIP3    H253097   4.790   0.096  15.552
10536TIP3   OH253098   3.493   5.949  13.297
10536TIP3    H153099   3.517   5.910  13.213
10536TIP3    H253100   3.544   5.900  13.361
10537TIP3   OH253101   6.100   4.048   5.432
10537TIP3    H153102   6.125   4.081   5.345
10537TIP3    H253103   6.167   4.081   5.491
10538TIP3   OH253104   6.188   0.880  12.842
10538TIP3    H153105   6.141   0.949  12.795
10538TIP3    H253106   6.211   0.816  12.774
10539TIP3   OH253107   0.785   6.775  16.046
10539TIP3    H153108   0.874   6.810  16.054
10539TIP3    H253109   0.757   6.799  15.958
10540TIP3   OH253110   6.061   1.848  15.365
10540TIP3    H153111   5.971   1.845  15.398
10540TIP3    H253112   6.078   1.760  15.332
10541TIP3   OH253113   5.333   1.507  15.242
10541TIP3    H153114   5.411   1.507  15.186
10541TIP3    H253115   5.324   1.416  15.270
10542TIP3   OH253116   5.575   5.705  12.755
10542TIP3    H153117   5.568   5.732  12.664
10542TIP3    H253118   5.575   5.609  12.752
10543TIP3   OH253119   3.846   2.724  11.041
10543TIP3    H153120   3.856   2.639  11.085
10543TIP3    H253121   3.751   2.732  11.027
10544TIP3   OH253122   2.104   1.558   2.817
10544TIP3    H153123   2.192   1.594   2.814
10544TIP3    H253124   2.086   1.532   2.726
10545TIP3   OH253125   3.769   0.929  16.527
10545TIP3    H153126   3.797   1.009  16.572
10545TIP3    H253127   3.758   0.865  16.597
10546TIP3   OH253128   2.929   2.336  16.360
10546TIP3    H153129   2.977   2.406  16.403
10546TIP3    H253130   2.973   2.256  16.388
10547TIP3   OH253131   1.980   3.773   6.561
10547TIP3    H153132   2.034   3.783   6.483
10547TIP3    H253133   1.972   3.678   6.573
10548TIP3   OH253134   2.771   1.854  15.289
10548TIP3    H153135   2.818   1.913  15.347
10548TIP3    H253136   2.729   1.911  15.225
10549TIP3   OH253137   5.647   6.002  13.131
10549TIP3    H153138   5.610   6.036  13.212
10549TIP3    H253139   5.572   5.989  13.073
10550TIP3   OH253140   2.520   0.488  17.289
10550TIP3    H153141   2.561   0.466  17.373
10550TIP3    H253142   2.427   0.472  17.304
10551TIP3   OH253143   6.729   3.815   1.188
10551TIP3    H153144   6.775   3.808   1.272
10551TIP3    H253145   6.762   3.896   1.149
10552TIP3   OH253146   6.439   2.645  12.288
10552TIP3    H153147   6.519   2.672  12.333
10552TIP3    H253148   6.443   2.689  12.203
10553TIP3   OH253149   5.088   3.578   5.684
10553TIP3    H153150   5.013   3.561   5.626
10553TIP3    H253151   5.055   3.559   5.772
10554TIP3   OH253152   1.094   5.159   2.435
10554TIP3    H153153   1.024   5.113   2.388
10554TIP3    H253154   1.171   5.104   2.424
10555TIP3   OH253155   5.813   0.563   1.489
10555TIP3    H153156   5.809   0.547   1.584
10555TIP3    H253157   5.792   0.479   1.450
10556TIP3   OH253158   2.510   6.474   5.899
10556TIP3    H153159   2.528   6.382   5.884
10556TIP3    H253160   2.589   6.519   5.870
10557TIP3   OH253161   1.463   2.801   0.402
10557TIP3    H153162   1.525   2.728   0.397
10557TIP3    H253163   1.378   2.760   0.415
10558TIP3   OH253164   2.822   0.749   1.436
10558TIP3    H153165   2.745   0.805   1.425
10558TIP3    H253166   2.839   0.713   1.349
10559TIP3   OH253167   6.548   3.007  11.460
10559TIP3    H153168   6.577   3.030  11.548
10559TIP3    H253169   6.482   2.939  11.473
10560TIP3   OH253170   0.161   1.205  11.486
10560TIP3    H153171   0.111   1.135  11.445
10560TIP3    H253172   0.160   1.276  11.422
10561TIP3   OH253173   0.660   3.756   0.943
10561TIP3    H153174   0.596   3.775   0.874
10561TIP3    H253175   0.626   3.678   0.986
10562TIP3   OH253176   5.022   4.014   4.469
10562TIP3    H153177   5.093   4.053   4.418
10562TIP3    H253178   4.944   4.025   4.414
10563TIP3   OH253179   3.647   6.616  11.119
10563TIP3    H153180   3.598   6.656  11.190
10563TIP3    H253181   3.625   6.668  11.042
10564TIP3   OH253182   4.995   2.033  11.981
10564TIP3    H153183   5.017   2.010  12.072
10564TIP3    H253184   5.039   2.116  11.967
10565TIP3   OH253185   1.894   1.334   5.136
10565TIP3    H153186   1.989   1.338   5.147
10565TIP3    H253187   1.882   1.327   5.041
10566TIP3   OH253188   4.640   4.596  15.893
10566TIP3    H153189   4.569   4.542  15.928
10566TIP3    H253190   4.715   4.578  15.950
10567TIP3   OH253191   0.791   1.620  13.808
10567TIP3    H153192   0.753   1.553  13.751
10567TIP3    H253193   0.814   1.691  13.750
10568TIP3   OH253194   5.725   4.608  15.148
10568TIP3    H153195   5.749   4.694  15.113
10568TIP3    H253196   5.791   4.591  15.215
10569TIP3   OH253197   6.671   5.209  14.016
10569TIP3    H153198   6.687   5.118  13.993
10569TIP3    H253199   6.577   5.213  14.034
10570TIP3   OH253200   3.143   2.918  14.413
10570TIP3    H153201   3.070   2.976  14.391
10570TIP3    H253202   3.110   2.830  14.395
10571TIP3   OH253203   4.631   6.282   4.360
10571TIP3    H153204   4.610   6.343   4.289
10571TIP3    H253205   4.596   6.323   4.438
10572TIP3   OH253206   2.439   1.738  16.020
10572TIP3    H153207   2.377   1.791  15.971
10572TIP3    H253208   2.525   1.759  15.983
10573TIP3   OH253209   1.479   5.997   6.252
10573TIP3    H153210   1.447   5.913   6.283
10573TIP3    H253211   1.459   5.997   6.158
10574TIP3   OH253212   3.776   0.376  14.548
10574TIP3    H153213   3.745   0.329  14.471
10574TIP3    H253214   3.846   0.321  14.583
10575TIP3   OH253215   0.428   2.523  11.106
10575TIP3    H153216   0.339   2.492  11.084
10575TIP3    H253217   0.455   2.573  11.029
10576TIP3   OH253218   1.370   3.007   4.655
10576TIP3    H153219   1.288   3.029   4.612
10576TIP3    H253220   1.434   3.000   4.583
10577TIP3   OH253221   1.611   5.544   0.007
10577TIP3    H153222   1.628   5.559  -0.086
10577TIP3    H253223   1.529   5.590   0.025
10578TIP3   OH253224   5.597   2.621  17.274
10578TIP3    H153225   5.690   2.611  17.255
10578TIP3    H253226   5.587   2.588  17.364
10579TIP3   OH253227   3.173   2.568  13.205
10579TIP3    H153228   3.093   2.590  13.252
10579TIP3    H253229   3.215   2.500  13.259
10580TIP3   OH253230   3.094   0.896  12.974
10580TIP3    H153231   3.162   0.860  12.917
10580TIP3    H253232   3.087   0.988  12.949
10581TIP3   OH253233   5.598   5.349   0.748
10581TIP3    H153234   5.588   5.277   0.686
10581TIP3    H253235   5.513   5.358   0.790
10582TIP3   OH253236   3.916   2.372  16.708
10582TIP3    H153237   3.965   2.399  16.785
10582TIP3    H253238   3.936   2.278  16.699
10583TIP3   OH253239   2.017   0.970  12.275
10583TIP3    H153240   2.088   0.958  12.212
10583TIP3    H253241   1.995   1.063  12.269
10584TIP3   OH253242   5.659   5.175   5.117
10584TIP3    H153243   5.747   5.146   5.092
10584TIP3    H253244   5.674   5.253   5.171
10585TIP3   OH253245   3.383   3.900  11.633
10585TIP3    H153246   3.442   3.828  11.612
10585TIP3    H253247   3.315   3.897  11.565
10586TIP3   OH253248   0.296   4.359  15.576
10586TIP3    H153249   0.207   4.325  15.566
10586TIP3    H253250   0.334   4.354  15.488
10587TIP3   OH253251   2.699   0.628   2.846
10587TIP3    H153252   2.716   0.585   2.762
10587TIP3    H253253   2.737   0.569   2.911
10588TIP3   OH253254   2.643   2.479  15.646
10588TIP3    H153255   2.577   2.461  15.713
10588TIP3    H253256   2.662   2.572  15.656
10589TIP3   OH253257   5.675   3.247   1.876
10589TIP3    H153258   5.750   3.198   1.911
10589TIP3    H253259   5.700   3.339   1.885
10590TIP3   OH253260   6.816   6.390   2.575
10590TIP3    H153261   6.846   6.407   2.486
10590TIP3    H253262   6.736   6.442   2.585
10591TIP3   OH253263   6.704   1.497   1.195
10591TIP3    H153264   6.706   1.572   1.135
10591TIP3    H253265   6.722   1.422   1.139
10592TIP3   OH253266   3.884   2.878   0.558
10592TIP3    H153267   3.900   2.813   0.490
10592TIP3    H253268   3.790   2.895   0.555
10593TIP3   OH253269   2.585   2.377  13.907
10593TIP3    H153270   2.505   2.407  13.863
10593TIP3    H253271   2.620   2.456  13.949
10594TIP3   OH253272   0.205   0.238   0.968
10594TIP3    H153273   0.138   0.259   1.033
10594TIP3    H253274   0.260   0.172   1.011
10595TIP3   OH253275   4.588   1.950   1.321
10595TIP3    H153276   4.682   1.936   1.326
10595TIP3    H253277   4.564   1.925   1.232
10596TIP3   OH253278   5.520   6.134  15.564
10596TIP3    H153279   5.524   6.226  15.591
10596TIP3    H253280   5.565   6.086  15.634
10597TIP3   OH253281   6.686   5.476  11.979
10597TIP3    H153282   6.710   5.466  12.071
10597TIP3    H253283   6.732   5.555  11.951
10598TIP3   OH253284   4.099   4.778   2.750
10598TIP3    H153285   4.009   4.809   2.761
10598TIP3    H253286   4.120   4.796   2.658
10599TIP3   OH253287   0.956   1.006   3.487
10599TIP3    H153288   0.909   1.073   3.438
10599TIP3    H253289   0.996   0.951   3.420
10600TIP3   OH253290   2.963   5.429  12.696
10600TIP3    H153291   2.991   5.519  12.712
10600TIP3    H253292   3.040   5.386  12.659
10601TIP3   OH253293   4.160   1.434   0.333
10601TIP3    H153294   4.153   1.444   0.428
10601TIP3    H253295   4.210   1.354   0.321
10602TIP3   OH253296   6.733   4.868  15.052
10602TIP3    H153297   6.784   4.788  15.043
10602TIP3    H253298   6.642   4.838  15.054
10603TIP3   OH253299   6.241   2.777   6.734
10603TIP3    H153300   6.244   2.688   6.698
10603TIP3    H253301   6.148   2.800   6.731
10604TIP3   OH253302   5.593   3.927   0.553
10604TIP3    H153303   5.686   3.948   0.550
10604TIP3    H253304   5.589   3.839   0.589
10605TIP3   OH253305   4.936   3.953  12.132
10605TIP3    H153306   4.964   4.043  12.121
10605TIP3    H253307   5.016   3.901  12.123
10606TIP3   OH253308   0.559   4.173  12.709
10606TIP3    H153309   0.550   4.263  12.741
10606TIP3    H253310   0.565   4.120  12.788
10607TIP3   OH253311   3.418   4.926  12.340
10607TIP3    H153312   3.439   4.951  12.250
10607TIP3    H253313   3.502   4.925  12.385
10608TIP3   OH253314   5.016   6.800  16.012
10608TIP3    H153315   5.066   6.880  16.029
10608TIP3    H253316   4.951   6.797  16.082
10609TIP3   OH253317   6.275   5.562  13.828
10609TIP3    H153318   6.362   5.573  13.866
10609TIP3    H253319   6.216   5.599  13.894
10610TIP3   OH253320   3.249   6.467  15.803
10610TIP3    H153321   3.275   6.433  15.889
10610TIP3    H253322   3.329   6.505  15.767
10611TIP3   OH253323   3.268   5.557  15.518
10611TIP3    H153324   3.253   5.466  15.489
10611TIP3    H253325   3.189   5.579  15.568
10612TIP3   OH253326   1.535   0.169   3.343
10612TIP3    H153327   1.452   0.121   3.347
10612TIP3    H253328   1.515   0.255   3.380
10613TIP3   OH253329   1.071   4.491  14.614
10613TIP3    H153330   1.116   4.556  14.667
10613TIP3    H253331   1.132   4.471  14.543
10614TIP3   OH253332   0.164   2.943  15.512
10614TIP3    H153333   0.080   2.955  15.556
10614TIP3    H253334   0.224   3.002  15.558
10615TIP3   OH253335   0.385   6.098   2.943
10615TIP3    H153336   0.351   6.136   2.862
10615TIP3    H253337   0.478   6.120   2.942
10616TIP3   OH253338   1.768   4.758   3.269
10616TIP3    H153339   1.791   4.824   3.334
10616TIP3    H253340   1.831   4.687   3.282
10617TIP3   OH253341   2.416   1.987  11.998
10617TIP3    H153342   2.349   1.970  12.065
10617TIP3    H253343   2.442   2.078  12.012
10618TIP3   OH253344   3.466   4.037  16.994
10618TIP3    H153345   3.500   3.997  16.914
10618TIP3    H253346   3.485   3.973  17.062
10619TIP3   OH253347   1.105   5.567  13.579
10619TIP3    H153348   1.048   5.514  13.523
10619TIP3    H253349   1.056   5.647  13.595
10620TIP3   OH253350   5.568   1.007  16.237
10620TIP3    H153351   5.506   1.009  16.164
10620TIP3    H253352   5.638   0.949  16.208
10621TIP3   OH253353   3.177   4.888  16.230
10621TIP3    H153354   3.202   4.976  16.199
10621TIP3    H253355   3.104   4.903  16.289
10622TIP3   OH253356   6.478   2.560   4.855
10622TIP3    H153357   6.571   2.538   4.863
10622TIP3    H253358   6.433   2.476   4.852
10623TIP3   OH253359   2.057   6.307   6.175
10623TIP3    H153360   2.020   6.372   6.115
10623TIP3    H253361   2.138   6.279   6.134
10624TIP3   OH253362   6.093   1.427  14.122
10624TIP3    H153363   6.180   1.466  14.111
10624TIP3    H253364   6.110   1.341  14.161
10625TIP3   OH253365   3.175   5.300  15.731
10625TIP3    H153366   3.142   5.323  15.818
10625TIP3    H253367   3.240   5.232  15.747
10626TIP3   OH253368   6.736   1.924   2.639
10626TIP3    H153369   6.647   1.912   2.604
10626TIP3    H253370   6.793   1.900   2.566
10627TIP3   OH253371   6.341   3.780   5.375
10627TIP3    H153372   6.381   3.775   5.288
10627TIP3    H253373   6.336   3.689   5.404
10628TIP3   OH253374   1.815   3.322  16.653
10628TIP3    H153375   1.893   3.354  16.698
10628TIP3    H253376   1.834   3.333  16.560
10629TIP3   OH253377   5.460   2.187   1.082
10629TIP3    H153378   5.365   2.192   1.067
10629TIP3    H253379   5.470   2.121   1.151
10630TIP3   OH253380   2.629   3.955  12.404
10630TIP3    H153381   2.540   3.947  12.438
10630TIP3    H253382   2.684   3.955  12.482
10631TIP3   OH253383   3.534   6.038  11.510
10631TIP3    H153384   3.487   5.973  11.561
10631TIP3    H253385   3.582   5.988  11.444
10632TIP3   OH253386   3.050   3.626  17.130
10632TIP3    H153387   2.966   3.618  17.175
10632TIP3    H253388   3.085   3.537  17.127
10633TIP3   OH253389   5.066   0.704   4.353
10633TIP3    H153390   5.032   0.743   4.433
10633TIP3    H253391   5.005   0.732   4.285
10634TIP3   OH253392   3.789   0.477  16.118
10634TIP3    H153393   3.798   0.556  16.172
10634TIP3    H253394   3.750   0.509  16.036
10635TIP3   OH253395   4.982   4.844   3.960
10635TIP3    H153396   5.010   4.914   4.019
10635TIP3    H253397   5.062   4.793   3.944
10636TIP3   OH253398   1.850   3.134   1.724
10636TIP3    H153399   1.901   3.123   1.644
10636TIP3    H253400   1.888   3.072   1.786
10637TIP3   OH253401   0.307   5.032   5.942
10637TIP3    H153402   0.216   5.031   5.971
10637TIP3    H253403   0.348   5.101   5.993
10638TIP3   OH253404   1.086   3.567   2.611
10638TIP3    H153405   1.005   3.604   2.577
10638TIP3    H253406   1.125   3.637   2.664
10639TIP3   OH253407   3.121   3.153   1.056
10639TIP3    H153408   3.155   3.209   0.986
10639TIP3    H253409   3.162   3.068   1.041
10640TIP3   OH253410   0.935   2.415   3.323
10640TIP3    H153411   0.968   2.334   3.284
10640TIP3    H253412   0.883   2.385   3.398
10641TIP3   OH253413   3.969   0.935   3.505
10641TIP3    H153414   3.981   1.004   3.570
10641TIP3    H253415   4.037   0.953   3.439
10642TIP3   OH253416   3.682   3.495   2.811
10642TIP3    H153417   3.625   3.549   2.864
10642TIP3    H253418   3.717   3.554   2.744
10643TIP3   OH253419   0.835   0.263  16.228
10643TIP3    H153420   0.889   0.256  16.149
10643TIP3    H253421   0.892   0.232  16.299
10644TIP3   OH253422   5.377   0.767   3.789
10644TIP3    H153423   5.451   0.778   3.849
10644TIP3    H253424   5.355   0.856   3.761
10645TIP3   OH253425   6.380   1.538   3.601
10645TIP3    H153426   6.444   1.528   3.672
10645TIP3    H253427   6.351   1.448   3.583
10646TIP3   OH253428   1.272   6.325  14.614
10646TIP3    H153429   1.272   6.281  14.699
10646TIP3    H253430   1.233   6.262  14.554
10647TIP3   OH253431   4.341   6.638  14.289
10647TIP3    H153432   4.372   6.589  14.213
10647TIP3    H253433   4.313   6.722  14.255
10648TIP3   OH253434   4.699   0.023  14.393
10648TIP3    H153435   4.714   0.020  14.487
10648TIP3    H253436   4.737  -0.059  14.360
10649TIP3   OH253437   4.529   4.644  16.703
10649TIP3    H153438   4.518   4.562  16.751
10649TIP3    H253439   4.563   4.618  16.618
10650TIP3   OH253440   0.166   6.486   1.881
10650TIP3    H153441   0.110   6.417   1.916
10650TIP3    H253442   0.109   6.563   1.875
10651TIP3   OH253443   3.408   4.711   3.468
10651TIP3    H153444   3.470   4.638   3.465
10651TIP3    H253445   3.325   4.672   3.439
10652TIP3   OH253446   6.810   3.945   4.663
10652TIP3    H153447   6.745   3.996   4.615
10652TIP3    H253448   6.769   3.928   4.748
10653TIP3   OH253449   2.510   4.046  11.200
10653TIP3    H153450   2.539   3.992  11.126
10653TIP3    H253451   2.418   4.024  11.212
10654TIP3   OH253452   4.156   3.528   5.308
10654TIP3    H153453   4.145   3.453   5.366
10654TIP3    H253454   4.250   3.538   5.298
10655TIP3   OH253455   5.626   0.575  16.510
10655TIP3    H153456   5.593   0.489  16.535
10655TIP3    H253457   5.578   0.636  16.566
10656TIP3   OH253458   0.063   4.406   1.461
10656TIP3    H153459   0.042   4.350   1.536
10656TIP3    H253460  -0.004   4.474   1.462
10657TIP3   OH253461   3.943   5.123  10.746
10657TIP3    H153462   3.876   5.149  10.683
10657TIP3    H253463   3.929   5.029  10.757
10658TIP3   OH253464   4.084   4.867  12.033
10658TIP3    H153465   4.046   4.862  11.945
10658TIP3    H253466   4.114   4.778  12.051
10659TIP3   OH253467   0.188   0.670   5.001
10659TIP3    H153468   0.134   0.640   5.074
10659TIP3    H253469   0.149   0.753   4.974
10660TIP3   OH253470   3.888   3.598   4.648
10660TIP3    H153471   3.937   3.533   4.599
10660TIP3    H253472   3.948   3.625   4.718
10661TIP3   OH253473   4.499   0.072   0.926
10661TIP3    H153474   4.474   0.157   0.962
10661TIP3    H253475   4.586   0.055   0.961
10662TIP3   OH253476   0.428   0.390  10.758
10662TIP3    H153477   0.391   0.348  10.680
10662TIP3    H253478   0.358   0.448  10.789
10663TIP3   OH253479   1.531   6.817   6.278
10663TIP3    H153480   1.537   6.870   6.358
10663TIP3    H253481   1.622   6.805   6.251
10664TIP3   OH253482   4.496   4.434  14.495
10664TIP3    H153483   4.448   4.457  14.416
10664TIP3    H253484   4.582   4.475  14.484
10665TIP3   OH253485   3.709   1.157  13.323
10665TIP3    H153486   3.744   1.069  13.337
10665TIP3    H253487   3.782   1.215  13.341
10666TIP3   OH253488   3.287   0.693   0.569
10666TIP3    H153489   3.375   0.663   0.590
10666TIP3    H253490   3.251   0.723   0.652
10667TIP3   OH253491   4.941   1.827   0.606
10667TIP3    H153492   5.004   1.890   0.571
10667TIP3    H253493   4.975   1.742   0.579
10668TIP3   OH253494   0.442   2.582  14.157
10668TIP3    H153495   0.413   2.540  14.075
10668TIP3    H253496   0.375   2.557  14.221
10669TIP3   OH253497   3.289   0.028   0.993
10669TIP3    H153498   3.314  -0.064   0.989
10669TIP3    H253499   3.255   0.047   0.906
10670TIP3   OH253500   2.697   0.426   4.275
10670TIP3    H153501   2.705   0.456   4.184
10670TIP3    H253502   2.697   0.331   4.268
10671TIP3   OH253503   5.715   3.408  11.759
10671TIP3    H153504   5.794   3.440  11.717
10671TIP3    H253505   5.707   3.460  11.839
10672TIP3   OH253506   2.253   5.257  11.590
10672TIP3    H153507   2.226   5.219  11.506
10672TIP3    H253508   2.241   5.187  11.654
10673TIP3   OH253509   2.200   5.322   1.533
10673TIP3    H153510   2.251   5.403   1.524
10673TIP3    H253511   2.248   5.259   1.479
10674TIP3   OH253512   3.237   4.597   5.518
10674TIP3    H153513   3.203   4.644   5.442
10674TIP3    H253514   3.262   4.665   5.580
10675TIP3   OH253515   4.231   1.541  16.168
10675TIP3    H153516   4.160   1.548  16.232
10675TIP3    H253517   4.294   1.482  16.209
10676TIP3   OH253518   4.180   5.294  15.849
10676TIP3    H153519   4.210   5.280  15.939
10676TIP3    H253520   4.114   5.227  15.834
10677TIP3   OH253521   1.364   5.436  12.889
10677TIP3    H153522   1.432   5.489  12.931
10677TIP3    H253523   1.305   5.410  12.961
10678TIP3   OH253524   1.820   1.558   1.900
10678TIP3    H153525   1.822   1.607   1.819
10678TIP3    H253526   1.865   1.614   1.963
10679TIP3   OH253527   4.001   0.490  11.157
10679TIP3    H153528   3.911   0.500  11.127
10679TIP3    H253529   4.052   0.480  11.077
10680TIP3   OH253530   0.452   4.652  14.728
10680TIP3    H153531   0.510   4.590  14.773
10680TIP3    H253532   0.467   4.637  14.635
10681TIP3   OH253533   1.587   2.153   5.652
10681TIP3    H153534   1.653   2.124   5.590
10681TIP3    H253535   1.627   2.139   5.738
10682TIP3   OH253536   1.130   1.972   2.440
10682TIP3    H153537   1.040   1.939   2.428
10682TIP3    H253538   1.119   2.058   2.481
10683TIP3   OH253539   2.725   2.925   3.376
10683TIP3    H153540   2.698   2.876   3.299
10683TIP3    H253541   2.709   2.865   3.449
10684TIP3   OH253542   6.524   1.348  16.372
10684TIP3    H153543   6.543   1.276  16.312
10684TIP3    H253544   6.554   1.427  16.326
10685TIP3   OH253545   5.275   3.808  14.305
10685TIP3    H153546   5.278   3.900  14.279
10685TIP3    H253547   5.361   3.774  14.279
10686TIP3   OH253548   4.079   0.641   3.366
10686TIP3    H153549   4.124   0.558   3.383
10686TIP3    H253550   3.988   0.625   3.393
10687TIP3   OH253551   4.965   4.291  14.382
10687TIP3    H153552   4.961   4.224  14.450
10687TIP3    H253553   4.931   4.370  14.424
10688TIP3   OH253554   2.972   2.804  14.919
10688TIP3    H153555   3.013   2.849  14.844
10688TIP3    H253556   2.920   2.872  14.961
10689TIP3   OH253557   6.096   0.586  13.051
10689TIP3    H153558   6.083   0.662  13.108
10689TIP3    H253559   6.075   0.618  12.963
10690TIP3   OH253560   0.334   0.519  16.191
10690TIP3    H153561   0.328   0.614  16.184
10690TIP3    H253562   0.422   0.497  16.162
10691TIP3   OH253563   4.040   3.319  16.851
10691TIP3    H153564   3.977   3.343  16.782
10691TIP3    H253565   3.988   3.319  16.931
10692TIP3   OH253566   5.609   4.595   0.231
10692TIP3    H153567   5.535   4.534   0.235
10692TIP3    H253568   5.603   4.634   0.143
10693TIP3   OH253569   1.242   6.754   0.884
10693TIP3    H153570   1.270   6.693   0.952
10693TIP3    H253571   1.228   6.836   0.931
10694TIP3   OH253572   5.277   3.726  12.345
10694TIP3    H153573   5.297   3.712  12.252
10694TIP3    H253574   5.185   3.700  12.354
10695TIP3   OH253575   5.021   3.686  15.260
10695TIP3    H153576   5.090   3.620  15.268
10695TIP3    H253577   4.983   3.671  15.174
10696TIP3   OH253578   1.533   0.163  14.149
10696TIP3    H153579   1.478   0.198  14.078
10696TIP3    H253580   1.473   0.108  14.200
10697TIP3   OH253581   2.893   1.689  14.013
10697TIP3    H153582   2.957   1.752  14.046
10697TIP3    H253583   2.904   1.690  13.918
10698TIP3   OH253584   0.558   3.301  13.630
10698TIP3    H153585   0.595   3.343  13.552
10698TIP3    H253586   0.490   3.243  13.595
10699TIP3   OH253587   4.725   5.437  14.316
10699TIP3    H153588   4.669   5.448  14.393
10699TIP3    H253589   4.677   5.479  14.245
10700TIP3   OH253590   4.509   0.108  16.429
10700TIP3    H153591   4.536   0.022  16.395
10700TIP3    H253592   4.566   0.171  16.384
10701TIP3   OH253593   5.438   0.616   1.993
10701TIP3    H153594   5.416   0.603   1.900
10701TIP3    H253595   5.507   0.682   1.993
10702TIP3   OH253596   3.721   2.138   5.071
10702TIP3    H153597   3.774   2.096   5.139
10702TIP3    H253598   3.631   2.124   5.098
10703TIP3   OH253599   6.117   4.349  14.695
10703TIP3    H153600   6.212   4.344  14.682
10703TIP3    H253601   6.081   4.342  14.606
10704TIP3   OH253602   2.058   6.137  11.235
10704TIP3    H153603   2.086   6.062  11.286
10704TIP3    H253604   2.027   6.201  11.300
10705TIP3   OH253605   1.352   1.663  14.200
10705TIP3    H153606   1.283   1.601  14.176
10705TIP3    H253607   1.423   1.646  14.139
10706TIP3   OH253608   3.795   1.472  13.919
10706TIP3    H153609   3.791   1.516  13.834
10706TIP3    H253610   3.883   1.494  13.952
10707TIP3   OH253611   6.070   2.160  16.105
10707TIP3    H153612   6.149   2.177  16.157
10707TIP3    H253613   6.021   2.241  16.109
10708TIP3   OH253614   0.314   2.614   0.043
10708TIP3    H153615   0.368   2.537   0.062
10708TIP3    H253616   0.345   2.680   0.105
10709TIP3   OH253617   6.815   3.462  10.743
10709TIP3    H153618   6.753   3.534  10.755
10709TIP3    H253619   6.869   3.464  10.822
10710TIP3   OH253620   4.204   3.926  12.881
10710TIP3    H153621   4.160   3.905  12.799
10710TIP3    H253622   4.145   3.895  12.950
10711TIP3   OH253623   6.541   2.769  13.771
10711TIP3    H153624   6.618   2.823  13.790
10711TIP3    H253625   6.476   2.831  13.738
10712TIP3   OH253626   5.936   0.299  15.102
10712TIP3    H153627   5.945   0.345  15.018
10712TIP3    H253628   5.955   0.365  15.168
10713TIP3   OH253629   0.770   6.199  13.965
10713TIP3    H153630   0.738   6.113  13.937
10713TIP3    H253631   0.704   6.260  13.934
10714TIP3   OH253632   5.217   4.567   5.906
10714TIP3    H153633   5.139   4.545   5.855
10714TIP3    H253634   5.231   4.661   5.890
10715TIP3   OH253635   5.345   6.644  13.212
10715TIP3    H153636   5.361   6.688  13.295
10715TIP3    H253637   5.428   6.652  13.164
10716TIP3   OH253638   6.808   2.768  15.678
10716TIP3    H153639   6.902   2.786  15.688
10716TIP3    H253640   6.803   2.672  15.673
10717TIP3   OH253641   6.493   4.171  16.378
10717TIP3    H153642   6.543   4.114  16.436
10717TIP3    H253643   6.482   4.120  16.298
10718TIP3   OH253644   4.776   2.571  11.292
10718TIP3    H153645   4.823   2.492  11.318
10718TIP3    H253646   4.683   2.548  11.301
10719TIP3   OH253647   2.710   0.312   0.681
10719TIP3    H153648   2.747   0.227   0.659
10719TIP3    H253649   2.743   0.371   0.613
10720TIP3   OH253650   2.560   0.081  16.806
10720TIP3    H153651   2.605   0.149  16.755
10720TIP3    H253652   2.547   0.122  16.892
10721TIP3   OH253653   1.623   5.308  17.128
10721TIP3    H153654   1.653   5.281  17.215
10721TIP3    H253655   1.540   5.261  17.115
10722TIP3   OH253656   2.450   0.698   3.937
10722TIP3    H153657   2.415   0.755   3.869
10722TIP3    H253658   2.475   0.618   3.891
10723TIP3   OH253659   6.000   1.247  16.639
10723TIP3    H153660   6.077   1.216  16.591
10723TIP3    H253661   5.929   1.244  16.575
10724TIP3   OH253662   3.217   0.690  12.313
10724TIP3    H153663   3.240   0.598  12.302
10724TIP3    H253664   3.301   0.736  12.316
10725TIP3   OH253665   6.247   1.177   3.318
10725TIP3    H153666   6.283   1.115   3.255
10725TIP3    H253667   6.275   1.263   3.285
10726TIP3   OH253668   1.457   2.810  11.283
10726TIP3    H153669   1.380   2.828  11.229
10726TIP3    H253670   1.531   2.816  11.223
10727TIP3   OH253671   6.544   5.017   1.131
10727TIP3    H153672   6.490   4.940   1.114
10727TIP3    H253673   6.506   5.085   1.075
10728TIP3   OH253674   5.832   5.748   2.994
10728TIP3    H153675   5.843   5.660   2.957
10728TIP3    H253676   5.756   5.784   2.948
10729TIP3   OH253677   4.607   4.283  13.696
10729TIP3    H153678   4.572   4.227  13.766
10729TIP3    H253679   4.658   4.224  13.641
10730TIP3   OH253680   1.236   4.858   2.187
10730TIP3    H153681   1.191   4.875   2.270
10730TIP3    H253682   1.298   4.789   2.208
10731TIP3   OH253683   3.160   3.104  12.503
10731TIP3    H153684   3.230   3.137  12.559
10731TIP3    H253685   3.104   3.180  12.487
10732TIP3   OH253686   0.295   4.786  16.885
10732TIP3    H153687   0.351   4.737  16.825
10732TIP3    H253688   0.305   4.877  16.857
10733TIP3   OH253689   0.956   1.812   3.209
10733TIP3    H153690   1.048   1.799   3.234
10733TIP3    H253691   0.907   1.794   3.288
10734TIP3   OH253692   3.483   3.901   6.495
10734TIP3    H153693   3.544   3.831   6.472
10734TIP3    H253694   3.523   3.944   6.571
10735TIP3   OH253695   5.833   4.290   3.501
10735TIP3    H153696   5.784   4.296   3.419
10735TIP3    H253697   5.765   4.272   3.567
10736TIP3   OH253698   4.930   3.548  17.000
10736TIP3    H153699   5.006   3.516  16.951
10736TIP3    H253700   4.925   3.641  16.979
10737TIP3   OH253701   4.144   0.414   3.199
10737TIP3    H153702   4.158   0.486   3.137
10737TIP3    H253703   4.225   0.363   3.194
10738TIP3   OH253704   1.106   3.255   0.004
10738TIP3    H153705   1.036   3.297  -0.046
10738TIP3    H253706   1.142   3.190  -0.056
10739TIP3   OH253707   1.662   5.478  12.190
10739TIP3    H153708   1.591   5.450  12.249
10739TIP3    H253709   1.702   5.552  12.235
10740TIP3   OH253710   2.077   3.628  14.011
10740TIP3    H153711   2.103   3.544  14.048
10740TIP3    H253712   2.009   3.660  14.070
10741TIP3   OH253713   1.406   6.481  16.082
10741TIP3    H153714   1.363   6.475  15.997
10741TIP3    H253715   1.351   6.541  16.133
10742TIP3   OH253716   6.634   4.384  16.286
10742TIP3    H153717   6.585   4.312  16.324
10742TIP3    H253718   6.647   4.359  16.194
10743TIP3   OH253719   1.864   5.619  17.077
10743TIP3    H153720   1.794   5.617  17.011
10743TIP3    H253721   1.920   5.693  17.051
10744TIP3   OH253722   2.641   3.920   5.364
10744TIP3    H153723   2.609   3.922   5.274
10744TIP3    H253724   2.686   3.836   5.372
10745TIP3   OH253725   0.227   2.389  10.446
10745TIP3    H153726   0.205   2.296  10.434
10745TIP3    H253727   0.199   2.409  10.535
10746TIP3   OH253728   3.029   5.657   0.864
10746TIP3    H153729   2.959   5.709   0.903
10746TIP3    H253730   3.054   5.706   0.785
10747TIP3   OH253731   2.706   3.704  13.602
10747TIP3    H153732   2.792   3.685  13.562
10747TIP3    H253733   2.648   3.638  13.564
10748TIP3   OH253734   0.545   5.425   5.393
10748TIP3    H153735   0.593   5.466   5.322
10748TIP3    H253736   0.475   5.376   5.350
10749TIP3   OH253737   6.054   2.740  16.990
10749TIP3    H153738   6.133   2.756  16.940
10749TIP3    H253739   6.073   2.662  17.041
10750TIP3   OH253740   2.261   3.737   0.634
10750TIP3    H153741   2.243   3.650   0.670
10750TIP3    H253742   2.334   3.723   0.573
10751TIP3   OH253743   5.610   3.348  16.070
10751TIP3    H153744   5.595   3.284  16.001
10751TIP3    H253745   5.636   3.297  16.146
10752TIP3   OH253746   4.131   6.752   6.256
10752TIP3    H153747   4.208   6.723   6.206
10752TIP3    H253748   4.085   6.810   6.196
10753TIP3   OH253749   3.278   2.197   0.023
10753TIP3    H153750   3.297   2.286  -0.007
10753TIP3    H253751   3.279   2.203   0.118
10754TIP3   OH253752   4.851   1.276  13.223
10754TIP3    H153753   4.758   1.290  13.242
10754TIP3    H253754   4.868   1.187  13.256
10755TIP3   OH253755   0.918   3.887  15.044
10755TIP3    H153756   0.860   3.936  14.986
10755TIP3    H253757   0.898   3.921  15.132
10756TIP3   OH253758   4.697   5.565  15.227
10756TIP3    H153759   4.649   5.632  15.178
10756TIP3    H253760   4.783   5.562  15.185
10757TIP3   OH253761   6.677   4.289   1.138
10757TIP3    H153762   6.608   4.229   1.111
10757TIP3    H253763   6.651   4.317   1.226
10758TIP3   OH253764   4.472   4.578   4.078
10758TIP3    H153765   4.519   4.499   4.052
10758TIP3    H253766   4.468   4.631   3.999
10759TIP3   OH253767   2.657   1.716  16.921
10759TIP3    H153768   2.737   1.664  16.912
10759TIP3    H253769   2.660   1.777  16.847
10760TIP3   OH253770   1.908   4.786   5.806
10760TIP3    H153771   1.935   4.695   5.789
10760TIP3    H253772   1.947   4.806   5.891
10761TIP3   OH253773   6.105   5.469   5.075
10761TIP3    H153774   6.011   5.480   5.061
10761TIP3    H253775   6.114   5.381   5.111
10762TIP3   OH253776   1.797   2.251   5.980
10762TIP3    H153777   1.837   2.168   6.008
10762TIP3    H253778   1.715   2.226   5.939
10763TIP3   OH253779   4.323   5.192   3.941
10763TIP3    H153780   4.270   5.128   3.894
10763TIP3    H253781   4.383   5.139   3.994
10764TIP3   OH253782   0.895   1.413  16.783
10764TIP3    H153783   0.821   1.454  16.827
10764TIP3    H253784   0.960   1.484  16.774
10765TIP3   OH253785   0.784   1.859   5.856
10765TIP3    H153786   0.698   1.817   5.869
10765TIP3    H253787   0.764   1.942   5.813
10766TIP3   OH253788   3.892   2.873  13.137
10766TIP3    H153789   3.883   2.783  13.106
10766TIP3    H253790   3.987   2.886  13.144
10767TIP3   OH253791   4.831   3.145   2.888
10767TIP3    H153792   4.783   3.084   2.832
10767TIP3    H253793   4.872   3.206   2.827
10768TIP3   OH253794   5.661   3.798  15.511
10768TIP3    H153795   5.693   3.880  15.473
10768TIP3    H253796   5.632   3.747  15.435
10769TIP3   OH253797   3.882   6.080  12.421
10769TIP3    H153798   3.903   6.146  12.356
10769TIP3    H253799   3.799   6.042  12.391
10770TIP3   OH253800   2.778   2.777  12.296
10770TIP3    H153801   2.847   2.711  12.286
10770TIP3    H253802   2.773   2.791  12.391
10771TIP3   OH253803   0.652   0.393  10.929
10771TIP3    H153804   0.591   0.395  10.855
10771TIP3    H253805   0.694   0.307  10.924
10772TIP3   OH253806   0.609   0.864  14.196
10772TIP3    H153807   0.545   0.902  14.255
10772TIP3    H253808   0.692   0.904  14.222
10773TIP3   OH253809   4.037   2.023  12.386
10773TIP3    H153810   4.087   2.067  12.317
10773TIP3    H253811   4.088   2.039  12.465
10774TIP3   OH253812   2.871   6.170  17.025
10774TIP3    H153813   2.801   6.231  17.003
10774TIP3    H253814   2.826   6.089  17.048
10775TIP3   OH253815   4.486   5.142  12.286
10775TIP3    H153816   4.397   5.146  12.321
10775TIP3    H253817   4.485   5.201  12.210
10776TIP3   OH253818   1.608   5.898   0.083
10776TIP3    H153819   1.590   5.846   0.162
10776TIP3    H253820   1.522   5.908   0.041
10777TIP3   OH253821   0.059   5.985   1.292
10777TIP3    H153822  -0.023   6.004   1.337
10777TIP3    H253823   0.063   6.047   1.220
10778TIP3   OH253824   2.886   3.761   5.399
10778TIP3    H153825   2.871   3.780   5.492
10778TIP3    H253826   2.917   3.671   5.398
10779TIP3   OH253827   3.179   6.365   2.090
10779TIP3    H153828   3.170   6.314   2.171
10779TIP3    H253829   3.227   6.443   2.117
10780TIP3   OH253830   4.086   4.828   3.093
10780TIP3    H153831   4.020   4.827   3.024
10780TIP3    H253832   4.063   4.903   3.147
10781TIP3   OH253833   2.514   3.487   1.673
10781TIP3    H153834   2.526   3.576   1.709
10781TIP3    H253835   2.555   3.490   1.587
10782TIP3   OH253836   3.907   5.723   3.089
10782TIP3    H153837   3.904   5.723   2.994
10782TIP3    H253838   3.868   5.806   3.115
10783TIP3   OH253839   1.878   6.275  16.540
10783TIP3    H153840   1.831   6.347  16.583
10783TIP3    H253841   1.858   6.199  16.594
10784TIP3   OH253842   2.367   6.542  16.079
10784TIP3    H153843   2.421   6.469  16.107
10784TIP3    H253844   2.408   6.572  15.997
10785TIP3   OH253845   5.208   6.749   1.354
10785TIP3    H153846   5.239   6.690   1.422
10785TIP3    H253847   5.167   6.821   1.402
10786TIP3   OH253848   5.548   5.057   1.651
10786TIP3    H153849   5.551   5.114   1.728
10786TIP3    H253850   5.625   5.082   1.600
10787TIP3   OH253851   0.182   0.808   2.897
10787TIP3    H153852   0.207   0.892   2.859
10787TIP3    H253853   0.222   0.807   2.983
10788TIP3   OH253854   2.306   5.643  10.141
10788TIP3    H153855   2.355   5.574  10.096
10788TIP3    H253856   2.227   5.599  10.172
10789TIP3   OH253857   5.361   5.338   0.904
10789TIP3    H153858   5.278   5.341   0.857
10789TIP3    H253859   5.355   5.409   0.968
10790TIP3   OH253860   0.019   2.637  16.630
10790TIP3    H153861  -0.030   2.676  16.558
10790TIP3    H253862   0.044   2.711  16.685
10791TIP3   OH253863   5.196   1.816   4.254
10791TIP3    H153864   5.116   1.857   4.288
10791TIP3    H253865   5.165   1.738   4.208
10792TIP3   OH253866   1.263   1.397   4.826
10792TIP3    H153867   1.349   1.433   4.804
10792TIP3    H253868   1.243   1.336   4.755
10793TIP3   OH253869   0.705   2.172   6.022
10793TIP3    H153870   0.748   2.214   6.096
10793TIP3    H253871   0.622   2.141   6.057
10794TIP3   OH253872   3.284   4.185   6.054
10794TIP3    H153873   3.358   4.125   6.061
10794TIP3    H253874   3.257   4.201   6.144
10795TIP3   OH253875   3.090   4.643  12.783
10795TIP3    H153876   3.053   4.569  12.734
10795TIP3    H253877   3.107   4.607  12.870
10796TIP3   OH253878   2.978   3.877  16.148
10796TIP3    H153879   2.902   3.918  16.107
10796TIP3    H253880   2.966   3.784  16.133
10797TIP3   OH253881   5.435   3.015   2.317
10797TIP3    H153882   5.502   3.042   2.255
10797TIP3    H253883   5.475   3.028   2.403
10798TIP3   OH253884   4.220   0.573  13.626
10798TIP3    H153885   4.133   0.611  13.616
10798TIP3    H253886   4.206   0.479  13.609
10799TIP3   OH253887   6.438   4.725   6.081
10799TIP3    H153888   6.508   4.785   6.108
10799TIP3    H253889   6.400   4.694   6.163
10800TIP3   OH253890   0.557   1.438  11.664
10800TIP3    H153891   0.524   1.500  11.729
10800TIP3    H253892   0.539   1.352  11.701
10801TIP3   OH253893   3.494   5.966   0.765
10801TIP3    H153894   3.472   5.936   0.677
10801TIP3    H253895   3.455   5.900   0.823
10802TIP3   OH253896   3.262   2.984  12.957
10802TIP3    H153897   3.243   2.913  12.895
10802TIP3    H253898   3.183   2.989  13.012
10803TIP3   OH253899   2.330   3.337   0.926
10803TIP3    H153900   2.294   3.301   1.007
10803TIP3    H253901   2.395   3.400   0.955
10804TIP3   OH253902   0.839   1.389  12.660
10804TIP3    H153903   0.920   1.422  12.700
10804TIP3    H253904   0.799   1.336  12.729
10805TIP3   OH253905   4.546   0.624  17.144
10805TIP3    H153906   4.580   0.714  17.142
10805TIP3    H253907   4.612   0.573  17.097
10806TIP3   OH253908   3.684   4.583   2.411
10806TIP3    H153909   3.639   4.668   2.417
10806TIP3    H253910   3.662   4.551   2.323
10807TIP3   OH253911   4.960   3.690   1.944
10807TIP3    H153912   4.874   3.691   1.985
10807TIP3    H253913   4.970   3.777   1.905
10808TIP3   OH253914   0.126   4.583  12.691
10808TIP3    H153915   0.195   4.517  12.686
10808TIP3    H253916   0.135   4.634  12.610
10809TIP3   OH253917   3.599   0.060  15.987
10809TIP3    H153918   3.667   0.008  15.944
10809TIP3    H253919   3.523   0.001  15.992
10810TIP3   OH253920   2.335   5.571   1.511
10810TIP3    H153921   2.299   5.651   1.548
10810TIP3    H253922   2.427   5.592   1.494
10811TIP3   OH253923   6.627   4.220  14.421
10811TIP3    H153924   6.550   4.271  14.396
10811TIP3    H253925   6.611   4.195  14.512
10812TIP3   OH253926   4.359   3.503  16.154
10812TIP3    H153927   4.283   3.451  16.127
10812TIP3    H253928   4.394   3.539  16.072
10813TIP3   OH253929   1.287   0.783   5.700
10813TIP3    H153930   1.277   0.738   5.617
10813TIP3    H253931   1.378   0.813   5.700
10814TIP3   OH253932   4.225   1.048   1.272
10814TIP3    H153933   4.205   1.020   1.361
10814TIP3    H253934   4.140   1.054   1.228
10815TIP3   OH253935   1.365   6.228  12.530
10815TIP3    H153936   1.377   6.281  12.451
10815TIP3    H253937   1.437   6.165  12.528
10816TIP3   OH253938   0.990   0.154   1.580
10816TIP3    H153939   0.950   0.230   1.537
10816TIP3    H253940   1.082   0.156   1.554
10817TIP3   OH253941   5.909   3.735  13.332
10817TIP3    H153942   5.899   3.654  13.381
10817TIP3    H253943   5.820   3.765  13.317
10818TIP3   OH253944   0.312   4.871   1.005
10818TIP3    H153945   0.364   4.923   0.944
10818TIP3    H253946   0.376   4.832   1.064
10819TIP3   OH253947   0.554   0.620  16.629
10819TIP3    H153948   0.503   0.545  16.660
10819TIP3    H253949   0.611   0.583  16.561
10820TIP3   OH253950   4.176   6.363   5.902
10820TIP3    H153951   4.197   6.298   5.969
10820TIP3    H253952   4.109   6.321   5.848
10821TIP3   OH253953   0.331   6.406   3.622
10821TIP3    H153954   0.279   6.473   3.578
10821TIP3    H253955   0.418   6.413   3.583
10822TIP3   OH253956   5.263   0.341   5.839
10822TIP3    H153957   5.263   0.245   5.846
10822TIP3    H253958   5.185   0.361   5.787
10823TIP3   OH253959   4.754   3.713  13.996
10823TIP3    H153960   4.753   3.640  14.058
10823TIP3    H253961   4.845   3.717  13.966
10824TIP3   OH253962   4.724   4.106   1.849
10824TIP3    H153963   4.734   4.168   1.921
10824TIP3    H253964   4.735   4.159   1.770
10825TIP3   OH253965   1.750   1.533  14.344
10825TIP3    H153966   1.837   1.526  14.383
10825TIP3    H253967   1.711   1.446  14.356
10826TIP3   OH253968   1.206   0.712  15.697
10826TIP3    H153969   1.179   0.622  15.715
10826TIP3    H253970   1.213   0.717  15.602
10827TIP3   OH253971   5.745   2.264   5.280
10827TIP3    H153972   5.751   2.180   5.237
10827TIP3    H253973   5.768   2.328   5.212
10828TIP3   OH253974   3.562   0.645  11.543
10828TIP3    H153975   3.555   0.733  11.505
10828TIP3    H253976   3.496   0.594  11.495
10829TIP3   OH253977   4.035   4.060   5.772
10829TIP3    H153978   3.998   4.083   5.687
10829TIP3    H253979   3.977   3.993   5.807
10830TIP3   OH253980   4.162   0.957   2.099
10830TIP3    H153981   4.162   0.901   2.176
10830TIP3    H253982   4.210   1.036   2.126
10831TIP3   OH253983   1.242   6.796  13.040
10831TIP3    H153984   1.287   6.744  12.974
10831TIP3    H253985   1.308   6.858  13.072
10832TIP3   OH253986   2.154   2.809   2.510
10832TIP3    H153987   2.154   2.825   2.604
10832TIP3    H253988   2.206   2.880   2.473
10833TIP3   OH253989   2.126   5.402  16.370
10833TIP3    H153990   2.087   5.472  16.318
10833TIP3    H253991   2.055   5.371  16.426
10834TIP3   OH253992   4.866   0.114  17.005
10834TIP3    H153993   4.856   0.133  17.098
10834TIP3    H253994   4.889   0.199  16.966
10835TIP3   OH253995   5.332   4.503   3.715
10835TIP3    H153996   5.362   4.579   3.665
10835TIP3    H253997   5.315   4.436   3.649
10836TIP3   OH253998   1.233   4.650  16.151
10836TIP3    H153999   1.234   4.711  16.077
10836TIP3    H254000   1.173   4.581  16.124
10837TIP3   OH254001   5.932   1.892  16.020
10837TIP3    H154002   5.963   1.857  16.104
10837TIP3    H254003   5.969   1.981  16.016
10838TIP3   OH254004   4.661   5.952  11.968
10838TIP3    H154005   4.662   5.914  12.056
10838TIP3    H254006   4.651   6.046  11.983
10839TIP3   OH254007   5.988   0.659   1.228
10839TIP3    H154008   5.927   0.703   1.169
10839TIP3    H254009   5.939   0.647   1.310
10840TIP3   OH254010   5.088   6.634   2.396
10840TIP3    H154011   5.074   6.620   2.490
10840TIP3    H254012   5.143   6.712   2.392
10841TIP3   OH254013   3.169   4.044   4.022
10841TIP3    H154014   3.139   3.973   4.078
10841TIP3    H254015   3.181   4.119   4.081
10842TIP3   OH254016   2.488   4.701  14.603
10842TIP3    H154017   2.549   4.727  14.673
10842TIP3    H254018   2.423   4.772  14.601
10843TIP3   OH254019   4.765   0.657   3.542
10843TIP3    H154020   4.708   0.685   3.470
10843TIP3    H254021   4.710   0.601   3.596
10844TIP3   OH254022   0.935   4.853   0.560
10844TIP3    H154023   0.998   4.914   0.522
10844TIP3    H254024   0.910   4.796   0.487
10845TIP3   OH254025   3.131   3.091  13.171
10845TIP3    H154026   3.106   3.018  13.228
10845TIP3    H254027   3.083   3.166  13.206
10846TIP3   OH254028   1.711   2.670  12.855
10846TIP3    H154029   1.679   2.758  12.875
10846TIP3    H254030   1.742   2.635  12.938
10847TIP3   OH254031   0.547   2.466  13.038
10847TIP3    H154032   0.454   2.488  13.033
10847TIP3    H254033   0.565   2.419  12.957
10848TIP3   OH254034   0.745   3.077  15.659
10848TIP3    H154035   0.733   3.153  15.715
10848TIP3    H254036   0.833   3.088  15.622
10849TIP3   OH254037   5.568   4.874   1.038
10849TIP3    H154038   5.606   4.954   1.002
10849TIP3    H254039   5.565   4.889   1.132
10850TIP3   OH254040   4.261   2.787  14.538
10850TIP3    H154041   4.199   2.808  14.608
10850TIP3    H254042   4.328   2.733  14.579
10851TIP3   OH254043   6.432   2.573   4.505
10851TIP3    H154044   6.426   2.607   4.594
10851TIP3    H254045   6.365   2.504   4.501
10852TIP3   OH254046   1.758   0.299   2.740
10852TIP3    H154047   1.798   0.233   2.796
10852TIP3    H254048   1.683   0.331   2.790
10853TIP3   OH254049   2.725   3.979  16.145
10853TIP3    H154050   2.667   3.916  16.187
10853TIP3    H254051   2.696   4.064  16.177
10854TIP3   OH254052   3.467   4.863   4.828
10854TIP3    H154053   3.465   4.959   4.820
10854TIP3    H254054   3.446   4.847   4.920
10855TIP3   OH254055   3.636   0.940  16.071
10855TIP3    H154056   3.688   1.018  16.085
10855TIP3    H254057   3.608   0.913  16.159
10856TIP3   OH254058   1.006   5.904   1.697
10856TIP3    H154059   1.067   5.837   1.667
10856TIP3    H254060   0.926   5.856   1.718
10857TIP3   OH254061   0.528   1.571  14.156
10857TIP3    H154062   0.590   1.625  14.107
10857TIP3    H254063   0.582   1.501  14.193
10858TIP3   OH254064   5.728   3.323  14.735
10858TIP3    H154065   5.756   3.231  14.739
10858TIP3    H254066   5.634   3.321  14.755
10859TIP3   OH254067   5.039   0.355  13.711
10859TIP3    H154068   4.955   0.328  13.746
10859TIP3    H254069   5.065   0.429  13.766
10860TIP3   OH254070   6.192   2.141  12.366
10860TIP3    H154071   6.192   2.222  12.316
10860TIP3    H254072   6.264   2.151  12.429
10861TIP3   OH254073   4.266   3.247   1.750
10861TIP3    H154074   4.344   3.288   1.788
10861TIP3    H254075   4.223   3.318   1.701
10862TIP3   OH254076   5.924   5.268   4.222
10862TIP3    H154077   5.950   5.347   4.175
10862TIP3    H254078   5.974   5.198   4.180
10863TIP3   OH254079   6.073   1.078   5.502
10863TIP3    H154080   6.058   1.124   5.584
10863TIP3    H254081   6.050   0.987   5.521
10864TIP3   OH254082   1.621   4.383  12.054
10864TIP3    H154083   1.688   4.445  12.082
10864TIP3    H254084   1.538   4.429  12.069
10865TIP3   OH254085   5.144   3.699   3.730
10865TIP3    H154086   5.090   3.649   3.791
10865TIP3    H254087   5.086   3.769   3.699
10866TIP3   OH254088   1.367   3.290   4.422
10866TIP3    H154089   1.295   3.275   4.361
10866TIP3    H254090   1.446   3.272   4.371
10867TIP3   OH254091   1.460   1.869   2.753
10867TIP3    H154092   1.541   1.913   2.728
10867TIP3    H254093   1.478   1.832   2.839
10868TIP3   OH254094   3.775   5.709   1.175
10868TIP3    H154095   3.847   5.692   1.236
10868TIP3    H254096   3.699   5.722   1.232
10869TIP3   OH254097   6.271   0.892   4.648
10869TIP3    H154098   6.294   0.981   4.674
10869TIP3    H254099   6.183   0.900   4.612
10870TIP3   OH254100   4.249   6.707   0.983
10870TIP3    H154101   4.170   6.736   0.937
10870TIP3    H254102   4.314   6.775   0.965
10871TIP3   OH254103   6.441   3.462   0.951
10871TIP3    H154104   6.360   3.496   0.913
10871TIP3    H254105   6.451   3.510   1.033
10872TIP3   OH254106   0.536   0.814   5.636
10872TIP3    H154107   0.489   0.772   5.708
10872TIP3    H254108   0.622   0.772   5.636
10873TIP3   OH254109   6.762   5.683   5.946
10873TIP3    H154110   6.850   5.721   5.947
10873TIP3    H254111   6.713   5.734   6.011
10874TIP3   OH254112   0.493   4.908  14.811
10874TIP3    H154113   0.549   4.897  14.888
10874TIP3    H254114   0.500   4.824  14.765
10875TIP3   OH254115   0.389   3.524  13.180
10875TIP3    H154116   0.300   3.552  13.160
10875TIP3    H254117   0.427   3.598  13.228
10876TIP3   OH254118   2.313   0.858   1.009
10876TIP3    H154119   2.320   0.926   1.075
10876TIP3    H254120   2.224   0.868   0.974
10877TIP3   OH254121   4.944   5.362   1.606
10877TIP3    H154122   4.872   5.404   1.559
10877TIP3    H254123   4.984   5.304   1.541
10878TIP3   OH254124   0.922   0.770   1.584
10878TIP3    H154125   0.876   0.833   1.640
10878TIP3    H254126   0.880   0.779   1.499
10879TIP3   OH254127   4.747   4.224   1.062
10879TIP3    H154128   4.716   4.208   0.973
10879TIP3    H254129   4.723   4.145   1.110
10880TIP3   OH254130   2.688   5.763   5.346
10880TIP3    H154131   2.683   5.682   5.295
10880TIP3    H254132   2.710   5.831   5.282
10881TIP3   OH254133   1.648   1.882   0.052
10881TIP3    H154134   1.607   1.958   0.010
10881TIP3    H254135   1.580   1.845   0.107
10882TIP3   OH254136   1.156   5.057  13.933
10882TIP3    H154137   1.176   5.086  13.844
10882TIP3    H254138   1.112   5.133  13.973
10883TIP3   OH254139   0.156   6.227  16.129
10883TIP3    H154140   0.097   6.164  16.088
10883TIP3    H254141   0.119   6.242  16.216
10884TIP3   OH254142   4.173   6.693  13.838
10884TIP3    H154143   4.171   6.603  13.804
10884TIP3    H254144   4.119   6.690  13.917
10885TIP3   OH254145   5.933   3.904   4.047
10885TIP3    H154146   5.984   3.837   4.093
10885TIP3    H254147   5.877   3.855   3.987
10886TIP3   OH254148   0.649   2.810  10.438
10886TIP3    H154149   0.606   2.772  10.515
10886TIP3    H254150   0.741   2.789  10.450
10887TIP3   OH254151   6.488   2.158  12.159
10887TIP3    H154152   6.413   2.215  12.139
10887TIP3    H254153   6.507   2.175  12.251
10888TIP3   OH254154   1.498   0.068  15.020
10888TIP3    H154155   1.558   0.140  14.999
10888TIP3    H254156   1.553  -0.011  15.018
10889TIP3   OH254157   1.007   0.279   2.886
10889TIP3    H154158   0.962   0.235   2.814
10889TIP3    H254159   0.956   0.256   2.963
10890TIP3   OH254160   4.190   6.198   2.364
10890TIP3    H154161   4.246   6.128   2.397
10890TIP3    H254162   4.250   6.259   2.321
10891TIP3   OH254163   0.383   0.685   1.554
10891TIP3    H154164   0.384   0.654   1.463
10891TIP3    H254165   0.336   0.617   1.602
10892TIP3   OH254166   6.271   3.236   1.355
10892TIP3    H154167   6.317   3.158   1.325
10892TIP3    H254168   6.321   3.265   1.432
10893TIP3   OH254169   2.846   1.923   0.267
10893TIP3    H154170   2.846   2.017   0.248
10893TIP3    H254171   2.773   1.911   0.328
10894TIP3   OH254172   6.676   1.792  15.274
10894TIP3    H154173   6.645   1.715  15.321
10894TIP3    H254174   6.680   1.765  15.183
10895TIP3   OH254175   6.038   2.882  14.655
10895TIP3    H154176   5.986   2.919  14.584
10895TIP3    H254177   5.982   2.815  14.694
10896TIP3   OH254178   1.797   3.300   4.652
10896TIP3    H154179   1.792   3.206   4.633
10896TIP3    H254180   1.706   3.330   4.647
10897TIP3   OH254181   1.592   0.313  14.916
10897TIP3    H154182   1.667   0.291  14.861
10897TIP3    H254183   1.518   0.316  14.856
10898TIP3   OH254184   1.855   5.931  10.989
10898TIP3    H154185   1.835   5.893  11.074
10898TIP3    H254186   1.951   5.934  10.986
10899TIP3   OH254187   2.153   0.437   3.996
10899TIP3    H154188   2.148   0.399   3.908
10899TIP3    H254189   2.063   0.434   4.029
10900TIP3   OH254190   4.160   4.352  16.795
10900TIP3    H154191   4.147   4.279  16.856
10900TIP3    H254192   4.246   4.386  16.816
10901TIP3   OH254193   0.400   2.137   2.125
10901TIP3    H154194   0.472   2.098   2.075
10901TIP3    H254195   0.423   2.118   2.217
10902TIP3   OH254196   4.281   5.876  12.619
10902TIP3    H154197   4.213   5.914  12.564
10902TIP3    H254198   4.234   5.811  12.673
10903TIP3   OH254199   3.024   2.896   1.723
10903TIP3    H154200   3.005   2.959   1.654
10903TIP3    H254201   2.996   2.812   1.687
10904TIP3   OH254202   5.586   3.897   1.228
10904TIP3    H154203   5.632   3.868   1.307
10904TIP3    H254204   5.533   3.971   1.258
10905TIP3   OH254205   6.396   4.931   0.358
10905TIP3    H154206   6.490   4.917   0.347
10905TIP3    H254207   6.390   5.001   0.423
10906TIP3   OH254208   2.297   1.696   2.444
10906TIP3    H154209   2.241   1.656   2.510
10906TIP3    H254210   2.364   1.743   2.494
10907TIP3   OH254211   4.157   1.875  16.304
10907TIP3    H154212   4.110   1.792  16.314
10907TIP3    H254213   4.228   1.855  16.243
10908TIP3   OH254214   1.762   0.803  10.495
10908TIP3    H154215   1.690   0.789  10.556
10908TIP3    H254216   1.817   0.725  10.505
10909TIP3   OH254217   0.211   3.977   4.092
10909TIP3    H154218   0.143   4.030   4.133
10909TIP3    H254219   0.232   3.911   4.157
10910TIP3   OH254220   1.202   5.295   4.129
10910TIP3    H154221   1.167   5.359   4.191
10910TIP3    H254222   1.162   5.319   4.045
10911TIP3   OH254223   0.436   4.129  12.091
10911TIP3    H154224   0.457   4.158  12.002
10911TIP3    H254225   0.451   4.206  12.146
10912TIP3   OH254226   3.319   1.523  16.911
10912TIP3    H154227   3.290   1.448  16.962
10912TIP3    H254228   3.414   1.522  16.918
10913TIP3   OH254229   1.885   1.843   3.872
10913TIP3    H154230   1.835   1.883   3.801
10913TIP3    H254231   1.819   1.798   3.926
10914TIP3   OH254232   1.121   5.436  14.313
10914TIP3    H154233   1.121   5.413  14.220
10914TIP3    H254234   1.160   5.523  14.316
10915TIP3   OH254235   0.205   0.552  15.635
10915TIP3    H154236   0.286   0.601  15.619
10915TIP3    H254237   0.135   0.617  15.623
10916TIP3   OH254238   2.008   1.525  11.453
10916TIP3    H154239   1.946   1.494  11.387
10916TIP3    H254240   2.045   1.445  11.491
10917TIP3   OH254241   5.047   6.585  11.614
10917TIP3    H154242   5.072   6.554  11.700
10917TIP3    H254243   5.053   6.680  11.620
10918TIP3   OH254244   2.254   1.138   3.386
10918TIP3    H154245   2.323   1.087   3.344
10918TIP3    H254246   2.234   1.090   3.466
10919TIP3   OH254247   3.724   4.035   3.285
10919TIP3    H154248   3.659   4.102   3.309
10919TIP3    H254249   3.796   4.084   3.246
10920TIP3   OH254250   1.553   2.782  10.984
10920TIP3    H154251   1.622   2.846  10.970
10920TIP3    H254252   1.587   2.702  10.945
10921TIP3   OH254253   4.522   5.946  12.715
10921TIP3    H154254   4.577   5.888  12.661
10921TIP3    H254255   4.433   5.931  12.683
10922TIP3   OH254256   5.649   6.061  11.621
10922TIP3    H154257   5.657   6.156  11.614
10922TIP3    H254258   5.697   6.039  11.701
10923TIP3   OH254259   0.661   4.933   1.083
10923TIP3    H154260   0.742   4.886   1.067
10923TIP3    H254261   0.602   4.868   1.121
10924TIP3   OH254262   1.043   4.681  16.805
10924TIP3    H154263   0.966   4.648  16.758
10924TIP3    H254264   1.008   4.747  16.864
10925TIP3   OH254265   1.404   3.231   4.814
10925TIP3    H154266   1.409   3.149   4.765
10925TIP3    H254267   1.314   3.262   4.800
10926TIP3   OH254268   6.702   0.366  15.907
10926TIP3    H154269   6.788   0.408  15.909
10926TIP3    H254270   6.640   0.438  15.891
10927TIP3   OH254271   5.360   4.761   0.872
10927TIP3    H154272   5.424   4.824   0.905
10927TIP3    H254273   5.304   4.813   0.814
10928TIP3   OH254274   6.713   4.420  15.943
10928TIP3    H154275   6.809   4.428  15.943
10928TIP3    H254276   6.697   4.326  15.932
10929TIP3   OH254277   1.990   3.639   3.143
10929TIP3    H154278   1.937   3.644   3.222
10929TIP3    H254279   1.926   3.629   3.072
10930TIP3   OH254280   5.186   0.684  16.952
10930TIP3    H154281   5.096   0.652  16.953
10930TIP3    H254282   5.186   0.754  16.886
10931TIP3   OH254283   5.397   6.442   0.722
10931TIP3    H154284   5.471   6.484   0.678
10931TIP3    H254285   5.432   6.358   0.752
10932TIP3   OH254286   5.925   1.386   5.590
10932TIP3    H154287   5.999   1.371   5.530
10932TIP3    H254288   5.938   1.324   5.661
10933TIP3   OH254289   2.815   1.516  13.485
10933TIP3    H154290   2.724   1.542  13.495
10933TIP3    H254291   2.864   1.597  13.495
10934TIP3   OH254292   6.629   4.959   1.427
10934TIP3    H154293   6.600   4.874   1.391
10934TIP3    H254294   6.618   5.020   1.354
10935TIP3   OH254295   1.389   4.590  12.443
10935TIP3    H154296   1.299   4.558  12.442
10935TIP3    H254297   1.443   4.512  12.434
10936TIP3   OH254298   6.360   0.272   4.269
10936TIP3    H154299   6.353   0.327   4.347
10936TIP3    H254300   6.366   0.335   4.196
10937TIP3   OH254301   5.812   4.082  12.792
10937TIP3    H154302   5.779   4.053  12.707
10937TIP3    H254303   5.783   4.173  12.800
10938TIP3   OH254304   3.257   1.333  11.111
10938TIP3    H154305   3.343   1.332  11.070
10938TIP3    H254306   3.199   1.372  11.046
10939TIP3   OH254307   3.919   5.717  10.730
10939TIP3    H154308   3.949   5.765  10.652
10939TIP3    H254309   3.992   5.659  10.752
10940TIP3   OH254310   1.750   1.583  16.009
10940TIP3    H154311   1.788   1.515  15.953
10940TIP3    H254312   1.671   1.610  15.963
10941TIP3   OH254313   1.538   4.546   4.774
10941TIP3    H154314   1.505   4.635   4.787
10941TIP3    H254315   1.550   4.539   4.679
10942TIP3   OH254316   6.679   1.163  10.983
10942TIP3    H154317   6.588   1.135  10.976
10942TIP3    H254318   6.727   1.102  10.927
10943TIP3   OH254319   4.144   1.424   2.257
10943TIP3    H154320   4.186   1.444   2.174
10943TIP3    H254321   4.066   1.373   2.233
10944TIP3   OH254322   0.277   4.459   1.666
10944TIP3    H154323   0.251   4.440   1.576
10944TIP3    H254324   0.324   4.380   1.694
10945TIP3   OH254325   2.565   6.563  15.888
10945TIP3    H154326   2.513   6.541  15.810
10945TIP3    H254327   2.631   6.494  15.893
10946TIP3   OH254328   0.591   3.207  17.016
10946TIP3    H154329   0.596   3.303  17.016
10946TIP3    H254330   0.673   3.179  16.975
10947TIP3   OH254331   1.789   5.048   5.068
10947TIP3    H154332   1.846   4.979   5.034
10947TIP3    H254333   1.716   5.052   5.006
10948TIP3   OH254334   4.398   0.978   1.033
10948TIP3    H154335   4.323   1.005   1.086
10948TIP3    H254336   4.444   1.060   1.014
10949TIP3   OH254337   5.564   1.397   3.509
10949TIP3    H154338   5.495   1.374   3.447
10949TIP3    H254339   5.564   1.326   3.573
10950TIP3   OH254340   3.045   2.244   1.027
10950TIP3    H154341   2.978   2.179   1.004
10950TIP3    H254342   3.022   2.322   0.977
10951TIP3   OH254343   4.159   0.264   0.802
10951TIP3    H154344   4.147   0.335   0.739
10951TIP3    H254345   4.252   0.245   0.799
10952TIP3   OH254346   0.686   1.158   5.989
10952TIP3    H154347   0.628   1.083   5.978
10952TIP3    H254348   0.627   1.234   5.990
10953TIP3   OH254349   3.297   5.466  16.654
10953TIP3    H154350   3.286   5.430  16.565
10953TIP3    H254351   3.390   5.452  16.673
10954TIP3   OH254352   3.557   5.504  17.031
10954TIP3    H154353   3.515   5.419  17.040
10954TIP3    H254354   3.484   5.566  17.028
10955TIP3   OH254355   1.018   1.710   5.737
10955TIP3    H154356   0.959   1.769   5.783
10955TIP3    H254357   1.089   1.766   5.706
10956TIP3   OH254358   0.824   2.338  14.345
10956TIP3    H154359   0.864   2.375  14.424
10956TIP3    H254360   0.806   2.247  14.368
10957TIP3   OH254361   6.261   1.260   3.593
10957TIP3    H154362   6.249   1.241   3.500
10957TIP3    H254363   6.264   1.174   3.635
10958TIP3   OH254364   1.330   4.105  14.313
10958TIP3    H154365   1.342   4.012  14.330
10958TIP3    H254366   1.321   4.145  14.400
10959TIP3   OH254367   6.457   0.792   2.877
10959TIP3    H154368   6.549   0.818   2.886
10959TIP3    H254369   6.410   0.850   2.937
10960TIP3   OH254370   3.965   0.609  12.970
10960TIP3    H154371   4.040   0.662  12.945
10960TIP3    H254372   3.969   0.533  12.913
10961TIP3   OH254373   2.250   5.335  14.808
10961TIP3    H154374   2.340   5.348  14.837
10961TIP3    H254375   2.237   5.399  14.739
10962TIP3   OH254376   3.961   0.060   2.171
10962TIP3    H154377   4.033   0.078   2.231
10962TIP3    H254378   3.885   0.100   2.212
10963TIP3   OH254379   0.749   3.293  15.828
10963TIP3    H154380   0.815   3.353  15.862
10963TIP3    H254381   0.683   3.288  15.897
10964TIP3   OH254382   5.746   0.558   5.386
10964TIP3    H154383   5.687   0.512   5.444
10964TIP3    H254384   5.691   0.625   5.344
10965TIP3   OH254385   2.022   1.668  10.646
10965TIP3    H154386   1.960   1.612  10.694
10965TIP3    H254387   1.976   1.690  10.565
10966TIP3   OH254388   2.479   6.613   6.636
10966TIP3    H154389   2.433   6.560   6.571
10966TIP3    H254390   2.454   6.576   6.720
10967TIP3   OH254391   2.152   4.569  13.557
10967TIP3    H154392   2.225   4.566  13.619
10967TIP3    H254393   2.097   4.495  13.582
10968TIP3   OH254394   5.151   2.542  15.214
10968TIP3    H154395   5.176   2.484  15.286
10968TIP3    H254396   5.059   2.521  15.197
10969TIP3   OH254397   6.788   1.160  14.266
10969TIP3    H154398   6.865   1.108  14.290
10969TIP3    H254399   6.724   1.142  14.335
10970TIP3   OH254400   2.942   4.885   4.571
10970TIP3    H154401   2.907   4.862   4.484
10970TIP3    H254402   3.013   4.946   4.553
10971TIP3   OH254403   0.848   0.975  10.684
10971TIP3    H154404   0.830   1.044  10.747
10971TIP3    H254405   0.917   1.011  10.629
10972TIP3   OH254406   5.811   3.107   0.756
10972TIP3    H154407   5.730   3.096   0.705
10972TIP3    H254408   5.865   3.032   0.731
10973TIP3   OH254409   5.114   6.449  16.458
10973TIP3    H154410   5.146   6.517  16.517
10973TIP3    H254411   5.167   6.372  16.479
10974TIP3   OH254412   2.905   1.077  13.794
10974TIP3    H154413   2.846   1.078  13.719
10974TIP3    H254414   2.981   1.026  13.764
10975TIP3   OH254415   0.337   1.174  12.475
10975TIP3    H154416   0.401   1.107  12.500
10975TIP3    H254417   0.318   1.155  12.383
10976TIP3   OH254418   3.292   2.034   4.618
10976TIP3    H154419   3.288   2.101   4.687
10976TIP3    H254420   3.245   2.073   4.544
10977TIP3   OH254421   1.076   2.937  12.298
10977TIP3    H154422   1.004   2.972  12.246
10977TIP3    H254423   1.120   3.014  12.335
10978TIP3   OH254424   5.303   5.512   4.629
10978TIP3    H154425   5.360   5.455   4.577
10978TIP3    H254426   5.268   5.575   4.565
10979TIP3   OH254427   0.048   1.669   2.423
10979TIP3    H154428   0.102   1.619   2.484
10979TIP3    H254429   0.088   1.756   2.421
10980TIP3   OH254430   3.172   4.542  14.920
10980TIP3    H154431   3.226   4.620  14.908
10980TIP3    H254432   3.083   4.576  14.930
10981TIP3   OH254433   6.481   5.062  12.131
10981TIP3    H154434   6.406   5.119  12.148
10981TIP3    H254435   6.524   5.100  12.054
10982TIP3   OH254436   5.256   5.025  14.804
10982TIP3    H154437   5.286   5.092  14.744
10982TIP3    H254438   5.301   5.043  14.886
10983TIP3   OH254439   0.601   3.389  16.701
10983TIP3    H154440   0.638   3.317  16.751
10983TIP3    H254441   0.560   3.347  16.625
10984TIP3   OH254442   6.593   4.234   5.062
10984TIP3    H154443   6.673   4.283   5.043
10984TIP3    H254444   6.527   4.302   5.077
10985TIP3   OH254445   1.926   1.880   0.119
10985TIP3    H154446   1.832   1.887   0.103
10985TIP3    H254447   1.955   1.809   0.062
10986TIP3   OH254448   3.444   6.050   0.048
10986TIP3    H154449   3.533   6.018   0.033
10986TIP3    H254450   3.391   6.005  -0.018
10987TIP3   OH254451   1.747   6.570  12.517
10987TIP3    H154452   1.770   6.632  12.447
10987TIP3    H254453   1.801   6.493  12.500
10988TIP3   OH254454   5.106   4.785  16.859
10988TIP3    H154455   5.125   4.733  16.781
10988TIP3    H254456   5.146   4.736  16.931
10989TIP3   OH254457   3.016   0.270   3.796
10989TIP3    H154458   3.027   0.204   3.727
10989TIP3    H254459   3.078   0.245   3.864
10990TIP3   OH254460   0.547   4.437   4.597
10990TIP3    H154461   0.508   4.431   4.684
10990TIP3    H254462   0.485   4.490   4.546
10991TIP3   OH254463   0.042   5.256  16.937
10991TIP3    H154464   0.121   5.229  16.891
10991TIP3    H254465   0.001   5.321  16.880
10992TIP3   OH254466   4.892   6.671  11.886
10992TIP3    H154467   4.976   6.627  11.870
10992TIP3    H254468   4.916   6.751  11.932
10993TIP3   OH254469   1.210   0.180  13.580
10993TIP3    H154470   1.122   0.213  13.562
10993TIP3    H254471   1.268   0.241  13.536
10994TIP3   OH254472   1.527   5.616  15.624
10994TIP3    H154473   1.438   5.641  15.649
10994TIP3    H254474   1.526   5.619  15.528
10995TIP3   OH254475   5.672   5.317   1.710
10995TIP3    H154476   5.685   5.281   1.622
10995TIP3    H254477   5.754   5.298   1.756
10996TIP3   OH254478   2.937   6.028   1.521
10996TIP3    H154479   2.994   5.953   1.505
10996TIP3    H254480   2.943   6.079   1.440
10997TIP3   OH254481   1.187   1.193   6.680
10997TIP3    H154482   1.104   1.205   6.633
10997TIP3    H254483   1.165   1.138   6.755
10998TIP3   OH254484   1.507   3.824  13.557
10998TIP3    H154485   1.580   3.792  13.611
10998TIP3    H254486   1.430   3.812  13.612
10999TIP3   OH254487   4.620   0.261  15.407
10999TIP3    H154488   4.548   0.232  15.463
10999TIP3    H254489   4.658   0.335  15.454
11000TIP3   OH254490   5.782   1.736   3.861
11000TIP3    H154491   5.711   1.683   3.825
11000TIP3    H254492   5.745   1.772   3.942
11001TIP3   OH254493   5.860   5.066   1.655
11001TIP3    H154494   5.821   4.981   1.636
11001TIP3    H254495   5.938   5.045   1.707
11002TIP3   OH254496   5.095   6.440   1.960
11002TIP3    H154497   5.125   6.407   2.045
11002TIP3    H254498   5.130   6.529   1.956
11003TIP3   OH254499   5.826   1.665   4.247
11003TIP3    H154500   5.758   1.681   4.182
11003TIP3    H254501   5.908   1.673   4.199
11004TIP3   OH254502   4.555   5.510  14.072
11004TIP3    H154503   4.475   5.486  14.118
11004TIP3    H254504   4.544   5.603  14.051
11005TIP3   OH254505   5.603   5.518  15.078
11005TIP3    H154506   5.518   5.544  15.113
11005TIP3    H254507   5.650   5.482  15.154
11006TIP3   OH254508   6.685   2.855  15.405
11006TIP3    H154509   6.687   2.949  15.386
11006TIP3    H254510   6.602   2.843  15.452
11007TIP3   OH254511   6.718   5.151   3.439
11007TIP3    H154512   6.754   5.233   3.405
11007TIP3    H254513   6.775   5.129   3.513
11008TIP3   OH254514   3.404   5.180  13.070
11008TIP3    H154515   3.350   5.104  13.090
11008TIP3    H254516   3.388   5.197  12.977
11009TIP3   OH254517   5.942   3.182   0.499
11009TIP3    H154518   5.902   3.184   0.587
11009TIP3    H254519   6.021   3.236   0.508
11010TIP3   OH254520   6.730   4.226   5.454
11010TIP3    H154521   6.644   4.211   5.417
11010TIP3    H254522   6.786   4.159   5.414
11011TIP3   OH254523   2.997   5.395   1.607
11011TIP3    H154524   3.057   5.463   1.637
11011TIP3    H254525   2.996   5.404   1.512
11012TIP3   OH254526   6.768   0.577   0.416
11012TIP3    H154527   6.845   0.542   0.372
11012TIP3    H254528   6.775   0.672   0.405
11013TIP3   OH254529   0.334   1.347   2.950
11013TIP3    H154530   0.254   1.369   2.998
11013TIP3    H254531   0.363   1.264   2.988
11014TIP3   OH254532   1.996   3.183  15.453
11014TIP3    H154533   2.035   3.110  15.500
11014TIP3    H254534   1.907   3.189  15.489
11015TIP3   OH254535   6.576   0.210   3.953
11015TIP3    H154536   6.640   0.280   3.935
11015TIP3    H254537   6.519   0.210   3.877
11016TIP3   OH254538   6.000   6.273  16.042
11016TIP3    H154539   6.023   6.365  16.040
11016TIP3    H254540   6.083   6.226  16.048
11017TIP3   OH254541   4.070   4.165   1.272
11017TIP3    H154542   4.008   4.218   1.323
11017TIP3    H254543   4.121   4.118   1.339
11018TIP3   OH254544   4.383   3.036   4.123
11018TIP3    H154545   4.434   2.960   4.152
11018TIP3    H254546   4.424   3.062   4.040
11019TIP3   OH254547   3.430   4.554   6.311
11019TIP3    H154548   3.404   4.644   6.288
11019TIP3    H254549   3.360   4.523   6.368
11020TIP3   OH254550   0.440   5.895   2.179
11020TIP3    H154551   0.503   5.855   2.119
11020TIP3    H254552   0.461   5.989   2.176
11021TIP3   OH254553   0.454   1.781   1.129
11021TIP3    H154554   0.368   1.758   1.165
11021TIP3    H254555   0.435   1.811   1.040
11022TIP3   OH254556   2.737   6.269  12.947
11022TIP3    H154557   2.666   6.333  12.942
11022TIP3    H254558   2.755   6.246  12.856
11023TIP3   OH254559   4.716   3.357  14.685
11023TIP3    H154560   4.715   3.440  14.636
11023TIP3    H254561   4.648   3.367  14.751
11024TIP3   OH254562   1.725   6.579  10.871
11024TIP3    H154563   1.694   6.640  10.803
11024TIP3    H254564   1.702   6.622  10.953
11025TIP3   OH254565   6.213   3.336   2.460
11025TIP3    H154566   6.151   3.271   2.494
11025TIP3    H254567   6.258   3.291   2.388
11026TIP3   OH254568   1.300   6.078  13.113
11026TIP3    H154569   1.275   5.987  13.093
11026TIP3    H254570   1.287   6.086  13.208
11027TIP3   OH254571   1.580   1.208   4.716
11027TIP3    H154572   1.510   1.240   4.659
11027TIP3    H254573   1.551   1.228   4.805
11028TIP3   OH254574   6.514   0.553   5.655
11028TIP3    H154575   6.467   0.522   5.577
11028TIP3    H254576   6.597   0.507   5.654
11029TIP3   OH254577   6.437   4.888   5.391
11029TIP3    H154578   6.387   4.932   5.460
11029TIP3    H254579   6.371   4.842   5.340
11030TIP3   OH254580   5.944   6.313   5.039
11030TIP3    H154581   5.908   6.263   5.113
11030TIP3    H254582   5.993   6.384   5.080
11031TIP3   OH254583   3.292   3.524   1.252
11031TIP3    H154584   3.367   3.539   1.195
11031TIP3    H254585   3.327   3.476   1.326
11032TIP3   OH254586   0.982   1.730  11.469
11032TIP3    H154587   1.063   1.738  11.419
11032TIP3    H254588   1.007   1.686  11.550
11033TIP3   OH254589   0.798   0.199   6.358
11033TIP3    H154590   0.799   0.105   6.375
11033TIP3    H254591   0.889   0.220   6.335
11034TIP3   OH254592   4.835   0.567   5.727
11034TIP3    H154593   4.825   0.500   5.659
11034TIP3    H254594   4.749   0.607   5.735
11035TIP3   OH254595   2.679   5.522  12.369
11035TIP3    H154596   2.765   5.500  12.404
11035TIP3    H254597   2.620   5.457  12.407
11036TIP3   OH254598   2.369   3.364   0.404
11036TIP3    H154599   2.363   3.282   0.453
11036TIP3    H254600   2.279   3.383   0.377
11037TIP3   OH254601   6.691   5.883  14.484
11037TIP3    H154602   6.744   5.953  14.445
11037TIP3    H254603   6.648   5.841  14.410
11038TIP3   OH254604   2.859   1.886  12.952
11038TIP3    H154605   2.918   1.826  12.997
11038TIP3    H254606   2.917   1.947  12.906
11039TIP3   OH254607   0.499   5.782  16.464
11039TIP3    H154608   0.528   5.859  16.513
11039TIP3    H254609   0.405   5.795  16.453
11040TIP3   OH254610   4.731   5.897  16.256
11040TIP3    H154611   4.807   5.839  16.262
11040TIP3    H254612   4.703   5.890  16.165
11041TIP3   OH254613   2.505   2.366  14.646
11041TIP3    H154614   2.555   2.308  14.589
11041TIP3    H254615   2.534   2.454  14.622
11042TIP3   OH254616   4.036   3.753  16.056
11042TIP3    H154617   4.033   3.657  16.063
11042TIP3    H254618   3.945   3.778  16.041
11043TIP3   OH254619   5.861   4.023   0.521
11043TIP3    H154620   5.803   4.082   0.473
11043TIP3    H254621   5.915   4.081   0.575
11044TIP3   OH254622   6.395   5.137   0.048
11044TIP3    H154623   6.449   5.216   0.060
11044TIP3    H254624   6.312   5.159   0.090
11045TIP3   OH254625   0.736   2.647  15.714
11045TIP3    H154626   0.764   2.564  15.751
11045TIP3    H254627   0.816   2.684  15.674
11046TIP3   OH254628   1.249   2.445   2.485
11046TIP3    H154629   1.278   2.415   2.399
11046TIP3    H254630   1.230   2.538   2.473
11047TIP3   OH254631   0.251   1.562  15.199
11047TIP3    H154632   0.260   1.533  15.108
11047TIP3    H254633   0.301   1.498  15.250
11048TIP3   OH254634   3.269   4.130  12.963
11048TIP3    H154635   3.307   4.218  12.971
11048TIP3    H254636   3.196   4.141  12.903
11049TIP3   OH254637   0.131   4.937   4.450
11049TIP3    H154638   0.101   4.913   4.362
11049TIP3    H254639   0.219   4.971   4.437
11050TIP3   OH254640   4.827   2.513   0.314
11050TIP3    H154641   4.829   2.479   0.404
11050TIP3    H254642   4.814   2.607   0.325
11051TIP3   OH254643   6.530   1.806  14.218
11051TIP3    H154644   6.487   1.891  14.222
11051TIP3    H254645   6.546   1.783  14.310
11052TIP3   OH254646   1.268   5.353  11.232
11052TIP3    H154647   1.312   5.290  11.175
11052TIP3    H254648   1.339   5.398  11.278
11053TIP3   OH254649   0.128   2.286   2.011
11053TIP3    H154650   0.078   2.351   1.962
11053TIP3    H254651   0.200   2.336   2.051
11054TIP3   OH254652   0.904   6.223  15.112
11054TIP3    H154653   0.971   6.262  15.169
11054TIP3    H254654   0.929   6.131  15.106
11055TIP3   OH254655   2.486   0.822   5.668
11055TIP3    H154656   2.549   0.885   5.704
11055TIP3    H254657   2.541   0.747   5.642
11056TIP3   OH254658   3.902   3.185  11.057
11056TIP3    H154659   3.969   3.241  11.096
11056TIP3    H254660   3.941   3.097  11.057
11057TIP3   OH254661   6.113   3.127   0.945
11057TIP3    H154662   6.147   3.186   0.878
11057TIP3    H254663   6.129   3.039   0.911
11058TIP3   OH254664   2.311   2.418   0.937
11058TIP3    H154665   2.238   2.388   0.990
11058TIP3    H254666   2.270   2.467   0.865
11059TIP3   OH254667   4.639   2.976   2.494
11059TIP3    H154668   4.662   3.032   2.419
11059TIP3    H254669   4.659   2.887   2.465
11060TIP3   OH254670   3.598   0.712  14.199
11060TIP3    H154671   3.626   0.711  14.291
11060TIP3    H254672   3.650   0.782  14.159
11061TIP3   OH254673   2.890   6.538  11.523
11061TIP3    H154674   2.971   6.525  11.474
11061TIP3    H254675   2.913   6.604  11.588
11062TIP3   OH254676   5.804   3.159   0.259
11062TIP3    H154677   5.846   3.156   0.345
11062TIP3    H254678   5.725   3.107   0.269
11063TIP3   OH254679   4.947   5.638  15.149
11063TIP3    H154680   4.923   5.653  15.057
11063TIP3    H254681   4.991   5.553  15.149
11064TIP3   OH254682   5.319   4.378  14.914
11064TIP3    H154683   5.392   4.427  14.952
11064TIP3    H254684   5.283   4.328  14.988
11065TIP3   OH254685   3.289   3.811   1.235
11065TIP3    H154686   3.276   3.730   1.283
11065TIP3    H254687   3.220   3.811   1.169
11066TIP3   OH254688   4.862   6.077   5.400
11066TIP3    H154689   4.828   6.062   5.488
11066TIP3    H254690   4.858   5.991   5.358
11067TIP3   OH254691   0.226   1.473   1.327
11067TIP3    H154692   0.238   1.392   1.278
11067TIP3    H254693   0.172   1.448   1.402
11068TIP3   OH254694   0.709   2.314   6.362
11068TIP3    H154695   0.749   2.399   6.343
11068TIP3    H254696   0.619   2.323   6.331
11069TIP3   OH254697   2.805   0.095  15.886
11069TIP3    H154698   2.735   0.159  15.874
11069TIP3    H254699   2.886   0.145  15.874
11070TIP3   OH254700   4.129   6.456  11.938
11070TIP3    H154701   4.176   6.383  11.979
11070TIP3    H254702   4.139   6.529  11.999
11071TIP3   OH254703   1.826   6.816   4.367
11071TIP3    H154704   1.820   6.756   4.441
11071TIP3    H254705   1.867   6.764   4.297
11072TIP3   OH254706   3.373   1.666  17.202
11072TIP3    H154707   3.463   1.698  17.207
11072TIP3    H254708   3.378   1.591  17.142
11073TIP3   OH254709   1.838   6.709   0.409
11073TIP3    H154710   1.896   6.703   0.485
11073TIP3    H254711   1.829   6.803   0.393
11074TIP3   OH254712   2.083   3.767  15.391
11074TIP3    H154713   2.111   3.853  15.359
11074TIP3    H254714   2.030   3.787  15.468
11075TIP3   OH254715   4.307   2.426  12.875
11075TIP3    H154716   4.332   2.483  12.803
11075TIP3    H254717   4.331   2.338  12.845
11076TIP3   OH254718   0.172   3.101   4.023
11076TIP3    H154719   0.251   3.053   4.001
11076TIP3    H254720   0.101   3.056   3.977
11077TIP3   OH254721   3.884   3.207   5.753
11077TIP3    H154722   3.817   3.245   5.696
11077TIP3    H254723   3.946   3.278   5.768
11078TIP3   OH254724   3.160   3.435  15.091
11078TIP3    H154725   3.223   3.373  15.053
11078TIP3    H254726   3.210   3.517  15.100
11079TIP3   OH254727   0.994   5.867   0.611
11079TIP3    H154728   0.957   5.930   0.549
11079TIP3    H254729   1.036   5.801   0.556
11080TIP3   OH254730   3.612   0.706  14.457
11080TIP3    H154731   3.574   0.619  14.460
11080TIP3    H254732   3.693   0.699  14.508
11081TIP3   OH254733   3.493   5.084  12.626
11081TIP3    H154734   3.450   5.139  12.561
11081TIP3    H254735   3.465   4.995  12.605
11082TIP3   OH254736   0.455   6.197  12.242
11082TIP3    H154737   0.438   6.158  12.156
11082TIP3    H254738   0.387   6.160  12.299
11083TIP3   OH254739   4.419   3.099   2.627
11083TIP3    H154740   4.444   3.174   2.574
11083TIP3    H254741   4.495   3.042   2.627
11084TIP3   OH254742   6.306   5.338  13.677
11084TIP3    H154743   6.394   5.301  13.669
11084TIP3    H254744   6.317   5.416  13.732
11085TIP3   OH254745   5.647   1.452   6.334
11085TIP3    H154746   5.676   1.536   6.369
11085TIP3    H254747   5.656   1.462   6.239
11086TIP3   OH254748   1.824   1.359  15.869
11086TIP3    H154749   1.836   1.291  15.936
11086TIP3    H254750   1.791   1.312  15.793
11087TIP3   OH254751   0.563   6.722  16.532
11087TIP3    H154752   0.522   6.808  16.523
11087TIP3    H254753   0.563   6.686  16.444
11088TIP3   OH254754   5.233   5.246  14.151
11088TIP3    H154755   5.236   5.173  14.089
11088TIP3    H254756   5.140   5.267  14.160
11089TIP3   OH254757   2.147   6.585  15.912
11089TIP3    H154758   2.217   6.611  15.972
11089TIP3    H254759   2.079   6.651  15.924
11090TIP3   OH254760   3.291   1.541   4.972
11090TIP3    H154761   3.298   1.597   4.895
11090TIP3    H254762   3.355   1.471   4.957
11091TIP3   OH254763   3.394   0.959  15.577
11091TIP3    H154764   3.339   0.890  15.615
11091TIP3    H254765   3.474   0.914  15.550
11092TIP3   OH254766   6.428   1.858  13.419
11092TIP3    H154767   6.344   1.812  13.428
11092TIP3    H254768   6.444   1.896  13.505
11093TIP3   OH254769   5.902   2.370  16.157
11093TIP3    H154770   5.910   2.414  16.072
11093TIP3    H254771   5.955   2.423  16.216
11094TIP3   OH254772   5.359   2.739   5.605
11094TIP3    H154773   5.453   2.752   5.601
11094TIP3    H254774   5.348   2.650   5.639
11095TIP3   OH254775   5.800   2.566  11.743
11095TIP3    H154776   5.727   2.620  11.714
11095TIP3    H254777   5.874   2.627  11.749
11096TIP3   OH254778   1.118   3.753   5.670
11096TIP3    H154779   1.131   3.847   5.661
11096TIP3    H254780   1.082   3.742   5.758
11097TIP3   OH254781   1.565   1.720   4.764
11097TIP3    H154782   1.515   1.650   4.723
11097TIP3    H254783   1.615   1.760   4.692
11098TIP3   OH254784   0.517   0.679   4.534
11098TIP3    H154785   0.575   0.606   4.553
11098TIP3    H254786   0.434   0.656   4.577
11099TIP3   OH254787   5.295   0.825  15.734
11099TIP3    H154788   5.305   0.833  15.639
11099TIP3    H254789   5.200   0.825  15.749
11100TIP3   OH254790   1.868   2.845  14.774
11100TIP3    H154791   1.911   2.802  14.848
11100TIP3    H254792   1.785   2.876  14.809
11101TIP3   OH254793   3.789   5.202  14.829
11101TIP3    H154794   3.871   5.250  14.820
11101TIP3    H254795   3.788   5.141  14.754
11102TIP3   OH254796   0.511   5.220   2.604
11102TIP3    H154797   0.431   5.229   2.655
11102TIP3    H254798   0.542   5.309   2.592
11103TIP3   OH254799   3.682   3.666  15.210
11103TIP3    H154800   3.762   3.626  15.178
11103TIP3    H254801   3.702   3.691  15.300
11104TIP3   OH254802   2.624   6.298   2.593
11104TIP3    H154803   2.529   6.288   2.604
11104TIP3    H254804   2.653   6.338   2.676
11105TIP3   OH254805   3.163   3.874  17.229
11105TIP3    H154806   3.122   3.793  17.197
11105TIP3    H254807   3.092   3.921  17.272
11106TIP3   OH254808   1.493   4.925  11.242
11106TIP3    H154809   1.499   4.939  11.337
11106TIP3    H254810   1.409   4.882  11.230
11107TIP3   OH254811   0.980   4.405   2.238
11107TIP3    H154812   0.976   4.378   2.146
11107TIP3    H254813   1.054   4.355   2.274
11108TIP3   OH254814   5.706   0.703  17.011
11108TIP3    H154815   5.611   0.691  17.012
11108TIP3    H254816   5.733   0.672  16.924
11109TIP3   OH254817   6.751   3.906  11.681
11109TIP3    H154818   6.814   3.963  11.636
11109TIP3    H254819   6.802   3.828  11.702
11110TIP3   OH254820   2.741   3.475  16.191
11110TIP3    H154821   2.684   3.403  16.165
11110TIP3    H254822   2.688   3.528  16.251
11111TIP3   OH254823   2.380   2.081   3.366
11111TIP3    H154824   2.339   2.088   3.452
11111TIP3    H254825   2.473   2.097   3.384
11112TIP3   OH254826   6.275   4.369  13.610
11112TIP3    H154827   6.314   4.427  13.545
11112TIP3    H254828   6.308   4.282  13.587
11113TIP3   OH254829   2.374   2.999  16.395
11113TIP3    H154830   2.316   2.926  16.376
11113TIP3    H254831   2.413   3.021  16.310
11114TIP3   OH254832   2.231   0.674   0.451
11114TIP3    H154833   2.171   0.749   0.455
11114TIP3    H254834   2.225   0.634   0.538
11115TIP3   OH254835   0.085   5.110   3.654
11115TIP3    H154836   0.074   5.138   3.745
11115TIP3    H254837   0.158   5.162   3.621
11116TIP3   OH254838   2.112   0.969  15.618
11116TIP3    H154839   2.031   0.922  15.637
11116TIP3    H254840   2.162   0.965  15.700
11117TIP3   OH254841   0.453   1.995   1.623
11117TIP3    H154842   0.372   2.043   1.611
11117TIP3    H254843   0.521   2.055   1.593
11118TIP3   OH254844   1.635   1.161  14.261
11118TIP3    H154845   1.645   1.104  14.337
11118TIP3    H254846   1.725   1.190  14.242
11119TIP3   OH254847   2.308   1.857   2.869
11119TIP3    H154848   2.332   1.772   2.831
11119TIP3    H254849   2.391   1.891   2.904
11120TIP3   OH254850   6.595   5.001   2.100
11120TIP3    H154851   6.542   5.042   2.167
11120TIP3    H254852   6.618   4.915   2.136
11121TIP3   OH254853   3.300   4.649  14.448
11121TIP3    H154854   3.344   4.574  14.408
11121TIP3    H254855   3.274   4.704  14.375
11122TIP3   OH254856   2.978   1.155   1.473
11122TIP3    H154857   3.036   1.225   1.441
11122TIP3    H254858   2.995   1.082   1.413
11123TIP3   OH254859   4.857   1.237   2.828
11123TIP3    H154860   4.848   1.323   2.870
11123TIP3    H254861   4.851   1.174   2.899
11124TIP3   OH254862   3.630   5.004   0.372
11124TIP3    H154863   3.683   5.001   0.292
11124TIP3    H254864   3.573   5.079   0.359
11125TIP3   OH254865   2.253   6.104   1.905
11125TIP3    H154866   2.197   6.170   1.945
11125TIP3    H254867   2.330   6.100   1.962
11126TIP3   OH254868   5.104   6.285  12.632
11126TIP3    H154869   5.099   6.213  12.695
11126TIP3    H254870   5.016   6.323  12.631
11127TIP3   OH254871   2.685   1.199  16.790
11127TIP3    H154872   2.779   1.196  16.772
11127TIP3    H254873   2.679   1.209  16.885
11128TIP3   OH254874   2.249   0.029  14.113
11128TIP3    H154875   2.305  -0.041  14.145
11128TIP3    H254876   2.284   0.051  14.027
11129TIP3   OH254877   3.265   5.718  17.126
11129TIP3    H154878   3.258   5.695  17.033
11129TIP3    H254879   3.185   5.682  17.165
11130TIP3   OH254880   6.444   5.586  13.486
11130TIP3    H154881   6.459   5.621  13.399
11130TIP3    H254882   6.349   5.578  13.494
11131TIP3   OH254883   5.753   5.268   4.458
11131TIP3    H154884   5.761   5.351   4.506
11131TIP3    H254885   5.824   5.271   4.394
11132TIP3   OH254886   4.061   4.998  12.577
11132TIP3    H154887   3.973   4.988  12.613
11132TIP3    H254888   4.047   5.044  12.494
11133TIP3   OH254889   3.332   0.986  16.426
11133TIP3    H154890   3.294   1.057  16.375
11133TIP3    H254891   3.321   1.014  16.517
11134TIP3   OH254892   2.169   3.730   2.242
11134TIP3    H154893   2.219   3.713   2.162
11134TIP3    H254894   2.202   3.666   2.305
11135TIP3   OH254895   3.426   0.119  10.462
11135TIP3    H154896   3.386   0.186  10.407
11135TIP3    H254897   3.352   0.080  10.509
11136TIP3   OH254898   4.717   3.607   5.409
11136TIP3    H154899   4.805   3.569   5.407
11136TIP3    H254900   4.665   3.544   5.460
11137TIP3   OH254901   2.690   2.456   3.378
11137TIP3    H154902   2.681   2.463   3.474
11137TIP3    H254903   2.684   2.546   3.348
11138TIP3   OH254904   1.349   6.159   1.303
11138TIP3    H154905   1.414   6.147   1.234
11138TIP3    H254906   1.265   6.138   1.261
11139TIP3   OH254907   6.253   2.621   4.080
11139TIP3    H154908   6.276   2.713   4.091
11139TIP3    H254909   6.215   2.595   4.164
11140TIP3   OH254910   3.967   0.247   6.409
11140TIP3    H154911   3.920   0.314   6.458
11140TIP3    H254912   4.053   0.285   6.393
11141TIP3   OH254913   5.071   3.939  16.988
11141TIP3    H154914   4.992   3.897  16.954
11141TIP3    H254915   5.143   3.886  16.953
11142TIP3   OH254916   4.627   3.020  10.423
11142TIP3    H154917   4.687   2.961  10.377
11142TIP3    H254918   4.664   3.029  10.511
11143TIP3   OH254919   0.135   2.590   2.204
11143TIP3    H154920   0.224   2.562   2.184
11143TIP3    H254921   0.107   2.638   2.126
11144TIP3   OH254922   6.361   5.066   5.593
11144TIP3    H154923   6.391   5.018   5.669
11144TIP3    H254924   6.299   5.131   5.628
11145TIP3   OH254925   3.872   2.188   6.353
11145TIP3    H154926   3.937   2.140   6.301
11145TIP3    H254927   3.792   2.186   6.299
11146TIP3   OH254928   3.078   4.011  13.132
11146TIP3    H154929   3.134   4.050  13.065
11146TIP3    H254930   3.127   3.936  13.164
11147TIP3   OH254931   1.301   0.659   3.037
11147TIP3    H154932   1.302   0.643   3.132
11147TIP3    H254933   1.232   0.723   3.024
11148TIP3   OH254934   5.009   6.526  12.466
11148TIP3    H154935   5.040   6.455  12.521
11148TIP3    H254936   5.077   6.593  12.473
11149TIP3   OH254937   4.902   4.556   1.388
11149TIP3    H154938   4.862   4.570   1.474
11149TIP3    H254939   4.828   4.555   1.327
11150TIP3   OH254940   0.314   1.327   5.040
11150TIP3    H154941   0.318   1.232   5.047
11150TIP3    H254942   0.229   1.351   5.077
11151TIP3   OH254943   2.114   2.899  12.147
11151TIP3    H154944   2.058   2.889  12.070
11151TIP3    H254945   2.192   2.942  12.114
11152TIP3   OH254946   4.213   4.534  15.024
11152TIP3    H154947   4.189   4.627  15.020
11152TIP3    H254948   4.254   4.516  14.940
11153TIP3   OH254949   2.724   4.456   5.423
11153TIP3    H154950   2.769   4.417   5.349
11153TIP3    H254951   2.710   4.383   5.483
11154TIP3   OH254952   3.519   1.671   3.604
11154TIP3    H154953   3.613   1.682   3.614
11154TIP3    H254954   3.507   1.651   3.511
11155TIP3   OH254955   3.245   3.188   0.782
11155TIP3    H154956   3.304   3.117   0.757
11155TIP3    H254957   3.301   3.265   0.785
11156TIP3   OH254958   5.352   5.271  14.694
11156TIP3    H154959   5.286   5.340  14.687
11156TIP3    H254960   5.363   5.240  14.604
11157TIP3   OH254961   5.863   3.927   5.463
11157TIP3    H154962   5.793   3.991   5.450
11157TIP3    H254963   5.943   3.980   5.463
11158TIP3   OH254964   6.776   2.986   5.922
11158TIP3    H154965   6.711   2.968   5.854
11158TIP3    H254966   6.730   2.972   6.005
11159TIP3   OH254967   5.669   2.210   0.907
11159TIP3    H154968   5.595   2.215   0.968
11159TIP3    H254969   5.656   2.127   0.861
11160TIP3   OH254970   0.000   3.503  15.085
11160TIP3    H154971   0.088   3.463  15.086
11160TIP3    H254972  -0.025   3.503  14.993
11161TIP3   OH254973   4.048   4.423  17.229
11161TIP3    H154974   3.997   4.502  17.246
11161TIP3    H254975   3.992   4.351  17.259
11162TIP3   OH254976   6.327   0.899  16.340
11162TIP3    H154977   6.379   0.880  16.261
11162TIP3    H254978   6.263   0.828  16.344
11163TIP3   OH254979   5.488   0.136   4.927
11163TIP3    H154980   5.543   0.126   5.005
11163TIP3    H254981   5.409   0.085   4.948
11164TIP3   OH254982   3.908   3.395   2.135
11164TIP3    H154983   3.976   3.433   2.079
11164TIP3    H254984   3.896   3.307   2.101
11165TIP3   OH254985   0.745   5.741  12.064
11165TIP3    H154986   0.693   5.819  12.042
11165TIP3    H254987   0.814   5.739  11.997
11166TIP3   OH254988   6.664   1.609   5.595
11166TIP3    H154989   6.732   1.560   5.642
11166TIP3    H254990   6.684   1.595   5.503
11167TIP3   OH254991   1.134   2.431  12.318
11167TIP3    H154992   1.150   2.482  12.239
11167TIP3    H254993   1.133   2.340  12.288
11168TIP3   OH254994   5.831   6.378  13.555
11168TIP3    H154995   5.913   6.352  13.597
11168TIP3    H254996   5.835   6.339  13.467
11169TIP3   OH254997   1.604   4.518  11.407
11169TIP3    H154998   1.651   4.596  11.377
11169TIP3    H254999   1.534   4.507  11.344
11170TIP3   OH255000   0.315   2.553   0.490
11170TIP3    H155001   0.332   2.623   0.554
11170TIP3    H255002   0.396   2.549   0.438
11171TIP3   OH255003   0.095   6.121  11.920
11171TIP3    H155004   0.031   6.085  11.859
11171TIP3    H255005   0.085   6.216  11.913
11172TIP3   OH255006   5.127   0.701  14.528
11172TIP3    H155007   5.160   0.655  14.451
11172TIP3    H255008   5.183   0.671  14.600
11173TIP3   OH255009   2.023   4.728   4.480
11173TIP3    H155010   1.995   4.705   4.569
11173TIP3    H255011   1.946   4.771   4.442
11174TIP3   OH255012   0.090   1.049   5.228
11174TIP3    H155013   0.075   1.127   5.174
11174TIP3    H255014   0.145   1.079   5.300
11175TIP3   OH255015   6.279   3.299  12.283
11175TIP3    H155016   6.341   3.353  12.332
11175TIP3    H255017   6.315   3.210  12.289
11176TIP3   OH255018   0.440   0.732  13.656
11176TIP3    H155019   0.472   0.815  13.622
11176TIP3    H255020   0.483   0.721  13.740
11177TIP3   OH255021   5.524   3.370  13.034
11177TIP3    H155022   5.472   3.437  13.078
11177TIP3    H255023   5.500   3.378  12.941
11178TIP3   OH255024   0.566   3.328  16.414
11178TIP3    H155025   0.625   3.394  16.377
11178TIP3    H255026   0.617   3.247  16.412
11179TIP3   OH255027   5.439   0.384   6.046
11179TIP3    H155028   5.382   0.411   6.118
11179TIP3    H255029   5.384   0.388   5.968
11180TIP3   OH255030   2.388   5.014   5.078
11180TIP3    H155031   2.352   5.088   5.030
11180TIP3    H255032   2.356   5.026   5.168
11181TIP3   OH255033   2.470   2.087  15.572
11181TIP3    H155034   2.500   2.020  15.511
11181TIP3    H255035   2.407   2.139  15.523
11182TIP3   OH255036   6.785   5.591   3.122
11182TIP3    H155037   6.729   5.529   3.168
11182TIP3    H255038   6.868   5.545   3.111
11183TIP3   OH255039   6.011   1.226  12.011
11183TIP3    H155040   5.997   1.133  12.030
11183TIP3    H255041   5.923   1.261  11.998
11184TIP3   OH255042   4.463   5.665   3.029
11184TIP3    H155043   4.525   5.593   3.040
11184TIP3    H255044   4.413   5.643   2.950
11185TIP3   OH255045   0.094   5.718   3.645
11185TIP3    H155046   0.131   5.755   3.726
11185TIP3    H255047   0.001   5.742   3.648
11186TIP3   OH255048   0.535   1.262   0.748
11186TIP3    H155049   0.443   1.240   0.758
11186TIP3    H255050   0.543   1.350   0.783
11187TIP3   OH255051   2.772   2.199   4.560
11187TIP3    H155052   2.682   2.185   4.591
11187TIP3    H255053   2.811   2.112   4.562
11188TIP3   OH255054   1.529   0.744  10.656
11188TIP3    H155055   1.493   0.656  10.648
11188TIP3    H255056   1.459   0.802  10.626
11189TIP3   OH255057   3.954   2.539   4.267
11189TIP3    H155058   3.932   2.545   4.360
11189TIP3    H255059   3.996   2.623   4.247
11190TIP3   OH255060   4.902   2.130  16.534
11190TIP3    H155061   4.858   2.144  16.618
11190TIP3    H255062   4.923   2.036  16.534
11191TIP3   OH255063   1.489   0.532   4.128
11191TIP3    H155064   1.472   0.523   4.034
11191TIP3    H255065   1.410   0.496   4.169
11192TIP3   OH255066   5.942   0.247   3.399
11192TIP3    H155067   6.017   0.271   3.345
11192TIP3    H255068   5.873   0.225   3.336
11193TIP3   OH255069   0.192   5.326  14.736
11193TIP3    H155070   0.143   5.246  14.718
11193TIP3    H255071   0.124   5.394  14.743
11194TIP3   OH255072   6.558   3.075  11.716
11194TIP3    H155073   6.570   3.141  11.785
11194TIP3    H255074   6.508   3.005  11.759
11195TIP3   OH255075   2.760   4.872  17.143
11195TIP3    H155076   2.701   4.816  17.192
11195TIP3    H255077   2.755   4.957  17.187
11196TIP3   OH255078   5.116   1.324  16.593
11196TIP3    H155079   5.151   1.413  16.585
11196TIP3    H255080   5.158   1.275  16.523
11197TIP3   OH255081   6.063   0.829   6.185
11197TIP3    H155082   5.979   0.865   6.215
11197TIP3    H255083   6.120   0.834   6.262
11198TIP3   OH255084   0.761   1.795  16.532
11198TIP3    H155085   0.807   1.827  16.610
11198TIP3    H255086   0.713   1.718  16.564
11199TIP3   OH255087   2.151   2.757   5.367
11199TIP3    H155088   2.192   2.735   5.283
11199TIP3    H255089   2.091   2.828   5.347
11200TIP3   OH255090   2.877   0.742  13.404
11200TIP3    H155091   2.791   0.752  13.444
11200TIP3    H255092   2.882   0.650  13.378
11201TIP3   OH255093   1.043   6.373   5.436
11201TIP3    H155094   1.008   6.295   5.391
11201TIP3    H255095   1.135   6.352   5.453
11202TIP3   OH255096   3.444   5.187  14.776
11202TIP3    H155097   3.401   5.108  14.811
11202TIP3    H255098   3.519   5.153  14.727
11203TIP3   OH255099   2.584   4.011  10.896
11203TIP3    H155100   2.662   3.978  10.852
11203TIP3    H255101   2.523   3.937  10.896
11204TIP3   OH255102   5.398   1.171  13.412
11204TIP3    H155103   5.391   1.124  13.496
11204TIP3    H255104   5.458   1.243  13.430
11205TIP3   OH255105   2.551   4.808  11.290
11205TIP3    H155106   2.585   4.793  11.202
11205TIP3    H255107   2.482   4.742  11.301
11206TIP3   OH255108   4.823   4.329  15.120
11206TIP3    H155109   4.852   4.315  15.210
11206TIP3    H255110   4.883   4.278  15.066
11207TIP3   OH255111   5.840   6.154   3.162
11207TIP3    H155112   5.891   6.078   3.135
11207TIP3    H255113   5.756   6.119   3.189
11208TIP3   OH255114   0.028   3.472  13.340
11208TIP3    H155115   0.101   3.435  13.390
11208TIP3    H255116  -0.050   3.450  13.392
11209TIP3   OH255117   5.321   4.052   0.628
11209TIP3    H155118   5.304   4.006   0.710
11209TIP3    H255119   5.402   4.014   0.595
11210TIP3   OH255120   0.543   4.097   1.294
11210TIP3    H155121   0.531   4.015   1.247
11210TIP3    H255122   0.572   4.071   1.381
11211TIP3   OH255123   1.673   6.229   2.833
11211TIP3    H155124   1.741   6.267   2.889
11211TIP3    H255125   1.590   6.257   2.873
11212TIP3   OH255126   3.575   6.629   2.035
11212TIP3    H155127   3.580   6.541   1.999
11212TIP3    H255128   3.621   6.684   1.972
11213TIP3   OH255129   5.405   3.858   4.312
11213TIP3    H155130   5.415   3.952   4.327
11213TIP3    H255131   5.436   3.845   4.222
11214TIP3   OH255132   6.550   6.316   1.128
11214TIP3    H155133   6.562   6.402   1.088
11214TIP3    H255134   6.634   6.296   1.169
11215TIP3   OH255135   4.361   5.651  12.444
11215TIP3    H155136   4.365   5.707  12.367
11215TIP3    H255137   4.342   5.710  12.517
11216TIP3   OH255138   0.137   2.817  14.198
11216TIP3    H155139   0.227   2.846  14.208
11216TIP3    H255140   0.124   2.751  14.266
11217TIP3   OH255141   6.491   5.416   2.030
11217TIP3    H155142   6.575   5.413   1.983
11217TIP3    H255143   6.474   5.324   2.053
11218TIP3   OH255144   3.568   2.292   0.014
11218TIP3    H155145   3.650   2.342   0.015
11218TIP3    H255146   3.596   2.202  -0.003
11219TIP3   OH255147   0.180   4.675   2.266
11219TIP3    H155148   0.178   4.723   2.183
11219TIP3    H255149   0.178   4.583   2.240
11220TIP3   OH255150   3.344   6.808  15.897
11220TIP3    H155151   3.255   6.776  15.912
11220TIP3    H255152   3.342   6.900  15.925
11221TIP3   OH255153   6.332   5.084  12.710
11221TIP3    H155154   6.295   4.996  12.701
11221TIP3    H255155   6.259   5.143  12.690
11222TIP3   OH255156   6.758   0.845   6.805
11222TIP3    H155157   6.725   0.783   6.741
11222TIP3    H255158   6.818   0.794   6.860
11223TIP3   OH255159   0.583   2.163  11.829
11223TIP3    H155160   0.573   2.173  11.923
11223TIP3    H255161   0.543   2.242  11.792
11224TIP3   OH255162   3.257   6.625   2.614
11224TIP3    H155163   3.317   6.658   2.547
11224TIP3    H255164   3.309   6.563   2.665
11225TIP3   OH255165   4.488   3.258  12.467
11225TIP3    H155166   4.435   3.183  12.442
11225TIP3    H255167   4.429   3.314  12.517
11226TIP3   OH255168   6.032   6.336  16.623
11226TIP3    H155169   5.982   6.291  16.555
11226TIP3    H255170   5.966   6.386  16.671
11227TIP3   OH255171   4.937   3.580   0.450
11227TIP3    H155172   4.993   3.656   0.466
11227TIP3    H255173   4.925   3.578   0.356
11228TIP3   OH255174   2.410   0.476   3.715
11228TIP3    H155175   2.447   0.395   3.680
11228TIP3    H255176   2.318   0.456   3.730
11229TIP3   OH255177   3.165   2.652   4.916
11229TIP3    H155178   3.122   2.706   4.850
11229TIP3    H255179   3.186   2.712   4.987
11230TIP3   OH255180   3.672   6.484  16.980
11230TIP3    H155181   3.677   6.549  17.050
11230TIP3    H255182   3.579   6.478  16.959
11231TIP3   OH255183   0.910   2.260   2.300
11231TIP3    H155184   0.973   2.322   2.264
11231TIP3    H255185   0.896   2.196   2.230
11232TIP3   OH255186   0.413   6.771   2.919
11232TIP3    H155187   0.457   6.840   2.870
11232TIP3    H255188   0.324   6.804   2.932
11233TIP3   OH255189   0.068   0.743   1.334
11233TIP3    H155190   0.040   0.788   1.415
11233TIP3    H255191   0.097   0.657   1.363
11234TIP3   OH255192   1.281   4.927  16.171
11234TIP3    H155193   1.357   4.959  16.221
11234TIP3    H255194   1.278   4.833  16.190
11235TIP3   OH255195   2.882   6.554  15.366
11235TIP3    H155196   2.877   6.638  15.411
11235TIP3    H255197   2.916   6.493  15.432
11236TIP3   OH255198   2.994   1.579   5.357
11236TIP3    H155199   2.997   1.633   5.436
11236TIP3    H255200   3.027   1.494   5.385
11237TIP3   OH255201   5.301   5.262   1.754
11237TIP3    H155202   5.329   5.353   1.765
11237TIP3    H255203   5.318   5.242   1.662
11238TIP3   OH255204   2.466   4.906  14.871
11238TIP3    H155205   2.390   4.860  14.905
11238TIP3    H255206   2.474   4.984  14.925
11239TIP3   OH255207   6.667   4.609   3.618
11239TIP3    H155208   6.749   4.583   3.575
11239TIP3    H255209   6.672   4.704   3.623
11240TIP3   OH255210   5.972   4.453  12.910
11240TIP3    H155211   6.046   4.471  12.968
11240TIP3    H255212   5.932   4.374  12.947
11241TIP3   OH255213   0.986   4.348  16.810
11241TIP3    H155214   0.980   4.280  16.877
11241TIP3    H255215   1.029   4.422  16.855
11242TIP3   OH255216   4.031   4.360  11.265
11242TIP3    H155217   3.991   4.447  11.272
11242TIP3    H255218   3.991   4.310  11.337
11243TIP3   OH255219   5.511   5.111  16.018
11243TIP3    H155220   5.436   5.054  16.002
11243TIP3    H255221   5.481   5.199  15.995
11244TIP3   OH255222   2.786   6.091   2.492
11244TIP3    H155223   2.826   6.127   2.412
11244TIP3    H255224   2.717   6.153   2.514
11245TIP3   OH255225   1.257   0.817   0.655
11245TIP3    H155226   1.308   0.881   0.604
11245TIP3    H255227   1.322   0.770   0.707
11246TIP3   OH255228   6.657   4.000   4.916
11246TIP3    H155229   6.663   4.027   5.008
11246TIP3    H255230   6.645   3.905   4.920
11247TIP3   OH255231   2.669   2.110   2.242
11247TIP3    H155232   2.635   2.193   2.273
11247TIP3    H255233   2.592   2.053   2.237
11248TIP3   OH255234   0.567   5.427  15.311
11248TIP3    H155235   0.563   5.515  15.273
11248TIP3    H255236   0.528   5.370  15.245
11249TIP3   OH255237   6.136   1.323   1.467
11249TIP3    H155238   6.154   1.415   1.449
11249TIP3    H255239   6.041   1.318   1.477
11250TIP3   OH255240   3.956   5.606  14.311
11250TIP3    H155241   3.959   5.641  14.222
11250TIP3    H255242   3.942   5.512  14.299
11251TIP3   OH255243   4.566   4.731   5.096
11251TIP3    H155244   4.630   4.762   5.032
11251TIP3    H255245   4.590   4.640   5.112
11252TIP3   OH255246   0.326   1.160   5.297
11252TIP3    H155247   0.388   1.142   5.368
11252TIP3    H255248   0.382   1.174   5.220
11253TIP3   OH255249   5.242   1.810   3.099
11253TIP3    H155250   5.160   1.814   3.049
11253TIP3    H255251   5.225   1.746   3.168
11254TIP3   OH255252   1.774   5.895   1.230
11254TIP3    H155253   1.764   5.846   1.149
11254TIP3    H255254   1.771   5.829   1.299
11255TIP3   OH255255   5.719   4.235   6.315
11255TIP3    H155256   5.671   4.160   6.351
11255TIP3    H255257   5.691   4.308   6.370
11256TIP3   OH255258   5.135   5.359  10.976
11256TIP3    H155259   5.102   5.448  10.960
11256TIP3    H255260   5.077   5.302  10.927
11257TIP3   OH255261   6.385   2.242  14.740
11257TIP3    H155262   6.468   2.196  14.748
11257TIP3    H255263   6.380   2.267  14.648
11258TIP3   OH255264   3.510   3.103  13.765
11258TIP3    H155265   3.469   3.101  13.851
11258TIP3    H255266   3.600   3.072  13.781
11259TIP3   OH255267   3.073   0.892   2.308
11259TIP3    H155268   3.097   0.967   2.253
11259TIP3    H255269   3.157   0.861   2.343
11260TIP3   OH255270   0.946   6.350  16.784
11260TIP3    H155271   0.862   6.395  16.799
11260TIP3    H255272   0.924   6.281  16.721
11261TIP3   OH255273   3.123   5.204  10.998
11261TIP3    H155274   3.137   5.294  10.969
11261TIP3    H255275   3.038   5.180  10.961
11262TIP3   OH255276   2.762   2.818  12.873
11262TIP3    H155277   2.719   2.836  12.790
11262TIP3    H255278   2.769   2.722  12.877
11263TIP3   OH255279   1.039   5.063  10.981
11263TIP3    H155280   0.955   5.082  10.942
11263TIP3    H255281   1.103   5.106  10.925
11264TIP3   OH255282   1.973   3.084   2.486
11264TIP3    H155283   1.974   3.148   2.557
11264TIP3    H255284   2.055   3.098   2.440
11265TIP3   OH255285   1.297   6.314   1.649
11265TIP3    H155286   1.210   6.275   1.638
11265TIP3    H255287   1.284   6.407   1.632
11266TIP3   OH255288   1.770   5.244  12.103
11266TIP3    H155289   1.754   5.241  12.009
11266TIP3    H255290   1.762   5.336  12.127
11267TIP3   OH255291   2.586   5.311  11.798
11267TIP3    H155292   2.620   5.394  11.766
11267TIP3    H255293   2.663   5.256  11.809
11268TIP3   OH255294   1.323   0.143  13.898
11268TIP3    H155295   1.238   0.182  13.880
11268TIP3    H255296   1.358   0.119  13.812
11269TIP3   OH255297   6.448   3.163   0.626
11269TIP3    H155298   6.411   3.169   0.538
11269TIP3    H255299   6.498   3.244   0.637
11270TIP3   OH255300   0.015   6.721  17.124
11270TIP3    H155301  -0.056   6.781  17.102
11270TIP3    H255302   0.034   6.674  17.042
11271TIP3   OH255303   2.386   2.785  14.005
11271TIP3    H155304   2.381   2.723  14.078
11271TIP3    H255305   2.380   2.871  14.046
11272TIP3   OH255306   4.295   0.741   1.683
11272TIP3    H155307   4.212   0.696   1.701
11272TIP3    H255308   4.317   0.784   1.765
11273TIP3   OH255309   2.655   2.595   5.271
11273TIP3    H155310   2.742   2.629   5.248
11273TIP3    H255311   2.598   2.672   5.269
11274TIP3   OH255312   1.760   5.180  14.728
11274TIP3    H155313   1.673   5.219  14.714
11274TIP3    H255314   1.784   5.144  14.643
11275TIP3   OH255315   2.839   4.808   6.121
11275TIP3    H155316   2.927   4.794   6.156
11275TIP3    H255317   2.841   4.895   6.082
11276TIP3   OH255318   5.164   5.804   6.022
11276TIP3    H155319   5.168   5.710   6.002
11276TIP3    H255320   5.101   5.839   5.960
11277TIP3   OH255321   1.386   2.117   2.852
11277TIP3    H155322   1.375   2.041   2.795
11277TIP3    H255323   1.385   2.192   2.792
11278TIP3   OH255324   2.375   0.894   3.700
11278TIP3    H155325   2.408   0.913   3.612
11278TIP3    H255326   2.291   0.850   3.684
11279TIP3   OH255327   1.046   1.897  16.782
11279TIP3    H155328   0.967   1.947  16.765
11279TIP3    H255329   1.116   1.963  16.787
11280TIP3   OH255330   1.204   1.892   4.623
11280TIP3    H155331   1.248   1.935   4.697
11280TIP3    H255332   1.169   1.964   4.571
11281TIP3   OH255333   5.106   3.481  13.616
11281TIP3    H155334   5.102   3.548  13.548
11281TIP3    H255335   5.164   3.517  13.683
11282TIP3   OH255336   0.955   5.740  11.883
11282TIP3    H155337   0.895   5.787  11.825
11282TIP3    H255338   1.023   5.803  11.905
11283TIP3   OH255339   2.905   3.418   4.494
11283TIP3    H155340   2.981   3.409   4.551
11283TIP3    H255341   2.877   3.328   4.476
11284TIP3   OH255342   0.205   4.876   3.588
11284TIP3    H155343   0.276   4.843   3.643
11284TIP3    H255344   0.178   4.958   3.631
11285TIP3   OH255345   6.798   1.608  12.642
11285TIP3    H155346   6.861   1.563  12.586
11285TIP3    H255347   6.716   1.559  12.630
11286TIP3   OH255348   4.275   0.423   0.316
11286TIP3    H155349   4.311   0.363   0.381
11286TIP3    H255350   4.312   0.392   0.233
11287TIP3   OH255351   2.057   2.132  15.277
11287TIP3    H155352   2.053   2.081  15.197
11287TIP3    H255353   2.003   2.209  15.260
11288TIP3   OH255354   6.494   0.351   2.645
11288TIP3    H155355   6.565   0.342   2.709
11288TIP3    H255356   6.528   0.412   2.580
11289TIP3   OH255357   3.909   3.597   4.002
11289TIP3    H155358   3.830   3.622   3.955
11289TIP3    H255359   3.973   3.665   3.983
11290TIP3   OH255360   5.059   0.419  11.780
11290TIP3    H155361   5.068   0.507  11.817
11290TIP3    H255362   5.148   0.383  11.781
11291TIP3   OH255363   6.223   2.381   4.323
11291TIP3    H155364   6.172   2.309   4.287
11291TIP3    H255365   6.314   2.358   4.303
11292TIP3   OH255366   3.095   2.591   1.074
11292TIP3    H155367   3.063   2.544   0.997
11292TIP3    H255368   3.111   2.522   1.139
11293TIP3   OH255369   4.096   3.952  15.459
11293TIP3    H155370   4.189   3.963  15.480
11293TIP3    H255371   4.065   4.040  15.439
11294TIP3   OH255372   1.091   4.505   0.973
11294TIP3    H155373   1.054   4.524   0.886
11294TIP3    H255374   1.016   4.510   1.032
11295TIP3   OH255375   3.532   1.668   3.126
11295TIP3    H155376   3.439   1.690   3.134
11295TIP3    H255377   3.577   1.751   3.139
11296TIP3   OH255378   6.478   2.616   1.822
11296TIP3    H155379   6.397   2.616   1.770
11296TIP3    H255380   6.548   2.616   1.757
11297TIP3   OH255381   0.536   6.267  13.558
11297TIP3    H155382   0.496   6.313  13.484
11297TIP3    H255383   0.498   6.178  13.553
11298TIP3   OH255384   4.755   0.226  11.432
11298TIP3    H155385   4.668   0.265  11.429
11298TIP3    H255386   4.814   0.300  11.443
11299TIP3   OH255387   0.103   2.106   3.552
11299TIP3    H155388   0.190   2.147   3.548
11299TIP3    H255389   0.116   2.020   3.513
11300TIP3   OH255390   2.282   4.875   1.639
11300TIP3    H155391   2.254   4.788   1.666
11300TIP3    H255392   2.334   4.860   1.560
11301TIP3   OH255393   4.015   3.260  13.119
11301TIP3    H155394   4.054   3.284  13.035
11301TIP3    H255395   4.087   3.270  13.182
11302TIP3   OH255396   1.296   2.819  10.649
11302TIP3    H155397   1.285   2.887  10.583
11302TIP3    H255398   1.340   2.747  10.604
11303TIP3   OH255399   5.884   0.268   0.238
11303TIP3    H155400   5.862   0.197   0.299
11303TIP3    H255401   5.946   0.322   0.287
11304TIP3   OH255402   2.399   0.106   2.753
11304TIP3    H155403   2.451   0.056   2.689
11304TIP3    H255404   2.428   0.196   2.742
11305TIP3   OH255405   4.313   0.824   3.375
11305TIP3    H155406   4.240   0.762   3.371
11305TIP3    H255407   4.288   0.887   3.442
11306TIP3   OH255408   3.467   4.679  13.261
11306TIP3    H155409   3.389   4.628  13.242
11306TIP3    H255410   3.449   4.721  13.345
11307TIP3   OH255411   1.714   6.276   4.020
11307TIP3    H155412   1.635   6.331   4.022
11307TIP3    H255413   1.756   6.291   4.105
11308TIP3   OH255414   6.484   6.486   6.353
11308TIP3    H155415   6.398   6.488   6.394
11308TIP3    H255416   6.540   6.537   6.411
11309TIP3   OH255417   4.431   2.828  10.310
11309TIP3    H155418   4.436   2.878  10.229
11309TIP3    H255419   4.480   2.881  10.373
11310TIP3   OH255420   4.194   5.365   1.251
11310TIP3    H155421   4.113   5.315   1.262
11310TIP3    H255422   4.235   5.362   1.338
11311TIP3   OH255423   5.189   0.874  14.871
11311TIP3    H155424   5.229   0.853  14.787
11311TIP3    H255425   5.095   0.863  14.856
11312TIP3   OH255426   6.798   2.298  11.770
11312TIP3    H155427   6.767   2.294  11.680
11312TIP3    H255428   6.893   2.283  11.763
11313TIP3   OH255429   3.998   4.659   0.912
11313TIP3    H155430   4.041   4.736   0.949
11313TIP3    H255431   3.976   4.685   0.822
11314TIP3   OH255432   0.413   4.943   0.214
11314TIP3    H155433   0.381   4.946   0.124
11314TIP3    H255434   0.479   4.873   0.214
11315TIP3   OH255435   0.977   0.214  15.973
11315TIP3    H155436   1.058   0.170  16.000
11315TIP3    H255437   0.950   0.168  15.894
11316TIP3   OH255438   1.411   4.332   3.320
11316TIP3    H155439   1.390   4.341   3.413
11316TIP3    H255440   1.421   4.422   3.289
11317TIP3   OH255441   4.283   3.951   5.267
11317TIP3    H155442   4.209   3.897   5.294
11317TIP3    H255443   4.359   3.911   5.311
11318TIP3   OH255444   6.429   0.370  11.914
11318TIP3    H155445   6.470   0.455  11.928
11318TIP3    H255446   6.502   0.308  11.910
11319TIP3   OH255447   1.959   4.052  12.640
11319TIP3    H155448   1.972   3.974  12.586
11319TIP3    H255449   2.040   4.062  12.688
11320TIP3   OH255450   5.026   0.341  17.287
11320TIP3    H155451   5.021   0.248  17.265
11320TIP3    H255452   5.054   0.342  17.379
11321TIP3   OH255453   6.424   5.559  15.852
11321TIP3    H155454   6.517   5.539  15.841
11321TIP3    H255455   6.416   5.580  15.945
11322TIP3   OH255456   4.877   5.343  15.807
11322TIP3    H155457   4.786   5.339  15.836
11322TIP3    H255458   4.910   5.254  15.820
11323TIP3   OH255459   4.632   3.729  16.875
11323TIP3    H155460   4.616   3.715  16.969
11323TIP3    H255461   4.549   3.709  16.833
11324TIP3   OH255462   1.035   5.655   2.756
11324TIP3    H155463   1.047   5.660   2.661
11324TIP3    H255464   1.098   5.590   2.785
11325TIP3   OH255465   6.673   6.803   3.219
11325TIP3    H155466   6.584   6.804   3.253
11325TIP3    H255467   6.663   6.790   3.125
11326TIP3   OH255468   2.893   1.301   5.473
11326TIP3    H155469   2.987   1.306   5.489
11326TIP3    H255470   2.864   1.225   5.523
11327TIP3   OH255471   5.095   2.958  14.574
11327TIP3    H155472   5.075   3.001  14.657
11327TIP3    H255473   5.108   2.866  14.597
11328TIP3   OH255474   5.160   5.472  14.659
11328TIP3    H155475   5.083   5.479  14.603
11328TIP3    H255476   5.198   5.560  14.656
11329TIP3   OH255477   4.986   3.991  10.972
11329TIP3    H155478   4.949   4.075  10.945
11329TIP3    H255479   5.065   4.014  11.022
11330TIP3   OH255480   3.583   4.415   0.073
11330TIP3    H155481   3.519   4.481   0.045
11330TIP3    H255482   3.529   4.341   0.103
11331TIP3   OH255483   2.042   2.317   0.453
11331TIP3    H155484   2.033   2.411   0.435
11331TIP3    H255485   2.123   2.310   0.502
11332TIP3   OH255486   1.122   4.138  11.309
11332TIP3    H155487   1.107   4.058  11.259
11332TIP3    H255488   1.185   4.114  11.376
11333TIP3   OH255489   2.897   0.947   5.316
11333TIP3    H155490   2.805   0.967   5.331
11333TIP3    H255491   2.902   0.927   5.222
11334TIP3   OH255492   6.658   1.099  14.013
11334TIP3    H155493   6.669   1.099  14.108
11334TIP3    H255494   6.591   1.166  13.997
11335TIP3   OH255495   0.380   5.244  13.171
11335TIP3    H155496   0.323   5.177  13.133
11335TIP3    H255497   0.444   5.194  13.223
11336TIP3   OH255498   4.025   5.378  11.584
11336TIP3    H155499   3.983   5.396  11.500
11336TIP3    H255500   4.065   5.460  11.610
11337TIP3   OH255501   5.777   0.739  13.455
11337TIP3    H155502   5.817   0.769  13.373
11337TIP3    H255503   5.731   0.658  13.431
11338TIP3   OH255504   0.511   3.764  13.658
11338TIP3    H155505   0.580   3.797  13.601
11338TIP3    H255506   0.446   3.834  13.660
11339TIP3   OH255507   6.339   5.747   2.009
11339TIP3    H155508   6.247   5.746   1.980
11339TIP3    H255509   6.363   5.839   2.010
11340TIP3   OH255510   2.178   4.451  13.854
11340TIP3    H155511   2.205   4.359  13.849
11340TIP3    H255512   2.253   4.495  13.894
11341TIP3   OH255513   2.009   1.803  14.434
11341TIP3    H155514   1.917   1.802  14.457
11341TIP3    H255515   2.024   1.890  14.397
11342TIP3   OH255516   1.878   6.406  13.923
11342TIP3    H155517   1.867   6.445  14.010
11342TIP3    H255518   1.790   6.376  13.899
11343TIP3   OH255519   1.046   1.171  16.103
11343TIP3    H155520   0.982   1.155  16.033
11343TIP3    H255521   1.040   1.093  16.159
11344TIP3   OH255522   4.845   0.050  13.889
11344TIP3    H155523   4.862   0.091  13.805
11344TIP3    H255524   4.767   0.095  13.922
11345TIP3   OH255525   3.765   5.690  11.501
11345TIP3    H155526   3.817   5.699  11.581
11345TIP3    H255527   3.826   5.709  11.430
11346TIP3   OH255528   6.023   6.298   1.815
11346TIP3    H155529   6.004   6.293   1.721
11346TIP3    H255530   6.108   6.256   1.825
11347TIP3   OH255531   1.564   5.710   1.854
11347TIP3    H155532   1.568   5.641   1.788
11347TIP3    H255533   1.494   5.767   1.825
11348TIP3   OH255534   4.873   6.212  13.587
11348TIP3    H155535   4.948   6.233  13.530
11348TIP3    H255536   4.901   6.136  13.636
11349TIP3   OH255537   4.971   1.441  13.981
11349TIP3    H155538   5.049   1.395  14.013
11349TIP3    H255539   5.001   1.529  13.961
11350TIP3   OH255540   4.369   5.071   2.477
11350TIP3    H155541   4.452   5.025   2.487
11350TIP3    H255542   4.358   5.119   2.559
11351TIP3   OH255543   0.285   3.032   0.959
11351TIP3    H155544   0.303   3.105   0.900
11351TIP3    H255545   0.355   3.035   1.023
11352TIP3   OH255546   2.831   3.207   3.823
11352TIP3    H155547   2.856   3.150   3.750
11352TIP3    H255548   2.755   3.164   3.862
11353TIP3   OH255549   0.817   5.926  15.956
11353TIP3    H155550   0.777   5.870  15.889
11353TIP3    H255551   0.770   6.009  15.950
11354TIP3   OH255552   3.672   3.837  12.925
11354TIP3    H155553   3.693   3.794  13.009
11354TIP3    H255554   3.593   3.794  12.895
11355TIP3   OH255555   4.331   5.822   4.636
11355TIP3    H155556   4.353   5.729   4.646
11355TIP3    H255557   4.380   5.850   4.559
11356TIP3   OH255558   2.140   0.385   3.703
11356TIP3    H155559   2.056   0.430   3.695
11356TIP3    H255560   2.144   0.328   3.626
11357TIP3   OH255561   1.093   1.484  12.718
11357TIP3    H155562   1.188   1.470  12.708
11357TIP3    H255563   1.083   1.579  12.711
11358TIP3   OH255564   1.660   3.812  14.706
11358TIP3    H155565   1.628   3.766  14.629
11358TIP3    H255566   1.615   3.896  14.705
11359TIP3   OH255567   5.814   3.893   2.903
11359TIP3    H155568   5.768   3.809   2.907
11359TIP3    H255569   5.821   3.912   2.810
11360TIP3   OH255570   3.371   1.476  14.712
11360TIP3    H155571   3.427   1.516  14.779
11360TIP3    H255572   3.313   1.418  14.762
11361TIP3   OH255573   2.226   4.606  10.754
11361TIP3    H155574   2.147   4.616  10.808
11361TIP3    H255575   2.275   4.686  10.770
11362TIP3   OH255576   4.069   4.528   3.563
11362TIP3    H155577   4.026   4.444   3.574
11362TIP3    H255578   4.009   4.578   3.507
11363TIP3   OH255579   4.734   0.591   2.234
11363TIP3    H155580   4.806   0.624   2.288
11363TIP3    H255581   4.726   0.655   2.163
11364TIP3   OH255582   2.705   1.582  10.915
11364TIP3    H155583   2.714   1.564  11.009
11364TIP3    H255584   2.614   1.609  10.905
11365TIP3   OH255585   2.027   0.854   2.924
11365TIP3    H155586   2.105   0.904   2.950
11365TIP3    H255587   2.048   0.822   2.836
11366TIP3   OH255588   0.684   2.954  13.458
11366TIP3    H155589   0.645   2.908  13.533
11366TIP3    H255590   0.771   2.981  13.489
11367TIP3   OH255591   5.544   2.138  16.886
11367TIP3    H155592   5.519   2.227  16.860
11367TIP3    H255593   5.570   2.146  16.977
11368TIP3   OH255594   2.459   0.684  14.856
11368TIP3    H155595   2.380   0.648  14.817
11368TIP3    H255596   2.497   0.740  14.788
11369TIP3   OH255597   0.966   6.178  16.017
11369TIP3    H155598   0.882   6.174  15.972
11369TIP3    H255599   0.951   6.235  16.093
11370TIP3   OH255600   6.361   5.225   5.342
11370TIP3    H155601   6.294   5.239   5.276
11370TIP3    H255602   6.312   5.202   5.421
11371TIP3   OH255603   1.428   0.326  12.344
11371TIP3    H155604   1.468   0.393  12.288
11371TIP3    H255605   1.495   0.258  12.351
11372TIP3   OH255606   3.504   4.072   4.793
11372TIP3    H155607   3.527   4.164   4.784
11372TIP3    H255608   3.557   4.041   4.867
11373TIP3   OH255609   4.513   6.293  11.570
11373TIP3    H155610   4.563   6.374  11.575
11373TIP3    H255611   4.556   6.234  11.632
11374TIP3   OH255612   4.149   4.547   1.130
11374TIP3    H155613   4.087   4.578   1.064
11374TIP3    H255614   4.175   4.459   1.099
11375TIP3   OH255615   2.434   2.063   1.528
11375TIP3    H155616   2.466   1.979   1.559
11375TIP3    H255617   2.341   2.064   1.551
11376TIP3   OH255618   5.010   1.312   4.708
11376TIP3    H155619   4.993   1.218   4.717
11376TIP3    H255620   4.958   1.339   4.632
11377TIP3   OH255621   2.992   3.436   0.912
11377TIP3    H155622   2.946   3.354   0.894
11377TIP3    H255623   3.017   3.430   1.005
11378TIP3   OH255624   1.860   1.739   1.634
11378TIP3    H155625   1.919   1.801   1.677
11378TIP3    H255626   1.875   1.753   1.540
11379TIP3   OH255627   4.301   4.645   3.473
11379TIP3    H155628   4.244   4.583   3.518
11379TIP3    H255629   4.264   4.652   3.385
11380TIP3   OH255630   6.368   1.929  11.923
11380TIP3    H155631   6.365   1.978  12.005
11380TIP3    H255632   6.374   1.837  11.950
11381TIP3   OH255633   4.118   3.973   4.312
11381TIP3    H155634   4.136   3.891   4.267
11381TIP3    H255635   4.186   3.980   4.379
11382TIP3   OH255636   4.122   1.261  12.933
11382TIP3    H155637   4.177   1.334  12.961
11382TIP3    H255638   4.037   1.301  12.913
11383TIP3   OH255639   4.179   0.635  14.037
11383TIP3    H155640   4.217   0.581  14.106
11383TIP3    H255641   4.086   0.640  14.060
11384TIP3   OH255642   0.754   1.831   4.452
11384TIP3    H155643   0.849   1.818   4.453
11384TIP3    H255644   0.718   1.745   4.430
11385TIP3   OH255645   5.213   0.459   4.323
11385TIP3    H155646   5.190   0.443   4.232
11385TIP3    H255647   5.153   0.529   4.351
11386TIP3   OH255648   0.877   1.340   2.793
11386TIP3    H155649   0.837   1.377   2.872
11386TIP3    H255650   0.894   1.415   2.737
11387TIP3   OH255651   3.714   5.812  15.806
11387TIP3    H155652   3.648   5.747  15.783
11387TIP3    H255653   3.782   5.762  15.852
11388TIP3   OH255654   2.630   1.873   2.004
11388TIP3    H155655   2.562   1.853   1.939
11388TIP3    H255656   2.675   1.950   1.968
11389TIP3   OH255657   6.154   0.743  15.524
11389TIP3    H155658   6.229   0.683  15.521
11389TIP3    H255659   6.153   0.784  15.438
11390TIP3   OH255660   1.918   5.886  15.307
11390TIP3    H155661   1.827   5.912  15.312
11390TIP3    H255662   1.916   5.790  15.302
11391TIP3   OH255663   3.890   1.816   0.062
11391TIP3    H155664   3.935   1.759  -0.000
11391TIP3    H255665   3.833   1.870   0.007
11392TIP3   OH255666   6.273   2.832  17.245
11392TIP3    H155667   6.208   2.782  17.295
11392TIP3    H255668   6.280   2.785  17.162
11393TIP3   OH255669   5.420   6.446  10.676
11393TIP3    H155670   5.454   6.475  10.591
11393TIP3    H255671   5.436   6.520  10.735
11394TIP3   OH255672   5.429   5.733   0.650
11394TIP3    H155673   5.515   5.759   0.683
11394TIP3    H255674   5.375   5.721   0.728
11395TIP3   OH255675   5.397   0.383   6.668
11395TIP3    H155676   5.430   0.425   6.588
11395TIP3    H255677   5.424   0.442   6.738
11396TIP3   OH255678   2.861   5.390   1.983
11396TIP3    H155679   2.908   5.342   1.916
11396TIP3    H255680   2.926   5.407   2.051
11397TIP3   OH255681   3.662   0.142  13.832
11397TIP3    H155682   3.673   0.237  13.836
11397TIP3    H255683   3.573   0.130  13.799
11398TIP3   OH255684   6.237   0.625   1.997
11398TIP3    H155685   6.279   0.685   2.059
11398TIP3    H255686   6.199   0.682   1.930
11399TIP3   OH255687   2.561   4.654  14.084
11399TIP3    H155688   2.517   4.679  14.165
11399TIP3    H255689   2.501   4.680  14.014
11400TIP3   OH255690   3.049   3.782   0.652
11400TIP3    H155691   3.114   3.728   0.698
11400TIP3    H255692   2.978   3.721   0.632
11401TIP3   OH255693   0.865   1.206  11.603
11401TIP3    H155694   0.854   1.272  11.535
11401TIP3    H255695   0.955   1.174  11.591
11402TIP3   OH255696   6.003   2.202  13.410
11402TIP3    H155697   6.015   2.182  13.503
11402TIP3    H255698   5.984   2.117  13.370
11403TIP3   OH255699   4.221   6.247  13.293
11403TIP3    H155700   4.282   6.321  13.286
11403TIP3    H255701   4.239   6.193  13.216
11404TIP3   OH255702   6.475   5.204  13.421
11404TIP3    H155703   6.512   5.252  13.347
11404TIP3    H255704   6.494   5.260  13.497
11405TIP3   OH255705   3.891   0.148  13.642
11405TIP3    H155706   3.833   0.159  13.717
11405TIP3    H255707   3.833   0.143  13.566
11406TIP3   OH255708   4.617   5.299  15.891
11406TIP3    H155709   4.549   5.232  15.899
11406TIP3    H255710   4.575   5.371  15.844
11407TIP3   OH255711   2.560   6.021   4.177
11407TIP3    H155712   2.550   6.116   4.182
11407TIP3    H255713   2.611   5.998   4.255
11408TIP3   OH255714   0.273   1.543   3.916
11408TIP3    H155715   0.270   1.638   3.930
11408TIP3    H255716   0.323   1.509   3.990
11409TIP3   OH255717   6.572   4.588  13.278
11409TIP3    H155718   6.546   4.503  13.242
11409TIP3    H255719   6.667   4.590  13.269
11410TIP3   OH255720   3.394   5.696  15.996
11410TIP3    H155721   3.428   5.752  15.926
11410TIP3    H255722   3.470   5.646  16.026
11411TIP3   OH255723   3.653   5.877  10.957
11411TIP3    H155724   3.605   5.928  11.023
11411TIP3    H255725   3.586   5.826  10.912
11412TIP3   OH255726   6.787   1.418  15.778
11412TIP3    H155727   6.804   1.341  15.833
11412TIP3    H255728   6.874   1.450  15.754
11413TIP3   OH255729   4.155   1.335  17.216
11413TIP3    H155730   4.220   1.330  17.286
11413TIP3    H255731   4.149   1.245  17.182
11414TIP3   OH255732   0.479   0.974   6.002
11414TIP3    H155733   0.533   0.903   6.035
11414TIP3    H255734   0.389   0.942   6.010
11415TIP3   OH255735   2.268   3.530  15.712
11415TIP3    H155736   2.184   3.577  15.718
11415TIP3    H255737   2.304   3.533  15.801
11416TIP3   OH255738   2.966   4.162  11.852
11416TIP3    H155739   3.051   4.124  11.827
11416TIP3    H255740   2.905   4.128  11.787
11417TIP3   OH255741   0.454   5.984  13.541
11417TIP3    H155742   0.452   5.888  13.538
11417TIP3    H255743   0.419   6.011  13.456
11418TIP3   OH255744   4.512   4.424  11.884
11418TIP3    H155745   4.500   4.332  11.861
11418TIP3    H255746   4.602   4.443  11.860
11419TIP3   OH255747   0.706   3.695   1.311
11419TIP3    H155748   0.699   3.630   1.242
11419TIP3    H255749   0.695   3.779   1.267
11420TIP3   OH255750   5.499   3.269   5.250
11420TIP3    H155751   5.524   3.355   5.284
11420TIP3    H255752   5.403   3.270   5.252
11421TIP3   OH255753   4.409   5.133  15.746
11421TIP3    H155754   4.346   5.195  15.711
11421TIP3    H255755   4.427   5.072  15.674
11422TIP3   OH255756   2.203   2.280   3.957
11422TIP3    H155757   2.269   2.330   4.004
11422TIP3    H255758   2.172   2.340   3.889
11423TIP3   OH255759   0.764   4.749  15.510
11423TIP3    H155760   0.782   4.841  15.489
11423TIP3    H255761   0.825   4.728  15.580
11424TIP3   OH255762   4.131   2.190   3.822
11424TIP3    H155763   4.065   2.147   3.768
11424TIP3    H255764   4.095   2.278   3.838
11425TIP3   OH255765   3.784   3.164   0.581
11425TIP3    H155766   3.770   3.223   0.656
11425TIP3    H255767   3.877   3.171   0.563
11426TIP3   OH255768   6.029   4.464   3.109
11426TIP3    H155769   6.086   4.416   3.049
11426TIP3    H255770   5.940   4.436   3.086
11427TIP3   OH255771   0.989   3.560  14.712
11427TIP3    H155772   1.040   3.625  14.664
11427TIP3    H255773   0.931   3.612  14.768
11428TIP3   OH255774   1.224   4.344   2.632
11428TIP3    H155775   1.204   4.432   2.663
11428TIP3    H255776   1.316   4.331   2.656
11429TIP3   OH255777   5.634   5.342  17.177
11429TIP3    H155778   5.624   5.282  17.103
11429TIP3    H255779   5.664   5.287  17.249
11430TIP3   OH255780   3.490   0.588   2.023
11430TIP3    H155781   3.471   0.676   2.055
11430TIP3    H255782   3.537   0.546   2.095
11431TIP3   OH255783   1.281   0.177  11.802
11431TIP3    H155784   1.272   0.089  11.766
11431TIP3    H255785   1.372   0.182  11.830
11432TIP3   OH255786   3.147   2.283   3.754
11432TIP3    H155787   3.214   2.253   3.692
11432TIP3    H255788   3.197   2.329   3.822
11433TIP3   OH255789   3.301   2.641  16.847
11433TIP3    H155790   3.239   2.578  16.812
11433TIP3    H255791   3.259   2.726  16.836
11434TIP3   OH255792   0.445   0.918  16.611
11434TIP3    H155793   0.428   0.829  16.642
11434TIP3    H255794   0.540   0.928  16.621
11435TIP3   OH255795   5.607   1.471  12.154
11435TIP3    H155796   5.522   1.470  12.199
11435TIP3    H255797   5.586   1.496  12.064
11436TIP3   OH255798   2.655   5.495   3.849
11436TIP3    H155799   2.744   5.523   3.866
11436TIP3    H255800   2.631   5.538   3.766
11437TIP3   OH255801   3.238   6.154  11.858
11437TIP3    H155802   3.273   6.187  11.940
11437TIP3    H255803   3.304   6.178  11.792
11438TIP3   OH255804   2.134   6.081   2.229
11438TIP3    H155805   2.213   6.135   2.222
11438TIP3    H255806   2.082   6.123   2.298
11439TIP3   OH255807   1.477   5.789  14.619
11439TIP3    H155808   1.448   5.857  14.557
11439TIP3    H255809   1.443   5.817  14.703
11440TIP3   OH255810   3.267   0.600   1.580
11440TIP3    H155811   3.248   0.508   1.563
11440TIP3    H255812   3.340   0.599   1.642
11441TIP3   OH255813   1.190   2.700  11.437
11441TIP3    H155814   1.149   2.720  11.352
11441TIP3    H255815   1.276   2.742  11.432
11442TIP3   OH255816   1.189   1.761   0.946
11442TIP3    H155817   1.246   1.687   0.968
11442TIP3    H255818   1.210   1.828   1.011
11443TIP3   OH255819   3.192   1.760  12.705
11443TIP3    H155820   3.108   1.804  12.696
11443TIP3    H255821   3.174   1.684  12.761
11444TIP3   OH255822   2.183   3.789  15.852
11444TIP3    H155823   2.148   3.807  15.940
11444TIP3    H255824   2.268   3.832  15.851
11445TIP3   OH255825   1.535   4.062   5.569
11445TIP3    H155826   1.492   4.146   5.583
11445TIP3    H255827   1.623   4.085   5.539
11446TIP3   OH255828   1.014   4.818   1.006
11446TIP3    H155829   1.108   4.827   0.986
11446TIP3    H255830   1.013   4.778   1.093
11447TIP3   OH255831   3.165   5.433  14.846
11447TIP3    H155832   3.244   5.421  14.792
11447TIP3    H255833   3.111   5.493  14.795
11448TIP3   OH255834   5.512   0.267   4.665
11448TIP3    H155835   5.489   0.252   4.757
11448TIP3    H255836   5.607   0.256   4.661
11449TIP3   OH255837   6.659   4.524  15.408
11449TIP3    H155838   6.647   4.463  15.335
11449TIP3    H255839   6.660   4.469  15.486
11450TIP3   OH255840   5.842   6.673   1.261
11450TIP3    H155841   5.896   6.750   1.277
11450TIP3    H255842   5.826   6.673   1.167
11451TIP3   OH255843   6.368   0.106  15.924
11451TIP3    H155844   6.369   0.187  15.974
11451TIP3    H255845   6.285   0.064  15.948
11452TIP3   OH255846   2.765   2.890   0.287
11452TIP3    H155847   2.808   2.974   0.268
11452TIP3    H255848   2.759   2.847   0.202
11453TIP3   OH255849   2.294   2.161   1.781
11453TIP3    H155850   2.299   2.066   1.793
11453TIP3    H255851   2.384   2.187   1.763
11454TIP3   OH255852   4.042   6.689  14.299
11454TIP3    H155853   4.017   6.773  14.338
11454TIP3    H255854   4.069   6.635  14.373
11455TIP3   OH255855   5.361   5.829   1.432
11455TIP3    H155856   5.302   5.875   1.373
11455TIP3    H255857   5.438   5.887   1.439
11456TIP3   OH255858   4.158   5.037   1.761
11456TIP3    H155859   4.238   5.055   1.811
11456TIP3    H255860   4.099   4.996   1.825
11457TIP3   OH255861   3.097   0.611   5.660
11457TIP3    H155862   3.010   0.589   5.692
11457TIP3    H255863   3.090   0.604   5.565
11458TIP3   OH255864   4.216   1.860  12.091
11458TIP3    H155865   4.129   1.861  12.049
11458TIP3    H255866   4.266   1.796  12.040
11459TIP3   OH255867   5.963   6.386   5.839
11459TIP3    H155868   6.056   6.363   5.847
11459TIP3    H255869   5.937   6.347   5.755
11460TIP3   OH255870   1.319   0.537   1.614
11460TIP3    H155871   1.400   0.486   1.604
11460TIP3    H255872   1.341   0.624   1.581
11461TIP3   OH255873   6.773   1.346  14.646
11461TIP3    H155874   6.849   1.396  14.675
11461TIP3    H255875   6.718   1.339  14.725
11462TIP3   OH255876   6.539   1.625   6.317
11462TIP3    H155877   6.585   1.622   6.401
11462TIP3    H255878   6.486   1.545   6.316
11463TIP3   OH255879   1.788   5.721  14.116
11463TIP3    H155880   1.707   5.672  14.127
11463TIP3    H255881   1.851   5.658  14.081
11464TIP3   OH255882   3.248   5.966  16.380
11464TIP3    H155883   3.262   5.943  16.289
11464TIP3    H255884   3.312   5.912  16.428
11465TIP3   OH255885   6.262   1.276  11.184
11465TIP3    H155886   6.225   1.341  11.245
11465TIP3    H255887   6.353   1.265  11.213
11466TIP3   OH255888   1.610   0.872  14.654
11466TIP3    H155889   1.602   0.788  14.609
11466TIP3    H255890   1.654   0.851  14.736
11467TIP3   OH255891   5.859   4.786   1.845
11467TIP3    H155892   5.936   4.759   1.896
11467TIP3    H255893   5.885   4.774   1.754
11468TIP3   OH255894   2.860   2.459  13.197
11468TIP3    H155895   2.869   2.533  13.258
11468TIP3    H255896   2.796   2.490  13.133
11469TIP3   OH255897   0.628   2.844   0.558
11469TIP3    H155898   0.573   2.775   0.521
11469TIP3    H255899   0.704   2.847   0.500
11470TIP3   OH255900   6.567   0.452   5.932
11470TIP3    H155901   6.536   0.490   5.850
11470TIP3    H255902   6.568   0.358   5.916
11471TIP3   OH255903   2.781   1.609  12.053
11471TIP3    H155904   2.848   1.553  12.013
11471TIP3    H255905   2.771   1.576  12.142
11472TIP3   OH255906   1.891   4.872   3.485
11472TIP3    H155907   1.855   4.840   3.567
11472TIP3    H255908   1.929   4.957   3.506
11473TIP3   OH255909   3.906   5.672  12.666
11473TIP3    H155910   3.989   5.654  12.709
11473TIP3    H255911   3.865   5.587  12.656
11474TIP3   OH255912   6.196   3.143   3.990
11474TIP3    H155913   6.253   3.218   3.973
11474TIP3    H255914   6.156   3.124   3.905
11475TIP3   OH255915   2.035   2.073   6.358
11475TIP3    H155916   2.107   2.105   6.412
11475TIP3    H255917   1.976   2.148   6.351
11476TIP3   OH255918   0.822   1.624  15.526
11476TIP3    H155919   0.799   1.548  15.579
11476TIP3    H255920   0.847   1.692  15.589
11477TIP3   OH255921   4.660   4.799  13.482
11477TIP3    H155922   4.610   4.730  13.526
11477TIP3    H255923   4.661   4.872  13.544
11478TIP3   OH255924   6.010   1.570  13.102
11478TIP3    H155925   6.027   1.520  13.023
11478TIP3    H255926   6.087   1.627  13.112
11479TIP3   OH255927   0.161   1.098   2.783
11479TIP3    H155928   0.157   1.192   2.796
11479TIP3    H255929   0.229   1.086   2.716
11480TIP3   OH255930   0.464   5.018  12.862
11480TIP3    H155931   0.372   4.994  12.853
11480TIP3    H255932   0.500   4.951  12.920
11481TIP3   OH255933   3.241   5.417  17.062
11481TIP3    H155934   3.294   5.339  17.046
11481TIP3    H255935   3.248   5.433  17.156
11482TIP3   OH255936   1.538   5.573  14.137
11482TIP3    H155937   1.513   5.504  14.076
11482TIP3    H255938   1.460   5.628  14.145
11483TIP3   OH255939   1.642   0.273   4.395
11483TIP3    H155940   1.606   0.184   4.390
11483TIP3    H255941   1.568   0.330   4.376
11484TIP3   OH255942   0.511   5.501  17.264
11484TIP3    H155943   0.515   5.416  17.308
11484TIP3    H255944   0.418   5.512  17.242
11485TIP3   OH255945   0.300   0.020  13.629
11485TIP3    H155946   0.323  -0.072  13.617
11485TIP3    H255947   0.291   0.030  13.724
11486TIP3   OH255948   2.664   2.260  14.172
11486TIP3    H155949   2.707   2.176  14.155
11486TIP3    H255950   2.614   2.279  14.093
11487TIP3   OH255951   0.314   4.244   5.676
11487TIP3    H155952   0.219   4.238   5.681
11487TIP3    H255953   0.337   4.198   5.595
11488TIP3   OH255954   4.299   6.378   0.767
11488TIP3    H155955   4.238   6.369   0.840
11488TIP3    H255956   4.280   6.464   0.730
11489TIP3   OH255957   2.643   3.345  12.721
11489TIP3    H155958   2.633   3.409  12.791
11489TIP3    H255959   2.695   3.390  12.654
11490TIP3   OH255960   0.840   0.550  12.898
11490TIP3    H155961   0.862   0.592  12.815
11490TIP3    H255962   0.878   0.462  12.890
11491TIP3   OH255963   3.287   6.448  14.215
11491TIP3    H155964   3.371   6.449  14.169
11491TIP3    H255965   3.259   6.356  14.211
11492TIP3   OH255966   1.143   5.589  15.362
11492TIP3    H155967   1.189   5.509  15.389
11492TIP3    H255968   1.130   5.578  15.268
11493TIP3   OH255969   0.213   3.627  17.202
11493TIP3    H155970   0.124   3.593  17.200
11493TIP3    H255971   0.213   3.687  17.277
11494TIP3   OH255972   1.364   2.249  15.249
11494TIP3    H155973   1.406   2.239  15.334
11494TIP3    H255974   1.340   2.342  15.244
11495TIP3   OH255975   2.883   4.844  16.315
11495TIP3    H155976   2.897   4.909  16.246
11495TIP3    H255977   2.802   4.871  16.357
11496TIP3   OH255978   5.732   2.526   2.137
11496TIP3    H155979   5.687   2.504   2.056
11496TIP3    H255980   5.663   2.558   2.195
11497TIP3   OH255981   6.647   6.404   4.458
11497TIP3    H155982   6.621   6.315   4.480
11497TIP3    H255983   6.593   6.460   4.514
11498TIP3   OH255984   4.400   5.735   0.410
11498TIP3    H155985   4.408   5.747   0.316
11498TIP3    H255986   4.305   5.730   0.425
11499TIP3   OH255987   0.987   3.001   0.755
11499TIP3    H155988   1.052   3.001   0.825
11499TIP3    H255989   0.990   3.090   0.718
11500TIP3   OH255990   1.979   3.579  17.118
11500TIP3    H155991   1.917   3.561  17.047
11500TIP3    H255992   2.051   3.625  17.076
11501TIP3   OH255993   6.400   3.267   0.375
11501TIP3    H155994   6.482   3.262   0.326
11501TIP3    H255995   6.367   3.356   0.358
11502TIP3   OH255996   0.739   0.839   5.909
11502TIP3    H155997   0.828   0.811   5.888
11502TIP3    H255998   0.686   0.760   5.899
11503TIP3   OH255999   3.914   4.590   1.821
11503TIP3    H156000   3.974   4.664   1.831
11503TIP3    H256001   3.956   4.518   1.867
11504TIP3   OH256002   3.365   5.982   2.665
11504TIP3    H156003   3.396   5.948   2.749
11504TIP3    H256004   3.370   5.907   2.606
11505TIP3   OH256005   5.200   5.280  17.183
11505TIP3    H156006   5.112   5.277  17.147
11505TIP3    H256007   5.220   5.373  17.192
11506TIP3   OH256008   2.048   1.383  15.104
11506TIP3    H156009   2.135   1.365  15.139
11506TIP3    H256010   1.998   1.413  15.180
11507TIP3   OH256011   4.698   3.775   3.833
11507TIP3    H156012   4.782   3.777   3.788
11507TIP3    H256013   4.636   3.746   3.766
11508TIP3   OH256014   1.999   3.588  13.530
11508TIP3    H156015   1.987   3.681  13.510
11508TIP3    H256016   2.046   3.552  13.455
11509TIP3   OH256017   6.433   1.404   0.319
11509TIP3    H156018   6.528   1.409   0.312
11509TIP3    H256019   6.401   1.478   0.268
11510TIP3   OH256020   1.001   6.020  11.637
11510TIP3    H156021   0.949   6.026  11.557
11510TIP3    H256022   0.988   5.930  11.667
11511TIP3   OH256023   3.169   4.638   3.362
11511TIP3    H156024   3.150   4.660   3.271
11511TIP3    H256025   3.086   4.603   3.395
11512TIP3   OH256026   2.408   6.458  15.431
11512TIP3    H156027   2.425   6.492  15.343
11512TIP3    H256028   2.322   6.494  15.453
11513TIP3   OH256029   4.496   4.189   1.328
11513TIP3    H156030   4.449   4.204   1.246
11513TIP3    H256031   4.487   4.271   1.376
11514TIP3   OH256032   4.026   1.903  12.859
11514TIP3    H156033   4.050   1.939  12.773
11514TIP3    H256034   3.941   1.862  12.844
11515TIP3   OH256035   0.813   5.320  13.624
11515TIP3    H156036   0.731   5.286  13.660
11515TIP3    H256037   0.790   5.407  13.590
11516TIP3   OH256038   4.147   0.608   2.675
11516TIP3    H156039   4.175   0.696   2.699
11516TIP3    H256040   4.052   0.609   2.687
11517TIP3   OH256041   6.296   6.495   4.537
11517TIP3    H156042   6.234   6.562   4.510
11517TIP3    H256043   6.319   6.450   4.456
11518TIP3   OH256044   1.956   4.311  13.941
11518TIP3    H156045   2.002   4.395  13.946
11518TIP3    H256046   1.878   4.329  13.889
11519TIP3   OH256047   2.554   3.242  15.690
11519TIP3    H156048   2.627   3.279  15.639
11519TIP3    H256049   2.500   3.196  15.626
11520TIP3   OH256050   1.075   1.612  16.738
11520TIP3    H156051   1.045   1.703  16.735
11520TIP3    H256052   1.098   1.591  16.648
11521TIP3   OH256053   4.349   6.292   4.562
11521TIP3    H156054   4.295   6.313   4.638
11521TIP3    H256055   4.295   6.315   4.486
11522TIP3   OH256056   1.442   4.997  12.299
11522TIP3    H156057   1.496   5.002  12.378
11522TIP3    H256058   1.462   5.078  12.251
11523TIP3   OH256059   0.119   0.623   4.244
11523TIP3    H156060   0.146   0.660   4.159
11523TIP3    H256061   0.035   0.581   4.227
11524TIP3   OH256062   5.981   4.455   0.190
11524TIP3    H156063   5.914   4.391   0.213
11524TIP3    H256064   5.989   4.509   0.269
11525TIP3   OH256065   1.662   6.484   6.216
11525TIP3    H156066   1.601   6.422   6.256
11525TIP3    H256067   1.632   6.492   6.125
11526TIP3   OH256068   0.904   0.108   1.145
11526TIP3    H156069   0.845   0.155   1.203
11526TIP3    H256070   0.849   0.077   1.074
11527TIP3   OH256071   5.179   0.906   0.294
11527TIP3    H156072   5.247   0.873   0.235
11527TIP3    H256073   5.170   0.998   0.270
11528TIP3   OH256074   1.188   0.426  13.002
11528TIP3    H156075   1.209   0.376  12.923
11528TIP3    H256076   1.159   0.361  13.066
11529TIP3   OH256077   0.577   4.309   0.560
11529TIP3    H156078   0.621   4.369   0.500
11529TIP3    H256079   0.532   4.366   0.622
11530TIP3   OH256080   1.685   2.884  14.984
11530TIP3    H156081   1.757   2.880  15.047
11530TIP3    H256082   1.648   2.971  14.994
11531TIP3   OH256083   0.179   4.579   3.759
11531TIP3    H156084   0.251   4.638   3.740
11531TIP3    H256085   0.110   4.635   3.793
11532TIP3   OH256086   0.015   4.662   6.045
11532TIP3    H156087   0.057   4.712   5.975
11532TIP3    H256088  -0.008   4.578   6.004
11533TIP3   OH256089   3.183   3.656   0.856
11533TIP3    H156090   3.104   3.693   0.895
11533TIP3    H256091   3.156   3.569   0.826
11534TIP3   OH256092   5.797   3.934  11.548
11534TIP3    H156093   5.861   3.999  11.521
11534TIP3    H256094   5.720   3.952  11.493
11535TIP3   OH256095   1.007   0.198  14.956
11535TIP3    H156096   1.005   0.178  14.863
11535TIP3    H256097   1.084   0.152  14.989
11536TIP3   OH256098   4.561   3.451  15.609
11536TIP3    H156099   4.533   3.541  15.623
11536TIP3    H256100   4.647   3.446  15.650
11537TIP3   OH256101   2.868   1.737  16.720
11537TIP3    H156102   2.928   1.809  16.699
11537TIP3    H256103   2.814   1.727  16.641
11538TIP3   OH256104   1.317   1.484  13.547
11538TIP3    H156105   1.301   1.393  13.523
11538TIP3    H256106   1.356   1.479  13.634
11539TIP3   OH256107   4.130   2.639   1.544
11539TIP3    H156108   4.159   2.557   1.583
11539TIP3    H256109   4.210   2.678   1.508
11540TIP3   OH256110   2.239   6.187  14.952
11540TIP3    H156111   2.234   6.281  14.971
11540TIP3    H256112   2.196   6.145  15.026
11541TIP3   OH256113   6.183   4.511   6.323
11541TIP3    H156114   6.117   4.499   6.255
11541TIP3    H256115   6.207   4.604   6.316
11542TIP3   OH256116   2.874   6.123   6.695
11542TIP3    H156117   2.955   6.072   6.699
11542TIP3    H256118   2.826   6.084   6.622
11543TIP3   OH256119   5.674   1.416   1.285
11543TIP3    H156120   5.610   1.482   1.260
11543TIP3    H256121   5.630   1.332   1.271
11544TIP3   OH256122   4.163   2.297   2.151
11544TIP3    H156123   4.173   2.373   2.093
11544TIP3    H256124   4.112   2.330   2.225
11545TIP3   OH256125   5.664   3.888   5.190
11545TIP3    H156126   5.600   3.877   5.261
11545TIP3    H256127   5.749   3.888   5.234
11546TIP3   OH256128   0.748   0.287   4.269
11546TIP3    H156129   0.677   0.277   4.332
11546TIP3    H256130   0.784   0.374   4.286
11547TIP3   OH256131   0.669   0.646   2.720
11547TIP3    H156132   0.684   0.555   2.748
11547TIP3    H256133   0.742   0.695   2.758
11548TIP3   OH256134   2.446   2.178   6.105
11548TIP3    H156135   2.480   2.098   6.066
11548TIP3    H256136   2.477   2.248   6.047
11549TIP3   OH256137   3.882   4.237   1.941
11549TIP3    H156138   3.949   4.302   1.963
11549TIP3    H256139   3.801   4.273   1.978
11550TIP3   OH256140   2.902   2.840   3.158
11550TIP3    H156141   2.833   2.775   3.146
11550TIP3    H256142   2.928   2.830   3.250
11551TIP3   OH256143   1.173   1.679  15.075
11551TIP3    H156144   1.248   1.665  15.017
11551TIP3    H256145   1.121   1.746  15.030
11552TIP3   OH256146   1.254   3.451   0.946
11552TIP3    H156147   1.287   3.493   1.025
11552TIP3    H256148   1.170   3.494   0.929
11553TIP3   OH256149   1.370   5.121   2.438
11553TIP3    H156150   1.358   5.078   2.523
11553TIP3    H256151   1.411   5.054   2.383
11554TIP3   OH256152   3.206   1.995  11.727
11554TIP3    H156153   3.210   2.084  11.763
11554TIP3    H256154   3.134   1.998  11.664
11555TIP3   OH256155   6.346   4.867  16.007
11555TIP3    H156156   6.330   4.809  16.082
11555TIP3    H256157   6.420   4.827  15.961
11556TIP3   OH256158   1.789   2.980  12.176
11556TIP3    H156159   1.780   2.991  12.082
11556TIP3    H256160   1.826   2.892  12.187
11557TIP3   OH256161   6.168   6.635   4.792
11557TIP3    H156162   6.249   6.685   4.786
11557TIP3    H256163   6.133   6.635   4.702
11558TIP3   OH256164   4.951   1.123  14.311
11558TIP3    H156165   4.891   1.072  14.365
11558TIP3    H256166   5.033   1.124  14.360
11559TIP3   OH256167   1.501   1.342   1.575
11559TIP3    H156168   1.488   1.295   1.493
11559TIP3    H256169   1.596   1.355   1.580
11560TIP3   OH256170   4.374   5.226  17.121
11560TIP3    H156171   4.376   5.185  17.207
11560TIP3    H256172   4.281   5.247  17.107
11561TIP3   OH256173   0.344   4.778  11.364
11561TIP3    H156174   0.417   4.743  11.414
11561TIP3    H256175   0.373   4.775  11.273
11562TIP3   OH256176   6.372   4.243  17.267
11562TIP3    H156177   6.443   4.307  17.267
11562TIP3    H256178   6.378   4.201  17.353
11563TIP3   OH256179   0.423   2.222  12.402
11563TIP3    H156180   0.340   2.228  12.449
11563TIP3    H256181   0.472   2.299  12.430
11564TIP3   OH256182   4.750   1.842   5.934
11564TIP3    H156183   4.685   1.909   5.913
11564TIP3    H256184   4.733   1.820   6.026
11565TIP3   OH256185   0.227   6.596   2.515
11565TIP3    H156186   0.227   6.654   2.439
11565TIP3    H256187   0.185   6.647   2.584
11566TIP3   OH256188   3.834   3.357  15.292
11566TIP3    H156189   3.861   3.271  15.324
11566TIP3    H256190   3.746   3.344  15.258
11567TIP3   OH256191   1.871   5.545  11.132
11567TIP3    H156192   1.870   5.626  11.182
11567TIP3    H256193   1.957   5.507  11.150
11568TIP3   OH256194   4.023   5.002  15.248
11568TIP3    H156195   3.972   5.038  15.176
11568TIP3    H256196   3.961   4.995  15.321
11569TIP3   OH256197   3.295   1.810  15.610
11569TIP3    H156198   3.208   1.835  15.580
11569TIP3    H256199   3.306   1.853  15.694
11570TIP3   OH256200   4.853   4.776   3.504
11570TIP3    H156201   4.848   4.802   3.413
11570TIP3    H256202   4.907   4.843   3.546
11571TIP3   OH256203   4.665   1.968  17.086
11571TIP3    H156204   4.738   1.971  17.024
11571TIP3    H256205   4.706   1.959  17.172
11572TIP3   OH256206   4.938   2.973   1.068
11572TIP3    H156207   4.944   2.907   0.999
11572TIP3    H256208   4.905   2.926   1.144
11573TIP3   OH256209   3.911   6.181   0.985
11573TIP3    H156210   3.864   6.223   1.056
11573TIP3    H256211   3.847   6.123   0.944
11574TIP3   OH256212   5.077   1.161   2.680
11574TIP3    H156213   5.090   1.234   2.618
11574TIP3    H256214   4.994   1.181   2.723
11575TIP3   OH256215   0.065   5.848  14.962
11575TIP3    H156216   0.122   5.921  14.939
11575TIP3    H256217   0.098   5.774  14.912
11576TIP3   OH256218   3.489   3.148   0.962
11576TIP3    H156219   3.559   3.199   1.003
11576TIP3    H256220   3.524   3.059   0.958
11577TIP3   OH256221   2.158   1.304  16.249
11577TIP3    H156222   2.220   1.315  16.321
11577TIP3    H256223   2.126   1.393  16.232
11578TIP3   OH256224   2.497   0.719  16.005
11578TIP3    H156225   2.536   0.671  16.078
11578TIP3    H256226   2.427   0.771  16.046
11579TIP3   OH256227   2.946   5.689   3.321
11579TIP3    H156228   2.873   5.654   3.270
11579TIP3    H256229   2.935   5.651   3.408
11580TIP3   OH256230   6.574   1.498  12.252
11580TIP3    H156231   6.524   1.574  12.222
11580TIP3    H256232   6.519   1.459  12.320
11581TIP3   OH256233   3.018   2.444  12.046
11581TIP3    H156234   2.965   2.520  12.068
11581TIP3    H256235   3.065   2.424  12.127
11582TIP3   OH256236   6.669   6.613   1.505
11582TIP3    H156237   6.754   6.567   1.505
11582TIP3    H256238   6.612   6.556   1.557
11583TIP3   OH256239   4.793   1.743   2.347
11583TIP3    H156240   4.792   1.838   2.333
11583TIP3    H256241   4.703   1.715   2.330
11584TIP3   OH256242   2.304   0.114  15.083
11584TIP3    H156243   2.380   0.172  15.093
11584TIP3    H256244   2.229   0.169  15.106
11585TIP3   OH256245   5.305   4.269   5.205
11585TIP3    H156246   5.306   4.315   5.289
11585TIP3    H256247   5.288   4.337   5.140
11586TIP3   OH256248   3.265   3.597   2.595
11586TIP3    H156249   3.189   3.560   2.550
11586TIP3    H256250   3.228   3.646   2.668
11587TIP3   OH256251   2.873   6.437   5.000
11587TIP3    H156252   2.900   6.362   4.947
11587TIP3    H256253   2.778   6.441   4.991
11588TIP3   OH256254   4.417   3.691   4.852
11588TIP3    H156255   4.409   3.603   4.888
11588TIP3    H256256   4.512   3.708   4.851
11589TIP3   OH256257   3.785   0.786   1.871
11589TIP3    H156258   3.835   0.859   1.906
11589TIP3    H256259   3.698   0.823   1.853
11590TIP3   OH256260   1.133   1.683   2.867
11590TIP3    H156261   1.086   1.753   2.821
11590TIP3    H256262   1.064   1.624   2.898
11591TIP3   OH256263   5.784   4.689   6.363
11591TIP3    H156264   5.763   4.627   6.293
11591TIP3    H256265   5.798   4.634   6.440
11592TIP3   OH256266   4.540   2.716  15.923
11592TIP3    H156267   4.449   2.730  15.946
11592TIP3    H256268   4.542   2.628  15.884
11593TIP3   OH256269   3.184   1.111   5.326
11593TIP3    H156270   3.210   1.145   5.412
11593TIP3    H256271   3.172   1.017   5.340
11594TIP3   OH256272   5.076   5.566   1.295
11594TIP3    H156273   5.126   5.485   1.290
11594TIP3    H256274   5.005   5.546   1.356
11595TIP3   OH256275   3.975   3.984   0.152
11595TIP3    H156276   4.059   4.029   0.143
11595TIP3    H256277   3.910   4.052   0.133
11596TIP3   OH256278   4.436   6.820   0.657
11596TIP3    H156279   4.370   6.750   0.659
11596TIP3    H256280   4.443   6.849   0.748
11597TIP3   OH256281   2.542   4.810  11.007
11597TIP3    H156282   2.459   4.821  10.961
11597TIP3    H256283   2.599   4.878  10.971
11598TIP3   OH256284   3.603   6.794  11.486
11598TIP3    H156285   3.673   6.834  11.434
11598TIP3    H256286   3.626   6.701  11.491
11599TIP3   OH256287   3.637   5.718  16.843
11599TIP3    H156288   3.721   5.741  16.802
11599TIP3    H256289   3.656   5.717  16.937
11600TIP3   OH256290   4.682   5.354  11.779
11600TIP3    H156291   4.680   5.258  11.776
11600TIP3    H256292   4.760   5.374  11.830
11601TIP3   OH256293   1.881   5.586   6.074
11601TIP3    H156294   1.874   5.495   6.044
11601TIP3    H256295   1.802   5.628   6.039
11602TIP3   OH256296   1.042   5.897  16.455
11602TIP3    H156297   1.014   5.917  16.365
11602TIP3    H256298   1.136   5.885  16.448
11603TIP3   OH256299   2.696   3.980  12.122
11603TIP3    H156300   2.682   4.066  12.083
11603TIP3    H256301   2.649   3.983  12.205
11604TIP3   OH256302   2.441   1.139  16.456
11604TIP3    H156303   2.380   1.210  16.435
11604TIP3    H256304   2.500   1.134  16.381
11605TIP3   OH256305   6.647   0.100  14.674
11605TIP3    H156306   6.665   0.061  14.759
11605TIP3    H256307   6.693   0.045  14.611
11606TIP3   OH256308   4.404   0.522  11.575
11606TIP3    H156309   4.450   0.549  11.654
11606TIP3    H256310   4.314   0.551  11.588
11607TIP3   OH256311   6.200   4.118   2.076
11607TIP3    H156312   6.203   4.195   2.019
11607TIP3    H256313   6.182   4.045   2.017
11608TIP3   OH256314   2.329   6.772  16.875
11608TIP3    H156315   2.279   6.693  16.854
11608TIP3    H256316   2.398   6.776  16.810
11609TIP3   OH256317   4.741   1.842   4.648
11609TIP3    H156318   4.752   1.878   4.560
11609TIP3    H256319   4.648   1.852   4.667
11610TIP3   OH256320   6.000   4.199  13.021
11610TIP3    H156321   6.048   4.121  12.994
11610TIP3    H256322   5.952   4.171  13.099
11611TIP3   OH256323   4.806   5.983  10.906
11611TIP3    H156324   4.786   5.896  10.871
11611TIP3    H256325   4.724   6.031  10.898
11612TIP3   OH256326   1.136   0.884  12.702
11612TIP3    H156327   1.219   0.927  12.679
11612TIP3    H256328   1.153   0.845  12.788
11613TIP3   OH256329   4.500   0.396   3.816
11613TIP3    H156330   4.564   0.425   3.751
11613TIP3    H256331   4.429   0.359   3.764
11614TIP3   OH256332   2.335   0.030   3.798
11614TIP3    H156333   2.260   0.016   3.856
11614TIP3    H256334   2.296   0.049   3.713
11615TIP3   OH256335   5.655   0.375  14.940
11615TIP3    H156336   5.661   0.284  14.969
11615TIP3    H256337   5.712   0.380  14.863
11616TIP3   OH256338   5.140   4.382  14.704
11616TIP3    H156339   5.136   4.311  14.768
11616TIP3    H256340   5.230   4.381  14.672
11617TIP3   OH256341   4.207   5.480   3.009
11617TIP3    H156342   4.279   5.419   3.027
11617TIP3    H256343   4.241   5.536   2.938
11618TIP3   OH256344   1.863   1.975  12.049
11618TIP3    H156345   1.925   2.047  12.059
11618TIP3    H256346   1.817   1.994  11.967
11619TIP3   OH256347   1.677   3.498  14.608
11619TIP3    H156348   1.614   3.462  14.670
11619TIP3    H256349   1.757   3.508  14.659
11620TIP3   OH256350   1.368   5.389   0.549
11620TIP3    H156351   1.306   5.439   0.494
11620TIP3    H256352   1.315   5.319   0.587
11621TIP3   OH256353   5.793   5.800   1.564
11621TIP3    H156354   5.842   5.825   1.642
11621TIP3    H256355   5.836   5.721   1.532
11622TIP3   OH256356   6.135   6.637  13.510
11622TIP3    H156357   6.218   6.650  13.464
11622TIP3    H256358   6.139   6.698  13.584
11623TIP3   OH256359   4.205   0.754  10.684
11623TIP3    H156360   4.206   0.800  10.768
11623TIP3    H256361   4.146   0.680  10.699
11624TIP3   OH256362   4.789   3.463  13.335
11624TIP3    H156363   4.839   3.545  13.334
11624TIP3    H256364   4.721   3.476  13.269
11625TIP3   OH256365   4.182   1.955   5.777
11625TIP3    H156366   4.115   1.924   5.838
11625TIP3    H256367   4.140   2.028   5.730
11626TIP3   OH256368   1.337   6.670  14.857
11626TIP3    H156369   1.341   6.756  14.815
11626TIP3    H256370   1.256   6.631  14.823
11627TIP3   OH256371   2.140   5.317  15.283
11627TIP3    H156372   2.203   5.342  15.351
11627TIP3    H256373   2.173   5.357  15.203
11628TIP3   OH256374   2.491   5.335   1.858
11628TIP3    H156375   2.400   5.350   1.881
11628TIP3    H256376   2.521   5.417   1.820
11629TIP3   OH256377   6.619   5.168  11.913
11629TIP3    H156378   6.605   5.225  11.837
11629TIP3    H256379   6.710   5.186  11.939
11630TIP3   OH256380   1.153   5.004   0.443
11630TIP3    H156381   1.240   4.967   0.435
11630TIP3    H256382   1.124   5.016   0.353
11631TIP3   OH256383   0.912   5.464   1.724
11631TIP3    H156384   0.851   5.531   1.692
11631TIP3    H256385   0.895   5.459   1.818
11632TIP3   OH256386   0.872   1.139  16.834
11632TIP3    H156387   0.948   1.103  16.788
11632TIP3    H256388   0.883   1.234  16.828
11633TIP3   OH256389   1.918   0.720   1.418
11633TIP3    H156390   1.982   0.748   1.484
11633TIP3    H256391   1.967   0.720   1.336
11634TIP3   OH256392   2.481   4.405  14.190
11634TIP3    H156393   2.500   4.499  14.187
11634TIP3    H256394   2.505   4.373  14.103
11635TIP3   OH256395   1.731   4.605  14.390
11635TIP3    H156396   1.690   4.624  14.305
11635TIP3    H256397   1.718   4.511  14.401
11636TIP3   OH256398   1.330   0.986  15.489
11636TIP3    H156399   1.425   0.995  15.481
11636TIP3    H256400   1.300   0.975  15.399
11637TIP3   OH256401   6.779   5.119   0.580
11637TIP3    H156402   6.870   5.145   0.572
11637TIP3    H256403   6.776   5.066   0.659
11638TIP3   OH256404   5.118   2.779  10.275
11638TIP3    H156405   5.105   2.686  10.260
11638TIP3    H256406   5.210   2.787  10.301
11639TIP3   OH256407   3.524   1.161   4.204
11639TIP3    H156408   3.585   1.198   4.140
11639TIP3    H256409   3.538   1.066   4.198
11640TIP3   OH256410   0.302   0.983  11.237
11640TIP3    H156411   0.317   1.077  11.226
11640TIP3    H256412   0.386   0.943  11.214
11641TIP3   OH256413   1.273   3.411  14.852
11641TIP3    H156414   1.211   3.441  14.918
11641TIP3    H256415   1.220   3.397  14.774
11642TIP3   OH256416   2.547   0.254  13.379
11642TIP3    H156417   2.478   0.317  13.396
11642TIP3    H256418   2.501   0.173  13.354
11643TIP3   OH256419   4.477   1.415  11.635
11643TIP3    H156420   4.553   1.453  11.680
11643TIP3    H256421   4.501   1.416  11.543
11644TIP3   OH256422   6.515   3.280  11.972
11644TIP3    H156423   6.502   3.301  12.064
11644TIP3    H256424   6.520   3.366  11.929
11645TIP3   OH256425   5.486   6.648   0.512
11645TIP3    H156426   5.394   6.632   0.531
11645TIP3    H256427   5.522   6.681   0.595
11646TIP3   OH256428   4.521   2.447  11.614
11646TIP3    H156429   4.504   2.405  11.530
11646TIP3    H256430   4.607   2.415  11.640
11647TIP3   OH256431   3.881   2.693  14.560
11647TIP3    H156432   3.795   2.655  14.577
11647TIP3    H256433   3.935   2.619  14.531
11648TIP3   OH256434   0.315   1.635  11.983
11648TIP3    H156435   0.282   1.579  11.914
11648TIP3    H256436   0.259   1.713  11.979
11649TIP3   OH256437   4.071   5.698   0.469
11649TIP3    H156438   4.002   5.764   0.456
11649TIP3    H256439   4.039   5.643   0.540
11650TIP3   OH256440   5.952   6.155  14.667
11650TIP3    H156441   5.898   6.232  14.650
11650TIP3    H256442   5.889   6.083  14.671
11651TIP3   OH256443   3.903   1.443   5.457
11651TIP3    H156444   3.813   1.429   5.427
11651TIP3    H256445   3.936   1.514   5.403
11652TIP3   OH256446   0.345   0.327   2.746
11652TIP3    H156447   0.406   0.253   2.747
11652TIP3    H256448   0.313   0.330   2.656
11653TIP3   OH256449   2.033   1.880  13.546
11653TIP3    H156450   2.017   1.832  13.627
11653TIP3    H256451   2.066   1.966  13.575
11654TIP3   OH256452   5.578   5.487  16.717
11654TIP3    H156453   5.593   5.438  16.635
11654TIP3    H256454   5.622   5.571  16.703
11655TIP3   OH256455   1.311   6.067  14.278
11655TIP3    H156456   1.391   6.120  14.285
11655TIP3    H256457   1.247   6.112  14.333
11656TIP3   OH256458   4.769   0.188   4.174
11656TIP3    H156459   4.700   0.167   4.112
11656TIP3    H256460   4.724   0.196   4.258
11657TIP3   OH256461   5.442   6.369   2.365
11657TIP3    H156462   5.474   6.432   2.429
11657TIP3    H256463   5.388   6.309   2.415
11658TIP3   OH256464   1.404   1.586   4.610
11658TIP3    H156465   1.343   1.588   4.536
11658TIP3    H256466   1.485   1.551   4.573
11659TIP3   OH256467   0.273   3.987  12.328
11659TIP3    H156468   0.337   4.039  12.375
11659TIP3    H256469   0.316   3.903  12.313
11660TIP3   OH256470   4.747   5.389  16.687
11660TIP3    H156471   4.790   5.473  16.672
11660TIP3    H256472   4.654   5.409  16.693
11661TIP3   OH256473   2.910   0.793  16.309
11661TIP3    H156474   2.899   0.873  16.360
11661TIP3    H256475   2.959   0.821  16.231
11662TIP3   OH256476   6.057   4.197   0.343
11662TIP3    H156477   6.127   4.183   0.407
11662TIP3    H256478   6.008   4.272   0.376
11663TIP3   OH256479   2.029   3.656   4.492
11663TIP3    H156480   2.019   3.561   4.499
11663TIP3    H256481   2.051   3.685   4.580
11664TIP3   OH256482   4.975   5.559  13.470
11664TIP3    H156483   4.887   5.523  13.480
11664TIP3    H256484   4.981   5.628  13.535
11665TIP3   OH256485   5.212   3.520  10.844
11665TIP3    H156486   5.307   3.512  10.852
11665TIP3    H256487   5.178   3.453  10.903
11666TIP3   OH256488   2.712   3.577  11.192
11666TIP3    H156489   2.624   3.568  11.156
11666TIP3    H256490   2.750   3.652  11.146
11667TIP3   OH256491   6.767   2.810   2.341
11667TIP3    H156492   6.734   2.780   2.426
11667TIP3    H256493   6.844   2.756   2.324
11668TIP3   OH256494   6.240   5.213   2.682
11668TIP3    H156495   6.261   5.122   2.703
11668TIP3    H256496   6.154   5.227   2.722
11669TIP3   OH256497   2.162   1.190  11.957
11669TIP3    H156498   2.137   1.140  11.880
11669TIP3    H256499   2.247   1.229  11.933
11670TIP3   OH256500   4.652   0.883  17.045
11670TIP3    H156501   4.636   0.927  16.962
11670TIP3    H256502   4.718   0.816  17.026
11671TIP3   OH256503   0.189   0.915  16.509
11671TIP3    H156504   0.183   0.833  16.559
11671TIP3    H256505   0.279   0.945  16.524
11672TIP3   OH256506   1.004   6.001   4.869
11672TIP3    H156507   1.042   6.078   4.911
11672TIP3    H256508   0.911   6.023   4.860
11673TIP3   OH256509   6.159   6.748   5.207
11673TIP3    H156510   6.249   6.758   5.236
11673TIP3    H256511   6.106   6.773   5.283
11674TIP3   OH256512   5.107   6.369  17.113
11674TIP3    H156513   5.018   6.403  17.112
11674TIP3    H256514   5.123   6.344  17.204
11675TIP3   OH256515   3.910   1.464  11.621
11675TIP3    H156516   3.880   1.542  11.574
11675TIP3    H256517   3.874   1.391  11.571
11676TIP3   OH256518   3.906   2.457   3.512
11676TIP3    H156519   3.813   2.438   3.527
11676TIP3    H256520   3.923   2.423   3.424
11677TIP3   OH256521   6.591   4.160  15.774
11677TIP3    H156522   6.506   4.154  15.818
11677TIP3    H256523   6.650   4.109  15.830
11678TIP3   OH256524   4.535   2.485   5.546
11678TIP3    H156525   4.608   2.432   5.578
11678TIP3    H256526   4.565   2.517   5.461
11679TIP3   OH256527   0.204   6.224  12.762
11679TIP3    H156528   0.134   6.207  12.698
11679TIP3    H256529   0.177   6.304  12.806
11680TIP3   OH256530   4.247   5.594   0.712
11680TIP3    H156531   4.188   5.560   0.780
11680TIP3    H256532   4.255   5.687   0.732
11681TIP3   OH256533   2.427   3.937  13.150
11681TIP3    H156534   2.448   4.017  13.198
11681TIP3    H256535   2.477   3.868  13.194
11682TIP3   OH256536   2.279   4.243  16.410
11682TIP3    H156537   2.359   4.238  16.357
11682TIP3    H256538   2.211   4.268  16.347
11683TIP3   OH256539   5.362   1.663   1.548
11683TIP3    H156540   5.416   1.592   1.582
11683TIP3    H256541   5.335   1.632   1.461
11684TIP3   OH256542   4.577   1.707   5.321
11684TIP3    H156543   4.488   1.676   5.306
11684TIP3    H256544   4.591   1.693   5.415
11685TIP3   OH256545   5.527   5.389   1.316
11685TIP3    H156546   5.618   5.381   1.286
11685TIP3    H256547   5.531   5.452   1.388
11686TIP3   OH256548   1.657   5.274   5.798
11686TIP3    H156549   1.655   5.178   5.802
11686TIP3    H256550   1.575   5.302   5.836
11687TIP3   OH256551   2.025   1.733  11.688
11687TIP3    H156552   2.074   1.675  11.748
11687TIP3    H256553   1.993   1.674  11.620
11688TIP3   OH256554   6.690   3.548  11.077
11688TIP3    H156555   6.716   3.509  10.994
11688TIP3    H256556   6.743   3.628  11.083
11689TIP3   OH256557   1.612   0.849  13.256
11689TIP3    H156558   1.598   0.768  13.206
11689TIP3    H256559   1.547   0.847  13.325
11690TIP3   OH256560   2.940   2.275   2.273
11690TIP3    H156561   2.944   2.367   2.248
11690TIP3    H256562   2.874   2.272   2.343
11691TIP3   OH256563   5.626   5.519   3.859
11691TIP3    H156564   5.640   5.488   3.948
11691TIP3    H256565   5.594   5.443   3.811
11692TIP3   OH256566   3.226   4.877  14.596
11692TIP3    H156567   3.271   4.810  14.545
11692TIP3    H256568   3.133   4.860  14.581
11693TIP3   OH256569   5.497   4.127  13.105
11693TIP3    H156570   5.546   4.047  13.090
11693TIP3    H256571   5.437   4.133  13.031
11694TIP3   OH256572   0.115   3.528  14.151
11694TIP3    H156573   0.063   3.602  14.120
11694TIP3    H256574   0.203   3.543  14.117
11695TIP3   OH256575   0.522   1.212   2.472
11695TIP3    H156576   0.552   1.280   2.412
11695TIP3    H256577   0.578   1.221   2.549
11696TIP3   OH256578   0.215   2.468  15.951
11696TIP3    H156579   0.300   2.428  15.935
11696TIP3    H256580   0.154   2.417  15.898
11697TIP3   OH256581   6.304   5.465  17.186
11697TIP3    H156582   6.395   5.437  17.198
11697TIP3    H256583   6.274   5.415  17.110
11698TIP3   OH256584   1.038   5.364  16.081
11698TIP3    H156585   0.971   5.427  16.106
11698TIP3    H256586   1.029   5.293  16.144
11699TIP3   OH256587   0.154   6.015   2.519
11699TIP3    H156588   0.128   6.046   2.432
11699TIP3    H256589   0.249   6.001   2.511
11700TIP3   OH256590   2.577   4.431  12.990
11700TIP3    H156591   2.484   4.441  13.007
11700TIP3    H256592   2.586   4.345  12.950
11701TIP3   OH256593   6.207   2.515  14.137
11701TIP3    H156594   6.276   2.567  14.095
11701TIP3    H256595   6.164   2.576  14.197
11702TIP3   OH256596   0.149   4.015  13.611
11702TIP3    H156597   0.225   4.008  13.554
11702TIP3    H256598   0.184   4.045  13.695
11703TIP3   OH256599   5.016   2.592   1.330
11703TIP3    H156600   5.086   2.541   1.368
11703TIP3    H256601   5.007   2.668   1.387
11704TIP3   OH256602   1.946   1.061   5.576
11704TIP3    H156603   1.866   1.007   5.575
11704TIP3    H256604   2.002   1.019   5.641
11705TIP3   OH256605   0.307   6.071  13.333
11705TIP3    H156606   0.280   6.161  13.347
11705TIP3    H256607   0.295   6.057  13.239
11706TIP3   OH256608   6.735   0.028  13.515
11706TIP3    H156609   6.765   0.105  13.564
11706TIP3    H256610   6.798   0.020  13.443
11707TIP3   OH256611   1.845   0.459   1.512
11707TIP3    H156612   1.913   0.440   1.577
11707TIP3    H256613   1.882   0.531   1.460
11708TIP3   OH256614   3.001   5.689   3.761
11708TIP3    H156615   3.028   5.748   3.691
11708TIP3    H256616   2.950   5.745   3.821
11709TIP3   OH256617   1.102   6.220  16.448
11709TIP3    H156618   1.073   6.194  16.361
11709TIP3    H256619   1.032   6.191  16.507
11710TIP3   OH256620   3.638   2.199  11.579
11710TIP3    H156621   3.587   2.176  11.656
11710TIP3    H256622   3.582   2.258  11.529
11711TIP3   OH256623   0.469   6.163   2.188
11711TIP3    H156624   0.373   6.161   2.192
11711TIP3    H256625   0.495   6.195   2.275
11712TIP3   OH256626   5.239   6.663   3.822
11712TIP3    H156627   5.234   6.752   3.857
11712TIP3    H256628   5.325   6.631   3.848
11713TIP3   OH256629   5.772   0.938  13.195
11713TIP3    H156630   5.719   0.943  13.115
11713TIP3    H256631   5.729   0.997  13.256
11714TIP3   OH256632   0.624   0.574   4.121
11714TIP3    H156633   0.649   0.571   4.214
11714TIP3    H256634   0.553   0.511   4.113
11715TIP3   OH256635   0.137   5.797   2.807
11715TIP3    H156636   0.081   5.846   2.748
11715TIP3    H256637   0.113   5.705   2.793
11716TIP3   OH256638   2.525   3.238  11.293
11716TIP3    H156639   2.539   3.280  11.208
11716TIP3    H256640   2.482   3.156  11.272
11717TIP3   OH256641   6.089   1.884   3.984
11717TIP3    H156642   6.133   1.842   3.909
11717TIP3    H256643   6.094   1.819   4.054
11718TIP3   OH256644   6.324   1.197   5.672
11718TIP3    H156645   6.383   1.179   5.745
11718TIP3    H256646   6.343   1.287   5.647
11719TIP3   OH256647   3.568   4.717   4.501
11719TIP3    H156648   3.628   4.659   4.455
11719TIP3    H256649   3.525   4.768   4.432
11720TIP3   OH256650   0.868   6.819   3.267
11720TIP3    H156651   0.814   6.797   3.190
11720TIP3    H256652   0.950   6.849   3.230
11721TIP3   OH256653   3.283   4.645   0.251
11721TIP3    H156654   3.332   4.568   0.280
11721TIP3    H256655   3.201   4.640   0.300
11722TIP3   OH256656   0.020   1.014  12.736
11722TIP3    H156657   0.010   0.933  12.685
11722TIP3    H256658   0.073   1.071  12.680
11723TIP3   OH256659   2.567   2.252  16.793
11723TIP3    H156660   2.509   2.214  16.727
11723TIP3    H256661   2.650   2.204  16.782
11724TIP3   OH256662   3.253   6.585   0.909
11724TIP3    H156663   3.271   6.574   1.003
11724TIP3    H256664   3.170   6.538   0.896
11725TIP3   OH256665   3.257   3.463  12.578
11725TIP3    H156666   3.197   3.490  12.647
11725TIP3    H256667   3.203   3.416  12.515
11726TIP3   OH256668   0.123   6.746  16.819
11726TIP3    H156669   0.203   6.773  16.773
11726TIP3    H256670   0.096   6.824  16.867
11727TIP3   OH256671   6.602   2.020   2.126
11727TIP3    H156672   6.684   2.053   2.163
11727TIP3    H256673   6.541   2.093   2.133
11728TIP3   OH256674   6.353   6.196   1.664
11728TIP3    H156675   6.352   6.251   1.586
11728TIP3    H256676   6.321   6.111   1.634
11729TIP3   OH256677   1.503   5.373   3.918
11729TIP3    H156678   1.518   5.279   3.909
11729TIP3    H256679   1.472   5.384   4.008
11730TIP3   OH256680   0.472   4.017  14.298
11730TIP3    H156681   0.532   4.065  14.355
11730TIP3    H256682   0.528   3.971  14.236
11731TIP3   OH256683   3.760   3.127   5.266
11731TIP3    H156684   3.805   3.084   5.193
11731TIP3    H256685   3.728   3.056   5.320
11732TIP3   OH256686   0.414   3.804   2.890
11732TIP3    H156687   0.435   3.864   2.819
11732TIP3    H256688   0.497   3.762   2.911
11733TIP3   OH256689   5.741   1.608  14.625
11733TIP3    H156690   5.821   1.563  14.653
11733TIP3    H256691   5.772   1.692  14.591
11734TIP3   OH256692   0.087   6.618   4.549
11734TIP3    H156693   0.140   6.690   4.582
11734TIP3    H256694   0.013   6.659   4.506
11735TIP3   OH256695   5.074   1.199   1.579
11735TIP3    H156696   4.983   1.180   1.605
11735TIP3    H256697   5.101   1.121   1.531
11736TIP3   OH256698   6.498   3.968  10.875
11736TIP3    H156699   6.586   3.945  10.846
11736TIP3    H256700   6.445   3.892  10.853
11737TIP3   OH256701   2.011   0.485   2.508
11737TIP3    H156702   1.925   0.454   2.481
11737TIP3    H256703   2.057   0.406   2.538
11738TIP3   OH256704   2.774   6.216  15.691
11738TIP3    H156705   2.836   6.224  15.618
11738TIP3    H256706   2.699   6.268  15.664
11739TIP3   OH256707   1.580   2.434   6.778
11739TIP3    H156708   1.621   2.398   6.857
11739TIP3    H256709   1.510   2.372   6.756
11740TIP3   OH256710   0.276   4.700   4.691
11740TIP3    H156711   0.306   4.682   4.602
11740TIP3    H256712   0.230   4.621   4.717
11741TIP3   OH256713   3.342   2.137  14.465
11741TIP3    H156714   3.312   2.070  14.404
11741TIP3    H256715   3.298   2.217  14.435
11742TIP3   OH256716   0.499   5.737   1.987
11742TIP3    H156717   0.460   5.729   1.900
11742TIP3    H256718   0.452   5.672   2.040
11743TIP3   OH256719   2.145   5.779   3.846
11743TIP3    H156720   2.193   5.754   3.766
11743TIP3    H256721   2.213   5.812   3.905
11744TIP3   OH256722   6.345   5.340   5.822
11744TIP3    H156723   6.363   5.345   5.729
11744TIP3    H256724   6.250   5.328   5.828
11745TIP3   OH256725   3.076   2.573   2.578
11745TIP3    H156726   3.078   2.668   2.571
11745TIP3    H256727   3.128   2.542   2.504
11746TIP3   OH256728   2.690   1.880  13.958
11746TIP3    H156729   2.609   1.907  13.914
11746TIP3    H256730   2.701   1.788  13.932
11747TIP3   OH256731   1.542   4.419   1.012
11747TIP3    H156732   1.556   4.325   1.002
11747TIP3    H256733   1.449   4.427   1.033
11748TIP3   OH256734   5.312   5.595  16.564
11748TIP3    H156735   5.324   5.658  16.493
11748TIP3    H256736   5.400   5.572  16.591
11749TIP3   OH256737   4.454   4.427   1.482
11749TIP3    H156738   4.520   4.488   1.514
11749TIP3    H256739   4.371   4.474   1.494
11750TIP3   OH256740   6.474   4.616   2.723
11750TIP3    H156741   6.556   4.597   2.678
11750TIP3    H256742   6.499   4.628   2.815
11751TIP3   OH256743   2.928   0.268  13.697
11751TIP3    H156744   2.945   0.249  13.789
11751TIP3    H256745   2.969   0.195  13.650
11752TIP3   OH256746   5.912   6.165  15.796
11752TIP3    H156747   5.926   6.218  15.874
11752TIP3    H256748   5.950   6.216  15.725
11753TIP3   OH256749   2.757   3.232   5.053
11753TIP3    H156750   2.826   3.174   5.085
11753TIP3    H256751   2.690   3.173   5.018
11754TIP3   OH256752   4.472   2.249   2.386
11754TIP3    H156753   4.397   2.192   2.369
11754TIP3    H256754   4.435   2.324   2.431
11755TIP3   OH256755   0.690   2.649   5.500
11755TIP3    H156756   0.701   2.619   5.409
11755TIP3    H256757   0.759   2.714   5.512
11756TIP3   OH256758   3.162   6.162   2.611
11756TIP3    H156759   3.156   6.220   2.687
11756TIP3    H256760   3.251   6.126   2.614
11757TIP3   OH256761   4.592   0.209  16.846
11757TIP3    H156762   4.555   0.298  16.848
11757TIP3    H256763   4.648   0.205  16.923
11758TIP3   OH256764   6.446   3.649  11.166
11758TIP3    H156765   6.510   3.588  11.128
11758TIP3    H256766   6.477   3.736  11.141
11759TIP3   OH256767   6.642   4.097  12.239
11759TIP3    H156768   6.608   4.020  12.283
11759TIP3    H256769   6.683   4.064  12.159
11760TIP3   OH256770   1.606   0.275  11.716
11760TIP3    H156771   1.690   0.308  11.682
11760TIP3    H256772   1.596   0.318  11.801
11761TIP3   OH256773   3.803   5.972  17.027
11761TIP3    H156774   3.872   5.993  17.089
11761TIP3    H256775   3.837   5.899  16.976
11762TIP3   OH256776   2.229   3.114  17.113
11762TIP3    H156777   2.162   3.164  17.160
11762TIP3    H256778   2.179   3.053  17.058
11763TIP3   OH256779   2.713   3.088  15.868
11763TIP3    H156780   2.680   3.020  15.927
11763TIP3    H256781   2.636   3.141  15.848
11764TIP3   OH256782   1.535   2.325   0.369
11764TIP3    H156783   1.505   2.234   0.366
11764TIP3    H256784   1.549   2.343   0.462
11765TIP3   OH256785   5.996   0.670  14.540
11765TIP3    H156786   6.078   0.631  14.508
11765TIP3    H256787   5.940   0.676  14.462
11766TIP3   OH256788   0.254   3.926   4.611
11766TIP3    H156789   0.160   3.934   4.629
11766TIP3    H256790   0.291   3.890   4.692
11767TIP3   OH256791   4.711   4.061  14.877
11767TIP3    H156792   4.703   3.973  14.912
11767TIP3    H256793   4.687   4.052  14.784
11768TIP3   OH256794   1.190   2.261  14.301
11768TIP3    H156795   1.159   2.352  14.308
11768TIP3    H256796   1.121   2.217  14.252
11769TIP3   OH256797   2.828   4.932  10.590
11769TIP3    H156798   2.877   4.994  10.536
11769TIP3    H256799   2.788   4.872  10.527
11770TIP3   OH256800   2.638   0.665  13.472
11770TIP3    H156801   2.546   0.683  13.450
11770TIP3    H256802   2.659   0.587  13.422
11771TIP3   OH256803   3.642   0.741  10.646
11771TIP3    H156804   3.570   0.729  10.584
11771TIP3    H256805   3.720   0.747  10.590
11772TIP3   OH256806   6.300   4.153   3.798
11772TIP3    H156807   6.333   4.067   3.770
11772TIP3    H256808   6.228   4.171   3.737
11773TIP3   OH256809   0.738   3.954   4.903
11773TIP3    H156810   0.815   3.914   4.943
11773TIP3    H256811   0.736   4.043   4.940
11774TIP3   OH256812   1.506   0.631  13.122
11774TIP3    H156813   1.533   0.564  13.185
11774TIP3    H256814   1.413   0.645  13.141
11775TIP3   OH256815   6.212   1.419  12.692
11775TIP3    H156816   6.167   1.398  12.610
11775TIP3    H256817   6.225   1.514  12.689
11776TIP3   OH256818   1.898   3.372   1.125
11776TIP3    H156819   1.946   3.421   1.058
11776TIP3    H256820   1.910   3.422   1.205
11777TIP3   OH256821   1.870   2.316  14.670
11777TIP3    H156822   1.815   2.303  14.747
11777TIP3    H256823   1.922   2.394  14.691
11778TIP3   OH256824   5.212   1.320   0.510
11778TIP3    H156825   5.223   1.264   0.433
11778TIP3    H256826   5.214   1.409   0.475
11779TIP3   OH256827   1.831   0.643   0.570
11779TIP3    H156828   1.897   0.618   0.635
11779TIP3    H256829   1.881   0.686   0.501
11780TIP3   OH256830   5.504   6.240  14.492
11780TIP3    H156831   5.493   6.150  14.462
11780TIP3    H256832   5.581   6.236  14.549
11781TIP3   OH256833   2.224   3.491   0.709
11781TIP3    H156834   2.219   3.444   0.626
11781TIP3    H256835   2.273   3.432   0.767
11782TIP3   OH256836   6.659   4.766   2.210
11782TIP3    H156837   6.676   4.701   2.142
11782TIP3    H256838   6.676   4.720   2.292
11783TIP3   OH256839   1.953   6.234   1.853
11783TIP3    H156840   1.905   6.281   1.921
11783TIP3    H256841   1.970   6.148   1.892
11784TIP3   OH256842   2.810   4.740   5.033
11784TIP3    H156843   2.769   4.787   5.106
11784TIP3    H256844   2.871   4.679   5.075
11785TIP3   OH256845   3.290   0.422  10.715
11785TIP3    H156846   3.254   0.486  10.654
11785TIP3    H256847   3.217   0.361  10.731
11786TIP3   OH256848   2.446   2.090  16.270
11786TIP3    H156849   2.488   2.097  16.355
11786TIP3    H256850   2.510   2.045  16.215
11787TIP3   OH256851   5.790   5.395   5.947
11787TIP3    H156852   5.762   5.444   6.024
11787TIP3    H256853   5.712   5.346   5.920
11788TIP3   OH256854   1.225   3.404   5.340
11788TIP3    H156855   1.174   3.485   5.340
11788TIP3    H256856   1.175   3.343   5.394
11789TIP3   OH256857   3.231   2.892  15.753
11789TIP3    H156858   3.317   2.914  15.718
11789TIP3    H256859   3.191   2.976  15.775
11790TIP3   OH256860   5.526   2.872  16.061
11790TIP3    H156861   5.458   2.875  16.128
11790TIP3    H256862   5.481   2.844  15.982
11791TIP3   OH256863   0.744   0.207  13.975
11791TIP3    H156864   0.770   0.202  14.067
11791TIP3    H256865   0.659   0.252  13.977
11792TIP3   OH256866   1.620   3.266  14.373
11792TIP3    H156867   1.542   3.320  14.358
11792TIP3    H256868   1.589   3.194  14.428
11793TIP3   OH256869   0.794   1.544   5.802
11793TIP3    H156870   0.779   1.600   5.877
11793TIP3    H256871   0.861   1.589   5.751
11794TIP3   OH256872   5.203   5.737  16.339
11794TIP3    H156873   5.161   5.805  16.286
11794TIP3    H256874   5.155   5.658  16.319
11795TIP3   OH256875   2.881   0.834   2.802
11795TIP3    H156876   2.883   0.819   2.708
11795TIP3    H256877   2.821   0.769   2.836
11796TIP3   OH256878   1.210   1.280  15.898
11796TIP3    H156879   1.168   1.243  15.975
11796TIP3    H256880   1.242   1.205  15.849
11797TIP3   OH256881   3.167   6.457  11.424
11797TIP3    H156882   3.213   6.484  11.503
11797TIP3    H256883   3.232   6.467  11.354
11798TIP3   OH256884   2.795   5.868  11.967
11798TIP3    H156885   2.833   5.932  12.027
11798TIP3    H256886   2.791   5.914  11.883
11799TIP3   OH256887   0.867   5.139   4.715
11799TIP3    H156888   0.907   5.099   4.792
11799TIP3    H256889   0.850   5.229   4.741
11800TIP3   OH256890   6.812   6.370   5.518
11800TIP3    H156891   6.777   6.293   5.474
11800TIP3    H256892   6.734   6.416   5.551
11801TIP3   OH256893   5.997   5.490   0.413
11801TIP3    H156894   5.993   5.491   0.509
11801TIP3    H256895   5.930   5.428   0.386
11802TIP3   OH256896   0.608   6.766   1.813
11802TIP3    H156897   0.561   6.689   1.781
11802TIP3    H256898   0.673   6.783   1.745
11803TIP3   OH256899   1.569   0.837  12.894
11803TIP3    H156900   1.519   0.775  12.947
11803TIP3    H256901   1.582   0.913  12.951
11804TIP3   OH256902   2.884   0.087   1.738
11804TIP3    H156903   2.815   0.153   1.730
11804TIP3    H256904   2.842   0.004   1.716
11805TIP3   OH256905   2.328   2.492   2.706
11805TIP3    H156906   2.274   2.452   2.638
11805TIP3    H256907   2.409   2.440   2.707
11806TIP3   OH256908   1.865   3.634  14.231
11806TIP3    H156909   1.831   3.553  14.194
11806TIP3    H256910   1.924   3.606  14.301
11807TIP3   OH256911   5.901   4.149  16.380
11807TIP3    H156912   5.985   4.194  16.369
11807TIP3    H256913   5.883   4.155  16.474
11808TIP3   OH256914   6.564   2.179   0.382
11808TIP3    H156915   6.574   2.245   0.450
11808TIP3    H256916   6.478   2.140   0.399
11809TIP3   OH256917   3.832   6.710  14.136
11809TIP3    H156918   3.826   6.624  14.094
11809TIP3    H256919   3.919   6.711  14.176
11810TIP3   OH256920   4.923   4.250  10.880
11810TIP3    H156921   4.880   4.236  10.795
11810TIP3    H256922   4.866   4.313  10.925
11811TIP3   OH256923   5.346   0.086   0.718
11811TIP3    H156924   5.386   0.001   0.736
11811TIP3    H256925   5.279   0.067   0.652
11812TIP3   OH256926   0.301   2.056  11.375
11812TIP3    H156927   0.213   2.052  11.413
11812TIP3    H256928   0.300   2.136  11.322
11813TIP3   OH256929   1.678   6.477  11.175
11813TIP3    H156930   1.733   6.461  11.252
11813TIP3    H256931   1.596   6.431  11.194
11814TIP3   OH256932   2.491   3.261  13.936
11814TIP3    H156933   2.450   3.339  13.972
11814TIP3    H256934   2.566   3.294  13.886
11815TIP3   OH256935   6.549   1.724   3.202
11815TIP3    H156936   6.508   1.707   3.287
11815TIP3    H256937   6.553   1.820   3.196
11816TIP3   OH256938   4.501   2.234  11.427
11816TIP3    H156939   4.539   2.155  11.388
11816TIP3    H256940   4.438   2.201  11.492
11817TIP3   OH256941   6.256   4.365   4.763
11817TIP3    H156942   6.288   4.275   4.757
11817TIP3    H256943   6.168   4.358   4.799
11818TIP3   OH256944   5.111   1.264  16.960
11818TIP3    H156945   5.184   1.299  16.910
11818TIP3    H256946   5.081   1.189  16.908
11819TIP3   OH256947   3.018   3.198   5.725
11819TIP3    H156948   3.070   3.267   5.684
11819TIP3    H256949   2.990   3.235   5.808
11820TIP3   OH256950   5.214   6.552   0.889
11820TIP3    H156951   5.286   6.515   0.839
11820TIP3    H256952   5.137   6.505   0.859
11821TIP3   OH256953   2.747   0.732  15.365
11821TIP3    H156954   2.835   0.701  15.343
11821TIP3    H256955   2.744   0.822  15.332
11822TIP3   OH256956   2.328   4.869  12.485
11822TIP3    H156957   2.356   4.951  12.525
11822TIP3    H256958   2.234   4.881  12.470
11823TIP3   OH256959   3.433   4.629   0.010
11823TIP3    H156960   3.352   4.642   0.060
11823TIP3    H256961   3.500   4.673   0.062
11824TIP3   OH256962   6.399   5.105  15.071
11824TIP3    H156963   6.486   5.101  15.112
11824TIP3    H256964   6.348   5.161  15.129
11825TIP3   OH256965   2.996   5.660  13.268
11825TIP3    H156966   3.064   5.715  13.308
11825TIP3    H256967   2.925   5.658  13.332
11826TIP3   OH256968   2.653   6.610  13.805
11826TIP3    H156969   2.609   6.645  13.728
11826TIP3    H256970   2.595   6.540  13.837
11827TIP3   OH256971   0.728   5.391  11.793
11827TIP3    H156972   0.677   5.471  11.806
11827TIP3    H256973   0.813   5.421  11.760
11828TIP3   OH256974   0.857   2.602  16.026
11828TIP3    H156975   0.900   2.653  15.957
11828TIP3    H256976   0.915   2.527  16.040
11829TIP3   OH256977   3.959   2.807  12.050
11829TIP3    H156978   3.918   2.867  12.111
11829TIP3    H256979   3.982   2.861  11.974
11830TIP3   OH256980   3.361   5.186  12.393
11830TIP3    H156981   3.382   5.096  12.366
11830TIP3    H256982   3.287   5.211  12.339
11831TIP3   OH256983   5.379   4.260  15.192
11831TIP3    H156984   5.451   4.312  15.229
11831TIP3    H256985   5.421   4.207  15.124
11832TIP3   OH256986   4.809   2.881  15.031
11832TIP3    H156987   4.779   2.797  14.997
11832TIP3    H256988   4.732   2.937  15.029
11833TIP3   OH256989   2.650   6.044  11.751
11833TIP3    H156990   2.573   6.001  11.714
11833TIP3    H256991   2.636   6.137  11.735
11834TIP3   OH256992   1.255   5.396   2.377
11834TIP3    H156993   1.253   5.381   2.283
11834TIP3    H256994   1.251   5.308   2.415
11835TIP3   OH256995   0.717   3.589  14.035
11835TIP3    H156996   0.656   3.563  13.966
11835TIP3    H256997   0.722   3.684  14.029
11836TIP3   OH256998   3.987   2.017   4.696
11836TIP3    H156999   4.005   1.991   4.605
11836TIP3    H257000   4.004   1.938   4.747
11837TIP3   OH257001   6.059   2.386  15.597
11837TIP3    H157002   6.064   2.332  15.677
11837TIP3    H257003   6.147   2.379  15.559
11838TIP3   OH257004   6.526   2.537  12.617
11838TIP3    H157005   6.447   2.572  12.660
11838TIP3    H257006   6.558   2.610  12.563
11839TIP3   OH257007   2.173   5.606   0.490
11839TIP3    H157008   2.094   5.555   0.508
11839TIP3    H257009   2.243   5.559   0.535
11840TIP3   OH257010   5.468   6.533  17.169
11840TIP3    H157011   5.535   6.466  17.182
11840TIP3    H257012   5.417   6.533  17.250
11841TIP3   OH257013   5.557   6.325   4.436
11841TIP3    H157014   5.534   6.324   4.529
11841TIP3    H257015   5.549   6.416   4.410
11842TIP3   OH257016   4.438   3.871  17.146
11842TIP3    H157017   4.468   3.781  17.134
11842TIP3    H257018   4.380   3.867  17.221
11843TIP3   OH257019   6.183   1.880  12.234
11843TIP3    H157020   6.274   1.852  12.238
11843TIP3    H257021   6.185   1.973  12.256
11844TIP3   OH257022   2.168   0.911   2.676
11844TIP3    H157023   2.099   0.977   2.666
11844TIP3    H257024   2.227   0.947   2.742
11845TIP3   OH257025   1.914   5.532  13.636
11845TIP3    H157026   1.914   5.436  13.645
11845TIP3    H257027   1.834   5.560  13.681
11846TIP3   OH257028   5.104   0.129  14.796
11846TIP3    H157029   5.113   0.188  14.871
11846TIP3    H257030   5.060   0.052  14.831
11847TIP3   OH257031   5.772   3.227   5.119
11847TIP3    H157032   5.765   3.320   5.141
11847TIP3    H257033   5.744   3.181   5.198
11848TIP3   OH257034   6.705   5.025  15.796
11848TIP3    H157035   6.788   5.006  15.751
11848TIP3    H257036   6.693   4.950  15.855
11849TIP3   OH257037   6.754   6.240  15.309
11849TIP3    H157038   6.823   6.235  15.376
11849TIP3    H257039   6.697   6.166  15.327
11850TIP3   OH257040   1.660   5.884  14.327
11850TIP3    H157041   1.692   5.837  14.251
11850TIP3    H257042   1.569   5.854  14.337
11851TIP3   OH257043   5.148   3.015  11.693
11851TIP3    H157044   5.178   2.988  11.779
11851TIP3    H257045   5.053   3.026  11.703
11852TIP3   OH257046   2.932   2.617  15.136
11852TIP3    H157047   2.956   2.685  15.072
11852TIP3    H257048   3.001   2.552  15.128
11853TIP3   OH257049   5.841   6.135  15.350
11853TIP3    H157050   5.815   6.050  15.386
11853TIP3    H257051   5.760   6.175  15.320
11854TIP3   OH257052   0.989   5.304   3.023
11854TIP3    H157053   1.015   5.390   3.057
11854TIP3    H257054   0.931   5.268   3.090
11855TIP3   OH257055   4.204   0.653   4.659
11855TIP3    H157056   4.228   0.728   4.714
11855TIP3    H257057   4.248   0.579   4.699
11856TIP3   OH257058   1.295   3.202   4.080
11856TIP3    H157059   1.280   3.112   4.109
11856TIP3    H257060   1.389   3.216   4.092
11857TIP3   OH257061   3.906   1.240  15.117
11857TIP3    H157062   3.815   1.263  15.135
11857TIP3    H257063   3.956   1.313  15.154
11858TIP3   OH257064   3.090   4.736   5.891
11858TIP3    H157065   3.088   4.678   5.967
11858TIP3    H257066   3.036   4.692   5.826
11859TIP3   OH257067   2.169   4.280  13.275
11859TIP3    H157068   2.148   4.304  13.185
11859TIP3    H257069   2.145   4.188  13.282
11860TIP3   OH257070   4.311   0.536  15.414
11860TIP3    H157071   4.281   0.446  15.401
11860TIP3    H257072   4.309   0.547  15.509
11861TIP3   OH257073   0.068   6.173   2.717
11861TIP3    H157074   0.050   6.258   2.678
11861TIP3    H257075   0.103   6.120   2.644
11862TIP3   OH257076   1.989   2.257  11.595
11862TIP3    H157077   1.936   2.183  11.627
11862TIP3    H257078   2.078   2.236  11.623
11863TIP3   OH257079   2.364   5.421  16.164
11863TIP3    H157080   2.300   5.450  16.099
11863TIP3    H257081   2.314   5.368  16.226
11864TIP3   OH257082   2.195   3.488  17.273
11864TIP3    H157083   2.170   3.398  17.294
11864TIP3    H257084   2.114   3.538  17.278
11865TIP3   OH257085   5.151   0.936   1.483
11865TIP3    H157086   5.130   0.857   1.432
11865TIP3    H257087   5.184   0.903   1.567
11866TIP3   OH257088   4.671   4.960   0.998
11866TIP3    H157089   4.741   4.914   1.044
11866TIP3    H257090   4.596   4.902   1.005
11867TIP3   OH257091   2.533   1.626  16.473
11867TIP3    H157092   2.498   1.661  16.392
11867TIP3    H257093   2.574   1.543  16.448
11868TIP3   OH257094   3.437   2.425  14.236
11868TIP3    H157095   3.351   2.429  14.278
11868TIP3    H257096   3.418   2.423  14.142
11869TIP3   OH257097   6.078   1.185  15.698
11869TIP3    H157098   6.145   1.221  15.640
11869TIP3    H257099   6.087   1.090  15.688
11870TIP3   OH257100   2.533   4.667  16.269
11870TIP3    H157101   2.438   4.656  16.271
11870TIP3    H257102   2.566   4.602  16.331
11871TIP3   OH257103   3.772   3.440  14.755
11871TIP3    H157104   3.848   3.424  14.699
11871TIP3    H257105   3.788   3.527  14.792
11872TIP3   OH257106   3.586   0.244  15.758
11872TIP3    H157107   3.681   0.257  15.765
11872TIP3    H257108   3.562   0.204  15.842
11873TIP3   OH257109   0.794   6.550   0.026
11873TIP3    H157110   0.812   6.543  -0.068
11873TIP3    H257111   0.856   6.616   0.057
11874TIP3   OH257112   5.429   6.571  15.049
11874TIP3    H157113   5.394   6.649  15.005
11874TIP3    H257114   5.470   6.604  15.128
11875TIP3   OH257115   4.218   3.258  13.305
11875TIP3    H157116   4.234   3.348  13.334
11875TIP3    H257117   4.306   3.223  13.289
11876TIP3   OH257118   4.346   3.739  16.690
11876TIP3    H157119   4.329   3.787  16.609
11876TIP3    H257120   4.276   3.766  16.750
11877TIP3   OH257121   4.446   0.073   1.963
11877TIP3    H157122   4.523   0.070   2.019
11877TIP3    H257123   4.468   0.137   1.895
11878TIP3   OH257124   4.903   3.249   1.413
11878TIP3    H157125   4.851   3.264   1.333
11878TIP3    H257126   4.985   3.295   1.397
11879TIP3   OH257127   5.728   5.422   2.251
11879TIP3    H157128   5.697   5.337   2.284
11879TIP3    H257129   5.659   5.484   2.274
11880TIP3   OH257130   4.079   2.840  14.710
11880TIP3    H157131   4.035   2.770  14.662
11880TIP3    H257132   4.025   2.917  14.693
11881TIP3   OH257133   2.749   2.117   5.585
11881TIP3    H157134   2.836   2.081   5.567
11881TIP3    H257135   2.721   2.071   5.665
11882TIP3   OH257136   3.024   2.648  16.158
11882TIP3    H157137   2.941   2.602  16.150
11882TIP3    H257138   3.035   2.661  16.253
11883TIP3   OH257139   0.282   5.606   0.908
11883TIP3    H157140   0.214   5.554   0.952
11883TIP3    H257141   0.321   5.657   0.979
11884TIP3   OH257142   1.406   2.240  13.728
11884TIP3    H157143   1.424   2.304  13.797
11884TIP3    H257144   1.492   2.219  13.692
11885TIP3   OH257145   1.288   4.986   2.663
11885TIP3    H157146   1.348   4.996   2.737
11885TIP3    H257147   1.209   5.033   2.689
11886TIP3   OH257148   1.643   1.894   1.754
11886TIP3    H157149   1.702   1.958   1.793
11886TIP3    H257150   1.701   1.835   1.705
11887TIP3   OH257151   0.877   4.539  16.532
11887TIP3    H157152   0.943   4.585  16.481
11887TIP3    H257153   0.823   4.608  16.569
11888TIP3   OH257154   4.544   2.126   0.072
11888TIP3    H157155   4.509   2.051   0.024
11888TIP3    H257156   4.535   2.103   0.164
11889TIP3   OH257157   4.924   3.121  12.147
11889TIP3    H157158   4.866   3.055  12.109
11889TIP3    H257159   4.962   3.079  12.224
11890TIP3   OH257160   1.633   2.439  13.338
11890TIP3    H157161   1.640   2.519  13.389
11890TIP3    H257162   1.721   2.402  13.338
11891TIP3   OH257163   3.430   2.305   1.568
11891TIP3    H157164   3.486   2.369   1.524
11891TIP3    H257165   3.465   2.220   1.543
11892TIP3   OH257166   0.467   1.085   4.378
11892TIP3    H157167   0.528   1.036   4.433
11892TIP3    H257168   0.462   1.171   4.418
11893TIP3   OH257169   1.287   5.316  13.620
11893TIP3    H157170   1.195   5.334  13.600
11893TIP3    H257171   1.291   5.220  13.625
11894TIP3   OH257172   2.564   0.246   1.251
11894TIP3    H157173   2.646   0.216   1.289
11894TIP3    H257174   2.531   0.312   1.311
11895TIP3   OH257175   5.819   4.287   5.659
11895TIP3    H157176   5.889   4.348   5.637
11895TIP3    H257177   5.860   4.221   5.715
11896TIP3   OH257178   1.029   3.293  12.117
11896TIP3    H157179   0.977   3.320  12.193
11896TIP3    H257180   0.967   3.296  12.043
11897TIP3   OH257181   2.578   2.810  11.448
11897TIP3    H157182   2.495   2.773  11.476
11897TIP3    H257183   2.580   2.795  11.354
11898TIP3   OH257184   2.671   6.247   6.838
11898TIP3    H157185   2.711   6.332   6.857
11898TIP3    H257186   2.741   6.197   6.795
11899TIP3   OH257187   6.397   5.160  13.924
11899TIP3    H157188   6.313   5.166  13.878
11899TIP3    H257189   6.436   5.079  13.892
11900TIP3   OH257190   5.053   0.109  15.717
11900TIP3    H157191   5.101   0.107  15.800
11900TIP3    H257192   5.008   0.024  15.714
11901TIP3   OH257193   0.147   0.734  16.724
11901TIP3    H157194   0.224   0.703  16.773
11901TIP3    H257195   0.126   0.818  16.764
11902TIP3   OH257196   6.026   4.054   0.126
11902TIP3    H157197   6.117   4.085   0.125
11902TIP3    H257198   5.989   4.092   0.206
11903TIP3   OH257199   2.364   4.692  13.867
11903TIP3    H157200   2.328   4.773  13.902
11903TIP3    H257201   2.378   4.710  13.774
11904TIP3   OH257202   2.645   6.097   3.049
11904TIP3    H157203   2.727   6.141   3.074
11904TIP3    H257204   2.668   6.005   3.043
11905TIP3   OH257205   1.669   4.166  15.485
11905TIP3    H157206   1.663   4.189  15.578
11905TIP3    H257207   1.583   4.188  15.449
11906TIP3   OH257208   2.989   0.257  14.909
11906TIP3    H157209   2.918   0.308  14.870
11906TIP3    H257210   3.050   0.323  14.942
11907TIP3   OH257211   4.894   6.227   4.588
11907TIP3    H157212   4.911   6.259   4.499
11907TIP3    H257213   4.839   6.295   4.628
11908TIP3   OH257214   1.759   0.937   2.382
11908TIP3    H157215   1.807   0.866   2.340
11908TIP3    H257216   1.793   1.017   2.342
11909TIP3   OH257217   6.122   4.300   3.330
11909TIP3    H157218   6.181   4.376   3.327
11909TIP3    H257219   6.042   4.329   3.287
11910TIP3   OH257220   1.805   6.383   1.296
11910TIP3    H157221   1.733   6.442   1.315
11910TIP3    H257222   1.860   6.386   1.374
11911TIP3   OH257223   2.744   1.802  14.975
11911TIP3    H157224   2.771   1.878  14.922
11911TIP3    H257225   2.686   1.839  15.041
11912TIP3   OH257226   2.115   1.523  11.846
11912TIP3    H157227   2.057   1.447  11.837
11912TIP3    H257228   2.201   1.491  11.819
11913TIP3   OH257229   5.570   4.510  14.888
11913TIP3    H157230   5.617   4.462  14.820
11913TIP3    H257231   5.636   4.528  14.955
11914TIP3   OH257232   5.350   5.694  17.202
11914TIP3    H157233   5.421   5.662  17.146
11914TIP3    H257234   5.296   5.617  17.219
11915TIP3   OH257235   6.421   6.553   4.972
11915TIP3    H157236   6.404   6.562   5.066
11915TIP3    H257237   6.413   6.642   4.938
11916TIP3   OH257238   0.496   0.151   0.308
11916TIP3    H157239   0.544   0.076   0.343
11916TIP3    H257240   0.462   0.195   0.386
11917TIP3   OH257241   6.469   4.361  14.817
11917TIP3    H157242   6.487   4.270  14.793
11917TIP3    H257243   6.545   4.388  14.868
11918TIP3   OH257244   0.231   2.777   1.680
11918TIP3    H157245   0.271   2.703   1.635
11918TIP3    H257246   0.305   2.827   1.714
11919TIP3   OH257247   3.660   6.442   4.386
11919TIP3    H157248   3.725   6.418   4.451
11919TIP3    H257249   3.647   6.363   4.334
11920TIP3   OH257250   5.225   4.453  14.298
11920TIP3    H157251   5.169   4.386  14.337
11920TIP3    H257252   5.312   4.414  14.299
11921TIP3   OH257253   0.624   1.553   2.656
11921TIP3    H157254   0.588   1.636   2.689
11921TIP3    H257255   0.713   1.550   2.691
11922TIP3   OH257256   4.262   0.651   5.084
11922TIP3    H157257   4.184   0.674   5.034
11922TIP3    H257258   4.325   0.720   5.063
11923TIP3   OH257259   5.803   2.803   5.466
11923TIP3    H157260   5.732   2.766   5.518
11923TIP3    H257261   5.879   2.801   5.524
11924TIP3   OH257262   1.854   4.644   2.523
11924TIP3    H157263   1.886   4.711   2.462
11924TIP3    H257264   1.884   4.561   2.485
11925TIP3   OH257265   5.288   6.688  16.405
11925TIP3    H157266   5.233   6.650  16.336
11925TIP3    H257267   5.312   6.613  16.460
11926TIP3   OH257268   0.993   2.350  16.072
11926TIP3    H157269   0.936   2.358  16.148
11926TIP3    H257270   1.061   2.288  16.099
11927TIP3   OH257271   2.111   0.286  11.079
11927TIP3    H157272   2.134   0.248  10.994
11927TIP3    H257273   2.185   0.342  11.101
11928TIP3   OH257274   5.419   1.884   4.103
11928TIP3    H157275   5.349   1.858   4.163
11928TIP3    H257276   5.436   1.976   4.125
11929TIP3   OH257277   6.340   2.657   5.143
11929TIP3    H157278   6.420   2.619   5.180
11929TIP3    H257279   6.370   2.723   5.081
11930TIP3   OH257280   4.058   0.978  11.225
11930TIP3    H157281   4.125   1.009  11.165
11930TIP3    H257282   4.003   0.920  11.172
11931TIP3   OH257283   5.004   2.747  17.220
11931TIP3    H157284   4.992   2.656  17.248
11931TIP3    H257285   5.090   2.749  17.179
11932TIP3   OH257286   6.509   3.619   0.569
11932TIP3    H157287   6.431   3.585   0.525
11932TIP3    H257288   6.558   3.664   0.499
11933TIP3   OH257289   2.385   2.840   4.595
11933TIP3    H157290   2.357   2.748   4.592
11933TIP3    H257291   2.408   2.856   4.686
11934TIP3   OH257292   6.803   2.060   5.387
11934TIP3    H157293   6.867   2.031   5.452
11934TIP3    H257294   6.827   2.013   5.307
11935TIP3   OH257295   0.331   3.929  16.311
11935TIP3    H157296   0.315   3.845  16.267
11935TIP3    H257297   0.324   3.994  16.241
11936TIP3   OH257298   3.848   5.614   3.759
11936TIP3    H157299   3.824   5.522   3.752
11936TIP3    H257300   3.778   5.653   3.811
11937TIP3   OH257301   4.531   6.188   0.801
11937TIP3    H157302   4.471   6.254   0.765
11937TIP3    H257303   4.524   6.114   0.740
11938TIP3   OH257304   0.362   6.760  13.940
11938TIP3    H157305   0.451   6.777  13.910
11938TIP3    H257306   0.368   6.678  13.988
11939TIP3   OH257307   0.927   2.459  13.054
11939TIP3    H157308   0.967   2.373  13.071
11939TIP3    H257309   0.898   2.454  12.963
11940TIP3   OH257310   3.179   5.539   2.846
11940TIP3    H157311   3.095   5.575   2.819
11940TIP3    H257312   3.160   5.448   2.869
11941TIP3   OH257313   5.035   0.472   0.313
11941TIP3    H157314   5.045   0.554   0.265
11941TIP3    H257315   5.089   0.482   0.391
11942TIP3   OH257316   6.785   1.718   4.941
11942TIP3    H157317   6.781   1.711   4.845
11942TIP3    H257318   6.873   1.690   4.964
11943TIP3   OH257319   0.397   0.114   1.819
11943TIP3    H157320   0.447   0.196   1.816
11943TIP3    H257321   0.463   0.045   1.810
11944TIP3   OH257322   2.846   4.307   4.161
11944TIP3    H157323   2.909   4.315   4.233
11944TIP3    H257324   2.765   4.341   4.197
11945TIP3   OH257325   4.833   4.550  16.061
11945TIP3    H157326   4.897   4.489  16.099
11945TIP3    H257327   4.886   4.623  16.030
11946TIP3   OH257328   5.484   2.347  13.769
11946TIP3    H157329   5.452   2.287  13.702
11946TIP3    H257330   5.528   2.416  13.720
11947TIP3   OH257331   4.510   5.199  14.832
11947TIP3    H157332   4.584   5.194  14.772
11947TIP3    H257333   4.525   5.279  14.882
11948TIP3   OH257334   0.868   1.561   5.304
11948TIP3    H157335   0.823   1.477   5.314
11948TIP3    H257336   0.799   1.623   5.280
11949TIP3   OH257337   4.793   5.614   0.276
11949TIP3    H157338   4.771   5.631   0.184
11949TIP3    H257339   4.733   5.671   0.325
11950TIP3   OH257340   0.923   6.520   6.523
11950TIP3    H157341   0.896   6.475   6.603
11950TIP3    H257342   0.938   6.450   6.460
11951TIP3   OH257343   1.862   1.866   2.231
11951TIP3    H157344   1.785   1.908   2.192
11951TIP3    H257345   1.901   1.816   2.159
11952TIP3   OH257346   2.498   0.277  16.997
11952TIP3    H157347   2.498   0.353  16.939
11952TIP3    H257348   2.410   0.275  17.034
11953TIP3   OH257349   3.049   0.836  16.038
11953TIP3    H157350   3.109   0.870  16.104
11953TIP3    H257351   3.068   0.887  15.959
11954TIP3   OH257352   1.893   4.045  16.625
11954TIP3    H157353   1.806   4.045  16.664
11954TIP3    H257354   1.882   4.085  16.539
11955TIP3   OH257355   3.448   3.083  13.185
11955TIP3    H157356   3.435   3.125  13.270
11955TIP3    H257357   3.360   3.073  13.149
11956TIP3   OH257358   4.357   5.863  15.746
11956TIP3    H157359   4.267   5.847  15.716
11956TIP3    H257360   4.354   5.847  15.840
11957TIP3   OH257361   4.895   1.827   4.185
11957TIP3    H157362   4.826   1.761   4.182
11957TIP3    H257363   4.949   1.809   4.108
11958TIP3   OH257364   1.939   3.790   3.663
11958TIP3    H157365   1.926   3.876   3.623
11958TIP3    H257366   2.018   3.800   3.716
11959TIP3   OH257367   5.284   1.448   0.024
11959TIP3    H157368   5.203   1.418  -0.018
11959TIP3    H257369   5.262   1.535   0.058
11960TIP3   OH257370   6.185   2.383   2.303
11960TIP3    H157371   6.120   2.364   2.236
11960TIP3    H257372   6.250   2.437   2.259
11961TIP3   OH257373   2.970   2.743   1.282
11961TIP3    H157374   2.904   2.767   1.218
11961TIP3    H257375   3.044   2.711   1.230
11962TIP3   OH257376   4.130   4.849   2.503
11962TIP3    H157377   4.132   4.941   2.476
11962TIP3    H257378   4.100   4.802   2.425
11963TIP3   OH257379   4.992   2.624   3.900
11963TIP3    H157380   5.008   2.533   3.875
11963TIP3    H257381   5.006   2.625   3.995
11964TIP3   OH257382   2.660   5.454  13.632
11964TIP3    H157383   2.731   5.486  13.687
11964TIP3    H257384   2.582   5.462  13.687
11965TIP3   OH257385   0.493   4.105  15.443
11965TIP3    H157386   0.503   4.148  15.528
11965TIP3    H257387   0.578   4.066  15.426
11966TIP3   OH257388   4.286   5.434   0.478
11966TIP3    H157389   4.266   5.502   0.542
11966TIP3    H257390   4.265   5.352   0.523
11967TIP3   OH257391   4.886   3.212   1.894
11967TIP3    H157392   4.833   3.271   1.947
11967TIP3    H257393   4.925   3.268   1.827
11968TIP3   OH257394   1.893   5.198  13.036
11968TIP3    H157395   1.821   5.145  13.068
11968TIP3    H257396   1.960   5.135  13.011
11969TIP3   OH257397   5.773   3.502  11.411
11969TIP3    H157398   5.782   3.441  11.338
11969TIP3    H257399   5.859   3.545  11.416
11970TIP3   OH257400   5.664   4.938  16.468
11970TIP3    H157401   5.719   4.938  16.390
11970TIP3    H257402   5.583   4.896  16.440
11971TIP3   OH257403   2.856   3.441   3.277
11971TIP3    H157404   2.893   3.408   3.358
11971TIP3    H257405   2.832   3.362   3.228
11972TIP3   OH257406   0.736   4.268   3.027
11972TIP3    H157407   0.647   4.257   3.060
11972TIP3    H257408   0.786   4.299   3.103
11973TIP3   OH257409   5.983   6.266   0.950
11973TIP3    H157410   5.891   6.292   0.951
11973TIP3    H257411   6.028   6.340   0.910
11974TIP3   OH257412   2.256   6.041   4.655
11974TIP3    H157413   2.244   6.108   4.588
11974TIP3    H257414   2.269   5.960   4.606
11975TIP3   OH257415   5.645   4.379  13.892
11975TIP3    H157416   5.739   4.374  13.909
11975TIP3    H257417   5.634   4.334  13.808
11976TIP3   OH257418   2.294   0.690   2.499
11976TIP3    H157419   2.371   0.663   2.549
11976TIP3    H257420   2.311   0.657   2.411
11977TIP3   OH257421   3.968   5.629  15.649
11977TIP3    H157422   3.915   5.561  15.692
11977TIP3    H257423   3.929   5.638  15.562
11978TIP3   OH257424   2.189   2.651   4.768
11978TIP3    H157425   2.159   2.572   4.812
11978TIP3    H257426   2.152   2.645   4.680
11979TIP3   OH257427   1.663   6.791   5.233
11979TIP3    H157428   1.596   6.812   5.169
11979TIP3    H257429   1.703   6.711   5.199
11980TIP3   OH257430   5.695   0.849   2.801
11980TIP3    H157431   5.659   0.769   2.763
11980TIP3    H257432   5.787   0.829   2.819
11981TIP3   OH257433   5.601   2.037   4.819
11981TIP3    H157434   5.666   2.078   4.878
11981TIP3    H257435   5.519   2.082   4.839
11982TIP3   OH257436   2.483   0.096  16.266
11982TIP3    H157437   2.435   0.102  16.184
11982TIP3    H257438   2.431   0.148  16.328
11983TIP3   OH257439   1.510   3.463  12.325
11983TIP3    H157440   1.502   3.399  12.396
11983TIP3    H257441   1.427   3.457  12.278
11984TIP3   OH257442   6.757   2.967  11.291
11984TIP3    H157443   6.788   2.893  11.343
11984TIP3    H257444   6.677   2.995  11.335
11985TIP3   OH257445   3.170   4.716  13.659
11985TIP3    H157446   3.124   4.799  13.672
11985TIP3    H257447   3.105   4.650  13.681
11986TIP3   OH257448   5.283   6.359  15.838
11986TIP3    H157449   5.319   6.394  15.757
11986TIP3    H257450   5.193   6.392  15.842
11987TIP3   OH257451   2.312   1.425  15.662
11987TIP3    H157452   2.242   1.486  15.684
11987TIP3    H257453   2.275   1.371  15.591
11988TIP3   OH257454   5.550   2.488  12.398
11988TIP3    H157455   5.550   2.396  12.424
11988TIP3    H257456   5.640   2.516  12.413
11989TIP3   OH257457   0.017   5.524  15.484
11989TIP3    H157458  -0.018   5.612  15.466
11989TIP3    H257459  -0.044   5.487  15.548
11990TIP3   OH257460   1.733   2.064   0.509
11990TIP3    H157461   1.696   1.995   0.564
11990TIP3    H257462   1.674   2.070   0.433
11991TIP3   OH257463   2.747   4.975   1.805
11991TIP3    H157464   2.677   4.924   1.845
11991TIP3    H257465   2.703   5.027   1.738
11992TIP3   OH257466   0.384   3.940   0.428
11992TIP3    H157467   0.427   3.856   0.412
11992TIP3    H257468   0.294   3.917   0.450
11993TIP3   OH257469   4.249   4.539   2.743
11993TIP3    H157470   4.222   4.627   2.769
11993TIP3    H257471   4.203   4.523   2.661
11994TIP3   OH257472   2.731   0.184  16.363
11994TIP3    H157473   2.652   0.130  16.357
11994TIP3    H257474   2.718   0.254  16.299
11995TIP3   OH257475   2.271   4.920  13.988
11995TIP3    H157476   2.177   4.933  13.976
11995TIP3    H257477   2.281   4.899  14.081
11996TIP3   OH257478   4.815   2.872   4.615
11996TIP3    H157479   4.741   2.862   4.555
11996TIP3    H257480   4.821   2.966   4.629
11997TIP3   OH257481   5.546   1.044  14.421
11997TIP3    H157482   5.512   1.045  14.332
11997TIP3    H257483   5.504   0.969  14.463
11998TIP3   OH257484   4.120   4.315  10.907
11998TIP3    H157485   4.206   4.338  10.943
11998TIP3    H257486   4.110   4.371  10.830
11999TIP3   OH257487   3.422   6.660  16.128
11999TIP3    H157488   3.375   6.577  16.118
11999TIP3    H257489   3.374   6.721  16.073
12000TIP3   OH257490   0.963   5.523   4.549
12000TIP3    H157491   0.976   5.503   4.456
12000TIP3    H257492   0.870   5.506   4.564
12001TIP3   OH257493   6.600   2.132  16.026
12001TIP3    H157494   6.509   2.155  16.006
12001TIP3    H257495   6.602   2.037  16.018
12002TIP3   OH257496   4.404   0.258   0.489
12002TIP3    H157497   4.421   0.171   0.525
12002TIP3    H257498   4.468   0.315   0.534
12003TIP3   OH257499   0.047   1.796  13.104
12003TIP3    H157500   0.004   1.816  13.021
12003TIP3    H257501   0.034   1.875  13.157
12004TIP3   OH257502   1.773   6.521   5.665
12004TIP3    H157503   1.830   6.548   5.592
12004TIP3    H257504   1.722   6.448   5.629
12005TIP3   OH257505   4.346   4.767  13.167
12005TIP3    H157506   4.350   4.801  13.256
12005TIP3    H257507   4.350   4.672  13.178
12006TIP3   OH257508   0.667   0.725  13.065
12006TIP3    H157509   0.753   0.754  13.036
12006TIP3    H257510   0.640   0.660  13.001
12007TIP3   OH257511   4.902   3.688  13.239
12007TIP3    H157512   4.971   3.653  13.183
12007TIP3    H257513   4.856   3.751  13.184
12008TIP3   OH257514   5.390   5.946  16.380
12008TIP3    H157515   5.353   5.859  16.364
12008TIP3    H257516   5.405   5.982  16.293
12009TIP3   OH257517   5.754   0.910  12.392
12009TIP3    H157518   5.757   0.834  12.335
12009TIP3    H257519   5.807   0.976  12.347
12010TIP3   OH257520   1.301   5.693  14.035
12010TIP3    H157521   1.246   5.648  13.972
12010TIP3    H257522   1.264   5.781  14.040
12011TIP3   OH257523   0.134   6.452  12.947
12011TIP3    H157524   0.114   6.537  12.909
12011TIP3    H257525   0.178   6.472  13.030
12012TIP3   OH257526   0.362   3.231  16.182
12012TIP3    H157527   0.333   3.177  16.256
12012TIP3    H257528   0.399   3.168  16.120
12013TIP3   OH257529   1.588   1.944   1.293
12013TIP3    H157530   1.669   1.993   1.308
12013TIP3    H257531   1.587   1.878   1.363
12014TIP3   OH257532   5.923   1.818   0.559
12014TIP3    H157533   5.831   1.790   0.561
12014TIP3    H257534   5.949   1.807   0.468
12015TIP3   OH257535   1.112   0.904   3.279
12015TIP3    H157536   1.159   0.985   3.264
12015TIP3    H257537   1.042   0.904   3.214
12016TIP3   OH257538   2.913   1.223   6.849
12016TIP3    H157539   2.950   1.135   6.842
12016TIP3    H257540   2.824   1.215   6.813
12017TIP3   OH257541   4.405   3.892   4.282
12017TIP3    H157542   4.497   3.892   4.257
12017TIP3    H257543   4.405   3.878   4.376
12018TIP3   OH257544   0.804   4.257   4.386
12018TIP3    H157545   0.854   4.203   4.447
12018TIP3    H257546   0.809   4.211   4.302
12019TIP3   OH257547   0.964   1.380   0.107
12019TIP3    H157548   1.028   1.316   0.077
12019TIP3    H257549   0.904   1.330   0.162
12020TIP3   OH257550   2.381   6.308  11.736
12020TIP3    H157551   2.372   6.380  11.798
12020TIP3    H257552   2.320   6.241  11.768
12021TIP3   OH257553   0.728   2.406   0.219
12021TIP3    H157554   0.822   2.390   0.223
12021TIP3    H257555   0.721   2.497   0.190
12022TIP3   OH257556   1.769   1.711   3.156
12022TIP3    H157557   1.837   1.712   3.089
12022TIP3    H257558   1.810   1.749   3.234
12023TIP3   OH257559   4.449   5.852   5.527
12023TIP3    H157560   4.436   5.764   5.562
12023TIP3    H257561   4.440   5.909   5.604
12024TIP3   OH257562   1.696   6.504  15.370
12024TIP3    H157563   1.699   6.441  15.442
12024TIP3    H257564   1.760   6.571  15.394
12025TIP3   OH257565   4.824   3.054   3.916
12025TIP3    H157566   4.812   3.120   3.848
12025TIP3    H257567   4.865   2.980   3.871
12026TIP3   OH257568   2.104   0.336   0.846
12026TIP3    H157569   2.033   0.274   0.829
12026TIP3    H257570   2.154   0.296   0.917
12027TIP3   OH257571   1.068   2.210   2.533
12027TIP3    H157572   1.028   2.217   2.446
12027TIP3    H257573   1.073   2.301   2.564
12028TIP3   OH257574   2.603   2.849   5.593
12028TIP3    H157575   2.549   2.835   5.671
12028TIP3    H257576   2.632   2.762   5.568
12029TIP3   OH257577   5.952   2.998   3.815
12029TIP3    H157578   6.041   3.003   3.781
12029TIP3    H257579   5.902   3.059   3.761
12030TIP3   OH257580   5.841   3.691   0.174
12030TIP3    H157581   5.790   3.610   0.177
12030TIP3    H257582   5.825   3.733   0.258
12031TIP3   OH257583   0.248   0.747   0.887
12031TIP3    H157584   0.204   0.719   0.807
12031TIP3    H257585   0.179   0.792   0.937
12032TIP3   OH257586   3.715   3.770  13.210
12032TIP3    H157587   3.788   3.805  13.261
12032TIP3    H257588   3.643   3.830  13.227
12033TIP3   OH257589   6.632   0.906   5.240
12033TIP3    H157590   6.716   0.948   5.222
12033TIP3    H257591   6.618   0.920   5.334
12034TIP3   OH257592   3.694   6.653   0.623
12034TIP3    H157593   3.681   6.575   0.678
12034TIP3    H257594   3.662   6.627   0.537
12035TIP3   OH257595   2.438   3.647   6.107
12035TIP3    H157596   2.350   3.637   6.070
12035TIP3    H257597   2.438   3.588   6.182
12036TIP3   OH257598   3.779   0.643   1.291
12036TIP3    H157599   3.800   0.643   1.384
12036TIP3    H257600   3.761   0.552   1.270
12037TIP3   OH257601   4.099   6.769   0.500
12037TIP3    H157602   4.047   6.828   0.445
12037TIP3    H257603   4.122   6.696   0.441
12038TIP3   OH257604   2.882   4.572   6.369
12038TIP3    H157605   2.936   4.647   6.346
12038TIP3    H257606   2.939   4.496   6.354
12039TIP3   OH257607   5.595   5.953   2.453
12039TIP3    H157608   5.670   5.995   2.495
12039TIP3    H257609   5.626   5.927   2.367
12040TIP3   OH257610   5.637   2.873  12.834
12040TIP3    H157611   5.685   2.822  12.769
12040TIP3    H257612   5.705   2.924  12.879
12041TIP3   OH257613   0.273   2.957   5.641
12041TIP3    H157614   0.212   3.016   5.686
12041TIP3    H257615   0.233   2.870   5.652
12042TIP3   OH257616   3.909   2.796   2.723
12042TIP3    H157617   3.814   2.806   2.727
12042TIP3    H257618   3.938   2.804   2.814
12043TIP3   OH257619   5.999   1.192   0.132
12043TIP3    H157620   6.064   1.227   0.193
12043TIP3    H257621   5.914   1.214   0.172
12044TIP3   OH257622   5.984   2.244   2.453
12044TIP3    H157623   6.053   2.298   2.414
12044TIP3    H257624   5.907   2.259   2.398
12045TIP3   OH257625   4.848   6.295   5.144
12045TIP3    H157626   4.764   6.278   5.187
12045TIP3    H257627   4.843   6.247   5.062
12046TIP3   OH257628   0.311   0.694  12.031
12046TIP3    H157629   0.331   0.604  12.006
12046TIP3    H257630   0.391   0.743  12.011
12047TIP3   OH257631   3.114   5.903   3.606
12047TIP3    H157632   3.078   5.930   3.521
12047TIP3    H257633   3.099   5.978   3.663
12048TIP3   OH257634   2.926   5.018  14.166
12048TIP3    H157635   2.930   5.025  14.261
12048TIP3    H257636   2.955   4.929  14.147
12049TIP3   OH257637   1.233   0.148   1.846
12049TIP3    H157638   1.325   0.150   1.819
12049TIP3    H257639   1.208   0.240   1.853
12050TIP3   OH257640   4.825   0.839   5.855
12050TIP3    H157641   4.822   0.846   5.760
12050TIP3    H257642   4.736   0.858   5.884
12051TIP3   OH257643   4.721   4.802   4.889
12051TIP3    H157644   4.793   4.811   4.826
12051TIP3    H257645   4.645   4.837   4.842
12052TIP3   OH257646   5.131   1.233   3.703
12052TIP3    H157647   5.108   1.175   3.630
12052TIP3    H257648   5.058   1.294   3.709
12053TIP3   OH257649   3.143   1.898   4.859
12053TIP3    H157650   3.225   1.876   4.815
12053TIP3    H257651   3.154   1.864   4.948
12054TIP3   OH257652   0.865   0.001  11.073
12054TIP3    H157653   0.838   0.054  11.148
12054TIP3    H257654   0.961   0.006  11.073
12055TIP3   OH257655   3.680   5.702  14.425
12055TIP3    H157656   3.734   5.623  14.415
12055TIP3    H257657   3.697   5.752  14.345
12056TIP3   OH257658   1.914   6.771   0.725
12056TIP3    H157659   2.009   6.772   0.738
12056TIP3    H257660   1.882   6.846   0.774
12057TIP3   OH257661   6.248   1.398  16.184
12057TIP3    H157662   6.280   1.336  16.250
12057TIP3    H257663   6.177   1.352  16.141
12058TIP3   OH257664   2.317   0.743  12.606
12058TIP3    H157665   2.345   0.824  12.649
12058TIP3    H257666   2.310   0.679  12.678
12059TIP3   OH257667   5.909   3.118  16.512
12059TIP3    H157668   5.978   3.112  16.578
12059TIP3    H257669   5.842   3.056  16.541
12060TIP3   OH257670   2.412   5.170  14.029
12060TIP3    H157671   2.401   5.184  14.123
12060TIP3    H257672   2.357   5.093  14.010
12061TIP3   OH257673   2.961   1.862   5.871
12061TIP3    H157674   2.868   1.868   5.892
12061TIP3    H257675   2.980   1.768   5.877
12062TIP3   OH257676   3.156   1.609  11.022
12062TIP3    H157677   3.172   1.693  11.065
12062TIP3    H257678   3.240   1.588  10.980
12063TIP3   OH257679   4.569   4.737  13.804
12063TIP3    H157680   4.637   4.693  13.855
12063TIP3    H257681   4.606   4.824  13.786
12064TIP3   OH257682   5.607   4.865  12.523
12064TIP3    H157683   5.629   4.932  12.458
12064TIP3    H257684   5.517   4.841  12.503
12065TIP3   OH257685   0.597   3.614  15.600
12065TIP3    H157686   0.547   3.561  15.662
12065TIP3    H257687   0.617   3.554  15.528
12066TIP3   OH257688   6.568   4.286  13.819
12066TIP3    H157689   6.483   4.242  13.820
12066TIP3    H257690   6.572   4.332  13.903
12067TIP3   OH257691   0.132   5.398   0.976
12067TIP3    H157692   0.038   5.399   0.961
12067TIP3    H257693   0.163   5.319   0.931
12068TIP3   OH257694   0.843   2.074  12.676
12068TIP3    H157695   0.935   2.100  12.670
12068TIP3    H257696   0.800   2.121  12.605
12069TIP3   OH257697   4.279   2.738   3.199
12069TIP3    H157698   4.204   2.752   3.257
12069TIP3    H257699   4.347   2.702   3.256
12070TIP3   OH257700   2.164   6.279  14.232
12070TIP3    H157701   2.197   6.363  14.262
12070TIP3    H257702   2.129   6.237  14.310
12071TIP3   OH257703   4.110   6.629   3.594
12071TIP3    H157704   4.184   6.598   3.646
12071TIP3    H257705   4.061   6.686   3.653
12072TIP3   OH257706   0.465   2.344   3.692
12072TIP3    H157707   0.438   2.285   3.621
12072TIP3    H257708   0.485   2.285   3.764
12073TIP3   OH257709   3.922   5.835   1.399
12073TIP3    H157710   4.005   5.795   1.371
12073TIP3    H257711   3.914   5.914   1.347
12074TIP3   OH257712   1.592   2.632   5.156
12074TIP3    H157713   1.680   2.621   5.191
12074TIP3    H257714   1.605   2.673   5.070
12075TIP3   OH257715   5.189   0.841  16.296
12075TIP3    H157716   5.261   0.802  16.346
12075TIP3    H257717   5.218   0.835  16.205
12076TIP3   OH257718   3.611   6.296   0.689
12076TIP3    H157719   3.652   6.212   0.709
12076TIP3    H257720   3.608   6.298   0.593
12077TIP3   OH257721   4.338   6.028   4.850
12077TIP3    H157722   4.286   6.017   4.931
12077TIP3    H257723   4.341   5.940   4.812
12078TIP3   OH257724   0.933   5.238  11.315
12078TIP3    H157725   0.946   5.321  11.270
12078TIP3    H257726   0.907   5.177  11.246
12079TIP3   OH257727   3.246   3.961  14.382
12079TIP3    H157728   3.201   3.924  14.306
12079TIP3    H257729   3.180   4.018  14.422
12080TIP3   OH257730   5.264   4.144  17.208
12080TIP3    H157731   5.337   4.188  17.165
12080TIP3    H257732   5.246   4.067  17.153
12081TIP3   OH257733   3.170   5.928  12.765
12081TIP3    H157734   3.181   5.993  12.835
12081TIP3    H257735   3.258   5.895  12.750
12082TIP3   OH257736   3.380   2.836  15.041
12082TIP3    H157737   3.391   2.893  14.965
12082TIP3    H257738   3.344   2.755  15.005
12083TIP3   OH257739   0.678   6.686   4.299
12083TIP3    H157740   0.747   6.752   4.305
12083TIP3    H257741   0.633   6.706   4.216
12084TIP3   OH257742   0.446   6.499  13.102
12084TIP3    H157743   0.493   6.425  13.064
12084TIP3    H257744   0.497   6.576  13.076
12085TIP3   OH257745   5.577   0.055  12.477
12085TIP3    H157746   5.504   0.079  12.420
12085TIP3    H257747   5.618  -0.019  12.433
12086TIP3   OH257748   5.178   2.251   1.081
12086TIP3    H157749   5.173   2.164   1.121
12086TIP3    H257750   5.168   2.235   0.987
12087TIP3   OH257751   3.706   6.720  15.193
12087TIP3    H157752   3.737   6.728  15.283
12087TIP3    H257753   3.624   6.769  15.192
12088TIP3   OH257754   0.391   0.055   0.642
12088TIP3    H157755   0.386   0.125   0.577
12088TIP3    H257756   0.303   0.047   0.677
12089TIP3   OH257757   2.688   0.202   5.410
12089TIP3    H157758   2.711   0.121   5.366
12089TIP3    H257759   2.595   0.214   5.393
12090TIP3   OH257760   0.039   5.493  16.791
12090TIP3    H157761  -0.025   5.561  16.773
12090TIP3    H257762   0.099   5.532  16.855
12091TIP3   OH257763   2.041   5.920   5.366
12091TIP3    H157764   2.002   5.883   5.287
12091TIP3    H257765   2.094   5.848   5.402
12092TIP3   OH257766   4.418   2.540  10.810
12092TIP3    H157767   4.353   2.499  10.753
12092TIP3    H257768   4.500   2.497  10.789
12093TIP3   OH257769   4.340   5.860  14.617
12093TIP3    H157770   4.373   5.788  14.671
12093TIP3    H257771   4.301   5.817  14.541
12094TIP3   OH257772   1.667   5.216   2.243
12094TIP3    H157773   1.649   5.209   2.337
12094TIP3    H257774   1.762   5.223   2.238
12095TIP3   OH257775   5.748   2.374  13.897
12095TIP3    H157776   5.810   2.363  13.825
12095TIP3    H257777   5.664   2.343  13.861
12096TIP3   OH257778   3.666   4.901   5.641
12096TIP3    H157779   3.602   4.885   5.572
12096TIP3    H257780   3.730   4.961   5.602
12097TIP3   OH257781   1.485   4.871  11.524
12097TIP3    H157782   1.471   4.777  11.533
12097TIP3    H257783   1.504   4.901  11.613
12098TIP3   OH257784   0.800   6.638  14.227
12098TIP3    H157785   0.753   6.567  14.183
12098TIP3    H257786   0.891   6.625  14.202
12099TIP3   OH257787   5.100   3.055  14.099
12099TIP3    H157788   5.109   3.032  14.192
12099TIP3    H257789   5.023   3.007  14.070
12100TIP3   OH257790   3.471   5.798  14.127
12100TIP3    H157791   3.518   5.854  14.065
12100TIP3    H257792   3.540   5.752  14.175
12101TIP3   OH257793   0.317   5.797  14.779
12101TIP3    H157794   0.380   5.734  14.815
12101TIP3    H257795   0.245   5.743  14.746
12102TIP3   OH257796   5.373   1.358   6.217
12102TIP3    H157797   5.301   1.417   6.239
12102TIP3    H257798   5.337   1.270   6.235
12103TIP3   OH257799   6.197   4.775  16.274
12103TIP3    H157800   6.171   4.866  16.291
12103TIP3    H257801   6.270   4.760  16.334
12104TIP3   OH257802   3.398   4.028   2.166
12104TIP3    H157803   3.369   3.938   2.183
12104TIP3    H257804   3.367   4.077   2.242
12105TIP3   OH257805   3.803   4.576   1.567
12105TIP3    H157806   3.844   4.634   1.503
12105TIP3    H257807   3.855   4.587   1.647
12106TIP3   OH257808   4.583   5.819  15.977
12106TIP3    H157809   4.502   5.826  16.026
12106TIP3    H257810   4.618   5.733  15.998
12107TIP3   OH257811   3.244   0.587  11.608
12107TIP3    H157812   3.273   0.643  11.535
12107TIP3    H257813   3.238   0.500  11.570
12108TIP3   OH257814   4.753   6.794  11.524
12108TIP3    H157815   4.780   6.881  11.498
12108TIP3    H257816   4.806   6.774  11.601
12109TIP3   OH257817   2.043   6.721   3.053
12109TIP3    H157818   2.058   6.755   2.965
12109TIP3    H257819   1.953   6.688   3.052
12110TIP3   OH257820   5.265   3.065   0.431
12110TIP3    H157821   5.248   3.078   0.524
12110TIP3    H257822   5.191   3.013   0.400
12111TIP3   OH257823   6.042   5.672  14.575
12111TIP3    H157824   5.982   5.744  14.556
12111TIP3    H257825   6.062   5.634  14.489
12112TIP3   OH257826   4.911   3.150   4.339
12112TIP3    H157827   4.909   3.232   4.290
12112TIP3    H257828   4.980   3.162   4.404
12113TIP3   OH257829   2.785   6.005   4.745
12113TIP3    H157830   2.816   6.088   4.782
12113TIP3    H257831   2.841   5.939   4.785
12114TIP3   OH257832   3.938   4.815   0.702
12114TIP3    H157833   3.852   4.841   0.672
12114TIP3    H257834   3.972   4.759   0.633
12115TIP3   OH257835   3.782   0.608   3.374
12115TIP3    H157836   3.800   0.517   3.398
12115TIP3    H257837   3.753   0.649   3.456
12116TIP3   OH257838   3.714   2.600  10.723
12116TIP3    H157839   3.676   2.658  10.657
12116TIP3    H257840   3.666   2.620  10.803
12117TIP3   OH257841   1.746   5.738   2.863
12117TIP3    H157842   1.772   5.647   2.852
12117TIP3    H257843   1.668   5.748   2.809
12118TIP3   OH257844   3.807   5.782   6.005
12118TIP3    H157845   3.795   5.737   5.921
12118TIP3    H257846   3.740   5.745   6.062
12119TIP3   OH257847   2.616   6.535  11.485
12119TIP3    H157848   2.657   6.530  11.398
12119TIP3    H257849   2.690   6.542  11.546
12120TIP3   OH257850   5.970   3.088  11.664
12120TIP3    H157851   6.036   3.048  11.606
12120TIP3    H257852   6.019   3.154  11.713
12121TIP3   OH257853   3.409   2.536  11.220
12121TIP3    H157854   3.342   2.541  11.152
12121TIP3    H257855   3.364   2.563  11.300
12122TIP3   OH257856   3.725   1.511  14.866
12122TIP3    H157857   3.674   1.591  14.852
12122TIP3    H257858   3.738   1.474  14.779
12123TIP3   OH257859   0.585   1.186  11.746
12123TIP3    H157860   0.636   1.160  11.670
12123TIP3    H257861   0.503   1.138  11.738
12124TIP3   OH257862   5.535   2.708   2.793
12124TIP3    H157863   5.510   2.790   2.752
12124TIP3    H257864   5.520   2.642   2.726
12125TIP3   OH257865   0.365   4.027   5.103
12125TIP3    H157866   0.444   4.059   5.146
12125TIP3    H257867   0.345   3.944   5.147
12126TIP3   OH257868   0.900   2.857  11.449
12126TIP3    H157869   0.934   2.941  11.479
12126TIP3    H257870   0.933   2.849  11.359
12127TIP3   OH257871   1.683   0.398  14.013
12127TIP3    H157872   1.729   0.386  14.097
12127TIP3    H257873   1.686   0.493  13.998
12128TIP3   OH257874   2.356   5.719   4.696
12128TIP3    H157875   2.401   5.668   4.763
12128TIP3    H257876   2.421   5.785   4.668
12129TIP3   OH257877   0.826   2.997   5.020
12129TIP3    H157878   0.781   2.965   4.942
12129TIP3    H257879   0.798   3.088   5.029
12130TIP3   OH257880   6.003   5.109  11.553
12130TIP3    H157881   6.050   5.123  11.635
12130TIP3    H257882   6.043   5.031  11.516
12131TIP3   OH257883   6.073   3.897  16.198
12131TIP3    H157884   6.077   3.802  16.197
12131TIP3    H257885   5.999   3.917  16.256
12132TIP3   OH257886   0.088   0.675  13.323
12132TIP3    H157887   0.001   0.667  13.285
12132TIP3    H257888   0.088   0.614  13.397
12133TIP3   OH257889   4.791   3.754   3.176
12133TIP3    H157890   4.713   3.803   3.150
12133TIP3    H257891   4.760   3.690   3.239
12134TIP3   OH257892   1.035   0.024   5.400
12134TIP3    H157893   1.045  -0.012   5.312
12134TIP3    H257894   0.955  -0.016   5.433
12135TIP3   OH257895   1.540   0.114  14.584
12135TIP3    H157896   1.633   0.134  14.577
12135TIP3    H257897   1.537   0.028  14.627
12136TIP3   OH257898   6.190   0.666  16.665
12136TIP3    H157899   6.272   0.715  16.657
12136TIP3    H257900   6.127   0.730  16.698
12137TIP3   OH257901   3.844   3.632  13.521
12137TIP3    H157902   3.871   3.717  13.487
12137TIP3    H257903   3.805   3.588  13.446
12138TIP3   OH257904   3.005   3.595  13.771
12138TIP3    H157905   2.989   3.509  13.811
12138TIP3    H257906   3.005   3.656  13.844
12139TIP3   OH257907   3.849   5.576  13.857
12139TIP3    H157908   3.812   5.521  13.926
12139TIP3    H257909   3.827   5.530  13.776
12140TIP3   OH257910   0.344   3.712  12.229
12140TIP3    H157911   0.270   3.704  12.168
12140TIP3    H257912   0.321   3.653  12.302
12141TIP3   OH257913   1.788   4.073   3.274
12141TIP3    H157914   1.832   3.991   3.247
12141TIP3    H257915   1.810   4.082   3.366
12142TIP3   OH257916   3.513   5.570   5.809
12142TIP3    H157917   3.426   5.600   5.835
12142TIP3    H257918   3.546   5.522   5.885
12143TIP3   OH257919   6.492   1.061  16.805
12143TIP3    H157920   6.409   1.098  16.835
12143TIP3    H257921   6.506   1.102  16.719
12144TIP3   OH257922   3.637   4.455   2.882
12144TIP3    H157923   3.622   4.432   2.790
12144TIP3    H257924   3.654   4.549   2.881
12145TIP3   OH257925   1.148   0.078  16.945
12145TIP3    H157926   1.105   0.064  17.029
12145TIP3    H257927   1.078   0.066  16.880
12146TIP3   OH257928   2.659   5.231   2.080
12146TIP3    H157929   2.594   5.218   2.010
12146TIP3    H257930   2.722   5.293   2.043
12147TIP3   OH257931   1.340   4.898   1.866
12147TIP3    H157932   1.259   4.869   1.823
12147TIP3    H257933   1.318   4.900   1.959
12148TIP3   OH257934   4.179   6.460  17.206
12148TIP3    H157935   4.268   6.444  17.175
12148TIP3    H257936   4.190   6.490  17.296
12149TIP3   OH257937   1.673   0.518  11.540
12149TIP3    H157938   1.739   0.569  11.492
12149TIP3    H257939   1.611   0.584  11.572
12150TIP3   OH257940   3.547   2.502   1.393
12150TIP3    H157941   3.479   2.498   1.326
12150TIP3    H257942   3.614   2.560   1.356
12151TIP3   OH257943   3.105   1.860  13.662
12151TIP3    H157944   3.174   1.866  13.729
12151TIP3    H257945   3.047   1.933  13.682
12152TIP3   OH257946   4.768   6.661  12.961
12152TIP3    H157947   4.743   6.583  13.011
12152TIP3    H257948   4.805   6.627  12.880
12153TIP3   OH257949   6.227   5.266  14.544
12153TIP3    H157950   6.264   5.198  14.601
12153TIP3    H257951   6.288   5.339  14.552
12154TIP3   OH257952   3.709   6.289   1.165
12154TIP3    H157953   3.649   6.281   1.092
12154TIP3    H257954   3.685   6.371   1.208
12155TIP3   OH257955   0.152   1.654   4.500
12155TIP3    H157956   0.203   1.686   4.574
12155TIP3    H257957   0.150   1.559   4.511
12156TIP3   OH257958   0.628   5.750  15.509
12156TIP3    H157959   0.641   5.793  15.593
12156TIP3    H257960   0.575   5.673  15.529
12157TIP3   OH257961   4.992   6.402  10.739
12157TIP3    H157962   5.059   6.469  10.755
12157TIP3    H257963   5.040   6.320  10.734
12158TIP3   OH257964   2.168   3.862   0.877
12158TIP3    H157965   2.192   3.799   0.809
12158TIP3    H257966   2.087   3.902   0.845
12159TIP3   OH257967   6.683   2.645  17.232
12159TIP3    H157968   6.658   2.558  17.262
12159TIP3    H257969   6.615   2.703  17.266
12160TIP3   OH257970   1.859   4.085  14.050
12160TIP3    H157971   1.771   4.121  14.064
12160TIP3    H257972   1.904   4.153  13.999
12161TIP3   OH257973   6.233   0.281   6.187
12161TIP3    H157974   6.227   0.283   6.092
12161TIP3    H257975   6.290   0.354   6.209
12162TIP3   OH257976   1.892   4.447   0.629
12162TIP3    H157977   1.920   4.492   0.709
12162TIP3    H257978   1.907   4.354   0.647
12163TIP3   OH257979   0.825   1.195   4.188
12163TIP3    H157980   0.918   1.201   4.166
12163TIP3    H257981   0.822   1.205   4.283
12164TIP3   OH257982   1.137   3.698   1.075
12164TIP3    H157983   1.052   3.717   1.035
12164TIP3    H257984   1.136   3.746   1.157
12165TIP3   OH257985   5.472   3.174  15.907
12165TIP3    H157986   5.442   3.259  15.873
12165TIP3    H257987   5.402   3.113  15.884
12166TIP3   OH257988   2.321   1.060  14.634
12166TIP3    H157989   2.351   1.101  14.553
12166TIP3    H257990   2.245   1.112  14.660
12167TIP3   OH257991   6.314   5.069  11.305
12167TIP3    H157992   6.367   5.104  11.376
12167TIP3    H257993   6.353   5.105  11.225
12168TIP3   OH257994   4.977   4.235   3.818
12168TIP3    H157995   4.920   4.221   3.742
12168TIP3    H257996   5.012   4.323   3.806
12169TIP3   OH257997   6.722   4.157  16.038
12169TIP3    H157998   6.701   4.074  16.079
12169TIP3    H257999   6.810   4.178  16.069
12170TIP3   OH258000   0.745   0.446   5.222
12170TIP3    H158001   0.699   0.494   5.291
12170TIP3    H258002   0.713   0.356   5.230
12171TIP3   OH258003   1.837   5.467  10.593
12171TIP3    H158004   1.859   5.376  10.569
12171TIP3    H258005   1.773   5.493  10.527
12172TIP3   OH258006   2.300   6.274  12.232
12172TIP3    H158007   2.224   6.221  12.207
12172TIP3    H258008   2.329   6.315  12.151
12173TIP3   OH258009   2.599   3.527  17.233
12173TIP3    H158010   2.567   3.523  17.143
12173TIP3    H258011   2.688   3.493  17.228
12174TIP3   OH258012   4.374   0.025   4.770
12174TIP3    H158013   4.465   0.036   4.743
12174TIP3    H258014   4.334   0.111   4.753
12175TIP3   OH258015   5.448   0.582  12.882
12175TIP3    H158016   5.430   0.650  12.817
12175TIP3    H258017   5.415   0.501  12.843
12176TIP3   OH258018   3.530   0.510   6.436
12176TIP3    H158019   3.591   0.437   6.432
12176TIP3    H258020   3.455   0.476   6.484
12177TIP3   OH258021   2.081   2.162  16.589
12177TIP3    H158022   2.022   2.087  16.582
12177TIP3    H258023   2.043   2.216  16.658
12178TIP3   OH258024   4.242   6.764   4.980
12178TIP3    H158025   4.297   6.777   4.903
12178TIP3    H258026   4.291   6.700   5.033
12179TIP3   OH258027   1.675   4.569   5.033
12179TIP3    H158028   1.630   4.558   4.949
12179TIP3    H258029   1.706   4.482   5.056
12180TIP3   OH258030   4.750   0.976   0.553
12180TIP3    H158031   4.825   1.028   0.581
12180TIP3    H258032   4.787   0.912   0.491
12181TIP3   OH258033   4.213   5.367   2.554
12181TIP3    H158034   4.162   5.289   2.532
12181TIP3    H258035   4.147   5.432   2.579
12182TIP3   OH258036   5.701   2.153  13.410
12182TIP3    H158037   5.697   2.058  13.398
12182TIP3    H258038   5.794   2.174  13.400
12183TIP3   OH258039   1.096   3.485   5.729
12183TIP3    H158040   1.021   3.495   5.788
12183TIP3    H258041   1.109   3.573   5.692
12184TIP3   OH258042   6.434   1.438   5.657
12184TIP3    H158043   6.487   1.515   5.636
12184TIP3    H258044   6.395   1.459   5.742
12185TIP3   OH258045   5.922   1.122   2.932
12185TIP3    H158046   5.932   1.098   3.024
12185TIP3    H258047   6.012   1.133   2.900
12186TIP3   OH258048   3.205   5.923   1.493
12186TIP3    H158049   3.234   5.924   1.402
12186TIP3    H258050   3.267   5.866   1.538
12187TIP3   OH258051   2.077   2.977   2.102
12187TIP3    H158052   2.074   2.994   2.007
12187TIP3    H258053   2.001   3.024   2.137
12188TIP3   OH258054   3.000   2.944  15.371
12188TIP3    H158055   3.005   2.967  15.464
12188TIP3    H258056   3.030   2.854  15.366
12189TIP3   OH258057   1.898   1.353  12.442
12189TIP3    H158058   1.809   1.342  12.410
12189TIP3    H258059   1.906   1.291  12.514
12190TIP3   OH258060   2.761   1.894  15.681
12190TIP3    H158061   2.768   1.984  15.715
12190TIP3    H258062   2.793   1.900  15.591
12191TIP3   OH258063   3.471   4.164   3.305
12191TIP3    H158064   3.385   4.198   3.331
12191TIP3    H258065   3.498   4.220   3.232
12192TIP3   OH258066   6.473   3.748   4.595
12192TIP3    H158067   6.418   3.820   4.626
12192TIP3    H258068   6.481   3.762   4.500
12193TIP3   OH258069   5.036   1.879  12.656
12193TIP3    H158070   5.076   1.963  12.681
12193TIP3    H258071   5.067   1.863  12.567
12194TIP3   OH258072   3.779   5.005  13.445
12194TIP3    H158073   3.782   4.918  13.406
12194TIP3    H258074   3.787   4.990  13.539
12195TIP3   OH258075   1.273   2.695   0.867
12195TIP3    H158076   1.242   2.740   0.945
12195TIP3    H258077   1.196   2.649   0.834
12196TIP3   OH258078   1.915   3.292   5.402
12196TIP3    H158079   1.866   3.298   5.320
12196TIP3    H258080   1.890   3.370   5.451
12197TIP3   OH258081   5.885   4.887   0.931
12197TIP3    H158082   5.933   4.937   0.865
12197TIP3    H258083   5.942   4.888   1.008
12198TIP3   OH258084   2.139   3.255   1.403
12198TIP3    H158085   2.160   3.276   1.494
12198TIP3    H258086   2.084   3.177   1.408
12199TIP3   OH258087   2.255   1.114   2.828
12199TIP3    H158088   2.337   1.161   2.814
12199TIP3    H258089   2.253   1.094   2.921
12200TIP3   OH258090   1.214   5.553  11.927
12200TIP3    H158091   1.304   5.531  11.950
12200TIP3    H258092   1.211   5.649  11.931
12201TIP3   OH258093   2.007   2.870  13.602
12201TIP3    H158094   2.097   2.902  13.593
12201TIP3    H258095   1.964   2.935  13.657
12202TIP3   OH258096   2.527   2.925   1.745
12202TIP3    H158097   2.589   2.996   1.761
12202TIP3    H258098   2.570   2.847   1.779
12203TIP3   OH258099   6.489   1.114  16.524
12203TIP3    H158100   6.546   1.186  16.500
12203TIP3    H258101   6.414   1.121  16.465
12204TIP3   OH258102   0.255   3.920  11.401
12204TIP3    H158103   0.216   3.906  11.314
12204TIP3    H258104   0.191   3.972  11.448
12205TIP3   OH258105   1.941   1.190  10.849
12205TIP3    H158106   2.004   1.259  10.828
12205TIP3    H258107   1.982   1.109  10.816
12206TIP3   OH258108   2.332   0.448  11.075
12206TIP3    H158109   2.383   0.514  11.026
12206TIP3    H258110   2.397   0.384  11.102
12207TIP3   OH258111   2.771   2.496   0.255
12207TIP3    H158112   2.722   2.548   0.319
12207TIP3    H258113   2.805   2.560   0.192
12208TIP3   OH258114   4.989   5.539  13.096
12208TIP3    H158115   4.904   5.503  13.071
12208TIP3    H258116   4.985   5.632  13.071
12209TIP3   OH258117   5.745   4.385  14.723
12209TIP3    H158118   5.809   4.450  14.696
12209TIP3    H258119   5.694   4.366  14.644
12210TIP3   OH258120   0.666   4.734   0.387
12210TIP3    H158121   0.690   4.775   0.304
12210TIP3    H258122   0.730   4.663   0.398
12211TIP3   OH258123   1.540   3.531  11.920
12211TIP3    H158124   1.597   3.568  11.987
12211TIP3    H258125   1.451   3.547  11.952
12212TIP3   OH258126   2.897   1.049  16.451
12212TIP3    H158127   2.909   1.079  16.361
12212TIP3    H258128   2.957   1.103  16.502
12213TIP3   OH258129   6.662   4.424   2.877
12213TIP3    H158130   6.706   4.346   2.912
12213TIP3    H258131   6.707   4.442   2.795
12214TIP3   OH258132   1.882   2.520   4.054
12214TIP3    H158133   1.976   2.515   4.038
12214TIP3    H258134   1.867   2.612   4.077
12215TIP3   OH258135   4.912   2.012  16.239
12215TIP3    H158136   4.951   2.086  16.192
12215TIP3    H258137   4.972   1.995  16.311
12216TIP3   OH258138   4.564   6.370   2.853
12216TIP3    H158139   4.607   6.442   2.899
12216TIP3    H258140   4.523   6.319   2.922
12217TIP3   OH258141   1.100   6.438  15.288
12217TIP3    H158142   1.101   6.533  15.283
12217TIP3    H258143   1.150   6.417  15.368
12218TIP3   OH258144   4.906   1.164  16.158
12218TIP3    H158145   4.984   1.219  16.165
12218TIP3    H258146   4.849   1.194  16.229
12219TIP3   OH258147   1.665   5.919  15.708
12219TIP3    H158148   1.590   5.924  15.768
12219TIP3    H258149   1.727   5.982  15.743
12220TIP3   OH258150   4.498   3.816  11.713
12220TIP3    H158151   4.593   3.803  11.705
12220TIP3    H258152   4.474   3.771  11.794
12221TIP3   OH258153   0.119   2.472   3.734
12221TIP3    H158154   0.212   2.452   3.740
12221TIP3    H258155   0.092   2.438   3.649
12222TIP3   OH258156   3.218   0.134  13.244
12222TIP3    H158157   3.280   0.065  13.267
12222TIP3    H258158   3.232   0.202  13.310
12223TIP3   OH258159   0.051   4.349   4.333
12223TIP3    H158160   0.063   4.401   4.253
12223TIP3    H258161   0.133   4.302   4.343
12224TIP3   OH258162   4.261   3.017   3.333
12224TIP3    H158163   4.348   3.046   3.361
12224TIP3    H258164   4.200   3.064   3.390
12225TIP3   OH258165   0.776   2.359  15.862
12225TIP3    H158166   0.808   2.296  15.797
12225TIP3    H258167   0.844   2.361  15.929
12226TIP3   OH258168   6.453   6.143   5.939
12226TIP3    H158169   6.433   6.114   6.027
12226TIP3    H258170   6.512   6.077   5.904
12227TIP3   OH258171   1.395   1.287   3.514
12227TIP3    H158172   1.333   1.360   3.516
12227TIP3    H258173   1.348   1.214   3.554
12228TIP3   OH258174   3.471   6.642  12.230
12228TIP3    H158175   3.498   6.550  12.234
12228TIP3    H258176   3.517   6.677  12.154
12229TIP3   OH258177   4.320   5.582   0.007
12229TIP3    H158178   4.251   5.562  -0.056
12229TIP3    H258179   4.293   5.537   0.087
12230TIP3   OH258180   3.924   3.578   2.631
12230TIP3    H158181   3.892   3.556   2.543
12230TIP3    H258182   3.972   3.660   2.619
12231TIP3   OH258183   4.571   3.242  13.013
12231TIP3    H158184   4.589   3.205  12.927
12231TIP3    H258185   4.630   3.317  13.020
12232TIP3   OH258186   0.721   1.081   1.553
12232TIP3    H158187   0.692   1.047   1.468
12232TIP3    H258188   0.661   1.153   1.572
12233TIP3   OH258189   2.087   3.601  11.665
12233TIP3    H158190   2.039   3.525  11.632
12233TIP3    H258191   2.062   3.672  11.606
12234TIP3   OH258192   3.895   4.538  14.042
12234TIP3    H158193   3.886   4.491  14.125
12234TIP3    H258194   3.924   4.626  14.067
12235TIP3   OH258195   4.228   4.071   2.922
12235TIP3    H158196   4.322   4.062   2.905
12235TIP3    H258197   4.209   4.162   2.897
12236TIP3   OH258198   1.193   6.695   1.831
12236TIP3    H158199   1.171   6.787   1.847
12236TIP3    H258200   1.242   6.695   1.749
12237TIP3   OH258201   5.912   3.889   0.879
12237TIP3    H158202   5.965   3.902   0.958
12237TIP3    H258203   5.829   3.933   0.899
12238TIP3   OH258204   5.929   5.118   0.367
12238TIP3    H158205   5.935   5.096   0.460
12238TIP3    H258206   5.864   5.188   0.363
12239TIP3   OH258207   6.736   0.426   3.900
12239TIP3    H158208   6.824   0.402   3.929
12239TIP3    H258209   6.751   0.483   3.825
12240TIP3   OH258210   2.175   4.793   1.337
12240TIP3    H158211   2.235   4.742   1.283
12240TIP3    H258212   2.117   4.729   1.376
12241TIP3   OH258213   1.755   5.816   2.288
12241TIP3    H158214   1.701   5.776   2.357
12241TIP3    H258215   1.845   5.793   2.312
12242TIP3   OH258216   5.313   6.025  14.892
12242TIP3    H158217   5.337   5.960  14.958
12242TIP3    H258218   5.262   5.976  14.827
12243TIP3   OH258219   3.911   0.253  16.778
12243TIP3    H158220   3.833   0.300  16.807
12243TIP3    H258221   3.983   0.312  16.800
12244TIP3   OH258222   2.873   5.076   3.985
12244TIP3    H158223   2.798   5.068   4.044
12244TIP3    H258224   2.939   5.121   4.036
12245TIP3   OH258225   5.436   2.088   2.199
12245TIP3    H158226   5.345   2.063   2.181
12245TIP3    H258227   5.465   2.025   2.266
12246TIP3   OH258228   4.540   6.549  11.225
12246TIP3    H158229   4.510   6.468  11.185
12246TIP3    H258230   4.466   6.610  11.213
12247TIP3   OH258231   2.490   1.538  12.443
12247TIP3    H158232   2.569   1.499  12.482
12247TIP3    H258233   2.484   1.498  12.356
12248TIP3   OH258234   2.109   1.199  14.779
12248TIP3    H158235   2.084   1.171  14.868
12248TIP3    H258236   2.106   1.295  14.783
12249TIP3   OH258237   4.466   1.651  13.866
12249TIP3    H158238   4.431   1.680  13.949
12249TIP3    H258239   4.554   1.689  13.862
12250TIP3   OH258240   1.034   4.096  11.902
12250TIP3    H158241   1.037   4.109  11.807
12250TIP3    H258242   1.027   4.185  11.938
12251TIP3   OH258243   4.378   2.662   5.266
12251TIP3    H158244   4.461   2.617   5.284
12251TIP3    H258245   4.402   2.730   5.203
12252TIP3   OH258246   4.295   4.830  13.944
12252TIP3    H158247   4.383   4.807  13.915
12252TIP3    H258248   4.299   4.825  14.040
12253TIP3   OH258249   6.006   3.705   5.208
12253TIP3    H158250   5.984   3.736   5.296
12253TIP3    H258251   6.006   3.784   5.154
12254TIP3   OH258252   4.551   3.498   5.662
12254TIP3    H158253   4.547   3.454   5.747
12254TIP3    H258254   4.470   3.549   5.658
12255TIP3   OH258255   2.956   1.492  11.716
12255TIP3    H158256   2.992   1.580  11.705
12255TIP3    H258257   2.974   1.469  11.807
12256TIP3   OH258258   4.326   1.381  13.274
12256TIP3    H158259   4.263   1.309  13.283
12256TIP3    H258260   4.320   1.406  13.182
12257TIP3   OH258261   0.299   6.077  14.361
12257TIP3    H158262   0.343   6.161  14.348
12257TIP3    H258263   0.306   6.061  14.456
12258TIP3   OH258264   1.400   1.526  16.092
12258TIP3    H158265   1.443   1.444  16.113
12258TIP3    H258266   1.372   1.517  16.001
12259TIP3   OH258267   3.608   0.840  15.462
12259TIP3    H158268   3.663   0.763  15.473
12259TIP3    H258269   3.668   0.910  15.437
12260TIP3   OH258270   5.471   2.231  11.220
12260TIP3    H158271   5.521   2.150  11.208
12260TIP3    H258272   5.476   2.276  11.136
12261TIP3   OH258273   2.511   1.544   6.431
12261TIP3    H158274   2.425   1.519   6.399
12261TIP3    H258275   2.537   1.473   6.489
12262TIP3   OH258276   6.591   6.435  15.168
12262TIP3    H158277   6.636   6.361  15.210
12262TIP3    H258278   6.502   6.431  15.202
12263TIP3   OH258279   1.592   3.659  13.819
12263TIP3    H158280   1.626   3.725  13.879
12263TIP3    H258281   1.644   3.581  13.837
12264TIP3   OH258282   4.858   2.835  16.776
12264TIP3    H158283   4.779   2.781  16.776
12264TIP3    H258284   4.897   2.820  16.690
12265TIP3   OH258285   5.948   4.378   5.293
12265TIP3    H158286   6.038   4.374   5.260
12265TIP3    H258287   5.899   4.321   5.234
12266TIP3   OH258288   1.219   4.480   4.165
12266TIP3    H158289   1.165   4.525   4.229
12266TIP3    H258290   1.298   4.533   4.159
12267TIP3   OH258291   5.823   4.105   4.746
12267TIP3    H158292   5.877   4.044   4.695
12267TIP3    H258293   5.784   4.051   4.814
12268TIP3   OH258294   2.122   1.009  10.717
12268TIP3    H158295   2.200   1.053  10.683
12268TIP3    H258296   2.129   0.919  10.686
12269TIP3   OH258297   4.553   6.542   1.778
12269TIP3    H158298   4.563   6.630   1.739
12269TIP3    H258299   4.641   6.518   1.804
12270TIP3   OH258300   1.752   5.784  14.586
12270TIP3    H158301   1.664   5.765  14.619
12270TIP3    H258302   1.738   5.825  14.501
12271TIP3   OH258303   3.719   2.788   1.901
12271TIP3    H158304   3.671   2.820   1.825
12271TIP3    H258305   3.809   2.816   1.886
12272TIP3   OH258306   1.658   5.007  16.635
12272TIP3    H158307   1.650   4.949  16.711
12272TIP3    H258308   1.751   5.001  16.611
12273TIP3   OH258309   4.039   6.166  12.159
12273TIP3    H158310   4.131   6.195  12.153
12273TIP3    H258311   4.034   6.091  12.099
12274TIP3   OH258312   0.264   1.106   4.064
12274TIP3    H158313   0.267   1.019   4.104
12274TIP3    H258314   0.355   1.137   4.067
12275TIP3   OH258315   6.411   1.034  14.327
12275TIP3    H158316   6.494   1.049  14.373
12275TIP3    H258317   6.383   1.122  14.300
12276TIP3   OH258318   4.143   6.003   4.088
12276TIP3    H158319   4.077   6.049   4.140
12276TIP3    H258320   4.224   6.014   4.137
12277TIP3   OH258321   1.239   1.930  15.782
12277TIP3    H158322   1.301   1.903  15.714
12277TIP3    H258323   1.153   1.911  15.745
12278TIP3   OH258324   4.628   0.335   2.784
12278TIP3    H158325   4.676   0.252   2.782
12278TIP3    H258326   4.695   0.402   2.770
12279TIP3   OH258327   4.244   2.673   1.260
12279TIP3    H158328   4.202   2.757   1.242
12279TIP3    H258329   4.225   2.620   1.182
12280TIP3   OH258330   1.513   5.349   3.325
12280TIP3    H158331   1.518   5.444   3.330
12280TIP3    H258332   1.439   5.325   3.381
12281TIP3   OH258333   5.907   1.609   5.750
12281TIP3    H158334   5.899   1.545   5.679
12281TIP3    H258335   5.817   1.632   5.772
12282TIP3   OH258336   0.081   4.085  11.516
12282TIP3    H158337   0.015   4.144  11.478
12282TIP3    H258338   0.107   4.127  11.598
12283TIP3   OH258339   2.644   1.757   2.287
12283TIP3    H158340   2.710   1.821   2.314
12283TIP3    H258341   2.617   1.785   2.200
12284TIP3   OH258342   0.870   3.737   2.603
12284TIP3    H158343   0.846   3.815   2.552
12284TIP3    H258344   0.878   3.769   2.693
12285TIP3   OH258345   3.066   1.702  15.418
12285TIP3    H158346   2.980   1.666  15.440
12285TIP3    H258347   3.128   1.640  15.457
12286TIP3   OH258348   4.786   3.129   5.668
12286TIP3    H158349   4.796   3.144   5.762
12286TIP3    H258350   4.804   3.036   5.657
12287TIP3   OH258351   5.502   2.608  13.627
12287TIP3    H158352   5.578   2.596  13.569
12287TIP3    H258353   5.451   2.678  13.585
12288TIP3   OH258354   3.057   2.123   2.935
12288TIP3    H158355   3.147   2.155   2.945
12288TIP3    H258356   3.044   2.119   2.840
12289TIP3   OH258357   2.134   3.774   1.244
12289TIP3    H158358   2.047   3.809   1.222
12289TIP3    H258359   2.138   3.778   1.340
12290TIP3   OH258360   3.619   4.171   0.957
12290TIP3    H158361   3.560   4.100   0.982
12290TIP3    H258362   3.643   4.151   0.866
12291TIP3   OH258363   5.543   6.185  12.529
12291TIP3    H158364   5.574   6.275  12.523
12291TIP3    H258365   5.488   6.174  12.451
12292TIP3   OH258366   1.411   2.158   3.198
12292TIP3    H158367   1.451   2.084   3.152
12292TIP3    H258368   1.410   2.229   3.134
12293TIP3   OH258369   5.642   3.586   1.876
12293TIP3    H158370   5.642   3.519   1.808
12293TIP3    H258371   5.572   3.647   1.850
12294TIP3   OH258372   3.702   1.915   3.624
12294TIP3    H158373   3.766   1.905   3.554
12294TIP3    H258374   3.647   1.988   3.595
12295TIP3   OH258375   4.011   1.821   2.517
12295TIP3    H158376   4.088   1.800   2.464
12295TIP3    H258377   3.959   1.741   2.516
12296TIP3   OH258378   3.438   5.005  17.195
12296TIP3    H158379   3.393   4.961  17.267
12296TIP3    H258380   3.367   5.039  17.140
12297TIP3   OH258381   5.728   1.322   2.226
12297TIP3    H158382   5.757   1.340   2.316
12297TIP3    H258383   5.724   1.408   2.185
12298TIP3   OH258384   0.476   0.903   0.816
12298TIP3    H158385   0.431   0.929   0.735
12298TIP3    H258386   0.409   0.860   0.868
12299TIP3   OH258387   6.694   5.186  16.475
12299TIP3    H158388   6.621   5.231  16.434
12299TIP3    H258389   6.768   5.245  16.465
12300TIP3   OH258390   0.391   2.860  14.670
12300TIP3    H158391   0.385   2.941  14.619
12300TIP3    H258392   0.334   2.799  14.624
12301TIP3   OH258393   0.612   2.325  16.429
12301TIP3    H158394   0.646   2.354  16.513
12301TIP3    H258395   0.621   2.230  16.431
12302TIP3   OH258396   5.375   1.119   1.454
12302TIP3    H158397   5.290   1.077   1.466
12302TIP3    H258398   5.399   1.097   1.363
12303TIP3   OH258399   5.210   3.505   3.213
12303TIP3    H158400   5.185   3.560   3.287
12303TIP3    H258401   5.173   3.419   3.234
12304TIP3   OH258402   3.503   3.724  11.479
12304TIP3    H158403   3.547   3.750  11.397
12304TIP3    H258404   3.429   3.671  11.450
12305TIP3   OH258405   6.521   5.322  12.249
12305TIP3    H158406   6.591   5.288  12.193
12305TIP3    H258407   6.461   5.248  12.260
12306TIP3   OH258408   2.444   2.042  11.554
12306TIP3    H158409   2.396   1.994  11.486
12306TIP3    H258410   2.444   1.983  11.629
12307TIP3   OH258411   2.482   0.972   0.731
12307TIP3    H158412   2.496   1.022   0.811
12307TIP3    H258413   2.528   0.889   0.745
12308TIP3   OH258414   1.478   5.947   3.629
12308TIP3    H158415   1.387   5.933   3.601
12308TIP3    H258416   1.522   5.865   3.607
12309TIP3   OH258417   3.364   2.581   5.247
12309TIP3    H158418   3.459   2.570   5.249
12309TIP3    H258419   3.332   2.512   5.189
12310TIP3   OH258420   2.320   1.485  15.989
12310TIP3    H158421   2.369   1.557  16.028
12310TIP3    H258422   2.228   1.510  15.998
12311TIP3   OH258423   4.976   3.157   0.730
12311TIP3    H158424   4.989   3.062   0.728
12311TIP3    H258425   4.887   3.170   0.698
12312TIP3   OH258426   3.973   3.828  15.107
12312TIP3    H158427   3.943   3.740  15.130
12312TIP3    H258428   3.896   3.884  15.120
12313TIP3   OH258429   3.911   6.014   4.267
12313TIP3    H158430   3.946   6.077   4.330
12313TIP3    H258431   3.961   5.934   4.283
12314TIP3   OH258432   3.082   4.530   4.492
12314TIP3    H158433   3.079   4.601   4.557
12314TIP3    H258434   3.018   4.467   4.522
12315TIP3   OH258435   2.781   6.520  10.656
12315TIP3    H158436   2.725   6.542  10.730
12315TIP3    H258437   2.820   6.435  10.679
12316TIP3   OH258438   0.893   1.621   2.401
12316TIP3    H158439   0.838   1.545   2.381
12316TIP3    H258440   0.976   1.602   2.357
12317TIP3   OH258441   3.553   0.389   4.748
12317TIP3    H158442   3.505   0.471   4.754
12317TIP3    H258443   3.539   0.347   4.834
12318TIP3   OH258444   5.223   1.637  16.902
12318TIP3    H158445   5.153   1.601  16.956
12318TIP3    H258446   5.267   1.560  16.865
12319TIP3   OH258447   2.120   3.476   0.335
12319TIP3    H158448   2.065   3.507   0.406
12319TIP3    H258449   2.187   3.544   0.324
12320TIP3   OH258450   6.033   1.495   2.265
12320TIP3    H158451   5.993   1.408   2.272
12320TIP3    H258452   6.073   1.509   2.351
12321TIP3   OH258453   3.976   0.767  16.430
12321TIP3    H158454   3.923   0.783  16.352
12321TIP3    H258455   3.949   0.834  16.492
12322TIP3   OH258456   0.054   2.472   4.022
12322TIP3    H158457   0.134   2.503   4.064
12322TIP3    H258458   0.075   2.471   3.928
12323TIP3   OH258459   0.018   6.256  16.373
12323TIP3    H158460  -0.077   6.269  16.378
12323TIP3    H258461   0.036   6.188  16.438
12324TIP3   OH258462   0.874   4.156  16.614
12324TIP3    H158463   0.861   4.233  16.669
12324TIP3    H258464   0.965   4.161  16.586
12325TIP3   OH258465   2.285   5.660  15.614
12325TIP3    H158466   2.294   5.744  15.569
12325TIP3    H258467   2.360   5.657  15.674
12326TIP3   OH258468   3.317   6.259  12.373
12326TIP3    H158469   3.360   6.189  12.422
12326TIP3    H258470   3.382   6.329  12.370
12327TIP3   OH258471   4.551   2.730  16.189
12327TIP3    H158472   4.591   2.648  16.215
12327TIP3    H258473   4.558   2.731  16.093
12328TIP3   OH258474   0.599   0.959   2.445
12328TIP3    H158475   0.553   0.934   2.365
12328TIP3    H258476   0.556   1.039   2.474
12329TIP3   OH258477   5.256   2.257   4.401
12329TIP3    H158478   5.281   2.281   4.312
12329TIP3    H258479   5.289   2.328   4.456
12330TIP3   OH258480   2.464   4.718  14.330
12330TIP3    H158481   2.502   4.737  14.416
12330TIP3    H258482   2.402   4.647  14.346
12331TIP3   OH258483   3.646   0.318   5.150
12331TIP3    H158484   3.575   0.297   5.089
12331TIP3    H258485   3.726   0.297   5.102
12332TIP3   OH258486   5.843   0.448   0.998
12332TIP3    H158487   5.794   0.517   1.043
12332TIP3    H258488   5.805   0.366   1.030
12333TIP3   OH258489   2.992   1.960   5.628
12333TIP3    H158490   3.071   2.009   5.606
12333TIP3    H258491   3.002   1.939   5.722
12334TIP3   OH258492   4.298   5.125  14.471
12334TIP3    H158493   4.270   5.110  14.562
12334TIP3    H258494   4.382   5.169  14.480
12335TIP3   OH258495   1.571   0.813  15.615
12335TIP3    H158496   1.565   0.768  15.531
12335TIP3    H258497   1.543   0.747  15.679
12336TIP3   OH258498   0.823   2.256   3.548
12336TIP3    H158499   0.898   2.203   3.521
12336TIP3    H258500   0.841   2.280   3.639
12337TIP3   OH258501   3.425   0.589   4.367
12337TIP3    H158502   3.341   0.573   4.410
12337TIP3    H258503   3.405   0.584   4.273
12338TIP3   OH258504   3.330   6.578   2.164
12338TIP3    H158505   3.259   6.636   2.190
12338TIP3    H258506   3.390   6.635   2.115
12339TIP3   OH258507   3.431   3.005   0.669
12339TIP3    H158508   3.409   2.953   0.746
12339TIP3    H258509   3.527   3.008   0.668
12340TIP3   OH258510   2.708   6.603  14.628
12340TIP3    H158511   2.773   6.532  14.631
12340TIP3    H258512   2.760   6.683  14.626
12341TIP3   OH258513   6.393   0.442  14.996
12341TIP3    H158514   6.379   0.423  14.903
12341TIP3    H258515   6.307   0.471  15.027
12342TIP3   OH258516   0.287   4.581  13.365
12342TIP3    H158517   0.194   4.569  13.345
12342TIP3    H258518   0.290   4.659  13.419
12343TIP3   OH258519   1.898   6.607  12.049
12343TIP3    H158520   1.914   6.689  12.002
12343TIP3    H258521   1.985   6.568  12.061
12344TIP3   OH258522   5.381   1.285   3.343
12344TIP3    H158523   5.349   1.236   3.418
12344TIP3    H258524   5.312   1.277   3.277
12345TIP3   OH258525   3.558   2.140   3.586
12345TIP3    H158526   3.470   2.121   3.554
12345TIP3    H258527   3.583   2.221   3.541
12346TIP3   OH258528   3.655   3.268  12.102
12346TIP3    H158529   3.584   3.270  12.166
12346TIP3    H258530   3.630   3.332  12.036
12347TIP3   OH258531   6.251   0.106  12.059
12347TIP3    H158532   6.297   0.094  11.976
12347TIP3    H258533   6.299   0.175  12.104
12348TIP3   OH258534   6.752   5.849  15.980
12348TIP3    H158535   6.738   5.799  15.899
12348TIP3    H258536   6.756   5.940  15.951
12349TIP3   OH258537   2.324   6.172   4.914
12349TIP3    H158538   2.272   6.141   4.988
12349TIP3    H258539   2.284   6.255   4.889
12350TIP3   OH258540   2.411   4.630  16.875
12350TIP3    H158541   2.331   4.623  16.927
12350TIP3    H258542   2.408   4.719  16.838
12351TIP3   OH258543   1.686   0.124  15.741
12351TIP3    H158544   1.780   0.120  15.727
12351TIP3    H258545   1.661   0.212  15.713
12352TIP3   OH258546   4.317   0.948   5.965
12352TIP3    H158547   4.285   1.038   5.965
12352TIP3    H258548   4.240   0.895   5.945
12353TIP3   OH258549   3.267   3.953   6.345
12353TIP3    H158550   3.341   3.917   6.394
12353TIP3    H258551   3.287   4.046   6.335
12354TIP3   OH258552   1.861   1.262   4.861
12354TIP3    H158553   1.942   1.304   4.834
12354TIP3    H258554   1.801   1.276   4.788
12355TIP3   OH258555   3.203   0.624  13.508
12355TIP3    H158556   3.133   0.625  13.574
12355TIP3    H258557   3.214   0.531  13.487
12356TIP3   OH258558   0.842   4.738  13.032
12356TIP3    H158559   0.844   4.734  13.128
12356TIP3    H258560   0.876   4.826  13.011
12357TIP3   OH258561   2.228   3.950  13.498
12357TIP3    H158562   2.137   3.946  13.527
12357TIP3    H258563   2.224   3.933  13.404
12358TIP3   OH258564   6.495   2.355  14.480
12358TIP3    H158565   6.584   2.322  14.495
12358TIP3    H258566   6.500   2.448  14.506
12359TIP3   OH258567   0.562   0.755   6.159
12359TIP3    H158568   0.614   0.752   6.240
12359TIP3    H258569   0.472   0.743   6.188
12360TIP3   OH258570   6.657   2.735   3.471
12360TIP3    H158571   6.743   2.746   3.510
12360TIP3    H258572   6.601   2.705   3.543
12361TIP3   OH258573   4.663   5.440   3.090
12361TIP3    H158574   4.660   5.471   3.180
12361TIP3    H258575   4.742   5.479   3.053
12362TIP3   OH258576   2.731   4.412   4.938
12362TIP3    H158577   2.695   4.404   4.850
12362TIP3    H258578   2.672   4.474   4.982
12363TIP3   OH258579   0.572   3.837  16.474
12363TIP3    H158580   0.635   3.889  16.423
12363TIP3    H258581   0.487   3.876  16.455
12364TIP3   OH258582   6.116   6.764  11.339
12364TIP3    H158583   6.076   6.714  11.411
12364TIP3    H258584   6.115   6.703  11.265
12365TIP3   OH258585   2.125   5.611   6.297
12365TIP3    H158586   2.062   5.662   6.246
12365TIP3    H258587   2.082   5.595   6.380
12366TIP3   OH258588   4.351   6.573   4.717
12366TIP3    H158589   4.370   6.667   4.727
12366TIP3    H258590   4.408   6.530   4.781
12367TIP3   OH258591   5.419   6.732   2.360
12367TIP3    H158592   5.413   6.646   2.402
12367TIP3    H258593   5.437   6.713   2.269
12368TIP3   OH258594   0.511   1.952  11.091
12368TIP3    H158595   0.540   2.039  11.116
12368TIP3    H258596   0.482   1.961  11.000
12369TIP3   OH258597   3.767   6.766   2.525
12369TIP3    H158598   3.855   6.751   2.561
12369TIP3    H258599   3.773   6.853   2.485
12370TIP3   OH258600   3.526   6.601  11.853
12370TIP3    H158601   3.460   6.639  11.911
12370TIP3    H258602   3.580   6.546  11.910
12371TIP3   OH258603   4.443   0.485  16.328
12371TIP3    H158604   4.403   0.559  16.373
12371TIP3    H258605   4.523   0.520  16.288
12372TIP3   OH258606   5.374   4.274   1.152
12372TIP3    H158607   5.316   4.350   1.146
12372TIP3    H258608   5.334   4.209   1.093
12373TIP3   OH258609   2.579   0.080   1.512
12373TIP3    H158610   2.619   0.004   1.470
12373TIP3    H258611   2.513   0.044   1.571
12374TIP3   OH258612   2.601   5.033  12.365
12374TIP3    H158613   2.646   4.977  12.429
12374TIP3    H258614   2.667   5.050  12.298
12375TIP3   OH258615   6.092   1.846  11.426
12375TIP3    H158616   6.027   1.878  11.364
12375TIP3    H258617   6.091   1.910  11.497
12376TIP3   OH258618   3.858   2.192   1.765
12376TIP3    H158619   3.794   2.216   1.831
12376TIP3    H258620   3.933   2.159   1.815
12377TIP3   OH258621   4.376   0.923  12.052
12377TIP3    H158622   4.323   0.911  12.131
12377TIP3    H258623   4.344   0.857  11.991
12378TIP3   OH258624   3.677   4.652   4.107
12378TIP3    H158625   3.736   4.600   4.053
12378TIP3    H258626   3.590   4.635   4.070
12379TIP3   OH258627   5.145   5.224   3.097
12379TIP3    H158628   5.125   5.165   3.024
12379TIP3    H258629   5.159   5.165   3.172
12380TIP3   OH258630   1.195   4.964  15.690
12380TIP3    H158631   1.136   5.039  15.679
12380TIP3    H258632   1.219   4.939  15.601
12381TIP3   OH258633   5.471   4.424   1.811
12381TIP3    H158634   5.387   4.419   1.857
12381TIP3    H258635   5.450   4.409   1.719
12382TIP3   OH258636   3.407   5.155   4.520
12382TIP3    H158637   3.382   5.235   4.567
12382TIP3    H258638   3.477   5.116   4.573
12383TIP3   OH258639   4.435   2.575  12.664
12383TIP3    H158640   4.391   2.655  12.695
12383TIP3    H258641   4.525   2.585  12.694
12384TIP3   OH258642   5.705   2.501  15.781
12384TIP3    H158643   5.799   2.483  15.785
12384TIP3    H258644   5.691   2.574  15.841
12385TIP3   OH258645   3.430   4.541   5.287
12385TIP3    H158646   3.407   4.481   5.359
12385TIP3    H258647   3.451   4.483   5.214
12386TIP3   OH258648   6.006   6.088  12.931
12386TIP3    H158649   6.009   6.008  12.878
12386TIP3    H258650   5.913   6.112  12.933
12387TIP3   OH258651   6.412   6.024   4.628
12387TIP3    H158652   6.486   5.972   4.661
12387TIP3    H258653   6.424   6.110   4.668
12388TIP3   OH258654   3.231   4.729  15.167
12388TIP3    H158655   3.159   4.792  15.163
12388TIP3    H258656   3.309   4.782  15.186
12389TIP3   OH258657   1.904   3.102  12.448
12389TIP3    H158658   1.886   3.077  12.357
12389TIP3    H258659   1.999   3.096  12.456
12390TIP3   OH258660   5.687   0.780   2.398
12390TIP3    H158661   5.657   0.731   2.322
12390TIP3    H258662   5.608   0.816   2.437
12391TIP3   OH258663   3.223   4.589  14.110
12391TIP3    H158664   3.239   4.496  14.124
12391TIP3    H258665   3.257   4.607  14.022
12392TIP3   OH258666   0.806   3.189  10.511
12392TIP3    H158667   0.754   3.245  10.569
12392TIP3    H258668   0.830   3.114  10.566
12393TIP3   OH258669   4.763   4.364   2.260
12393TIP3    H158670   4.852   4.383   2.290
12393TIP3    H258671   4.757   4.268   2.264
12394TIP3   OH258672   4.070   5.041  17.005
12394TIP3    H158673   4.136   5.049  16.936
12394TIP3    H258674   4.070   5.126  17.049
12395TIP3   OH258675   4.426   3.533  13.605
12395TIP3    H158676   4.399   3.567  13.690
12395TIP3    H258677   4.479   3.456  13.625
12396TIP3   OH258678   5.263   2.904   5.872
12396TIP3    H158679   5.317   2.852   5.813
12396TIP3    H258680   5.191   2.846   5.896
12397TIP3   OH258681   6.602   4.766   4.838
12397TIP3    H158682   6.588   4.858   4.860
12397TIP3    H258683   6.685   4.764   4.792
12398TIP3   OH258684   5.483   3.336   2.536
12398TIP3    H158685   5.494   3.297   2.623
12398TIP3    H258686   5.565   3.317   2.491
12399TIP3   OH258687   4.460   1.677  11.474
12399TIP3    H158688   4.389   1.622  11.505
12399TIP3    H258689   4.460   1.665  11.379
12400TIP3   OH258690   3.705   4.752   3.773
12400TIP3    H158691   3.708   4.805   3.852
12400TIP3    H258692   3.639   4.795   3.718
12401TIP3   OH258693   3.240   6.476  16.461
12401TIP3    H158694   3.176   6.425  16.511
12401TIP3    H258695   3.191   6.510  16.387
12402TIP3   OH258696   1.605   2.300  15.809
12402TIP3    H158697   1.655   2.343  15.740
12402TIP3    H258698   1.639   2.210  15.811
12403TIP3   OH258699   0.340   5.540   2.124
12403TIP3    H158700   0.306   5.484   2.054
12403TIP3    H258701   0.273   5.535   2.193
12404TIP3   OH258702   2.255   3.016   0.761
12404TIP3    H158703   2.336   2.966   0.769
12404TIP3    H258704   2.201   2.987   0.835
12405TIP3   OH258705   0.099   2.595  17.104
12405TIP3    H158706   0.024   2.634  17.148
12405TIP3    H258707   0.157   2.568  17.175
12406TIP3   OH258708   3.010   5.994   4.907
12406TIP3    H158709   3.040   6.029   4.823
12406TIP3    H258710   3.010   6.069   4.966
12407TIP3   OH258711   0.197   5.747  15.764
12407TIP3    H158712   0.166   5.668  15.809
12407TIP3    H258713   0.118   5.783  15.723
12408TIP3   OH258714   2.184   5.239  10.327
12408TIP3    H158715   2.139   5.155  10.315
12408TIP3    H258716   2.127   5.303  10.286
12409TIP3   OH258717   4.670   0.479  14.579
12409TIP3    H158718   4.608   0.417  14.615
12409TIP3    H258719   4.755   0.435  14.586
12410TIP3   OH258720   0.666   6.114   1.848
12410TIP3    H158721   0.580   6.111   1.807
12410TIP3    H258722   0.728   6.117   1.775
12411TIP3   OH258723   5.900   5.405  17.091
12411TIP3    H158724   5.992   5.385  17.106
12411TIP3    H258725   5.858   5.320  17.082
12412TIP3   OH258726   5.174   6.192   0.079
12412TIP3    H158727   5.246   6.148   0.034
12412TIP3    H258728   5.214   6.271   0.116
12413TIP3   OH258729   2.212   6.536  14.254
12413TIP3    H158730   2.195   6.621  14.295
12413TIP3    H258731   2.307   6.524  14.261
12414TIP3   OH258732   1.799   5.608  13.362
12414TIP3    H158733   1.859   5.645  13.427
12414TIP3    H258734   1.721   5.584  13.413
12415TIP3   OH258735   5.324   5.116  11.618
12415TIP3    H158736   5.288   5.134  11.705
12415TIP3    H258737   5.271   5.044  11.585
12416TIP3   OH258738   3.581   2.278   3.824
12416TIP3    H158739   3.557   2.229   3.903
12416TIP3    H258740   3.558   2.220   3.751
12417TIP3   OH258741   3.280   6.623  12.507
12417TIP3    H158742   3.251   6.701  12.553
12417TIP3    H258743   3.207   6.602  12.449
12418TIP3   OH258744   2.436   5.686   1.962
12418TIP3    H158745   2.526   5.673   1.933
12418TIP3    H258746   2.394   5.601   1.951
12419TIP3   OH258747   1.531   3.372   4.643
12419TIP3    H158748   1.481   3.367   4.562
12419TIP3    H258749   1.474   3.332   4.709
12420TIP3   OH258750   3.137   6.514  14.579
12420TIP3    H158751   3.204   6.567  14.536
12420TIP3    H258752   3.057   6.532  14.529
12421TIP3   OH258753   6.648   3.396   4.654
12421TIP3    H158754   6.559   3.419   4.628
12421TIP3    H258755   6.640   3.366   4.745
12422TIP3   OH258756   4.742   5.470   2.146
12422TIP3    H158757   4.685   5.465   2.069
12422TIP3    H258758   4.685   5.502   2.216
12423TIP3   OH258759   4.545   1.946   1.643
12423TIP3    H158760   4.569   1.970   1.554
12423TIP3    H258761   4.568   1.853   1.650
12424TIP3   OH258762   2.856   1.290  12.669
12424TIP3    H158763   2.858   1.196  12.652
12424TIP3    H258764   2.811   1.328  12.593
12425TIP3   OH258765   5.658   4.593   5.881
12425TIP3    H158766   5.585   4.620   5.826
12425TIP3    H258767   5.734   4.593   5.822
12426TIP3   OH258768   2.823   1.811  11.872
12426TIP3    H158769   2.804   1.796  11.779
12426TIP3    H258770   2.772   1.744  11.918
12427TIP3   OH258771   0.368   5.497  15.758
12427TIP3    H158772   0.457   5.488  15.725
12427TIP3    H258773   0.313   5.458  15.690
12428TIP3   OH258774   2.810   1.934   2.882
12428TIP3    H158775   2.870   1.879   2.831
12428TIP3    H258776   2.866   2.001   2.920
12429TIP3   OH258777   2.241   4.177  13.783
12429TIP3    H158778   2.149   4.150  13.791
12429TIP3    H258779   2.274   4.126  13.708
12430TIP3   OH258780   6.739   2.457   0.500
12430TIP3    H158781   6.829   2.429   0.483
12430TIP3    H258782   6.703   2.389   0.557
12431TIP3   OH258783   2.745   1.441   4.952
12431TIP3    H158784   2.664   1.433   4.901
12431TIP3    H258785   2.795   1.510   4.907
12432TIP3   OH258786   2.587   3.831   3.389
12432TIP3    H158787   2.605   3.819   3.482
12432TIP3    H258788   2.672   3.818   3.347
12433TIP3   OH258789   0.019   4.305  17.162
12433TIP3    H158790   0.069   4.380  17.192
12433TIP3    H258791   0.073   4.229  17.183
12434TIP3   OH258792   0.369   6.098  16.222
12434TIP3    H158793   0.329   6.027  16.272
12434TIP3    H258794   0.295   6.149  16.190
12435TIP3   OH258795   1.925   1.221  13.919
12435TIP3    H158796   2.006   1.197  13.875
12435TIP3    H258797   1.884   1.285  13.861
12436TIP3   OH258798   3.418   6.726   0.609
12436TIP3    H158799   3.360   6.657   0.577
12436TIP3    H258800   3.501   6.710   0.564
12437TIP3   OH258801   5.386   3.697   4.727
12437TIP3    H158802   5.456   3.757   4.702
12437TIP3    H258803   5.322   3.703   4.656
12438TIP3   OH258804   5.771   1.782  12.167
12438TIP3    H158805   5.751   1.743  12.082
12438TIP3    H258806   5.687   1.813  12.199
12439TIP3   OH258807   4.437   3.001  14.720
12439TIP3    H158808   4.412   2.916  14.756
12439TIP3    H258809   4.429   3.062  14.793
12440TIP3   OH258810   2.164   1.303   5.165
12440TIP3    H158811   2.169   1.248   5.243
12440TIP3    H258812   2.188   1.246   5.093
12441TIP3   OH258813   1.236   3.146   0.835
12441TIP3    H158814   1.277   3.083   0.776
12441TIP3    H258815   1.307   3.207   0.857
12442TIP3   OH258816   0.493   3.351   5.716
12442TIP3    H158817   0.501   3.308   5.801
12442TIP3    H258818   0.566   3.412   5.712
12443TIP3   OH258819   4.500   4.704  17.038
12443TIP3    H158820   4.564   4.710  17.109
12443TIP3    H258821   4.425   4.659  17.077
12444TIP3   OH258822   4.780   4.627  10.762
12444TIP3    H158823   4.836   4.671  10.698
12444TIP3    H258824   4.732   4.562  10.711
12445TIP3   OH258825   1.020   4.177  13.999
12445TIP3    H158826   1.035   4.181  14.093
12445TIP3    H258827   1.087   4.235  13.962
12446TIP3   OH258828   3.703   1.921  11.781
12446TIP3    H158829   3.636   1.974  11.739
12446TIP3    H258830   3.681   1.923  11.875
12447TIP3   OH258831   2.844   1.470   3.136
12447TIP3    H158832   2.871   1.408   3.203
12447TIP3    H258833   2.884   1.553   3.163
12448TIP3   OH258834   0.481   2.008   5.222
12448TIP3    H158835   0.394   2.048   5.218
12448TIP3    H258836   0.523   2.031   5.139
12449TIP3   OH258837   3.811   0.337  15.009
12449TIP3    H158838   3.765   0.397  15.067
12449TIP3    H258839   3.754   0.328  14.933
12450TIP3   OH258840   1.477   2.359  13.105
12450TIP3    H158841   1.383   2.373  13.117
12450TIP3    H258842   1.518   2.398  13.183
12451TIP3   OH258843   1.520   4.322   0.552
12451TIP3    H158844   1.543   4.311   0.644
12451TIP3    H258845   1.539   4.237   0.512
12452TIP3   OH258846   2.060   4.197   0.677
12452TIP3    H158847   2.115   4.199   0.755
12452TIP3    H258848   2.118   4.170   0.607
12453TIP3   OH258849   5.692   2.675  12.185
12453TIP3    H158850   5.623   2.700  12.124
12453TIP3    H258851   5.648   2.620  12.250
12454TIP3   OH258852   2.946   2.433   5.292
12454TIP3    H158853   2.856   2.416   5.320
12454TIP3    H258854   2.999   2.417   5.370
12455TIP3   OH258855   6.562   6.027  14.174
12455TIP3    H158856   6.651   6.045  14.143
12455TIP3    H258857   6.506   6.076  14.113
12456TIP3   OH258858   3.886   5.828   5.497
12456TIP3    H158859   3.862   5.884   5.423
12456TIP3    H258860   3.847   5.871   5.574
12457TIP3   OH258861   3.548   2.539   3.231
12457TIP3    H158862   3.562   2.633   3.234
12457TIP3    H258863   3.453   2.528   3.239
12458TIP3   OH258864   5.837   3.728   2.358
12458TIP3    H158865   5.794   3.736   2.273
12458TIP3    H258866   5.921   3.687   2.338
12459TIP3   OH258867   2.677   2.904  15.344
12459TIP3    H158868   2.663   2.878  15.435
12459TIP3    H258869   2.695   2.998  15.348
12460TIP3   OH258870   1.495   6.278   6.334
12460TIP3    H158871   1.441   6.356   6.347
12460TIP3    H258872   1.441   6.206   6.365
12461TIP3   OH258873   4.672   2.575  12.925
12461TIP3    H158874   4.635   2.517  12.992
12461TIP3    H258875   4.685   2.519  12.849
12462TIP3   OH258876   5.898   3.440  15.570
12462TIP3    H158877   5.893   3.535  15.585
12462TIP3    H258878   5.809   3.409  15.589
12463TIP3   OH258879   0.488   2.764  12.372
12463TIP3    H158880   0.568   2.745  12.324
12463TIP3    H258881   0.517   2.804  12.453
12464TIP3   OH258882   3.318   0.301   3.619
12464TIP3    H158883   3.344   0.209   3.620
12464TIP3    H258884   3.250   0.306   3.552
12465TIP3   OH258885   0.075   6.756  16.380
12465TIP3    H158886   0.090   6.678  16.434
12465TIP3    H258887  -0.014   6.745  16.347
12466TIP3   OH258888   1.844   6.754   2.047
12466TIP3    H158889   1.835   6.802   1.965
12466TIP3    H258890   1.894   6.676   2.023
12467TIP3   OH258891   6.377   1.843   2.862
12467TIP3    H158892   6.463   1.871   2.894
12467TIP3    H258893   6.333   1.810   2.940
12468TIP3   OH258894   2.466   4.484   1.518
12468TIP3    H158895   2.493   4.404   1.563
12468TIP3    H258896   2.528   4.550   1.549
12469TIP3   OH258897   1.741   6.328   2.053
12469TIP3    H158898   1.766   6.236   2.059
12469TIP3    H258899   1.645   6.326   2.051
12470TIP3   OH258900   5.080   5.947  12.361
12470TIP3    H158901   5.033   5.986  12.435
12470TIP3    H258902   5.014   5.941  12.292
12471TIP3   OH258903   5.119   2.827   4.535
12471TIP3    H158904   5.043   2.829   4.594
12471TIP3    H258905   5.126   2.916   4.501
12472TIP3   OH258906   3.440   2.205   5.848
12472TIP3    H158907   3.499   2.163   5.911
12472TIP3    H258908   3.356   2.161   5.862
12473TIP3   OH258909   1.956   4.642  14.164
12473TIP3    H158910   1.951   4.626  14.070
12473TIP3    H258911   2.037   4.693  14.175
12474TIP3   OH258912   2.715   6.338   2.229
12474TIP3    H158913   2.793   6.284   2.214
12474TIP3    H258914   2.750   6.425   2.248
12475TIP3   OH258915   6.503   0.129  12.818
12475TIP3    H158916   6.468   0.106  12.904
12475TIP3    H258917   6.464   0.066  12.758
12476TIP3   OH258918   5.349   1.059  12.748
12476TIP3    H158919   5.415   1.123  12.721
12476TIP3    H258920   5.266   1.095  12.715
12477TIP3   OH258921   1.465   2.459  15.599
12477TIP3    H158922   1.448   2.375  15.642
12477TIP3    H258923   1.379   2.500  15.592
12478TIP3   OH258924   2.232   1.000   3.076
12478TIP3    H158925   2.269   0.960   3.155
12478TIP3    H258926   2.169   1.064   3.109
12479TIP3   OH258927   4.667   1.572  13.532
12479TIP3    H158928   4.697   1.591  13.443
12479TIP3    H258929   4.731   1.509  13.565
12480TIP3   OH258930   4.779   3.718   5.164
12480TIP3    H158931   4.765   3.715   5.259
12480TIP3    H258932   4.873   3.727   5.154
12481TIP3   OH258933   5.951   3.974   1.432
12481TIP3    H158934   6.018   3.911   1.460
12481TIP3    H258935   5.870   3.940   1.469
12482TIP3   OH258936   1.519   5.628   3.007
12482TIP3    H158937   1.433   5.668   3.023
12482TIP3    H258938   1.572   5.700   2.972
12483TIP3   OH258939   1.795   4.651   4.034
12483TIP3    H158940   1.862   4.585   4.014
12483TIP3    H258941   1.723   4.602   4.072
12484TIP3   OH258942   4.787   2.329   4.785
12484TIP3    H158943   4.798   2.307   4.692
12484TIP3    H258944   4.780   2.244   4.829
12485TIP3   OH258945   0.841   3.535  16.625
12485TIP3    H158946   0.761   3.486  16.645
12485TIP3    H258947   0.850   3.528  16.530
12486TIP3   OH258948   3.903   0.339  14.244
12486TIP3    H158949   3.880   0.426  14.212
12486TIP3    H258950   3.849   0.279  14.193
12487TIP3   OH258951   0.963   4.769   1.321
12487TIP3    H158952   1.048   4.727   1.330
12487TIP3    H258953   0.974   4.855   1.361
12488TIP3   OH258954   1.981   4.443  14.386
12488TIP3    H158955   1.942   4.512  14.332
12488TIP3    H258956   1.920   4.370  14.381
12489TIP3   OH258957   6.285   3.011  11.061
12489TIP3    H158958   6.243   2.929  11.037
12489TIP3    H258959   6.291   3.060  10.979
12490TIP3   OH258960   0.351   3.589   5.602
12490TIP3    H158961   0.305   3.505   5.599
12490TIP3    H258962   0.437   3.568   5.638
12491TIP3   OH258963   0.315   5.053  16.786
12491TIP3    H158964   0.343   5.129  16.837
12491TIP3    H258965   0.395   5.001  16.777
12492TIP3   OH258966   3.306   3.235   0.403
12492TIP3    H158967   3.217   3.265   0.422
12492TIP3    H258968   3.297   3.141   0.388
12493TIP3   OH258969   6.436   6.790  13.046
12493TIP3    H158970   6.431   6.700  13.014
12493TIP3    H258971   6.345   6.816  13.060
12494TIP3   OH258972   2.314   5.363   2.253
12494TIP3    H158973   2.303   5.382   2.160
12494TIP3    H258974   2.374   5.289   2.256
12495TIP3   OH258975   1.246   2.752   2.505
12495TIP3    H158976   1.284   2.834   2.537
12495TIP3    H258977   1.158   2.749   2.544
12496TIP3   OH258978   2.451   3.643  12.701
12496TIP3    H158979   2.400   3.713  12.742
12496TIP3    H258980   2.434   3.566  12.756
12497TIP3   OH258981   3.976   2.248   0.014
12497TIP3    H158982   4.051   2.206  -0.028
12497TIP3    H258983   3.993   2.342   0.005
12498TIP3   OH258984   5.638   0.187   0.879
12498TIP3    H158985   5.648   0.235   0.797
12498TIP3    H258986   5.544   0.195   0.899
12499TIP3   OH258987   0.432   5.457  12.858
12499TIP3    H158988   0.473   5.428  12.940
12499TIP3    H258989   0.339   5.460  12.878
12500TIP3   OH258990   3.793   1.162   3.771
12500TIP3    H158991   3.875   1.211   3.779
12500TIP3    H258992   3.739   1.193   3.844
12501TIP3   OH258993   3.759   3.559  16.890
12501TIP3    H158994   3.676   3.607  16.884
12501TIP3    H258995   3.734   3.467  16.888
12502TIP3   OH258996   5.219   5.420  11.236
12502TIP3    H158997   5.154   5.454  11.298
12502TIP3    H258998   5.168   5.400  11.157
12503TIP3   OH258999   4.568   1.633  15.669
12503TIP3    H159000   4.556   1.634  15.764
12503TIP3    H259001   4.479   1.637  15.634
12504TIP3   OH259002   6.745   4.788  15.497
12504TIP3    H159003   6.688   4.863  15.478
12504TIP3    H259004   6.711   4.717  15.442
12505TIP3   OH259005   1.948   3.193  11.213
12505TIP3    H159006   1.876   3.251  11.238
12505TIP3    H259007   1.934   3.177  11.119
12506TIP3   OH259008   4.169   1.601   4.382
12506TIP3    H159009   4.100   1.539   4.359
12506TIP3    H259010   4.168   1.666   4.311
12507TIP3   OH259011   5.490   4.363  12.647
12507TIP3    H159012   5.444   4.285  12.617
12507TIP3    H259013   5.583   4.337  12.647
12508TIP3   OH259014   1.751   5.061  13.947
12508TIP3    H159015   1.731   4.969  13.966
12508TIP3    H259016   1.666   5.099  13.923
12509TIP3   OH259017   0.636   3.922   1.505
12509TIP3    H159018   0.707   3.891   1.561
12509TIP3    H259019   0.567   3.856   1.515
12510TIP3   OH259020   4.282   4.221   5.576
12510TIP3    H159021   4.193   4.215   5.543
12510TIP3    H259022   4.315   4.131   5.573
12511TIP3   OH259023   1.806   0.996   1.540
12511TIP3    H159024   1.812   1.042   1.457
12511TIP3    H259025   1.826   0.904   1.519
12512TIP3   OH259026   3.929   1.814  13.801
12512TIP3    H159027   3.841   1.814  13.766
12512TIP3    H259028   3.986   1.796  13.726
12513TIP3   OH259029   5.568   6.061  16.560
12513TIP3    H159030   5.507   6.034  16.491
12513TIP3    H259031   5.514   6.065  16.639
12514TIP3   OH259032   6.469   1.400  15.886
12514TIP3    H159033   6.440   1.410  15.795
12514TIP3    H259034   6.497   1.309  15.893
12515TIP3   OH259035   5.596   2.976  15.127
12515TIP3    H159036   5.614   3.019  15.211
12515TIP3    H259037   5.511   2.934  15.139
12516TIP3   OH259038   0.601   2.856  15.573
12516TIP3    H159039   0.608   2.771  15.617
12516TIP3    H259040   0.673   2.908  15.609
12517TIP3   OH259041   2.025   4.548  12.062
12517TIP3    H159042   1.937   4.511  12.075
12517TIP3    H259043   2.020   4.634  12.103
12518TIP3   OH259044   3.545   4.331  11.861
12518TIP3    H159045   3.639   4.327  11.878
12518TIP3    H259046   3.518   4.240  11.855
12519TIP3   OH259047   2.560   3.266  16.093
12519TIP3    H159048   2.519   3.302  16.172
12519TIP3    H259049   2.560   3.172  16.107
12520TIP3   OH259050   1.123   4.887  17.060
12520TIP3    H159051   1.186   4.919  16.995
12520TIP3    H259052   1.173   4.882  17.141
12521TIP3   OH259053   3.394   4.088  11.985
12521TIP3    H159054   3.359   4.148  12.050
12521TIP3    H259055   3.433   4.017  12.035
12522TIP3   OH259056   5.836   0.730  14.313
12522TIP3    H159057   5.840   0.792  14.240
12522TIP3    H259058   5.748   0.693  14.308
12523TIP3   OH259059   5.881   2.731  14.481
12523TIP3    H159060   5.810   2.714  14.543
12523TIP3    H259061   5.837   2.776  14.408
12524TIP3   OH259062   0.617   1.172   5.169
12524TIP3    H159063   0.669   1.236   5.218
12524TIP3    H259064   0.604   1.099   5.231
12525TIP3   OH259065   0.247   2.944  11.165
12525TIP3    H159066   0.248   3.037  11.188
12525TIP3    H259067   0.293   2.901  11.237
12526TIP3   OH259068   4.073   2.889   5.282
12526TIP3    H159069   4.000   2.939   5.320
12526TIP3    H259070   4.078   2.811   5.337
12527TIP3   OH259071   4.931   3.489  12.740
12527TIP3    H159072   4.838   3.478  12.719
12527TIP3    H259073   4.949   3.581  12.720
12528TIP3   OH259074   4.702   0.675  14.410
12528TIP3    H159075   4.729   0.627  14.332
12528TIP3    H259076   4.679   0.607  14.473
12529TIP3   OH259077   1.376   0.886   0.988
12529TIP3    H159078   1.383   0.980   1.005
12529TIP3    H259079   1.283   0.867   1.001
12530TIP3   OH259080   1.391   2.436   3.667
12530TIP3    H159081   1.380   2.414   3.574
12530TIP3    H259082   1.306   2.419   3.706
12531TIP3   OH259083   2.540   2.684  14.615
12531TIP3    H159084   2.629   2.691  14.578
12531TIP3    H259085   2.554   2.678  14.709
12532TIP3   OH259086   4.734   5.176  17.078
12532TIP3    H159087   4.731   5.114  17.151
12532TIP3    H259088   4.813   5.152  17.029
12533TIP3   OH259089   0.114   4.585   5.047
12533TIP3    H159090   0.115   4.576   4.952
12533TIP3    H259091   0.186   4.529   5.077
12534TIP3   OH259092   4.239   4.483  12.828
12534TIP3    H159093   4.159   4.436  12.852
12534TIP3    H259094   4.211   4.572  12.810
12535TIP3   OH259095   3.962   4.016  17.080
12535TIP3    H159096   3.911   4.096  17.066
12535TIP3    H259097   4.015   4.008  17.001
12536TIP3   OH259098   1.374   4.132  13.223
12536TIP3    H159099   1.301   4.152  13.282
12536TIP3    H259100   1.347   4.053  13.177
12537TIP3   OH259101   5.177   2.488   2.510
12537TIP3    H159102   5.140   2.573   2.485
12537TIP3    H259103   5.169   2.434   2.432
12538TIP3   OH259104   1.373   3.059  13.643
12538TIP3    H159105   1.297   3.110  13.669
12538TIP3    H259106   1.388   2.999  13.716
12539TIP3   OH259107   1.710   3.966   0.642
12539TIP3    H159108   1.644   3.939   0.706
12539TIP3    H259109   1.659   4.007   0.571
12540TIP3   OH259110   5.912   5.059   5.078
12540TIP3    H159111   5.950   5.029   4.994
12540TIP3    H259112   5.918   4.982   5.135
12541TIP3   OH259113   6.517   5.141  12.929
12541TIP3    H159114   6.452   5.096  12.876
12541TIP3    H259115   6.578   5.179  12.865
12542TIP3   OH259116   3.340   6.187   4.165
12542TIP3    H159117   3.288   6.232   4.232
12542TIP3    H259118   3.429   6.220   4.178
12543TIP3   OH259119   5.030   5.430   2.195
12543TIP3    H159120   5.089   5.472   2.132
12543TIP3    H259121   4.943   5.465   2.173
12544TIP3   OH259122   5.647   3.345   1.171
12544TIP3    H159123   5.703   3.366   1.096
12544TIP3    H259124   5.609   3.260   1.150
12545TIP3   OH259125   5.409   1.520  15.974
12545TIP3    H159126   5.372   1.477  15.897
12545TIP3    H259127   5.485   1.466  15.997
12546TIP3   OH259128   6.537   2.145  10.767
12546TIP3    H159129   6.616   2.092  10.756
12546TIP3    H259130   6.465   2.085  10.745
12547TIP3   OH259131   0.659   4.941   2.179
12547TIP3    H159132   0.596   4.876   2.147
12547TIP3    H259133   0.636   4.952   2.272
12548TIP3   OH259134   1.565   2.443   2.848
12548TIP3    H159135   1.514   2.408   2.775
12548TIP3    H259136   1.565   2.538   2.834
12549TIP3   OH259137   3.584   0.013  10.932
12549TIP3    H159138   3.505   0.066  10.931
12549TIP3    H259139   3.563  -0.063  10.878
12550TIP3   OH259140   4.324   1.153  11.388
12550TIP3    H159141   4.315   1.144  11.293
12550TIP3    H259142   4.251   1.103  11.424
12551TIP3   OH259143   3.186   1.043  11.608
12551TIP3    H159144   3.245   1.067  11.678
12551TIP3    H259145   3.149   1.126  11.577
12552TIP3   OH259146   5.096   3.882   4.074
12552TIP3    H159147   5.009   3.916   4.056
12552TIP3    H259148   5.148   3.959   4.095
12553TIP3   OH259149   5.127   5.400   0.815
12553TIP3    H159150   5.076   5.356   0.747
12553TIP3    H259151   5.071   5.472   0.843
12554TIP3   OH259152   4.673   2.038  14.056
12554TIP3    H159153   4.624   1.974  14.108
12554TIP3    H259154   4.676   2.116  14.110
12555TIP3   OH259155   3.830   2.098   3.993
12555TIP3    H159156   3.816   2.192   4.005
12555TIP3    H259157   3.839   2.086   3.899
12556TIP3   OH259158   1.406   2.298   4.116
12556TIP3    H159159   1.466   2.358   4.161
12556TIP3    H259160   1.398   2.223   4.175
12557TIP3   OH259161   5.844   6.158   1.999
12557TIP3    H159162   5.895   6.212   1.938
12557TIP3    H259163   5.783   6.220   2.040
12558TIP3   OH259164   0.541   2.476  11.347
12558TIP3    H159165   0.511   2.502  11.260
12558TIP3    H259166   0.605   2.542  11.371
12559TIP3   OH259167   5.566   1.411  17.257
12559TIP3    H159168   5.471   1.407  17.272
12559TIP3    H259169   5.602   1.345  17.316
12560TIP3   OH259170   1.244   6.548  12.724
12560TIP3    H159171   1.326   6.539  12.676
12560TIP3    H259172   1.252   6.488  12.798
12561TIP3   OH259173   4.101   1.164   6.532
12561TIP3    H159174   4.179   1.135   6.485
12561TIP3    H259175   4.091   1.256   6.507
12562TIP3   OH259176   2.110   6.779   2.810
12562TIP3    H159177   2.199   6.746   2.820
12562TIP3    H259178   2.092   6.773   2.716
12563TIP3   OH259179   5.660   2.586   5.268
12563TIP3    H159180   5.674   2.578   5.174
12563TIP3    H259181   5.576   2.633   5.275
12564TIP3   OH259182   4.736   3.012   1.511
12564TIP3    H159183   4.750   2.967   1.595
12564TIP3    H259184   4.793   3.089   1.516
12565TIP3   OH259185   6.081   1.347  12.373
12565TIP3    H159186   6.023   1.419  12.350
12565TIP3    H259187   6.026   1.269  12.373
12566TIP3   OH259188   2.842   6.371   1.466
12566TIP3    H159189   2.792   6.358   1.547
12566TIP3    H259190   2.798   6.316   1.402
12567TIP3   OH259191   6.239   6.508  14.608
12567TIP3    H159192   6.177   6.534  14.540
12567TIP3    H259193   6.291   6.586  14.625
12568TIP3   OH259194   1.714   3.139  11.022
12568TIP3    H159195   1.763   3.101  10.949
12568TIP3    H259196   1.636   3.176  10.982
12569TIP3   OH259197   5.465   2.628   2.269
12569TIP3    H159198   5.396   2.655   2.330
12569TIP3    H259199   5.534   2.694   2.280
12570TIP3   OH259200   5.453   0.177  13.008
12570TIP3    H159201   5.410   0.095  13.034
12570TIP3    H259202   5.542   0.150  12.984
12571TIP3   OH259203   5.200   3.744  13.526
12571TIP3    H159204   5.110   3.771  13.546
12571TIP3    H259205   5.227   3.802  13.455
12572TIP3   OH259206   0.393   5.185   4.071
12572TIP3    H159207   0.484   5.188   4.099
12572TIP3    H259208   0.374   5.091   4.060
12573TIP3   OH259209   4.466   0.377   3.416
12573TIP3    H159210   4.476   0.436   3.341
12573TIP3    H259211   4.464   0.290   3.378
12574TIP3   OH259212   2.587   6.592   0.649
12574TIP3    H159213   2.642   6.579   0.726
12574TIP3    H259214   2.540   6.509   0.638
12575TIP3   OH259215   6.703   5.794  11.970
12575TIP3    H159216   6.668   5.878  11.941
12575TIP3    H259217   6.683   5.791  12.063
12576TIP3   OH259218   4.610   0.995   4.161
12576TIP3    H159219   4.699   1.024   4.181
12576TIP3    H259220   4.557   1.073   4.171
12577TIP3   OH259221   0.007   5.693   6.448
12577TIP3    H159222  -0.037   5.664   6.528
12577TIP3    H259223   0.099   5.701   6.472
12578TIP3   OH259224   2.696   3.946  11.364
12578TIP3    H159225   2.659   4.027  11.329
12578TIP3    H259226   2.750   3.912  11.293
12579TIP3   OH259227   3.372   4.529  11.290
12579TIP3    H159228   3.318   4.464  11.245
12579TIP3    H259229   3.367   4.503  11.382
12580TIP3   OH259230   1.627   5.787   2.536
12580TIP3    H159231   1.679   5.866   2.541
12580TIP3    H259232   1.546   5.808   2.583
12581TIP3   OH259233   6.533   0.188   1.264
12581TIP3    H159234   6.495   0.155   1.183
12581TIP3    H259235   6.560   0.110   1.312
12582TIP3   OH259236   3.056   2.515  16.767
12582TIP3    H159237   3.047   2.471  16.682
12582TIP3    H259238   2.990   2.584  16.765
12583TIP3   OH259239   0.964   3.541  14.144
12583TIP3    H159240   0.872   3.544  14.120
12583TIP3    H259241   1.007   3.598  14.080
12584TIP3   OH259242   0.728   4.501   5.022
12584TIP3    H159243   0.733   4.537   4.933
12584TIP3    H259244   0.660   4.552   5.065
12585TIP3   OH259245   6.371   0.856   4.372
12585TIP3    H159246   6.424   0.786   4.334
12585TIP3    H259247   6.298   0.812   4.415
12586TIP3   OH259248   3.282   6.632  13.619
12586TIP3    H159249   3.295   6.644  13.713
12586TIP3    H259250   3.238   6.548  13.611
12587TIP3   OH259251   0.043   3.002   3.156
12587TIP3    H159252   0.014   2.911   3.155
12587TIP3    H259253   0.108   3.007   3.086
12588TIP3   OH259254   3.828   1.713  14.597
12588TIP3    H159255   3.803   1.664  14.518
12588TIP3    H259256   3.899   1.770  14.568
12589TIP3   OH259257   4.465   6.335   5.612
12589TIP3    H159258   4.507   6.304   5.532
12589TIP3    H259259   4.454   6.257   5.666
12590TIP3   OH259260   3.389   1.994  14.704
12590TIP3    H159261   3.435   2.023  14.783
12590TIP3    H259262   3.376   2.075  14.654
12591TIP3   OH259263   4.422   0.352  14.733
12591TIP3    H159264   4.355   0.294  14.697
12591TIP3    H259265   4.377   0.436  14.745
12592TIP3   OH259266   2.053   0.603   2.048
12592TIP3    H159267   2.105   0.645   1.980
12592TIP3    H259268   1.974   0.657   2.057
12593TIP3   OH259269   2.406   4.501   1.876
12593TIP3    H159270   2.418   4.454   1.958
12593TIP3    H259271   2.411   4.593   1.901
12594TIP3   OH259272   0.280   5.571  13.560
12594TIP3    H159273   0.280   5.479  13.583
12594TIP3    H259274   0.206   5.609  13.608
12595TIP3   OH259275   2.405   2.799  15.201
12595TIP3    H159276   2.481   2.781  15.256
12595TIP3    H259277   2.399   2.723  15.143
12596TIP3   OH259278   2.037   3.491  14.446
12596TIP3    H159279   2.115   3.501  14.500
12596TIP3    H259280   2.046   3.404  14.406
12597TIP3   OH259281   2.437   4.499   3.814
12597TIP3    H159282   2.424   4.593   3.828
12597TIP3    H259283   2.352   4.467   3.786
12598TIP3   OH259284   0.973   1.903  13.917
12598TIP3    H159285   1.020   1.819  13.913
12598TIP3    H259286   0.906   1.896  13.849
12599TIP3   OH259287   5.151   3.678  16.620
12599TIP3    H159288   5.184   3.602  16.572
12599TIP3    H259289   5.057   3.680  16.601
12600TIP3   OH259290   0.335   5.141  14.347
12600TIP3    H159291   0.414   5.194  14.353
12600TIP3    H259292   0.277   5.190  14.288
12601TIP3   OH259293   4.706   6.432   0.617
12601TIP3    H159294   4.612   6.420   0.606
12601TIP3    H259295   4.731   6.492   0.547
12602TIP3   OH259296   2.718   6.277   6.084
12602TIP3    H159297   2.626   6.258   6.104
12602TIP3    H259298   2.765   6.199   6.115
12603TIP3   OH259299   1.888   0.425   4.060
12603TIP3    H159300   1.844   0.496   4.013
12603TIP3    H259301   1.839   0.417   4.142
12604TIP3   OH259302   5.862   5.412   6.694
12604TIP3    H159303   5.808   5.340   6.726
12604TIP3    H259304   5.848   5.413   6.599
12605TIP3   OH259305   0.983   2.993   4.134
12605TIP3    H159306   0.958   3.055   4.203
12605TIP3    H259307   1.078   2.986   4.141
12606TIP3   OH259308   5.099   2.617   3.199
12606TIP3    H159309   5.145   2.691   3.239
12606TIP3    H259310   5.011   2.619   3.236
12607TIP3   OH259311   4.309   6.418  14.012
12607TIP3    H159312   4.364   6.496  14.004
12607TIP3    H259313   4.220   6.451  14.002
12608TIP3   OH259314   4.167   0.373  11.643
12608TIP3    H159315   4.202   0.395  11.557
12608TIP3    H259316   4.245   0.353  11.696
12609TIP3   OH259317   6.723   4.959  11.526
12609TIP3    H159318   6.777   4.905  11.583
12609TIP3    H259319   6.759   4.946  11.438
12610TIP3   OH259320   1.387   1.104   1.978
12610TIP3    H159321   1.367   1.040   2.047
12610TIP3    H259322   1.323   1.085   1.909
12611TIP3   OH259323   6.662   4.514  12.008
12611TIP3    H159324   6.584   4.507  12.062
12611TIP3    H259325   6.631   4.551  11.925
12612TIP3   OH259326   6.200   5.526  11.598
12612TIP3    H159327   6.136   5.565  11.538
12612TIP3    H259328   6.147   5.487  11.668
12613TIP3   OH259329   3.708   3.493  15.909
12613TIP3    H159330   3.714   3.427  15.840
12613TIP3    H259331   3.624   3.537  15.894
12614TIP3   OH259332   0.043   4.558  15.668
12614TIP3    H159333   0.034   4.641  15.621
12614TIP3    H259334   0.105   4.577  15.738
12615TIP3   OH259335   6.535   1.251  11.217
12615TIP3    H159336   6.594   1.247  11.142
12615TIP3    H259337   6.591   1.277  11.290
12616TIP3   OH259338   5.783   3.088  15.513
12616TIP3    H159339   5.869   3.083  15.553
12616TIP3    H259340   5.759   2.997  15.495
12617TIP3   OH259341   2.679   5.415  17.144
12617TIP3    H159342   2.759   5.377  17.106
12617TIP3    H259343   2.612   5.349  17.130
12618TIP3   OH259344   3.289   2.856  12.701
12618TIP3    H159345   3.375   2.863  12.659
12618TIP3    H259346   3.238   2.927  12.662
12619TIP3   OH259347   6.131   2.490  10.965
12619TIP3    H159348   6.190   2.418  10.945
12619TIP3    H259349   6.061   2.482  10.901
12620TIP3   OH259350   3.448   0.990  14.871
12620TIP3    H159351   3.443   0.921  14.937
12620TIP3    H259352   3.450   1.072  14.921
12621TIP3   OH259353   6.270   5.101  15.763
12621TIP3    H159354   6.185   5.060  15.783
12621TIP3    H259355   6.324   5.029  15.732
12622TIP3   OH259356   3.407   3.217  14.182
12622TIP3    H159357   3.401   3.166  14.263
12622TIP3    H259358   3.363   3.163  14.116
12623TIP3   OH259359   4.793   1.304   5.684
12623TIP3    H159360   4.868   1.364   5.687
12623TIP3    H259361   4.832   1.218   5.667
12624TIP3   OH259362   1.638   1.126  12.413
12624TIP3    H159363   1.617   1.220  12.418
12624TIP3    H259364   1.553   1.083  12.425
12625TIP3   OH259365   0.709   5.039   4.990
12625TIP3    H159366   0.798   5.008   4.973
12625TIP3    H259367   0.699   5.035   5.085
12626TIP3   OH259368   0.360   3.221   2.948
12626TIP3    H159369   0.340   3.130   2.924
12626TIP3    H259370   0.388   3.217   3.039
12627TIP3   OH259371   0.673   6.053   4.234
12627TIP3    H159372   0.695   5.991   4.164
12627TIP3    H259373   0.725   6.131   4.214
12628TIP3   OH259374   1.899   3.699  11.841
12628TIP3    H159375   1.857   3.620  11.807
12628TIP3    H259376   1.990   3.691  11.813
12629TIP3   OH259377   0.147   5.131   0.894
12629TIP3    H159378   0.204   5.068   0.850
12629TIP3    H259379   0.116   5.085   0.972
12630TIP3   OH259380   5.609   1.194  13.823
12630TIP3    H159381   5.701   1.213  13.838
12630TIP3    H259382   5.592   1.114  13.874
12631TIP3   OH259383   6.624   6.029   6.604
12631TIP3    H159384   6.601   6.002   6.515
12631TIP3    H259385   6.547   6.076   6.636
12632TIP3   OH259386   1.966   6.665   4.197
12632TIP3    H159387   1.944   6.673   4.105
12632TIP3    H259388   2.058   6.637   4.198
12633TIP3   OH259389   6.807   4.689   3.235
12633TIP3    H159390   6.846   4.606   3.262
12633TIP3    H259391   6.804   4.741   3.315
12634TIP3   OH259392   6.266   5.199  12.266
12634TIP3    H159393   6.217   5.252  12.204
12634TIP3    H259394   6.208   5.126  12.287
12635TIP3   OH259395   0.722   3.882  11.860
12635TIP3    H159396   0.737   3.961  11.911
12635TIP3    H259397   0.654   3.835  11.907
12636TIP3   OH259398   2.298   6.706   0.245
12636TIP3    H159399   2.343   6.708   0.161
12636TIP3    H259400   2.209   6.735   0.225
12637TIP3   OH259401   2.180   4.097  12.791
12637TIP3    H159402   2.236   4.020  12.782
12637TIP3    H259403   2.231   4.169  12.754
12638TIP3   OH259404   5.375   4.481   0.311
12638TIP3    H159405   5.313   4.428   0.261
12638TIP3    H259406   5.395   4.429   0.389
12639TIP3   OH259407   0.645   1.482   2.353
12639TIP3    H159408   0.586   1.510   2.423
12639TIP3    H259409   0.595   1.495   2.273
12640TIP3   OH259410   4.483   1.846  11.134
12640TIP3    H159411   4.431   1.925  11.119
12640TIP3    H259412   4.532   1.833  11.053
12641TIP3   OH259413   4.682   0.762   0.084
12641TIP3    H159414   4.712   0.673   0.065
12641TIP3    H259415   4.617   0.750   0.153
12642TIP3   OH259416   4.213   2.534   5.827
12642TIP3    H159417   4.140   2.534   5.889
12642TIP3    H259418   4.176   2.497   5.747
12643TIP3   OH259419   0.035   3.865  12.324
12643TIP3    H159420   0.017   3.887  12.232
12643TIP3    H259421   0.120   3.906  12.341
12644TIP3   OH259422   0.124   1.327  15.474
12644TIP3    H159423   0.146   1.279  15.395
12644TIP3    H259424   0.202   1.379  15.494
12645TIP3   OH259425   3.807   3.814   3.491
12645TIP3    H159426   3.760   3.781   3.567
12645TIP3    H259427   3.793   3.908   3.493
12646TIP3   OH259428   4.626   6.575   0.081
12646TIP3    H159429   4.643   6.499   0.136
12646TIP3    H259430   4.694   6.637   0.105
12647TIP3   OH259431   4.958   5.029   0.546
12647TIP3    H159432   4.920   4.943   0.529
12647TIP3    H259433   4.916   5.059   0.627
12648TIP3   OH259434   1.603   4.494  13.250
12648TIP3    H159435   1.626   4.414  13.203
12648TIP3    H259436   1.612   4.471  13.343
12649TIP3   OH259437   3.491   0.377   3.916
12649TIP3    H159438   3.511   0.408   4.004
12649TIP3    H259439   3.420   0.433   3.885
12650TIP3   OH259440   2.269   4.142   1.733
12650TIP3    H159441   2.345   4.151   1.791
12650TIP3    H259442   2.228   4.061   1.760
12651TIP3   OH259443   0.471   3.369   4.339
12651TIP3    H159444   0.380   3.392   4.357
12651TIP3    H259445   0.490   3.413   4.256
12652TIP3   OH259446   1.829   4.615  15.723
12652TIP3    H159447   1.757   4.678  15.720
12652TIP3    H259448   1.855   4.605  15.631
12653TIP3   OH259449   0.158   0.018   2.955
12653TIP3    H159450   0.149  -0.025   3.040
12653TIP3    H259451   0.071   0.012   2.916
12654TIP3   OH259452   3.900   4.973  15.519
12654TIP3    H159453   3.902   5.017  15.604
12654TIP3    H259454   3.856   4.890  15.536
12655TIP3   OH259455   3.509   3.390  14.598
12655TIP3    H159456   3.558   3.454  14.649
12655TIP3    H259457   3.574   3.349  14.540
12656TIP3   OH259458   5.153   1.303  12.901
12656TIP3    H159459   5.213   1.327  12.971
12656TIP3    H259460   5.180   1.356  12.826
12657TIP3   OH259461   1.151   5.221   4.855
12657TIP3    H159462   1.069   5.262   4.881
12657TIP3    H259463   1.171   5.258   4.769
12658TIP3   OH259464   4.248   2.378   4.818
12658TIP3    H159465   4.205   2.460   4.794
12658TIP3    H259466   4.305   2.358   4.744
12659TIP3   OH259467   5.697   1.966  16.687
12659TIP3    H159468   5.685   1.895  16.750
12659TIP3    H259469   5.691   2.046  16.740
12660TIP3   OH259470   2.874   3.855   0.248
12660TIP3    H159471   2.817   3.920   0.288
12660TIP3    H259472   2.894   3.890   0.161
12661TIP3   OH259473   4.535   5.925   1.168
12661TIP3    H159474   4.446   5.943   1.138
12661TIP3    H259475   4.552   5.835   1.141
12662TIP3   OH259476   0.275   5.523   4.455
12662TIP3    H159477   0.351   5.560   4.500
12662TIP3    H259478   0.311   5.459   4.394
12663TIP3   OH259479   4.258   5.728   1.948
12663TIP3    H159480   4.310   5.750   2.026
12663TIP3    H259481   4.188   5.794   1.946
12664TIP3   OH259482   4.374   4.004   3.821
12664TIP3    H159483   4.279   4.018   3.813
12664TIP3    H259484   4.397   4.046   3.904
12665TIP3   OH259485   3.046   4.273  12.830
12665TIP3    H159486   3.028   4.330  12.904
12665TIP3    H259487   2.987   4.303  12.761
12666TIP3   OH259488   5.854   0.347   5.223
12666TIP3    H159489   5.906   0.403   5.166
12666TIP3    H259490   5.825   0.406   5.294
12667TIP3   OH259491   2.207   2.741  16.995
12667TIP3    H159492   2.243   2.742  17.084
12667TIP3    H259493   2.212   2.649  16.968
12668TIP3   OH259494   4.729   3.189   0.654
12668TIP3    H159495   4.699   3.279   0.648
12668TIP3    H259496   4.763   3.169   0.567
12669TIP3   OH259497   2.511   1.513   2.067
12669TIP3    H159498   2.582   1.520   2.130
12669TIP3    H259499   2.550   1.470   1.991
12670TIP3   OH259500   0.788   3.752   0.606
12670TIP3    H159501   0.770   3.674   0.659
12670TIP3    H259502   0.871   3.734   0.563
12671TIP3   OH259503   2.629   5.218   4.070
12671TIP3    H159504   2.704   5.277   4.070
12671TIP3    H259505   2.598   5.219   4.161
12672TIP3   OH259506   2.755   0.987  14.604
12672TIP3    H159507   2.665   0.965  14.630
12672TIP3    H259508   2.803   0.994  14.687
12673TIP3   OH259509   3.988   5.932  12.641
12673TIP3    H159510   3.947   5.972  12.564
12673TIP3    H259511   3.966   5.839  12.635
12674TIP3   OH259512   6.216   4.109   5.207
12674TIP3    H159513   6.213   4.191   5.157
12674TIP3    H259514   6.306   4.104   5.238
12675TIP3   OH259515   1.208   5.098   5.214
12675TIP3    H159516   1.193   5.028   5.151
12675TIP3    H259517   1.295   5.132   5.192
12676TIP3   OH259518   4.805   3.024  10.999
12676TIP3    H159519   4.711   3.007  10.998
12676TIP3    H259520   4.845   2.939  10.983
12677TIP3   OH259521   5.965   5.687   5.582
12677TIP3    H159522   5.913   5.702   5.503
12677TIP3    H259523   5.900   5.674   5.652
12678TIP3   OH259524   2.334   5.261   0.965
12678TIP3    H159525   2.275   5.302   1.029
12678TIP3    H259526   2.277   5.211   0.908
12679TIP3   OH259527   1.938   1.960   1.063
12679TIP3    H159528   1.887   1.887   1.098
12679TIP3    H259529   2.024   1.923   1.045
12680TIP3   OH259530   6.720   6.415  15.786
12680TIP3    H159531   6.760   6.333  15.815
12680TIP3    H259532   6.741   6.478  15.855
12681TIP3   OH259533   1.170   1.611  11.626
12681TIP3    H159534   1.227   1.611  11.703
12681TIP3    H259535   1.161   1.518  11.603
12682TIP3   OH259536   1.126   2.448   3.868
12682TIP3    H159537   1.100   2.461   3.777
12682TIP3    H259538   1.065   2.502   3.918
12683TIP3   OH259539   6.602   2.438  12.179
12683TIP3    H159540   6.662   2.460  12.108
12683TIP3    H259541   6.564   2.522  12.204
12684TIP3   OH259542   4.736   5.020  10.855
12684TIP3    H159543   4.827   5.014  10.884
12684TIP3    H259544   4.717   5.114  10.854
12685TIP3   OH259545   4.723   4.629  12.772
12685TIP3    H159546   4.656   4.675  12.722
12685TIP3    H259547   4.680   4.609  12.856
12686TIP3   OH259548   4.001   6.305  14.869
12686TIP3    H159549   3.934   6.240  14.887
12686TIP3    H259550   3.955   6.389  14.875
12687TIP3   OH259551   5.097   4.364   2.139
12687TIP3    H159552   5.107   4.336   2.230
12687TIP3    H259553   5.115   4.458   2.140
12688TIP3   OH259554   2.307   6.053  16.862
12688TIP3    H159555   2.279   5.962  16.865
12688TIP3    H259556   2.229   6.103  16.884
12689TIP3   OH259557   3.975   0.399  15.349
12689TIP3    H159558   4.011   0.457  15.282
12689TIP3    H259559   4.018   0.427  15.430
12690TIP3   OH259560   5.843   4.599   4.297
12690TIP3    H159561   5.839   4.659   4.371
12690TIP3    H259562   5.927   4.553   4.308
12691TIP3   OH259563   5.733   4.503   2.966
12691TIP3    H159564   5.656   4.462   3.005
12691TIP3    H259565   5.712   4.508   2.873
12692TIP3   OH259566   6.503   3.083   2.242
12692TIP3    H159567   6.523   3.171   2.272
12692TIP3    H259568   6.579   3.058   2.189
12693TIP3   OH259569   0.551   6.540  15.172
12693TIP3    H159570   0.645   6.535  15.190
12693TIP3    H259571   0.545   6.546  15.077
12694TIP3   OH259572   6.797   4.735  12.038
12694TIP3    H159573   6.765   4.645  12.041
12694TIP3    H259574   6.751   4.775  11.964
12695TIP3   OH259575   4.742   4.974  16.151
12695TIP3    H159576   4.698   4.961  16.066
12695TIP3    H259577   4.734   4.889  16.194
12696TIP3   OH259578   1.399   3.659   0.411
12696TIP3    H159579   1.391   3.653   0.316
12696TIP3    H259580   1.426   3.572   0.439
12697TIP3   OH259581   5.725   6.792   3.861
12697TIP3    H159582   5.792   6.740   3.817
12697TIP3    H259583   5.733   6.879   3.821
12698TIP3   OH259584   2.874   5.053  14.451
12698TIP3    H159585   2.869   5.070  14.545
12698TIP3    H259586   2.913   4.966  14.445
12699TIP3   OH259587   4.293   1.643   5.274
12699TIP3    H159588   4.243   1.561   5.283
12699TIP3    H259589   4.248   1.704   5.332
12700TIP3   OH259590   5.023   5.074   2.564
12700TIP3    H159591   4.987   5.022   2.493
12700TIP3    H259592   4.974   5.046   2.642
12701TIP3   OH259593   0.120   4.258  12.821
12701TIP3    H159594   0.179   4.315  12.772
12701TIP3    H259595   0.178   4.197  12.867
12702TIP3   OH259596   5.418   4.381   2.275
12702TIP3    H159597   5.440   4.306   2.221
12702TIP3    H259598   5.385   4.446   2.214
12703TIP3   OH259599   4.399   3.037  16.067
12703TIP3    H159600   4.339   3.040  15.992
12703TIP3    H259601   4.416   2.944  16.079
12704TIP3   OH259602   5.889   5.262  15.387
12704TIP3    H159603   5.850   5.245  15.473
12704TIP3    H259604   5.939   5.182  15.367
12705TIP3   OH259605   0.995   3.595  16.320
12705TIP3    H159606   1.059   3.597  16.249
12705TIP3    H259607   1.018   3.671  16.374
12706TIP3   OH259608   1.556   6.360   1.570
12706TIP3    H159609   1.478   6.322   1.610
12706TIP3    H259610   1.550   6.335   1.478
12707TIP3   OH259611   5.164   5.549  16.822
12707TIP3    H159612   5.190   5.598  16.744
12707TIP3    H259613   5.156   5.615  16.890
12708TIP3   OH259614   3.526   3.370  11.856
12708TIP3    H159615   3.487   3.291  11.818
12708TIP3    H259616   3.555   3.420  11.780
12709TIP3   OH259617   6.265   0.100   3.970
12709TIP3    H159618   6.294   0.009   3.969
12709TIP3    H259619   6.303   0.139   3.891
12710TIP3   OH259620   4.899   3.069  11.786
12710TIP3    H159621   4.912   3.162  11.805
12710TIP3    H259622   4.836   3.040  11.851
12711TIP3   OH259623   1.269   1.522   2.414
12711TIP3    H159624   1.185   1.486   2.385
12711TIP3    H259625   1.246   1.590   2.476
12712TIP3   OH259626   3.609   3.609   1.121
12712TIP3    H159627   3.687   3.581   1.169
12712TIP3    H259628   3.642   3.650   1.041
12713TIP3   OH259629   5.034   6.709   0.311
12713TIP3    H159630   5.004   6.621   0.335
12713TIP3    H259631   4.954   6.754   0.282
12714TIP3   OH259632   3.190   2.448   1.627
12714TIP3    H159633   3.272   2.399   1.630
12714TIP3    H259634   3.217   2.540   1.623
12715TIP3   OH259635   2.411   2.205  15.078
12715TIP3    H159636   2.458   2.277  15.034
12715TIP3    H259637   2.386   2.241  15.163
12716TIP3   OH259638   0.177   2.376  14.558
12716TIP3    H159639   0.083   2.394  14.561
12716TIP3    H259640   0.183   2.281  14.559
12717TIP3   OH259641   6.699   1.269   1.471
12717TIP3    H159642   6.653   1.242   1.392
12717TIP3    H259643   6.727   1.186   1.512
12718TIP3   OH259644   4.407   4.895  15.529
12718TIP3    H159645   4.384   4.803  15.523
12718TIP3    H259646   4.327   4.942  15.507
12719TIP3   OH259647   4.101   1.659  13.648
12719TIP3    H159648   4.105   1.612  13.564
12719TIP3    H259649   4.114   1.591  13.714
12720TIP3   OH259650   1.191   5.417   2.104
12720TIP3    H159651   1.234   5.468   2.036
12720TIP3    H259652   1.179   5.330   2.065
12721TIP3   OH259653   1.996   1.676  17.249
12721TIP3    H159654   1.953   1.596  17.277
12721TIP3    H259655   2.039   1.653  17.167
12722TIP3   OH259656   2.197   2.136   0.239
12722TIP3    H159657   2.130   2.176   0.295
12722TIP3    H259658   2.211   2.049   0.276
12723TIP3   OH259659   1.730   4.156   2.123
12723TIP3    H159660   1.784   4.179   2.047
12723TIP3    H259661   1.745   4.227   2.185
12724TIP3   OH259662   5.129   4.596  17.201
12724TIP3    H159663   5.170   4.683  17.201
12724TIP3    H259664   5.036   4.613  17.194
12725TIP3   OH259665   3.135   4.171   0.456
12725TIP3    H159666   3.137   4.175   0.552
12725TIP3    H259667   3.167   4.083   0.436
12726TIP3   OH259668   0.406   3.083  16.786
12726TIP3    H159669   0.403   3.145  16.713
12726TIP3    H259670   0.469   3.121  16.847
12727TIP3   OH259671   3.070   1.008  15.808
12727TIP3    H159672   3.141   1.070  15.793
12727TIP3    H259673   2.992   1.063  15.815
12728TIP3   OH259674   4.770   2.270   1.337
12728TIP3    H159675   4.759   2.341   1.400
12728TIP3    H259676   4.819   2.203   1.384
12729TIP3   OH259677   4.892   3.763   2.927
12729TIP3    H159678   4.846   3.752   3.010
12729TIP3    H259679   4.964   3.701   2.930
12730TIP3   OH259680   6.689   3.358  15.849
12730TIP3    H159681   6.686   3.320  15.760
12730TIP3    H259682   6.657   3.287  15.905
12731TIP3   OH259683   6.555   6.239   2.371
12731TIP3    H159684   6.486   6.297   2.403
12731TIP3    H259685   6.523   6.151   2.391
12732TIP3   OH259686   6.081   3.571   2.435
12732TIP3    H159687   6.044   3.600   2.519
12732TIP3    H259688   6.130   3.491   2.457
12733TIP3   OH259689   3.564   4.318   5.452
12733TIP3    H159690   3.471   4.296   5.450
12733TIP3    H259691   3.592   4.299   5.542
12734TIP3   OH259692   3.817   0.832  11.193
12734TIP3    H159693   3.724   0.855  11.199
12734TIP3    H259694   3.829   0.763  11.258
12735TIP3   OH259695   5.118   4.132   2.019
12735TIP3    H159696   5.100   4.195   2.089
12735TIP3    H259697   5.039   4.078   2.015
12736TIP3   OH259698   1.030   1.237   0.438
12736TIP3    H159699   0.961   1.251   0.374
12736TIP3    H259700   0.997   1.278   0.518
12737TIP3   OH259701   0.100   3.161  15.746
12737TIP3    H159702   0.168   3.197  15.689
12737TIP3    H259703   0.038   3.119  15.685
12738TIP3   OH259704   4.785   0.338  12.649
12738TIP3    H159705   4.717   0.348  12.716
12738TIP3    H259706   4.759   0.399  12.580
12739TIP3   OH259707   4.420   6.104   3.476
12739TIP3    H159708   4.403   6.032   3.537
12739TIP3    H259709   4.371   6.081   3.397
12740TIP3   OH259710   0.219   1.915  10.327
12740TIP3    H159711   0.134   1.892  10.290
12740TIP3    H259712   0.199   1.966  10.405
12741TIP3   OH259713   2.839   6.810  13.797
12741TIP3    H159714   2.761   6.761  13.773
12741TIP3    H259715   2.894   6.809  13.719
12742TIP3   OH259716   0.389   5.658   2.500
12742TIP3    H159717   0.304   5.625   2.473
12742TIP3    H259718   0.452   5.606   2.451
12743TIP3   OH259719   4.241   2.958   6.578
12743TIP3    H159720   4.296   2.902   6.632
12743TIP3    H259721   4.156   2.914   6.575
12744TIP3   OH259722   3.867   3.131   2.863
12744TIP3    H159723   3.911   3.216   2.861
12744TIP3    H259724   3.774   3.151   2.852
12745TIP3   OH259725   5.773   6.230  16.183
12745TIP3    H159726   5.852   6.243  16.132
12745TIP3    H259727   5.721   6.168  16.133
12746TIP3   OH259728   1.925   6.180  12.530
12746TIP3    H159729   1.889   6.094  12.554
12746TIP3    H259730   1.864   6.214  12.465
12747TIP3   OH259731   3.449   4.484   0.739
12747TIP3    H159732   3.504   4.498   0.816
12747TIP3    H259733   3.391   4.560   0.736
12748TIP3   OH259734   5.250   5.993  11.592
12748TIP3    H159735   5.220   6.063  11.650
12748TIP3    H259736   5.198   6.004  11.512
12749TIP3   OH259737   4.627   2.573   4.543
12749TIP3    H159738   4.695   2.575   4.611
12749TIP3    H259739   4.668   2.615   4.467
12750TIP3   OH259740   6.676   5.148   1.871
12750TIP3    H159741   6.725   5.216   1.917
12750TIP3    H259742   6.641   5.092   1.941
12751TIP3   OH259743   6.637   5.742   2.683
12751TIP3    H159744   6.646   5.837   2.689
12751TIP3    H259745   6.644   5.711   2.773
12752TIP3   OH259746   4.975   2.266   4.075
12752TIP3    H159747   5.025   2.186   4.057
12752TIP3    H259748   5.041   2.329   4.104
12753TIP3   OH259749   2.798   5.260  10.690
12753TIP3    H159750   2.801   5.200  10.615
12753TIP3    H259751   2.844   5.339  10.660
12754TIP3   OH259752   5.050   1.769   3.328
12754TIP3    H159753   5.086   1.849   3.366
12754TIP3    H259754   5.004   1.798   3.249
12755TIP3   OH259755   2.343   6.809   1.305
12755TIP3    H159756   2.428   6.776   1.274
12755TIP3    H259757   2.353   6.814   1.400
12756TIP3   OH259758   0.268   3.695   4.201
12756TIP3    H159759   0.202   3.677   4.268
12756TIP3    H259760   0.345   3.723   4.250
12757TIP3   OH259761   1.682   4.315  13.885
12757TIP3    H159762   1.644   4.271  13.809
12757TIP3    H259763   1.646   4.269  13.960
12758TIP3   OH259764   1.991   6.514   4.605
12758TIP3    H159765   1.902   6.533   4.577
12758TIP3    H259766   2.026   6.599   4.633
12759TIP3   OH259767   5.247   0.014   3.215
12759TIP3    H159768   5.184  -0.002   3.145
12759TIP3    H259769   5.254  -0.070   3.260
12760TIP3   OH259770   3.356   1.564   0.646
12760TIP3    H159771   3.367   1.574   0.741
12760TIP3    H259772   3.428   1.616   0.609
12761TIP3   OH259773   6.138   3.773   5.615
12761TIP3    H159774   6.225   3.780   5.655
12761TIP3    H259775   6.143   3.831   5.539
12762TIP3   OH259776   6.314   4.723  13.217
12762TIP3    H159777   6.364   4.752  13.141
12762TIP3    H259778   6.368   4.654  13.256
12763TIP3   OH259779   6.339   4.002   2.301
12763TIP3    H159780   6.298   4.005   2.214
12763TIP3    H259781   6.401   3.930   2.296
12764TIP3   OH259782   5.468   5.783   4.687
12764TIP3    H159783   5.474   5.752   4.778
12764TIP3    H259784   5.374   5.796   4.673
12765TIP3   OH259785   3.739   4.077   1.295
12765TIP3    H159786   3.688   4.002   1.264
12765TIP3    H259787   3.818   4.038   1.333
12766TIP3   OH259788   3.825   0.983  12.198
12766TIP3    H159789   3.846   0.929  12.122
12766TIP3    H259790   3.834   1.073  12.167
12767TIP3   OH259791   3.062   3.991   6.512
12767TIP3    H159792   3.136   3.952   6.466
12767TIP3    H259793   3.083   4.085   6.516
12768TIP3   OH259794   3.814   1.136   0.682
12768TIP3    H159795   3.850   1.057   0.643
12768TIP3    H259796   3.887   1.175   0.730
12769TIP3   OH259797   1.612   3.164   1.597
12769TIP3    H159798   1.703   3.154   1.625
12769TIP3    H259799   1.615   3.155   1.501
12770TIP3   OH259800   6.309   0.479  12.914
12770TIP3    H159801   6.380   0.472  12.978
12770TIP3    H259802   6.241   0.530  12.959
12771TIP3   OH259803   5.826   1.978   5.257
12771TIP3    H159804   5.823   1.912   5.187
12771TIP3    H259805   5.773   1.940   5.327
12772TIP3   OH259806   5.126   4.672  12.854
12772TIP3    H159807   5.082   4.757  12.852
12772TIP3    H259808   5.173   4.667  12.770
12773TIP3   OH259809   1.355   1.523   5.064
12773TIP3    H159810   1.318   1.598   5.110
12773TIP3    H259811   1.284   1.491   5.009
12774TIP3   OH259812   5.198   4.791   5.493
12774TIP3    H159813   5.253   4.866   5.471
12774TIP3    H259814   5.194   4.791   5.588
12775TIP3   OH259815   2.495   6.264  16.063
12775TIP3    H159816   2.507   6.172  16.085
12775TIP3    H259817   2.480   6.264  15.968
12776TIP3   OH259818   4.899   6.373   0.087
12776TIP3    H159819   4.828   6.412   0.036
12776TIP3    H259820   4.892   6.279   0.070
12777TIP3   OH259821   3.943   1.972   3.211
12777TIP3    H159822   4.012   1.915   3.177
12777TIP3    H259823   3.862   1.921   3.199
12778TIP3   OH259824   3.507   5.176   0.189
12778TIP3    H159825   3.508   5.124   0.108
12778TIP3    H259826   3.480   5.263   0.162
12779TIP3   OH259827   5.061   6.542  13.889
12779TIP3    H159828   4.966   6.548  13.878
12779TIP3    H259829   5.098   6.594  13.818
12780TIP3   OH259830   2.559   3.038  14.933
12780TIP3    H159831   2.494   3.097  14.971
12780TIP3    H259832   2.531   2.951  14.960
12781TIP3   OH259833   5.467   5.140   1.128
12781TIP3    H159834   5.416   5.212   1.164
12781TIP3    H259835   5.456   5.147   1.033
12782TIP3   OH259836   1.355   5.359  16.635
12782TIP3    H159837   1.340   5.452  16.622
12782TIP3    H259838   1.310   5.316  16.562
12783TIP3   OH259839   0.247   1.783   0.199
12783TIP3    H159840   0.256   1.871   0.162
12783TIP3    H259841   0.274   1.725   0.129
12784TIP3   OH259842   6.422   1.133   5.933
12784TIP3    H159843   6.465   1.197   5.991
12784TIP3    H259844   6.329   1.142   5.953
12785TIP3   OH259845   4.653   5.016   3.505
12785TIP3    H159846   4.712   4.998   3.432
12785TIP3    H259847   4.699   5.080   3.559
12786TIP3   OH259848   2.063   6.053  12.802
12786TIP3    H159849   2.116   6.004  12.739
12786TIP3    H259850   1.973   6.040  12.773
12787TIP3   OH259851   4.483   2.929  17.124
12787TIP3    H159852   4.410   2.934  17.185
12787TIP3    H259853   4.554   2.890  17.174
12788TIP3   OH259854   2.925   1.486  17.002
12788TIP3    H159855   2.934   1.480  16.907
12788TIP3    H259856   3.015   1.480  17.035
12789TIP3   OH259857   0.660   6.106   2.848
12789TIP3    H159858   0.729   6.040   2.854
12789TIP3    H259859   0.624   6.095   2.760
12790TIP3   OH259860   6.087   4.528  16.256
12790TIP3    H159861   6.151   4.464  16.225
12790TIP3    H259862   6.135   4.611  16.257
12791TIP3   OH259863   0.180   6.387  16.679
12791TIP3    H159864   0.168   6.292  16.681
12791TIP3    H259865   0.091   6.422  16.664
12792TIP3   OH259866   1.303   4.738  14.492
12792TIP3    H159867   1.241   4.804  14.462
12792TIP3    H259868   1.388   4.782  14.490
12793TIP3   OH259869   1.336   2.183  15.879
12793TIP3    H159870   1.296   2.110  15.831
12793TIP3    H259871   1.426   2.155  15.894
12794TIP3   OH259872   4.822   5.128  16.369
12794TIP3    H159873   4.769   5.201  16.402
12794TIP3    H259874   4.767   5.086  16.303
12795TIP3   OH259875   3.354   4.142   2.972
12795TIP3    H159876   3.426   4.129   2.911
12795TIP3    H259877   3.366   4.231   3.005
12796TIP3   OH259878   1.964   3.591   5.198
12796TIP3    H159879   1.982   3.623   5.287
12796TIP3    H259880   1.889   3.533   5.208
12797TIP3   OH259881   1.393   0.334  14.713
12797TIP3    H159882   1.398   0.427  14.689
12797TIP3    H259883   1.424   0.288  14.634
12798TIP3   OH259884   3.981   0.933  13.972
12798TIP3    H159885   3.976   1.029  13.971
12798TIP3    H259886   4.070   0.915  14.003
12799TIP3   OH259887   0.171   0.027  13.350
12799TIP3    H159888   0.225   0.044  13.273
12799TIP3    H259889   0.233   0.025  13.423
12800TIP3   OH259890   1.428   2.570   2.204
12800TIP3    H159891   1.482   2.582   2.282
12800TIP3    H259892   1.479   2.511   2.149
12801TIP3   OH259893   0.123   1.255   2.407
12801TIP3    H159894   0.216   1.263   2.429
12801TIP3    H259895   0.119   1.180   2.347
12802TIP3   OH259896   3.705   6.329  15.108
12802TIP3    H159897   3.617   6.332  15.144
12802TIP3    H259898   3.713   6.241  15.071
12803TIP3   OH259899   5.002   2.117  12.399
12803TIP3    H159900   4.973   2.123  12.490
12803TIP3    H259901   4.953   2.187  12.355
12804TIP3   OH259902   2.641   3.096  16.395
12804TIP3    H159903   2.551   3.116  16.418
12804TIP3    H259904   2.634   3.030  16.325
12805TIP3   OH259905   5.914   1.694   3.633
12805TIP3    H159906   5.859   1.622   3.602
12805TIP3    H259907   5.886   1.709   3.723
12806TIP3   OH259908   1.175   4.502  12.723
12806TIP3    H159909   1.111   4.433  12.709
12806TIP3    H259910   1.222   4.475  12.802
12807TIP3   OH259911   3.262   6.675  13.312
12807TIP3    H159912   3.249   6.596  13.261
12807TIP3    H259913   3.244   6.649  13.403
12808TIP3   OH259914   6.055   5.642   1.969
12808TIP3    H159915   6.077   5.656   1.877
12808TIP3    H259916   5.959   5.638   1.970
12809TIP3   OH259917   3.516   1.521   0.267
12809TIP3    H159918   3.469   1.604   0.280
12809TIP3    H259919   3.590   1.544   0.211
12810TIP3   OH259920   0.406   0.200   3.735
12810TIP3    H159921   0.471   0.144   3.775
12810TIP3    H259922   0.410   0.282   3.784
12811TIP3   OH259923   1.773   5.877  11.807
12811TIP3    H159924   1.819   5.846  11.885
12811TIP3    H259925   1.774   5.973  11.815
12812TIP3   OH259926   2.769   1.786   1.256
12812TIP3    H159927   2.825   1.845   1.207
12812TIP3    H259928   2.773   1.818   1.347
12813TIP3   OH259929   5.784   5.655  11.295
12813TIP3    H159930   5.692   5.661  11.270
12813TIP3    H259931   5.827   5.725  11.244
12814TIP3   OH259932   2.384   6.280  14.445
12814TIP3    H159933   2.423   6.194  14.429
12814TIP3    H259934   2.313   6.263  14.507
12815TIP3   OH259935   6.817   0.709  12.270
12815TIP3    H159936   6.722   0.708  12.278
12815TIP3    H259937   6.847   0.634  12.322
12816TIP3   OH259938   6.208   2.484  11.595
12816TIP3    H159939   6.239   2.564  11.637
12816TIP3    H259940   6.211   2.503  11.501
12817TIP3   OH259941   5.887   3.571  15.150
12817TIP3    H159942   5.809   3.568  15.205
12817TIP3    H259943   5.872   3.643  15.089
12818TIP3   OH259944   1.454   1.839  11.009
12818TIP3    H159945   1.527   1.780  10.991
12818TIP3    H259946   1.377   1.784  11.008
12819TIP3   OH259947   3.753   3.868   3.984
12819TIP3    H159948   3.743   3.959   4.013
12819TIP3    H259949   3.727   3.869   3.892
12820TIP3   OH259950   0.536   0.116   2.732
12820TIP3    H159951   0.527   0.072   2.647
12820TIP3    H259952   0.631   0.126   2.743
12821TIP3   OH259953   1.686   5.100  14.229
12821TIP3    H159954   1.708   5.188  14.197
12821TIP3    H259955   1.708   5.042  14.156
12822TIP3   OH259956   5.365   3.734  12.066
12822TIP3    H159957   5.386   3.641  12.078
12822TIP3    H259958   5.337   3.740  11.974
12823TIP3   OH259959   5.581   0.767  15.770
12823TIP3    H159960   5.573   0.678  15.737
12823TIP3    H259961   5.496   0.807  15.753
12824TIP3   OH259962   4.209   5.342  12.724
12824TIP3    H159963   4.301   5.329  12.702
12824TIP3    H259964   4.207   5.345  12.819
12825TIP3   OH259965   4.499   6.111  12.341
12825TIP3    H159966   4.559   6.039  12.364
12825TIP3    H259967   4.541   6.189  12.377
12826TIP3   OH259968   5.402   1.481   0.982
12826TIP3    H159969   5.423   1.451   0.893
12826TIP3    H259970   5.307   1.488   0.983
12827TIP3   OH259971   3.590   5.101   1.202
12827TIP3    H159972   3.595   5.161   1.128
12827TIP3    H259973   3.679   5.065   1.210
12828TIP3   OH259974   2.068   4.980   3.967
12828TIP3    H159975   2.013   4.930   4.028
12828TIP3    H259976   2.031   5.068   3.968
12829TIP3   OH259977   6.432   5.053  16.362
12829TIP3    H159978   6.346   5.069  16.323
12829TIP3    H259979   6.480   5.134  16.347
12830TIP3   OH259980   4.828   4.624  13.900
12830TIP3    H159981   4.856   4.623  13.992
12830TIP3    H259982   4.871   4.549  13.860
12831TIP3   OH259983   2.909   2.766   5.570
12831TIP3    H159984   2.969   2.702   5.530
12831TIP3    H259985   2.837   2.713   5.604
12832TIP3   OH259986   2.085   5.976   3.203
12832TIP3    H159987   2.103   6.065   3.173
12832TIP3    H259988   2.034   5.936   3.132
12833TIP3   OH259989   0.154   3.310   3.270
12833TIP3    H159990   0.216   3.304   3.342
12833TIP3    H259991   0.182   3.387   3.221
12834TIP3   OH259992   3.495   0.706   6.205
12834TIP3    H159993   3.589   0.691   6.217
12834TIP3    H259994   3.459   0.702   6.293
12835TIP3   OH259995   5.644   3.561  14.963
12835TIP3    H159996   5.625   3.628  14.898
12835TIP3    H259997   5.561   3.547  15.009
12836TIP3   OH259998   0.116   3.429  12.790
12836TIP3    H159999   0.120   3.473  12.705
12836TIP3    H260000   0.186   3.364  12.786
12837TIP3   OH260001   3.623   3.032  11.868
12837TIP3    H160002   3.530   3.049  11.856
12837TIP3    H260003   3.667   3.108  11.829
12838TIP3   OH260004   1.836   5.736  15.925
12838TIP3    H160005   1.783   5.816  15.917
12838TIP3    H260006   1.925   5.768  15.943
12839TIP3   OH260007   6.392   1.261  11.545
12839TIP3    H160008   6.362   1.335  11.599
12839TIP3    H260009   6.472   1.294  11.504
12840TIP3   OH260010   3.283   2.366   3.989
12840TIP3    H160011   3.354   2.303   3.976
12840TIP3    H260012   3.322   2.433   4.046
12841TIP3   OH260013   4.724   4.541   1.194
12841TIP3    H160014   4.782   4.510   1.124
12841TIP3    H260015   4.640   4.500   1.175
12842TIP3   OH260016   3.165   5.417   3.239
12842TIP3    H160017   3.073   5.407   3.262
12842TIP3    H260018   3.166   5.483   3.170
12843TIP3   OH260019   1.394   2.020   5.500
12843TIP3    H160020   1.478   2.053   5.533
12843TIP3    H260021   1.384   2.061   5.414
12844TIP3   OH260022   3.253   0.963   0.418
12844TIP3    H160023   3.315   1.036   0.423
12844TIP3    H260024   3.287   0.898   0.478
12845TIP3   OH260025   2.322   2.375  16.444
12845TIP3    H160026   2.353   2.325  16.520
12845TIP3    H260027   2.232   2.345  16.431
12846TIP3   OH260028   5.773   2.493  13.473
12846TIP3    H160029   5.785   2.474  13.380
12846TIP3    H260030   5.858   2.475  13.512
12847TIP3   OH260031   0.425   1.307  11.977
12847TIP3    H160032   0.429   1.248  11.902
12847TIP3    H260033   0.350   1.277  12.028
12848TIP3   OH260034   2.889   5.750   5.563
12848TIP3    H160035   2.841   5.684   5.513
12848TIP3    H260036   2.904   5.821   5.500
12849TIP3   OH260037   5.050   6.241   1.468
12849TIP3    H160038   5.026   6.317   1.415
12849TIP3    H260039   5.015   6.260   1.555
12850TIP3   OH260040   0.214   5.477   3.049
12850TIP3    H160041   0.301   5.509   3.076
12850TIP3    H260042   0.217   5.383   3.067
12851TIP3   OH260043   5.485   2.286  11.775
12851TIP3    H160044   5.561   2.278  11.833
12851TIP3    H260045   5.426   2.217  11.804
12852TIP3   OH260046   2.595   5.852   0.731
12852TIP3    H160047   2.640   5.932   0.757
12852TIP3    H260048   2.531   5.836   0.801
12853TIP3   OH260049   2.927   4.779  14.525
12853TIP3    H160050   2.952   4.728  14.602
12853TIP3    H260051   2.857   4.728  14.484
12854TIP3   OH260052   2.287   1.119  13.598
12854TIP3    H160053   2.240   1.084  13.675
12854TIP3    H260054   2.291   1.213  13.613
12855TIP3   OH260055   5.766   0.170  15.381
12855TIP3    H160056   5.784   0.263  15.369
12855TIP3    H260057   5.698   0.151  15.317
12856TIP3   OH260058   2.084   1.005  11.764
12856TIP3    H160059   2.100   1.039  11.676
12856TIP3    H260060   2.032   0.926  11.749
12857TIP3   OH260061   0.598   5.547  12.182
12857TIP3    H160062   0.626   5.620  12.127
12857TIP3    H260063   0.644   5.471  12.146
12858TIP3   OH260064   3.010   0.370  10.720
12858TIP3    H160065   2.996   0.319  10.640
12858TIP3    H260066   2.995   0.461  10.692
12859TIP3   OH260067   1.722   3.493   4.162
12859TIP3    H160068   1.649   3.465   4.107
12859TIP3    H260069   1.766   3.561   4.111
12860TIP3   OH260070   5.330   1.074   3.512
12860TIP3    H160071   5.245   1.036   3.488
12860TIP3    H260072   5.352   1.032   3.595
12861TIP3   OH260073   1.125   6.780   6.278
12861TIP3    H160074   1.206   6.757   6.233
12861TIP3    H260075   1.147   6.775   6.371
12862TIP3   OH260076   4.683   6.512  13.443
12862TIP3    H160077   4.676   6.474  13.355
12862TIP3    H260078   4.742   6.587  13.431
12863TIP3   OH260079   1.146   2.176   5.899
12863TIP3    H160080   1.178   2.118   5.968
12863TIP3    H260081   1.222   2.189   5.842
12864TIP3   OH260082   2.533   6.681  14.869
12864TIP3    H160083   2.577   6.610  14.822
12864TIP3    H260084   2.588   6.758  14.853
12865TIP3   OH260085   4.767   2.256   3.772
12865TIP3    H160086   4.812   2.174   3.790
12865TIP3    H260087   4.790   2.278   3.682
12866TIP3   OH260088   0.090   3.139   3.662
12866TIP3    H160089   0.048   3.088   3.732
12866TIP3    H260090   0.156   3.081   3.626
12867TIP3   OH260091   5.637   2.323   4.366
12867TIP3    H160092   5.574   2.394   4.362
12867TIP3    H260093   5.722   2.366   4.366
12868TIP3   OH260094   3.514   5.557  13.522
12868TIP3    H160095   3.556   5.537  13.438
12868TIP3    H260096   3.505   5.652  13.522
12869TIP3   OH260097   0.553   3.369  16.022
12869TIP3    H160098   0.620   3.391  16.088
12869TIP3    H260099   0.485   3.324  16.072
12870TIP3   OH260100   0.204   5.252   5.464
12870TIP3    H160101   0.151   5.327   5.435
12870TIP3    H260102   0.273   5.291   5.517
12871TIP3   OH260103   0.535   2.947  11.579
12871TIP3    H160104   0.609   3.003  11.601
12871TIP3    H260105   0.540   2.874  11.641
12872TIP3   OH260106   4.654   2.048   5.716
12872TIP3    H160107   4.729   2.081   5.766
12872TIP3    H260108   4.687   2.038   5.627
12873TIP3   OH260109   1.085   5.736   1.321
12873TIP3    H160110   1.158   5.754   1.262
12873TIP3    H260111   1.072   5.641   1.315
12874TIP3   OH260112   3.812   2.269  12.575
12874TIP3    H160113   3.815   2.365  12.578
12874TIP3    H260114   3.903   2.243  12.561
12875TIP3   OH260115   0.165   0.056  11.354
12875TIP3    H160116   0.213  -0.019  11.389
12875TIP3    H260117   0.181   0.053  11.259
12876TIP3   OH260118   0.625   5.492   4.508
12876TIP3    H160119   0.630   5.556   4.436
12876TIP3    H260120   0.610   5.408   4.464
12877TIP3   OH260121   0.490   3.724  13.368
12877TIP3    H160122   0.458   3.810  13.339
12877TIP3    H260123   0.444   3.709  13.450
12878TIP3   OH260124   3.899   2.568  13.111
12878TIP3    H160125   3.986   2.545  13.144
12878TIP3    H260126   3.902   2.542  13.019
12879TIP3   OH260127   3.767   2.057   2.877
12879TIP3    H160128   3.687   2.046   2.825
12879TIP3    H260129   3.814   2.127   2.833
12880TIP3   OH260130   5.488   3.543  16.209
12880TIP3    H160131   5.507   3.624  16.160
12880TIP3    H260132   5.550   3.479  16.174
12881TIP3   OH260133   5.429   3.984  13.352
12881TIP3    H160134   5.501   4.001  13.290
12881TIP3    H260135   5.362   3.940  13.299
12882TIP3   OH260136   2.039   1.716  13.778
12882TIP3    H160137   2.125   1.693  13.814
12882TIP3    H260138   1.990   1.748  13.854
12883TIP3   OH260139   2.480   6.633   0.066
12883TIP3    H160140   2.502   6.586  -0.015
12883TIP3    H260141   2.564   6.647   0.109
12884TIP3   OH260142   6.420   1.514   2.352
12884TIP3    H160143   6.490   1.528   2.416
12884TIP3    H260144   6.345   1.484   2.404
12885TIP3   OH260145   5.233   4.604   2.626
12885TIP3    H160146   5.247   4.687   2.671
12885TIP3    H260147   5.141   4.583   2.642
12886TIP3   OH260148   5.806   5.826  14.495
12886TIP3    H160149   5.728   5.791  14.452
12886TIP3    H260150   5.771   5.870  14.573
12887TIP3   OH260151   3.251   5.819  10.648
12887TIP3    H160152   3.177   5.763  10.626
12887TIP3    H260153   3.324   5.783  10.597
12888TIP3   OH260154   1.835   6.138   5.655
12888TIP3    H160155   1.896   6.066   5.671
12888TIP3    H260156   1.813   6.131   5.563
12889TIP3   OH260157   0.733   5.510  14.684
12889TIP3    H160158   0.706   5.598  14.656
12889TIP3    H260159   0.654   5.456  14.672
12890TIP3   OH260160   5.753   2.582   1.612
12890TIP3    H160161   5.698   2.615   1.540
12890TIP3    H260162   5.841   2.577   1.574
12891TIP3   OH260163   5.781   3.021  15.869
12891TIP3    H160164   5.823   2.960  15.808
12891TIP3    H260165   5.722   3.072  15.815
12892TIP3   OH260166   3.289   5.952  16.088
12892TIP3    H160167   3.371   5.998  16.072
12892TIP3    H260168   3.306   5.862  16.062
12893TIP3   OH260169   2.894   4.791  13.031
12893TIP3    H160170   2.824   4.852  13.055
12893TIP3    H260171   2.871   4.761  12.943
12894TIP3   OH260172   4.896   1.399   3.820
12894TIP3    H160173   4.818   1.364   3.864
12894TIP3    H260174   4.967   1.388   3.883
12895TIP3   OH260175   3.866   2.570   0.836
12895TIP3    H160176   3.949   2.605   0.868
12895TIP3    H260177   3.854   2.487   0.882
12896TIP3   OH260178   6.673   5.616   3.910
12896TIP3    H160179   6.686   5.552   3.979
12896TIP3    H260180   6.587   5.654   3.928
12897TIP3   OH260181   4.966   5.472   4.672
12897TIP3    H160182   5.024   5.398   4.657
12897TIP3    H260183   4.984   5.499   4.762
12898TIP3   OH260184   6.028   3.529  15.814
12898TIP3    H160185   5.938   3.518  15.843
12898TIP3    H260186   6.021   3.566  15.726
12899TIP3   OH260187   4.455   5.826  16.318
12899TIP3    H160188   4.547   5.855  16.322
12899TIP3    H260189   4.409   5.883  16.379
12900TIP3   OH260190   0.833   0.490   0.623
12900TIP3    H160191   0.834   0.395   0.632
12900TIP3    H260192   0.841   0.523   0.713
12901TIP3   OH260193   6.207   6.296   5.898
12901TIP3    H160194   6.280   6.234   5.892
12901TIP3    H260195   6.248   6.382   5.897
12902TIP3   OH260196   4.346   0.223   3.177
12902TIP3    H160197   4.323   0.187   3.091
12902TIP3    H260198   4.352   0.146   3.234
12903TIP3   OH260199   3.878   1.130  16.304
12903TIP3    H160200   3.912   1.077  16.376
12903TIP3    H260201   3.783   1.127  16.314
12904TIP3   OH260202   6.144   6.566   1.121
12904TIP3    H160203   6.172   6.652   1.149
12904TIP3    H260204   6.053   6.578   1.094
12905TIP3   OH260205   4.074   2.927  10.223
12905TIP3    H160206   4.106   2.985  10.292
12905TIP3    H260207   4.144   2.863  10.211
12906TIP3   OH260208   2.776   6.654   3.558
12906TIP3    H160209   2.738   6.719   3.618
12906TIP3    H260210   2.863   6.689   3.537
12907TIP3   OH260211   1.477   2.541   5.764
12907TIP3    H160212   1.384   2.559   5.748
12907TIP3    H260213   1.511   2.622   5.800
12908TIP3   OH260214   0.416   5.720  13.804
12908TIP3    H160215   0.352   5.662  13.764
12908TIP3    H260216   0.498   5.702  13.758
12909TIP3   OH260217   0.986   0.019   3.495
12909TIP3    H160218   1.006  -0.069   3.525
12909TIP3    H260219   0.955   0.008   3.405
12910TIP3   OH260220   2.908   1.588   4.779
12910TIP3    H160221   2.968   1.638   4.725
12910TIP3    H260222   2.836   1.565   4.721
12911TIP3   OH260223   0.270   1.039   1.666
12911TIP3    H160224   0.357   1.002   1.653
12911TIP3    H260225   0.211   0.964   1.664
12912TIP3   OH260226   3.498   5.025  14.220
12912TIP3    H160227   3.408   4.998  14.199
12912TIP3    H260228   3.535   5.054  14.137
12913TIP3   OH260229   2.717   0.372   1.049
12913TIP3    H160230   2.775   0.296   1.039
12913TIP3    H260231   2.670   0.356   1.131
12914TIP3   OH260232   2.541   6.282   4.254
12914TIP3    H160233   2.528   6.374   4.279
12914TIP3    H260234   2.577   6.241   4.333
12915TIP3   OH260235   2.030   5.940   5.687
12915TIP3    H160236   2.075   5.951   5.603
12915TIP3    H260237   1.981   5.858   5.677
12916TIP3   OH260238   4.901   0.445  16.262
12916TIP3    H160239   4.972   0.387  16.236
12916TIP3    H260240   4.941   0.503  16.328
12917TIP3   OH260241   0.477   6.624  12.640
12917TIP3    H160242   0.388   6.616  12.675
12917TIP3    H260243   0.502   6.534  12.617
12918TIP3   OH260244   5.122   1.434   3.044
12918TIP3    H160245   5.102   1.447   2.951
12918TIP3    H260246   5.218   1.424   3.046
12919TIP3   OH260247   1.141   1.252  12.538
12919TIP3    H160248   1.092   1.313  12.593
12919TIP3    H260249   1.231   1.256  12.572
12920TIP3   OH260250   0.214   4.168  13.226
12920TIP3    H160251   0.256   4.189  13.310
12920TIP3    H260252   0.127   4.207  13.233
12921TIP3   OH260253   3.617   1.898  12.283
12921TIP3    H160254   3.675   1.954  12.232
12921TIP3    H260255   3.614   1.939  12.369
12922TIP3   OH260256   0.517   2.130  14.396
12922TIP3    H160257   0.555   2.177  14.469
12922TIP3    H260258   0.575   2.055  14.383
12923TIP3   OH260259   6.557   6.508   3.735
12923TIP3    H160260   6.614   6.530   3.661
12923TIP3    H260261   6.489   6.576   3.733
12924TIP3   OH260262   2.121   0.526  15.325
12924TIP3    H160263   2.192   0.548  15.386
12924TIP3    H260264   2.113   0.602  15.269
12925TIP3   OH260265   0.436   2.390  11.710
12925TIP3    H160266   0.379   2.399  11.634
12925TIP3    H260267   0.471   2.479  11.724
12926TIP3   OH260268   4.722   2.337   3.145
12926TIP3    H160269   4.651   2.374   3.092
12926TIP3    H260270   4.745   2.407   3.206
12927TIP3   OH260271   5.354   5.211   1.471
12927TIP3    H160272   5.410   5.267   1.418
12927TIP3    H260273   5.400   5.127   1.474
12928TIP3   OH260274   3.546   0.905   1.844
12928TIP3    H160275   3.454   0.919   1.867
12928TIP3    H260276   3.557   0.952   1.761
12929TIP3   OH260277   1.830   3.068  13.694
12929TIP3    H160278   1.746   3.062  13.739
12929TIP3    H260279   1.872   3.145  13.731
12930TIP3   OH260280   2.331   0.702   5.969
12930TIP3    H160281   2.302   0.723   5.880
12930TIP3    H260282   2.250   0.702   6.020
12931TIP3   OH260283   2.031   3.958   2.265
12931TIP3    H160284   2.092   3.887   2.249
12931TIP3    H260285   2.034   4.011   2.185
12932TIP3   OH260286   1.490   4.661   1.584
12932TIP3    H160287   1.563   4.686   1.527
12932TIP3    H260288   1.418   4.719   1.558
12933TIP3   OH260289   4.843   6.612   4.039
12933TIP3    H160290   4.867   6.703   4.018
12933TIP3    H260291   4.926   6.571   4.062
12934TIP3   OH260292   6.641   2.858  15.922
12934TIP3    H160293   6.722   2.807  15.923
12934TIP3    H260294   6.670   2.949  15.930
12935TIP3   OH260295   6.300   1.852  16.611
12935TIP3    H160296   6.286   1.913  16.538
12935TIP3    H260297   6.356   1.783  16.575
12936TIP3   OH260298   3.747   2.358  10.636
12936TIP3    H160299   3.708   2.297  10.574
12936TIP3    H260300   3.707   2.442  10.615
12937TIP3   OH260301   5.715   2.697  15.960
12937TIP3    H160302   5.666   2.762  16.010
12937TIP3    H260303   5.795   2.682  16.011
12938TIP3   OH260304   6.114   2.060  11.137
12938TIP3    H160305   6.042   2.029  11.081
12938TIP3    H260306   6.189   2.007  11.111
12939TIP3   OH260307   2.404   5.257   5.446
12939TIP3    H160308   2.456   5.252   5.366
12939TIP3    H260309   2.344   5.183   5.440
12940TIP3   OH260310   4.711   2.114   4.957
12940TIP3    H160311   4.630   2.128   5.006
12940TIP3    H260312   4.780   2.125   5.022
12941TIP3   OH260313   5.413   3.713   6.584
12941TIP3    H160314   5.488   3.746   6.535
12941TIP3    H260315   5.352   3.787   6.587
12942TIP3   OH260316   0.265   4.280  14.983
12942TIP3    H160317   0.184   4.262  14.936
12942TIP3    H260318   0.334   4.240  14.929
12943TIP3   OH260319   6.034   5.382   6.229
12943TIP3    H160320   5.985   5.389   6.311
12943TIP3    H260321   6.091   5.307   6.242
12944TIP3   OH260322   1.173   2.240   3.657
12944TIP3    H160323   1.135   2.289   3.731
12944TIP3    H260324   1.145   2.149   3.672
12945TIP3   OH260325   4.834   3.149   0.113
12945TIP3    H160326   4.868   3.071   0.068
12945TIP3    H260327   4.824   3.214   0.044
12946TIP3   OH260328   5.227   1.392  15.660
12946TIP3    H160329   5.193   1.441  15.734
12946TIP3    H260330   5.209   1.300  15.681
12947TIP3   OH260331   6.649   0.538   2.515
12947TIP3    H160332   6.691   0.556   2.599
12947TIP3    H260333   6.722   0.529   2.453
12948TIP3   OH260334   5.408   0.566   0.008
12948TIP3    H160335   5.343   0.516  -0.042
12948TIP3    H260336   5.424   0.513   0.086
12949TIP3   OH260337   2.716   3.176  15.293
12949TIP3    H160338   2.657   3.203  15.222
12949TIP3    H260339   2.782   3.245  15.296
12950TIP3   OH260340   0.802   3.017  12.406
12950TIP3    H160341   0.826   3.006  12.314
12950TIP3    H260342   0.865   2.964  12.454
12951TIP3   OH260343   4.593   3.208  16.131
12951TIP3    H160344   4.649   3.134  16.108
12951TIP3    H260345   4.504   3.176  16.119
12952TIP3   OH260346   2.049   2.474   2.019
12952TIP3    H160347   2.129   2.510   2.057
12952TIP3    H260348   2.011   2.547   1.971
12953TIP3   OH260349   6.812   6.754  12.361
12953TIP3    H160350   6.795   6.666  12.327
12953TIP3    H260351   6.794   6.748  12.455
12954TIP3   OH260352   1.262   5.101  15.052
12954TIP3    H160353   1.170   5.090  15.076
12954TIP3    H260354   1.301   5.016  15.069
12955TIP3   OH260355   4.672   0.264   6.010
12955TIP3    H160356   4.607   0.277   5.941
12955TIP3    H260357   4.665   0.342   6.064
12956TIP3   OH260358   0.573   4.515  16.465
12956TIP3    H160359   0.534   4.431  16.440
12956TIP3    H260360   0.588   4.560  16.382
12957TIP3   OH260361   0.504   2.018   1.236
12957TIP3    H160362   0.413   2.018   1.269
12957TIP3    H260363   0.522   1.926   1.217
12958TIP3   OH260364   0.831   0.314  15.583
12958TIP3    H160365   0.886   0.311  15.505
12958TIP3    H260366   0.883   0.361  15.648
12959TIP3   OH260367   5.878   1.147   6.640
12959TIP3    H160368   5.823   1.145   6.562
12959TIP3    H260369   5.958   1.101   6.614
12960TIP3   OH260370   2.691   2.297   5.310
12960TIP3    H160371   2.661   2.244   5.384
12960TIP3    H260372   2.643   2.379   5.320
12961TIP3   OH260373   3.705   2.723   1.368
12961TIP3    H160374   3.680   2.806   1.328
12961TIP3    H260375   3.799   2.718   1.356
12962TIP3   OH260376   6.182   4.960  14.707
12962TIP3    H160377   6.193   4.940  14.800
12962TIP3    H260378   6.091   4.991  14.700
12963TIP3   OH260379   3.484   1.818  12.830
12963TIP3    H160380   3.404   1.788  12.787
12963TIP3    H260381   3.478   1.784  12.919
12964TIP3   OH260382   0.108   0.650  15.381
12964TIP3    H160383   0.091   0.715  15.313
12964TIP3    H260384   0.201   0.658  15.400
12965TIP3   OH260385   5.164   4.465   6.378
12965TIP3    H160386   5.176   4.420   6.295
12965TIP3    H260387   5.145   4.556   6.353
12966TIP3   OH260388   1.359   5.737  13.021
12966TIP3    H160389   1.320   5.758  13.106
12966TIP3    H260390   1.284   5.713  12.966
12967TIP3   OH260391   4.661   6.582   1.321
12967TIP3    H160392   4.630   6.557   1.234
12967TIP3    H260393   4.604   6.535   1.382
12968TIP3   OH260394   0.025   1.375   0.036
12968TIP3    H160395  -0.026   1.400   0.112
12968TIP3    H260396  -0.016   1.421  -0.037
12969TIP3   OH260397   5.967   0.826   5.928
12969TIP3    H160398   5.998   0.815   6.018
12969TIP3    H260399   5.876   0.856   5.937
12970TIP3   OH260400   0.715   1.678   1.092
12970TIP3    H160401   0.737   1.605   1.149
12970TIP3    H260402   0.629   1.707   1.122
12971TIP3   OH260403   3.803   1.531  16.072
12971TIP3    H160404   3.786   1.588  16.148
12971TIP3    H260405   3.852   1.586  16.011
12972TIP3   OH260406   1.202   0.069   5.016
12972TIP3    H160407   1.258   0.065   5.094
12972TIP3    H260408   1.221  -0.012   4.969
12973TIP3   OH260409   3.549   4.864   6.367
12973TIP3    H160410   3.602   4.854   6.289
12973TIP3    H260411   3.466   4.820   6.346
12974TIP3   OH260412   3.943   6.196   2.766
12974TIP3    H160413   3.974   6.126   2.708
12974TIP3    H260414   4.020   6.220   2.817
12975TIP3   OH260415   1.978   6.003   4.435
12975TIP3    H160416   1.916   5.932   4.415
12975TIP3    H260417   2.045   5.996   4.367
12976TIP3   OH260418   0.613   4.432   3.423
12976TIP3    H160419   0.592   4.342   3.447
12976TIP3    H260420   0.533   4.482   3.440
12977TIP3   OH260421   5.187   4.173  11.096
12977TIP3    H160422   5.271   4.154  11.056
12977TIP3    H260423   5.196   4.141  11.186
12978TIP3   OH260424   4.107   4.338   6.006
12978TIP3    H160425   4.017   4.311   6.023
12978TIP3    H260426   4.099   4.418   5.954
12979TIP3   OH260427   2.065   5.318  12.357
12979TIP3    H160428   2.133   5.370  12.399
12979TIP3    H260429   2.010   5.287  12.430
12980TIP3   OH260430   5.817   0.504  16.801
12980TIP3    H160431   5.800   0.482  16.893
12980TIP3    H260432   5.803   0.422  16.754
12981TIP3   OH260433   3.347   3.947   0.233
12981TIP3    H160434   3.263   3.928   0.274
12981TIP3    H260435   3.402   3.980   0.304
12982TIP3   OH260436   2.018   1.723   4.259
12982TIP3    H160437   1.936   1.737   4.212
12982TIP3    H260438   2.069   1.803   4.243
12983TIP3   OH260439   5.637   1.845  16.913
12983TIP3    H160440   5.578   1.787  16.962
12983TIP3    H260441   5.596   1.931  16.917
12984TIP3   OH260442   3.376   3.678   1.528
12984TIP3    H160443   3.433   3.734   1.581
12984TIP3    H260444   3.287   3.701   1.557
12985TIP3   OH260445   4.863   3.044  15.955
12985TIP3    H160446   4.840   3.033  16.047
12985TIP3    H260447   4.929   3.113  15.954
12986TIP3   OH260448   1.205   3.526   4.936
12986TIP3    H160449   1.212   3.485   4.850
12986TIP3    H260450   1.116   3.560   4.940
12987TIP3   OH260451   6.189   0.410  16.650
12987TIP3    H160452   6.193   0.503  16.671
12987TIP3    H260453   6.141   0.405  16.568
12988TIP3   OH260454   0.774   6.073   1.285
12988TIP3    H160455   0.819   6.091   1.202
12988TIP3    H260456   0.834   6.015   1.332
12989TIP3   OH260457   0.912   0.972   2.606
12989TIP3    H160458   0.856   1.036   2.648
12989TIP3    H260459   0.860   0.892   2.602
12990TIP3   OH260460   0.488   2.339   6.222
12990TIP3    H160461   0.446   2.409   6.172
12990TIP3    H260462   0.464   2.259   6.174
12991TIP3   OH260463   6.500   4.214  13.414
12991TIP3    H160464   6.455   4.188  13.334
12991TIP3    H260465   6.480   4.144  13.477
12992TIP3   OH260466   5.062   0.704   5.045
12992TIP3    H160467   5.100   0.784   5.082
12992TIP3    H260468   5.131   0.667   4.991
12993TIP3   OH260469   1.157   6.503  12.013
12993TIP3    H160470   1.246   6.470  11.997
12993TIP3    H260471   1.122   6.446  12.081
12994TIP3   OH260472   3.365   6.394   1.616
12994TIP3    H160473   3.358   6.360   1.705
12994TIP3    H260474   3.363   6.316   1.560
12995TIP3   OH260475   3.186   2.764  13.582
12995TIP3    H160476   3.132   2.768  13.660
12995TIP3    H260477   3.193   2.671  13.561
12996TIP3   OH260478   0.442   1.662  16.253
12996TIP3    H160479   0.481   1.616  16.328
12996TIP3    H260480   0.421   1.749  16.287
12997TIP3   OH260481   2.916   1.380   1.043
12997TIP3    H160482   2.888   1.308   0.986
12997TIP3    H260483   3.004   1.401   1.014
12998TIP3   OH260484   5.609   0.592  14.206
12998TIP3    H160485   5.636   0.508  14.243
12998TIP3    H260486   5.551   0.569  14.133
12999TIP3   OH260487   5.204   0.219  15.528
12999TIP3    H160488   5.180   0.312  15.529
12999TIP3    H260489   5.155   0.180  15.601
13000TIP3   OH260490   1.389   5.178   0.223
13000TIP3    H160491   1.367   5.262   0.265
13000TIP3    H260492   1.334   5.176   0.145
13001TIP3   OH260493   4.087   4.083  16.862
13001TIP3    H160494   4.045   4.047  16.784
13001TIP3    H260495   4.162   4.026  16.877
13002TIP3   OH260496   5.628   3.044   5.609
13002TIP3    H160497   5.632   3.096   5.690
13002TIP3    H260498   5.640   2.954   5.638
13003TIP3   OH260499   1.062   1.301   6.292
13003TIP3    H160500   1.155   1.321   6.281
13003TIP3    H260501   1.041   1.333   6.380
13004TIP3   OH260502   4.227   5.190   2.793
13004TIP3    H160503   4.263   5.266   2.747
13004TIP3    H260504   4.299   5.160   2.849
13005TIP3   OH260505   6.498   6.594  16.104
13005TIP3    H160506   6.448   6.669  16.134
13005TIP3    H260507   6.459   6.572  16.019
13006TIP3   OH260508   6.298   1.380  16.581
13006TIP3    H160509   6.380   1.418  16.549
13006TIP3    H260510   6.277   1.312  16.518
13007TIP3   OH260511   2.468   5.564  14.163
13007TIP3    H160512   2.420   5.482  14.172
13007TIP3    H260513   2.406   5.631  14.190
13008TIP3   OH260514   5.568   0.738  14.940
13008TIP3    H160515   5.551   0.682  15.016
13008TIP3    H260516   5.628   0.686  14.886
13009TIP3   OH260517   3.241   3.725  16.919
13009TIP3    H160518   3.170   3.737  16.856
13009TIP3    H260519   3.206   3.664  16.983
13010TIP3   OH260520   4.973   4.703   1.740
13010TIP3    H160521   5.026   4.775   1.773
13010TIP3    H260522   4.911   4.744   1.679
13011TIP3   OH260523   2.183   4.364  12.204
13011TIP3    H160524   2.175   4.302  12.132
13011TIP3    H260525   2.127   4.437  12.180
13012TIP3   OH260526   5.853   4.420   4.592
13012TIP3    H160527   5.794   4.376   4.652
13012TIP3    H260528   5.847   4.513   4.615
13013TIP3   OH260529   4.762   4.731   5.763
13013TIP3    H160530   4.721   4.782   5.832
13013TIP3    H260531   4.856   4.744   5.776
13014TIP3   OH260532   3.290   2.988  14.810
13014TIP3    H160533   3.197   2.984  14.830
13014TIP3    H260534   3.309   3.081  14.797
13015TIP3   OH260535   3.226   1.398  13.356
13015TIP3    H160536   3.282   1.455  13.302
13015TIP3    H260537   3.148   1.450  13.372
13016TIP3   OH260538   2.064   3.412   2.484
13016TIP3    H160539   2.123   3.486   2.492
13016TIP3    H260540   1.985   3.449   2.444
13017TIP3   OH260541   0.621   6.709  13.034
13017TIP3    H160542   0.648   6.659  12.957
13017TIP3    H260543   0.609   6.798  13.002
13018TIP3   OH260544   0.276   2.978   1.878
13018TIP3    H160545   0.337   3.038   1.920
13018TIP3    H260546   0.233   3.031   1.811
13019TIP3   OH260547   6.641   5.903   4.647
13019TIP3    H160548   6.709   5.951   4.694
13019TIP3    H260549   6.688   5.843   4.589
13020TIP3   OH260550   1.455   1.373  16.334
13020TIP3    H160551   1.447   1.449  16.392
13020TIP3    H260552   1.417   1.301  16.384
13021TIP3   OH260553   0.750   5.564  13.517
13021TIP3    H160554   0.692   5.521  13.455
13021TIP3    H260555   0.745   5.657  13.495
13022TIP3   OH260556   2.256   6.708  14.940
13022TIP3    H160557   2.251   6.769  15.013
13022TIP3    H260558   2.347   6.713  14.911
13023TIP3   OH260559   2.350   1.352  14.939
13023TIP3    H160560   2.398   1.400  15.006
13023TIP3    H260561   2.282   1.413  14.910
13024TIP3   OH260562   2.375   5.040   0.429
13024TIP3    H160563   2.385   5.079   0.342
13024TIP3    H260564   2.355   4.948   0.412
13025TIP3   OH260565   4.392   0.215  13.129
13025TIP3    H160566   4.460   0.150  13.142
13025TIP3    H260567   4.408   0.251  13.042
13026TIP3   OH260568   3.521   4.689  12.154
13026TIP3    H160569   3.486   4.632  12.086
13026TIP3    H260570   3.449   4.698  12.217
13027TIP3   OH260571   5.927   0.543  12.819
13027TIP3    H160572   5.890   0.574  12.736
13027TIP3    H260573   5.928   0.448  12.811
13028TIP3   OH260574   2.662   4.931  12.842
13028TIP3    H160575   2.723   4.906  12.772
13028TIP3    H260576   2.641   4.848  12.885
13029TIP3   OH260577   3.795   1.766   1.541
13029TIP3    H160578   3.729   1.752   1.609
13029TIP3    H260579   3.806   1.861   1.537
13030TIP3   OH260580   1.084   1.076  16.655
13030TIP3    H160581   1.058   0.996  16.609
13030TIP3    H260582   1.116   1.135  16.587
13031TIP3   OH260583   1.089   6.008   5.542
13031TIP3    H160584   0.996   6.013   5.567
13031TIP3    H260585   1.093   5.930   5.485
13032TIP3   OH260586   2.193   6.524   0.684
13032TIP3    H160587   2.251   6.515   0.760
13032TIP3    H260588   2.177   6.618   0.678
13033TIP3   OH260589   3.097   4.080  13.684
13033TIP3    H160590   3.107   4.153  13.624
13033TIP3    H260591   3.146   4.107  13.763
13034TIP3   OH260592   6.126   4.666   2.026
13034TIP3    H160593   6.094   4.588   1.981
13034TIP3    H260594   6.053   4.695   2.080
13035TIP3   OH260595   2.827   4.810  10.871
13035TIP3    H160596   2.886   4.735  10.875
13035TIP3    H260597   2.750   4.778  10.824
13036TIP3   OH260598   5.045   0.072  14.536
13036TIP3    H160599   5.034  -0.023  14.539
13036TIP3    H260600   5.029   0.101  14.626
13037TIP3   OH260601   4.276   4.038   3.445
13037TIP3    H160602   4.312   3.974   3.384
13037TIP3    H260603   4.344   4.106   3.451
13038TIP3   OH260604   4.440   4.465  14.158
13038TIP3    H160605   4.450   4.461  14.063
13038TIP3    H260606   4.525   4.497  14.190
13039TIP3   OH260607   0.245   1.717   0.772
13039TIP3    H160608   0.158   1.681   0.789
13039TIP3    H260609   0.282   1.662   0.704
13040TIP3   OH260610   4.846   1.515   3.285
13040TIP3    H160611   4.884   1.453   3.347
13040TIP3    H260612   4.888   1.598   3.306
13041TIP3   OH260613   1.650   4.775   5.203
13041TIP3    H160614   1.667   4.708   5.137
13041TIP3    H260615   1.731   4.780   5.254
13042TIP3   OH260616   1.369   6.287   2.942
13042TIP3    H160617   1.357   6.336   2.861
13042TIP3    H260618   1.335   6.344   3.011
13043TIP3   OH260619   0.501   6.714  15.436
13043TIP3    H160620   0.481   6.678  15.523
13043TIP3    H260621   0.595   6.730  15.437
13044TIP3   OH260622   5.815   3.606  16.579
13044TIP3    H160623   5.855   3.586  16.663
13044TIP3    H260624   5.728   3.568  16.584
13045TIP3   OH260625   6.176   1.159   2.811
13045TIP3    H160626   6.257   1.164   2.862
13045TIP3    H260627   6.203   1.176   2.721
13046TIP3   OH260628   1.667   2.533   1.531
13046TIP3    H160629   1.746   2.488   1.502
13046TIP3    H260630   1.617   2.548   1.450
13047TIP3   OH260631   0.211   6.515  16.943
13047TIP3    H160632   0.203   6.596  16.893
13047TIP3    H260633   0.186   6.447  16.881
13048TIP3   OH260634   4.131   3.106  15.278
13048TIP3    H160635   4.097   3.058  15.203
13048TIP3    H260636   4.217   3.068  15.295
13049TIP3   OH260637   0.222   2.069   1.272
13049TIP3    H160638   0.137   2.079   1.313
13049TIP3    H260639   0.209   2.098   1.181
13050TIP3   OH260640   5.314   0.742  16.023
13050TIP3    H160641   5.339   0.674  15.961
13050TIP3    H260642   5.236   0.782  15.985
13051TIP3   OH260643   1.151   6.728  11.688
13051TIP3    H160644   1.104   6.708  11.607
13051TIP3    H260645   1.242   6.703  11.669
13052TIP3   OH260646   2.707   3.820   2.308
13052TIP3    H160647   2.678   3.729   2.310
13052TIP3    H260648   2.774   3.825   2.376
13053TIP3   OH260649   1.905   2.664   4.335
13053TIP3    H160650   1.906   2.717   4.255
13053TIP3    H260651   1.816   2.630   4.340
13054TIP3   OH260652   4.575   5.570   2.342
13054TIP3    H160653   4.524   5.650   2.330
13054TIP3    H260654   4.529   5.522   2.411
13055TIP3   OH260655   0.944   4.643   3.193
13055TIP3    H160656   1.001   4.580   3.149
13055TIP3    H260657   1.005   4.703   3.237
13056TIP3   OH260658   6.032   0.565   4.657
13056TIP3    H160659   6.126   0.580   4.643
13056TIP3    H260660   6.000   0.531   4.574
13057TIP3   OH260661   2.753   6.643  14.247
13057TIP3    H160662   2.780   6.709  14.311
13057TIP3    H260663   2.831   6.591  14.231
13058TIP3   OH260664   1.250   5.716   2.927
13058TIP3    H160665   1.182   5.747   2.868
13058TIP3    H260666   1.332   5.733   2.881
13059TIP3   OH260667   4.934   6.429  12.197
13059TIP3    H160668   4.980   6.472  12.269
13059TIP3    H260669   4.968   6.339  12.197
13060TIP3   OH260670   4.928   5.482  14.515
13060TIP3    H160671   4.854   5.434  14.478
13060TIP3    H260672   4.902   5.573  14.512
13061TIP3   OH260673   0.231   3.496   5.311
13061TIP3    H160674   0.244   3.438   5.386
13061TIP3    H260675   0.316   3.497   5.266
13062TIP3   OH260676   1.456   6.024   5.973
13062TIP3    H160677   1.514   6.063   5.908
13062TIP3    H260678   1.438   5.936   5.940
13063TIP3   OH260679   3.644   1.754   1.775
13063TIP3    H160680   3.639   1.668   1.816
13063TIP3    H260681   3.565   1.761   1.722
13064TIP3   OH260682   1.784   0.086   1.109
13064TIP3    H160683   1.825   0.171   1.125
13064TIP3    H260684   1.857   0.025   1.105
13065TIP3   OH260685   3.775   2.187  12.895
13065TIP3    H160686   3.785   2.092  12.888
13065TIP3    H260687   3.779   2.218  12.804
13066TIP3   OH260688   5.986   2.759   0.429
13066TIP3    H160689   6.012   2.667   0.431
13066TIP3    H260690   5.900   2.759   0.387
13067TIP3   OH260691   4.026   6.340  11.236
13067TIP3    H160692   4.069   6.417  11.273
13067TIP3    H260693   3.985   6.372  11.155
13068TIP3   OH260694   6.720   6.737  11.994
13068TIP3    H160695   6.700   6.830  12.003
13068TIP3    H260696   6.812   6.730  12.021
13069TIP3   OH260697   5.633   0.733   1.619
13069TIP3    H160698   5.691   0.716   1.545
13069TIP3    H260699   5.639   0.828   1.632
13070TIP3   OH260700   2.899   1.803   1.785
13070TIP3    H160701   2.944   1.800   1.870
13070TIP3    H260702   2.850   1.885   1.786
13071TIP3   OH260703   1.319   5.161   3.715
13071TIP3    H160704   1.325   5.247   3.674
13071TIP3    H260705   1.354   5.174   3.804
13072TIP3   OH260706   2.884   6.359   3.437
13072TIP3    H160707   2.942   6.333   3.508
13072TIP3    H260708   2.802   6.381   3.480
13073TIP3   OH260709   3.265   4.285   0.735
13073TIP3    H160710   3.330   4.354   0.723
13073TIP3    H260711   3.258   4.275   0.830
13074TIP3   OH260712   2.710   3.213  11.498
13074TIP3    H160713   2.744   3.301  11.510
13074TIP3    H260714   2.668   3.214  11.412
13075TIP3   OH260715   0.477   4.404   4.872
13075TIP3    H160716   0.487   4.455   4.953
13075TIP3    H260717   0.402   4.347   4.890
13076TIP3   OH260718   3.049   0.429   1.261
13076TIP3    H160719   3.060   0.420   1.355
13076TIP3    H260720   3.048   0.339   1.228
13077TIP3   OH260721   2.373   3.802  10.826
13077TIP3    H160722   2.345   3.728  10.772
13077TIP3    H260723   2.393   3.871  10.762
13078TIP3   OH260724   5.762   5.335   0.358
13078TIP3    H160725   5.739   5.427   0.346
13078TIP3    H260726   5.689   5.286   0.319
13079TIP3   OH260727   1.458   5.489  13.756
13079TIP3    H160728   1.517   5.518  13.686
13079TIP3    H260729   1.417   5.410  13.722
13080TIP3   OH260730   4.263   4.171   5.081
13080TIP3    H160731   4.191   4.221   5.118
13080TIP3    H260732   4.263   4.089   5.131
13081TIP3   OH260733   4.155   0.502  16.155
13081TIP3    H160734   4.159   0.585  16.202
13081TIP3    H260735   4.088   0.451  16.201
13082TIP3   OH260736   0.682   1.616   4.825
13082TIP3    H160737   0.739   1.555   4.778
13082TIP3    H260738   0.639   1.563   4.892
13083TIP3   OH260739   4.785   1.128  12.091
13083TIP3    H160740   4.773   1.034  12.077
13083TIP3    H260741   4.731   1.148  12.169
13084TIP3   OH260742   3.852   5.336  14.260
13084TIP3    H160743   3.789   5.346  14.189
13084TIP3    H260744   3.849   5.243  14.282
13085TIP3   OH260745   3.236   2.971  12.266
13085TIP3    H160746   3.249   3.035  12.196
13085TIP3    H260747   3.197   3.021  12.337
13086TIP3   OH260748   0.948   5.945  14.285
13086TIP3    H160749   0.916   5.904  14.204
13086TIP3    H260750   0.975   6.033  14.258
13087TIP3   OH260751   4.075   0.206   4.997
13087TIP3    H160752   4.114   0.273   5.054
13087TIP3    H260753   4.126   0.127   5.014
13088TIP3   OH260754   0.266   6.023  15.888
13088TIP3    H160755   0.327   6.041  15.959
13088TIP3    H260756   0.320   6.024  15.809
13089TIP3   OH260757   4.831   6.789   1.286
13089TIP3    H160758   4.772   6.715   1.298
13089TIP3    H260759   4.788   6.861   1.332
13090TIP3   OH260760   4.438   2.740   0.686
13090TIP3    H160761   4.474   2.758   0.598
13090TIP3    H260762   4.343   2.738   0.673
13091TIP3   OH260763   1.116   6.589   2.790
13091TIP3    H160764   1.059   6.589   2.713
13091TIP3    H260765   1.186   6.527   2.769
13092TIP3   OH260766   4.410   0.374  13.862
13092TIP3    H160767   4.348   0.325  13.916
13092TIP3    H260768   4.362   0.395  13.783
13093TIP3   OH260769   1.296   1.789  13.120
13093TIP3    H160770   1.372   1.806  13.064
13093TIP3    H260771   1.327   1.723  13.183
13094TIP3   OH260772   1.805   3.093   1.139
13094TIP3    H160773   1.766   3.097   1.051
13094TIP3    H260774   1.859   3.172   1.144
13095TIP3   OH260775   1.675   1.080   4.041
13095TIP3    H160776   1.668   0.994   4.083
13095TIP3    H260777   1.698   1.061   3.950
13096TIP3   OH260778   0.982   2.746  15.585
13096TIP3    H160779   0.988   2.839  15.605
13096TIP3    H260780   0.984   2.741  15.490
13097TIP3   OH260781   5.541   1.967   5.842
13097TIP3    H160782   5.551   1.998   5.751
13097TIP3    H260783   5.448   1.979   5.861
13098TIP3   OH260784   3.029   1.454  11.999
13098TIP3    H160785   3.027   1.389  12.069
13098TIP3    H260786   3.121   1.459  11.973
13099TIP3   OH260787   1.508   5.552  11.701
13099TIP3    H160788   1.603   5.566  11.694
13099TIP3    H260789   1.500   5.462  11.732
13100TIP3   OH260790   4.419   1.346  16.573
13100TIP3    H160791   4.357   1.274  16.566
13100TIP3    H260792   4.472   1.325  16.650
13101TIP3   OH260793   0.327   0.638   6.810
13101TIP3    H160794   0.421   0.639   6.828
13101TIP3    H260795   0.307   0.546   6.792
13102TIP3   OH260796   6.648   6.001   2.766
13102TIP3    H160797   6.720   6.064   2.762
13102TIP3    H260798   6.579   6.047   2.814
13103TIP3   OH260799   4.395   3.018   4.690
13103TIP3    H160800   4.418   3.079   4.621
13103TIP3    H260801   4.301   3.030   4.704
13104TIP3   OH260802   3.496   5.478   4.509
13104TIP3    H160803   3.558   5.483   4.581
13104TIP3    H260804   3.532   5.411   4.450
13105TIP3   OH260805   4.859   3.756  10.894
13105TIP3    H160806   4.920   3.804  10.950
13105TIP3    H260807   4.913   3.728  10.819
13106TIP3   OH260808   4.517   1.360  14.791
13106TIP3    H160809   4.584   1.352  14.722
13106TIP3    H260810   4.538   1.442  14.835
13107TIP3   OH260811   1.522   5.912  14.043
13107TIP3    H160812   1.452   5.847  14.037
13107TIP3    H260813   1.488   5.988  13.996
13108TIP3   OH260814   3.281   1.726   3.190
13108TIP3    H160815   3.259   1.813   3.223
13108TIP3    H260816   3.259   1.667   3.262
13109TIP3   OH260817   2.392   2.670   1.259
13109TIP3    H160818   2.302   2.639   1.248
13109TIP3    H260819   2.388   2.764   1.239
13110TIP3   OH260820   3.904   5.928  10.909
13110TIP3    H160821   3.916   5.850  10.855
13110TIP3    H260822   3.815   5.919  10.944
13111TIP3   OH260823   3.508   0.638  16.185
13111TIP3    H160824   3.507   0.720  16.233
13111TIP3    H260825   3.561   0.579  16.239
13112TIP3   OH260826   6.142   0.808  15.921
13112TIP3    H160827   6.145   0.900  15.945
13112TIP3    H260828   6.094   0.806  15.838
13113TIP3   OH260829   1.502   2.109   0.848
13113TIP3    H160830   1.453   2.190   0.840
13113TIP3    H260831   1.519   2.081   0.758
13114TIP3   OH260832   0.030   6.029   3.375
13114TIP3    H160833   0.060   6.014   3.465
13114TIP3    H260834   0.028   5.942   3.336
13115TIP3   OH260835   3.045   0.822   3.240
13115TIP3    H160836   2.953   0.848   3.240
13115TIP3    H260837   3.065   0.803   3.149
13116TIP3   OH260838   3.253   0.257  15.910
13116TIP3    H160839   3.157   0.255  15.908
13116TIP3    H260840   3.276   0.322  15.844
13117TIP3   OH260841   0.527   0.954  12.335
13117TIP3    H160842   0.441   0.917  12.317
13117TIP3    H260843   0.589   0.889  12.301
13118TIP3   OH260844   3.674   0.829  16.790
13118TIP3    H160845   3.605   0.855  16.850
13118TIP3    H260846   3.644   0.746  16.752
13119TIP3   OH260847   6.708   4.135  16.582
13119TIP3    H160848   6.779   4.075  16.560
13119TIP3    H260849   6.689   4.117  16.674
13120TIP3   OH260850   2.256   1.128   5.821
13120TIP3    H160851   2.281   1.220   5.819
13120TIP3    H260852   2.272   1.098   5.731
13121TIP3   OH260853   6.778   2.352  14.357
13121TIP3    H160854   6.736   2.435  14.335
13121TIP3    H260855   6.850   2.344  14.294
13122TIP3   OH260856   2.961   5.085  12.429
13122TIP3    H160857   2.944   5.111  12.520
13122TIP3    H260858   2.910   5.004  12.418
13123TIP3   OH260859   0.269   3.930  15.637
13123TIP3    H160860   0.330   3.906  15.567
13123TIP3    H260861   0.293   3.874  15.710
13124TIP3   OH260862   5.178   5.446   1.962
13124TIP3    H160863   5.232   5.478   1.890
13124TIP3    H260864   5.122   5.379   1.923
13125TIP3   OH260865   2.800   6.528  13.152
13125TIP3    H160866   2.727   6.472  13.126
13125TIP3    H260867   2.759   6.602  13.197
13126TIP3   OH260868   1.772   1.203  13.389
13126TIP3    H160869   1.721   1.240  13.317
13126TIP3    H260870   1.709   1.192  13.460
13127TIP3   OH260871   3.984   5.567   5.763
13127TIP3    H160872   3.912   5.627   5.744
13127TIP3    H260873   3.965   5.533   5.850
13128TIP3   OH260874   2.569   6.209  12.109
13128TIP3    H160875   2.483   6.192  12.146
13128TIP3    H260876   2.590   6.298  12.138
13129TIP3   OH260877   1.815   3.415   0.243
13129TIP3    H160878   1.775   3.430   0.157
13129TIP3    H260879   1.762   3.347   0.283
13130TIP3   OH260880   6.711   5.251   0.864
13130TIP3    H160881   6.685   5.279   0.777
13130TIP3    H260882   6.722   5.156   0.856
13131TIP3   OH260883   4.275   2.400   5.552
13131TIP3    H160884   4.269   2.361   5.465
13131TIP3    H260885   4.369   2.408   5.569
13132TIP3   OH260886   6.117   2.826   6.081
13132TIP3    H160887   6.161   2.892   6.133
13132TIP3    H260888   6.125   2.857   5.991
13133TIP3   OH260889   0.782   0.455   5.491
13133TIP3    H160890   0.829   0.372   5.494
13133TIP3    H260891   0.851   0.521   5.476
13134TIP3   OH260892   3.098   1.796   2.827
13134TIP3    H160893   3.194   1.797   2.835
13134TIP3    H260894   3.082   1.767   2.737
13135TIP3   OH260895   5.898   6.032   1.421
13135TIP3    H160896   5.861   5.956   1.466
13135TIP3    H260897   5.843   6.043   1.344
13136TIP3   OH260898   5.177   4.613  15.829
13136TIP3    H160899   5.271   4.602  15.817
13136TIP3    H260900   5.143   4.523  15.833
13137TIP3   OH260901   5.651   4.513   3.749
13137TIP3    H160902   5.603   4.483   3.672
13137TIP3    H260903   5.628   4.606   3.756
13138TIP3   OH260904   5.051   5.257   2.776
13138TIP3    H160905   5.028   5.199   2.703
13138TIP3    H260906   5.004   5.220   2.851
13139TIP3   OH260907   1.523   1.552  11.492
13139TIP3    H160908   1.533   1.474  11.546
13139TIP3    H260909   1.540   1.625  11.552
13140TIP3   OH260910   6.063   5.219  14.214
13140TIP3    H160911   6.033   5.272  14.141
13140TIP3    H260912   6.153   5.195  14.191
13141TIP3   OH260913   6.019   4.251  11.378
13141TIP3    H160914   6.016   4.339  11.341
13141TIP3    H260915   5.997   4.193  11.305
13142TIP3   OH260916   2.791   5.594   2.212
13142TIP3    H160917   2.777   5.602   2.306
13142TIP3    H260918   2.710   5.556   2.178
13143TIP3   OH260919   2.523   5.255  15.954
13143TIP3    H160920   2.548   5.164  15.940
13143TIP3    H260921   2.596   5.293  16.002
13144TIP3   OH260922   2.554   4.355  16.893
13144TIP3    H160923   2.522   4.442  16.919
13144TIP3    H260924   2.476   4.310  16.860
13145TIP3   OH260925   2.247   0.472   5.564
13145TIP3    H160926   2.292   0.524   5.498
13145TIP3    H260927   2.316   0.440   5.622
13146TIP3   OH260928   1.411   2.407   5.147
13146TIP3    H160929   1.442   2.495   5.168
13146TIP3    H260930   1.383   2.371   5.231
13147TIP3   OH260931   5.239   5.335  14.961
13147TIP3    H160932   5.294   5.342  14.883
13147TIP3    H260933   5.182   5.412  14.956
13148TIP3   OH260934   5.177   3.290  15.724
13148TIP3    H160935   5.109   3.341  15.679
13148TIP3    H260936   5.223   3.354  15.778
13149TIP3   OH260937   6.298   5.187   6.644
13149TIP3    H160938   6.252   5.126   6.587
13149TIP3    H260939   6.230   5.222   6.702
13150TIP3   OH260940   5.051   2.631  15.552
13150TIP3    H160941   5.079   2.559  15.495
13150TIP3    H260942   4.956   2.626  15.553
13151TIP3   OH260943   3.780   1.915  16.135
13151TIP3    H160944   3.833   1.943  16.060
13151TIP3    H260945   3.746   1.997  16.172
13152TIP3   OH260946   5.740   2.001   4.543
13152TIP3    H160947   5.709   1.911   4.550
13152TIP3    H260948   5.718   2.041   4.627
13153TIP3   OH260949   6.066   3.683   0.024
13153TIP3    H160950   6.038   3.724  -0.058
13153TIP3    H260951   5.993   3.696   0.083
13154TIP3   OH260952   3.602   2.768   2.130
13154TIP3    H160953   3.649   2.767   2.047
13154TIP3    H260954   3.590   2.861   2.150
13155TIP3   OH260955   6.171   1.458  16.812
13155TIP3    H160956   6.163   1.553  16.799
13155TIP3    H260957   6.210   1.426  16.731
13156TIP3   OH260958   1.538   4.481   6.241
13156TIP3    H160959   1.620   4.488   6.291
13156TIP3    H260960   1.541   4.394   6.201
13157TIP3   OH260961   0.557   4.064  16.796
13157TIP3    H160962   0.469   4.054  16.760
13157TIP3    H260963   0.565   3.991  16.858
13158TIP3   OH260964   6.475   4.568  13.801
13158TIP3    H160965   6.481   4.576  13.706
13158TIP3    H260966   6.381   4.555  13.818
13159TIP3   OH260967   2.122   5.165   0.755
13159TIP3    H160968   2.062   5.161   0.681
13159TIP3    H260969   2.079   5.223   0.818
13160TIP3   OH260970   2.645   6.248  11.474
13160TIP3    H160971   2.584   6.293  11.415
13160TIP3    H260972   2.718   6.223  11.418
13161TIP3   OH260973   4.955   1.055   4.004
13161TIP3    H160974   4.951   1.129   4.064
13161TIP3    H260975   5.032   1.072   3.950
13162TIP3   OH260976   1.615   0.957  14.046
13162TIP3    H160977   1.534   0.984  14.003
13162TIP3    H260978   1.623   1.016  14.121
13163TIP3   OH260979   3.300   0.676  15.962
13163TIP3    H160980   3.373   0.669  16.024
13163TIP3    H260981   3.229   0.627  16.003
13164TIP3   OH260982   4.140   3.175  14.835
13164TIP3    H160983   4.055   3.195  14.875
13164TIP3    H260984   4.149   3.240  14.765
13165TIP3   OH260985   1.410   2.977   5.271
13165TIP3    H160986   1.346   3.006   5.337
13165TIP3    H260987   1.447   2.897   5.308
13166TIP3   OH260988   1.135   4.122  12.437
13166TIP3    H160989   1.046   4.085  12.442
13166TIP3    H260990   1.181   4.066  12.374
13167TIP3   OH260991   0.065   4.410   6.189
13167TIP3    H160992   0.061   4.488   6.244
13167TIP3    H260993   0.128   4.432   6.120
13168TIP3   OH260994   3.067   5.995  14.093
13168TIP3    H160995   3.005   5.923  14.086
13168TIP3    H260996   3.013   6.073  14.106
13169TIP3   OH260997   1.838   2.288   3.616
13169TIP3    H160998   1.908   2.243   3.665
13169TIP3    H260999   1.762   2.282   3.673
13170TIP3   OH261000   4.717   5.214   2.521
13170TIP3    H161001   4.780   5.285   2.510
13170TIP3    H261002   4.756   5.140   2.473
13171TIP3   OH261003   4.246   6.147  15.705
13171TIP3    H161004   4.194   6.069  15.721
13171TIP3    H261005   4.330   6.115  15.673
13172TIP3   OH261006   3.137   2.077   2.387
13172TIP3    H161007   3.095   2.163   2.385
13172TIP3    H261008   3.221   2.090   2.342
13173TIP3   OH261009   5.180   3.901  15.724
13173TIP3    H161010   5.144   3.905  15.812
13173TIP3    H261011   5.244   3.972  15.720
13174TIP3   OH261012   4.370   2.498   3.937
13174TIP3    H161013   4.333   2.541   3.860
13174TIP3    H261014   4.385   2.408   3.909
13175TIP3   OH261015   4.800   5.285  12.088
13175TIP3    H161016   4.791   5.379  12.104
13175TIP3    H261017   4.886   5.263  12.124
13176TIP3   OH261018   3.487   5.245  11.094
13176TIP3    H161019   3.491   5.208  11.006
13176TIP3    H261020   3.569   5.292  11.105
13177TIP3   OH261021   3.370   2.937  11.242
13177TIP3    H161022   3.310   2.932  11.317
13177TIP3    H261023   3.313   2.951  11.166
13178TIP3   OH261024   2.615   2.166   3.508
13178TIP3    H161025   2.667   2.242   3.534
13178TIP3    H261026   2.640   2.098   3.571
13179TIP3   OH261027   2.008   1.631   0.875
13179TIP3    H161028   2.044   1.546   0.850
13179TIP3    H261029   1.986   1.673   0.792
13180TIP3   OH261030   3.033   1.895  16.199
13180TIP3    H161031   3.057   1.876  16.108
13180TIP3    H261032   2.939   1.915  16.195
13181TIP3   OH261033   5.992   2.791  15.382
13181TIP3    H161034   6.010   2.778  15.475
13181TIP3    H261035   5.896   2.787  15.375
13182TIP3   OH261036   0.967   5.275   2.662
13182TIP3    H161037   0.999   5.258   2.573
13182TIP3    H261038   0.878   5.308   2.649
13183TIP3   OH261039   0.273   2.450  13.051
13183TIP3    H161040   0.265   2.372  13.106
13183TIP3    H261041   0.280   2.416  12.962
13184TIP3   OH261042   2.964   0.581  15.981
13184TIP3    H161043   3.008   0.665  15.996
13184TIP3    H261044   2.880   0.604  15.942
13185TIP3   OH261045   1.883   4.607   2.142
13185TIP3    H161046   1.928   4.566   2.216
13185TIP3    H261047   1.805   4.553   2.130
13186TIP3   OH261048   1.506   6.013   2.384
13186TIP3    H161049   1.557   6.029   2.463
13186TIP3    H261050   1.529   5.924   2.358
13187TIP3   OH261051   5.851   2.874   1.804
13187TIP3    H161052   5.764   2.882   1.765
13187TIP3    H261053   5.908   2.848   1.731
13188TIP3   OH261054   3.686   0.692   2.728
13188TIP3    H161055   3.635   0.726   2.802
13188TIP3    H261056   3.659   0.745   2.653
13189TIP3   OH261057   0.403   1.904   0.543
13189TIP3    H161058   0.323   1.922   0.495
13189TIP3    H261059   0.443   1.831   0.496
13190TIP3   OH261060   3.626   5.386  11.495
13190TIP3    H161061   3.626   5.401  11.400
13190TIP3    H261062   3.682   5.456  11.529
13191TIP3   OH261063   3.160   3.718   3.765
13191TIP3    H161064   3.180   3.680   3.851
13191TIP3    H261065   3.076   3.762   3.777
13192TIP3   OH261066   6.543   4.091   5.301
13192TIP3    H161067   6.560   4.143   5.222
13192TIP3    H261068   6.562   4.001   5.274
13193TIP3   OH261069   3.484   2.462  13.199
13193TIP3    H161070   3.419   2.495  13.138
13193TIP3    H261071   3.547   2.416  13.143
13194TIP3   OH261072   1.850   3.672   3.954
13194TIP3    H161073   1.900   3.700   3.877
13194TIP3    H261074   1.897   3.594   3.985
13195TIP3   OH261075   4.906   3.167  15.434
13195TIP3    H161076   4.999   3.144  15.433
13195TIP3    H261077   4.898   3.231  15.504
13196TIP3   OH261078   5.306   1.168   5.870
13196TIP3    H161079   5.269   1.083   5.846
13196TIP3    H261080   5.351   1.151   5.953
13197TIP3   OH261081   3.918   2.021  13.557
13197TIP3    H161082   3.956   2.109  13.558
13197TIP3    H261083   3.980   1.969  13.505
13198TIP3   OH261084   3.415   5.415   0.096
13198TIP3    H161085   3.336   5.363   0.078
13198TIP3    H261086   3.383   5.505   0.103
13199TIP3   OH261087   3.352   1.594  15.012
13199TIP3    H161088   3.262   1.573  14.985
13199TIP3    H261089   3.362   1.687  14.991
13200TIP3   OH261090   0.593   3.852   2.281
13200TIP3    H161091   0.625   3.942   2.277
13200TIP3    H261092   0.534   3.851   2.356
13201TIP3   OH261093   5.501   5.665   5.253
13201TIP3    H161094   5.423   5.611   5.239
13201TIP3    H261095   5.513   5.665   5.348
13202TIP3   OH261096   1.789   5.613   4.785
13202TIP3    H161097   1.869   5.655   4.755
13202TIP3    H261098   1.790   5.526   4.746
13203TIP3   OH261099   4.202   0.310  14.519
13203TIP3    H161100   4.165   0.251  14.454
13203TIP3    H261101   4.140   0.307  14.592
13204TIP3   OH261102   4.931   2.084   4.706
13204TIP3    H161103   4.870   2.036   4.760
13204TIP3    H261104   4.922   2.045   4.619
13205TIP3   OH261105   4.756   5.117   0.277
13205TIP3    H161106   4.770   5.193   0.333
13205TIP3    H261107   4.728   5.048   0.337
13206TIP3   OH261108   0.699   2.786   1.630
13206TIP3    H161109   0.643   2.717   1.595
13206TIP3    H261110   0.717   2.843   1.555
13207TIP3   OH261111   1.056   4.363  11.179
13207TIP3    H161112   1.070   4.286  11.234
13207TIP3    H261113   1.062   4.329  11.090
13208TIP3   OH261114   1.017   0.939  11.228
13208TIP3    H161115   1.035   0.866  11.288
13208TIP3    H261116   1.089   0.935  11.164
13209TIP3   OH261117   0.543   3.454  14.416
13209TIP3    H161118   0.565   3.422  14.328
13209TIP3    H261119   0.626   3.486  14.451
13210TIP3   OH261120   5.930   5.827   3.651
13210TIP3    H161121   6.022   5.815   3.625
13210TIP3    H261122   5.899   5.901   3.599
13211TIP3   OH261123   0.683   1.687   0.712
13211TIP3    H161124   0.769   1.646   0.714
13211TIP3    H261125   0.698   1.776   0.745
13212TIP3   OH261126   1.563   0.069   1.617
13212TIP3    H161127   1.603   0.103   1.537
13212TIP3    H261128   1.548   0.147   1.671
13213TIP3   OH261129   6.740   1.744   4.656
13213TIP3    H161130   6.805   1.717   4.591
13213TIP3    H261131   6.749   1.839   4.661
13214TIP3   OH261132   1.497   6.276  15.814
13214TIP3    H161133   1.477   6.360  15.772
13214TIP3    H261134   1.564   6.297  15.879
13215TIP3   OH261135   4.279   2.824   2.693
13215TIP3    H161136   4.258   2.914   2.670
13215TIP3    H261137   4.231   2.808   2.774
13216TIP3   OH261138   0.775   1.252  12.189
13216TIP3    H161139   0.786   1.305  12.268
13216TIP3    H261140   0.857   1.262  12.141
13217TIP3   OH261141   5.823   5.971  17.168
13217TIP3    H161142   5.734   5.978  17.132
13217TIP3    H261143   5.847   5.880  17.153
13218TIP3   OH261144   2.747   1.987   0.662
13218TIP3    H161145   2.662   2.005   0.622
13218TIP3    H261146   2.765   1.896   0.638
13219TIP3   OH261147   1.904   1.091   2.208
13219TIP3    H161148   1.999   1.094   2.194
13219TIP3    H261149   1.868   1.153   2.145
13220TIP3   OH261150   2.547   5.941   2.420
13220TIP3    H161151   2.626   5.992   2.401
13220TIP3    H261152   2.545   5.873   2.353
13221TIP3   OH261153   0.413   5.254  16.930
13221TIP3    H161154   0.472   5.211  16.991
13221TIP3    H261155   0.376   5.327  16.981
13222TIP3   OH261156   3.956   6.347  16.865
13222TIP3    H161157   3.862   6.360  16.877
13222TIP3    H261158   3.991   6.436  16.858
13223TIP3   OH261159   1.266   4.054  13.703
13223TIP3    H161160   1.184   4.011  13.677
13223TIP3    H261161   1.270   4.133  13.649
13224TIP3   OH261162   1.208   3.893   2.051
13224TIP3    H161163   1.223   3.947   2.128
13224TIP3    H261164   1.114   3.904   2.032
13225TIP3   OH261165   0.652   3.345  15.086
13225TIP3    H161166   0.602   3.266  15.062
13225TIP3    H261167   0.743   3.321  15.072
13226TIP3   OH261168   6.775   1.061  15.285
13226TIP3    H161169   6.856   1.111  15.274
13226TIP3    H261170   6.795   0.996  15.351
13227TIP3   OH261171   1.470   6.442   4.028
13227TIP3    H161172   1.504   6.492   4.102
13227TIP3    H261173   1.385   6.482   4.008
13228TIP3   OH261174   0.377   4.306   3.643
13228TIP3    H161175   0.291   4.264   3.632
13228TIP3    H261176   0.437   4.251   3.594
13229TIP3   OH261177   2.159   1.363   5.668
13229TIP3    H161178   2.094   1.376   5.599
13229TIP3    H261179   2.222   1.434   5.655
13230TIP3   OH261180   3.811   1.075  14.547
13230TIP3    H161181   3.874   1.016  14.588
13230TIP3    H261182   3.742   1.017  14.516
13231TIP3   OH261183   5.640   2.285  12.637
13231TIP3    H161184   5.650   2.242  12.722
13231TIP3    H261185   5.572   2.235  12.592
13232TIP3   OH261186   3.879   1.000   4.400
13232TIP3    H161187   3.952   0.953   4.440
13232TIP3    H261188   3.817   1.012   4.472
13233TIP3   OH261189   5.547   2.413   0.782
13233TIP3    H161190   5.581   2.338   0.830
13233TIP3    H261191   5.459   2.427   0.817
13234TIP3   OH261192   1.007   0.837   1.954
13234TIP3    H161193   1.048   0.913   1.995
13234TIP3    H261194   0.925   0.870   1.918
13235TIP3   OH261195   4.923   2.688  16.122
13235TIP3    H161196   4.958   2.679  16.211
13235TIP3    H261197   5.000   2.706  16.068
13236TIP3   OH261198   3.106   0.334   1.510
13236TIP3    H161199   3.030   0.344   1.568
13236TIP3    H261200   3.177   0.311   1.570
13237TIP3   OH261201   1.267   0.906  17.149
13237TIP3    H161202   1.264   0.865  17.063
13237TIP3    H261203   1.176   0.905  17.179
13238TIP3   OH261204   4.208   6.439   1.029
13238TIP3    H161205   4.238   6.524   0.996
13238TIP3    H261206   4.280   6.409   1.084
13239TIP3   OH261207   0.480   1.525   1.421
13239TIP3    H161208   0.391   1.538   1.388
13239TIP3    H261209   0.526   1.484   1.348
13240TIP3   OH261210   3.781   0.644   0.106
13240TIP3    H161211   3.706   0.586   0.119
13240TIP3    H261212   3.765   0.686   0.022
13241TIP3   OH261213   3.050   2.208   1.634
13241TIP3    H161214   3.087   2.295   1.640
13241TIP3    H261215   2.955   2.222   1.636
13242TIP3   OH261216   4.223   5.120  14.996
13242TIP3    H161217   4.171   5.128  15.076
13242TIP3    H261218   4.267   5.205  14.987
13243TIP3   OH261219   2.689   2.505  16.819
13243TIP3    H161220   2.666   2.413  16.832
13243TIP3    H261221   2.605   2.550  16.812
13244TIP3   OH261222   3.461   4.234   4.388
13244TIP3    H161223   3.434   4.171   4.455
13244TIP3    H261224   3.411   4.313   4.409
13245TIP3   OH261225   3.779   4.093  12.984
13245TIP3    H161226   3.726   4.017  12.959
13245TIP3    H261227   3.722   4.143  13.042
13246TIP3   OH261228   3.011   4.953   3.698
13246TIP3    H161229   2.925   4.988   3.675
13246TIP3    H261230   3.068   5.029   3.703
13247TIP3   OH261231   6.162   5.582   2.817
13247TIP3    H161232   6.097   5.512   2.825
13247TIP3    H261233   6.234   5.542   2.768
13248TIP3   OH261234   6.334   4.822  14.400
13248TIP3    H161235   6.338   4.733  14.435
13248TIP3    H261236   6.367   4.877  14.471
13249TIP3   OH261237   4.985   2.739   6.058
13249TIP3    H161238   4.911   2.688   6.025
13249TIP3    H261239   4.978   2.732   6.153
13250TIP3   OH261240   2.650   4.130  14.891
13250TIP3    H161241   2.578   4.095  14.943
13250TIP3    H261242   2.720   4.146  14.954
13251TIP3   OH261243   6.617   5.786   0.569
13251TIP3    H161244   6.623   5.695   0.540
13251TIP3    H261245   6.640   5.837   0.492
13252TIP3   OH261246   1.209   3.952  16.696
13252TIP3    H161247   1.127   3.941  16.744
13252TIP3    H261248   1.266   4.001  16.755
13253TIP3   OH261249   4.116   1.887  14.770
13253TIP3    H161250   4.172   1.882  14.847
13253TIP3    H261251   4.028   1.902  14.805
13254TIP3   OH261252   5.395   2.712  15.861
13254TIP3    H161253   5.313   2.663  15.862
13254TIP3    H261254   5.462   2.646  15.842
13255TIP3   OH261255   5.352   5.738  15.951
13255TIP3    H161256   5.343   5.825  15.913
13255TIP3    H261257   5.278   5.688  15.916
13256TIP3   OH261258   0.451   1.272  16.391
13256TIP3    H161259   0.493   1.207  16.448
13256TIP3    H261260   0.374   1.227  16.357
13257TIP3   OH261261   0.758   0.492  16.958
13257TIP3    H161262   0.837   0.438  16.964
13257TIP3    H261263   0.748   0.509  16.864
13258TIP3   OH261264   2.832   6.059  14.364
13258TIP3    H161265   2.861   6.119  14.296
13258TIP3    H261266   2.900   6.065  14.431
13259TIP3   OH261267   4.518   2.052  13.819
13259TIP3    H161268   4.558   2.037  13.905
13259TIP3    H261269   4.513   2.148  13.812
13260TIP3   OH261270   2.706   2.685   0.437
13260TIP3    H161271   2.713   2.724   0.525
13260TIP3    H261272   2.719   2.759   0.377
13261TIP3   OH261273   5.399   4.025   4.901
13261TIP3    H161274   5.388   4.049   4.993
13261TIP3    H261275   5.331   3.959   4.886
13262TIP3   OH261276   4.116   1.232  14.564
13262TIP3    H161277   4.162   1.163  14.516
13262TIP3    H261278   4.174   1.256  14.635
13263TIP3   OH261279   3.289   4.009  15.557
13263TIP3    H161280   3.317   3.942  15.494
13263TIP3    H261281   3.235   4.068  15.505
13264TIP3   OH261282   3.027   6.545  15.685
13264TIP3    H161283   3.090   6.547  15.757
13264TIP3    H261284   3.081   6.553  15.606
13265TIP3   OH261285   5.057   6.243   0.809
13265TIP3    H161286   4.966   6.217   0.819
13265TIP3    H261287   5.081   6.281   0.894
13266TIP3   OH261288   2.295   3.438  12.158
13266TIP3    H161289   2.277   3.437  12.064
13266TIP3    H261290   2.211   3.417  12.198
13267TIP3   OH261291   3.076   3.840   4.179
13267TIP3    H161292   3.057   3.810   4.268
13267TIP3    H261293   3.107   3.762   4.133
13268TIP3   OH261294   1.614   0.908   1.734
13268TIP3    H161295   1.530   0.905   1.689
13268TIP3    H261296   1.674   0.948   1.672
13269TIP3   OH261297   3.576   1.582  16.395
13269TIP3    H161298   3.644   1.611  16.334
13269TIP3    H261299   3.501   1.638  16.375
13270TIP3   OH261300   3.803   3.289  13.484
13270TIP3    H161301   3.762   3.232  13.419
13270TIP3    H261302   3.890   3.250  13.498
13271TIP3   OH261303   6.687   4.122   4.513
13271TIP3    H161304   6.625   4.188   4.545
13271TIP3    H261305   6.723   4.160   4.433
13272TIP3   OH261306   2.629   3.603   6.377
13272TIP3    H161307   2.721   3.577   6.366
13272TIP3    H261308   2.579   3.534   6.334
13273TIP3   OH261309   6.429   3.688  13.282
13273TIP3    H161310   6.376   3.646  13.215
13273TIP3    H261311   6.519   3.677  13.252
13274TIP3   OH261312   1.629   5.239   2.532
13274TIP3    H161313   1.534   5.226   2.530
13274TIP3    H261314   1.640   5.322   2.580
13275TIP3   OH261315   0.206   5.306   0.535
13275TIP3    H161316   0.205   5.402   0.534
13275TIP3    H261317   0.285   5.283   0.584
13276TIP3   OH261318   3.346   2.473   4.823
13276TIP3    H161319   3.293   2.414   4.769
13276TIP3    H261320   3.285   2.540   4.852
13277TIP3   OH261321   4.893   2.295  12.196
13277TIP3    H161322   4.961   2.262  12.137
13277TIP3    H261323   4.817   2.238  12.179
13278TIP3   OH261324   5.461   4.120  16.391
13278TIP3    H161325   5.470   4.139  16.484
13278TIP3    H261326   5.519   4.182  16.348
13279TIP3   OH261327   0.868   0.796   2.870
13279TIP3    H161328   0.887   0.777   2.962
13279TIP3    H261329   0.952   0.818   2.832
13280TIP3   OH261330   5.094   4.433   1.206
13280TIP3    H161331   5.037   4.499   1.246
13280TIP3    H261332   5.162   4.484   1.163
13281TIP3   OH261333   3.535   1.511   3.380
13281TIP3    H161334   3.588   1.515   3.301
13281TIP3    H261335   3.579   1.446   3.435
13282TIP3   OH261336   4.106   1.798   1.935
13282TIP3    H161337   4.079   1.889   1.946
13282TIP3    H261338   4.074   1.775   1.848
13283TIP3   OH261339   4.478   6.657  17.021
13283TIP3    H161340   4.413   6.666  16.951
13283TIP3    H261341   4.561   6.651  16.975
13284TIP3   OH261342   3.817   0.957  15.360
13284TIP3    H161343   3.840   1.048  15.376
13284TIP3    H261344   3.774   0.957  15.275
13285TIP3   OH261345   0.008   4.020  12.617
13285TIP3    H161346   0.067   4.068  12.558
13285TIP3    H261347   0.040   4.041  12.705
13286TIP3   OH261348   3.762   1.445  12.555
13286TIP3    H161349   3.708   1.519  12.580
13286TIP3    H261350   3.700   1.380  12.522
13287TIP3   OH261351   0.487   1.929  10.364
13287TIP3    H161352   0.467   1.995  10.430
13287TIP3    H261353   0.402   1.908  10.325
13288TIP3   OH261354   4.014   0.772   6.014
13288TIP3    H161355   4.034   0.787   6.106
13288TIP3    H261356   4.078   0.706   5.986
13289TIP3   OH261357   6.756   1.621  16.746
13289TIP3    H161358   6.757   1.617  16.841
13289TIP3    H261359   6.815   1.694  16.724
13290TIP3   OH261360   1.535   3.181  12.046
13290TIP3    H161361   1.554   3.168  12.138
13290TIP3    H261362   1.446   3.147  12.034
13291TIP3   OH261363   4.730   6.009  16.836
13291TIP3    H161364   4.663   6.062  16.792
13291TIP3    H261365   4.812   6.056  16.820
13292TIP3   OH261366   2.758   4.196  11.106
13292TIP3    H161367   2.837   4.199  11.051
13292TIP3    H261368   2.694   4.149  11.052
13293TIP3   OH261369   6.546   6.173   0.112
13293TIP3    H161370   6.640   6.191   0.114
13293TIP3    H261371   6.528   6.132   0.196
13294TIP3   OH261372   4.386   5.211  12.933
13294TIP3    H161373   4.332   5.220  13.011
13294TIP3    H261374   4.356   5.131  12.891
13295TIP3   OH261375   6.380   1.946   4.398
13295TIP3    H161376   6.358   2.010   4.465
13295TIP3    H261377   6.475   1.954   4.387
13296TIP3   OH261378   6.155   2.492  12.647
13296TIP3    H161379   6.167   2.481  12.742
13296TIP3    H261380   6.087   2.429  12.624
13297TIP3   OH261381   2.294   5.130   4.344
13297TIP3    H161382   2.308   5.215   4.302
13297TIP3    H261383   2.205   5.105   4.320
13298TIP3   OH261384   6.531   0.923   0.976
13298TIP3    H161385   6.462   0.902   0.913
13298TIP3    H261386   6.589   0.983   0.928
13299TIP3   OH261387   6.291   1.627  14.123
13299TIP3    H161388   6.357   1.670  14.069
13299TIP3    H261389   6.282   1.684  14.200
13300TIP3   OH261390   0.252   5.085  12.327
13300TIP3    H161391   0.320   5.087  12.260
13300TIP3    H261392   0.299   5.104  12.409
13301TIP3   OH261393   6.325   5.410   4.291
13301TIP3    H161394   6.304   5.437   4.380
13301TIP3    H261395   6.400   5.464   4.266
13302TIP3   OH261396   5.882   3.977   1.933
13302TIP3    H161397   5.922   4.034   1.868
13302TIP3    H261398   5.956   3.940   1.981
13303TIP3   OH261399   4.348   2.643  16.607
13303TIP3    H161400   4.437   2.615  16.627
13303TIP3    H261401   4.293   2.596  16.670
13304TIP3   OH261402   1.189   1.667   4.817
13304TIP3    H161403   1.212   1.574   4.821
13304TIP3    H261404   1.257   1.706   4.762
13305TIP3   OH261405   1.636   3.344   1.154
13305TIP3    H161406   1.729   3.358   1.136
13305TIP3    H261407   1.617   3.401   1.228
13306TIP3   OH261408   1.218   2.621   5.652
13306TIP3    H161409   1.157   2.550   5.673
13306TIP3    H261410   1.175   2.700   5.684
13307TIP3   OH261411   3.451   1.262  12.788
13307TIP3    H161412   3.466   1.352  12.760
13307TIP3    H261413   3.372   1.267  12.842
13308TIP3   OH261414   3.281   0.424   6.547
13308TIP3    H161415   3.230   0.380   6.479
13308TIP3    H261416   3.215   0.473   6.597
13309TIP3   OH261417   2.234   1.295  12.698
13309TIP3    H161418   2.144   1.264  12.697
13309TIP3    H261419   2.275   1.253  12.623
13310TIP3   OH261420   0.908   0.203   5.564
13310TIP3    H161421   0.953   0.173   5.643
13310TIP3    H261422   0.947   0.152   5.493
13311TIP3   OH261423   3.769   3.470  14.367
13311TIP3    H161424   3.684   3.490  14.327
13311TIP3    H261425   3.828   3.455  14.294
13312TIP3   OH261426   2.706   1.669  14.452
13312TIP3    H161427   2.783   1.622  14.421
13312TIP3    H261428   2.697   1.642  14.544
13313TIP3   OH261429   5.686   6.740  11.796
13313TIP3    H161430   5.667   6.824  11.839
13313TIP3    H261431   5.777   6.750  11.766
13314TIP3   OH261432   6.695   3.883   0.590
13314TIP3    H161433   6.628   3.817   0.571
13314TIP3    H261434   6.652   3.966   0.570
13315TIP3   OH261435   4.538   3.110   3.911
13315TIP3    H161436   4.502   3.111   3.823
13315TIP3    H261437   4.626   3.074   3.901
13316TIP3   OH261438   1.695   0.806  11.232
13316TIP3    H161439   1.728   0.793  11.321
13316TIP3    H261440   1.769   0.787  11.175
13317TIP3   OH261441   1.883   6.749  11.330
13317TIP3    H161442   1.896   6.793  11.414
13317TIP3    H261443   1.870   6.820  11.267
13318TIP3   OH261444   1.218   6.232   5.211
13318TIP3    H161445   1.286   6.166   5.197
13318TIP3    H261446   1.264   6.315   5.201
13319TIP3   OH261447   1.255   4.948  16.775
13319TIP3    H161448   1.339   4.942  16.819
13319TIP3    H261449   1.240   4.861  16.738
13320TIP3   OH261450   6.640   3.183   0.011
13320TIP3    H161451   6.624   3.106  -0.043
13320TIP3    H261452   6.576   3.248  -0.020
13321TIP3   OH261453   5.246   6.574  17.020
13321TIP3    H161454   5.192   6.500  17.050
13321TIP3    H261455   5.325   6.569  17.074
13322TIP3   OH261456   1.375   1.016   4.262
13322TIP3    H161457   1.447   0.999   4.323
13322TIP3    H261458   1.337   1.098   4.292
13323TIP3   OH261459   5.726   6.075   2.881
13323TIP3    H161460   5.754   6.167   2.888
13323TIP3    H261461   5.776   6.041   2.806
13324TIP3   OH261462   4.632   0.965   3.236
13324TIP3    H161463   4.625   0.870   3.244
13324TIP3    H261464   4.654   0.995   3.325
13325TIP3   OH261465   0.696   6.193  15.933
13325TIP3    H161466   0.619   6.219  15.984
13325TIP3    H261467   0.678   6.225  15.845
13326TIP3   OH261468   5.730   6.698  16.295
13326TIP3    H161469   5.722   6.604  16.311
13326TIP3    H261470   5.728   6.706  16.199
13327TIP3   OH261471   5.589   1.306  16.219
13327TIP3    H161472   5.610   1.213  16.228
13327TIP3    H261473   5.559   1.333  16.305
13328TIP3   OH261474   3.446   2.965  15.303
13328TIP3    H161475   3.541   2.958  15.297
13328TIP3    H261476   3.416   2.952  15.213
13329TIP3   OH261477   4.633   2.922   0.752
13329TIP3    H161478   4.575   2.849   0.731
13329TIP3    H261479   4.642   2.970   0.670
13330TIP3   OH261480   2.669   3.995  13.539
13330TIP3    H161481   2.687   3.904  13.560
13330TIP3    H261482   2.749   4.026  13.495
13331TIP3   OH261483   4.219   2.643   0.342
13331TIP3    H161484   4.210   2.554   0.375
13331TIP3    H261485   4.224   2.634   0.247
13332TIP3   OH261486   2.350   4.534  15.739
13332TIP3    H161487   2.257   4.525  15.756
13332TIP3    H261488   2.381   4.444  15.725
13333TIP3   OH261489   2.082   3.259  13.001
13333TIP3    H161490   2.090   3.190  12.936
13333TIP3    H261491   2.102   3.216  13.084
13334TIP3   OH261492   1.520   2.353  16.064
13334TIP3    H161493   1.444   2.410  16.080
13334TIP3    H261494   1.532   2.357  15.969
13335TIP3   OH261495   3.780   4.203  15.846
13335TIP3    H161496   3.778   4.108  15.833
13335TIP3    H261497   3.802   4.214  15.938
13336TIP3   OH261498   0.634   6.128  14.273
13336TIP3    H161499   0.713   6.174  14.246
13336TIP3    H261500   0.609   6.075  14.197
13337TIP3   OH261501   3.277   2.650  11.993
13337TIP3    H161502   3.250   2.611  11.910
13337TIP3    H261503   3.205   2.630  12.053
13338TIP3   OH261504   0.853   5.834  11.153
13338TIP3    H161505   0.805   5.916  11.138
13338TIP3    H261506   0.864   5.796  11.066
13339TIP3   OH261507   4.158   0.094  16.004
13339TIP3    H161508   4.090   0.067  16.066
13339TIP3    H261509   4.220   0.145  16.057
13340TIP3   OH261510   3.131   4.710  12.009
13340TIP3    H161511   3.206   4.674  12.056
13340TIP3    H261512   3.087   4.766  12.072
13341TIP3   OH261513   4.638   4.239  10.926
13341TIP3    H161514   4.561   4.206  10.973
13341TIP3    H261515   4.606   4.316  10.879
13342TIP3   OH261516   1.487   0.537  13.845
13342TIP3    H161517   1.522   0.454  13.877
13342TIP3    H261518   1.477   0.524  13.751
13343TIP3   OH261519   1.664   4.880   1.755
13343TIP3    H161520   1.687   4.970   1.779
13343TIP3    H261521   1.605   4.889   1.680
13344TIP3   OH261522   6.388   1.594   5.304
13344TIP3    H161523   6.480   1.572   5.320
13344TIP3    H261524   6.354   1.520   5.254
13345TIP3   OH261525   0.683   2.754   2.237
13345TIP3    H161526   0.747   2.736   2.168
13345TIP3    H261527   0.620   2.814   2.196
13346TIP3   OH261528   3.502   1.161   3.371
13346TIP3    H161529   3.471   1.093   3.430
13346TIP3    H261530   3.542   1.227   3.429
13347TIP3   OH261531   4.256   2.956   3.863
13347TIP3    H161532   4.226   3.014   3.933
13347TIP3    H261533   4.176   2.930   3.818
13348TIP3   OH261534   4.702   2.941   3.514
13348TIP3    H161535   4.773   2.885   3.546
13348TIP3    H261536   4.692   2.916   3.422
13349TIP3   OH261537   1.733   4.431  14.633
13349TIP3    H161538   1.650   4.476  14.645
13349TIP3    H261539   1.798   4.501  14.625
13350TIP3   OH261540   1.319   1.388   6.153
13350TIP3    H161541   1.342   1.452   6.086
13350TIP3    H261542   1.346   1.304   6.116
13351TIP3   OH261543   2.842   3.123  11.822
13351TIP3    H161544   2.763   3.081  11.788
13351TIP3    H261545   2.913   3.089  11.767
13352TIP3   OH261546   0.205   3.425   5.879
13352TIP3    H161547   0.295   3.442   5.905
13352TIP3    H261548   0.154   3.434   5.960
13353TIP3   OH261549   3.105   6.495  12.293
13353TIP3    H161550   3.130   6.412  12.252
13353TIP3    H261551   3.024   6.519  12.249
13354TIP3   OH261552   6.744   1.745   3.600
13354TIP3    H161553   6.777   1.665   3.560
13354TIP3    H261554   6.663   1.718   3.644
13355TIP3   OH261555   0.849   5.311   0.084
13355TIP3    H161556   0.897   5.268   0.014
13355TIP3    H261557   0.814   5.391   0.044
13356TIP3   OH261558   0.077   0.068   6.122
13356TIP3    H161559   0.059  -0.003   6.184
13356TIP3    H261560   0.169   0.056   6.098
13357TIP3   OH261561   6.081   1.260   1.845
13357TIP3    H161562   6.074   1.183   1.789
13357TIP3    H261563   6.024   1.241   1.919
13358TIP3   OH261564   4.003   3.158   1.047
13358TIP3    H161565   4.045   3.078   1.078
13358TIP3    H261566   4.023   3.223   1.116
13359TIP3   OH261567   2.094   0.694  14.408
13359TIP3    H161568   2.176   0.743  14.401
13359TIP3    H261569   2.045   0.718  14.330
13360TIP3   OH261570   5.074   4.405   4.256
13360TIP3    H161571   4.998   4.460   4.274
13360TIP3    H261572   5.037   4.318   4.239
13361TIP3   OH261573   6.614   2.595  10.940
13361TIP3    H161574   6.572   2.680  10.951
13361TIP3    H261575   6.707   2.615  10.935
13362TIP3   OH261576   0.468   4.857  12.487
13362TIP3    H161577   0.446   4.940  12.529
13362TIP3    H261578   0.558   4.839  12.514
13363TIP3   OH261579   4.338   4.591   5.162
13363TIP3    H161580   4.387   4.673   5.148
13363TIP3    H261581   4.331   4.552   5.076
13364TIP3   OH261582   4.712   1.572  13.222
13364TIP3    H161583   4.799   1.610  13.228
13364TIP3    H261584   4.725   1.478  13.234
13365TIP3   OH261585   3.608   0.810  15.843
13365TIP3    H161586   3.529   0.778  15.886
13365TIP3    H261587   3.646   0.873  15.904
13366TIP3   OH261588   0.239   0.587   1.791
13366TIP3    H161589   0.202   0.500   1.778
13366TIP3    H261590   0.307   0.575   1.856
13367TIP3   OH261591   4.229   1.201  16.173
13367TIP3    H161592   4.196   1.113  16.158
13367TIP3    H261593   4.153   1.252  16.200
13368TIP3   OH261594   3.952   6.568   6.382
13368TIP3    H161595   4.037   6.609   6.368
13368TIP3    H261596   3.952   6.491   6.325
13369TIP3   OH261597   3.045   1.357   3.680
13369TIP3    H161598   3.134   1.323   3.692
13369TIP3    H261599   3.031   1.416   3.754
13370TIP3   OH261600   2.096   6.482   0.223
13370TIP3    H161601   2.177   6.529   0.245
13370TIP3    H261602   2.057   6.461   0.307
13371TIP3   OH261603   6.637   0.671  14.302
13371TIP3    H161604   6.561   0.711  14.345
13371TIP3    H261605   6.600   0.600  14.250
13372TIP3   OH261606   2.231   2.348  14.692
13372TIP3    H161607   2.172   2.383  14.625
13372TIP3    H261608   2.319   2.370  14.662
13373TIP3   OH261609   6.608   4.299   3.222
13373TIP3    H161610   6.684   4.344   3.186
13373TIP3    H261611   6.541   4.306   3.154
13374TIP3   OH261612   1.252   0.746  14.318
13374TIP3    H161613   1.281   0.836  14.304
13374TIP3    H261614   1.323   0.692  14.285
13375TIP3   OH261615   2.317   6.023  13.084
13375TIP3    H161616   2.361   6.011  13.000
13375TIP3    H261617   2.273   6.107  13.077
13376TIP3   OH261618   6.570   5.356   0.111
13376TIP3    H161619   6.577   5.390   0.200
13376TIP3    H261620   6.652   5.382   0.069
13377TIP3   OH261621   3.443   1.302   5.369
13377TIP3    H161622   3.383   1.257   5.310
13377TIP3    H261623   3.485   1.369   5.315
13378TIP3   OH261624   6.612   5.468   2.589
13378TIP3    H161625   6.648   5.556   2.600
13378TIP3    H261626   6.675   5.410   2.631
13379TIP3   OH261627   5.652   1.135   6.148
13379TIP3    H161628   5.694   1.178   6.222
13379TIP3    H261629   5.578   1.088   6.187
13380TIP3   OH261630   0.535   1.409  16.914
13380TIP3    H161631   0.529   1.323  16.954
13380TIP3    H261632   0.529   1.393  16.820
13381TIP3   OH261633   6.364   2.465   5.509
13381TIP3    H161634   6.361   2.397   5.577
13381TIP3    H261635   6.434   2.524   5.538
13382TIP3   OH261636   2.294   4.226  17.078
13382TIP3    H161637   2.288   4.230  16.982
13382TIP3    H261638   2.370   4.279  17.099
13383TIP3   OH261639   3.293   5.239  11.325
13383TIP3    H161640   3.360   5.229  11.256
13383TIP3    H261641   3.303   5.330  11.354
13384TIP3   OH261642   0.013   1.568  14.110
13384TIP3    H161643   0.030   1.590  14.202
13384TIP3    H261644   0.057   1.484  14.097
13385TIP3   OH261645   3.882   6.367  15.842
13385TIP3    H161646   3.796   6.357  15.802
13385TIP3    H261647   3.890   6.461  15.859
13386TIP3   OH261648   6.046   5.131   1.048
13386TIP3    H161649   6.058   5.059   1.110
13386TIP3    H261650   6.115   5.193   1.071
13387TIP3   OH261651   3.940   2.764   4.689
13387TIP3    H161652   3.845   2.762   4.678
13387TIP3    H261653   3.974   2.779   4.601
13388TIP3   OH261654   3.359   6.424   0.692
13388TIP3    H161655   3.342   6.485   0.763
13388TIP3    H261656   3.451   6.399   0.703
13389TIP3   OH261657   2.143   4.536  11.057
13389TIP3    H161658   2.069   4.577  11.012
13389TIP3    H261659   2.188   4.609  11.098
13390TIP3   OH261660   6.739   1.524  15.299
13390TIP3    H161661   6.821   1.572  15.299
13390TIP3    H261662   6.725   1.498  15.390
13391TIP3   OH261663   5.935   2.208   0.956
13391TIP3    H161664   5.946   2.298   0.926
13391TIP3    H261665   5.840   2.199   0.970
13392TIP3   OH261666   6.681   2.381   3.054
13392TIP3    H161667   6.664   2.466   3.094
13392TIP3    H261668   6.594   2.344   3.038
13393TIP3   OH261669   5.931   1.450  13.853
13393TIP3    H161670   5.844   1.489  13.849
13393TIP3    H261671   5.967   1.482  13.936
13394TIP3   OH261672   4.216   1.167   3.429
13394TIP3    H161673   4.226   1.135   3.340
13394TIP3    H261674   4.255   1.254   3.428
13395TIP3   OH261675   6.105   5.004   0.667
13395TIP3    H161676   6.153   4.928   0.635
13395TIP3    H261677   6.013   4.981   0.654
13396TIP3   OH261678   3.660   0.300   3.638
13396TIP3    H161679   3.710   0.329   3.561
13396TIP3    H261680   3.612   0.378   3.666
13397TIP3   OH261681   4.105   6.033  11.517
13397TIP3    H161682   4.089   6.001  11.428
13397TIP3    H261683   4.018   6.048  11.554
13398TIP3   OH261684   1.888   2.596  13.835
13398TIP3    H161685   1.859   2.517  13.882
13398TIP3    H261686   1.983   2.594  13.843
13399TIP3   OH261687   4.096   0.909  13.487
13399TIP3    H161688   4.053   0.875  13.566
13399TIP3    H261689   4.186   0.876  13.493
13400TIP3   OH261690   2.807   5.924   5.113
13400TIP3    H161691   2.764   5.996   5.066
13400TIP3    H261692   2.901   5.939   5.098
13401TIP3   OH261693   2.306   5.509   5.825
13401TIP3    H161694   2.259   5.429   5.850
13401TIP3    H261695   2.240   5.578   5.830
13402TIP3   OH261696   5.319   5.531  14.106
13402TIP3    H161697   5.279   5.482  14.179
13402TIP3    H261698   5.364   5.464  14.055
13403TIP3   OH261699   4.804   3.999  10.727
13403TIP3    H161700   4.837   3.970  10.813
13403TIP3    H261701   4.848   3.941  10.664
13404TIP3   OH261702   5.579   6.193  15.292
13404TIP3    H161703   5.584   6.108  15.250
13404TIP3    H261704   5.540   6.176  15.378
13405TIP3   OH261705   6.592   2.310  12.403
13405TIP3    H161706   6.521   2.324  12.466
13405TIP3    H261707   6.583   2.383  12.342
13406TIP3   OH261708   2.273   4.909   5.673
13406TIP3    H161709   2.227   4.933   5.753
13406TIP3    H261710   2.363   4.937   5.688
13407TIP3   OH261711   6.179   6.084  16.159
13407TIP3    H161712   6.169   5.989  16.149
13407TIP3    H261713   6.107   6.109  16.217
13408TIP3   OH261714   5.612   6.760   4.663
13408TIP3    H161715   5.538   6.796   4.613
13408TIP3    H261716   5.572   6.713   4.736
13409TIP3   OH261717   0.451   2.418   0.161
13409TIP3    H161718   0.425   2.339   0.210
13409TIP3    H261719   0.545   2.425   0.175
13410TIP3   OH261720   1.588   4.646   2.767
13410TIP3    H161721   1.604   4.719   2.707
13410TIP3    H261722   1.643   4.664   2.842
13411TIP3   OH261723   6.609   2.270   0.664
13411TIP3    H161724   6.681   2.213   0.691
13411TIP3    H261725   6.605   2.337   0.732
13412TIP3   OH261726   6.399   3.869   0.813
13412TIP3    H161727   6.451   3.800   0.771
13412TIP3    H261728   6.399   3.844   0.906
13413TIP3   OH261729   2.956   1.075   3.962
13413TIP3    H161730   2.872   1.099   3.924
13413TIP3    H261731   2.977   1.147   4.021
13414TIP3   OH261732   0.578   4.843   4.844
13414TIP3    H161733   0.489   4.827   4.876
13414TIP3    H261734   0.610   4.915   4.898
13415TIP3   OH261735   1.619   0.751   0.997
13415TIP3    H161736   1.691   0.811   1.018
13415TIP3    H261737   1.542   0.808   0.991
13416TIP3   OH261738   5.685   0.334  12.670
13416TIP3    H161739   5.626   0.364  12.740
13416TIP3    H261740   5.629   0.327  12.593
13417TIP3   OH261741   0.436   3.440  15.747
13417TIP3    H161742   0.350   3.467  15.781
13417TIP3    H261743   0.453   3.356  15.790
13418TIP3   OH261744   6.140   5.931   5.476
13418TIP3    H161745   6.113   5.860   5.418
13418TIP3    H261746   6.065   5.991   5.477
13419TIP3   OH261747   6.026   4.950   2.441
13419TIP3    H161748   6.103   4.904   2.407
13419TIP3    H261749   6.016   5.025   2.383
13420TIP3   OH261750   1.933   0.892   4.570
13420TIP3    H161751   1.859   0.948   4.594
13420TIP3    H261752   1.931   0.820   4.633
13421TIP3   OH261753   1.337   3.669  11.622
13421TIP3    H161754   1.375   3.695  11.706
13421TIP3    H261755   1.410   3.670  11.561
13422TIP3   OH261756   5.811   3.673   5.567
13422TIP3    H161757   5.885   3.681   5.628
13422TIP3    H261758   5.810   3.756   5.519
13423TIP3   OH261759   4.018   1.346   2.646
13423TIP3    H161760   4.110   1.352   2.620
13423TIP3    H261761   4.010   1.258   2.684
13424TIP3   OH261762   6.292   4.876   1.945
13424TIP3    H161763   6.281   4.794   1.993
13424TIP3    H261764   6.353   4.855   1.875
13425TIP3   OH261765   0.388   6.186   0.470
13425TIP3    H161766   0.318   6.249   0.486
13425TIP3    H261767   0.353   6.103   0.500
13426TIP3   OH261768   5.529   5.282   2.683
13426TIP3    H161769   5.484   5.337   2.746
13426TIP3    H261770   5.461   5.255   2.621
13427TIP3   OH261771   0.204   4.779  16.266
13427TIP3    H161772   0.130   4.723  16.246
13427TIP3    H261773   0.167   4.866  16.275
13428TIP3   OH261774   2.987   5.292   3.643
13428TIP3    H161775   2.908   5.241   3.662
13428TIP3    H261776   3.032   5.242   3.575
13429TIP3   OH261777   3.397   3.451  11.134
13429TIP3    H161778   3.492   3.445  11.118
13429TIP3    H261779   3.361   3.376  11.086
13430TIP3   OH261780   0.931   1.441  12.383
13430TIP3    H161781   0.924   1.417  12.475
13430TIP3    H261782   1.023   1.460  12.370
13431TIP3   OH261783   6.581   6.503  14.606
13431TIP3    H161784   6.566   6.473  14.696
13431TIP3    H261785   6.646   6.442  14.571
13432TIP3   OH261786   1.225   1.967   0.312
13432TIP3    H161787   1.143   1.938   0.352
13432TIP3    H261788   1.225   2.062   0.322
13433TIP3   OH261789   2.150   6.269   6.453
13433TIP3    H161790   2.133   6.224   6.370
13433TIP3    H261791   2.066   6.270   6.498
13434TIP3   OH261792   2.822   1.069  13.525
13434TIP3    H161793   2.729   1.049  13.540
13434TIP3    H261794   2.821   1.130  13.451
13435TIP3   OH261795   3.506   3.167  11.547
13435TIP3    H161796   3.438   3.177  11.613
13435TIP3    H261797   3.501   3.075  11.520
13436TIP3   OH261798   5.430   4.507  16.389
13436TIP3    H161799   5.397   4.457  16.315
13436TIP3    H261800   5.521   4.525  16.366
13437TIP3   OH261801   2.501   4.622  15.542
13437TIP3    H161802   2.438   4.607  15.612
13437TIP3    H261803   2.532   4.711  15.555
13438TIP3   OH261804   6.790   4.624  16.228
13438TIP3    H161805   6.734   4.554  16.261
13438TIP3    H261806   6.813   4.597  16.139
13439TIP3   OH261807   5.007   5.745   5.037
13439TIP3    H161808   5.047   5.820   5.081
13439TIP3    H261809   5.073   5.718   4.973
13440TIP3   OH261810   1.998   4.930  13.069
13440TIP3    H161811   1.957   4.863  13.123
13440TIP3    H261812   2.025   4.884  12.989
13441TIP3   OH261813   2.596   2.470   3.008
13441TIP3    H161814   2.513   2.447   3.050
13441TIP3    H261815   2.644   2.387   3.003
13442TIP3   OH261816   4.136   6.786   5.811
13442TIP3    H161817   4.136   6.882   5.821
13442TIP3    H261818   4.090   6.771   5.729
13443TIP3   OH261819   5.877   3.729  12.490
13443TIP3    H161820   5.833   3.672  12.427
13443TIP3    H261821   5.930   3.788  12.435
13444TIP3   OH261822   0.047   4.199   0.712
13444TIP3    H161823   0.088   4.150   0.784
13444TIP3    H261824   0.062   4.144   0.635
13445TIP3   OH261825   3.149   0.257  16.322
13445TIP3    H161826   3.116   0.251  16.232
13445TIP3    H261827   3.098   0.193  16.371
13446TIP3   OH261828   1.307   2.672   4.916
13446TIP3    H161829   1.248   2.649   4.989
13446TIP3    H261830   1.327   2.765   4.931
13447TIP3   OH261831   6.674   4.427  15.028
13447TIP3    H161832   6.747   4.387  14.981
13447TIP3    H261833   6.659   4.369  15.103
13448TIP3   OH261834   1.991   5.226  12.619
13448TIP3    H161835   2.070   5.220  12.564
13448TIP3    H261836   1.989   5.143  12.666
13449TIP3   OH261837   5.148   4.254  16.389
13449TIP3    H161838   5.229   4.265  16.338
13449TIP3    H261839   5.079   4.287  16.333
13450TIP3   OH261840   1.622   0.082   0.585
13450TIP3    H161841   1.714   0.097   0.562
13450TIP3    H261842   1.604   0.146   0.654
13451TIP3   OH261843   6.277   4.026  16.605
13451TIP3    H161844   6.192   3.982  16.603
13451TIP3    H261845   6.291   4.057  16.516
13452TIP3   OH261846   0.565   1.804   5.633
13452TIP3    H161847   0.514   1.879   5.663
13452TIP3    H261848   0.622   1.840   5.565
13453TIP3   OH261849   0.737   2.495  14.152
13453TIP3    H161850   0.771   2.448  14.228
13453TIP3    H261851   0.666   2.549  14.188
13454TIP3   OH261852   2.670   5.548   6.366
13454TIP3    H161853   2.576   5.537   6.349
13454TIP3    H261854   2.677   5.633   6.409
13455TIP3   OH261855   0.544   0.545  12.433
13455TIP3    H161856   0.546   0.463  12.382
13455TIP3    H261857   0.549   0.614  12.366
13456TIP3   OH261858   3.283   6.532   0.451
13456TIP3    H161859   3.293   6.468   0.522
13456TIP3    H261860   3.306   6.483   0.372
13457TIP3   OH261861   2.423   4.951   4.148
13457TIP3    H161862   2.345   4.981   4.195
13457TIP3    H261863   2.452   5.028   4.098
13458TIP3   OH261864   0.036   3.261   4.957
13458TIP3    H161865   0.128   3.239   4.943
13458TIP3    H261866   0.020   3.238   5.049
13459TIP3   OH261867   5.143   5.487  12.324
13459TIP3    H161868   5.212   5.441  12.371
13459TIP3    H261869   5.185   5.518  12.243
13460TIP3   OH261870   6.284   3.274  14.827
13460TIP3    H161871   6.188   3.270  14.833
13460TIP3    H261872   6.310   3.183  14.811
13461TIP3   OH261873   4.539   4.027  11.959
13461TIP3    H161874   4.576   4.052  11.874
13461TIP3    H261875   4.561   3.935  11.968
13462TIP3   OH261876   0.437   1.918  15.469
13462TIP3    H161877   0.413   1.892  15.559
13462TIP3    H261878   0.490   1.996  15.480
13463TIP3   OH261879   1.578   3.745   1.151
13463TIP3    H161880   1.601   3.772   1.062
13463TIP3    H261881   1.661   3.746   1.198
13464TIP3   OH261882   5.485   2.770  13.861
13464TIP3    H161883   5.483   2.705  13.791
13464TIP3    H261884   5.539   2.841  13.826
13465TIP3   OH261885   0.933   1.145  13.722
13465TIP3    H161886   0.880   1.081  13.675
13465TIP3    H261887   0.957   1.101  13.804
13466TIP3   OH261888   1.258   3.633   6.504
13466TIP3    H161889   1.307   3.653   6.424
13466TIP3    H261890   1.256   3.716   6.552
13467TIP3   OH261891   5.816   2.605  12.739
13467TIP3    H161892   5.856   2.524  12.708
13467TIP3    H261893   5.774   2.642  12.661
13468TIP3   OH261894   3.084   0.937   1.051
13468TIP3    H161895   3.076   0.903   1.140
13468TIP3    H261896   2.993   0.942   1.020
13469TIP3   OH261897   2.051   3.337   5.920
13469TIP3    H161898   2.050   3.413   5.861
13469TIP3    H261899   2.012   3.369   6.001
13470TIP3   OH261900   0.798   5.877   2.469
13470TIP3    H161901   0.817   5.867   2.375
13470TIP3    H261902   0.771   5.789   2.496
13471TIP3   OH261903   1.876   5.378   6.651
13471TIP3    H161904   1.800   5.343   6.605
13471TIP3    H261905   1.932   5.302   6.666
13472TIP3   OH261906   0.266   1.734   2.626
13472TIP3    H161907   0.325   1.803   2.657
13472TIP3    H261908   0.312   1.697   2.550
13473TIP3   OH261909   5.865   0.945   6.358
13473TIP3    H161910   5.808   0.871   6.378
13473TIP3    H261911   5.809   1.022   6.365
13474TIP3   OH261912   1.969   0.348  11.936
13474TIP3    H161913   1.935   0.386  11.855
13474TIP3    H261914   1.893   0.343  11.994
13475TIP3   OH261915   5.039   6.283   5.783
13475TIP3    H161916   5.008   6.206   5.831
13475TIP3    H261917   5.125   6.257   5.749
13476TIP3   OH261918   1.752   0.480   2.435
13476TIP3    H161919   1.722   0.524   2.356
13476TIP3    H261920   1.706   0.525   2.506
13477TIP3   OH261921   5.409   6.418   2.988
13477TIP3    H161922   5.503   6.410   2.968
13477TIP3    H261923   5.406   6.482   3.059
13478TIP3   OH261924   5.084   0.678   1.305
13478TIP3    H161925   5.056   0.600   1.256
13478TIP3    H261926   5.174   0.659   1.329
13479TIP3   OH261927   2.872   6.230  11.861
13479TIP3    H161928   2.794   6.267  11.821
13479TIP3    H261929   2.923   6.306  11.888
13480TIP3   OH261930   0.377   1.200   4.708
13480TIP3    H161931   0.406   1.109   4.698
13480TIP3    H261932   0.458   1.248   4.727
13481TIP3   OH261933   2.778   1.822   3.427
13481TIP3    H161934   2.817   1.890   3.372
13481TIP3    H261935   2.777   1.859   3.515
13482TIP3   OH261936   4.278   6.277   2.707
13482TIP3    H161937   4.251   6.347   2.766
13482TIP3    H261938   4.328   6.218   2.763
13483TIP3   OH261939   5.970   0.004  15.187
13483TIP3    H161940   5.934   0.091  15.173
13483TIP3    H261941   6.003  -0.022  15.101
13484TIP3   OH261942   1.671   5.900  15.449
13484TIP3    H161943   1.579   5.904  15.421
13484TIP3    H261944   1.666   5.897  15.545
13485TIP3   OH261945   6.056   2.244  13.811
13485TIP3    H161946   6.130   2.301  13.834
13485TIP3    H261947   6.096   2.160  13.788
13486TIP3   OH261948   6.277   5.384   3.164
13486TIP3    H161949   6.274   5.355   3.255
13486TIP3    H261950   6.195   5.353   3.126
13487TIP3   OH261951   5.951   2.971  12.083
13487TIP3    H161952   5.932   2.976  12.176
13487TIP3    H261953   5.875   2.927  12.045
13488TIP3   OH261954   5.596   0.978  15.487
13488TIP3    H161955   5.597   1.020  15.401
13488TIP3    H261956   5.645   1.038  15.543
13489TIP3   OH261957   6.774   5.063   3.168
13489TIP3    H161958   6.769   5.103   3.255
13489TIP3    H261959   6.852   5.103   3.128
13490TIP3   OH261960   2.653   3.503   1.435
13490TIP3    H161961   2.642   3.517   1.341
13490TIP3    H261962   2.744   3.477   1.445
13491TIP3   OH261963   0.605   5.326   2.169
13491TIP3    H161964   0.656   5.351   2.092
13491TIP3    H261965   0.545   5.258   2.138
13492TIP3   OH261966   4.151   2.449   1.096
13492TIP3    H161967   4.160   2.497   1.013
13492TIP3    H261968   4.240   2.423   1.118
13493TIP3   OH261969   1.131   4.232   4.819
13493TIP3    H161970   1.149   4.314   4.865
13493TIP3    H261971   1.163   4.164   4.877
13494TIP3   OH261972   6.069   3.031  13.612
13494TIP3    H161973   6.033   2.944  13.629
13494TIP3    H261974   6.036   3.055  13.526
13495TIP3   OH261975   6.391   2.743  15.945
13495TIP3    H161976   6.468   2.790  15.910
13495TIP3    H261977   6.364   2.686  15.873
13496TIP3   OH261978   1.778   2.616   2.106
13496TIP3    H161979   1.788   2.570   2.189
13496TIP3    H261980   1.855   2.673   2.101
13497TIP3   OH261981   6.186   2.592   1.220
13497TIP3    H161982   6.131   2.670   1.215
13497TIP3    H261983   6.275   2.625   1.214
13498TIP3   OH261984   6.264   4.790  16.964
13498TIP3    H161985   6.304   4.807  17.050
13498TIP3    H261986   6.233   4.699  16.970
13499TIP3   OH261987   6.431   1.862   0.427
13499TIP3    H161988   6.477   1.798   0.373
13499TIP3    H261989   6.398   1.812   0.502
13500TIP3   OH261990   6.394   3.974  16.887
13500TIP3    H161991   6.372   4.060  16.922
13500TIP3    H261992   6.352   3.971  16.802
13501TIP3   OH261993   0.281   0.277   3.021
13501TIP3    H161994   0.223   0.204   3.003
13501TIP3    H261995   0.292   0.321   2.937
13502TIP3   OH261996   4.372   4.637   1.280
13502TIP3    H161997   4.425   4.563   1.251
13502TIP3    H261998   4.290   4.628   1.232
13503TIP3   OH261999   0.790   5.671   3.580
13503TIP3    H162000   0.785   5.576   3.590
13503TIP3    H262001   0.735   5.690   3.503
13504TIP3   OH262002   1.798   0.048   1.810
13504TIP3    H162003   1.835   0.136   1.804
13504TIP3    H262004   1.734   0.044   1.739
13505TIP3   OH262005   4.111   6.666  15.568
13505TIP3    H162006   4.111   6.571  15.581
13505TIP3    H262007   4.106   6.703  15.656
13506TIP3   OH262008   4.732   1.699   2.860
13506TIP3    H162009   4.711   1.791   2.844
13506TIP3    H262010   4.646   1.656   2.865
13507TIP3   OH262011   1.281   4.621  15.005
13507TIP3    H162012   1.332   4.696  15.036
13507TIP3    H262013   1.244   4.652  14.921
13508TIP3   OH262014   1.020   0.601   1.796
13508TIP3    H162015   0.954   0.623   1.730
13508TIP3    H262016   1.021   0.675   1.856
13509TIP3   OH262017   0.730   5.048   0.168
13509TIP3    H162018   0.677   5.087   0.237
13509TIP3    H262019   0.777   5.121   0.129
13510TIP3   OH262020   0.059   2.700  16.159
13510TIP3    H162021   0.134   2.648  16.187
13510TIP3    H262022   0.081   2.790  16.186
13511TIP3   OH262023   0.869   0.105   2.697
13511TIP3    H162024   0.865   0.017   2.734
13511TIP3    H262025   0.904   0.092   2.609
13512TIP3   OH262026   6.149   4.134  15.615
13512TIP3    H162027   6.131   4.141  15.521
13512TIP3    H262028   6.156   4.040  15.632
13513TIP3   OH262029   3.772   1.172  17.141
13513TIP3    H162030   3.849   1.217  17.107
13513TIP3    H262031   3.738   1.122  17.067
13514TIP3   OH262032   4.618   0.819  10.525
13514TIP3    H162033   4.554   0.774  10.580
13514TIP3    H262034   4.670   0.749  10.487
13515TIP3   OH262035   6.186   0.183  11.439
13515TIP3    H162036   6.185   0.088  11.431
13515TIP3    H262037   6.261   0.202  11.495
13516TIP3   OH262038   5.402   5.235   4.063
13516TIP3    H162039   5.378   5.221   3.971
13516TIP3    H262040   5.495   5.258   4.060
13517TIP3   OH262041   0.368   3.980  11.654
13517TIP3    H162042   0.304   4.050  11.666
13517TIP3    H262043   0.339   3.935  11.575
13518TIP3   OH262044   3.728   2.879  13.645
13518TIP3    H162045   3.775   2.920  13.572
13518TIP3    H262046   3.771   2.913  13.723
13519TIP3   OH262047   5.419   1.512   4.988
13519TIP3    H162048   5.496   1.468   5.026
13519TIP3    H262049   5.455   1.591   4.947
13520TIP3   OH262050   4.955   2.063   3.794
13520TIP3    H162051   4.964   2.023   3.707
13520TIP3    H262052   5.026   2.025   3.846
13521TIP3   OH262053   2.900   0.307   6.089
13521TIP3    H162054   2.971   0.371   6.080
13521TIP3    H262055   2.862   0.325   6.174
13522TIP3   OH262056   6.428   5.817   4.435
13522TIP3    H162057   6.459   5.859   4.516
13522TIP3    H262058   6.332   5.816   4.445
13523TIP3   OH262059   1.863   5.485  14.808
13523TIP3    H162060   1.887   5.406  14.858
13523TIP3    H262061   1.811   5.452  14.735
13524TIP3   OH262062   3.131   2.533   4.283
13524TIP3    H162063   3.047   2.487   4.283
13524TIP3    H262064   3.121   2.600   4.215
13525TIP3   OH262065   5.687   1.738   4.469
13525TIP3    H162066   5.596   1.751   4.443
13525TIP3    H262067   5.733   1.722   4.387
13526TIP3   OH262068   4.767   2.829  15.802
13526TIP3    H162069   4.813   2.909  15.827
13526TIP3    H262070   4.689   2.828  15.859
13527TIP3   OH262071   3.610   1.021   2.823
13527TIP3    H162072   3.680   1.041   2.761
13527TIP3    H262073   3.537   1.077   2.795
13528TIP3   OH262074   0.813   0.979   1.788
13528TIP3    H162075   0.760   1.012   1.861
13528TIP3    H262076   0.782   1.029   1.712
13529TIP3   OH262077   2.490   2.286   2.109
13529TIP3    H162078   2.516   2.194   2.105
13529TIP3    H262079   2.402   2.285   2.146
13530TIP3   OH262080   1.860   1.053   1.293
13530TIP3    H162081   1.904   0.981   1.247
13530TIP3    H262082   1.827   1.109   1.223
13531TIP3   OH262083   6.691   3.576   3.228
13531TIP3    H162084   6.648   3.629   3.295
13531TIP3    H262085   6.759   3.634   3.193
13532TIP3   OH262086   4.730   5.839   1.745
13532TIP3    H162087   4.721   5.902   1.673
13532TIP3    H262088   4.646   5.794   1.748
13533TIP3   OH262089   0.662   5.277   3.876
13533TIP3    H162090   0.668   5.361   3.922
13533TIP3    H262091   0.568   5.262   3.866
13534TIP3   OH262092   3.178   3.384  17.093
13534TIP3    H162093   3.264   3.366  17.054
13534TIP3    H262094   3.116   3.335  17.039
13535TIP3   OH262095   1.977   5.429  13.142
13535TIP3    H162096   1.920   5.504  13.158
13535TIP3    H262097   1.921   5.366  13.095
13536TIP3   OH262098   2.478   0.079   3.025
13536TIP3    H162099   2.467   0.082   2.930
13536TIP3    H262100   2.429   0.155   3.057
13537TIP3   OH262101   0.043   0.392   5.145
13537TIP3    H162102   0.124   0.399   5.195
13537TIP3    H262103  -0.008   0.469   5.171
13538TIP3   OH262104   2.660   1.238   5.198
13538TIP3    H162105   2.630   1.252   5.108
13538TIP3    H262106   2.755   1.244   5.193
13539TIP3   OH262107   0.698   5.674   6.478
13539TIP3    H162108   0.692   5.583   6.450
13539TIP3    H262109   0.610   5.709   6.461
13540TIP3   OH262110   0.877   3.962  15.301
13540TIP3    H162111   0.832   3.986  15.382
13540TIP3    H262112   0.968   3.991  15.314
13541TIP3   OH262113   1.233   4.958   4.776
13541TIP3    H162114   1.188   5.035   4.809
13541TIP3    H262115   1.321   4.963   4.814
13542TIP3   OH262116   0.196   4.399   1.190
13542TIP3    H162117   0.134   4.385   1.118
13542TIP3    H262118   0.150   4.367   1.267
13543TIP3   OH262119   0.901   0.541  11.197
13543TIP3    H162120   0.945   0.461  11.168
13543TIP3    H262121   0.961   0.579  11.261
13544TIP3   OH262122   1.062   1.704   5.423
13544TIP3    H162123   0.999   1.645   5.382
13544TIP3    H262124   1.008   1.769   5.469
13545TIP3   OH262125   4.113   5.310   5.612
13545TIP3    H162126   4.037   5.359   5.645
13545TIP3    H262127   4.156   5.372   5.553
13546TIP3   OH262128   2.261   1.266  16.853
13546TIP3    H162129   2.234   1.333  16.916
13546TIP3    H262130   2.190   1.264  16.789
13547TIP3   OH262131   1.392   0.439   0.544
13547TIP3    H162132   1.323   0.501   0.570
13547TIP3    H262133   1.472   0.490   0.548
13548TIP3   OH262134   3.715   4.604   5.278
13548TIP3    H162135   3.723   4.575   5.187
13548TIP3    H262136   3.622   4.592   5.298
13549TIP3   OH262137   5.430   4.558  13.103
13549TIP3    H162138   5.446   4.499  13.177
13549TIP3    H262139   5.501   4.541  13.042
13550TIP3   OH262140   4.271   6.531  15.313
13550TIP3    H162141   4.176   6.524  15.299
13550TIP3    H262142   4.284   6.507  15.404
13551TIP3   OH262143   2.262   1.928  14.275
13551TIP3    H162144   2.324   1.937  14.202
13551TIP3    H262145   2.313   1.883  14.343
13552TIP3   OH262146   1.878   6.032  14.910
13552TIP3    H162147   1.888   5.944  14.874
13552TIP3    H262148   1.920   6.089  14.845
13553TIP3   OH262149   5.913   0.614   4.909
13553TIP3    H162150   5.956   0.594   4.826
13553TIP3    H262151   5.855   0.539   4.925
13554TIP3   OH262152   1.113   5.958  12.479
13554TIP3    H162153   1.190   6.014  12.479
13554TIP3    H262154   1.045   6.010  12.521
13555TIP3   OH262155   4.916   4.776  10.566
13555TIP3    H162156   4.954   4.823  10.640
13555TIP3    H262157   4.958   4.815  10.489
13556TIP3   OH262158   6.564   0.475  12.202
13556TIP3    H162159   6.575   0.558  12.155
13556TIP3    H262160   6.636   0.473  12.265
13557TIP3   OH262161   6.039   5.225   3.088
13557TIP3    H162162   5.994   5.144   3.112
13557TIP3    H262163   6.022   5.284   3.162
13558TIP3   OH262164   0.695   3.732   2.050
13558TIP3    H162165   0.618   3.686   2.018
13558TIP3    H262166   0.668   3.768   2.135
13559TIP3   OH262167   2.043   3.346  12.437
13559TIP3    H162168   2.119   3.295  12.409
13559TIP3    H262169   1.974   3.281  12.452
13560TIP3   OH262170   6.027   4.842   1.166
13560TIP3    H162171   6.064   4.772   1.219
13560TIP3    H262172   5.934   4.842   1.186
13561TIP3   OH262173   2.536   3.189  13.111
13561TIP3    H162174   2.480   3.266  13.115
13561TIP3    H262175   2.547   3.172  13.018
13562TIP3   OH262176   1.248   4.558   1.989
13562TIP3    H162177   1.254   4.628   1.925
13562TIP3    H262178   1.185   4.589   2.053
13563TIP3   OH262179   3.087   4.736   1.601
13563TIP3    H162180   3.078   4.720   1.507
13563TIP3    H262181   3.182   4.734   1.617
13564TIP3   OH262182   0.203   4.034   0.888
13564TIP3    H162183   0.273   4.049   0.825
13564TIP3    H262184   0.234   4.075   0.969
13565TIP3   OH262185   5.153   5.801  14.805
13565TIP3    H162186   5.103   5.749  14.868
13565TIP3    H262187   5.226   5.744  14.780
13566TIP3   OH262188   2.430   2.553  14.200
13566TIP3    H162189   2.498   2.523  14.261
13566TIP3    H262190   2.370   2.479  14.192
13567TIP3   OH262191   2.369   5.072   2.154
13567TIP3    H162192   2.438   5.093   2.217
13567TIP3    H262193   2.370   4.976   2.150
13568TIP3   OH262194   0.788   1.575  15.016
13568TIP3    H162195   0.729   1.643  15.049
13568TIP3    H262196   0.856   1.623  14.970
13569TIP3   OH262197   0.810   0.073  15.204
13569TIP3    H162198   0.717   0.091  15.189
13569TIP3    H262199   0.854   0.105  15.125
13570TIP3   OH262200   1.524   4.336   5.642
13570TIP3    H162201   1.571   4.404   5.593
13570TIP3    H262202   1.519   4.371   5.731
13571TIP3   OH262203   4.062   6.049  11.255
13571TIP3    H162204   4.111   6.017  11.179
13571TIP3    H262205   4.086   6.141  11.263
13572TIP3   OH262206   2.807   6.636   2.758
13572TIP3    H162207   2.856   6.629   2.676
13572TIP3    H262208   2.866   6.685   2.816
13573TIP3   OH262209   2.875   0.543   4.586
13573TIP3    H162210   2.931   0.573   4.514
13573TIP3    H262211   2.909   0.587   4.663
13574TIP3   OH262212   6.749   3.169   4.442
13574TIP3    H162213   6.727   3.077   4.428
13574TIP3    H262214   6.771   3.174   4.535
13575TIP3   OH262215   3.066   0.156   1.950
13575TIP3    H162216   3.005   0.189   2.016
13575TIP3    H262217   3.012   0.141   1.873
13576TIP3   OH262218   6.328   2.825  11.470
13576TIP3    H162219   6.374   2.765  11.411
13576TIP3    H262220   6.268   2.873  11.413
13577TIP3   OH262221   1.073   6.305   6.699
13577TIP3    H162222   1.159   6.266   6.716
13577TIP3    H262223   1.014   6.230   6.695
13578TIP3   OH262224   6.068   0.773  11.644
13578TIP3    H162225   6.080   0.847  11.704
13578TIP3    H262226   6.074   0.695  11.699
13579TIP3   OH262227   1.659   0.791  16.795
13579TIP3    H162228   1.615   0.785  16.880
13579TIP3    H262229   1.719   0.865  16.804
13580TIP3   OH262230   1.280   0.709   0.260
13580TIP3    H162231   1.314   0.642   0.200
13580TIP3    H262232   1.307   0.792   0.221
13581TIP3   OH262233   2.722   3.026   1.213
13581TIP3    H162234   2.674   3.108   1.200
13581TIP3    H262235   2.776   3.017   1.135
13582TIP3   OH262236   4.464   1.237   4.207
13582TIP3    H162237   4.433   1.312   4.157
13582TIP3    H262238   4.387   1.182   4.218
13583TIP3   OH262239   6.050   0.159  13.439
13583TIP3    H162240   6.138   0.150  13.475
13583TIP3    H262241   6.055   0.234  13.380
13584TIP3   OH262242   5.351   5.005  12.287
13584TIP3    H162243   5.303   5.011  12.369
13584TIP3    H262244   5.436   5.045  12.305
13585TIP3   OH262245   5.286   0.128   0.167
13585TIP3    H162246   5.292   0.124   0.072
13585TIP3    H262247   5.331   0.209   0.191
13586TIP3   OH262248   0.273   3.063  16.362
13586TIP3    H162249   0.256   3.076  16.455
13586TIP3    H262250   0.328   2.985  16.358
13587TIP3   OH262251   5.696   0.369   4.905
13587TIP3    H162252   5.672   0.411   4.823
13587TIP3    H262253   5.660   0.426   4.973
13588TIP3   OH262254   0.953   4.184   2.687
13588TIP3    H162255   0.929   4.138   2.768
13588TIP3    H262256   1.047   4.171   2.679
13589TIP3   OH262257   5.271   0.100   2.537
13589TIP3    H162258   5.331   0.172   2.518
13589TIP3    H262259   5.300   0.028   2.481
13590TIP3   OH262260   6.605   5.967   5.824
13590TIP3    H162261   6.627   5.963   5.730
13590TIP3    H262262   6.679   6.013   5.864
13591TIP3   OH262263   5.716   5.919  15.444
13591TIP3    H162264   5.713   5.830  15.481
13591TIP3    H262265   5.676   5.974  15.512
13592TIP3   OH262266   5.216   0.477   3.255
13592TIP3    H162267   5.188   0.569   3.257
13592TIP3    H262268   5.282   0.474   3.185
13593TIP3   OH262269   4.229   3.813  15.223
13593TIP3    H162270   4.179   3.872  15.280
13593TIP3    H262271   4.167   3.786  15.156
13594TIP3   OH262272   0.286   1.444   0.115
13594TIP3    H162273   0.201   1.432   0.071
13594TIP3    H262274   0.333   1.506   0.060
13595TIP3   OH262275   6.466   2.793  11.105
13595TIP3    H162276   6.536   2.781  11.168
13595TIP3    H262277   6.423   2.875  11.131
13596TIP3   OH262278   2.267   1.619  15.008
13596TIP3    H162279   2.173   1.627  14.990
13596TIP3    H262280   2.277   1.656  15.095
13597TIP3   OH262281   1.222   2.451  12.917
13597TIP3    H162282   1.131   2.451  12.886
13597TIP3    H262283   1.269   2.398  12.852
13598TIP3   OH262284   4.062   0.753  16.978
13598TIP3    H162285   4.049   0.847  16.979
13598TIP3    H262286   4.098   0.733  17.065
13599TIP3   OH262287   4.227   3.289   0.867
13599TIP3    H162288   4.141   3.277   0.907
13599TIP3    H262289   4.275   3.209   0.887
13600TIP3   OH262290   2.625   3.211   1.022
13600TIP3    H162291   2.557   3.181   0.960
13600TIP3    H262292   2.599   3.300   1.044
13601TIP3   OH262293   5.648   1.546  16.998
13601TIP3    H162294   5.670   1.486  16.927
13601TIP3    H262295   5.711   1.526  17.067
13602TIP3   OH262296   0.695   1.102  16.444
13602TIP3    H162297   0.697   1.055  16.527
13602TIP3    H262298   0.745   1.182  16.461
13603TIP3   OH262299   2.982   2.293   0.009
13603TIP3    H162300   3.006   2.365  -0.049
13603TIP3    H262301   2.992   2.214  -0.045
13604TIP3   OH262302   3.950   0.719  13.215
13604TIP3    H162303   3.928   0.664  13.140
13604TIP3    H262304   4.016   0.779  13.183
13605TIP3   OH262305   0.885   6.781  16.583
13605TIP3    H162306   0.858   6.853  16.639
13605TIP3    H262307   0.804   6.736  16.559
13606TIP3   OH262308   5.135   2.159   5.607
13606TIP3    H162309   5.183   2.234   5.571
13606TIP3    H262310   5.197   2.119   5.668
13607TIP3   OH262311   4.585   1.495  16.159
13607TIP3    H162312   4.625   1.538  16.235
13607TIP3    H262313   4.513   1.444  16.196
13608TIP3   OH262314   1.833   6.666   3.923
13608TIP3    H162315   1.816   6.577   3.891
13608TIP3    H262316   1.884   6.707   3.852
13609TIP3   OH262317   5.332   1.986  16.536
13609TIP3    H162318   5.282   1.914  16.498
13609TIP3    H262319   5.418   1.949  16.555
13610TIP3   OH262320   2.024   2.498  12.237
13610TIP3    H162321   2.076   2.421  12.215
13610TIP3    H262322   2.087   2.570  12.241
13611TIP3   OH262323   2.200   6.818   5.962
13611TIP3    H162324   2.122   6.860   5.998
13611TIP3    H262325   2.204   6.848   5.871
13612TIP3   OH262326   5.864   3.326  12.850
13612TIP3    H162327   5.843   3.285  12.934
13612TIP3    H262328   5.780   3.330  12.803
13613TIP3   OH262329   3.182   1.610  12.364
13613TIP3    H162330   3.267   1.628  12.324
13613TIP3    H262331   3.144   1.541  12.310
13614TIP3   OH262332   6.635   0.621  12.560
13614TIP3    H162333   6.624   0.641  12.653
13614TIP3    H262334   6.546   0.623  12.525
13615TIP3   OH262335   6.563   2.939  10.478
13615TIP3    H162336   6.484   2.990  10.497
13615TIP3    H262337   6.592   2.907  10.563
13616TIP3   OH262338   6.139   4.069  11.930
13616TIP3    H162339   6.160   4.008  11.859
13616TIP3    H262340   6.194   4.040  12.003
13617TIP3   OH262341   5.569   2.257   2.046
13617TIP3    H162342   5.592   2.225   1.959
13617TIP3    H262343   5.530   2.182   2.090
13618TIP3   OH262344   4.784   1.555   4.191
13618TIP3    H162345   4.766   1.526   4.281
13618TIP3    H262346   4.860   1.503   4.165
13619TIP3   OH262347   3.044   6.302   3.637
13619TIP3    H162348   3.075   6.263   3.718
13619TIP3    H262349   3.108   6.274   3.571
13620TIP3   OH262350   5.474   4.326   3.869
13620TIP3    H162351   5.400   4.387   3.873
13620TIP3    H262352   5.551   4.382   3.860
13621TIP3   OH262353   0.304   5.352  16.704
13621TIP3    H162354   0.339   5.278  16.755
13621TIP3    H262355   0.274   5.414  16.770
13622TIP3   OH262356   4.096   2.726  10.883
13622TIP3    H162357   4.026   2.744  10.945
13622TIP3    H262358   4.065   2.651  10.831
13623TIP3   OH262359   0.605   2.283   0.528
13623TIP3    H162360   0.600   2.247   0.439
13623TIP3    H262361   0.666   2.356   0.521
13624TIP3   OH262362   3.289   1.672   2.031
13624TIP3    H162363   3.274   1.762   2.060
13624TIP3    H262364   3.291   1.677   1.936
13625TIP3   OH262365   1.646   5.694  12.620
13625TIP3    H162366   1.644   5.598  12.611
13625TIP3    H262367   1.638   5.709  12.714
13626TIP3   OH262368   4.023   0.403  12.379
13626TIP3    H162369   4.002   0.391  12.472
13626TIP3    H262370   4.063   0.320  12.353
13627TIP3   OH262371   3.937   0.481   4.408
13627TIP3    H162372   3.859   0.535   4.398
13627TIP3    H262373   4.008   0.535   4.373
13628TIP3   OH262374   6.030   3.727  14.568
13628TIP3    H162375   6.036   3.705  14.475
13628TIP3    H262376   6.083   3.661  14.612
13629TIP3   OH262377   3.124   0.784   1.744
13629TIP3    H162378   3.184   0.758   1.674
13629TIP3    H262379   3.147   0.728   1.818
13630TIP3   OH262380   1.330   3.093   2.433
13630TIP3    H162381   1.290   3.077   2.347
13630TIP3    H262382   1.295   3.178   2.460
13631TIP3   OH262383   2.347   3.840  14.216
13631TIP3    H162384   2.339   3.884  14.301
13631TIP3    H262385   2.281   3.883  14.161
13632TIP3   OH262386   3.937   0.234   3.235
13632TIP3    H162387   3.985   0.312   3.205
13632TIP3    H262388   3.852   0.240   3.191
13633TIP3   OH262389   3.353   2.685   6.103
13633TIP3    H162390   3.413   2.613   6.083
13633TIP3    H262391   3.402   2.764   6.081
13634TIP3   OH262392   0.866   1.809  16.273
13634TIP3    H162393   0.859   1.783  16.365
13634TIP3    H262394   0.896   1.731  16.228
13635TIP3   OH262395   1.549   3.010  14.453
13635TIP3    H162396   1.510   2.934  14.496
13635TIP3    H262397   1.644   2.998  14.464
13636TIP3   OH262398   4.260   2.739  15.934
13636TIP3    H162399   4.226   2.683  16.004
13636TIP3    H262400   4.187   2.797  15.912
13637TIP3   OH262401   6.379   4.644   2.124
13637TIP3    H162402   6.289   4.656   2.095
13637TIP3    H262403   6.380   4.679   2.213
13638TIP3   OH262404   5.634   3.880   3.378
13638TIP3    H162405   5.649   3.914   3.290
13638TIP3    H262406   5.591   3.795   3.363
13639TIP3   OH262407   4.673   0.315  11.733
13639TIP3    H162408   4.718   0.281  11.810
13639TIP3    H262409   4.743   0.343  11.674
13640TIP3   OH262410   3.376   2.503  10.660
13640TIP3    H162411   3.388   2.409  10.648
13640TIP3    H262412   3.403   2.541  10.576
13641TIP3   OH262413   4.865   5.381   0.179
13641TIP3    H162414   4.873   5.469   0.217
13641TIP3    H262415   4.772   5.359   0.188
13642TIP3   OH262416   1.329   1.594  11.103
13642TIP3    H162417   1.363   1.549  11.026
13642TIP3    H262418   1.375   1.553  11.177
13643TIP3   OH262419   4.095   2.090  11.890
13643TIP3    H162420   4.032   2.030  11.931
13643TIP3    H262421   4.097   2.165  11.949
13644TIP3   OH262422   1.215   0.297   5.800
13644TIP3    H162423   1.261   0.279   5.883
13644TIP3    H262424   1.286   0.309   5.737
13645TIP3   OH262425   4.638   6.808   4.406
13645TIP3    H162426   4.564   6.850   4.363
13645TIP3    H262427   4.687   6.880   4.446
13646TIP3   OH262428   4.893   1.487   2.170
13646TIP3    H162429   4.824   1.514   2.230
13646TIP3    H262430   4.950   1.431   2.222
13647TIP3   OH262431   5.348   1.924   1.459
13647TIP3    H162432   5.433   1.968   1.456
13647TIP3    H262433   5.360   1.853   1.523
13648TIP3   OH262434   0.693   4.468   0.118
13648TIP3    H162435   0.777   4.461   0.074
13648TIP3    H262436   0.668   4.560   0.109
13649TIP3   OH262437   6.485   1.327   2.639
13649TIP3    H162438   6.534   1.328   2.557
13649TIP3    H262439   6.543   1.370   2.702
13650TIP3   OH262440   1.178   6.227   2.191
13650TIP3    H162441   1.116   6.299   2.194
13650TIP3    H262442   1.254   6.258   2.240
13651TIP3   OH262443   2.207   6.401   5.453
13651TIP3    H162444   2.125   6.380   5.409
13651TIP3    H262445   2.241   6.477   5.405
13652TIP3   OH262446   2.085   1.230  11.516
13652TIP3    H162447   2.162   1.188  11.478
13652TIP3    H262448   2.016   1.217  11.451
13653TIP3   OH262449   3.050   4.553  13.042
13653TIP3    H162450   2.985   4.515  13.101
13653TIP3    H262451   3.079   4.632  13.087
13654TIP3   OH262452   5.770   4.725  14.610
13654TIP3    H162453   5.765   4.800  14.550
13654TIP3    H262454   5.702   4.665  14.579
13655TIP3   OH262455   5.640   0.428   3.491
13655TIP3    H162456   5.717   0.433   3.548
13655TIP3    H262457   5.587   0.357   3.528
13656TIP3   OH262458   5.388   6.258  16.072
13656TIP3    H162459   5.386   6.300  15.986
13656TIP3    H262460   5.467   6.203  16.070
13657TIP3   OH262461   6.619   4.242  10.745
13657TIP3    H162462   6.545   4.301  10.735
13657TIP3    H262463   6.596   4.186  10.819
13658TIP3   OH262464   5.844   6.252   5.610
13658TIP3    H162465   5.835   6.167   5.566
13658TIP3    H262466   5.759   6.266   5.652
13659TIP3   OH262467   5.228   4.417   4.043
13659TIP3    H162468   5.163   4.401   4.111
13659TIP3    H262469   5.289   4.480   4.081
13660TIP3   OH262470   5.818   6.244  13.278
13660TIP3    H162471   5.910   6.217  13.269
13660TIP3    H262472   5.774   6.168  13.316
13661TIP3   OH262473   5.769   4.287   1.388
13661TIP3    H162474   5.696   4.230   1.414
13661TIP3    H262475   5.734   4.338   1.315
13662TIP3   OH262476   5.633   5.951   4.957
13662TIP3    H162477   5.708   5.957   5.015
13662TIP3    H262478   5.659   6.000   4.879
13663TIP3   OH262479   1.544   0.909   5.861
13663TIP3    H162480   1.514   0.984   5.809
13663TIP3    H262481   1.478   0.900   5.930
13664TIP3   OH262482   4.409   0.561  16.037
13664TIP3    H162483   4.496   0.536  16.067
13664TIP3    H262484   4.351   0.493  16.071
13665TIP3   OH262485   4.660   4.928  14.136
13665TIP3    H162486   4.737   4.965  14.093
13665TIP3    H262487   4.692   4.851  14.181
13666TIP3   OH262488   1.924   0.469  11.175
13666TIP3    H162489   1.951   0.396  11.120
13666TIP3    H262490   1.963   0.450  11.261
13667TIP3   OH262491   0.454   5.106  12.600
13667TIP3    H162492   0.505   5.187  12.598
13667TIP3    H262493   0.472   5.068  12.686
13668TIP3   OH262494   0.817   6.065  16.927
13668TIP3    H162495   0.795   6.070  17.020
13668TIP3    H262496   0.881   5.994  16.922
13669TIP3   OH262497   5.566   1.584   3.814
13669TIP3    H162498   5.566   1.489   3.805
13669TIP3    H262499   5.545   1.616   3.726
13670TIP3   OH262500   2.770   4.886  11.491
13670TIP3    H162501   2.701   4.860  11.430
13670TIP3    H262502   2.730   4.956  11.544
13671TIP3   OH262503   6.045   5.065   1.399
13671TIP3    H162504   6.007   4.977   1.402
13671TIP3    H262505   6.133   5.054   1.435
13672TIP3   OH262506   5.206   5.647  15.686
13672TIP3    H162507   5.186   5.732  15.646
13672TIP3    H262508   5.129   5.593  15.668
13673TIP3   OH262509   0.336   1.790   1.479
13673TIP3    H162510   0.398   1.863   1.485
13673TIP3    H262511   0.351   1.739   1.558
13674TIP3   OH262512   3.100   5.391   4.936
13674TIP3    H162513   3.059   5.478   4.935
13674TIP3    H262514   3.053   5.342   5.003
13675TIP3   OH262515   2.467   0.768   2.075
13675TIP3    H162516   2.406   0.828   2.032
13675TIP3    H262517   2.550   0.782   2.028
13676TIP3   OH262518   2.111   1.097   4.585
13676TIP3    H162519   2.051   1.024   4.567
13676TIP3    H262520   2.191   1.056   4.616
13677TIP3   OH262521   2.445   4.486   5.823
13677TIP3    H162522   2.533   4.448   5.825
13677TIP3    H262523   2.460   4.578   5.802
13678TIP3   OH262524   6.083   1.272  10.973
13678TIP3    H162525   6.144   1.271  11.046
13678TIP3    H262526   6.058   1.364  10.964
13679TIP3   OH262527   2.612   5.795   1.349
13679TIP3    H162528   2.606   5.714   1.400
13679TIP3    H262529   2.621   5.864   1.415
13680TIP3   OH262530   0.719   0.866  11.356
13680TIP3    H162531   0.643   0.864  11.414
13680TIP3    H262532   0.759   0.780  11.365
13681TIP3   OH262533   4.672   2.082  13.101
13681TIP3    H162534   4.581   2.080  13.131
13681TIP3    H262535   4.687   1.994  13.066
13682TIP3   OH262536   6.704   0.499  16.368
13682TIP3    H162537   6.787   0.460  16.341
13682TIP3    H262538   6.668   0.436  16.431
13683TIP3   OH262539   5.809   6.282   0.216
13683TIP3    H162540   5.802   6.199   0.265
13683TIP3    H262541   5.811   6.349   0.284
13684TIP3   OH262542   4.034   0.910   0.823
13684TIP3    H162543   4.126   0.916   0.796
13684TIP3    H262544   3.993   0.858   0.754
13685TIP3   OH262545   3.646   4.208  13.197
13685TIP3    H162546   3.663   4.177  13.285
13685TIP3    H262547   3.647   4.304  13.204
13686TIP3   OH262548   2.270   4.707   5.287
13686TIP3    H162549   2.337   4.648   5.253
13686TIP3    H262550   2.203   4.709   5.219
13687TIP3   OH262551   5.369   5.519  10.794
13687TIP3    H162552   5.284   5.542  10.758
13687TIP3    H262553   5.416   5.602  10.801
13688TIP3   OH262554   6.444   5.075   5.911
13688TIP3    H162555   6.495   5.058   5.990
13688TIP3    H262556   6.399   5.158   5.929
13689TIP3   OH262557   6.748   5.054   2.463
13689TIP3    H162558   6.785   4.966   2.458
13689TIP3    H262559   6.654   5.039   2.474
13690TIP3   OH262560   5.981   6.254   1.572
13690TIP3    H162561   5.979   6.163   1.542
13690TIP3    H262562   6.008   6.304   1.495
13691TIP3   OH262563   5.921   6.105   4.856
13691TIP3    H162564   5.940   6.179   4.913
13691TIP3    H262565   5.851   6.135   4.798
13692TIP3   OH262566   1.687   2.207  13.642
13692TIP3    H162567   1.736   2.258  13.579
13692TIP3    H262568   1.750   2.188  13.712
13693TIP3   OH262569   4.325   1.517  15.656
13693TIP3    H162570   4.285   1.559  15.732
13693TIP3    H262571   4.342   1.427  15.685
13694TIP3   OH262572   5.944   3.336   4.526
13694TIP3    H162573   5.949   3.432   4.528
13694TIP3    H262574   6.035   3.307   4.528
13695TIP3   OH262575   2.610   3.009   0.491
13695TIP3    H162576   2.668   2.950   0.443
13695TIP3    H262577   2.657   3.092   0.494
13696TIP3   OH262578   4.745   4.768  12.503
13696TIP3    H162579   4.730   4.827  12.577
13696TIP3    H262580   4.729   4.822  12.426
13697TIP3   OH262581   5.651   1.413   0.634
13697TIP3    H162582   5.699   1.419   0.551
13697TIP3    H262583   5.676   1.327   0.669
13698TIP3   OH262584   0.228   6.271   4.205
13698TIP3    H162585   0.272   6.332   4.266
13698TIP3    H262586   0.159   6.231   4.258
13699TIP3   OH262587   5.622   5.577  13.739
13699TIP3    H162588   5.570   5.656  13.755
13699TIP3    H262589   5.585   5.539  13.660
13700TIP3   OH262590   2.565   6.351   4.764
13700TIP3    H162591   2.567   6.407   4.841
13700TIP3    H262592   2.504   6.281   4.787
13701TIP3   OH262593   0.548   3.813  10.761
13701TIP3    H162594   0.573   3.722  10.744
13701TIP3    H262595   0.518   3.846  10.677
13702TIP3   OH262596   2.414   1.771  12.766
13702TIP3    H162597   2.507   1.752  12.749
13702TIP3    H262598   2.404   1.863  12.740
13703TIP3   OH262599   1.121   6.050  12.129
13703TIP3    H162600   1.166   5.974  12.167
13703TIP3    H262601   1.033   6.018  12.110
13704TIP3   OH262602   4.349   2.654   2.264
13704TIP3    H162603   4.321   2.633   2.353
13704TIP3    H262604   4.342   2.750   2.260
13705TIP3   OH262605   6.000   5.748   0.205
13705TIP3    H162606   6.018   5.703   0.288
13705TIP3    H262607   6.044   5.695   0.139
13706TIP3   OH262608   4.304   3.430   1.504
13706TIP3    H162609   4.296   3.378   1.424
13706TIP3    H262610   4.344   3.512   1.476
13707TIP3   OH262611   4.817   4.525  14.501
13707TIP3    H162612   4.763   4.532  14.580
13707TIP3    H262613   4.900   4.566  14.525
13708TIP3   OH262614   6.188   6.335   2.905
13708TIP3    H162615   6.140   6.353   2.987
13708TIP3    H262616   6.157   6.249   2.878
13709TIP3   OH262617   2.748   5.012  13.503
13709TIP3    H162618   2.746   4.984  13.594
13709TIP3    H262619   2.836   5.047  13.490
13710TIP3   OH262620   0.121   5.576   1.859
13710TIP3    H162621   0.124   5.598   1.766
13710TIP3    H262622   0.175   5.497   1.867
13711TIP3   OH262623   3.579   3.138   5.036
13711TIP3    H162624   3.640   3.078   4.994
13711TIP3    H262625   3.619   3.157   5.121
13712TIP3   OH262626   3.666   1.615   0.879
13712TIP3    H162627   3.574   1.599   0.901
13712TIP3    H262628   3.711   1.619   0.964
13713TIP3   OH262629   0.613   0.713  13.895
13713TIP3    H162630   0.548   0.697  13.963
13713TIP3    H262631   0.683   0.760  13.940
13714TIP3   OH262632   5.071   6.372   1.048
13714TIP3    H162633   5.023   6.449   1.016
13714TIP3    H262634   5.144   6.409   1.098
13715TIP3   OH262635   6.169   5.933  14.042
13715TIP3    H162636   6.225   5.987  13.986
13715TIP3    H262637   6.171   5.847  14.002
13716TIP3   OH262638   6.424   4.975  14.604
13716TIP3    H162639   6.466   4.898  14.643
13716TIP3    H262640   6.347   4.991  14.659
13717TIP3   OH262641   1.642   3.590   4.797
13717TIP3    H162642   1.596   3.545   4.727
13717TIP3    H262643   1.580   3.590   4.870
13718TIP3   OH262644   1.971   4.101   1.250
13718TIP3    H162645   1.975   4.045   1.327
13718TIP3    H262646   1.902   4.062   1.196
13719TIP3   OH262647   4.929   3.324  16.336
13719TIP3    H162648   4.977   3.317  16.253
13719TIP3    H262649   4.841   3.349  16.310
13720TIP3   OH262650   3.121   3.791  13.948
13720TIP3    H162651   3.206   3.754  13.973
13720TIP3    H262652   3.093   3.839  14.025
13721TIP3   OH262653   5.639   0.620   0.443
13721TIP3    H162654   5.708   0.682   0.465
13721TIP3    H262655   5.620   0.637   0.351
13722TIP3   OH262656   2.875   1.344  16.144
13722TIP3    H162657   2.881   1.439  16.131
13722TIP3    H262658   2.800   1.317  16.092
13723TIP3   OH262659   3.909   1.468   4.305
13723TIP3    H162660   3.839   1.448   4.367
13723TIP3    H262661   3.902   1.563   4.291
13724TIP3   OH262662   5.483   1.140   0.335
13724TIP3    H162663   5.477   1.234   0.317
13724TIP3    H262664   5.438   1.128   0.418
13725TIP3   OH262665   5.691   2.080   3.102
13725TIP3    H162666   5.781   2.104   3.127
13725TIP3    H262667   5.637   2.114   3.173
13726TIP3   OH262668   1.164   0.622  11.388
13726TIP3    H162669   1.252   0.634  11.422
13726TIP3    H262670   1.110   0.681  11.441
13727TIP3   OH262671   1.452   4.866  13.618
13727TIP3    H162672   1.455   4.771  13.625
13727TIP3    H262673   1.543   4.891  13.602
13728TIP3   OH262674   6.098   3.917  11.003
13728TIP3    H162675   6.104   3.824  11.024
13728TIP3    H262676   6.073   3.958  11.086
13729TIP3   OH262677   6.241   1.169   0.755
13729TIP3    H162678   6.157   1.142   0.792
13729TIP3    H262679   6.307   1.124   0.809
13730TIP3   OH262680   6.602   0.139   5.611
13730TIP3    H162681   6.563   0.205   5.554
13730TIP3    H262682   6.624   0.067   5.551
13731TIP3   OH262683   5.793   5.857  12.358
13731TIP3    H162684   5.722   5.850  12.422
13731TIP3    H262685   5.857   5.791  12.385
13732TIP3   OH262686   6.634   2.528   2.029
13732TIP3    H162687   6.720   2.568   2.035
13732TIP3    H262688   6.600   2.557   1.944
13733TIP3   OH262689   2.184   5.538  15.936
13733TIP3    H162690   2.246   5.506  15.870
13733TIP3    H262691   2.103   5.552  15.888
13734TIP3   OH262692   5.816   0.605  16.322
13734TIP3    H162693   5.749   0.610  16.391
13734TIP3    H262694   5.887   0.660  16.354
13735TIP3   OH262695   3.439   4.848   1.037
13735TIP3    H162696   3.377   4.835   1.108
13735TIP3    H262697   3.444   4.943   1.026
13736TIP3   OH262698   0.880   4.410   5.216
13736TIP3    H162699   0.827   4.439   5.142
13736TIP3    H262700   0.921   4.329   5.186
13737TIP3   OH262701   5.183   2.092   4.091
13737TIP3    H162702   5.254   2.127   4.036
13737TIP3    H262703   5.201   1.998   4.096
13738TIP3   OH262704   1.669   2.178  12.675
13738TIP3    H162705   1.695   2.091  12.705
13738TIP3    H262706   1.660   2.229  12.756
13739TIP3   OH262707   0.455   5.134  13.512
13739TIP3    H162708   0.485   5.199  13.576
13739TIP3    H262709   0.472   5.050  13.554
13740TIP3   OH262710   6.542   4.603   3.081
13740TIP3    H162711   6.616   4.587   3.023
13740TIP3    H262712   6.564   4.685   3.126
13741TIP3   OH262713   0.993   3.786   1.303
13741TIP3    H162714   0.921   3.832   1.260
13741TIP3    H262715   0.971   3.694   1.294
13742TIP3   OH262716   4.116   0.118  15.260
13742TIP3    H162717   4.150   0.163  15.183
13742TIP3    H262718   4.101   0.188  15.324
13743TIP3   OH262719   4.146   3.479  16.552
13743TIP3    H162720   4.217   3.431  16.594
13743TIP3    H262721   4.076   3.415  16.544
13744TIP3   OH262722   6.042   5.665  12.300
13744TIP3    H162723   6.067   5.696  12.387
13744TIP3    H262724   6.123   5.627  12.264
13745TIP3   OH262725   1.215   2.829   1.085
13745TIP3    H162726   1.197   2.922   1.077
13745TIP3    H262727   1.231   2.815   1.179
13746TIP3   OH262728   6.417   3.732   5.657
13746TIP3    H162729   6.394   3.689   5.575
13746TIP3    H262730   6.507   3.705   5.674
13747TIP3   OH262731   1.807   4.446   6.290
13747TIP3    H162732   1.814   4.518   6.228
13747TIP3    H262733   1.887   4.395   6.277
13748TIP3   OH262734   1.742   6.696  12.778
13748TIP3    H162735   1.747   6.667  12.687
13748TIP3    H262736   1.709   6.786  12.772
13749TIP3   OH262737   0.068   1.787   2.813
13749TIP3    H162738   0.009   1.843   2.762
13749TIP3    H262739   0.128   1.751   2.748
13750TIP3   OH262740   5.987   0.468   2.021
13750TIP3    H162741   6.082   0.476   2.016
13750TIP3    H262742   5.966   0.493   2.111
13751TIP3   OH262743   3.650   6.145  11.874
13751TIP3    H162744   3.632   6.194  11.954
13751TIP3    H262745   3.586   6.074  11.875
13752TIP3   OH262746   2.794   3.385  12.463
13752TIP3    H162747   2.769   3.472  12.492
13752TIP3    H262748   2.718   3.353  12.414
13753TIP3   OH262749   0.443   5.119  12.101
13753TIP3    H162750   0.500   5.153  12.032
13753TIP3    H262751   0.456   5.024  12.098
13754TIP3   OH262752   6.591   4.024  13.151
13754TIP3    H162753   6.553   4.042  13.065
13754TIP3    H262754   6.656   3.956  13.135
13755TIP3   OH262755   4.456   1.094   4.854
13755TIP3    H162756   4.477   1.184   4.830
13755TIP3    H262757   4.376   1.074   4.805
13756TIP3   OH262758   0.258   5.922  12.654
13756TIP3    H162759   0.212   5.930  12.738
13756TIP3    H262760   0.335   5.869  12.674
13757TIP3   OH262761   5.006   4.641  12.337
13757TIP3    H162762   4.935   4.579  12.353
13757TIP3    H262763   4.976   4.724  12.374
13758TIP3   OH262764   5.565   2.497  11.466
13758TIP3    H162765   5.536   2.552  11.393
13758TIP3    H262766   5.497   2.508  11.533
13759TIP3   OH262767   5.708   1.169  15.671
13759TIP3    H162768   5.745   1.223  15.741
13759TIP3    H262769   5.716   1.222  15.592
13760TIP3   OH262770   6.659   1.726   1.024
13760TIP3    H162771   6.567   1.713   1.048
13760TIP3    H262772   6.691   1.792   1.085
13761TIP3   OH262773   5.515   6.756   4.071
13761TIP3    H162774   5.589   6.767   4.012
13761TIP3    H262775   5.488   6.665   4.059
13762TIP3   OH262776   2.962   6.022  15.081
13762TIP3    H162777   2.974   6.115  15.099
13762TIP3    H262778   2.869   6.013  15.061
13763TIP3   OH262779   2.763   4.620   4.369
13763TIP3    H162780   2.699   4.691   4.371
13763TIP3    H262781   2.745   4.570   4.448
13764TIP3   OH262782   4.381   5.045   1.559
13764TIP3    H162783   4.286   5.033   1.560
13764TIP3    H262784   4.414   4.979   1.620
13765TIP3   OH262785   1.396   6.714   5.836
13765TIP3    H162786   1.359   6.730   5.750
13765TIP3    H262787   1.481   6.759   5.836
13766TIP3   OH262788   2.727   1.296   3.637
13766TIP3    H162789   2.760   1.292   3.727
13766TIP3    H262790   2.664   1.368   3.639
13767TIP3   OH262791   4.515   4.643  10.868
13767TIP3    H162792   4.486   4.732  10.887
13767TIP3    H262793   4.601   4.653  10.828
13768TIP3   OH262794   4.377   3.438   6.318
13768TIP3    H162795   4.390   3.531   6.296
13768TIP3    H262796   4.430   3.424   6.396
13769TIP3   OH262797   1.296   1.593   1.541
13769TIP3    H162798   1.201   1.586   1.529
13769TIP3    H262799   1.327   1.503   1.546
13770TIP3   OH262800   1.183   4.290  10.882
13770TIP3    H162801   1.224   4.232  10.817
13770TIP3    H262802   1.136   4.231  10.941
13771TIP3   OH262803   3.585   1.650   0.510
13771TIP3    H162804   3.656   1.601   0.551
13771TIP3    H262805   3.588   1.625   0.418
13772TIP3   OH262806   4.537   2.952  16.803
13772TIP3    H162807   4.621   2.907  16.801
13772TIP3    H262808   4.475   2.887  16.770
13773TIP3   OH262809   0.625   1.001  12.772
13773TIP3    H162810   0.688   1.062  12.809
13773TIP3    H262811   0.672   0.918  12.765
13774TIP3   OH262812   6.789   1.947  16.619
13774TIP3    H162813   6.814   2.032  16.583
13774TIP3    H262814   6.776   1.963  16.712
13775TIP3   OH262815   3.275   3.758   2.059
13775TIP3    H162816   3.309   3.701   2.128
13775TIP3    H262817   3.270   3.703   1.982
13776TIP3   OH262818   0.089   1.465  16.064
13776TIP3    H162819   0.045   1.390  16.025
13776TIP3    H262820   0.173   1.431  16.095
13777TIP3   OH262821   4.766   0.882   2.612
13777TIP3    H162822   4.815   0.942   2.556
13777TIP3    H262823   4.686   0.930   2.633
13778TIP3   OH262824   1.684   3.008  11.871
13778TIP3    H162825   1.617   3.005  11.803
13778TIP3    H262826   1.649   3.067  11.937
13779TIP3   OH262827   6.107   4.601   4.314
13779TIP3    H162828   6.164   4.636   4.383
13779TIP3    H262829   6.143   4.515   4.294
13780TIP3   OH262830   6.741   1.526   3.407
13780TIP3    H162831   6.711   1.449   3.359
13780TIP3    H262832   6.710   1.601   3.355
13781TIP3   OH262833   3.888   5.045  14.583
13781TIP3    H162834   3.795   5.023  14.589
13781TIP3    H262835   3.912   5.022  14.493
13782TIP3   OH262836   0.568   2.625   0.378
13782TIP3    H162837   0.624   2.561   0.421
13782TIP3    H262838   0.624   2.666   0.313
13783TIP3   OH262839   3.573   3.852  14.212
13783TIP3    H162840   3.604   3.868  14.302
13783TIP3    H262841   3.645   3.882  14.157
13784TIP3   OH262842   1.500   0.335   1.502
13784TIP3    H162843   1.428   0.274   1.485
13784TIP3    H262844   1.540   0.349   1.416
13785TIP3   OH262845   1.502   6.206   0.746
13785TIP3    H162846   1.493   6.134   0.684
13785TIP3    H262847   1.439   6.271   0.716
13786TIP3   OH262848   1.172   5.664   3.226
13786TIP3    H162849   1.110   5.680   3.155
13786TIP3    H262850   1.119   5.627   3.297
13787TIP3   OH262851   5.529   0.283  12.195
13787TIP3    H162852   5.599   0.223  12.219
13787TIP3    H262853   5.548   0.306  12.104
13788TIP3   OH262854   0.008   1.180  13.242
13788TIP3    H162855  -0.032   1.167  13.156
13788TIP3    H262856   0.048   1.267  13.238
13789TIP3   OH262857   6.807   1.709   4.004
13789TIP3    H162858   6.859   1.656   4.065
13789TIP3    H262859   6.836   1.799   4.019
13790TIP3   OH262860   0.971   6.541  17.073
13790TIP3    H162861   0.977   6.585  16.989
13790TIP3    H262862   0.943   6.452  17.052
13791TIP3   OH262863   5.756   4.229  14.980
13791TIP3    H162864   5.781   4.252  14.890
13791TIP3    H262865   5.664   4.204  14.972
13792TIP3   OH262866   3.906   2.018   5.216
13792TIP3    H162867   3.904   1.925   5.239
13792TIP3    H262868   3.993   2.032   5.181
13793TIP3   OH262869   4.158   4.566   4.519
13793TIP3    H162870   4.209   4.553   4.439
13793TIP3    H262871   4.107   4.485   4.529
13794TIP3   OH262872   3.966   0.095   2.895
13794TIP3    H162873   3.907   0.038   2.945
13794TIP3    H262874   3.939   0.184   2.918
13795TIP3   OH262875   3.711   6.263  14.554
13795TIP3    H162876   3.712   6.357  14.572
13795TIP3    H262877   3.620   6.244  14.531
13796TIP3   OH262878   0.820   2.371   3.817
13796TIP3    H162879   0.751   2.437   3.821
13796TIP3    H262880   0.885   2.401   3.881
13797TIP3   OH262881   4.739   3.464   3.751
13797TIP3    H162882   4.710   3.527   3.686
13797TIP3    H262883   4.754   3.383   3.702
13798TIP3   OH262884   4.079   6.186   1.640
13798TIP3    H162885   4.136   6.143   1.577
13798TIP3    H262886   4.138   6.222   1.706
13799TIP3   OH262887   3.563   6.002   2.441
13799TIP3    H162888   3.607   6.080   2.407
13799TIP3    H262889   3.509   6.034   2.513
13800TIP3   OH262890   2.585   5.604   2.636
13800TIP3    H162891   2.515   5.567   2.690
13800TIP3    H262892   2.576   5.699   2.647
13801TIP3   OH262893   5.003   5.227   1.880
13801TIP3    H162894   4.983   5.292   1.812
13801TIP3    H262895   4.973   5.144   1.844
13802TIP3   OH262896   6.358   2.147   4.613
13802TIP3    H162897   6.392   2.194   4.690
13802TIP3    H262898   6.263   2.155   4.621
13803TIP3   OH262899   6.469   4.290  12.702
13803TIP3    H162900   6.513   4.256  12.780
13803TIP3    H262901   6.534   4.347  12.661
13804TIP3   OH262902   3.106   5.642  10.296
13804TIP3    H162903   3.080   5.734  10.292
13804TIP3    H262904   3.023   5.594  10.303
13805TIP3   OH262905   1.732   0.034   0.115
13805TIP3    H162906   1.736  -0.002   0.026
13805TIP3    H262907   1.654  -0.005   0.153
13806TIP3   OH262908   0.510   1.790   2.767
13806TIP3    H162909   0.549   1.859   2.712
13806TIP3    H262910   0.500   1.831   2.853
13807TIP3   OH262911   5.757   3.231  13.090
13807TIP3    H162912   5.730   3.139  13.088
13807TIP3    H262913   5.680   3.280  13.063
13808TIP3   OH262914   2.105   3.562   3.845
13808TIP3    H162915   2.050   3.486   3.825
13808TIP3    H262916   2.157   3.575   3.765
13809TIP3   OH262917   6.052   6.195   0.394
13809TIP3    H162918   6.034   6.130   0.327
13809TIP3    H262919   6.078   6.145   0.471
13810TIP3   OH262920   0.024   1.822  16.258
13810TIP3    H162921   0.084   1.759  16.218
13810TIP3    H262922  -0.063   1.793  16.232
13811TIP3   OH262923   2.798   4.117  15.190
13811TIP3    H162924   2.873   4.064  15.163
13811TIP3    H262925   2.834   4.178  15.254
13812TIP3   OH262926   3.010   2.263  15.242
13812TIP3    H162927   3.066   2.282  15.167
13812TIP3    H262928   3.057   2.298  15.318
13813TIP3   OH262929   4.408   3.026  14.219
13813TIP3    H162930   4.407   3.014  14.124
13813TIP3    H262931   4.501   3.022  14.243
13814TIP3   OH262932   3.743   0.891  13.062
13814TIP3    H162933   3.650   0.914  13.058
13814TIP3    H262934   3.743   0.802  13.098
13815TIP3   OH262935   4.712   0.171   4.944
13815TIP3    H162936   4.682   0.245   4.998
13815TIP3    H262937   4.645   0.163   4.876
13816TIP3   OH262938   5.406   3.603  13.662
13816TIP3    H162939   5.475   3.542  13.637
13816TIP3    H262940   5.375   3.640  13.579
13817TIP3   OH262941   4.991   2.089   3.522
13817TIP3    H162942   4.906   2.061   3.486
13817TIP3    H262943   5.053   2.023   3.491
13818TIP3   OH262944   0.640   1.461  12.478
13818TIP3    H162945   0.647   1.427  12.567
13818TIP3    H262946   0.731   1.466  12.447
13819TIP3   OH262947   0.717   3.823  13.913
13819TIP3    H162948   0.771   3.899  13.892
13819TIP3    H262949   0.691   3.788  13.828
13820TIP3   OH262950   0.615   3.486  12.108
13820TIP3    H162951   0.551   3.500  12.177
13820TIP3    H262952   0.683   3.551  12.124
13821TIP3   OH262953   4.162   4.726  12.734
13821TIP3    H162954   4.237   4.777  12.702
13821TIP3    H262955   4.108   4.789  12.782
13822TIP3   OH262956   0.508   6.262   4.855
13822TIP3    H162957   0.517   6.291   4.945
13822TIP3    H262958   0.426   6.212   4.854
13823TIP3   OH262959   3.056   1.495  12.729
13823TIP3    H162960   3.119   1.491  12.656
13823TIP3    H262961   2.985   1.436  12.703
13824TIP3   OH262962   0.656   2.672  16.699
13824TIP3    H162963   0.699   2.755  16.677
13824TIP3    H262964   0.603   2.693  16.776
13825TIP3   OH262965   3.941   4.530  11.521
13825TIP3    H162966   3.928   4.621  11.497
13825TIP3    H262967   3.853   4.492  11.519
13826TIP3   OH262968   5.439   0.552  15.569
13826TIP3    H162969   5.509   0.589  15.516
13826TIP3    H262970   5.379   0.513  15.505
13827TIP3   OH262971   0.693   5.659  13.781
13827TIP3    H162972   0.722   5.622  13.698
13827TIP3    H262973   0.721   5.596  13.847
13828TIP3   OH262974   1.064   2.912   3.363
13828TIP3    H162975   1.088   2.838   3.306
13828TIP3    H262976   0.968   2.913   3.362
13829TIP3   OH262977   4.074   5.932  15.714
13829TIP3    H162978   4.010   5.962  15.650
13829TIP3    H262979   4.044   5.844  15.738
13830TIP3   OH262980   2.661   3.865  15.169
13830TIP3    H162981   2.736   3.806  15.174
13830TIP3    H262982   2.699   3.953  15.179
13831TIP3   OH262983   1.722   2.665   2.909
13831TIP3    H162984   1.805   2.664   2.863
13831TIP3    H262985   1.667   2.727   2.861
13832TIP3   OH262986   2.358   5.493  15.210
13832TIP3    H162987   2.364   5.588  15.209
13832TIP3    H262988   2.321   5.472  15.296
13833TIP3   OH262989   5.944   3.619   4.095
13833TIP3    H162990   5.992   3.564   4.033
13833TIP3    H262991   5.862   3.573   4.110
13834TIP3   OH262992   3.981   4.794  14.099
13834TIP3    H162993   4.073   4.800  14.075
13834TIP3    H262994   3.959   4.881  14.132
13835TIP3   OH262995   5.995   1.200   5.245
13835TIP3    H162996   6.015   1.176   5.335
13835TIP3    H262997   5.919   1.257   5.251
13836TIP3   OH262998   4.383   4.089  11.021
13836TIP3    H162999   4.412   4.014  11.072
13836TIP3    H263000   4.297   4.112  11.057
13837TIP3   OH263001   4.526   3.410   3.283
13837TIP3    H163002   4.502   3.388   3.194
13837TIP3    H263003   4.473   3.352   3.338
13838TIP3   OH263004   1.069   4.259  13.068
13838TIP3    H163005   0.986   4.248  13.021
13838TIP3    H263006   1.119   4.181  13.048
13839TIP3   OH263007   0.976   3.629  11.350
13839TIP3    H163008   0.883   3.631  11.374
13839TIP3    H263009   1.021   3.610  11.432
13840TIP3   OH263010   4.620   2.534  16.576
13840TIP3    H163011   4.699   2.489  16.606
13840TIP3    H263012   4.615   2.514  16.482
13841TIP3   OH263013   3.480   5.792  16.386
13841TIP3    H163014   3.534   5.736  16.331
13841TIP3    H263015   3.542   5.847  16.434
13842TIP3   OH263016   4.795   0.196   3.413
13842TIP3    H163017   4.837   0.132   3.356
13842TIP3    H263018   4.788   0.151   3.498
13843TIP3   OH263019   5.457   6.137  13.284
13843TIP3    H163020   5.384   6.076  13.293
13843TIP3    H263021   5.423   6.205  13.225
13844TIP3   OH263022   3.622   4.992  14.620
13844TIP3    H163023   3.647   4.942  14.697
13844TIP3    H263024   3.578   4.928  14.563
13845TIP3   OH263025   2.450   6.267  14.150
13845TIP3    H163026   2.469   6.175  14.135
13845TIP3    H263027   2.383   6.267  14.219
13846TIP3   OH263028   4.254   0.079  14.129
13846TIP3    H163029   4.231   0.150  14.069
13846TIP3    H263030   4.348   0.064  14.114
13847TIP3   OH263031   5.795   3.343   0.929
13847TIP3    H163032   5.813   3.272   0.867
13847TIP3    H263033   5.880   3.361   0.969
13848TIP3   OH263034   6.695   5.823  12.798
13848TIP3    H163035   6.624   5.842  12.858
13848TIP3    H263036   6.774   5.825  12.851
13849TIP3   OH263037   3.445   0.185  12.127
13849TIP3    H163038   3.458   0.143  12.212
13849TIP3    H263039   3.364   0.234  12.137
13850TIP3   OH263040   0.117   4.756  17.080
13850TIP3    H163041   0.190   4.738  17.020
13850TIP3    H263042   0.080   4.839  17.050
13851TIP3   OH263043   3.729   0.907   6.231
13851TIP3    H163044   3.639   0.886   6.208
13851TIP3    H263045   3.758   0.833   6.285
13852TIP3   OH263046   6.215   4.789  13.723
13852TIP3    H163047   6.250   4.701  13.710
13852TIP3    H263048   6.265   4.825  13.796
13853TIP3   OH263049   3.741   5.367   3.718
13853TIP3    H163050   3.692   5.352   3.638
13853TIP3    H263051   3.694   5.317   3.785
13854TIP3   OH263052   1.248   4.442   4.535
13854TIP3    H163053   1.213   4.453   4.624
13854TIP3    H263054   1.192   4.497   4.480
13855TIP3   OH263055   3.769   3.108   4.179
13855TIP3    H163056   3.810   3.191   4.153
13855TIP3    H263057   3.755   3.117   4.273
13856TIP3   OH263058   1.647   0.419  12.541
13856TIP3    H163059   1.655   0.491  12.603
13856TIP3    H263060   1.644   0.461  12.455
13857TIP3   OH263061   5.692   4.130   2.522
13857TIP3    H163062   5.755   4.097   2.457
13857TIP3    H263063   5.636   4.055   2.541
13858TIP3   OH263064   0.383   0.483  14.756
13858TIP3    H163065   0.368   0.577  14.750
13858TIP3    H263066   0.295   0.446  14.763
13859TIP3   OH263067   2.908   5.450  13.112
13859TIP3    H163068   2.924   5.533  13.156
13859TIP3    H263069   2.813   5.447  13.100
13860TIP3   OH263070   1.734   4.811   0.868
13860TIP3    H163071   1.776   4.750   0.929
13860TIP3    H263072   1.801   4.830   0.802
13861TIP3   OH263073   2.067   3.071   5.835
13861TIP3    H163074   2.134   3.061   5.902
13861TIP3    H263075   2.046   3.165   5.835
13862TIP3   OH263076   5.626   5.786   4.465
13862TIP3    H163077   5.555   5.774   4.529
13862TIP3    H263078   5.628   5.881   4.449
13863TIP3   OH263079   3.127   4.457   5.007
13863TIP3    H163080   3.205   4.465   4.953
13863TIP3    H263081   3.108   4.363   5.009
13864TIP3   OH263082   4.355   4.769  14.196
13864TIP3    H163083   4.353   4.846  14.254
13864TIP3    H263084   4.446   4.740  14.197
13865TIP3   OH263085   4.269   1.624  14.373
13865TIP3    H163086   4.333   1.558  14.345
13865TIP3    H263087   4.223   1.582  14.446
13866TIP3   OH263088   4.685   4.560  16.500
13866TIP3    H163089   4.682   4.589  16.409
13866TIP3    H263090   4.774   4.582  16.529
13867TIP3   OH263091   5.161   1.583  15.841
13867TIP3    H163092   5.069   1.594  15.867
13867TIP3    H263093   5.184   1.667  15.801
13868TIP3   OH263094   6.371   2.436   1.388
13868TIP3    H163095   6.341   2.508   1.333
13868TIP3    H263096   6.397   2.368   1.326
13869TIP3   OH263097   2.162   6.684  11.443
13869TIP3    H163098   2.190   6.761  11.393
13869TIP3    H263099   2.066   6.692  11.447
13870TIP3   OH263100   3.228   1.512   0.108
13870TIP3    H163101   3.166   1.573   0.068
13870TIP3    H263102   3.313   1.555   0.099
13871TIP3   OH263103   1.273   1.153  16.898
13871TIP3    H163104   1.363   1.124  16.883
13871TIP3    H263105   1.220   1.096  16.842
13872TIP3   OH263106   5.937   3.420  13.188
13872TIP3    H163107   5.901   3.419  13.277
13872TIP3    H263108   5.883   3.357  13.140
13873TIP3   OH263109   2.481   2.227   3.808
13873TIP3    H163110   2.509   2.245   3.898
13873TIP3    H263111   2.534   2.285   3.754
13874TIP3   OH263112   4.972   0.627  16.491
13874TIP3    H163113   4.943   0.715  16.466
13874TIP3    H263114   5.067   0.635  16.500
13875TIP3   OH263115   1.353   2.360   3.011
13875TIP3    H163116   1.425   2.416   2.982
13875TIP3    H263117   1.353   2.286   2.949
13876TIP3   OH263118   5.911   1.852  14.911
13876TIP3    H163119   5.970   1.906  14.858
13876TIP3    H263120   5.959   1.833  14.991
13877TIP3   OH263121   0.678   3.104   0.061
13877TIP3    H163122   0.702   3.014   0.039
13877TIP3    H263123   0.582   3.105   0.052
13878TIP3   OH263124   5.222   1.404  14.918
13878TIP3    H163125   5.171   1.359  14.985
13878TIP3    H263126   5.195   1.496  14.925
13879TIP3   OH263127   3.183   3.340  11.871
13879TIP3    H163128   3.246   3.409  11.889
13879TIP3    H263129   3.126   3.376  11.803
13880TIP3   OH263130   0.598   5.834  16.152
13880TIP3    H163131   0.648   5.825  16.071
13880TIP3    H263132   0.528   5.769  16.143
13881TIP3   OH263133   2.467   5.965  15.876
13881TIP3    H163134   2.462   6.052  15.838
13881TIP3    H263135   2.442   5.976  15.968
13882TIP3   OH263136   2.339   4.124  14.279
13882TIP3    H163137   2.246   4.145  14.284
13882TIP3    H263138   2.366   4.158  14.193
13883TIP3   OH263139   0.054   5.412  10.740
13883TIP3    H163140   0.059   5.482  10.806
13883TIP3    H263141  -0.039   5.409  10.716
13884TIP3   OH263142   4.119   6.632   4.078
13884TIP3    H163143   4.031   6.657   4.052
13884TIP3    H263144   4.135   6.682   4.159
13885TIP3   OH263145   4.595   5.454  13.801
13885TIP3    H163146   4.584   5.485  13.891
13885TIP3    H263147   4.689   5.434  13.794
13886TIP3   OH263148   4.774   3.265  15.212
13886TIP3    H163149   4.706   3.323  15.245
13886TIP3    H263150   4.830   3.248  15.288
13887TIP3   OH263151   6.144   0.421   5.688
13887TIP3    H163152   6.180   0.501   5.727
13887TIP3    H263153   6.126   0.446   5.597
13888TIP3   OH263154   1.117   5.768  17.113
13888TIP3    H163155   1.030   5.808  17.117
13888TIP3    H263156   1.106   5.683  17.156
13889TIP3   OH263157   6.015   4.209  17.007
13889TIP3    H163158   6.012   4.279  17.073
13889TIP3    H263159   6.092   4.230  16.954
13890TIP3   OH263160   2.956   1.669  15.763
13890TIP3    H163161   2.936   1.579  15.738
13890TIP3    H263162   2.883   1.720  15.730
13891TIP3   OH263163   0.047   2.459  16.394
13891TIP3    H163164   0.001   2.441  16.312
13891TIP3    H263165   0.134   2.488  16.366
13892TIP3   OH263166   4.942   5.783  13.618
13892TIP3    H163167   4.956   5.816  13.529
13892TIP3    H263168   4.943   5.862  13.673
13893TIP3   OH263169   5.043   1.231   0.896
13893TIP3    H163170   5.024   1.154   0.950
13893TIP3    H263171   4.958   1.276   0.890
13894TIP3   OH263172   3.202   1.709  16.355
13894TIP3    H163173   3.252   1.725  16.435
13894TIP3    H263174   3.179   1.796  16.322
13895TIP3   OH263175   3.894   2.428  16.426
13895TIP3    H163176   3.928   2.401  16.511
13895TIP3    H263177   3.948   2.502  16.401
13896TIP3   OH263178   6.110   4.796  14.196
13896TIP3    H163179   6.190   4.813  14.246
13896TIP3    H263180   6.048   4.763  14.261
13897TIP3   OH263181   2.942   4.124   6.102
13897TIP3    H163182   2.978   4.186   6.165
13897TIP3    H263183   2.944   4.170   6.018
13898TIP3   OH263184   0.891   0.052   7.115
13898TIP3    H163185   0.951   0.002   7.060
13898TIP3    H263186   0.808   0.003   7.112
13899TIP3   OH263187   6.430   4.570   0.536
13899TIP3    H163188   6.503   4.511   0.557
13899TIP3    H263189   6.379   4.522   0.471
13900TIP3   OH263190   1.590   0.105  16.359
13900TIP3    H163191   1.595   0.045  16.433
13900TIP3    H263192   1.678   0.108  16.323
13901TIP3   OH263193   3.350   3.279   2.224
13901TIP3    H163194   3.344   3.230   2.306
13901TIP3    H263195   3.444   3.283   2.205
13902TIP3   OH263196   6.372   0.118   3.068
13902TIP3    H163197   6.340   0.030   3.088
13902TIP3    H263198   6.342   0.172   3.141
13903TIP3   OH263199   0.697   4.024   5.453
13903TIP3    H163200   0.726   4.093   5.512
13903TIP3    H263201   0.775   3.972   5.436
13904TIP3   OH263202   1.682   1.835  14.722
13904TIP3    H163203   1.647   1.920  14.696
13904TIP3    H263204   1.777   1.845  14.715
13905TIP3   OH263205   2.384   1.666   4.614
13905TIP3    H163206   2.308   1.617   4.582
13905TIP3    H263207   2.371   1.670   4.709
13906TIP3   OH263208   6.812   6.262  11.605
13906TIP3    H163209   6.724   6.245  11.570
13906TIP3    H263210   6.845   6.335  11.552
13907TIP3   OH263211   5.334   5.008   3.546
13907TIP3    H163212   5.389   4.933   3.524
13907TIP3    H263213   5.346   5.069   3.473
13908TIP3   OH263214   0.897   2.387   2.803
13908TIP3    H163215   0.963   2.373   2.871
13908TIP3    H263216   0.847   2.463   2.834
13909TIP3   OH263217   5.276   1.280   4.805
13909TIP3    H163218   5.279   1.322   4.891
13909TIP3    H263219   5.197   1.315   4.764
13910TIP3   OH263220   1.097   5.404  16.920
13910TIP3    H163221   1.060   5.450  16.844
13910TIP3    H263222   1.091   5.311  16.897
13911TIP3   OH263223   5.731   4.677   5.337
13911TIP3    H163224   5.708   4.735   5.265
13911TIP3    H263225   5.792   4.614   5.298
13912TIP3   OH263226   2.756   2.550  16.079
13912TIP3    H163227   2.685   2.536  16.141
13912TIP3    H263228   2.714   2.581  15.999
13913TIP3   OH263229   5.145   0.263   1.700
13913TIP3    H163230   5.133   0.327   1.770
13913TIP3    H263231   5.239   0.259   1.687
13914TIP3   OH263232   2.449   3.582  14.254
13914TIP3    H163233   2.471   3.584  14.347
13914TIP3    H263234   2.436   3.674  14.230
13915TIP3   OH263235   5.044   2.885   3.828
13915TIP3    H163236   5.033   2.790   3.836
13915TIP3    H263237   5.126   2.904   3.873
13916TIP3   OH263238   5.808   6.088   2.581
13916TIP3    H163239   5.753   6.164   2.600
13916TIP3    H263240   5.882   6.123   2.531
13917TIP3   OH263241   1.116   5.156   1.684
13917TIP3    H163242   1.193   5.185   1.635
13917TIP3    H263243   1.104   5.065   1.660
13918TIP3   OH263244   2.429   1.208  14.020
13918TIP3    H163245   2.475   1.220  13.936
13918TIP3    H263246   2.425   1.296  14.057
13919TIP3   OH263247   3.137   1.666   4.626
13919TIP3    H163248   3.218   1.707   4.658
13919TIP3    H263249   3.166   1.594   4.571
13920TIP3   OH263250   1.489   2.425  16.992
13920TIP3    H163251   1.512   2.339  17.027
13920TIP3    H263252   1.568   2.479  17.005
13921TIP3   OH263253   6.769   0.419  16.778
13921TIP3    H163254   6.718   0.338  16.773
13921TIP3    H263255   6.704   0.488  16.786
13922TIP3   OH263256   2.821   0.035  11.085
13922TIP3    H163257   2.805  -0.021  11.161
13922TIP3    H263258   2.746   0.020  11.027
13923TIP3   OH263259   4.979   1.471   5.394
13923TIP3    H163260   4.933   1.547   5.431
13923TIP3    H263261   5.060   1.465   5.444
13924TIP3   OH263262   4.144   6.168   4.319
13924TIP3    H163263   4.119   6.261   4.325
13924TIP3    H263264   4.238   6.167   4.336
13925TIP3   OH263265   5.748   4.712  16.001
13925TIP3    H163266   5.734   4.720  15.907
13925TIP3    H263267   5.838   4.744  16.015
13926TIP3   OH263268   0.467   0.243  13.598
13926TIP3    H163269   0.460   0.322  13.546
13926TIP3    H263270   0.398   0.186  13.566
13927TIP3   OH263271   3.959   2.862   1.179
13927TIP3    H163272   3.977   2.863   1.273
13927TIP3    H263273   3.865   2.878   1.172
13928TIP3   OH263274   3.861   2.629  14.245
13928TIP3    H163275   3.774   2.656  14.216
13928TIP3    H263276   3.872   2.668  14.331
13929TIP3   OH263277   0.833   2.061  11.670
13929TIP3    H163278   0.794   2.080  11.756
13929TIP3    H263279   0.793   2.124  11.611
13930TIP3   OH263280   6.608   2.414   0.043
13930TIP3    H163281   6.680   2.385   0.099
13930TIP3    H263282   6.555   2.336   0.029
13931TIP3   OH263283   5.596   2.497  15.059
13931TIP3    H163284   5.522   2.557  15.074
13931TIP3    H263285   5.601   2.488  14.964
13932TIP3   OH263286   2.398   4.747   0.380
13932TIP3    H163287   2.460   4.713   0.316
13932TIP3    H263288   2.418   4.700   0.461
13933TIP3   OH263289   3.014   0.134  11.769
13933TIP3    H163290   2.929   0.147  11.811
13933TIP3    H263291   3.077   0.128  11.841
13934TIP3   OH263292   1.568   1.581   3.355
13934TIP3    H163293   1.638   1.606   3.295
13934TIP3    H263294   1.605   1.594   3.442
13935TIP3   OH263295   2.637   0.969  16.567
13935TIP3    H163296   2.729   0.984  16.547
13935TIP3    H263297   2.593   1.047  16.535
13936TIP3   OH263298   4.020   2.192  11.397
13936TIP3    H163299   4.046   2.274  11.355
13936TIP3    H263300   4.020   2.212  11.490
13937TIP3   OH263301   0.640   5.583   5.177
13937TIP3    H163302   0.723   5.625   5.199
13937TIP3    H263303   0.601   5.640   5.111
13938TIP3   OH263304   2.852   6.277   3.016
13938TIP3    H163305   2.919   6.236   2.961
13938TIP3    H263306   2.903   6.332   3.077
13939TIP3   OH263307   2.354   4.759   4.577
13939TIP3    H163308   2.271   4.775   4.620
13939TIP3    H263309   2.396   4.845   4.574
13940TIP3   OH263310   3.122   5.366  11.638
13940TIP3    H163311   3.119   5.276  11.606
13940TIP3    H263312   3.153   5.417  11.563
13941TIP3   OH263313   2.335   0.320  15.484
13941TIP3    H163314   2.308   0.410  15.501
13941TIP3    H263315   2.404   0.327  15.417
13942TIP3   OH263316   6.369   2.913   0.336
13942TIP3    H163317   6.275   2.930   0.331
13942TIP3    H263318   6.410   2.999   0.325
13943TIP3   OH263319   6.472   2.132   2.704
13943TIP3    H163320   6.522   2.161   2.628
13943TIP3    H263321   6.394   2.090   2.668
13944TIP3   OH263322   0.422   1.426  14.795
13944TIP3    H163323   0.448   1.381  14.715
13944TIP3    H263324   0.466   1.511  14.790
13945TIP3   OH263325   6.070   2.756   3.218
13945TIP3    H163326   5.987   2.766   3.264
13945TIP3    H263327   6.078   2.835   3.165
13946TIP3   OH263328   6.487   3.056   1.312
13946TIP3    H163329   6.556   3.122   1.326
13946TIP3    H263330   6.450   3.078   1.227
13947TIP3   OH263331   1.905   0.467   0.136
13947TIP3    H163332   1.934   0.552   0.101
13947TIP3    H263333   1.971   0.445   0.202
13948TIP3   OH263334   2.946   5.363  11.870
13948TIP3    H163335   3.024   5.388  11.820
13948TIP3    H263336   2.973   5.286  11.919
13949TIP3   OH263337   1.669   3.389  13.869
13949TIP3    H163338   1.756   3.403  13.832
13949TIP3    H263339   1.629   3.322  13.814
13950TIP3   OH263340   0.458   6.294  14.409
13950TIP3    H163341   0.542   6.282  14.364
13950TIP3    H263342   0.440   6.388  14.401
13951TIP3   OH263343   6.069   1.913   1.678
13951TIP3    H163344   6.094   1.859   1.603
13951TIP3    H263345   5.976   1.931   1.664
13952TIP3   OH263346   4.819   4.249   1.543
13952TIP3    H163347   4.828   4.229   1.450
13952TIP3    H263348   4.791   4.340   1.546
13953TIP3   OH263349   3.912   3.352  12.054
13953TIP3    H163350   3.986   3.292  12.062
13953TIP3    H263351   3.842   3.310  12.104
13954TIP3   OH263352   2.408   5.573   1.244
13954TIP3    H163353   2.435   5.663   1.261
13954TIP3    H263354   2.357   5.548   1.321
13955TIP3   OH263355   5.279   6.363   5.927
13955TIP3    H163356   5.308   6.344   5.838
13955TIP3    H263357   5.351   6.332   5.983
13956TIP3   OH263358   2.557   3.055  12.563
13956TIP3    H163359   2.552   3.066  12.468
13956TIP3    H263360   2.588   2.965  12.575
13957TIP3   OH263361   4.132   5.542  10.774
13957TIP3    H163362   4.120   5.450  10.797
13957TIP3    H263363   4.189   5.577  10.842
13958TIP3   OH263364   0.407   1.778   4.999
13958TIP3    H163365   0.380   1.698   4.953
13958TIP3    H263366   0.358   1.777   5.081
13959TIP3   OH263367   1.855   3.747   2.167
13959TIP3    H163368   1.941   3.713   2.191
13959TIP3    H263369   1.801   3.734   2.246
13960TIP3   OH263370   1.086   2.531   6.116
13960TIP3    H163371   1.181   2.547   6.112
13960TIP3    H263372   1.047   2.618   6.124
13961TIP3   OH263373   0.644   3.833  15.222
13961TIP3    H163374   0.718   3.879  15.261
13961TIP3    H263375   0.674   3.810  15.134
13962TIP3   OH263376   1.238   5.121   0.974
13962TIP3    H163377   1.260   5.055   0.908
13962TIP3    H263378   1.144   5.137   0.961
13963TIP3   OH263379   4.846   5.573  12.744
13963TIP3    H163380   4.888   5.628  12.810
13963TIP3    H263381   4.869   5.484  12.768
13964TIP3   OH263382   5.020   1.661  13.653
13964TIP3    H163383   4.949   1.597  13.652
13964TIP3    H263384   5.063   1.648  13.738
13965TIP3   OH263385   3.468   4.802  12.634
13965TIP3    H163386   3.528   4.802  12.709
13965TIP3    H263387   3.522   4.832  12.560
13966TIP3   OH263388   2.381   5.000  12.234
13966TIP3    H163389   2.465   5.039  12.261
13966TIP3    H263390   2.385   4.911  12.269
13967TIP3   OH263391   0.191   6.623  12.641
13967TIP3    H163392   0.216   6.561  12.572
13967TIP3    H263393   0.124   6.678  12.600
13968TIP3   OH263394   3.320   5.635   1.383
13968TIP3    H163395   3.354   5.547   1.368
13968TIP3    H263396   3.380   5.693   1.336
13969TIP3   OH263397   5.377   1.799  17.048
13969TIP3    H163398   5.296   1.848  17.067
13969TIP3    H263399   5.347   1.712  17.023
13970TIP3   OH263400   1.637   2.363  12.883
13970TIP3    H163401   1.662   2.452  12.859
13970TIP3    H263402   1.580   2.373  12.959
13971TIP3   OH263403   0.690   5.684  12.965
13971TIP3    H163404   0.731   5.648  12.886
13971TIP3    H263405   0.764   5.712  13.019
13972TIP3   OH263406   0.129   1.540  13.028
13972TIP3    H163407   0.192   1.555  12.957
13972TIP3    H263408   0.100   1.627  13.053
13973TIP3   OH263409   1.984   4.417  11.673
13973TIP3    H163410   1.992   4.429  11.578
13973TIP3    H263411   1.986   4.323  11.686
13974TIP3   OH263412   5.906   5.925   4.274
13974TIP3    H163413   5.821   5.969   4.271
13974TIP3    H263414   5.922   5.910   4.367
13975TIP3   OH263415   6.161   6.050  14.813
13975TIP3    H163416   6.087   6.062  14.753
13975TIP3    H263417   6.207   6.134  14.812
13976TIP3   OH263418   3.910   3.770  17.198
13976TIP3    H163419   3.854   3.775  17.276
13976TIP3    H263420   3.913   3.860  17.166
13977TIP3   OH263421   0.291   2.929   3.747
13977TIP3    H163422   0.320   2.946   3.836
13977TIP3    H263423   0.343   2.853   3.719
13978TIP3   OH263424   0.819   0.418   2.182
13978TIP3    H163425   0.831   0.337   2.231
13978TIP3    H263426   0.906   0.441   2.151
13979TIP3   OH263427   3.005   3.969   3.488
13979TIP3    H163428   2.976   4.038   3.548
13979TIP3    H263429   3.012   3.891   3.543
13980TIP3   OH263430   1.472   6.268   4.377
13980TIP3    H163431   1.525   6.203   4.424
13980TIP3    H263432   1.500   6.352   4.414
13981TIP3   OH263433   3.927   2.686   0.369
13981TIP3    H163434   4.023   2.681   0.362
13981TIP3    H263435   3.898   2.596   0.357
13982TIP3   OH263436   0.990   1.085   1.459
13982TIP3    H163437   0.966   1.016   1.522
13982TIP3    H263438   0.938   1.161   1.486
13983TIP3   OH263439   2.562   5.656   4.381
13983TIP3    H163440   2.568   5.580   4.324
13983TIP3    H263441   2.476   5.648   4.423
13984TIP3   OH263442   0.037   4.783   2.473
13984TIP3    H163443   0.087   4.747   2.400
13984TIP3    H263444   0.089   4.762   2.551
13985TIP3   OH263445   1.703   6.271  11.813
13985TIP3    H163446   1.629   6.255  11.754
13985TIP3    H263447   1.777   6.285  11.754
13986TIP3   OH263448   5.853   3.859  10.831
13986TIP3    H163449   5.829   3.947  10.859
13986TIP3    H263450   5.949   3.858  10.835
13987TIP3   OH263451   0.508   1.132  16.915
13987TIP3    H163452   0.509   1.049  16.868
13987TIP3    H263453   0.589   1.131  16.967
13988TIP3   OH263454   0.074   6.019   5.022
13988TIP3    H163455   0.160   5.997   4.988
13988TIP3    H263456   0.083   6.017   5.117
13989TIP3   OH263457   2.123   0.083   3.989
13989TIP3    H163458   2.128   0.140   4.066
13989TIP3    H263459   2.108   0.142   3.916
13990TIP3   OH263460   1.730   6.658  14.721
13990TIP3    H163461   1.702   6.641  14.810
13990TIP3    H263462   1.815   6.701  14.730
13991TIP3   OH263463   0.781   2.291  15.444
13991TIP3    H163464   0.843   2.243  15.389
13991TIP3    H263465   0.709   2.230  15.457
13992TIP3   OH263466   0.174   0.481  13.161
13992TIP3    H163467   0.245   0.507  13.103
13992TIP3    H263468   0.161   0.557  13.218
13993TIP3   OH263469   1.971   3.274  17.257
13993TIP3    H163470   1.924   3.194  17.277
13993TIP3    H263471   1.923   3.343  17.303
13994TIP3   OH263472   3.437   6.385   5.309
13994TIP3    H163473   3.507   6.447   5.326
13994TIP3    H263474   3.381   6.389   5.386
13995TIP3   OH263475   3.879   5.604  15.380
13995TIP3    H163476   3.945   5.623  15.312
13995TIP3    H263477   3.841   5.520  15.353
13996TIP3   OH263478   2.218   3.351  14.644
13996TIP3    H163479   2.172   3.408  14.705
13996TIP3    H263480   2.300   3.397  14.627
13997TIP3   OH263481   4.205   1.619   0.554
13997TIP3    H163482   4.151   1.674   0.498
13997TIP3    H263483   4.217   1.670   0.634
13998TIP3   OH263484   6.013   0.395   6.055
13998TIP3    H163485   6.071   0.471   6.049
13998TIP3    H263486   6.055   0.339   6.121
13999TIP3   OH263487   5.909   6.397   2.816
13999TIP3    H163488   5.893   6.349   2.734
13999TIP3    H263489   6.002   6.382   2.834
14000TIP3   OH263490   0.087   2.726   3.612
14000TIP3    H163491   0.126   2.660   3.555
14000TIP3    H263492   0.051   2.676   3.685
14001TIP3   OH263493   4.580   5.925   3.120
14001TIP3    H163494   4.548   5.846   3.075
14001TIP3    H263495   4.660   5.949   3.073
14002TIP3   OH263496   5.093   2.257  16.840
14002TIP3    H163497   5.038   2.286  16.913
14002TIP3    H263498   5.145   2.186  16.876
14003TIP3   OH263499   6.818   1.668  12.191
14003TIP3    H163500   6.865   1.733  12.140
14003TIP3    H263501   6.887   1.611  12.227
14004TIP3   OH263502   0.036   3.986  17.023
14004TIP3    H163503  -0.040   4.043  17.022
14004TIP3    H263504   0.074   3.998  17.110
14005TIP3   OH263505   1.610   5.243  16.727
14005TIP3    H163506   1.518   5.263  16.715
14005TIP3    H263507   1.630   5.181  16.657
14006TIP3   OH263508   2.328   0.404   5.913
14006TIP3    H163509   2.235   0.388   5.898
14006TIP3    H263510   2.358   0.448   5.833
14007TIP3   OH263511   3.851   6.731   4.709
14007TIP3    H163512   3.780   6.723   4.646
14007TIP3    H263513   3.901   6.807   4.680
14008TIP3   OH263514   6.783   5.260  15.877
14008TIP3    H163515   6.858   5.232  15.825
14008TIP3    H263516   6.722   5.186  15.871
14009TIP3   OH263517   2.914   1.538   1.337
14009TIP3    H163518   2.875   1.457   1.305
14009TIP3    H263519   2.864   1.607   1.292
14010TIP3   OH263520   4.583   2.893   4.882
14010TIP3    H163521   4.534   2.882   4.801
14010TIP3    H263522   4.666   2.848   4.866
14011TIP3   OH263523   4.192   3.363  12.231
14011TIP3    H163524   4.164   3.305  12.160
14011TIP3    H263525   4.246   3.308  12.288
14012TIP3   OH263526   5.483   2.448  14.058
14012TIP3    H163527   5.476   2.362  14.100
14012TIP3    H263528   5.479   2.428  13.964
14013TIP3   OH263529   4.050   2.769   3.369
14013TIP3    H163530   4.011   2.852   3.340
14013TIP3    H263531   4.050   2.776   3.465
14014TIP3   OH263532   3.857   6.039  11.693
14014TIP3    H163533   3.772   5.998  11.675
14014TIP3    H263534   3.834   6.121  11.737
14015TIP3   OH263535   4.355   6.323  11.146
14015TIP3    H163536   4.329   6.315  11.238
14015TIP3    H263537   4.274   6.306  11.098
14016TIP3   OH263538   2.226   4.286  11.140
14016TIP3    H163539   2.210   4.371  11.100
14016TIP3    H263540   2.317   4.289  11.168
14017TIP3   OH263541   3.042   6.715  14.414
14017TIP3    H163542   3.042   6.800  14.458
14017TIP3    H263543   3.135   6.694  14.403
14018TIP3   OH263544   4.277   4.366  12.385
14018TIP3    H163545   4.211   4.359  12.453
14018TIP3    H263546   4.347   4.417  12.425
14019TIP3   OH263547   5.682   4.744  16.790
14019TIP3    H163548   5.723   4.830  16.775
14019TIP3    H263549   5.602   4.764  16.838
14020TIP3   OH263550   3.490   1.454   2.493
14020TIP3    H163551   3.546   1.523   2.527
14020TIP3    H263552   3.483   1.391   2.565
14021TIP3   OH263553   5.544   0.914  13.382
14021TIP3    H163554   5.610   0.854  13.418
14021TIP3    H263555   5.587   1.000  13.385
14022TIP3   OH263556   3.759   0.913   1.473
14022TIP3    H163557   3.774   0.864   1.392
14022TIP3    H263558   3.827   0.980   1.473
14023TIP3   OH263559   2.979   0.294  13.144
14023TIP3    H163560   2.982   0.335  13.231
14023TIP3    H263561   2.966   0.201  13.162
14024TIP3   OH263562   0.307   3.312  14.488
14024TIP3    H163563   0.300   3.258  14.409
14024TIP3    H263564   0.399   3.338  14.491
14025TIP3   OH263565   1.913   6.424   3.122
14025TIP3    H163566   1.836   6.376   3.154
14025TIP3    H263567   1.911   6.507   3.170
14026TIP3   OH263568   3.184   4.546   1.934
14026TIP3    H163569   3.222   4.516   1.851
14026TIP3    H263570   3.112   4.485   1.951
14027TIP3   OH263571   0.395   2.311   3.220
14027TIP3    H163572   0.473   2.366   3.223
14027TIP3    H263573   0.325   2.369   3.192
14028TIP3   OH263574   0.994   3.292   2.759
14028TIP3    H163575   0.958   3.265   2.843
14028TIP3    H263576   0.928   3.265   2.694
14029TIP3   OH263577   3.523   0.233  11.384
14029TIP3    H163578   3.555   0.159  11.434
14029TIP3    H263579   3.583   0.240  11.310
14030TIP3   OH263580   2.146   1.791  12.394
14030TIP3    H163581   2.211   1.779  12.325
14030TIP3    H263582   2.119   1.703  12.419
14031TIP3   OH263583   1.419   0.236  15.234
14031TIP3    H163584   1.439   0.173  15.164
14031TIP3    H263585   1.465   0.202  15.310
14032TIP3   OH263586   1.044   5.747   4.977
14032TIP3    H163587   1.055   5.683   4.907
14032TIP3    H263588   1.029   5.830   4.932
14033TIP3   OH263589   6.204   1.399   4.920
14033TIP3    H163590   6.246   1.430   4.840
14033TIP3    H263591   6.125   1.451   4.928
14034TIP3   OH263592   2.137   1.661  12.094
14034TIP3    H163593   2.068   1.601  12.122
14034TIP3    H263594   2.146   1.645  12.000
14035TIP3   OH263595   0.436   6.653   1.496
14035TIP3    H163596   0.442   6.590   1.568
14035TIP3    H263597   0.343   6.659   1.478
14036TIP3   OH263598   2.848   2.884   4.223
14036TIP3    H163599   2.791   2.847   4.290
14036TIP3    H263600   2.813   2.851   4.140
14037TIP3   OH263601   1.587   4.629  14.132
14037TIP3    H163602   1.580   4.711  14.084
14037TIP3    H263603   1.497   4.598  14.139
14038TIP3   OH263604   0.988   3.171   1.584
14038TIP3    H163605   1.014   3.259   1.612
14038TIP3    H263606   0.906   3.154   1.629
14039TIP3   OH263607   0.773   2.409  16.650
14039TIP3    H163608   0.711   2.481  16.661
14039TIP3    H263609   0.783   2.372  16.738
14040TIP3   OH263610   2.532   3.499   1.021
14040TIP3    H163611   2.543   3.576   0.966
14040TIP3    H263612   2.487   3.532   1.099
14041TIP3   OH263613   3.707   3.727   1.496
14041TIP3    H163614   3.650   3.778   1.438
14041TIP3    H263615   3.676   3.749   1.584
14042TIP3   OH263616   1.404   1.575  11.787
14042TIP3    H163617   1.386   1.552  11.879
14042TIP3    H263618   1.453   1.499  11.753
14043TIP3   OH263619   0.405   5.574   0.386
14043TIP3    H163620   0.474   5.639   0.402
14043TIP3    H263621   0.433   5.496   0.434
14044TIP3   OH263622   2.995   3.036  13.553
14044TIP3    H163623   3.011   2.978  13.478
14044TIP3    H263624   3.081   3.066  13.579
14045TIP3   OH263625   2.305   3.824   4.878
14045TIP3    H163626   2.321   3.836   4.785
14045TIP3    H263627   2.382   3.778   4.911
14046TIP3   OH263628   1.056   4.163   0.111
14046TIP3    H163629   0.992   4.124   0.051
14046TIP3    H263630   1.044   4.115   0.193
14047TIP3   OH263631   2.355   1.617   3.858
14047TIP3    H163632   2.286   1.669   3.818
14047TIP3    H263633   2.348   1.635   3.952
14048TIP3   OH263634   6.460   4.729   1.270
14048TIP3    H163635   6.416   4.663   1.324
14048TIP3    H263636   6.457   4.693   1.181
14049TIP3   OH263637   4.348   2.777  10.886
14049TIP3    H163638   4.373   2.689  10.856
14049TIP3    H263639   4.254   2.783  10.867
14050TIP3   OH263640   2.898   6.002   0.056
14050TIP3    H163641   2.807   6.021   0.078
14050TIP3    H263642   2.892   5.945  -0.021
14051TIP3   OH263643   0.784   3.104  14.882
14051TIP3    H163644   0.799   3.191  14.845
14051TIP3    H263645   0.791   3.044  14.808
14052TIP3   OH263646   5.307   3.769  11.789
14052TIP3    H163647   5.306   3.853  11.743
14052TIP3    H263648   5.269   3.707  11.727
14053TIP3   OH263649   2.328   5.051  10.649
14053TIP3    H163650   2.276   5.129  10.631
14053TIP3    H263651   2.349   5.016  10.563
14054TIP3   OH263652   5.624   0.663   4.778
14054TIP3    H163653   5.617   0.656   4.873
14054TIP3    H263654   5.585   0.748   4.757
14055TIP3   OH263655   5.164   5.511   2.716
14055TIP3    H163656   5.096   5.579   2.716
14055TIP3    H263657   5.116   5.429   2.727
14056TIP3   OH263658   4.490   5.563  11.475
14056TIP3    H163659   4.457   5.520  11.553
14056TIP3    H263660   4.527   5.493  11.422
14057TIP3   OH263661   6.364   6.248  14.636
14057TIP3    H163662   6.402   6.264  14.549
14057TIP3    H263663   6.336   6.334  14.666
14058TIP3   OH263664   1.418   0.559   4.678
14058TIP3    H163665   1.406   0.654   4.681
14058TIP3    H263666   1.456   0.537   4.763
14059TIP3   OH263667   6.087   3.445  17.041
14059TIP3    H163668   6.170   3.433  17.087
14059TIP3    H263669   6.020   3.434  17.109
14060TIP3   OH263670   4.118   5.327  17.070
14060TIP3    H163671   4.059   5.322  17.145
14060TIP3    H263672   4.110   5.417  17.040
14061TIP3   OH263673   6.390   0.916   1.939
14061TIP3    H163674   6.439   0.985   1.893
14061TIP3    H263675   6.312   0.903   1.886
14062TIP3   OH263676   6.388   3.390   2.076
14062TIP3    H163677   6.479   3.394   2.107
14062TIP3    H263678   6.351   3.314   2.121
14063TIP3   OH263679   0.341   1.461  11.316
14063TIP3    H163680   0.295   1.495  11.393
14063TIP3    H263681   0.408   1.527  11.298
14064TIP3   OH263682   4.966   3.854  11.688
14064TIP3    H163683   4.973   3.782  11.751
14064TIP3    H263684   4.930   3.815  11.609
14065TIP3   OH263685   3.073   1.274  11.564
14065TIP3    H163686   3.071   1.332  11.488
14065TIP3    H263687   3.041   1.328  11.637
14066TIP3   OH263688   3.998   2.927  11.111
14066TIP3    H163689   3.934   2.860  11.089
14066TIP3    H263690   4.021   2.910  11.202
14067TIP3   OH263691   3.489   3.418   5.374
14067TIP3    H163692   3.468   3.466   5.454
14067TIP3    H263693   3.408   3.371   5.353
14068TIP3   OH263694   5.284   0.604  13.130
14068TIP3    H163695   5.340   0.558  13.067
14068TIP3    H263696   5.317   0.694  13.131
14069TIP3   OH263697   3.405   4.515  15.134
14069TIP3    H163698   3.354   4.440  15.167
14069TIP3    H263699   3.340   4.584  15.121
14070TIP3   OH263700   4.725   4.152  16.973
14070TIP3    H163701   4.708   4.093  17.046
14070TIP3    H263702   4.737   4.095  16.898
14071TIP3   OH263703   4.341   6.022   4.421
14071TIP3    H163704   4.429   6.024   4.383
14071TIP3    H263705   4.341   6.092   4.486
14072TIP3   OH263706   5.495   3.639   2.161
14072TIP3    H163707   5.469   3.550   2.137
14072TIP3    H263708   5.454   3.654   2.247
14073TIP3   OH263709   1.257   4.579  10.989
14073TIP3    H163710   1.216   4.494  10.972
14073TIP3    H263711   1.197   4.643  10.951
14074TIP3   OH263712   6.087   3.749  12.716
14074TIP3    H163713   6.002   3.749  12.671
14074TIP3    H263714   6.101   3.658  12.741
14075TIP3   OH263715   0.569   4.084   0.936
14075TIP3    H163716   0.644   4.117   0.985
14075TIP3    H263717   0.598   4.083   0.844
14076TIP3   OH263718   3.986   6.465  15.245
14076TIP3    H163719   3.945   6.484  15.161
14076TIP3    H263720   3.986   6.548  15.292
14077TIP3   OH263721   2.352   3.566  11.594
14077TIP3    H163722   2.402   3.613  11.660
14077TIP3    H263723   2.261   3.572  11.624
14078TIP3   OH263724   3.549   1.934   4.865
14078TIP3    H163725   3.533   2.028   4.862
14078TIP3    H263726   3.616   1.923   4.933
14079TIP3   OH263727   5.171   2.174   2.060
14079TIP3    H163728   5.093   2.143   2.013
14079TIP3    H263729   5.202   2.248   2.009
14080TIP3   OH263730   2.522   1.890  16.540
14080TIP3    H163731   2.512   1.795  16.543
14080TIP3    H263732   2.593   1.905  16.478
14081TIP3   OH263733   1.179   5.700  14.996
14081TIP3    H163734   1.117   5.770  15.016
14081TIP3    H263735   1.135   5.647  14.930
14082TIP3   OH263736   5.173   4.068  12.676
14082TIP3    H163737   5.081   4.040  12.680
14082TIP3    H263738   5.169   4.163  12.666
14083TIP3   OH263739   3.783   5.656  13.157
14083TIP3    H163740   3.732   5.596  13.211
14083TIP3    H263741   3.791   5.735  13.210
14084TIP3   OH263742   4.363   3.637   5.552
14084TIP3    H163743   4.372   3.621   5.458
14084TIP3    H263744   4.269   3.630   5.567
14085TIP3   OH263745   3.315   6.060   5.673
14085TIP3    H163746   3.333   6.022   5.759
14085TIP3    H263747   3.227   6.030   5.651
14086TIP3   OH263748   6.343   5.670   0.117
14086TIP3    H163749   6.365   5.583   0.150
14086TIP3    H263750   6.269   5.655   0.058
14087TIP3   OH263751   2.996   5.627   4.988
14087TIP3    H163752   2.920   5.676   5.020
14087TIP3    H263753   3.050   5.692   4.943
14088TIP3   OH263754   4.882   5.000   2.349
14088TIP3    H163755   4.865   4.921   2.297
14088TIP3    H263756   4.932   5.057   2.291
14089TIP3   OH263757   3.974   0.137   4.608
14089TIP3    H163758   3.908   0.187   4.656
14089TIP3    H263759   3.986   0.186   4.526
14090TIP3   OH263760   4.542   1.234   5.199
14090TIP3    H163761   4.523   1.252   5.291
14090TIP3    H263762   4.611   1.168   5.201
14091TIP3   OH263763   4.956   4.028  11.394
14091TIP3    H163764   4.933   4.120  11.412
14091TIP3    H263765   5.048   4.031  11.368
14092TIP3   OH263766   1.173   3.581  16.106
14092TIP3    H163767   1.199   3.503  16.057
14092TIP3    H263768   1.255   3.617  16.140
14093TIP3   OH263769   4.987   4.454   5.775
14093TIP3    H163770   4.995   4.416   5.687
14093TIP3    H263771   4.895   4.443   5.798
14094TIP3   OH263772   5.057   3.067   5.386
14094TIP3    H163773   5.098   3.016   5.457
14094TIP3    H263774   5.018   3.001   5.329
14095TIP3   OH263775   4.299   1.829  13.715
14095TIP3    H163776   4.217   1.780  13.709
14095TIP3    H263777   4.363   1.764  13.745
14096TIP3   OH263778   1.870   4.713  14.888
14096TIP3    H163779   1.860   4.698  14.794
14096TIP3    H263780   1.855   4.807  14.899
14097TIP3   OH263781   6.557   3.094   2.594
14097TIP3    H163782   6.538   3.187   2.609
14097TIP3    H263783   6.517   3.049   2.668
14098TIP3   OH263784   2.559   2.328   0.128
14098TIP3    H163785   2.544   2.374   0.211
14098TIP3    H263786   2.553   2.397   0.061
14099TIP3   OH263787   0.354   2.627  12.175
14099TIP3    H163788   0.417   2.572  12.128
14099TIP3    H263789   0.406   2.673  12.240
14100TIP3   OH263790   1.670   0.053  13.231
14100TIP3    H163791   1.667   0.075  13.138
14100TIP3    H263792   1.609  -0.020  13.241
14101TIP3   OH263793   4.265   0.075   0.311
14101TIP3    H163794   4.331   0.033   0.366
14101TIP3    H263795   4.199   0.107   0.373
14102TIP3   OH263796   2.028   4.283   1.037
14102TIP3    H163797   2.078   4.243   0.966
14102TIP3    H263798   2.038   4.221   1.110
14103TIP3   OH263799   3.474   2.020   1.259
14103TIP3    H163800   3.397   2.066   1.224
14103TIP3    H263801   3.545   2.083   1.254
14104TIP3   OH263802   4.044   2.234  12.134
14104TIP3    H163803   4.098   2.309  12.161
14104TIP3    H263804   3.975   2.230  12.200
14105TIP3   OH263805   3.456   2.048   6.113
14105TIP3    H163806   3.374   2.089   6.140
14105TIP3    H263807   3.439   1.954   6.120
14106TIP3   OH263808   1.352   1.980   6.022
14106TIP3    H163809   1.347   2.054   6.082
14106TIP3    H263810   1.408   1.916   6.066
14107TIP3   OH263811   2.729   5.873  16.054
14107TIP3    H163812   2.822   5.866  16.031
14107TIP3    H263813   2.690   5.925  15.983
14108TIP3   OH263814   4.907   2.322  11.392
14108TIP3    H163815   4.898   2.233  11.426
14108TIP3    H263816   4.953   2.312  11.308
14109TIP3   OH263817   4.331   3.520   6.023
14109TIP3    H163818   4.380   3.484   6.097
14109TIP3    H263819   4.383   3.498   5.946
14110TIP3   OH263820   1.533   0.201   6.492
14110TIP3    H163821   1.498   0.141   6.557
14110TIP3    H263822   1.466   0.269   6.484
14111TIP3   OH263823   5.325   3.489   1.714
14111TIP3    H163824   5.251   3.535   1.675
14111TIP3    H263825   5.313   3.398   1.689
14112TIP3   OH263826   2.820   3.035   2.268
14112TIP3    H163827   2.759   3.063   2.200
14112TIP3    H263828   2.766   2.987   2.331
14113TIP3   OH263829   1.518   2.814  13.760
14113TIP3    H163830   1.548   2.775  13.678
14113TIP3    H263831   1.591   2.870  13.788
14114TIP3   OH263832   1.388   6.423  14.389
14114TIP3    H163833   1.463   6.479  14.407
14114TIP3    H263834   1.368   6.382  14.473
14115TIP3   OH263835   1.940   0.923   1.860
14115TIP3    H163836   1.879   0.867   1.812
14115TIP3    H263837   1.937   1.007   1.814
14116TIP3   OH263838   6.183   5.386  15.860
14116TIP3    H163839   6.227   5.301  15.862
14116TIP3    H263840   6.254   5.449  15.844
14117TIP3   OH263841   5.514   3.133  16.924
14117TIP3    H163842   5.604   3.105  16.908
14117TIP3    H263843   5.494   3.191  16.850
14118TIP3   OH263844   3.252   3.091   3.594
14118TIP3    H163845   3.227   3.095   3.502
14118TIP3    H263846   3.240   3.180   3.626
14119TIP3   OH263847   1.417   2.111  13.045
14119TIP3    H163848   1.484   2.066  13.097
14119TIP3    H263849   1.432   2.204  13.063
14120TIP3   OH263850   5.881   1.823  11.233
14120TIP3    H163851   5.828   1.780  11.166
14120TIP3    H263852   5.922   1.896  11.187
14121TIP3   OH263853   0.547   4.705   0.026
14121TIP3    H163854   0.602   4.729  -0.048
14121TIP3    H263855   0.463   4.747   0.008
14122TIP3   OH263856   4.787   4.705   2.489
14122TIP3    H163857   4.745   4.621   2.507
14122TIP3    H263858   4.877   4.694   2.522
14123TIP3   OH263859   3.193   5.015  15.095
14123TIP3    H163860   3.169   5.098  15.054
14123TIP3    H263861   3.240   4.966  15.027
14124TIP3   OH263862   5.929   0.981   4.796
14124TIP3    H163863   5.914   0.961   4.703
14124TIP3    H263864   6.017   1.019   4.798
14125TIP3   OH263865   2.100   5.957  17.032
14125TIP3    H163866   2.067   5.881  16.984
14125TIP3    H263867   2.053   6.031  16.994
14126TIP3   OH263868   2.881   5.039   2.059
14126TIP3    H163869   2.857   4.995   1.977
14126TIP3    H263870   2.830   5.120   2.058
14127TIP3   OH263871   4.883   1.836  14.867
14127TIP3    H163872   4.924   1.891  14.933
14127TIP3    H263873   4.802   1.882  14.844
14128TIP3   OH263874   3.106   5.430   5.840
14128TIP3    H163875   3.051   5.366   5.885
14128TIP3    H263876   3.079   5.426   5.749
14129TIP3   OH263877   5.942   2.055  17.288
14129TIP3    H163878   5.896   1.971  17.287
14129TIP3    H263879   5.971   2.068  17.197
14130TIP3   OH263880   0.250   1.587  12.235
14130TIP3    H163881   0.329   1.540  12.263
14130TIP3    H263882   0.270   1.615  12.145
14131TIP3   OH263883   5.302   3.758   1.831
14131TIP3    H163884   5.311   3.664   1.843
14131TIP3    H263885   5.384   3.795   1.865
14132TIP3   OH263886   2.378   3.936   2.387
14132TIP3    H163887   2.473   3.947   2.384
14132TIP3    H263888   2.352   3.932   2.294
14133TIP3   OH263889   4.934   5.613  13.912
14133TIP3    H163890   4.882   5.534  13.899
14133TIP3    H263891   4.922   5.662  13.830
14134TIP3   OH263892   3.960   4.326   2.748
14134TIP3    H163893   3.972   4.420   2.734
14134TIP3    H263894   3.873   4.318   2.787
14135TIP3   OH263895   1.217   0.676  11.689
14135TIP3    H163896   1.197   0.603  11.747
14135TIP3    H263897   1.159   0.747  11.718
14136TIP3   OH263898   0.872   1.661  12.216
14136TIP3    H163899   0.942   1.628  12.159
14136TIP3    H263900   0.851   1.586  12.272
14137TIP3   OH263901   1.261   3.176  12.077
14137TIP3    H163902   1.281   3.157  12.168
14137TIP3    H263903   1.183   3.231  12.081
14138TIP3   OH263904   5.252   6.571  14.379
14138TIP3    H163905   5.306   6.498  14.349
14138TIP3    H263906   5.178   6.573  14.317
14139TIP3   OH263907   2.561   5.763   5.585
14139TIP3    H163908   2.633   5.768   5.523
14139TIP3    H263909   2.554   5.670   5.606
14140TIP3   OH263910   2.591   0.853  17.062
14140TIP3    H163911   2.546   0.903  17.130
14140TIP3    H263912   2.536   0.862  16.985
14141TIP3   OH263913   2.863   4.291  15.394
14141TIP3    H163914   2.779   4.332  15.417
14141TIP3    H263915   2.907   4.357  15.340
14142TIP3   OH263916   3.163   2.418   2.076
14142TIP3    H163917   3.184   2.512   2.079
14142TIP3    H263918   3.069   2.414   2.094
14143TIP3   OH263919   1.330   5.851   2.578
14143TIP3    H163920   1.310   5.929   2.527
14143TIP3    H263921   1.290   5.779   2.529
14144TIP3   OH263922   2.575   4.634   1.003
14144TIP3    H163923   2.657   4.683   1.005
14144TIP3    H263924   2.585   4.574   0.929
14145TIP3   OH263925   6.021   2.422   0.799
14145TIP3    H163926   6.047   2.513   0.818
14145TIP3    H263927   6.095   2.386   0.750
14146TIP3   OH263928   1.292   1.034  14.290
14146TIP3    H163929   1.202   1.063  14.303
14146TIP3    H263930   1.342   1.077  14.360
14147TIP3   OH263931   5.713   2.801  10.671
14147TIP3    H163932   5.708   2.724  10.728
14147TIP3    H263933   5.626   2.808  10.632
14148TIP3   OH263934   1.261   5.793   1.121
14148TIP3    H163935   1.323   5.836   1.179
14148TIP3    H263936   1.266   5.843   1.039
14149TIP3   OH263937   3.213   4.175  10.686
14149TIP3    H163938   3.200   4.263  10.720
14149TIP3    H263939   3.139   4.125  10.720
14150TIP3   OH263940   2.832   5.590  10.971
14150TIP3    H163941   2.896   5.525  10.998
14150TIP3    H263942   2.832   5.587  10.876
14151TIP3   OH263943   1.241   3.476   3.267
14151TIP3    H163944   1.319   3.525   3.295
14151TIP3    H263945   1.256   3.387   3.298
14152TIP3   OH263946   5.273   5.294   0.408
14152TIP3    H163947   5.190   5.258   0.377
14152TIP3    H263948   5.247   5.365   0.468
14153TIP3   OH263949   5.425   3.019  11.283
14153TIP3    H163950   5.420   3.113  11.267
14153TIP3    H263951   5.498   2.989  11.229
14154TIP3   OH263952   4.746   2.313   3.510
14154TIP3    H163953   4.726   2.406   3.512
14154TIP3    H263954   4.660   2.271   3.498
14155TIP3   OH263955   4.117   0.034  11.060
14155TIP3    H163956   4.163   0.103  11.011
14155TIP3    H263957   4.044   0.080  11.103
14156TIP3   OH263958   6.295   2.045  17.120
14156TIP3    H163959   6.201   2.034  17.106
14156TIP3    H263960   6.336   1.979  17.064
14157TIP3   OH263961   4.604   4.471  16.176
14157TIP3    H163962   4.688   4.486  16.133
14157TIP3    H263963   4.606   4.379  16.201
14158TIP3   OH263964   1.965   0.070   6.029
14158TIP3    H163965   1.887   0.018   6.014
14158TIP3    H263966   1.942   0.128   6.102
14159TIP3   OH263967   5.881   1.512   1.987
14159TIP3    H163968   5.973   1.538   1.987
14159TIP3    H263969   5.837   1.577   2.042
14160TIP3   OH263970   3.258   0.941   1.979
14160TIP3    H163971   3.238   1.022   2.025
14160TIP3    H263972   3.304   0.888   2.043
14161TIP3   OH263973   2.196   4.462   3.235
14161TIP3    H163974   2.190   4.504   3.321
14161TIP3    H263975   2.212   4.370   3.255
14162TIP3   OH263976   2.283   3.710   0.264
14162TIP3    H163977   2.221   3.778   0.237
14162TIP3    H263978   2.341   3.698   0.188
14163TIP3   OH263979   6.525   1.282  12.078
14163TIP3    H163980   6.577   1.285  12.159
14163TIP3    H263981   6.435   1.291  12.107
14164TIP3   OH263982   2.626   0.926   4.112
14164TIP3    H163983   2.532   0.915   4.127
14164TIP3    H263984   2.655   0.986   4.181
14165TIP3   OH263985   0.053   2.636  11.177
14165TIP3    H163986  -0.024   2.691  11.161
14165TIP3    H263987   0.115   2.694  11.223
14166TIP3   OH263988   3.343   6.795   1.588
14166TIP3    H163989   3.249   6.775   1.582
14166TIP3    H263990   3.358   6.812   1.680
14167TIP3   OH263991   2.202   0.338  13.160
14167TIP3    H163992   2.236   0.420  13.125
14167TIP3    H263993   2.257   0.270  13.120
14168TIP3   OH263994   2.303   3.113   0.189
14168TIP3    H163995   2.212   3.101   0.165
14168TIP3    H263996   2.339   3.171   0.122
14169TIP3   OH263997   5.690   3.475  12.676
14169TIP3    H163998   5.731   3.532  12.611
14169TIP3    H263999   5.707   3.519  12.760
14170TIP3   OH264000   6.714   3.716  14.135
14170TIP3    H164001   6.637   3.762  14.169
14170TIP3    H264002   6.722   3.746  14.045
14171TIP3   OH264003   4.053   2.079   2.598
14171TIP3    H164004   4.059   1.984   2.595
14171TIP3    H264005   3.968   2.096   2.639
14172TIP3   OH264006   0.144   5.958   1.644
14172TIP3    H164007   0.144   5.990   1.735
14172TIP3    H264008   0.065   5.995   1.606
14173TIP3   OH264009   5.165   4.043   2.582
14173TIP3    H164010   5.198   3.987   2.652
14173TIP3    H264011   5.232   4.037   2.514
14174TIP3   OH264012   5.301   4.221   2.738
14174TIP3    H164013   5.253   4.154   2.690
14174TIP3    H264014   5.311   4.293   2.676
14175TIP3   OH264015   4.546   0.986   6.399
14175TIP3    H164016   4.486   1.056   6.374
14175TIP3    H264017   4.613   1.029   6.453
14176TIP3   OH264018   5.397   4.382  13.363
14176TIP3    H164019   5.338   4.442  13.409
14176TIP3    H264020   5.339   4.316  13.325
14177TIP3   OH264021   5.478   4.807  16.035
14177TIP3    H164022   5.558   4.755  16.021
14177TIP3    H264023   5.461   4.849  15.950
14178TIP3   OH264024   5.351   0.064  12.314
14178TIP3    H164025   5.370   0.152  12.284
14178TIP3    H264026   5.352   0.011  12.235
14179TIP3   OH264027   1.808   5.835   3.112
14179TIP3    H164028   1.793   5.804   3.022
14179TIP3    H264029   1.723   5.822   3.156
14180TIP3   OH264030   5.517   5.332  15.547
14180TIP3    H164031   5.526   5.364  15.637
14180TIP3    H264032   5.583   5.263  15.539
14181TIP3   OH264033   3.174   4.193  16.276
14181TIP3    H164034   3.171   4.237  16.361
14181TIP3    H264035   3.264   4.163  16.268
14182TIP3   OH264036   0.034   4.507  10.707
14182TIP3    H164037   0.114   4.476  10.748
14182TIP3    H264038   0.007   4.582  10.759
14183TIP3   OH264039   4.032   0.686  14.263
14183TIP3    H164040   3.965   0.676  14.195
14183TIP3    H264041   3.984   0.677  14.345
14184TIP3   OH264042   6.678   3.538  11.791
14184TIP3    H164043   6.756   3.581  11.756
14184TIP3    H264044   6.662   3.465  11.732
14185TIP3   OH264045   1.677   4.900   0.511
14185TIP3    H164046   1.634   4.829   0.558
14185TIP3    H264047   1.748   4.927   0.569
14186TIP3   OH264048   4.647   0.415   1.970
14186TIP3    H164049   4.677   0.482   1.909
14186TIP3    H264050   4.553   0.429   1.978
14187TIP3   OH264051   1.039   5.090  14.787
14187TIP3    H164052   0.982   5.166  14.784
14187TIP3    H264053   1.118   5.117  14.739
14188TIP3   OH264054   6.510   1.050   5.009
14188TIP3    H164055   6.415   1.043   5.002
14188TIP3    H264056   6.533   0.998   5.085
14189TIP3   OH264057   6.704   2.907   2.739
14189TIP3    H164058   6.678   2.975   2.676
14189TIP3    H264059   6.744   2.839   2.685
14190TIP3   OH264060   3.618   4.893   4.272
14190TIP3    H164061   3.698   4.940   4.294
14190TIP3    H264062   3.645   4.828   4.207
14191TIP3   OH264063   2.382   6.707  11.609
14191TIP3    H164064   2.452   6.654  11.571
14191TIP3    H264065   2.302   6.671  11.573
14192TIP3   OH264066   6.174   5.481   3.455
14192TIP3    H164067   6.178   5.466   3.550
14192TIP3    H264068   6.264   5.500   3.430
14193TIP3   OH264069   4.112   5.865   0.161
14193TIP3    H164070   4.083   5.946   0.203
14193TIP3    H264071   4.207   5.872   0.156
14194TIP3   OH264072   5.025   0.885  11.275
14194TIP3    H164073   5.008   0.952  11.341
14194TIP3    H264074   5.022   0.802  11.324
14195TIP3   OH264075   1.653   1.360  15.642
14195TIP3    H164076   1.681   1.444  15.678
14195TIP3    H264077   1.572   1.379  15.595
14196TIP3   OH264078   4.776   0.636  11.512
14196TIP3    H164079   4.715   0.563  11.501
14196TIP3    H264080   4.862   0.600  11.489
14197TIP3   OH264081   0.168   6.385   0.350
14197TIP3    H164082   0.078   6.385   0.320
14197TIP3    H264083   0.208   6.461   0.307
14198TIP3   OH264084   5.556   2.779   3.900
14198TIP3    H164085   5.651   2.770   3.905
14198TIP3    H264086   5.541   2.850   3.838
14199TIP3   OH264087   4.069   0.469   0.650
14199TIP3    H164088   4.051   0.498   0.560
14199TIP3    H264089   3.982   0.462   0.690
14200TIP3   OH264090   2.120   4.959   0.926
14200TIP3    H164091   2.210   4.941   0.953
14200TIP3    H264092   2.127   5.030   0.862
14201TIP3   OH264093   5.051   1.763   6.301
14201TIP3    H164094   5.099   1.843   6.281
14201TIP3    H264095   4.998   1.786   6.377
14202TIP3   OH264096   5.216   2.326   3.565
14202TIP3    H164097   5.141   2.323   3.507
14202TIP3    H264098   5.179   2.342   3.652
14203TIP3   OH264099   3.959   1.929  11.608
14203TIP3    H164100   3.947   1.949  11.515
14203TIP3    H264101   3.869   1.923  11.642
14204TIP3   OH264102   5.557   1.554   2.544
14204TIP3    H164103   5.518   1.573   2.459
14204TIP3    H264104   5.636   1.505   2.525
14205TIP3   OH264105   3.552   3.433  12.778
14205TIP3    H164106   3.634   3.409  12.821
14205TIP3    H264107   3.561   3.399  12.689
14206TIP3   OH264108   2.979   0.129  16.502
14206TIP3    H164109   2.914   0.197  16.516
14206TIP3    H264110   2.968   0.070  16.577
14207TIP3   OH264111   6.418   2.391  15.875
14207TIP3    H164112   6.360   2.460  15.842
14207TIP3    H264113   6.361   2.313  15.881
14208TIP3   OH264114   3.349   2.815  10.467
14208TIP3    H164115   3.320   2.896  10.509
14208TIP3    H264116   3.299   2.810  10.385
14209TIP3   OH264117   3.499   2.261  16.481
14209TIP3    H164118   3.411   2.288  16.506
14209TIP3    H264119   3.554   2.282  16.557
14210TIP3   OH264120   3.559   2.155   1.872
14210TIP3    H164121   3.560   2.225   1.937
14210TIP3    H264122   3.487   2.177   1.814
14211TIP3   OH264123   5.443   3.230  14.657
14211TIP3    H164124   5.432   3.161  14.591
14211TIP3    H264125   5.455   3.182  14.739
14212TIP3   OH264126   3.681   5.961   3.682
14212TIP3    H164127   3.676   5.871   3.648
14212TIP3    H264128   3.600   6.002   3.652
14213TIP3   OH264129   0.353   0.441   0.117
14213TIP3    H164130   0.311   0.493   0.048
14213TIP3    H264131   0.388   0.364   0.071
14214TIP3   OH264132   2.552   4.777   1.270
14214TIP3    H164133   2.467   4.781   1.226
14214TIP3    H264134   2.564   4.864   1.308
14215TIP3   OH264135   3.716   0.833  13.639
14215TIP3    H164136   3.806   0.825  13.669
14215TIP3    H264137   3.724   0.874  13.552
14216TIP3   OH264138   2.461   5.011   4.548
14216TIP3    H164139   2.533   5.075   4.546
14216TIP3    H264140   2.397   5.045   4.486
14217TIP3   OH264141   2.471   6.049   2.066
14217TIP3    H164142   2.481   6.111   2.137
14217TIP3    H264143   2.453   5.965   2.109
14218TIP3   OH264144   4.425   2.383   5.125
14218TIP3    H164145   4.440   2.465   5.171
14218TIP3    H264146   4.446   2.402   5.034
14219TIP3   OH264147   1.162   0.180   0.999
14219TIP3    H164148   1.076   0.190   1.039
14219TIP3    H264149   1.152   0.215   0.911
14220TIP3   OH264150   0.509   4.963  13.728
14220TIP3    H164151   0.592   4.988  13.766
14220TIP3    H264152   0.514   4.868  13.720
14221TIP3   OH264153   5.378   0.943  11.846
14221TIP3    H164154   5.415   1.004  11.909
14221TIP3    H264155   5.359   0.997  11.769
14222TIP3   OH264156   3.041   0.914   5.540
14222TIP3    H164157   2.998   0.922   5.455
14222TIP3    H264158   3.081   0.827   5.538
14223TIP3   OH264159   3.306   3.535   2.251
14223TIP3    H164160   3.324   3.448   2.218
14223TIP3    H264161   3.232   3.524   2.312
14224TIP3   OH264162   1.316   6.356  15.126
14224TIP3    H164163   1.257   6.329  15.056
14224TIP3    H264164   1.258   6.393  15.193
14225TIP3   OH264165   6.257   0.736  12.139
14225TIP3    H164166   6.266   0.654  12.090
14225TIP3    H264167   6.275   0.805  12.076
14226TIP3   OH264168   0.463   2.324   4.809
14226TIP3    H164169   0.372   2.331   4.837
14226TIP3    H264170   0.458   2.309   4.715
14227TIP3   OH264171   3.769   1.292   1.222
14227TIP3    H164172   3.782   1.354   1.295
14227TIP3    H264173   3.686   1.249   1.243
14228TIP3   OH264174   3.526   0.460   2.316
14228TIP3    H164175   3.485   0.500   2.393
14228TIP3    H264176   3.620   0.473   2.330
14229TIP3   OH264177   0.345   4.421   2.137
14229TIP3    H164178   0.374   4.398   2.225
14229TIP3    H264179   0.357   4.341   2.086
14230TIP3   OH264180   5.871   1.206   2.021
14230TIP3    H164181   5.858   1.140   2.089
14230TIP3    H264182   5.835   1.287   2.057
14231TIP3   OH264183   3.112   6.432  17.193
14231TIP3    H164184   3.109   6.351  17.245
14231TIP3    H264185   3.126   6.501  17.257
14232TIP3   OH264186   1.839   6.608   5.148
14232TIP3    H164187   1.889   6.539   5.190
14232TIP3    H264188   1.850   6.592   5.054
14233TIP3   OH264189   2.289   3.146   4.057
14233TIP3    H164190   2.321   3.056   4.049
14233TIP3    H264191   2.241   3.147   4.140
14234TIP3   OH264192   1.366   1.902  15.215
14234TIP3    H164193   1.406   1.988  15.203
14234TIP3    H264194   1.275   1.921  15.240
14235TIP3   OH264195   4.456   4.548  12.172
14235TIP3    H164196   4.520   4.537  12.102
14235TIP3    H264197   4.440   4.460  12.205
14236TIP3   OH264198   5.400   0.318  14.653
14236TIP3    H164199   5.483   0.315  14.605
14236TIP3    H264200   5.399   0.237  14.703
14237TIP3   OH264201   1.267   2.982   0.140
14237TIP3    H164202   1.186   3.010   0.182
14237TIP3    H264203   1.331   3.050   0.163
14238TIP3   OH264204   2.282   1.085   1.642
14238TIP3    H164205   2.339   1.149   1.600
14238TIP3    H264206   2.204   1.135   1.667
14239TIP3   OH264207   4.510   1.196  12.988
14239TIP3    H164208   4.449   1.155  13.048
14239TIP3    H264209   4.552   1.123  12.942
14240TIP3   OH264210   5.878   0.440   3.600
14240TIP3    H164211   5.942   0.512   3.600
14240TIP3    H264212   5.901   0.389   3.522
14241TIP3   OH264213   0.981   5.261  13.817
14241TIP3    H164214   0.932   5.302  13.746
14241TIP3    H264215   0.929   5.184  13.841
14242TIP3   OH264216   1.867   0.798   2.101
14242TIP3    H164217   1.889   0.878   2.053
14242TIP3    H264218   1.772   0.791   2.093
14243TIP3   OH264219   4.928   3.645   4.103
14243TIP3    H164220   4.969   3.729   4.082
14243TIP3    H264221   4.937   3.593   4.023
14244TIP3   OH264222   3.425   6.031  15.273
14244TIP3    H164223   3.444   6.020  15.366
14244TIP3    H264224   3.391   5.946  15.245
14245TIP3   OH264225   1.776   3.073   5.556
14245TIP3    H164226   1.792   2.988   5.598
14245TIP3    H264227   1.858   3.121   5.567
14246TIP3   OH264228   5.988   6.237  11.436
14246TIP3    H164229   5.913   6.179  11.423
14246TIP3    H264230   6.063   6.189  11.400
14247TIP3   OH264231   0.587   6.660  12.371
14247TIP3    H164232   0.558   6.657  12.462
14247TIP3    H264233   0.624   6.748  12.360
14248TIP3   OH264234   1.926   6.455  14.586
14248TIP3    H164235   1.881   6.516  14.644
14248TIP3    H264236   2.014   6.446  14.623
14249TIP3   OH264237   4.215   0.299  15.498
14249TIP3    H164238   4.139   0.300  15.557
14249TIP3    H264239   4.270   0.228  15.533
14250TIP3   OH264240   5.491   1.228   2.529
14250TIP3    H164241   5.423   1.282   2.569
14250TIP3    H264242   5.477   1.236   2.435
14251TIP3   OH264243   4.112   4.861   1.395
14251TIP3    H164244   4.109   4.766   1.382
14251TIP3    H264245   4.030   4.882   1.440
14252TIP3   OH264246   3.901   2.660  13.825
14252TIP3    H164247   3.968   2.727  13.809
14252TIP3    H264248   3.943   2.599  13.886
14253TIP3   OH264249   5.324   5.833  12.386
14253TIP3    H164250   5.320   5.779  12.465
14253TIP3    H264251   5.242   5.882  12.386
14254TIP3   OH264252   3.598   6.819  15.504
14254TIP3    H164253   3.559   6.838  15.589
14254TIP3    H264254   3.690   6.843  15.514
14255TIP3   OH264255   3.961   2.436  14.059
14255TIP3    H164256   4.004   2.516  14.087
14255TIP3    H264257   3.980   2.373  14.128
14256TIP3   OH264258   4.216   5.268  16.133
14256TIP3    H164259   4.161   5.289  16.208
14256TIP3    H264260   4.291   5.221  16.171
14257TIP3   OH264261   4.573   2.757  14.560
14257TIP3    H164262   4.560   2.851  14.546
14257TIP3    H264263   4.651   2.736  14.509
14258TIP3   OH264264   5.494   1.918  15.790
14258TIP3    H164265   5.497   1.862  15.867
14258TIP3    H264266   5.525   2.003  15.821
14259TIP3   OH264267   5.289   3.318   3.571
14259TIP3    H164268   5.317   3.405   3.597
14259TIP3    H264269   5.349   3.259   3.616
14260TIP3   OH264270   1.836   2.590  14.498
14260TIP3    H164271   1.759   2.575  14.443
14260TIP3    H264272   1.807   2.563  14.586
14261TIP3   OH264273   2.426   5.949  13.711
14261TIP3    H164274   2.388   6.019  13.763
14261TIP3    H264275   2.485   5.904  13.772
14262TIP3   OH264276   0.653   3.810   3.095
14262TIP3    H164277   0.731   3.797   3.040
14262TIP3    H264278   0.598   3.734   3.078
14263TIP3   OH264279   1.344   3.735  14.882
14263TIP3    H164280   1.319   3.787  14.806
14263TIP3    H264281   1.401   3.793  14.933
14264TIP3   OH264282   4.968   1.083   5.616
14264TIP3    H164283   4.982   0.990   5.599
14264TIP3    H264284   4.999   1.127   5.537
14265TIP3   OH264285   1.894   0.195  12.376
14265TIP3    H164286   1.958   0.266  12.382
14265TIP3    H264287   1.919   0.134  12.445
14266TIP3   OH264288   0.854   1.697   1.618
14266TIP3    H164289   0.927   1.745   1.659
14266TIP3    H264290   0.895   1.651   1.545
14267TIP3   OH264291   1.852   5.176  11.679
14267TIP3    H164292   1.915   5.221  11.735
14267TIP3    H264293   1.903   5.148  11.603
14268TIP3   OH264294   1.424   5.201   4.301
14268TIP3    H164295   1.492   5.179   4.237
14268TIP3    H264296   1.351   5.234   4.248
14269TIP3   OH264297   1.993   4.552  16.168
14269TIP3    H164298   1.996   4.615  16.097
14269TIP3    H264299   1.951   4.599  16.240
14270TIP3   OH264300   6.616   6.501  11.763
14270TIP3    H164301   6.547   6.539  11.818
14270TIP3    H264302   6.606   6.544  11.678
14271TIP3   OH264303   6.514   1.886  15.960
14271TIP3    H164304   6.424   1.861  15.939
14271TIP3    H264305   6.562   1.803  15.960
14272TIP3   OH264306   3.155   1.353   5.522
14272TIP3    H164307   3.247   1.326   5.517
14272TIP3    H264308   3.154   1.425   5.584
14273TIP3   OH264309   4.875   4.478  13.368
14273TIP3    H164310   4.970   4.468  13.377
14273TIP3    H264311   4.841   4.467  13.457
14274TIP3   OH264312   6.477   3.221   4.462
14274TIP3    H164313   6.570   3.199   4.455
14274TIP3    H264314   6.475   3.317   4.457
14275TIP3   OH264315   6.066   2.462   0.374
14275TIP3    H164316   6.086   2.371   0.355
14275TIP3    H264317   6.148   2.509   0.360
14276TIP3   OH264318   3.636   0.818   0.469
14276TIP3    H164319   3.599   0.729   0.470
14276TIP3    H264320   3.608   0.854   0.385
14277TIP3   OH264321   0.169   2.352   0.765
14277TIP3    H164322   0.120   2.292   0.709
14277TIP3    H264323   0.259   2.346   0.734
14278TIP3   OH264324   2.037   1.159   3.191
14278TIP3    H164325   2.110   1.170   3.251
14278TIP3    H264326   2.028   1.243   3.148
14279TIP3   OH264327   3.643   1.199  14.166
14279TIP3    H164328   3.613   1.241  14.086
14279TIP3    H264329   3.568   1.204  14.226
14280TIP3   OH264330   4.223   1.166   4.340
14280TIP3    H164331   4.256   1.178   4.429
14280TIP3    H264332   4.138   1.211   4.340
14281TIP3   OH264333   3.631   0.172  13.512
14281TIP3    H164334   3.636   0.106  13.442
14281TIP3    H264335   3.538   0.175  13.535
14282TIP3   OH264336   6.371   1.882  15.105
14282TIP3    H164337   6.339   1.923  15.185
14282TIP3    H264338   6.457   1.922  15.090
14283TIP3   OH264339   3.065   2.207  11.605
14283TIP3    H164340   3.065   2.286  11.552
14283TIP3    H264341   3.016   2.230  11.684
14284TIP3   OH264342   2.489   4.837   2.712
14284TIP3    H164343   2.407   4.854   2.758
14284TIP3    H264344   2.469   4.853   2.620
14285TIP3   OH264345   2.245   0.920  15.887
14285TIP3    H164346   2.214   1.002  15.926
14285TIP3    H264347   2.272   0.867  15.962
14286TIP3   OH264348   4.119   3.859  14.129
14286TIP3    H164349   4.104   3.771  14.096
14286TIP3    H264350   4.106   3.852  14.224
14287TIP3   OH264351   1.454   1.150   5.758
14287TIP3    H164352   1.384   1.151   5.693
14287TIP3    H264353   1.480   1.241   5.769
14288TIP3   OH264354   2.457   2.613  16.436
14288TIP3    H164355   2.474   2.641  16.346
14288TIP3    H264356   2.452   2.518  16.432
14289TIP3   OH264357   1.140   2.196  12.164
14289TIP3    H164358   1.120   2.169  12.075
14289TIP3    H264359   1.064   2.170  12.216
14290TIP3   OH264360   4.483   1.767   1.890
14290TIP3    H164361   4.434   1.690   1.860
14290TIP3    H264362   4.574   1.738   1.893
14291TIP3   OH264363   2.552   6.717   4.024
14291TIP3    H164364   2.478   6.659   4.006
14291TIP3    H264365   2.622   6.685   3.968
14292TIP3   OH264366   2.011   6.701   3.700
14292TIP3    H164367   2.042   6.774   3.647
14292TIP3    H264368   2.082   6.636   3.694
14293TIP3   OH264369   5.347   5.239   2.258
14293TIP3    H164370   5.261   5.225   2.218
14293TIP3    H264371   5.362   5.333   2.251
14294TIP3   OH264372   0.477   4.589   5.097
14294TIP3    H164373   0.493   4.638   5.178
14294TIP3    H264374   0.412   4.640   5.050
14295TIP3   OH264375   3.048   6.103  16.645
14295TIP3    H164376   3.016   6.059  16.567
14295TIP3    H264377   3.023   6.195  16.633
14296TIP3   OH264378   4.226   4.301   2.455
14296TIP3    H164379   4.203   4.369   2.519
14296TIP3    H264380   4.315   4.275   2.479
14297TIP3   OH264381   0.347   5.001  11.786
14297TIP3    H164382   0.407   5.071  11.810
14297TIP3    H264383   0.343   5.004  11.690
14298TIP3   OH264384   4.401   0.838  14.904
14298TIP3    H164385   4.425   0.929  14.920
14298TIP3    H264386   4.464   0.787  14.954
14299TIP3   OH264387   0.869   4.872  16.119
14299TIP3    H164388   0.862   4.783  16.084
14299TIP3    H264389   0.783   4.912  16.100
14300TIP3   OH264390   0.417   3.059  12.899
14300TIP3    H164391   0.492   3.110  12.866
14300TIP3    H264392   0.456   2.997  12.961
14301TIP3   OH264393   3.045   4.226  15.762
14301TIP3    H164394   3.100   4.224  15.840
14301TIP3    H264395   2.968   4.276  15.788
14302TIP3   OH264396   3.505   4.509  14.650
14302TIP3    H164397   3.423   4.528  14.604
14302TIP3    H264398   3.500   4.563  14.730
14303TIP3   OH264399   1.228   2.133  16.856
14303TIP3    H164400   1.275   2.114  16.775
14303TIP3    H264401   1.200   2.224  16.847
14304TIP3   OH264402   2.583   6.731   1.164
14304TIP3    H164403   2.542   6.657   1.119
14304TIP3    H264404   2.652   6.691   1.217
14305TIP3   OH264405   0.868   5.876   1.420
14305TIP3    H164406   0.959   5.851   1.402
14305TIP3    H264407   0.825   5.794   1.444
14306TIP3   OH264408   3.338   2.379   0.440
14306TIP3    H164409   3.269   2.352   0.380
14306TIP3    H264410   3.416   2.388   0.385
14307TIP3   OH264411   5.919   5.537   1.520
14307TIP3    H164412   5.913   5.478   1.444
14307TIP3    H264413   5.945   5.480   1.592
14308TIP3   OH264414   3.923   3.920   1.418
14308TIP3    H164415   3.939   3.963   1.503
14308TIP3    H264416   3.869   3.844   1.440
14309TIP3   OH264417   6.300   2.412  14.972
14309TIP3    H164418   6.318   2.380  15.061
14309TIP3    H264419   6.307   2.335  14.917
14310TIP3   OH264420   3.387   0.619  13.008
14310TIP3    H164421   3.317   0.678  12.981
14310TIP3    H264422   3.342   0.536  13.024
14311TIP3   OH264423   0.834   1.321  16.530
14311TIP3    H164424   0.884   1.343  16.609
14311TIP3    H264425   0.868   1.381  16.463
14312TIP3   OH264426   2.098   5.088  11.115
14312TIP3    H164427   2.055   5.017  11.067
14312TIP3    H264428   2.138   5.142  11.047
14313TIP3   OH264429   5.743   3.432   0.260
14313TIP3    H164430   5.820   3.377   0.253
14313TIP3    H264431   5.672   3.372   0.281
14314TIP3   OH264432   3.497   2.104   0.521
14314TIP3    H164433   3.499   2.059   0.436
14314TIP3    H264434   3.524   2.193   0.501
14315TIP3   OH264435   3.668   4.280  13.904
14315TIP3    H164436   3.728   4.211  13.875
14315TIP3    H264437   3.704   4.310  13.988
14316TIP3   OH264438   6.214   1.451   2.492
14316TIP3    H164439   6.217   1.367   2.539
14316TIP3    H264440   6.214   1.517   2.561
14317TIP3   OH264441   4.766   6.328  10.942
14317TIP3    H164442   4.714   6.256  10.905
14317TIP3    H264443   4.796   6.378  10.866
14318TIP3   OH264444   6.145   0.996  13.860
14318TIP3    H164445   6.084   0.934  13.820
14318TIP3    H264446   6.221   0.996  13.801
14319TIP3   OH264447   3.284   2.308   2.901
14319TIP3    H164448   3.280   2.378   2.836
14319TIP3    H264449   3.307   2.230   2.850
14320TIP3   OH264450   5.464   0.885   4.745
14320TIP3    H164451   5.504   0.967   4.776
14320TIP3    H264452   5.457   0.896   4.651
14321TIP3   OH264453   4.712   3.476  12.523
14321TIP3    H164454   4.623   3.506  12.503
14321TIP3    H264455   4.730   3.408  12.459
14322TIP3   OH264456   6.493   3.523  16.384
14322TIP3    H164457   6.569   3.512  16.442
14322TIP3    H264458   6.430   3.459  16.415
14323TIP3   OH264459   2.500   0.444   5.690
14323TIP3    H164460   2.505   0.511   5.622
14323TIP3    H264461   2.586   0.444   5.731
14324TIP3   OH264462   0.622   1.537   5.592
14324TIP3    H164463   0.665   1.521   5.676
14324TIP3    H264464   0.575   1.619   5.605
14325TIP3   OH264465   0.661   1.563   1.760
14325TIP3    H164466   0.711   1.613   1.695
14325TIP3    H264467   0.727   1.507   1.801
14326TIP3   OH264468   3.566   6.566   3.846
14326TIP3    H164469   3.587   6.601   3.759
14326TIP3    H264470   3.554   6.472   3.831
14327TIP3   OH264471   6.207   2.080   2.579
14327TIP3    H164472   6.167   2.161   2.610
14327TIP3    H264473   6.190   2.016   2.648
14328TIP3   OH264474   5.827   4.988  12.739
14328TIP3    H164475   5.911   5.005  12.782
14328TIP3    H264476   5.834   4.899  12.707
14329TIP3   OH264477   1.059   0.426   5.488
14329TIP3    H164478   0.986   0.373   5.521
14329TIP3    H264479   1.136   0.370   5.500
14330TIP3   OH264480   1.508   0.537  17.133
14330TIP3    H164481   1.588   0.525  17.183
14330TIP3    H264482   1.438   0.526  17.196
14331TIP3   OH264483   2.728   6.715   0.198
14331TIP3    H164484   2.711   6.705   0.291
14331TIP3    H264485   2.762   6.804   0.189
14332TIP3   OH264486   4.608   6.610   4.586
14332TIP3    H164487   4.520   6.583   4.558
14332TIP3    H264488   4.620   6.697   4.549
14333TIP3   OH264489   6.006   3.824  15.922
14333TIP3    H164490   6.064   3.839  15.847
14333TIP3    H264491   6.058   3.849  15.998
14334TIP3   OH264492   3.504   2.904   5.640
14334TIP3    H164493   3.524   2.888   5.548
14334TIP3    H264494   3.426   2.850   5.657
14335TIP3   OH264495   0.638   4.107   0.405
14335TIP3    H164496   0.557   4.058   0.390
14335TIP3    H264497   0.624   4.152   0.488
14336TIP3   OH264498   1.252   1.786   5.178
14336TIP3    H164499   1.197   1.766   5.254
14336TIP3    H264500   1.195   1.836   5.119
14337TIP3   OH264501   2.129   4.136  12.060
14337TIP3    H164502   2.112   4.120  12.152
14337TIP3    H264503   2.054   4.095  12.015
14338TIP3   OH264504   4.620   3.442   5.180
14338TIP3    H164505   4.612   3.390   5.100
14338TIP3    H264506   4.712   3.432   5.206
14339TIP3   OH264507   4.748   1.023   5.301
14339TIP3    H164508   4.740   0.930   5.319
14339TIP3    H264509   4.752   1.064   5.387
14340TIP3   OH264510   3.144   5.171  14.330
14340TIP3    H164511   3.122   5.179  14.423
14340TIP3    H264512   3.104   5.248  14.289
14341TIP3   OH264513   2.301   1.015   5.582
14341TIP3    H164514   2.337   0.929   5.606
14341TIP3    H264515   2.376   1.074   5.588
14342TIP3   OH264516   6.263   1.674  16.239
14342TIP3    H164517   6.350   1.700  16.270
14342TIP3    H264518   6.271   1.580  16.221
14343TIP3   OH264519   0.746   0.291   1.339
14343TIP3    H164520   0.771   0.344   1.415
14343TIP3    H264521   0.700   0.216   1.377
14344TIP3   OH264522   4.229   0.805  12.868
14344TIP3    H164523   4.317   0.788  12.900
14344TIP3    H264524   4.240   0.823  12.775
14345TIP3   OH264525   1.191   2.401   3.413
14345TIP3    H164526   1.103   2.421   3.382
14345TIP3    H264527   1.178   2.344   3.489
14346TIP3   OH264528   6.091   0.584  11.836
14346TIP3    H164529   6.140   0.530  11.898
14346TIP3    H264530   6.020   0.621  11.887
14347TIP3   OH264531   5.394   0.112   3.548
14347TIP3    H164532   5.381   0.193   3.498
14347TIP3    H264533   5.338   0.048   3.503
14348TIP3   OH264534   3.033   3.016  17.209
14348TIP3    H164535   3.001   3.086  17.151
14348TIP3    H264536   2.963   2.951  17.209
14349TIP3   OH264537   4.805   1.698   3.895
14349TIP3    H164538   4.745   1.767   3.922
14349TIP3    H264539   4.785   1.683   3.803
14350TIP3   OH264540   2.538   6.630   6.236
14350TIP3    H164541   2.485   6.687   6.292
14350TIP3    H264542   2.479   6.560   6.209
14351TIP3   OH264543   4.142   0.315  13.610
14351TIP3    H164544   4.160   0.282  13.522
14351TIP3    H264545   4.085   0.249  13.649
14352TIP3   OH264546   3.266   1.080   5.612
14352TIP3    H164547   3.208   1.004   5.613
14352TIP3    H264548   3.353   1.044   5.633
14353TIP3   OH264549   0.181   2.477  11.023
14353TIP3    H164550   0.130   2.516  11.095
14353TIP3    H264551   0.134   2.502  10.944
14354TIP3   OH264552   3.862   1.823  14.888
14354TIP3    H164553   3.877   1.749  14.830
14354TIP3    H264554   3.854   1.898  14.830
14355TIP3   OH264555   0.171   3.719   3.779
14355TIP3    H164556   0.243   3.774   3.749
14355TIP3    H264557   0.213   3.651   3.832
14356TIP3   OH264558   5.620   4.978  11.224
14356TIP3    H164559   5.647   4.960  11.134
14356TIP3    H264560   5.615   5.074  11.228
14357TIP3   OH264561   6.142   4.648  14.716
14357TIP3    H164562   6.211   4.583  14.713
14357TIP3    H264563   6.187   4.731  14.732
14358TIP3   OH264564   2.104   1.320  16.621
14358TIP3    H164565   2.025   1.353  16.578
14358TIP3    H264566   2.175   1.341  16.561
14359TIP3   OH264567   3.212   6.057   1.929
14359TIP3    H164568   3.259   6.141   1.937
14359TIP3    H264569   3.121   6.078   1.951
14360TIP3   OH264570   4.526   3.773   1.560
14360TIP3    H164571   4.441   3.770   1.516
14360TIP3    H264572   4.578   3.833   1.506
14361TIP3   OH264573   0.380   3.456   2.806
14361TIP3    H164574   0.384   3.378   2.862
14361TIP3    H264575   0.289   3.486   2.814
14362TIP3   OH264576   3.972   0.109  17.149
14362TIP3    H164577   3.987   0.016  17.166
14362TIP3    H264578   3.894   0.111  17.093
14363TIP3   OH264579   3.302   2.834  11.640
14363TIP3    H164580   3.393   2.819  11.663
14363TIP3    H264581   3.259   2.852  11.723
14364TIP3   OH264582   3.834   5.864  15.230
14364TIP3    H164583   3.758   5.901  15.184
14364TIP3    H264584   3.862   5.791  15.176
14365TIP3   OH264585   1.269   0.503   5.220
14365TIP3    H164586   1.213   0.427   5.205
14365TIP3    H264587   1.268   0.551   5.137
14366TIP3   OH264588   2.257   3.104   2.880
14366TIP3    H164589   2.270   3.080   2.788
14366TIP3    H264590   2.162   3.098   2.893
14367TIP3   OH264591   2.779   0.845  12.770
14367TIP3    H164592   2.687   0.844  12.797
14367TIP3    H264593   2.794   0.758  12.733
14368TIP3   OH264594   4.373   3.831   1.789
14368TIP3    H164595   4.427   3.837   1.710
14368TIP3    H264596   4.298   3.888   1.770
14369TIP3   OH264597   1.713   6.076  10.789
14369TIP3    H164598   1.718   6.171  10.797
14369TIP3    H264599   1.762   6.043  10.864
14370TIP3   OH264600   2.550   6.679  16.429
14370TIP3    H164601   2.465   6.672  16.473
14370TIP3    H264602   2.537   6.747  16.362
14371TIP3   OH264603   2.112   4.324  11.393
14371TIP3    H164604   2.137   4.296  11.305
14371TIP3    H264605   2.172   4.278  11.451
14372TIP3   OH264606   2.516   0.141  10.923
14372TIP3    H164607   2.551   0.057  10.953
14372TIP3    H264608   2.587   0.179  10.871
14373TIP3   OH264609   6.261   4.022   3.363
14373TIP3    H164610   6.238   4.102   3.315
14373TIP3    H264611   6.347   4.042   3.401
14374TIP3   OH264612   3.651   6.482  11.485
14374TIP3    H164613   3.565   6.447  11.464
14374TIP3    H264614   3.709   6.406  11.486
14375TIP3   OH264615   4.812   1.264  12.728
14375TIP3    H164616   4.823   1.306  12.814
14375TIP3    H264617   4.743   1.199  12.742
14376TIP3   OH264618   2.024   5.396   4.922
14376TIP3    H164619   1.947   5.396   4.979
14376TIP3    H264620   2.039   5.488   4.901
14377TIP3   OH264621   1.642   5.364  15.424
14377TIP3    H164622   1.644   5.349  15.519
14377TIP3    H264623   1.731   5.345  15.396
14378TIP3   OH264624   2.654   4.675   5.986
14378TIP3    H164625   2.731   4.717   6.025
14378TIP3    H264626   2.583   4.738   5.997
14379TIP3   OH264627   0.126   1.113  11.937
14379TIP3    H164628   0.137   1.184  11.999
14379TIP3    H264629   0.091   1.041  11.989
14380TIP3   OH264630   0.958   5.458  13.008
14380TIP3    H164631   1.015   5.519  12.962
14380TIP3    H264632   1.018   5.402  13.057
14381TIP3   OH264633   2.669   3.190   3.374
14381TIP3    H164634   2.665   3.227   3.285
14381TIP3    H264635   2.656   3.096   3.361
14382TIP3   OH264636   5.918   1.873  16.830
14382TIP3    H164637   5.835   1.842  16.867
14382TIP3    H264638   5.895   1.910  16.745
14383TIP3   OH264639   3.928   6.721  16.459
14383TIP3    H164640   4.010   6.769  16.447
14383TIP3    H264641   3.895   6.750  16.543
14384TIP3   OH264642   5.888   2.115  15.682
14384TIP3    H164643   5.831   2.061  15.629
14384TIP3    H264644   5.963   2.059  15.702
14385TIP3   OH264645   0.812   4.995  16.745
14385TIP3    H164646   0.796   4.919  16.688
14385TIP3    H264647   0.843   5.063  16.685
14386TIP3   OH264648   5.940   4.733   2.194
14386TIP3    H164649   5.911   4.822   2.174
14386TIP3    H264650   5.877   4.701   2.258
14387TIP3   OH264651   0.271   3.648   0.630
14387TIP3    H164652   0.203   3.678   0.690
14387TIP3    H264653   0.266   3.553   0.635
14388TIP3   OH264654   2.728   5.565   0.464
14388TIP3    H164655   2.644   5.606   0.485
14388TIP3    H264656   2.773   5.558   0.548
14389TIP3   OH264657   1.859   2.556  16.496
14389TIP3    H164658   1.900   2.515  16.420
14389TIP3    H264659   1.831   2.482  16.551
14390TIP3   OH264660   2.826   0.518  12.246
14390TIP3    H164661   2.893   0.513  12.179
14390TIP3    H264662   2.874   0.527  12.328
14391TIP3   OH264663   2.890   6.659  17.249
14391TIP3    H164664   2.983   6.658  17.269
14391TIP3    H264665   2.850   6.707  17.322
14392TIP3   OH264666   5.401   2.095   2.522
14392TIP3    H164667   5.450   2.170   2.488
14392TIP3    H264668   5.414   2.100   2.617
14393TIP3   OH264669   3.598   4.894   2.049
14393TIP3    H164670   3.622   4.963   1.986
14393TIP3    H264671   3.599   4.813   1.997
14394TIP3   OH264672   6.433   6.692   2.372
14394TIP3    H164673   6.413   6.746   2.448
14394TIP3    H264674   6.501   6.633   2.402
14395TIP3   OH264675   2.148   2.975   1.157
14395TIP3    H164676   2.152   2.902   1.219
14395TIP3    H264677   2.149   2.934   1.071
14396TIP3   OH264678   4.259   4.224  13.194
14396TIP3    H164679   4.177   4.204  13.149
14396TIP3    H264680   4.262   4.162  13.266
14397TIP3   OH264681   3.006   2.942  14.668
14397TIP3    H164682   3.032   2.912  14.580
14397TIP3    H264683   3.023   3.036  14.667
14398TIP3   OH264684   2.643   1.565  14.829
14398TIP3    H164685   2.686   1.624  14.891
14398TIP3    H264686   2.563   1.610  14.803
14399TIP3   OH264687   2.997   4.692  15.386
14399TIP3    H164688   2.950   4.674  15.467
14399TIP3    H264689   2.930   4.691  15.318
14400TIP3   OH264690   1.683   2.964  12.553
14400TIP3    H164691   1.775   2.992  12.547
14400TIP3    H264692   1.649   3.008  12.631
14401TIP3   OH264693   2.780   4.070  11.655
14401TIP3    H164694   2.705   4.048  11.712
14401TIP3    H264695   2.740   4.111  11.579
14402TIP3   OH264696   5.851   3.069  14.774
14402TIP3    H164697   5.809   2.991  14.810
14402TIP3    H264698   5.915   3.036  14.711
14403TIP3   OH264699   5.245   1.907   2.017
14403TIP3    H164700   5.165   1.921   2.066
14403TIP3    H264701   5.216   1.876   1.931
14404TIP3   OH264702   3.771   4.771  11.490
14404TIP3    H164703   3.725   4.742  11.411
14404TIP3    H264704   3.822   4.846  11.462
14405TIP3   OH264705   5.561   4.955  14.854
14405TIP3    H164706   5.614   4.905  14.916
14405TIP3    H264707   5.471   4.929  14.874
14406TIP3   OH264708   1.780   5.748   3.645
14406TIP3    H164709   1.763   5.654   3.653
14406TIP3    H264710   1.855   5.753   3.585
14407TIP3   OH264711   2.596   2.005  15.161
14407TIP3    H164712   2.544   2.077  15.127
14407TIP3    H264713   2.543   1.970  15.233
14408TIP3   OH264714   2.404   4.174  14.006
14408TIP3    H164715   2.488   4.154  13.964
14408TIP3    H264716   2.344   4.189  13.933
14409TIP3   OH264717   1.740   2.924  15.927
14409TIP3    H164718   1.733   3.017  15.906
14409TIP3    H264719   1.654   2.901  15.962
14410TIP3   OH264720   3.074   5.751  11.829
14410TIP3    H164721   3.053   5.717  11.742
14410TIP3    H264722   3.045   5.842  11.827
14411TIP3   OH264723   6.160   3.538  12.452
14411TIP3    H164724   6.244   3.494  12.439
14411TIP3    H264725   6.174   3.627  12.421
14412TIP3   OH264726   5.790   6.804  17.270
14412TIP3    H164727   5.698   6.829  17.279
14412TIP3    H264728   5.795   6.717  17.310
14413TIP3   OH264729   6.056   0.851  13.541
14413TIP3    H164730   5.971   0.818  13.511
14413TIP3    H264731   6.053   0.839  13.636
14414TIP3   OH264732   3.755   0.581   4.981
14414TIP3    H164733   3.689   0.589   5.050
14414TIP3    H264734   3.773   0.488   4.975
14415TIP3   OH264735   3.460   5.769   0.991
14415TIP3    H164736   3.534   5.798   1.045
14415TIP3    H264737   3.466   5.674   0.991
14416TIP3   OH264738   4.180   2.917  13.207
14416TIP3    H164739   4.156   2.866  13.285
14416TIP3    H264740   4.276   2.923  13.212
14417TIP3   OH264741   0.387   4.761   5.964
14417TIP3    H164742   0.344   4.843   5.988
14417TIP3    H264743   0.345   4.734   5.883
14418TIP3   OH264744   1.252   0.689   5.021
14418TIP3    H164745   1.333   0.664   4.976
14418TIP3    H264746   1.182   0.646   4.971
14419TIP3   OH264747   6.657   0.719  16.063
14419TIP3    H164748   6.583   0.689  16.117
14419TIP3    H264749   6.715   0.643  16.058
14420TIP3   OH264750   3.080   2.427  11.449
14420TIP3    H164751   3.054   2.435  11.357
14420TIP3    H264752   3.170   2.461  11.452
14421TIP3   OH264753   6.100   2.567  15.221
14421TIP3    H164754   6.082   2.653  15.258
14421TIP3    H264755   6.014   2.532  15.197
14422TIP3   OH264756   1.087   1.490  10.721
14422TIP3    H164757   1.058   1.540  10.644
14422TIP3    H264758   1.007   1.447  10.752
14423TIP3   OH264759   5.003   2.927   3.570
14423TIP3    H164760   5.017   2.886   3.655
14423TIP3    H264761   5.063   3.001   3.568
14424TIP3   OH264762   6.722   6.331   0.771
14424TIP3    H164763   6.762   6.245   0.757
14424TIP3    H264764   6.777   6.373   0.837
14425TIP3   OH264765   6.479   1.915  13.174
14425TIP3    H164766   6.479   1.876  13.261
14425TIP3    H264767   6.486   2.009  13.189
14426TIP3   OH264768   4.548   4.553  13.009
14426TIP3    H164769   4.553   4.572  13.102
14426TIP3    H264770   4.455   4.542  12.991
14427TIP3   OH264771   4.132   2.049   4.099
14427TIP3    H164772   4.154   2.092   4.016
14427TIP3    H264773   4.039   2.027   4.091
14428TIP3   OH264774   6.149   3.388   0.463
14428TIP3    H164775   6.154   3.387   0.367
14428TIP3    H264776   6.118   3.476   0.485
14429TIP3   OH264777   0.991   5.561  16.435
14429TIP3    H164778   0.987   5.471  16.402
14429TIP3    H264779   0.908   5.601  16.407
14430TIP3   OH264780   2.901   0.715   2.166
14430TIP3    H164781   2.879   0.770   2.091
14430TIP3    H264782   2.928   0.776   2.234
14431TIP3   OH264783   4.042   3.415  11.139
14431TIP3    H164784   3.976   3.468  11.096
14431TIP3    H264785   4.036   3.439  11.232
14432TIP3   OH264786   5.614   5.128  12.862
14432TIP3    H164787   5.693   5.095  12.819
14432TIP3    H264788   5.555   5.053  12.865
14433TIP3   OH264789   0.049   5.566   3.396
14433TIP3    H164790   0.085   5.645   3.356
14433TIP3    H264791   0.016   5.594   3.481
14434TIP3   OH264792   0.278   0.859  17.199
14434TIP3    H164793   0.248   0.941  17.240
14434TIP3    H264794   0.200   0.826  17.154
14435TIP3   OH264795   1.708   6.274  12.360
14435TIP3    H164796   1.717   6.242  12.270
14435TIP3    H264797   1.642   6.217  12.400
14436TIP3   OH264798   4.828   3.098  16.453
14436TIP3    H164799   4.869   3.182  16.431
14436TIP3    H264800   4.798   3.108  16.543
14437TIP3   OH264801   4.508   1.604  12.287
14437TIP3    H164802   4.560   1.662  12.232
14437TIP3    H264803   4.501   1.522  12.237
14438TIP3   OH264804   4.777   1.023   0.034
14438TIP3    H164805   4.781   1.006  -0.060
14438TIP3    H264806   4.738   0.944   0.071
14439TIP3   OH264807   5.297   2.241  16.469
14439TIP3    H164808   5.314   2.149  16.487
14439TIP3    H264809   5.251   2.242  16.385
14440TIP3   OH264810   4.782   1.385  11.994
14440TIP3    H164811   4.809   1.444  12.065
14440TIP3    H264812   4.806   1.297  12.027
14441TIP3   OH264813   1.206   2.679  17.178
14441TIP3    H164814   1.214   2.680  17.274
14441TIP3    H264815   1.209   2.586  17.155
14442TIP3   OH264816   1.484   3.322  13.129
14442TIP3    H164817   1.479   3.328  13.034
14442TIP3    H264818   1.576   3.340  13.150
14443TIP3   OH264819   3.550   3.338  13.094
14443TIP3    H164820   3.507   3.252  13.101
14443TIP3    H264821   3.486   3.394  13.051
14444TIP3   OH264822   2.139   1.069  11.074
14444TIP3    H164823   2.079   1.020  11.131
14444TIP3    H264824   2.210   1.007  11.056
14445TIP3   OH264825   3.927   5.285   4.705
14445TIP3    H164826   3.953   5.307   4.794
14445TIP3    H264827   4.002   5.312   4.651
14446TIP3   OH264828   4.632   4.413  10.638
14446TIP3    H164829   4.683   4.338  10.607
14446TIP3    H264830   4.563   4.424  10.573
14447TIP3   OH264831   3.711   3.811   0.307
14447TIP3    H164832   3.664   3.771   0.234
14447TIP3    H264833   3.801   3.779   0.297
14448TIP3   OH264834   3.408   2.506  15.708
14448TIP3    H164835   3.464   2.571  15.751
14448TIP3    H264836   3.324   2.514  15.752
14449TIP3   OH264837   3.548   5.374   4.141
14449TIP3    H164838   3.549   5.316   4.217
14449TIP3    H264839   3.633   5.418   4.143
14450TIP3   OH264840   2.653   3.181   2.633
14450TIP3    H164841   2.732   3.139   2.599
14450TIP3    H264842   2.648   3.152   2.724
14451TIP3   OH264843   6.230   1.750   3.134
14451TIP3    H164844   6.295   1.792   3.189
14451TIP3    H264845   6.250   1.656   3.139
14452TIP3   OH264846   2.728   5.482  12.822
14452TIP3    H164847   2.685   5.407  12.866
14452TIP3    H264848   2.821   5.461  12.824
14453TIP3   OH264849   6.425   0.387   1.885
14453TIP3    H164850   6.488   0.448   1.848
14453TIP3    H264851   6.366   0.442   1.937
14454TIP3   OH264852   2.525   2.269   2.727
14454TIP3    H164853   2.509   2.266   2.822
14454TIP3    H264854   2.599   2.211   2.714
14455TIP3   OH264855   6.539   3.378   5.114
14455TIP3    H164856   6.476   3.389   5.185
14455TIP3    H264857   6.572   3.289   5.125
14456TIP3   OH264858   2.292   0.871   3.328
14456TIP3    H164859   2.358   0.806   3.350
14456TIP3    H264860   2.212   0.821   3.314
14457TIP3   OH264861   1.104   0.297   0.048
14457TIP3    H164862   1.035   0.346   0.004
14457TIP3    H264863   1.058   0.233   0.102
14458TIP3   OH264864   0.874   1.521   1.959
14458TIP3    H164865   0.897   1.586   2.025
14458TIP3    H264866   0.956   1.500   1.916
14459TIP3   OH264867   6.203   0.449  12.038
14459TIP3    H164868   6.186   0.411  12.124
14459TIP3    H264869   6.288   0.414  12.012
14460TIP3   OH264870   5.530   1.392  15.616
14460TIP3    H164871   5.435   1.393  15.618
14460TIP3    H264872   5.553   1.396  15.523
14461TIP3   OH264873   5.338   1.060  13.659
14461TIP3    H164874   5.356   0.970  13.633
14461TIP3    H264875   5.343   1.058  13.755
14462TIP3   OH264876   2.778   4.256   5.701
14462TIP3    H164877   2.684   4.243   5.695
14462TIP3    H264878   2.812   4.224   5.618
14463TIP3   OH264879   1.326   2.458   0.193
14463TIP3    H164880   1.418   2.443   0.214
14463TIP3    H264881   1.323   2.549   0.164
14464TIP3   OH264882   3.262   1.061  11.346
14464TIP3    H164883   3.249   1.019  11.431
14464TIP3    H264884   3.302   0.993  11.291
14465TIP3   OH264885   4.355   0.649   4.102
14465TIP3    H164886   4.389   0.708   4.169
14465TIP3    H264887   4.288   0.699   4.057
14466TIP3   OH264888   4.401   1.314   3.742
14466TIP3    H164889   4.373   1.267   3.821
14466TIP3    H264890   4.461   1.255   3.697
14467TIP3   OH264891   5.678   1.389  14.424
14467TIP3    H164892   5.738   1.444  14.474
14467TIP3    H264893   5.705   1.400  14.333
14468TIP3   OH264894   3.289   4.342  10.982
14468TIP3    H164895   3.252   4.357  11.068
14468TIP3    H264896   3.216   4.351  10.922
14469TIP3   OH264897   6.715   0.393  14.632
14469TIP3    H164898   6.702   0.301  14.654
14469TIP3    H264899   6.783   0.423  14.693
14470TIP3   OH264900   6.151   5.848   4.431
14470TIP3    H164901   6.133   5.826   4.522
14470TIP3    H264902   6.183   5.939   4.434
14471TIP3   OH264903   2.465   6.302   2.175
14471TIP3    H164904   2.558   6.320   2.188
14471TIP3    H264905   2.431   6.286   2.263
14472TIP3   OH264906   2.866   4.663  16.536
14472TIP3    H164907   2.805   4.729  16.567
14472TIP3    H264908   2.899   4.698  16.453
14473TIP3   OH264909   0.929   6.088  12.651
14473TIP3    H164910   0.865   6.080  12.721
14473TIP3    H264911   1.010   6.113  12.695
14474TIP3   OH264912   2.282   3.945  14.714
14474TIP3    H164913   2.214   3.880  14.698
14474TIP3    H264914   2.270   3.971  14.805
14475TIP3   OH264915   0.492   3.666  16.662
14475TIP3    H164916   0.523   3.714  16.585
14475TIP3    H264917   0.546   3.587  16.664
14476TIP3   OH264918   1.345   6.033   6.516
14476TIP3    H164919   1.250   6.032   6.519
14476TIP3    H264920   1.372   5.945   6.541
14477TIP3   OH264921   4.266   3.876  11.582
14477TIP3    H164922   4.203   3.900  11.650
14477TIP3    H264923   4.344   3.847  11.629
14478TIP3   OH264924   2.117   4.870  15.608
14478TIP3    H164925   2.069   4.909  15.681
14478TIP3    H264926   2.079   4.909  15.530
14479TIP3   OH264927   6.713   6.625  16.857
14479TIP3    H164928   6.790   6.673  16.826
14479TIP3    H264929   6.667   6.687  16.912
14480TIP3   OH264930   4.461   3.383   2.253
14480TIP3    H164931   4.537   3.440   2.261
14480TIP3    H264932   4.451   3.367   2.159
14481TIP3   OH264933   2.809   3.169   4.406
14481TIP3    H164934   2.870   3.195   4.337
14481TIP3    H264935   2.722   3.184   4.368
14482TIP3   OH264936   5.154   3.028  15.343
14482TIP3    H164937   5.114   3.041  15.257
14482TIP3    H264938   5.093   2.972  15.390
14483TIP3   OH264939   0.614   0.751  16.854
14483TIP3    H164940   0.527   0.750  16.894
14483TIP3    H264941   0.607   0.692  16.779
14484TIP3   OH264942   1.465   4.970  10.503
14484TIP3    H164943   1.540   5.025  10.522
14484TIP3    H264944   1.502   4.885  10.479
14485TIP3   OH264945   5.995   5.367  16.801
14485TIP3    H164946   5.900   5.366  16.798
14485TIP3    H264947   6.016   5.388  16.892
14486TIP3   OH264948   2.875   0.188   4.373
14486TIP3    H164949   2.927   0.266   4.351
14486TIP3    H264950   2.936   0.115   4.362
14487TIP3   OH264951   5.102   4.214   5.936
14487TIP3    H164952   5.022   4.262   5.916
14487TIP3    H264953   5.126   4.173   5.852
14488TIP3   OH264954   1.102   6.070   2.826
14488TIP3    H164955   1.118   6.109   2.740
14488TIP3    H264956   1.033   6.006   2.811
14489TIP3   OH264957   4.555   5.669   2.056
14489TIP3    H164958   4.626   5.729   2.077
14489TIP3    H264959   4.554   5.665   1.960
14490TIP3   OH264960   5.817   0.914  16.439
14490TIP3    H164961   5.842   0.879  16.353
14490TIP3    H264962   5.873   0.867  16.501
14491TIP3   OH264963   1.123   4.244   5.216
14491TIP3    H164964   1.148   4.313   5.155
14491TIP3    H264965   1.128   4.163   5.164
14492TIP3   OH264966   4.919   3.983  12.720
14492TIP3    H164967   4.886   4.073  12.713
14492TIP3    H264968   4.871   3.945  12.793
14493TIP3   OH264969   0.801   0.970   5.676
14493TIP3    H164970   0.756   0.924   5.747
14493TIP3    H264971   0.880   1.006   5.717
14494TIP3   OH264972   1.285   2.721   0.158
14494TIP3    H164973   1.254   2.704   0.247
14494TIP3    H264974   1.272   2.815   0.146
14495TIP3   OH264975   5.240   3.786   4.523
14495TIP3    H164976   5.298   3.794   4.447
14495TIP3    H264977   5.153   3.769   4.485
14496TIP3   OH264978   1.801   3.290  12.660
14496TIP3    H164979   1.845   3.236  12.726
14496TIP3    H264980   1.819   3.246  12.577
14497TIP3   OH264981   0.855   3.869  12.936
14497TIP3    H164982   0.894   3.786  12.960
14497TIP3    H264983   0.869   3.876  12.841
14498TIP3   OH264984   5.286   0.919  11.383
14498TIP3    H164985   5.197   0.910  11.349
14498TIP3    H264986   5.280   0.891  11.474
14499TIP3   OH264987   6.038   3.426  11.710
14499TIP3    H164988   5.990   3.505  11.736
14499TIP3    H264989   6.125   3.458  11.687
14500TIP3   OH264990   5.825   5.843  16.077
14500TIP3    H164991   5.809   5.828  15.984
14500TIP3    H264992   5.906   5.893  16.080
14501TIP3   OH264993   0.986   6.251   1.166
14501TIP3    H164994   1.057   6.195   1.133
14501TIP3    H264995   0.971   6.314   1.096
14502TIP3   OH264996   6.773   0.671   5.153
14502TIP3    H164997   6.699   0.726   5.130
14502TIP3    H264998   6.803   0.705   5.237
14503TIP3   OH264999   6.491   4.305   0.732
14503TIP3    H165000   6.400   4.304   0.762
14503TIP3    H265001   6.539   4.256   0.798
14504TIP3   OH265002   6.606   6.184  12.400
14504TIP3    H165003   6.567   6.248  12.341
14504TIP3    H265004   6.576   6.100  12.367
14505TIP3   OH265005   1.351   3.411   1.611
14505TIP3    H165006   1.420   3.422   1.546
14505TIP3    H265007   1.385   3.454   1.690
14506TIP3   OH265008   0.035   3.410   2.286
14506TIP3    H165009   0.075   3.329   2.255
14506TIP3    H265010   0.102   3.451   2.341
14507TIP3   OH265011   2.995   6.549  14.145
14507TIP3    H165012   3.089   6.542  14.164
14507TIP3    H265013   2.985   6.636  14.108
14508TIP3   OH265014   5.304   6.788  14.540
14508TIP3    H165015   5.222   6.835  14.555
14508TIP3    H265016   5.280   6.717  14.479
14509TIP3   OH265017   6.721   1.491   0.243
14509TIP3    H165018   6.771   1.441   0.308
14509TIP3    H265019   6.731   1.582   0.270
14510TIP3   OH265020   4.422   4.889  11.430
14510TIP3    H165021   4.397   4.850  11.346
14510TIP3    H265022   4.341   4.929  11.462
14511TIP3   OH265023   2.408   4.928   0.968
14511TIP3    H165024   2.440   4.957   0.883
14511TIP3    H265025   2.439   4.838   0.976
14512TIP3   OH265026   0.615   6.710   0.384
14512TIP3    H165027   0.621   6.616   0.400
14512TIP3    H265028   0.610   6.718   0.289
14513TIP3   OH265029   5.153   0.292   4.940
14513TIP3    H165030   5.081   0.265   4.883
14513TIP3    H265031   5.195   0.210   4.966
14514TIP3   OH265032   2.891   4.128  14.233
14514TIP3    H165033   2.883   4.210  14.185
14514TIP3    H265034   2.801   4.100  14.249
14515TIP3   OH265035   2.356   0.399  11.523
14515TIP3    H165036   2.278   0.357  11.487
14515TIP3    H265037   2.421   0.392  11.453
14516TIP3   OH265038   2.202   3.334  10.502
14516TIP3    H165039   2.179   3.260  10.557
14516TIP3    H265040   2.134   3.399  10.519
14517TIP3   OH265041   1.787   1.335   6.459
14517TIP3    H165042   1.863   1.363   6.408
14517TIP3    H265043   1.715   1.390   6.427
14518TIP3   OH265044   5.586   5.695  14.394
14518TIP3    H165045   5.630   5.646  14.324
14518TIP3    H265046   5.526   5.631  14.432
14519TIP3   OH265047   4.744   4.746  15.689
14519TIP3    H165048   4.712   4.682  15.752
14519TIP3    H265049   4.730   4.831  15.732
14520TIP3   OH265050   1.846   3.816  12.818
14520TIP3    H165051   1.875   3.865  12.741
14520TIP3    H265052   1.822   3.730  12.784
14521TIP3   OH265053   0.696   3.450   1.133
14521TIP3    H165054   0.783   3.435   1.170
14521TIP3    H265055   0.683   3.378   1.072
14522TIP3   OH265056   5.981   1.104  14.689
14522TIP3    H165057   5.912   1.170  14.700
14522TIP3    H265058   5.936   1.030  14.650
14523TIP3   OH265059   1.904   2.803   4.572
14523TIP3    H165060   1.975   2.867   4.574
14523TIP3    H265061   1.914   2.757   4.489
14524TIP3   OH265062   3.450   4.173  12.717
14524TIP3    H165063   3.422   4.234  12.786
14524TIP3    H265064   3.544   4.186  12.711
14525TIP3   OH265065   1.396   1.596  13.299
14525TIP3    H165066   1.410   1.590  13.393
14525TIP3    H265067   1.410   1.507  13.267
14526TIP3   OH265068   4.855   2.732   4.847
14526TIP3    H165069   4.834   2.758   4.757
14526TIP3    H265070   4.912   2.802   4.879
14527TIP3   OH265071   1.375   4.628  13.269
14527TIP3    H165072   1.455   4.575  13.256
14527TIP3    H265073   1.403   4.718  13.254
14528TIP3   OH265074   3.288   0.781   3.670
14528TIP3    H165075   3.241   0.729   3.604
14528TIP3    H265076   3.219   0.833   3.712
14529TIP3   OH265077   6.173   5.559   2.227
14529TIP3    H165078   6.106   5.572   2.160
14529TIP3    H265079   6.138   5.490   2.283
14530TIP3   OH265080   0.264   2.652   2.779
14530TIP3    H165081   0.181   2.611   2.805
14530TIP3    H265082   0.261   2.652   2.683
14531TIP3   OH265083   5.756   2.875   2.928
14531TIP3    H165084   5.661   2.882   2.939
14531TIP3    H265085   5.767   2.800   2.870
14532TIP3   OH265086   5.971   6.688   4.980
14532TIP3    H165087   6.039   6.662   4.917
14532TIP3    H265088   5.913   6.745   4.929
14533TIP3   OH265089   1.180   1.458  14.161
14533TIP3    H165090   1.184   1.424  14.251
14533TIP3    H265091   1.199   1.382  14.106
14534TIP3   OH265092   5.304   0.997   2.774
14534TIP3    H165093   5.219   1.038   2.758
14534TIP3    H265094   5.315   0.936   2.701
14535TIP3   OH265095   3.353   4.695  13.882
14535TIP3    H165096   3.299   4.696  13.803
14535TIP3    H265097   3.416   4.623  13.867
14536TIP3   OH265098   1.939   2.443  16.267
14536TIP3    H165099   1.985   2.360  16.254
14536TIP3    H265100   1.866   2.440  16.205
14537TIP3   OH265101   3.632   1.577  14.111
14537TIP3    H165102   3.676   1.531  14.039
14537TIP3    H265103   3.701   1.629  14.152
14538TIP3   OH265104   6.006   5.491   4.017
14538TIP3    H165105   6.013   5.580   4.052
14538TIP3    H265106   5.951   5.499   3.940
14539TIP3   OH265107   4.997   6.138   1.163
14539TIP3    H165108   5.005   6.214   1.105
14539TIP3    H265109   5.086   6.127   1.199
14540TIP3   OH265110   3.955   5.906   0.761
14540TIP3    H165111   4.030   5.966   0.758
14540TIP3    H265112   3.989   5.829   0.806
14541TIP3   OH265113   4.034   4.682   2.296
14541TIP3    H165114   4.048   4.668   2.202
14541TIP3    H265115   3.939   4.677   2.308
14542TIP3   OH265116   6.139   1.794   1.001
14542TIP3    H165117   6.139   1.839   0.917
14542TIP3    H265118   6.117   1.704   0.981
14543TIP3   OH265119   1.871   0.317  14.789
14543TIP3    H165120   1.918   0.387  14.744
14543TIP3    H265121   1.916   0.308  14.873
14544TIP3   OH265122   2.778   3.490   6.086
14544TIP3    H165123   2.801   3.508   6.177
14544TIP3    H265124   2.728   3.408   6.090
14545TIP3   OH265125   0.354   3.262  16.597
14545TIP3    H165126   0.380   3.316  16.522
14545TIP3    H265127   0.260   3.273  16.603
14546TIP3   OH265128   2.460   4.080   6.715
14546TIP3    H165129   2.378   4.087   6.764
14546TIP3    H265130   2.507   4.008   6.757
14547TIP3   OH265131   2.758   0.089   5.168
14547TIP3    H165132   2.800   0.023   5.114
14547TIP3    H265133   2.816   0.165   5.163
14548TIP3   OH265134   6.373   4.137  11.025
14548TIP3    H165135   6.379   4.105  11.115
14548TIP3    H265136   6.413   4.067  10.972
14549TIP3   OH265137   3.960   4.392  12.860
14549TIP3    H165138   3.878   4.427  12.894
14549TIP3    H265139   3.992   4.334  12.929
14550TIP3   OH265140   4.518   5.878  13.645
14550TIP3    H165141   4.455   5.826  13.695
14550TIP3    H265142   4.472   5.959  13.625
14551TIP3   OH265143   1.108   3.833  15.927
14551TIP3    H165144   1.048   3.885  15.980
14551TIP3    H265145   1.179   3.810  15.988
14552TIP3   OH265146   6.418   4.379   1.244
14552TIP3    H165147   6.394   4.432   1.321
14552TIP3    H265148   6.440   4.294   1.280
14553TIP3   OH265149   1.338   5.737  13.471
14553TIP3    H165150   1.292   5.661  13.505
14553TIP3    H265151   1.334   5.801  13.542
14554TIP3   OH265152   0.193   1.112  10.830
14554TIP3    H165153   0.210   1.093  10.737
14554TIP3    H265154   0.108   1.072  10.847
14555TIP3   OH265155   0.152   4.920   5.678
14555TIP3    H165156   0.130   4.931   5.586
14555TIP3    H265157   0.237   4.964   5.688
14556TIP3   OH265158   2.016   4.621  13.133
14556TIP3    H165159   2.041   4.534  13.100
14556TIP3    H265160   2.069   4.632  13.212
14557TIP3   OH265161   5.317   4.655  11.381
14557TIP3    H165162   5.365   4.625  11.458
14557TIP3    H265163   5.324   4.582  11.319
14558TIP3   OH265164   6.114   5.366   6.787
14558TIP3    H165165   6.044   5.408   6.738
14558TIP3    H265166   6.126   5.421   6.864
14559TIP3   OH265167   5.680   2.577  15.494
14559TIP3    H165168   5.715   2.488  15.498
14559TIP3    H265169   5.641   2.584  15.407
14560TIP3   OH265170   5.937   5.068  14.819
14560TIP3    H165171   5.927   5.085  14.912
14560TIP3    H265172   5.847   5.058  14.787
14561TIP3   OH265173   2.942   0.130   3.070
14561TIP3    H165174   2.901   0.216   3.078
14561TIP3    H265175   2.974   0.126   2.980
14562TIP3   OH265176   1.267   2.296  14.958
14562TIP3    H165177   1.309   2.264  15.037
14562TIP3    H265178   1.255   2.219  14.903
14563TIP3   OH265179   5.645   1.213   4.502
14563TIP3    H165180   5.658   1.206   4.408
14563TIP3    H265181   5.626   1.124   4.530
14564TIP3   OH265182   6.491   1.514   1.373
14564TIP3    H165183   6.457   1.425   1.363
14564TIP3    H265184   6.562   1.520   1.309
14565TIP3   OH265185   3.057   6.767   2.858
14565TIP3    H165186   3.090   6.690   2.905
14565TIP3    H265187   3.123   6.835   2.872
14566TIP3   OH265188   6.500   2.915  14.078
14566TIP3    H165189   6.492   2.929  14.172
14566TIP3    H265190   6.529   2.824  14.070
14567TIP3   OH265191   4.064   3.469   4.377
14567TIP3    H165192   4.143   3.465   4.323
14567TIP3    H265193   4.057   3.381   4.416
14568TIP3   OH265194   4.391   6.237  15.918
14568TIP3    H165195   4.359   6.187  15.843
14568TIP3    H265196   4.362   6.187  15.994
14569TIP3   OH265197   0.882   4.809   0.191
14569TIP3    H165198   0.868   4.747   0.120
14569TIP3    H265199   0.839   4.889   0.162
14570TIP3   OH265200   1.394   2.847  14.894
14570TIP3    H165201   1.328   2.916  14.896
14570TIP3    H265202   1.457   2.873  14.962
14571TIP3   OH265203   4.900   5.027   1.556
14571TIP3    H165204   4.926   5.099   1.499
14571TIP3    H265205   4.978   5.009   1.609
14572TIP3   OH265206   2.379   2.575   1.942
14572TIP3    H165207   2.374   2.600   1.850
14572TIP3    H265208   2.401   2.482   1.941
14573TIP3   OH265209   1.395   3.264  15.089
14573TIP3    H165210   1.380   3.339  15.032
14573TIP3    H265211   1.437   3.300  15.167
14574TIP3   OH265212   1.288   6.754   5.569
14574TIP3    H165213   1.369   6.804   5.557
14574TIP3    H265214   1.302   6.674   5.517
14575TIP3   OH265215   1.884   0.714  13.508
14575TIP3    H165216   1.942   0.717  13.432
14575TIP3    H265217   1.845   0.627  13.506
14576TIP3   OH265218   5.178   4.421  13.061
14576TIP3    H165219   5.261   4.424  13.013
14576TIP3    H265220   5.190   4.351  13.126
14577TIP3   OH265221   1.863   2.129   6.708
14577TIP3    H165222   1.957   2.146   6.717
14577TIP3    H265223   1.825   2.166   6.788
14578TIP3   OH265224   5.927   4.690  17.288
14578TIP3    H165225   5.964   4.758  17.344
14578TIP3    H265226   5.858   4.650  17.341
14579TIP3   OH265227   2.169   1.833   1.248
14579TIP3    H165228   2.194   1.820   1.156
14579TIP3    H265229   2.252   1.845   1.294
14580TIP3   OH265230   1.598   2.862   3.893
14580TIP3    H165231   1.661   2.932   3.875
14580TIP3    H265232   1.557   2.845   3.808
14581TIP3   OH265233   1.446   3.069  11.432
14581TIP3    H165234   1.422   3.121  11.355
14581TIP3    H265235   1.482   2.988  11.396
14582TIP3   OH265236   5.530   0.923  16.717
14582TIP3    H165237   5.507   0.930  16.624
14582TIP3    H265238   5.532   0.828  16.734
14583TIP3   OH265239   2.543   1.067  13.611
14583TIP3    H165240   2.562   1.129  13.682
14583TIP3    H265241   2.455   1.092  13.581
14584TIP3   OH265242   5.472   0.628   0.675
14584TIP3    H165243   5.521   0.626   0.593
14584TIP3    H265244   5.462   0.535   0.698
14585TIP3   OH265245   2.759   5.129   3.735
14585TIP3    H165246   2.780   5.123   3.829
14585TIP3    H265247   2.698   5.058   3.719
14586TIP3   OH265248   1.214   0.251  14.172
14586TIP3    H165249   1.183   0.264  14.082
14586TIP3    H265250   1.199   0.158  14.189
14587TIP3   OH265251   6.556   3.562   4.123
14587TIP3    H165252   6.506   3.571   4.042
14587TIP3    H265253   6.604   3.480   4.113
14588TIP3   OH265254   4.937   4.828   6.553
14588TIP3    H165255   4.946   4.922   6.566
14588TIP3    H265256   4.864   4.819   6.491
14589TIP3   OH265257   5.558   4.742   3.814
14589TIP3    H165258   5.486   4.775   3.760
14589TIP3    H265259   5.567   4.808   3.883
14590TIP3   OH265260   2.098   5.839   2.323
14590TIP3    H165261   2.056   5.808   2.243
14590TIP3    H265262   2.134   5.925   2.300
14591TIP3   OH265263   2.349   0.958  15.447
14591TIP3    H165264   2.254   0.961  15.443
14591TIP3    H265265   2.369   0.906  15.525
14592TIP3   OH265266   2.189   0.217   1.265
14592TIP3    H165267   2.248   0.262   1.326
14592TIP3    H265268   2.218   0.126   1.267
14593TIP3   OH265269   3.557   1.714  10.673
14593TIP3    H165270   3.629   1.757  10.719
14593TIP3    H265271   3.572   1.620  10.690
14594TIP3   OH265272   3.179   3.489   5.121
14594TIP3    H165273   3.196   3.576   5.083
14594TIP3    H265274   3.247   3.433   5.083
14595TIP3   OH265275   4.100   6.814   3.269
14595TIP3    H165276   4.038   6.748   3.240
14595TIP3    H265277   4.053   6.897   3.259
14596TIP3   OH265278   2.180   5.333   1.179
14596TIP3    H165279   2.182   5.263   1.244
14596TIP3    H265280   2.140   5.407   1.226
14597TIP3   OH265281   3.192   5.531  11.426
14597TIP3    H165282   3.230   5.619  11.425
14597TIP3    H265283   3.155   5.520  11.338
14598TIP3   OH265284   4.449   5.330   2.994
14598TIP3    H165285   4.483   5.280   2.920
14598TIP3    H265286   4.526   5.364   3.038
14599TIP3   OH265287   0.928   3.770   0.899
14599TIP3    H165288   0.921   3.855   0.855
14599TIP3    H265289   0.838   3.744   0.916
14600TIP3   OH265290   6.697   2.648   5.995
14600TIP3    H165291   6.639   2.635   5.920
14600TIP3    H265292   6.706   2.744   6.001
14601TIP3   OH265293   0.548   3.603  11.872
14601TIP3    H165294   0.579   3.592  11.783
14601TIP3    H265295   0.595   3.537  11.923
14602TIP3   OH265296   4.188   6.618   0.702
14602TIP3    H165297   4.160   6.662   0.621
14602TIP3    H265298   4.107   6.600   0.749
14603TIP3   OH265299   4.481   0.198  13.516
14603TIP3    H165300   4.449   0.133  13.578
14603TIP3    H265301   4.441   0.174  13.432
14604TIP3   OH265302   5.727   1.392  12.526
14604TIP3    H165303   5.746   1.471  12.576
14604TIP3    H265304   5.634   1.377  12.540
14605TIP3   OH265305   0.417   5.176   0.658
14605TIP3    H165306   0.449   5.207   0.743
14605TIP3    H265307   0.368   5.097   0.678
14606TIP3   OH265308   1.345   4.511   2.817
14606TIP3    H165309   1.373   4.440   2.876
14606TIP3    H265310   1.406   4.583   2.836
14607TIP3   OH265311   2.018   3.877   5.987
14607TIP3    H165312   2.050   3.938   6.053
14607TIP3    H265313   1.949   3.828   6.032
14608TIP3   OH265314   3.821   6.444   3.871
14608TIP3    H165315   3.857   6.530   3.892
14608TIP3    H265316   3.837   6.434   3.777
14609TIP3   OH265317   3.990   2.693  11.414
14609TIP3    H165318   3.939   2.750  11.471
14609TIP3    H265319   4.049   2.752  11.368
14610TIP3   OH265320   6.513   3.993  12.867
14610TIP3    H165321   6.587   3.933  12.859
14610TIP3    H265322   6.467   3.984  12.783
14611TIP3   OH265323   2.170   2.586  16.106
14611TIP3    H165324   2.076   2.597  16.091
14611TIP3    H265325   2.183   2.491  16.104
14612TIP3   OH265326   0.147   0.035  12.129
14612TIP3    H165327   0.081   0.036  12.198
14612TIP3    H265328   0.227   0.007  12.173
14613TIP3   OH265329   4.996   1.557  17.040
14613TIP3    H165330   4.906   1.574  17.012
14613TIP3    H265331   4.987   1.495  17.113
14614TIP3   OH265332   6.371   3.342   1.796
14614TIP3    H165333   6.354   3.248   1.800
14614TIP3    H265334   6.399   3.365   1.885
14615TIP3   OH265335   6.293   0.946  11.968
14615TIP3    H165336   6.221   0.954  11.907
14615TIP3    H265337   6.361   1.003  11.933
14616TIP3   OH265338   2.666   4.648   1.674
14616TIP3    H165339   2.663   4.666   1.768
14616TIP3    H265340   2.731   4.579   1.665
14617TIP3   OH265341   6.380   1.708  12.494
14617TIP3    H165342   6.460   1.686  12.543
14617TIP3    H265343   6.340   1.778  12.545
14618TIP3   OH265344   4.594   1.153  15.169
14618TIP3    H165345   4.629   1.152  15.258
14618TIP3    H265346   4.544   1.234  15.164
14619TIP3   OH265347   1.005   2.375  16.497
14619TIP3    H165348   1.008   2.330  16.413
14619TIP3    H265349   0.915   2.408  16.503
14620TIP3   OH265350   2.080   5.947  15.600
14620TIP3    H165351   2.073   5.941  15.696
14620TIP3    H265352   2.041   5.866  15.569
14621TIP3   OH265353   6.368   6.734   3.741
14621TIP3    H165354   6.299   6.706   3.681
14621TIP3    H265355   6.374   6.829   3.727
14622TIP3   OH265356   0.285   4.715   1.590
14622TIP3    H165357   0.226   4.654   1.635
14622TIP3    H265358   0.314   4.666   1.513
14623TIP3   OH265359   1.018   4.866   3.439
14623TIP3    H165360   1.109   4.877   3.411
14623TIP3    H265361   1.006   4.933   3.506
14624TIP3   OH265362   4.769   6.104   3.024
14624TIP3    H165363   4.716   6.134   3.098
14624TIP3    H265364   4.858   6.096   3.058
14625TIP3   OH265365   5.228   1.170   4.249
14625TIP3    H165366   5.138   1.151   4.272
14625TIP3    H265367   5.260   1.228   4.319
14626TIP3   OH265368   4.668   5.891  12.419
14626TIP3    H165369   4.690   5.830  12.349
14626TIP3    H265370   4.657   5.836  12.496
14627TIP3   OH265371   0.120   1.003   0.717
14627TIP3    H165372   0.101   1.034   0.629
14627TIP3    H265373   0.139   0.910   0.707
14628TIP3   OH265374   2.556   4.419  15.084
14628TIP3    H165375   2.485   4.386  15.029
14628TIP3    H265376   2.514   4.484  15.140
14629TIP3   OH265377   5.319   6.436   0.100
14629TIP3    H165378   5.400   6.394   0.128
14629TIP3    H265379   5.288   6.483   0.177
14630TIP3   OH265380   5.427   1.689  12.542
14630TIP3    H165381   5.437   1.596  12.522
14630TIP3    H265382   5.334   1.706  12.528
14631TIP3   OH265383   0.012   4.146  10.366
14631TIP3    H165384   0.025   4.090  10.442
14631TIP3    H265385   0.084   4.209  10.369
14632TIP3   OH265386   5.302   2.094  12.075
14632TIP3    H165387   5.358   2.157  12.119
14632TIP3    H265388   5.247   2.148  12.017
14633TIP3   OH265389   0.981   5.856  13.620
14633TIP3    H165390   1.035   5.928  13.652
14633TIP3    H265391   0.914   5.899  13.567
14634TIP3   OH265392   4.976   3.757  13.734
14634TIP3    H165393   4.887   3.727  13.717
14634TIP3    H265394   4.968   3.852  13.746
14635TIP3   OH265395   6.129   3.988   6.131
14635TIP3    H165396   6.187   3.953   6.200
14635TIP3    H265397   6.162   4.076   6.115
14636TIP3   OH265398   0.277   4.349  16.787
14636TIP3    H165399   0.264   4.254  16.788
14636TIP3    H265400   0.372   4.360  16.794
14637TIP3   OH265401   3.224   4.911   0.609
14637TIP3    H165402   3.223   4.975   0.538
14637TIP3    H265403   3.131   4.896   0.629
14638TIP3   OH265404   5.512   1.004  15.008
14638TIP3    H165405   5.492   0.912  14.993
14638TIP3    H265406   5.594   1.019  14.962
14639TIP3   OH265407   5.260   2.586  16.144
14639TIP3    H165408   5.295   2.516  16.089
14639TIP3    H265409   5.214   2.644  16.083
14640TIP3   OH265410   6.375   0.750  14.317
14640TIP3    H165411   6.326   0.723  14.239
14640TIP3    H265412   6.407   0.838  14.296
14641TIP3   OH265413   5.854   5.824  14.948
14641TIP3    H165414   5.829   5.826  15.040
14641TIP3    H265415   5.946   5.795  14.948
14642TIP3   OH265416   1.758   5.180   2.912
14642TIP3    H165417   1.702   5.252   2.941
14642TIP3    H265418   1.817   5.165   2.986
14643TIP3   OH265419   6.661   2.079   5.975
14643TIP3    H165420   6.625   2.117   6.056
14643TIP3    H265421   6.587   2.081   5.914
14644TIP3   OH265422   3.002   1.083   2.558
14644TIP3    H165423   2.947   1.067   2.481
14644TIP3    H265424   3.045   1.166   2.540
14645TIP3   OH265425   3.881   0.815   2.359
14645TIP3    H165426   3.976   0.804   2.356
14645TIP3    H265427   3.867   0.909   2.370
14646TIP3   OH265428   3.274   5.215   5.385
14646TIP3    H165429   3.352   5.245   5.430
14646TIP3    H265430   3.263   5.124   5.412
14647TIP3   OH265431   0.920   2.184  13.061
14647TIP3    H165432   0.852   2.172  12.994
14647TIP3    H265433   0.942   2.094  13.088
14648TIP3   OH265434   6.785   0.962  16.059
14648TIP3    H165435   6.738   0.880  16.045
14648TIP3    H265436   6.866   0.952  16.010
14649TIP3   OH265437   4.209   2.384  11.630
14649TIP3    H165438   4.124   2.425  11.646
14649TIP3    H265439   4.259   2.451  11.583
14650TIP3   OH265440   2.348   3.486  13.752
14650TIP3    H165441   2.304   3.569  13.770
14650TIP3    H265442   2.367   3.489  13.658
14651TIP3   OH265443   5.157   5.959   1.893
14651TIP3    H165444   5.212   5.915   1.829
14651TIP3    H265445   5.109   5.889   1.937
14652TIP3   OH265446   3.647   2.698   5.818
14652TIP3    H165447   3.586   2.732   5.753
14652TIP3    H265448   3.721   2.664   5.766
14653TIP3   OH265449   5.782   5.566  12.353
14653TIP3    H165450   5.843   5.576  12.280
14653TIP3    H265451   5.837   5.565  12.431
14654TIP3   OH265452   0.696   2.236  10.522
14654TIP3    H165453   0.654   2.275  10.598
14654TIP3    H265454   0.666   2.289  10.448
14655TIP3   OH265455   4.772   4.374  12.055
14655TIP3    H165456   4.788   4.461  12.018
14655TIP3    H265457   4.769   4.316  11.978
14656TIP3   OH265458   3.809   6.131   5.516
14656TIP3    H165459   3.786   6.076   5.441
14656TIP3    H265460   3.888   6.177   5.489
14657TIP3   OH265461   4.689   0.777  13.549
14657TIP3    H165462   4.726   0.689  13.543
14657TIP3    H265463   4.706   0.803  13.640
14658TIP3   OH265464   3.819   1.223  16.833
14658TIP3    H165465   3.852   1.198  16.746
14658TIP3    H265466   3.737   1.270  16.814
14659TIP3   OH265467   1.896   4.046   2.615
14659TIP3    H165468   1.946   4.109   2.667
14659TIP3    H265469   1.929   3.960   2.642
14660TIP3   OH265470   2.883   4.623   2.071
14660TIP3    H165471   2.917   4.668   1.994
14660TIP3    H265472   2.948   4.640   2.139
14661TIP3   OH265473   6.254   6.566   5.446
14661TIP3    H165474   6.288   6.593   5.531
14661TIP3    H265475   6.183   6.505   5.466
14662TIP3   OH265476   3.186   3.622   0.259
14662TIP3    H165477   3.273   3.616   0.220
14662TIP3    H265478   3.185   3.708   0.302
14663TIP3   OH265479   2.904   0.385  11.593
14663TIP3    H165480   2.968   0.431  11.538
14663TIP3    H265481   2.944   0.382  11.680
14664TIP3   OH265482   3.213   5.390  15.996
14664TIP3    H165483   3.287   5.450  16.009
14664TIP3    H265484   3.137   5.441  16.024
14665TIP3   OH265485   3.906   1.287  13.470
14665TIP3    H165486   3.991   1.329  13.455
14665TIP3    H265487   3.913   1.249  13.558
14666TIP3   OH265488   2.226   3.239   0.612
14666TIP3    H165489   2.225   3.161   0.668
14666TIP3    H265490   2.155   3.224   0.550
14667TIP3   OH265491   1.137   1.327   3.706
14667TIP3    H165492   1.152   1.233   3.708
14667TIP3    H265493   1.174   1.358   3.789
14668TIP3   OH265494   4.929   5.674   0.732
14668TIP3    H165495   4.952   5.756   0.687
14668TIP3    H265496   4.937   5.607   0.664
14669TIP3   OH265497   0.888   1.331   0.685
14669TIP3    H165498   0.949   1.269   0.725
14669TIP3    H265499   0.819   1.343   0.751
14670TIP3   OH265500   1.939   0.242  13.921
14670TIP3    H165501   1.878   0.222  13.992
14670TIP3    H265502   2.020   0.267  13.966
14671TIP3   OH265503   0.065   2.141   0.654
14671TIP3    H165504   0.109   2.062   0.687
14671TIP3    H265505   0.046   2.120   0.562
14672TIP3   OH265506   1.498   4.020  11.286
14672TIP3    H165507   1.586   4.026  11.248
14672TIP3    H265508   1.440   4.014  11.210
14673TIP3   OH265509   1.767   0.228  12.111
14673TIP3    H165510   1.807   0.250  12.195
14673TIP3    H265511   1.690   0.176  12.134
14674TIP3   OH265512   3.794   2.483   2.557
14674TIP3    H165513   3.723   2.528   2.512
14674TIP3    H265514   3.860   2.551   2.573
14675TIP3   OH265515   6.610   6.334   2.131
14675TIP3    H165516   6.584   6.308   2.219
14675TIP3    H265517   6.535   6.311   2.076
14676TIP3   OH265518   5.447   0.456  13.926
14676TIP3    H165519   5.502   0.474  13.849
14676TIP3    H265520   5.454   0.361  13.937
14677TIP3   OH265521   4.035   3.614  16.940
14677TIP3    H165522   4.027   3.615  17.035
14677TIP3    H265523   3.947   3.591  16.909
14678TIP3   OH265524   1.079   3.454   6.395
14678TIP3    H165525   1.146   3.508   6.437
14678TIP3    H265526   1.090   3.368   6.434
14679TIP3   OH265527   3.548   5.947  16.607
14679TIP3    H165528   3.474   6.003  16.582
14679TIP3    H265529   3.517   5.901  16.685
14680TIP3   OH265530   6.669   2.059  17.288
14680TIP3    H165531   6.752   2.091  17.323
14680TIP3    H265532   6.676   2.070  17.194
14681TIP3   OH265533   3.625   2.012  16.753
14681TIP3    H165534   3.693   2.034  16.817
14681TIP3    H265535   3.553   2.071  16.774
14682TIP3   OH265536   1.279   2.249   0.634
14682TIP3    H165537   1.323   2.290   0.708
14682TIP3    H265538   1.263   2.159   0.663
14683TIP3   OH265539   3.373   3.730  14.043
14683TIP3    H165540   3.448   3.786  14.066
14683TIP3    H265541   3.412   3.646  14.021
14684TIP3   OH265542   3.659   2.825  13.359
14684TIP3    H165543   3.598   2.758  13.389
14684TIP3    H265544   3.703   2.855  13.438
14685TIP3   OH265545   3.103   2.397   1.256
14685TIP3    H165546   3.093   2.325   1.195
14685TIP3    H265547   3.156   2.362   1.327
14686TIP3   OH265548   5.182   3.224  12.036
14686TIP3    H165549   5.094   3.248  12.063
14686TIP3    H265550   5.179   3.128  12.027
14687TIP3   OH265551   1.206   3.131   3.264
14687TIP3    H165552   1.269   3.139   3.336
14687TIP3    H265553   1.155   3.053   3.285
14688TIP3   OH265554   4.275   5.091  16.807
14688TIP3    H165555   4.260   4.997  16.798
14688TIP3    H265556   4.370   5.100  16.806
14689TIP3   OH265557   5.769   2.889  14.167
14689TIP3    H165558   5.799   2.805  14.134
14689TIP3    H265559   5.681   2.872  14.201
14690TIP3   OH265560   5.551   0.726  11.824
14690TIP3    H165561   5.516   0.645  11.785
14690TIP3    H265562   5.476   0.784  11.831
14691TIP3   OH265563   3.347   2.687  10.854
14691TIP3    H165564   3.290   2.648  10.920
14691TIP3    H265565   3.336   2.633  10.777
14692TIP3   OH265566   4.404   3.176  14.945
14692TIP3    H165567   4.315   3.196  14.974
14692TIP3    H265568   4.426   3.247  14.884
14693TIP3   OH265569   0.064   4.599  13.959
14693TIP3    H165570   0.056   4.690  13.929
14693TIP3    H265571  -0.000   4.592  14.030
14694TIP3   OH265572   4.389   6.126  15.198
14694TIP3    H165573   4.317   6.151  15.141
14694TIP3    H265574   4.353   6.134  15.287
14695TIP3   OH265575   4.869   4.180  13.909
14695TIP3    H165576   4.786   4.169  13.956
14695TIP3    H265577   4.934   4.189  13.978
14696TIP3   OH265578   2.318   3.159  12.232
14696TIP3    H165579   2.367   3.103  12.171
14696TIP3    H265580   2.235   3.175  12.188
14697TIP3   OH265581   1.532   3.905  17.206
14697TIP3    H165582   1.619   3.881  17.175
14697TIP3    H265583   1.480   3.825  17.197
14698TIP3   OH265584   0.030   3.287  13.115
14698TIP3    H165585   0.112   3.238  13.121
14698TIP3    H265586   0.045   3.365  13.170
14699TIP3   OH265587   5.615   0.560  14.514
14699TIP3    H165588   5.646   0.639  14.560
14699TIP3    H265589   5.663   0.489  14.555
14700TIP3   OH265590   0.832   6.337  12.515
14700TIP3    H165591   0.861   6.253  12.550
14700TIP3    H265592   0.763   6.366  12.574
14701TIP3   OH265593   5.900   3.378  17.244
14701TIP3    H165594   5.905   3.284  17.263
14701TIP3    H265595   5.863   3.416  17.324
14702TIP3   OH265596   0.254   5.637  16.268
14702TIP3    H165597   0.266   5.637  16.173
14702TIP3    H265598   0.264   5.729  16.293
14703TIP3   OH265599   6.385   2.934  15.284
14703TIP3    H165600   6.402   2.844  15.258
14703TIP3    H265601   6.365   2.980  15.202
14704TIP3   OH265602   2.496   0.852   1.387
14704TIP3    H165603   2.548   0.807   1.321
14704TIP3    H265604   2.453   0.923   1.340
14705TIP3   OH265605   0.592   0.291  15.417
14705TIP3    H165606   0.530   0.218  15.416
14705TIP3    H265607   0.649   0.272  15.492
14706TIP3   OH265608   4.854   3.565  10.269
14706TIP3    H165609   4.774   3.527  10.233
14706TIP3    H265610   4.919   3.495  10.262
14707TIP3   OH265611   1.040   2.617   1.100
14707TIP3    H165612   1.016   2.709   1.098
14707TIP3    H265613   1.044   2.594   1.193
14708TIP3   OH265614   0.211   6.530  14.844
14708TIP3    H165615   0.234   6.451  14.796
14708TIP3    H265616   0.116   6.525  14.854
14709TIP3   OH265617   6.335   6.511  16.704
14709TIP3    H165618   6.407   6.452  16.682
14709TIP3    H265619   6.364   6.557  16.782
14710TIP3   OH265620   1.824   6.659   3.229
14710TIP3    H165621   1.840   6.635   3.321
14710TIP3    H265622   1.843   6.753   3.225
14711TIP3   OH265623   4.318   4.500   4.294
14711TIP3    H165624   4.374   4.557   4.241
14711TIP3    H265625   4.380   4.447   4.345
14712TIP3   OH265626   6.402   1.868  16.940
14712TIP3    H165627   6.398   1.777  16.966
14712TIP3    H265628   6.491   1.881  16.909
14713TIP3   OH265629   1.874   0.490   3.684
14713TIP3    H165630   1.807   0.501   3.617
14713TIP3    H265631   1.825   0.490   3.767
14714TIP3   OH265632   5.715   4.215  17.192
14714TIP3    H165633   5.737   4.305  17.166
14714TIP3    H265634   5.793   4.165  17.169
14715TIP3   OH265635   3.988   5.875  14.447
14715TIP3    H165636   3.960   5.811  14.382
14715TIP3    H265637   3.996   5.825  14.528
14716TIP3   OH265638   1.346   2.341   1.382
14716TIP3    H165639   1.279   2.333   1.315
14716TIP3    H265640   1.423   2.373   1.336
14717TIP3   OH265641   6.218   5.308   4.016
14717TIP3    H165642   6.148   5.372   4.026
14717TIP3    H265643   6.260   5.304   4.102
14718TIP3   OH265644   3.363   2.363  11.723
14718TIP3    H165645   3.282   2.412  11.714
14718TIP3    H265646   3.423   2.422  11.768
14719TIP3   OH265647   6.135   1.451  11.950
14719TIP3    H165648   6.136   1.505  12.029
14719TIP3    H265649   6.144   1.361  11.983
14720TIP3   OH265650   5.731   5.417  12.955
14720TIP3    H165651   5.682   5.448  12.879
14720TIP3    H265652   5.663   5.388  13.017
14721TIP3   OH265653   0.166   5.514   2.398
14721TIP3    H165654   0.077   5.533   2.368
14721TIP3    H265655   0.161   5.425   2.432
14722TIP3   OH265656   1.522   5.387   4.493
14722TIP3    H165657   1.585   5.393   4.422
14722TIP3    H265658   1.456   5.324   4.461
14723TIP3   OH265659   2.800   2.904   4.908
14723TIP3    H165660   2.708   2.877   4.906
14723TIP3    H265661   2.824   2.905   5.000
14724TIP3   OH265662   4.889   6.154  15.863
14724TIP3    H165663   4.803   6.163  15.903
14724TIP3    H265664   4.914   6.063  15.878
14725TIP3   OH265665   0.317   3.734   2.626
14725TIP3    H165666   0.352   3.789   2.556
14725TIP3    H265667   0.390   3.723   2.687
14726TIP3   OH265668   0.485   3.042  16.009
14726TIP3    H165669   0.562   3.056  16.065
14726TIP3    H265670   0.505   2.961  15.961
14727TIP3   OH265671   0.294   4.310  13.841
14727TIP3    H165672   0.285   4.369  13.766
14727TIP3    H265673   0.242   4.351  13.910
14728TIP3   OH265674   5.246   4.226  15.967
14728TIP3    H165675   5.323   4.223  15.910
14728TIP3    H265676   5.179   4.268  15.913
14729TIP3   OH265677   6.508   4.520   1.019
14729TIP3    H165678   6.485   4.467   1.095
14729TIP3    H265679   6.553   4.459   0.961
14730TIP3   OH265680   2.443   5.900   5.055
14730TIP3    H165681   2.476   5.880   5.143
14730TIP3    H265682   2.518   5.942   5.011
14731TIP3   OH265683   1.502   0.338   6.212
14731TIP3    H165684   1.537   0.416   6.255
14731TIP3    H265685   1.579   0.291   6.180
14732TIP3   OH265686   4.650   2.365  12.730
14732TIP3    H165687   4.694   2.338  12.650
14732TIP3    H265688   4.578   2.303  12.739
14733TIP3   OH265689   0.805   2.491  15.223
14733TIP3    H165690   0.786   2.428  15.293
14733TIP3    H265691   0.751   2.462  15.149
14734TIP3   OH265692   0.287   5.015  15.527
14734TIP3    H165693   0.295   5.097  15.478
14734TIP3    H265694   0.378   4.987  15.541
14735TIP3   OH265695   5.916   2.873   0.697
14735TIP3    H165696   5.951   2.841   0.613
14735TIP3    H265697   5.915   2.795   0.753
14736TIP3   OH265698   0.583   5.690  12.451
14736TIP3    H165699   0.529   5.740  12.390
14736TIP3    H265700   0.665   5.739  12.456
14737TIP3   OH265701   4.191   5.030  12.886
14737TIP3    H165702   4.184   5.005  12.978
14737TIP3    H265703   4.118   5.092  12.873
14738TIP3   OH265704   6.355   1.719   5.848
14738TIP3    H165705   6.270   1.759   5.865
14738TIP3    H265706   6.402   1.785   5.796
14739TIP3   OH265707   2.035   3.249   2.699
14739TIP3    H165708   2.054   3.325   2.644
14739TIP3    H265709   1.964   3.278   2.757
14740TIP3   OH265710   6.048   1.774  11.859
14740TIP3    H165711   6.115   1.762  11.926
14740TIP3    H265712   6.043   1.868  11.846
14741TIP3   OH265713   1.391   4.707   0.230
14741TIP3    H165714   1.372   4.782   0.287
14741TIP3    H265715   1.486   4.694   0.239
14742TIP3   OH265716   2.042   2.050  17.198
14742TIP3    H165717   2.002   2.003  17.271
14742TIP3    H265718   2.133   2.063  17.224
14743TIP3   OH265719   4.489   2.321  13.854
14743TIP3    H165720   4.574   2.365  13.860
14743TIP3    H265721   4.427   2.392  13.840
14744TIP3   OH265722   3.445   5.474  12.381
14744TIP3    H165723   3.401   5.481  12.297
14744TIP3    H265724   3.457   5.380  12.394
14745TIP3   OH265725   5.549   1.578  11.462
14745TIP3    H165726   5.574   1.505  11.519
14745TIP3    H265727   5.453   1.574  11.458
14746TIP3   OH265728   2.615   5.234   4.453
14746TIP3    H165729   2.615   5.330   4.449
14746TIP3    H265730   2.696   5.213   4.501
14747TIP3   OH265731   5.407   1.557  11.936
14747TIP3    H165732   5.378   1.648  11.945
14747TIP3    H265733   5.333   1.504  11.963
14748TIP3   OH265734   1.667   5.167  11.476
14748TIP3    H165735   1.734   5.177  11.543
14748TIP3    H265736   1.705   5.109  11.411
14749TIP3   OH265737   5.489   6.284  12.974
14749TIP3    H165738   5.444   6.321  12.898
14749TIP3    H265739   5.580   6.314  12.965
14750TIP3   OH265740   4.854   1.555  15.027
14750TIP3    H165741   4.906   1.626  14.990
14750TIP3    H265742   4.916   1.483  15.038
14751TIP3   OH265743   0.313   1.313  13.960
14751TIP3    H165744   0.326   1.272  14.045
14751TIP3    H265745   0.225   1.349  13.964
14752TIP3   OH265746   0.868   5.885   2.213
14752TIP3    H165747   0.822   5.956   2.168
14752TIP3    H265748   0.953   5.880   2.171
14753TIP3   OH265749   3.884   3.444  16.118
14753TIP3    H165750   3.813   3.442  16.054
14753TIP3    H265751   3.848   3.491  16.194
14754TIP3   OH265752   5.995   2.345  14.184
14754TIP3    H165753   6.075   2.297  14.164
14754TIP3    H265754   6.019   2.437  14.176
14755TIP3   OH265755   6.716   4.432  12.629
14755TIP3    H165756   6.772   4.489  12.681
14755TIP3    H265757   6.698   4.482  12.549
14756TIP3   OH265758   0.156   1.928   4.012
14756TIP3    H165759   0.177   1.930   4.106
14756TIP3    H265760   0.241   1.936   3.969
14757TIP3   OH265761   2.936   3.555   1.391
14757TIP3    H165762   2.978   3.535   1.308
14757TIP3    H265763   2.914   3.648   1.386
14758TIP3   OH265764   5.232   4.149  12.079
14758TIP3    H165765   5.204   4.095  12.005
14758TIP3    H265766   5.302   4.204  12.043
14759TIP3   OH265767   5.660   0.849   5.725
14759TIP3    H165768   5.664   0.872   5.818
14759TIP3    H265769   5.571   0.817   5.712
14760TIP3   OH265770   5.903   4.516   1.465
14760TIP3    H165771   5.843   4.573   1.514
14760TIP3    H265772   5.868   4.428   1.477
14761TIP3   OH265773   2.529   4.168  13.262
14761TIP3    H165774   2.608   4.163  13.317
14761TIP3    H265775   2.475   4.234  13.305
14762TIP3   OH265776   0.899   4.354  14.810
14762TIP3    H165777   0.943   4.427  14.767
14762TIP3    H265778   0.941   4.348  14.896
14763TIP3   OH265779   4.150   5.634  14.784
14763TIP3    H165780   4.222   5.693  14.804
14763TIP3    H265781   4.088   5.687  14.735
14764TIP3   OH265782   6.420   0.257  14.694
14764TIP3    H165783   6.492   0.196  14.709
14764TIP3    H265784   6.435   0.291  14.606
14765TIP3   OH265785   4.432   4.398   0.527
14765TIP3    H165786   4.356   4.346   0.553
14765TIP3    H265787   4.489   4.337   0.481
14766TIP3   OH265788   5.901   6.659   3.707
14766TIP3    H165789   5.959   6.590   3.740
14766TIP3    H265790   5.961   6.727   3.674
14767TIP3   OH265791   4.294   4.382   1.824
14767TIP3    H165792   4.280   4.440   1.749
14767TIP3    H265793   4.323   4.299   1.786
14768TIP3   OH265794   0.369   2.839  16.253
14768TIP3    H165795   0.374   2.756  16.299
14768TIP3    H265796   0.447   2.840  16.197
14769TIP3   OH265797   0.765   1.975  10.546
14769TIP3    H165798   0.742   2.066  10.528
14769TIP3    H265799   0.781   1.937  10.460
14770TIP3   OH265800   4.892   4.310  15.392
14770TIP3    H165801   4.897   4.228  15.441
14770TIP3    H265802   4.928   4.376  15.452
14771TIP3   OH265803   2.128   6.063   1.676
14771TIP3    H165804   2.146   6.147   1.634
14771TIP3    H265805   2.166   6.071   1.764
14772TIP3   OH265806   6.109   0.616  15.161
14772TIP3    H165807   6.019   0.584  15.156
14772TIP3    H265808   6.113   0.687  15.097
14773TIP3   OH265809   1.497   2.971  11.686
14773TIP3    H165810   1.423   2.993  11.742
14773TIP3    H265811   1.467   2.994  11.597
14774TIP3   OH265812   6.209   1.088  13.554
14774TIP3    H165813   6.159   1.008  13.536
14774TIP3    H265814   6.147   1.146  13.598
14775TIP3   OH265815   0.562   1.913  13.460
14775TIP3    H165816   0.474   1.878  13.471
14775TIP3    H265817   0.615   1.838  13.434
14776TIP3   OH265818   4.083   2.070  15.642
14776TIP3    H165819   4.145   2.053  15.571
14776TIP3    H265820   4.052   2.160  15.626
14777TIP3   OH265821   1.082   3.153  14.861
14777TIP3    H165822   1.019   3.219  14.891
14777TIP3    H265823   1.111   3.185  14.776
14778TIP3   OH265824   2.056   5.804  13.706
14778TIP3    H165825   2.135   5.790  13.759
14778TIP3    H265826   1.985   5.776  13.763
14779TIP3   OH265827   5.576   6.764  13.366
14779TIP3    H165828   5.640   6.800  13.305
14779TIP3    H265829   5.582   6.669  13.355
14780TIP3   OH265830   0.502   1.000  16.201
14780TIP3    H165831   0.551   0.995  16.283
14780TIP3    H265832   0.538   1.077  16.157
14781TIP3   OH265833   4.218   1.252   0.660
14781TIP3    H165834   4.252   1.299   0.736
14781TIP3    H265835   4.220   1.160   0.685
14782TIP3   OH265836   2.589   1.698   0.124
14782TIP3    H165837   2.678   1.676   0.153
14782TIP3    H265838   2.569   1.780   0.170
14783TIP3   OH265839   2.114   4.992   4.701
14783TIP3    H165840   2.167   5.015   4.625
14783TIP3    H265841   2.032   5.040   4.687
14784TIP3   OH265842   4.026   6.270  13.511
14784TIP3    H165843   3.945   6.301  13.470
14784TIP3    H265844   4.088   6.265  13.438
14785TIP3   OH265845   5.081   5.544  16.188
14785TIP3    H165846   5.032   5.477  16.236
14785TIP3    H265847   5.102   5.501  16.104
14786TIP3   OH265848   1.584   5.001   6.379
14786TIP3    H165849   1.561   4.909   6.371
14786TIP3    H265850   1.505   5.048   6.351
14787TIP3   OH265851   1.884   6.641   1.516
14787TIP3    H165852   1.835   6.640   1.598
14787TIP3    H265853   1.817   6.627   1.449
14788TIP3   OH265854   5.257   3.756   0.432
14788TIP3    H165855   5.287   3.807   0.357
14788TIP3    H265856   5.330   3.697   0.451
14789TIP3   OH265857   5.098   5.407  11.687
14789TIP3    H165858   5.068   5.360  11.609
14789TIP3    H265859   5.085   5.345  11.759
14790TIP3   OH265860   5.856   0.020   4.779
14790TIP3    H165861   5.770   0.012   4.737
14790TIP3    H265862   5.870   0.115   4.787
14791TIP3   OH265863   0.678   3.111  14.022
14791TIP3    H165864   0.636   3.030  13.993
14791TIP3    H265865   0.748   3.082  14.081
14792TIP3   OH265866   1.411   2.925  16.941
14792TIP3    H165867   1.436   2.871  17.016
14792TIP3    H265868   1.485   2.984  16.928
14793TIP3   OH265869   2.468   3.059  14.123
14793TIP3    H165870   2.478   3.130  14.060
14793TIP3    H265871   2.388   3.082  14.172
14794TIP3   OH265872   2.552   1.692   0.875
14794TIP3    H165873   2.570   1.636   0.950
14794TIP3    H265874   2.538   1.779   0.912
14795TIP3   OH265875   2.033   2.731   3.862
14795TIP3    H165876   2.056   2.776   3.781
14795TIP3    H265877   2.117   2.702   3.898
14796TIP3   OH265878   1.705   5.965   1.584
14796TIP3    H165879   1.621   5.918   1.591
14796TIP3    H265880   1.715   6.007   1.669
14797TIP3   OH265881   5.767   4.704  15.737
14797TIP3    H165882   5.832   4.634  15.736
14797TIP3    H265883   5.798   4.767  15.672
14798TIP3   OH265884   2.846   2.666  16.662
14798TIP3    H165885   2.804   2.593  16.706
14798TIP3    H265886   2.804   2.744  16.700
14799TIP3   OH265887   0.150   0.188  15.203
14799TIP3    H165888   0.079   0.233  15.249
14799TIP3    H265889   0.204   0.150  15.273
14800TIP3   OH265890   2.240   5.782  13.929
14800TIP3    H165891   2.231   5.878  13.924
14800TIP3    H265892   2.191   5.758  14.007
14801TIP3   OH265893   6.617   0.988   5.508
14801TIP3    H165894   6.523   1.005   5.508
14801TIP3    H265895   6.655   1.063   5.555
14802TIP3   OH265896   0.982   6.149  13.613
14802TIP3    H165897   0.943   6.125  13.697
14802TIP3    H265898   0.964   6.243  13.604
14803TIP3   OH265899   3.640   2.390   5.576
14803TIP3    H165900   3.545   2.389   5.558
14803TIP3    H265901   3.677   2.335   5.507
14804TIP3   OH265902   0.519   0.352   1.754
14804TIP3    H165903   0.561   0.412   1.693
14804TIP3    H265904   0.554   0.376   1.840
14805TIP3   OH265905   4.364   0.429  16.923
14805TIP3    H165906   4.433   0.485  16.887
14805TIP3    H265907   4.322   0.483  16.989
14806TIP3   OH265908   0.811   1.261   3.588
14806TIP3    H165909   0.847   1.224   3.669
14806TIP3    H265910   0.882   1.254   3.524
14807TIP3   OH265911   3.133   3.883   0.375
14807TIP3    H165912   3.126   3.885   0.471
14807TIP3    H265913   3.042   3.880   0.345
14808TIP3   OH265914   6.373   6.606  13.724
14808TIP3    H165915   6.461   6.642  13.721
14808TIP3    H265916   6.315   6.682  13.711
14809TIP3   OH265917   2.388   2.283  14.260
14809TIP3    H165918   2.296   2.310  14.247
14809TIP3    H265919   2.383   2.194  14.293
14810TIP3   OH265920   5.187   1.210  15.935
14810TIP3    H165921   5.127   1.174  15.870
14810TIP3    H265922   5.254   1.142  15.947
14811TIP3   OH265923   0.884   4.427   3.760
14811TIP3    H165924   0.921   4.497   3.705
14811TIP3    H265925   0.936   4.429   3.840
14812TIP3   OH265926   0.813   3.948   1.767
14812TIP3    H165927   0.867   3.915   1.696
14812TIP3    H265928   0.867   3.938   1.845
14813TIP3   OH265929   3.658   1.313   3.526
14813TIP3    H165930   3.617   1.337   3.609
14813TIP3    H265931   3.718   1.242   3.549
14814TIP3   OH265932   1.445   1.991  17.035
14814TIP3    H165933   1.432   2.021  16.945
14814TIP3    H265934   1.539   2.001  17.050
14815TIP3   OH265935   0.265   6.459   4.403
14815TIP3    H165936   0.344   6.460   4.457
14815TIP3    H265937   0.194   6.479   4.465
14816TIP3   OH265938   3.288   5.057   0.351
14816TIP3    H165939   3.339   5.126   0.308
14816TIP3    H265940   3.259   5.000   0.280
14817TIP3   OH265941   2.402   0.616   5.091
14817TIP3    H165942   2.363   0.663   5.017
14817TIP3    H265943   2.475   0.568   5.053
14818TIP3   OH265944   2.487   5.991   3.623
14818TIP3    H165945   2.507   5.979   3.530
14818TIP3    H265946   2.425   5.920   3.643
14819TIP3   OH265947   2.492   6.215   6.241
14819TIP3    H165948   2.414   6.228   6.187
14819TIP3    H265949   2.478   6.130   6.282
14820TIP3   OH265950   0.557   0.741  13.318
14820TIP3    H165951   0.463   0.737  13.301
14820TIP3    H265952   0.597   0.720  13.234
14821TIP3   OH265953   5.770   4.529   6.131
14821TIP3    H165954   5.696   4.475   6.157
14821TIP3    H265955   5.748   4.559   6.043
14822TIP3   OH265956   3.463   2.184  13.872
14822TIP3    H165957   3.526   2.176  13.943
14822TIP3    H265958   3.516   2.211  13.796
14823TIP3   OH265959   4.800   0.382  13.868
14823TIP3    H165960   4.761   0.296  13.851
14823TIP3    H265961   4.736   0.427  13.922
14824TIP3   OH265962   5.912   1.553   0.098
14824TIP3    H165963   5.960   1.513   0.026
14824TIP3    H265964   5.944   1.508   0.176
14825TIP3   OH265965   1.938   0.743   3.753
14825TIP3    H165966   1.928   0.654   3.719
14825TIP3    H265967   1.940   0.799   3.676
14826TIP3   OH265968   2.376   4.414  12.406
14826TIP3    H165969   2.456   4.412  12.353
14826TIP3    H265970   2.308   4.377  12.349
14827TIP3   OH265971   4.227   6.247   5.226
14827TIP3    H165972   4.192   6.271   5.140
14827TIP3    H265973   4.250   6.154   5.217
14828TIP3   OH265974   3.054   2.088  16.374
14828TIP3    H165975   3.122   2.155  16.365
14828TIP3    H265976   3.084   2.016  16.319
14829TIP3   OH265977   5.870   6.569  16.718
14829TIP3    H165978   5.881   6.559  16.812
14829TIP3    H265979   5.775   6.575  16.706
14830TIP3   OH265980   0.747   0.413   2.810
14830TIP3    H165981   0.754   0.330   2.763
14830TIP3    H265982   0.786   0.395   2.895
14831TIP3   OH265983   3.829   6.685   2.988
14831TIP3    H165984   3.828   6.607   2.932
14831TIP3    H265985   3.738   6.714   2.989
14832TIP3   OH265986   5.539   5.559   0.465
14832TIP3    H165987   5.459   5.547   0.516
14832TIP3    H265988   5.597   5.489   0.494
14833TIP3   OH265989   0.017   4.943   3.979
14833TIP3    H165990   0.111   4.929   3.990
14833TIP3    H265991   0.008   5.038   3.969
14834TIP3   OH265992   1.473   4.739   6.108
14834TIP3    H165993   1.544   4.736   6.044
14834TIP3    H265994   1.418   4.811   6.078
14835TIP3   OH265995   3.362   0.174   6.257
14835TIP3    H165996   3.269   0.198   6.265
14835TIP3    H265997   3.364   0.112   6.185
14836TIP3   OH265998   2.241   0.594  11.312
14836TIP3    H165999   2.260   0.538  11.237
14836TIP3    H266000   2.197   0.536  11.375
14837TIP3   OH266001   3.216   6.311   2.822
14837TIP3    H166002   3.304   6.286   2.851
14837TIP3    H266003   3.202   6.397   2.862
14838TIP3   OH266004   5.690   2.802   2.226
14838TIP3    H166005   5.762   2.792   2.164
14838TIP3    H266006   5.682   2.896   2.239
14839TIP3   OH266007   1.025   1.882   0.482
14839TIP3    H166008   0.952   1.942   0.496
14839TIP3    H266009   0.985   1.795   0.491
14840TIP3   OH266010   3.728   0.063  14.719
14840TIP3    H166011   3.683   0.014  14.787
14840TIP3    H266012   3.820   0.063  14.745
14841TIP3   OH266013   5.886   2.571   5.705
14841TIP3    H166014   5.834   2.511   5.650
14841TIP3    H266015   5.837   2.576   5.787
14842TIP3   OH266016   2.053   1.987  15.041
14842TIP3    H166017   2.069   1.897  15.012
14842TIP3    H266018   2.096   2.041  14.975
14843TIP3   OH266019   2.851   2.901  14.395
14843TIP3    H166020   2.769   2.950  14.389
14843TIP3    H266021   2.859   2.856  14.311
14844TIP3   OH266022   4.140   1.647   4.677
14844TIP3    H166023   4.228   1.683   4.689
14844TIP3    H266024   4.150   1.577   4.613
14845TIP3   OH266025   0.652   2.095   2.393
14845TIP3    H166026   0.561   2.121   2.404
14845TIP3    H266027   0.696   2.174   2.362
14846TIP3   OH266028   2.534   5.844  12.112
14846TIP3    H166029   2.615   5.805  12.144
14846TIP3    H266030   2.562   5.909  12.048
14847TIP3   OH266031   4.725   0.987  14.457
14847TIP3    H166032   4.724   0.897  14.489
14847TIP3    H266033   4.674   0.985  14.377
14848TIP3   OH266034   4.139   6.515  14.506
14848TIP3    H166035   4.121   6.571  14.581
14848TIP3    H266036   4.222   6.547  14.470
14849TIP3   OH266037   3.662   1.961  10.833
14849TIP3    H166038   3.739   2.011  10.858
14849TIP3    H266039   3.611   1.952  10.914
14850TIP3   OH266040   3.111   2.983   6.267
14850TIP3    H166041   3.069   2.915   6.319
14850TIP3    H266042   3.205   2.973   6.286
14851TIP3   OH266043   2.174   0.883   0.163
14851TIP3    H166044   2.213   0.899   0.076
14851TIP3    H266045   2.219   0.945   0.220
14852TIP3   OH266046   3.938   4.214   2.450
14852TIP3    H166047   4.019   4.223   2.400
14852TIP3    H266048   3.964   4.226   2.541
14853TIP3   OH266049   4.056   4.281   4.423
14853TIP3    H166050   4.018   4.227   4.355
14853TIP3    H266051   4.040   4.232   4.504
14854TIP3   OH266052   0.270   6.451  16.331
14854TIP3    H166053   0.189   6.431  16.285
14854TIP3    H266054   0.256   6.419  16.420
14855TIP3   OH266055   5.410   3.195  15.600
14855TIP3    H166056   5.410   3.102  15.579
14855TIP3    H266057   5.322   3.210  15.637
14856TIP3   OH266058   1.811   3.769   1.339
14856TIP3    H166059   1.843   3.686   1.374
14856TIP3    H266060   1.729   3.785   1.386
14857TIP3   OH266061   1.544   1.339  11.650
14857TIP3    H166062   1.477   1.273  11.629
14857TIP3    H266063   1.627   1.294  11.633
14858TIP3   OH266064   5.926   2.535   1.847
14858TIP3    H166065   5.957   2.446   1.829
14858TIP3    H266066   5.848   2.545   1.792
14859TIP3   OH266067   0.810   3.948  16.366
14859TIP3    H166068   0.752   3.932  16.292
14859TIP3    H266069   0.867   4.019  16.337
14860TIP3   OH266070   2.651   3.832  15.555
14860TIP3    H166071   2.631   3.909  15.502
14860TIP3    H266072   2.746   3.831  15.560
14861TIP3   OH266073   3.496   2.401  12.869
14861TIP3    H166074   3.419   2.441  12.828
14861TIP3    H266075   3.495   2.310  12.839
14862TIP3   OH266076   3.869   2.472  14.812
14862TIP3    H166077   3.778   2.449  14.831
14862TIP3    H266078   3.897   2.408  14.747
14863TIP3   OH266079   2.369   2.651   2.430
14863TIP3    H166080   2.279   2.682   2.425
14863TIP3    H266081   2.405   2.666   2.342
14864TIP3   OH266082   0.583   4.223   5.741
14864TIP3    H166083   0.489   4.236   5.726
14864TIP3    H266084   0.625   4.258   5.663
14865TIP3   OH266085   0.448   4.246   2.578
14865TIP3    H166086   0.499   4.272   2.655
14865TIP3    H266087   0.475   4.309   2.510
14866TIP3   OH266088   2.394   3.998  12.547
14866TIP3    H166089   2.340   4.064  12.505
14866TIP3    H266090   2.371   4.002  12.640
14867TIP3   OH266091   1.752   4.775  15.221
14867TIP3    H166092   1.833   4.773  15.272
14867TIP3    H266093   1.772   4.832  15.147
14868TIP3   OH266094   0.539   0.334   4.431
14868TIP3    H166095   0.485   0.394   4.380
14868TIP3    H266096   0.498   0.249   4.420
14869TIP3   OH266097   4.312   3.342  11.130
14869TIP3    H166098   4.313   3.382  11.217
14869TIP3    H266099   4.219   3.325  11.113
14870TIP3   OH266100   4.842   2.679   3.506
14870TIP3    H166101   4.803   2.655   3.590
14870TIP3    H266102   4.936   2.686   3.524
14871TIP3   OH266103   5.978   2.244   2.735
14871TIP3    H166104   5.925   2.322   2.753
14871TIP3    H266105   5.968   2.230   2.641
14872TIP3   OH266106   4.873   1.838   5.168
14872TIP3    H166107   4.825   1.911   5.128
14872TIP3    H266108   4.854   1.763   5.112
14873TIP3   OH266109   5.493   5.799   1.911
14873TIP3    H166110   5.415   5.800   1.857
14873TIP3    H266111   5.540   5.719   1.885
14874TIP3   OH266112   6.029   6.819  12.711
14874TIP3    H166113   6.004   6.911  12.701
14874TIP3    H266114   5.971   6.786  12.779
14875TIP3   OH266115   2.319   6.547   1.840
14875TIP3    H166116   2.390   6.519   1.782
14875TIP3    H266117   2.239   6.531   1.791
14876TIP3   OH266118   5.405   3.142   1.890
14876TIP3    H166119   5.491   3.175   1.865
14876TIP3    H266120   5.346   3.170   1.820
14877TIP3   OH266121   5.310   5.304  15.329
14877TIP3    H166122   5.268   5.388  15.312
14877TIP3    H266123   5.385   5.326  15.385
14878TIP3   OH266124   2.777   3.352  11.956
14878TIP3    H166125   2.715   3.406  11.908
14878TIP3    H266126   2.812   3.292  11.889
14879TIP3   OH266127   2.297   4.460  16.067
14879TIP3    H166128   2.236   4.457  15.993
14879TIP3    H266129   2.263   4.530  16.123
14880TIP3   OH266130   4.950   3.059   6.476
14880TIP3    H166131   5.044   3.040   6.476
14880TIP3    H266132   4.926   3.059   6.569
14881TIP3   OH266133   2.192   5.802  14.727
14881TIP3    H166134   2.154   5.785  14.813
14881TIP3    H266135   2.127   5.769  14.665
14882TIP3   OH266136   4.958   2.939  14.331
14882TIP3    H166137   5.001   2.967  14.412
14882TIP3    H266138   5.019   2.877  14.292
14883TIP3   OH266139   6.367   6.710  14.721
14883TIP3    H166140   6.391   6.769  14.649
14883TIP3    H266141   6.450   6.689  14.764
14884TIP3   OH266142   6.351   0.543   0.924
14884TIP3    H166143   6.312   0.630   0.929
14884TIP3    H266144   6.365   0.528   0.830
14885TIP3   OH266145   1.310   2.829  14.024
14885TIP3    H166146   1.349   2.825  13.937
14885TIP3    H266147   1.294   2.922  14.039
14886TIP3   OH266148   1.235   5.182   5.480
14886TIP3    H166149   1.240   5.275   5.461
14886TIP3    H266150   1.239   5.139   5.394
14887TIP3   OH266151   6.797   2.678  14.002
14887TIP3    H166152   6.867   2.707  14.061
14887TIP3    H266153   6.768   2.758  13.958
14888TIP3   OH266154   5.264   3.003   5.144
14888TIP3    H166155   5.340   2.950   5.120
14888TIP3    H266156   5.213   2.947   5.203
14889TIP3   OH266157   6.717   4.666  12.405
14889TIP3    H166158   6.808   4.681  12.431
14889TIP3    H266159   6.689   4.749  12.367
14890TIP3   OH266160   5.969   0.090   4.282
14890TIP3    H166161   5.899   0.044   4.236
14890TIP3    H266162   5.944   0.087   4.374
14891TIP3   OH266163   5.083   6.254  14.990
14891TIP3    H166164   5.057   6.163  14.980
14891TIP3    H266165   5.177   6.252  15.004
14892TIP3   OH266166   4.368   2.779  12.354
14892TIP3    H166167   4.367   2.798  12.448
14892TIP3    H266168   4.291   2.825  12.320
14893TIP3   OH266169   5.234   0.026   4.951
14893TIP3    H166170   5.191  -0.010   4.874
14893TIP3    H266171   5.207  -0.032   5.022
14894TIP3   OH266172   1.929   4.896   0.649
14894TIP3    H166173   2.021   4.892   0.675
14894TIP3    H266174   1.915   4.987   0.623
14895TIP3   OH266175   0.371   0.519   5.572
14895TIP3    H166176   0.390   0.557   5.658
14895TIP3    H266177   0.278   0.499   5.574
14896TIP3   OH266178   0.558   5.394   0.542
14896TIP3    H166179   0.525   5.314   0.584
14896TIP3    H266180   0.606   5.439   0.612
14897TIP3   OH266181   1.148   3.120   5.708
14897TIP3    H166182   1.242   3.133   5.722
14897TIP3    H266183   1.107   3.198   5.746
14898TIP3   OH266184   1.747   6.105  14.032
14898TIP3    H166185   1.796   6.114  14.114
14898TIP3    H266186   1.675   6.046  14.052
14899TIP3   OH266187   2.148   5.524  13.338
14899TIP3    H166188   2.237   5.499  13.313
14899TIP3    H266189   2.092   5.464  13.290
14900TIP3   OH266190   3.040   0.919   1.323
14900TIP3    H166191   2.970   0.881   1.376
14900TIP3    H266192   3.112   0.856   1.331
14901TIP3   OH266193   0.427   0.767  12.799
14901TIP3    H166194   0.381   0.764  12.716
14901TIP3    H266195   0.425   0.859  12.825
14902TIP3   OH266196   5.967   4.497  11.291
14902TIP3    H166197   6.032   4.546  11.341
14902TIP3    H266198   5.899   4.561  11.270
14903TIP3   OH266199   5.287   4.705  12.464
14903TIP3    H166200   5.301   4.651  12.542
14903TIP3    H266201   5.212   4.666  12.420
14904TIP3   OH266202   3.050   4.558   6.090
14904TIP3    H166203   3.036   4.627   6.155
14904TIP3    H266204   3.056   4.477   6.140
14905TIP3   OH266205   0.521   1.468  15.106
14905TIP3    H166206   0.515   1.389  15.159
14905TIP3    H266207   0.614   1.491  15.106
14906TIP3   OH266208   5.630   5.439  12.661
14906TIP3    H166209   5.703   5.445  12.599
14906TIP3    H266210   5.611   5.346  12.666
14907TIP3   OH266211   0.803   1.844   3.909
14907TIP3    H166212   0.757   1.868   3.828
14907TIP3    H266213   0.883   1.896   3.908
14908TIP3   OH266214   3.948   1.198  15.463
14908TIP3    H166215   3.906   1.272  15.418
14908TIP3    H266216   3.948   1.223  15.555
14909TIP3   OH266217   5.737   3.551   3.724
14909TIP3    H166218   5.670   3.489   3.752
14909TIP3    H266219   5.811   3.496   3.699
14910TIP3   OH266220   6.523   2.665  16.803
14910TIP3    H166221   6.594   2.650  16.741
14910TIP3    H266222   6.528   2.591  16.863
14911TIP3   OH266223   6.004   3.009  15.197
14911TIP3    H166224   6.027   2.931  15.248
14911TIP3    H266225   5.933   2.980  15.140
14912TIP3   OH266226   4.759   1.912  12.473
14912TIP3    H166227   4.835   1.935  12.527
14912TIP3    H266228   4.782   1.942  12.385
14913TIP3   OH266229   0.032   0.312  15.414
14913TIP3    H166230   0.018   0.404  15.433
14913TIP3    H266231   0.001   0.266  15.492
14914TIP3   OH266232   1.623   5.928  16.971
14914TIP3    H166233   1.603   5.861  17.037
14914TIP3    H266234   1.582   6.008  17.005
14915TIP3   OH266235   0.375   1.579   1.734
14915TIP3    H166236   0.332   1.518   1.794
14915TIP3    H266237   0.464   1.544   1.725
14916TIP3   OH266238   4.559   0.623  13.895
14916TIP3    H166239   4.508   0.681  13.838
14916TIP3    H266240   4.519   0.537  13.884
14917TIP3   OH266241   2.269   2.174  16.905
14917TIP3    H166242   2.320   2.130  16.973
14917TIP3    H266243   2.325   2.244  16.874
14918TIP3   OH266244   2.770   1.156  13.253
14918TIP3    H166245   2.691   1.109  13.226
14918TIP3    H266246   2.841   1.110  13.209
14919TIP3   OH266247   2.208   4.546   2.743
14919TIP3    H166248   2.156   4.626   2.753
14919TIP3    H266249   2.151   4.476   2.774
14920TIP3   OH266250   2.127   4.952   3.206
14920TIP3    H166251   2.132   4.956   3.302
14920TIP3    H266252   2.156   4.863   3.185
14921TIP3   OH266253   3.158   3.151  15.707
14921TIP3    H166254   3.222   3.187  15.645
14921TIP3    H266255   3.101   3.226  15.728
14922TIP3   OH266256   0.574   2.125  17.272
14922TIP3    H166257   0.669   2.121  17.262
14922TIP3    H266258   0.539   2.104  17.185
14923TIP3   OH266259   1.743   4.706   2.993
14923TIP3    H166260   1.831   4.706   2.955
14923TIP3    H266261   1.752   4.751   3.077
14924TIP3   OH266262   1.018   2.528   3.639
14924TIP3    H166263   1.054   2.615   3.624
14924TIP3    H266264   0.925   2.543   3.655
14925TIP3   OH266265   3.812   4.718  13.393
14925TIP3    H166266   3.803   4.693  13.301
14925TIP3    H266267   3.771   4.646  13.441
14926TIP3   OH266268   0.193   2.534   2.515
14926TIP3    H166269   0.174   2.551   2.422
14926TIP3    H266270   0.132   2.465   2.540
14927TIP3   OH266271   0.817   2.608   5.841
14927TIP3    H166272   0.789   2.551   5.769
14927TIP3    H266273   0.745   2.603   5.904
14928TIP3   OH266274   4.270   3.096   2.873
14928TIP3    H166275   4.335   3.091   2.803
14928TIP3    H266276   4.186   3.102   2.827
14929TIP3   OH266277   3.590   4.466   3.485
14929TIP3    H166278   3.520   4.400   3.481
14929TIP3    H266279   3.622   4.462   3.575
14930TIP3   OH266280   2.965   5.617  11.595
14930TIP3    H166281   3.023   5.568  11.537
14930TIP3    H266282   2.896   5.554  11.619
14931TIP3   OH266283   4.720   3.669   5.777
14931TIP3    H166284   4.791   3.609   5.800
14931TIP3    H266285   4.653   3.612   5.739
14932TIP3   OH266286   3.875   3.014  13.435
14932TIP3    H166287   3.950   3.057  13.477
14932TIP3    H266288   3.903   2.999  13.345
14933TIP3   OH266289   1.675   2.054   2.966
14933TIP3    H166290   1.643   2.045   2.876
14933TIP3    H266291   1.752   1.997   2.969
14934TIP3   OH266292   1.200   3.408   2.873
14934TIP3    H166293   1.151   3.446   2.945
14934TIP3    H266294   1.135   3.359   2.822
14935TIP3   OH266295   1.041   2.688   4.725
14935TIP3    H166296   1.035   2.712   4.818
14935TIP3    H266297   1.132   2.661   4.713
14936TIP3   OH266298   2.910   4.261   4.560
14936TIP3    H166299   2.827   4.296   4.592
14936TIP3    H266300   2.886   4.179   4.516
14937TIP3   OH266301   2.261   0.323   3.084
14937TIP3    H166302   2.354   0.336   3.069
14937TIP3    H266303   2.221   0.335   2.998
14938TIP3   OH266304   2.468   4.322  11.860
14938TIP3    H166305   2.503   4.408  11.835
14938TIP3    H266306   2.375   4.336  11.873
14939TIP3   OH266307   1.189   5.217   0.651
14939TIP3    H166308   1.185   5.153   0.580
14939TIP3    H266309   1.172   5.167   0.731
14940TIP3   OH266310   1.166   6.205   5.749
14940TIP3    H166311   1.187   6.155   5.670
14940TIP3    H266312   1.073   6.223   5.742
14941TIP3   OH266313   0.284   4.832  17.285
14941TIP3    H166314   0.213   4.841  17.348
14941TIP3    H266315   0.242   4.800  17.205
14942TIP3   OH266316   4.344   3.068   1.299
14942TIP3    H166317   4.416   3.017   1.261
14942TIP3    H266318   4.380   3.101   1.382
14943TIP3   OH266319   3.534   2.760  12.119
14943TIP3    H166320   3.451   2.744  12.075
14943TIP3    H266321   3.582   2.678  12.109
14944TIP3   OH266322   3.570   6.780  16.745
14944TIP3    H166323   3.502   6.717  16.720
14944TIP3    H266324   3.528   6.865  16.734
14945TIP3   OH266325   4.173   2.513   3.390
14945TIP3    H166326   4.146   2.483   3.477
14945TIP3    H266327   4.121   2.592   3.375
14946TIP3   OH266328   3.689   3.796   9.978
14946TIP3    H166329   3.686   3.873  10.034
14946TIP3    H266330   3.598   3.765   9.975
14947TIP3   OH266331   0.878   2.645  14.468
14947TIP3    H166332   0.850   2.663  14.557
14947TIP3    H266333   0.800   2.609  14.425
14948TIP3   OH266334   4.604   5.990  17.251
14948TIP3    H166335   4.542   6.034  17.193
14948TIP3    H266336   4.652   5.930  17.193
14949TIP3   OH266337   1.063   1.827   1.725
14949TIP3    H166338   1.140   1.773   1.742
14949TIP3    H266339   1.059   1.889   1.798
14950TIP3   OH266340   0.974   2.687   1.632
14950TIP3    H166341   0.881   2.710   1.630
14950TIP3    H266342   0.978   2.607   1.684
14951TIP3   OH266343   1.584   2.319  11.110
14951TIP3    H166344   1.510   2.298  11.054
14951TIP3    H266345   1.656   2.337  11.049
14952TIP3   OH266346   5.485   0.126   1.985
14952TIP3    H166347   5.403   0.175   1.987
14952TIP3    H266348   5.544   0.173   2.044
14953TIP3   OH266349   1.036   6.278  13.928
14953TIP3    H166350   1.008   6.339  13.860
14953TIP3    H266351   0.960   6.221  13.942
14954TIP3   OH266352   6.066   3.297  11.057
14954TIP3    H166353   6.100   3.285  11.146
14954TIP3    H266354   6.138   3.272  11.000
14955TIP3   OH266355   5.208   6.647   5.137
14955TIP3    H166356   5.260   6.602   5.204
14955TIP3    H266357   5.128   6.596   5.130
14956TIP3   OH266358   1.641   0.599   2.657
14956TIP3    H166359   1.702   0.672   2.644
14956TIP3    H266360   1.585   0.628   2.729
14957TIP3   OH266361   6.121   0.083   0.125
14957TIP3    H166362   6.074   0.166   0.116
14957TIP3    H266363   6.052   0.018   0.138
14958TIP3   OH266364   0.916   2.126  16.657
14958TIP3    H166365   0.982   2.195  16.665
14958TIP3    H266366   0.924   2.096  16.567
14959TIP3   OH266367   4.822   6.168   0.644
14959TIP3    H166368   4.790   6.258   0.637
14959TIP3    H266369   4.863   6.151   0.560
14960TIP3   OH266370   2.356   4.291  14.867
14960TIP3    H166371   2.302   4.255  14.937
14960TIP3    H266372   2.353   4.225  14.798
14961TIP3   OH266373   6.398   2.341  13.940
14961TIP3    H166374   6.397   2.436  13.953
14961TIP3    H266375   6.420   2.329  13.848
14962TIP3   OH266376   6.445   0.012   4.270
14962TIP3    H166377   6.537   0.039   4.276
14962TIP3    H266378   6.398   0.092   4.247
14963TIP3   OH266379   0.267   0.036  12.821
14963TIP3    H166380   0.315   0.085  12.754
14963TIP3    H266381   0.227  -0.037  12.773
14964TIP3   OH266382   6.416   5.568  11.398
14964TIP3    H166383   6.361   5.613  11.334
14964TIP3    H266384   6.356   5.538  11.465
14965TIP3   OH266385   3.540   1.578  11.624
14965TIP3    H166386   3.468   1.517  11.642
14965TIP3    H266387   3.497   1.659  11.596
14966TIP3   OH266388   2.499   1.091   3.275
14966TIP3    H166389   2.478   1.145   3.199
14966TIP3    H266390   2.511   1.003   3.240
14967TIP3   OH266391   3.603   2.206  14.511
14967TIP3    H166392   3.516   2.199  14.472
14967TIP3    H266393   3.658   2.243  14.441
14968TIP3   OH266394   3.943   4.873   4.473
14968TIP3    H166395   4.022   4.863   4.419
14968TIP3    H266396   3.938   4.792   4.523
14969TIP3   OH266397   4.409   1.245   2.248
14969TIP3    H166398   4.384   1.264   2.338
14969TIP3    H266399   4.404   1.329   2.203
14970TIP3   OH266400   0.331   0.307   2.121
14970TIP3    H166401   0.312   0.352   2.203
14970TIP3    H266402   0.344   0.378   2.058
14971TIP3   OH266403   0.853   3.400  15.583
14971TIP3    H166404   0.800   3.390  15.504
14971TIP3    H266405   0.796   3.371  15.654
14972TIP3   OH266406   0.763   6.699   6.022
14972TIP3    H166407   0.840   6.643   6.013
14972TIP3    H266408   0.798   6.786   6.042
14973TIP3   OH266409   1.292   5.157  16.409
14973TIP3    H166410   1.290   5.217  16.334
14973TIP3    H266411   1.365   5.098  16.390
14974TIP3   OH266412   1.837   5.829   1.812
14974TIP3    H166413   1.743   5.825   1.831
14974TIP3    H266414   1.858   5.922   1.809
14975TIP3   OH266415   1.402   0.351  16.475
14975TIP3    H166416   1.497   0.364  16.467
14975TIP3    H266417   1.364   0.429  16.435
14976TIP3   OH266418   2.746   0.489   2.188
14976TIP3    H166419   2.706   0.480   2.102
14976TIP3    H266420   2.802   0.566   2.181
14977TIP3   OH266421   2.888   0.746   3.835
14977TIP3    H166422   2.836   0.812   3.789
14977TIP3    H266423   2.829   0.709   3.900
14978TIP3   OH266424   5.119   3.999  16.009
14978TIP3    H166425   5.173   3.976  16.085
14978TIP3    H266426   5.153   4.085  15.982
14979TIP3   OH266427   2.684   0.652  16.214
14979TIP3    H166428   2.679   0.652  16.309
14979TIP3    H266429   2.764   0.700  16.194
14980TIP3   OH266430   2.954   6.141   2.002
14980TIP3    H166431   2.961   6.202   1.928
14980TIP3    H266432   2.867   6.100   1.991
14981TIP3   OH266433   0.526   6.004   5.283
14981TIP3    H166434   0.506   5.924   5.331
14981TIP3    H266435   0.561   5.974   5.199
14982TIP3   OH266436   2.415   3.380   4.359
14982TIP3    H166437   2.469   3.422   4.425
14982TIP3    H266438   2.464   3.301   4.334
14983TIP3   OH266439   1.348   1.793  13.842
14983TIP3    H166440   1.383   1.704  13.837
14983TIP3    H266441   1.265   1.785  13.888
14984TIP3   OH266442   5.540   2.605   4.254
14984TIP3    H166443   5.509   2.674   4.314
14984TIP3    H266444   5.612   2.646   4.206
14985TIP3   OH266445   4.260   6.310  16.724
14985TIP3    H166446   4.191   6.328  16.660
14985TIP3    H266447   4.290   6.397  16.752
14986TIP3   OH266448   1.932   2.154  16.340
14986TIP3    H166449   1.953   2.061  16.327
14986TIP3    H266450   1.991   2.183  16.409
14987TIP3   OH266451   4.271   1.766  12.360
14987TIP3    H166452   4.351   1.714  12.354
14987TIP3    H266453   4.251   1.790  12.269
14988TIP3   OH266454   3.250   2.322   2.611
14988TIP3    H166455   3.330   2.282   2.646
14988TIP3    H266456   3.210   2.254   2.557
14989TIP3   OH266457   5.798   6.019   3.510
14989TIP3    H166458   5.746   6.068   3.446
14989TIP3    H266459   5.766   6.047   3.595
14990TIP3   OH266460   5.953   4.349  14.275
14990TIP3    H166461   6.017   4.421  14.280
14990TIP3    H266462   5.939   4.323  14.366
14991TIP3   OH266463   0.430   2.120  12.111
14991TIP3    H166464   0.402   2.084  12.195
14991TIP3    H266465   0.375   2.198  12.099
14992TIP3   OH266466   5.372   0.592  11.617
14992TIP3    H166467   5.459   0.572  11.585
14992TIP3    H266468   5.359   0.531  11.690
14993TIP3   OH266469   5.189   3.858   1.422
14993TIP3    H166470   5.188   3.771   1.382
14993TIP3    H266471   5.186   3.919   1.348
14994TIP3   OH266472   1.134   2.748  16.081
14994TIP3    H166473   1.108   2.730  15.990
14994TIP3    H266474   1.065   2.804  16.115
14995TIP3   OH266475   5.014   2.330  11.131
14995TIP3    H166476   4.996   2.404  11.073
14995TIP3    H266477   5.103   2.345  11.162
14996TIP3   OH266478   4.798   3.845   1.775
14996TIP3    H166479   4.887   3.864   1.744
14996TIP3    H266480   4.753   3.929   1.771
14997TIP3   OH266481   1.333   2.310  12.667
14997TIP3    H166482   1.369   2.222  12.663
14997TIP3    H266483   1.407   2.366  12.690
14998TIP3   OH266484   1.028   0.544  13.420
14998TIP3    H166485   1.024   0.458  13.461
14998TIP3    H266486   0.945   0.551  13.372
14999TIP3   OH266487   4.594   5.115  11.603
14999TIP3    H166488   4.524   5.177  11.585
14999TIP3    H266489   4.560   5.060  11.674
15000TIP3   OH266490   4.690   5.169  12.482
15000TIP3    H166491   4.611   5.175  12.428
15000TIP3    H266492   4.754   5.225  12.439
15001TIP3   OH266493   4.218   6.205   3.754
15001TIP3    H166494   4.239   6.113   3.769
15001TIP3    H266495   4.183   6.235   3.838
15002TIP3   OH266496   2.260   0.766  16.135
15002TIP3    H166497   2.205   0.688  16.134
15002TIP3    H266498   2.293   0.772  16.224
15003TIP3   OH266499   6.480   0.634  16.278
15003TIP3    H166500   6.562   0.592  16.302
15003TIP3    H266501   6.412   0.568  16.296
15004TIP3   OH266502   3.490   3.452   4.139
15004TIP3    H166503   3.444   3.424   4.218
15004TIP3    H266504   3.534   3.533   4.164
15005TIP3   OH266505   1.806   0.809  15.256
15005TIP3    H166506   1.833   0.723  15.287
15005TIP3    H266507   1.798   0.862  15.336
15006TIP3   OH266508   2.541   6.695  12.063
15006TIP3    H166509   2.606   6.669  11.999
15006TIP3    H266510   2.474   6.742  12.013
15007TIP3   OH266511   0.665   1.915  14.313
15007TIP3    H166512   0.627   1.945  14.231
15007TIP3    H266513   0.635   1.825  14.323
15008TIP3   OH266514   5.031   1.447   1.255
15008TIP3    H166515   4.959   1.383   1.256
15008TIP3    H266516   5.074   1.436   1.340
15009TIP3   OH266517   1.000   4.640   0.373
15009TIP3    H166518   0.975   4.696   0.300
15009TIP3    H266519   0.977   4.551   0.344
15010TIP3   OH266520   5.755   2.003  11.803
15010TIP3    H166521   5.682   2.001  11.865
15010TIP3    H266522   5.743   1.924  11.750
15011TIP3   OH266523   2.872   3.248  14.285
15011TIP3    H166524   2.874   3.344  14.292
15011TIP3    H266525   2.796   3.221  14.336
15012TIP3   OH266526   0.992   5.166   0.894
15012TIP3    H166527   0.934   5.089   0.893
15012TIP3    H266528   0.944   5.231   0.944
15013TIP3   OH266529   1.243   4.352   0.671
15013TIP3    H166530   1.236   4.441   0.635
15013TIP3    H266531   1.337   4.337   0.680
15014TIP3   OH266532   6.186   0.947   1.248
15014TIP3    H166533   6.100   0.977   1.217
15014TIP3    H266534   6.167   0.890   1.322
15015TIP3   OH266535   6.348   4.815   3.357
15015TIP3    H166536   6.273   4.810   3.416
15015TIP3    H266537   6.381   4.904   3.369
15016TIP3   OH266538   3.536   1.533  16.012
15016TIP3    H166539   3.514   1.614  16.057
15016TIP3    H266540   3.631   1.528  16.016
15017TIP3   OH266541   3.271   2.494   2.370
15017TIP3    H166542   3.297   2.460   2.285
15017TIP3    H266543   3.307   2.433   2.433
15018TIP3   OH266544   2.997   0.585  12.470
15018TIP3    H166545   3.081   0.612  12.433
15018TIP3    H266546   3.020   0.521  12.538
15019TIP3   OH266547   4.449   5.549  16.781
15019TIP3    H166548   4.477   5.614  16.716
15019TIP3    H266549   4.455   5.595  16.864
15020TIP3   OH266550   4.357   5.107   0.769
15020TIP3    H166551   4.369   5.113   0.864
15020TIP3    H266552   4.263   5.100   0.756
15021TIP3   OH266553   1.292   4.052   4.665
15021TIP3    H166554   1.273   3.966   4.702
15021TIP3    H266555   1.234   4.112   4.712
15022TIP3   OH266556   4.433   1.465   1.436
15022TIP3    H166557   4.425   1.389   1.379
15022TIP3    H266558   4.478   1.531   1.383
15023TIP3   OH266559   1.194   5.415   0.121
15023TIP3    H166560   1.139   5.445   0.049
15023TIP3    H266561   1.202   5.320   0.107
15024TIP3   OH266562   3.304   0.810   2.422
15024TIP3    H166563   3.311   0.722   2.459
15024TIP3    H266564   3.318   0.869   2.496
15025TIP3   OH266565   4.255   4.903   0.387
15025TIP3    H166566   4.229   4.848   0.312
15025TIP3    H266567   4.172   4.933   0.424
15026TIP3   OH266568   4.305   1.581  16.479
15026TIP3    H166569   4.320   1.656  16.536
15026TIP3    H266570   4.340   1.506  16.529
15027TIP3   OH266571   2.373   3.729  12.114
15027TIP3    H166572   2.381   3.634  12.109
15027TIP3    H266573   2.352   3.746  12.206
15028TIP3   OH266574   6.709   1.100   0.815
15028TIP3    H166575   6.799   1.068   0.807
15028TIP3    H266576   6.685   1.126   0.726
15029TIP3   OH266577   6.694   2.923   6.178
15029TIP3    H166578   6.766   2.949   6.236
15029TIP3    H266579   6.629   2.885   6.237
15030TIP3   OH266580   5.029   5.766  17.086
15030TIP3    H166581   5.110   5.807  17.058
15030TIP3    H266582   5.056   5.685  17.129
15031TIP3   OH266583   4.206   6.766   4.316
15031TIP3    H166584   4.198   6.858   4.289
15031TIP3    H266585   4.196   6.768   4.411
15032TIP3   OH266586   2.694   5.070  13.773
15032TIP3    H166587   2.765   5.131  13.795
15032TIP3    H266588   2.667   5.033  13.857
15033TIP3   OH266589   0.677   3.878   4.354
15033TIP3    H166590   0.695   3.908   4.443
15033TIP3    H266591   0.597   3.827   4.361
15034TIP3   OH266592   2.794   6.742  10.499
15034TIP3    H166593   2.881   6.721  10.465
15034TIP3    H266594   2.777   6.675  10.565
15035TIP3   OH266595   0.772   0.304   3.060
15035TIP3    H166596   0.815   0.274   3.140
15035TIP3    H266597   0.679   0.281   3.073
15036TIP3   OH266598   3.776   4.128   4.560
15036TIP3    H166599   3.794   4.161   4.472
15036TIP3    H266600   3.795   4.034   4.554
15037TIP3   OH266601   3.817   3.349  12.907
15037TIP3    H166602   3.803   3.254  12.905
15037TIP3    H266603   3.912   3.360  12.907
15038TIP3   OH266604   5.244   2.077  16.254
15038TIP3    H166605   5.241   1.982  16.263
15038TIP3    H266606   5.241   2.092  16.159
15039TIP3   OH266607   5.601   2.703   6.140
15039TIP3    H166608   5.571   2.785   6.100
15039TIP3    H266609   5.540   2.687   6.212
15040TIP3   OH266610   0.453   4.858  14.182
15040TIP3    H166611   0.431   4.914  14.108
15040TIP3    H266612   0.433   4.911  14.259
15041TIP3   OH266613   4.938   3.279   5.512
15041TIP3    H166614   4.887   3.242   5.584
15041TIP3    H266615   4.979   3.203   5.471
15042TIP3   OH266616   4.288   6.238  11.407
15042TIP3    H166617   4.375   6.246  11.446
15042TIP3    H266618   4.249   6.163  11.451
15043TIP3   OH266619   3.799   0.010   3.361
15043TIP3    H166620   3.815   0.082   3.300
15043TIP3    H266621   3.859  -0.059   3.334
15044TIP3   OH266622   5.662   4.634   1.550
15044TIP3    H166623   5.608   4.559   1.573
15044TIP3    H266624   5.601   4.698   1.515
15045TIP3   OH266625   4.448   5.320  12.579
15045TIP3    H166626   4.523   5.279  12.621
15045TIP3    H266627   4.485   5.386  12.521
15046TIP3   OH266628   0.523   6.247   4.358
15046TIP3    H166629   0.569   6.168   4.330
15046TIP3    H266630   0.520   6.302   4.279
15047TIP3   OH266631   3.469   6.006  11.125
15047TIP3    H166632   3.409   6.065  11.172
15047TIP3    H266633   3.420   5.924  11.116
15048TIP3   OH266634   5.916   4.183   2.796
15048TIP3    H166635   5.867   4.263   2.814
15048TIP3    H266636   5.862   4.137   2.731
15049TIP3   OH266637   0.252   2.025   5.414
15049TIP3    H166638   0.322   2.076   5.453
15049TIP3    H266639   0.222   1.966   5.484
15050TIP3   OH266640   5.088   6.706  14.911
15050TIP3    H166641   5.070   6.636  14.848
15050TIP3    H266642   5.062   6.669  14.996
15051TIP3   OH266643   1.353   1.103   5.291
15051TIP3    H166644   1.340   1.127   5.199
15051TIP3    H266645   1.327   1.011   5.295
15052TIP3   OH266646   3.401   4.905   2.526
15052TIP3    H166647   3.374   4.969   2.592
15052TIP3    H266648   3.326   4.846   2.518
15053TIP3   OH266649   3.119   5.483  12.204
15053TIP3    H166650   3.206   5.492  12.164
15053TIP3    H266651   3.066   5.549  12.160
15054TIP3   OH266652   0.930   0.828  13.340
15054TIP3    H166653   0.884   0.910  13.321
15054TIP3    H266654   0.976   0.807  13.259
15055TIP3   OH266655   2.949   4.570   0.629
15055TIP3    H166656   2.860   4.535   0.634
15055TIP3    H266657   2.997   4.524   0.697
15056TIP3   OH266658   0.770   4.005  13.170
15056TIP3    H166659   0.812   3.951  13.102
15056TIP3    H266660   0.843   4.037  13.223
15057TIP3   OH266661   4.740   3.615  14.575
15057TIP3    H166662   4.682   3.688  14.551
15057TIP3    H266663   4.828   3.647  14.555
15058TIP3   OH266664   3.710   4.693  13.871
15058TIP3    H166665   3.750   4.617  13.914
15058TIP3    H266666   3.659   4.735  13.941
15059TIP3   OH266667   3.554   3.529   3.080
15059TIP3    H166668   3.605   3.585   3.020
15059TIP3    H266669   3.620   3.480   3.129
15060TIP3   OH266670   6.619   5.744  15.437
15060TIP3    H166671   6.628   5.751  15.342
15060TIP3    H266672   6.543   5.689  15.450
15061TIP3   OH266673   3.610   5.353  12.957
15061TIP3    H166674   3.526   5.356  12.912
15061TIP3    H266675   3.599   5.285  13.024
15062TIP3   OH266676   1.977   4.847   2.392
15062TIP3    H166677   1.924   4.893   2.327
15062TIP3    H266678   2.064   4.885   2.383
15063TIP3   OH266679   1.969   0.454   4.480
15063TIP3    H166680   1.966   0.365   4.444
15063TIP3    H266681   1.890   0.496   4.446
15064TIP3   OH266682   1.284   0.935  11.415
15064TIP3    H166683   1.288   0.958  11.322
15064TIP3    H266684   1.344   0.860  11.423
15065TIP3   OH266685   2.960   5.181   5.062
15065TIP3    H166686   2.874   5.218   5.039
15065TIP3    H266687   2.962   5.097   5.016
15066TIP3   OH266688   3.215   0.864   5.199
15066TIP3    H166689   3.205   0.906   5.114
15066TIP3    H266690   3.308   0.871   5.220
15067TIP3   OH266691   3.367   2.906   3.963
15067TIP3    H166692   3.276   2.911   3.991
15067TIP3    H266693   3.363   2.912   3.868
15068TIP3   OH266694   3.217   2.011   1.723
15068TIP3    H166695   3.156   2.071   1.682
15068TIP3    H266696   3.235   2.049   1.809
15069TIP3   OH266697   3.925   6.093   6.378
15069TIP3    H166698   3.878   6.097   6.461
15069TIP3    H266699   3.951   6.001   6.370
15070TIP3   OH266700   4.250   3.460  12.500
15070TIP3    H166701   4.184   3.390  12.500
15070TIP3    H266702   4.205   3.535  12.461
15071TIP3   OH266703   3.698   0.118   5.377
15071TIP3    H166704   3.647   0.184   5.330
15071TIP3    H266705   3.769   0.168   5.417
15072TIP3   OH266706   2.710   2.543  12.554
15072TIP3    H166707   2.637   2.481  12.559
15072TIP3    H266708   2.765   2.510  12.484
15073TIP3   OH266709   5.538   1.449  15.066
15073TIP3    H166710   5.575   1.420  15.150
15073TIP3    H266711   5.556   1.543  15.063
15074TIP3   OH266712   2.578   3.834   2.060
15074TIP3    H166713   2.658   3.809   2.013
15074TIP3    H266714   2.610   3.865   2.145
15075TIP3   OH266715   6.180   4.760   1.523
15075TIP3    H166716   6.216   4.847   1.536
15075TIP3    H266717   6.087   4.769   1.542
15076TIP3   OH266718   2.658   1.115  11.758
15076TIP3    H166719   2.649   1.151  11.670
15076TIP3    H266720   2.690   1.026  11.745
15077TIP3   OH266721   6.706   4.932  12.993
15077TIP3    H166722   6.763   4.931  12.916
15077TIP3    H266723   6.680   5.024  13.002
15078TIP3   OH266724   0.456   3.566  11.578
15078TIP3    H166725   0.365   3.541  11.593
15078TIP3    H266726   0.453   3.620  11.499
15079TIP3   OH266727   2.700   1.262  14.937
15079TIP3    H166728   2.617   1.269  14.889
15079TIP3    H266729   2.743   1.346  14.924
15080TIP3   OH266730   6.816   5.418   5.394
15080TIP3    H166731   6.733   5.380   5.365
15080TIP3    H266732   6.850   5.462   5.316
15081TIP3   OH266733   0.544   3.219   3.203
15081TIP3    H166734   0.537   3.206   3.297
15081TIP3    H266735   0.606   3.152   3.174
15082TIP3   OH266736   0.779   6.100  12.910
15082TIP3    H166737   0.732   6.175  12.946
15082TIP3    H266738   0.714   6.054  12.858
15083TIP3   OH266739   1.524   6.684   3.884
15083TIP3    H166740   1.539   6.598   3.923
15083TIP3    H266741   1.603   6.734   3.904
15084TIP3   OH266742   6.407   0.239   1.611
15084TIP3    H166743   6.330   0.270   1.564
15084TIP3    H266744   6.384   0.245   1.703
15085TIP3   OH266745   5.867   5.623   6.875
15085TIP3    H166746   5.864   5.562   6.801
15085TIP3    H266747   5.775   5.634   6.900
15086TIP3   OH266748   6.571   4.259  15.261
15086TIP3    H166749   6.591   4.189  15.198
15086TIP3    H266750   6.578   4.216  15.346
15087TIP3   OH266751   5.922   5.817   4.906
15087TIP3    H166752   5.910   5.904   4.867
15087TIP3    H266753   6.017   5.808   4.917
15088TIP3   OH266754   5.512   3.693  13.198
15088TIP3    H166755   5.529   3.638  13.275
15088TIP3    H266756   5.447   3.645  13.148
15089TIP3   OH266757   2.098   1.281   0.499
15089TIP3    H166758   2.065   1.193   0.485
15089TIP3    H266759   2.061   1.307   0.584
15090TIP3   OH266760   4.307   2.598  13.848
15090TIP3    H166761   4.222   2.555  13.856
15090TIP3    H266762   4.323   2.602  13.754
15091TIP3   OH266763   3.166   4.096   3.766
15091TIP3    H166764   3.073   4.102   3.747
15091TIP3    H266765   3.171   4.073   3.859
15092TIP3   OH266766   6.191   3.340   0.748
15092TIP3    H166767   6.276   3.299   0.765
15092TIP3    H266768   6.188   3.352   0.653
15093TIP3   OH266769   5.010   2.904  15.593
15093TIP3    H166770   4.927   2.921  15.548
15093TIP3    H266771   5.024   2.810  15.581
15094TIP3   OH266772   0.845   0.526  11.885
15094TIP3    H166773   0.847   0.432  11.866
15094TIP3    H266774   0.763   0.557  11.847
15095TIP3   OH266775   4.551   2.107   3.541
15095TIP3    H166776   4.573   2.096   3.449
15095TIP3    H266777   4.573   2.023   3.582
15096TIP3   OH266778   5.365   2.036   3.135
15096TIP3    H166779   5.308   2.095   3.185
15096TIP3    H266780   5.318   1.953   3.134
15097TIP3   OH266781   0.003   0.248  13.070
15097TIP3    H166782   0.039   0.209  12.990
15097TIP3    H266783   0.063   0.320  13.090
15098TIP3   OH266784   6.212   1.959  11.640
15098TIP3    H166785   6.239   1.955  11.731
15098TIP3    H266786   6.265   2.030  11.602
15099TIP3   OH266787   5.531   5.681  11.167
15099TIP3    H166788   5.531   5.739  11.090
15099TIP3    H266789   5.505   5.596  11.133
15100TIP3   OH266790   3.204   0.712  16.954
15100TIP3    H166791   3.175   0.801  16.933
15100TIP3    H266792   3.123   0.661  16.956
15101TIP3   OH266793   4.813   3.753  12.924
15101TIP3    H166794   4.757   3.830  12.933
15101TIP3    H266795   4.770   3.700  12.856
15102TIP3   OH266796   1.601   2.930  10.539
15102TIP3    H166797   1.527   2.990  10.539
15102TIP3    H266798   1.564   2.845  10.562
15103TIP3   OH266799   2.018   1.376   3.012
15103TIP3    H166800   2.060   1.443   2.958
15103TIP3    H266801   1.957   1.332   2.953
15104TIP3   OH266802   5.046   3.611  12.119
15104TIP3    H166803   5.122   3.552  12.118
15104TIP3    H266804   5.012   3.605  12.208
15105TIP3   OH266805   3.925   4.984   6.439
15105TIP3    H166806   3.920   4.919   6.369
15105TIP3    H266807   3.842   5.032   6.434
15106TIP3   OH266808   3.356   3.002  13.987
15106TIP3    H166809   3.279   2.972  13.939
15106TIP3    H266810   3.393   2.922  14.024
15107TIP3   OH266811   3.503   4.643  16.020
15107TIP3    H166812   3.413   4.618  15.997
15107TIP3    H266813   3.558   4.588  15.964
15108TIP3   OH266814   5.795   5.522   2.822
15108TIP3    H166815   5.785   5.480   2.736
15108TIP3    H266816   5.714   5.570   2.834
15109TIP3   OH266817   4.985   5.675   5.455
15109TIP3    H166818   5.059   5.727   5.425
15109TIP3    H266819   5.020   5.587   5.465
15110TIP3   OH266820   2.177   3.417   5.273
15110TIP3    H166821   2.220   3.352   5.217
15110TIP3    H266822   2.092   3.431   5.231
15111TIP3   OH266823   2.003   5.010  17.123
15111TIP3    H166824   1.919   5.041  17.158
15111TIP3    H266825   2.035   4.949  17.190
15112TIP3   OH266826   3.505   3.785  11.868
15112TIP3    H166827   3.578   3.817  11.920
15112TIP3    H266828   3.495   3.850  11.798
15113TIP3   OH266829   0.556   0.799  11.964
15113TIP3    H166830   0.592   0.761  11.884
15113TIP3    H266831   0.598   0.884  11.970
15114TIP3   OH266832   5.394   2.460  17.131
15114TIP3    H166833   5.428   2.375  17.106
15114TIP3    H266834   5.471   2.511  17.158
15115TIP3   OH266835   5.515   2.430  16.786
15115TIP3    H166836   5.486   2.497  16.724
15115TIP3    H266837   5.580   2.475  16.840
15116TIP3   OH266838   5.287   3.845   3.486
15116TIP3    H166839   5.235   3.919   3.519
15116TIP3    H266840   5.352   3.829   3.554
15117TIP3   OH266841   3.019   1.049   0.344
15117TIP3    H166842   3.026   1.129   0.397
15117TIP3    H266843   3.098   1.000   0.365
15118TIP3   OH266844   1.472   1.796   0.247
15118TIP3    H166845   1.484   1.702   0.262
15118TIP3    H266846   1.397   1.819   0.303
15119TIP3   OH266847   1.206   3.926  12.224
15119TIP3    H166848   1.243   3.917  12.136
15119TIP3    H266849   1.218   3.839  12.264
15120TIP3   OH266850   0.452   3.075   2.550
15120TIP3    H166851   0.468   3.169   2.559
15120TIP3    H266852   0.428   3.063   2.458
15121TIP3   OH266853   0.204   0.360  16.686
15121TIP3    H166854   0.119   0.385  16.721
15121TIP3    H266855   0.185   0.289  16.624
15122TIP3   OH266856   1.362   5.888  10.809
15122TIP3    H166857   1.306   5.838  10.868
15122TIP3    H266858   1.335   5.859  10.721
15123TIP3   OH266859   5.437   4.323  11.941
15123TIP3    H166860   5.525   4.360  11.951
15123TIP3    H266861   5.436   4.289  11.852
15124TIP3   OH266862   4.663   3.788   4.177
15124TIP3    H166863   4.613   3.715   4.142
15124TIP3    H266864   4.735   3.800   4.116
15125TIP3   OH266865   6.641   2.243  16.284
15125TIP3    H166866   6.577   2.313  16.272
15125TIP3    H266867   6.659   2.211  16.196
15126TIP3   OH266868   5.327   5.438   3.119
15126TIP3    H166869   5.399   5.421   3.180
15126TIP3    H266870   5.277   5.357   3.117
15127TIP3   OH266871   3.777   3.495  15.540
15127TIP3    H166872   3.717   3.439  15.589
15127TIP3    H266873   3.803   3.442  15.465
15128TIP3   OH266874   5.334   2.404  12.052
15128TIP3    H166875   5.338   2.477  12.113
15128TIP3    H266876   5.401   2.423  11.987
15129TIP3   OH266877   5.900   5.409  11.581
15129TIP3    H166878   5.957   5.333  11.580
15129TIP3    H266879   5.827   5.383  11.637
15130TIP3   OH266880   3.557   0.716   5.744
15130TIP3    H166881   3.497   0.646   5.718
15130TIP3    H266882   3.576   0.698   5.836
15131TIP3   OH266883   5.263   3.650   4.145
15131TIP3    H166884   5.212   3.712   4.093
15131TIP3    H266885   5.263   3.687   4.234
15132TIP3   OH266886   3.656   4.351  15.059
15132TIP3    H166887   3.613   4.413  15.117
15132TIP3    H266888   3.748   4.378  15.059
15133TIP3   OH266889   3.933   3.825   0.703
15133TIP3    H166890   4.004   3.800   0.644
15133TIP3    H266891   3.976   3.876   0.772
15134TIP3   OH266892   1.690   0.920   0.407
15134TIP3    H166893   1.653   0.915   0.319
15134TIP3    H266894   1.770   0.868   0.403
15135TIP3   OH266895   1.743   3.284  13.191
15135TIP3    H166896   1.743   3.193  13.223
15135TIP3    H266897   1.753   3.337  13.270
15136TIP3   OH266898   3.592   5.612   1.949
15136TIP3    H166899   3.569   5.562   2.027
15136TIP3    H266900   3.511   5.657   1.924
15137TIP3   OH266901   1.891   6.429   2.277
15137TIP3    H166902   1.910   6.418   2.184
15137TIP3    H266903   1.952   6.370   2.321
15138TIP3   OH266904   0.885   5.037  15.519
15138TIP3    H166905   0.869   5.057  15.611
15138TIP3    H266906   0.854   5.115  15.472
15139TIP3   OH266907   0.228   2.063   0.380
15139TIP3    H166908   0.138   2.046   0.352
15139TIP3    H266909   0.278   2.070   0.299
15140TIP3   OH266910   6.748   1.212  13.499
15140TIP3    H166911   6.785   1.203  13.411
15140TIP3    H266912   6.796   1.285  13.538
15141TIP3   OH266913   2.686   0.204  11.652
15141TIP3    H166914   2.728   0.164  11.729
15141TIP3    H266915   2.749   0.271  11.624
15142TIP3   OH266916   1.407   0.465   3.362
15142TIP3    H166917   1.348   0.540   3.371
15142TIP3    H266918   1.435   0.467   3.271
15143TIP3   OH266919   3.200   6.293   2.368
15143TIP3    H166920   3.185   6.263   2.457
15143TIP3    H266921   3.274   6.353   2.375
15144TIP3   OH266922   0.635   2.433  15.027
15144TIP3    H166923   0.586   2.496  14.973
15144TIP3    H266924   0.588   2.351  15.016
15145TIP3   OH266925   5.767   2.085   4.275
15145TIP3    H166926   5.709   2.161   4.289
15145TIP3    H266927   5.785   2.053   4.363
15146TIP3   OH266928   4.331   5.676  12.967
15146TIP3    H166929   4.343   5.631  13.051
15146TIP3    H266930   4.417   5.712  12.946
15147TIP3   OH266931   2.069   3.078   5.327
15147TIP3    H166932   2.119   3.103   5.405
15147TIP3    H266933   1.986   3.126   5.336
15148TIP3   OH266934   3.257   1.564  11.532
15148TIP3    H166935   3.223   1.649  11.506
15148TIP3    H266936   3.244   1.508  11.455
15149TIP3   OH266937   6.788   1.015  11.719
15149TIP3    H166938   6.864   0.990  11.771
15149TIP3    H266939   6.819   1.013  11.629
15150TIP3   OH266940   1.768   5.205   0.305
15150TIP3    H166941   1.803   5.281   0.259
15150TIP3    H266942   1.709   5.242   0.370
15151TIP3   OH266943   0.955   1.801   1.237
15151TIP3    H166944   0.920   1.721   1.277
15151TIP3    H266945   0.997   1.847   1.310
15152TIP3   OH266946   2.064   0.775  16.464
15152TIP3    H166947   2.112   0.856  16.449
15152TIP3    H266948   2.056   0.768  16.559
15153TIP3   OH266949   0.950   3.391  15.026
15153TIP3    H166950   1.007   3.466  15.043
15153TIP3    H266951   0.944   3.346  15.111
15154TIP3   OH266952   0.938   0.456  14.628
15154TIP3    H166953   0.898   0.499  14.704
15154TIP3    H266954   1.029   0.486  14.629
15155TIP3   OH266955   5.289   4.825  17.236
15155TIP3    H166956   5.368   4.838  17.183
15155TIP3    H266957   5.268   4.912  17.269
15156TIP3   OH266958   2.691   4.342   6.252
15156TIP3    H166959   2.649   4.307   6.331
15156TIP3    H266960   2.709   4.433   6.273
15157TIP3   OH266961   0.728   2.758   2.530
15157TIP3    H166962   0.696   2.720   2.448
15157TIP3    H266963   0.762   2.844   2.505
15158TIP3   OH266964   4.602   3.358  13.749
15158TIP3    H166965   4.697   3.368  13.739
15158TIP3    H266966   4.589   3.349  13.843
15159TIP3   OH266967   3.358   0.019   3.236
15159TIP3    H166968   3.356   0.025   3.331
15159TIP3    H266969   3.304   0.093   3.206
15160TIP3   OH266970   3.675   5.082   1.638
15160TIP3    H166971   3.629   5.099   1.720
15160TIP3    H266972   3.636   5.144   1.576
15161TIP3   OH266973   5.865   1.311  15.363
15161TIP3    H166974   5.866   1.304  15.267
15161TIP3    H266975   5.908   1.395  15.381
15162TIP3   OH266976   3.049   5.761   2.717
15162TIP3    H166977   3.005   5.794   2.638
15162TIP3    H266978   3.029   5.826   2.784
15163TIP3   OH266979   4.136   3.766  12.082
15163TIP3    H166980   4.129   3.849  12.128
15163TIP3    H266981   4.045   3.741  12.064
15164TIP3   OH266982   4.585   2.490   2.316
15164TIP3    H166983   4.565   2.397   2.323
15164TIP3    H266984   4.515   2.526   2.262
15165TIP3   OH266985   0.782   6.019  11.444
15165TIP3    H166986   0.787   5.927  11.416
15165TIP3    H266987   0.706   6.022  11.502
15166TIP3   OH266988   0.979   6.677  16.830
15166TIP3    H166989   0.980   6.681  16.735
15166TIP3    H266990   0.906   6.734  16.855
15167TIP3   OH266991   5.799   0.235   3.844
15167TIP3    H166992   5.780   0.309   3.787
15167TIP3    H266993   5.895   0.227   3.841
15168TIP3   OH266994   2.463   6.136   5.716
15168TIP3    H166995   2.374   6.113   5.688
15168TIP3    H266996   2.483   6.216   5.666
15169TIP3   OH266997   3.118   6.260  14.505
15169TIP3    H166998   3.126   6.197  14.576
15169TIP3    H266999   3.147   6.343  14.542
15170TIP3   OH267000   2.900   3.387  13.947
15170TIP3    H167001   2.837   3.435  14.002
15170TIP3    H267002   2.854   3.306  13.924
15171TIP3   OH267003   0.651   0.151   5.201
15171TIP3    H167004   0.591   0.192   5.138
15171TIP3    H267005   0.731   0.135   5.151
15172TIP3   OH267006   5.211   2.342  17.279
15172TIP3    H167007   5.268   2.294  17.338
15172TIP3    H267008   5.270   2.400  17.230
15173TIP3   OH267009   4.905   2.378   5.328
15173TIP3    H167010   4.991   2.404   5.361
15173TIP3    H267011   4.860   2.343   5.405
15174TIP3   OH267012   3.973   3.419   5.481
15174TIP3    H167013   4.028   3.342   5.471
15174TIP3    H267014   3.899   3.404   5.422
15175TIP3   OH267015   6.009   4.420  14.958
15175TIP3    H167016   6.052   4.409  14.873
15175TIP3    H267017   5.938   4.482  14.941
15176TIP3   OH267018   3.636   4.143  12.374
15176TIP3    H167019   3.555   4.166  12.330
15176TIP3    H267020   3.705   4.167  12.312
15177TIP3   OH267021   6.033   5.691  12.987
15177TIP3    H167022   5.977   5.707  12.911
15177TIP3    H267023   6.055   5.598  12.982
15178TIP3   OH267024   2.600   5.216   0.940
15178TIP3    H167025   2.638   5.194   1.024
15178TIP3    H267026   2.506   5.204   0.952
15179TIP3   OH267027   1.599   5.854   3.345
15179TIP3    H167028   1.611   5.759   3.354
15179TIP3    H267029   1.527   5.863   3.283
15180TIP3   OH267030   0.255   3.555   3.977
15180TIP3    H167031   0.253   3.604   4.059
15180TIP3    H267032   0.314   3.481   3.995
15181TIP3   OH267033   5.366   2.537  11.705
15181TIP3    H167034   5.392   2.589  11.781
15181TIP3    H267035   5.373   2.446  11.733
15182TIP3   OH267036   1.917   5.226   2.711
15182TIP3    H167037   1.858   5.190   2.777
15182TIP3    H267038   1.861   5.244   2.635
15183TIP3   OH267039   1.541   4.770  15.930
15183TIP3    H167040   1.452   4.793  15.903
15183TIP3    H267041   1.532   4.683  15.969
15184TIP3   OH267042   2.209   4.091  10.939
15184TIP3    H167043   2.198   4.100  11.033
15184TIP3    H267044   2.246   4.174  10.910
15185TIP3   OH267045   1.691   1.005   5.594
15185TIP3    H167046   1.623   0.954   5.551
15185TIP3    H267047   1.651   1.091   5.608
15186TIP3   OH267048   1.298   6.622   0.651
15186TIP3    H167049   1.290   6.694   0.588
15186TIP3    H267050   1.300   6.666   0.736
15187TIP3   OH267051   1.736   5.809   5.402
15187TIP3    H167052   1.735   5.902   5.381
15187TIP3    H267053   1.772   5.768   5.323
15188TIP3   OH267054   4.144   6.266   4.960
15188TIP3    H167055   4.091   6.188   4.939
15188TIP3    H267056   4.142   6.318   4.879
15189TIP3   OH267057   1.009   0.788   0.337
15189TIP3    H167058   0.963   0.846   0.276
15189TIP3    H267059   1.101   0.793   0.311
15190TIP3   OH267060   2.575   6.373   1.311
15190TIP3    H167061   2.613   6.297   1.267
15190TIP3    H267062   2.482   6.352   1.318
15191TIP3   OH267063   3.166   3.324   3.739
15191TIP3    H167064   3.204   3.350   3.823
15191TIP3    H267065   3.084   3.373   3.734
15192TIP3   OH267066   4.595   1.319  13.305
15192TIP3    H167067   4.593   1.270  13.387
15192TIP3    H267068   4.510   1.362  13.300
15193TIP3   OH267069   3.771   5.808   2.225
15193TIP3    H167070   3.803   5.747   2.159
15193TIP3    H267071   3.836   5.877   2.228
15194TIP3   OH267072   1.848   5.128  12.336
15194TIP3    H167073   1.823   5.171  12.254
15194TIP3    H267074   1.941   5.108  12.325
15195TIP3   OH267075   3.131   6.258  15.577
15195TIP3    H167076   3.133   6.335  15.635
15195TIP3    H267077   3.071   6.282  15.507
15196TIP3   OH267078   3.903   0.394   2.926
15196TIP3    H167079   3.894   0.423   2.835
15196TIP3    H267080   3.939   0.470   2.972
15197TIP3   OH267081   4.243   2.205   1.909
15197TIP3    H167082   4.295   2.125   1.919
15197TIP3    H267083   4.220   2.229   1.999
15198TIP3   OH267084   6.186   5.218  15.205
15198TIP3    H167085   6.165   5.311  15.202
15198TIP3    H267086   6.168   5.193  15.296
15199TIP3   OH267087   4.687   2.054  13.496
15199TIP3    H167088   4.724   1.980  13.544
15199TIP3    H267089   4.707   2.035  13.404
15200TIP3   OH267090   2.078   0.544   0.675
15200TIP3    H167091   2.101   0.466   0.726
15200TIP3    H267092   2.074   0.614   0.740
15201TIP3   OH267093   0.870   0.005  15.768
15201TIP3    H167094   0.855  -0.089  15.758
15201TIP3    H267095   0.937   0.026  15.703
15202TIP3   OH267096   6.098   5.598  17.281
15202TIP3    H167097   6.045   5.525  17.314
15202TIP3    H267098   6.175   5.557  17.243
15203TIP3   OH267099   4.028   6.694  13.299
15203TIP3    H167100   4.011   6.717  13.390
15203TIP3    H267101   3.968   6.750  13.249
15204TIP3   OH267102   5.156   2.841  10.833
15204TIP3    H167103   5.168   2.853  10.738
15204TIP3    H267104   5.063   2.822  10.843
15205TIP3   OH267105   0.441   1.648  12.568
15205TIP3    H167106   0.509   1.588  12.536
15205TIP3    H267107   0.490   1.718  12.612
15206TIP3   OH267108   6.283   0.014  16.235
15206TIP3    H167109   6.224   0.020  16.161
15206TIP3    H267110   6.232  -0.031  16.303
15207TIP3   OH267111   6.562   1.518  14.038
15207TIP3    H167112   6.548   1.588  13.973
15207TIP3    H267113   6.656   1.519  14.054
15208TIP3   OH267114   0.464   4.180  14.848
15208TIP3    H167115   0.534   4.227  14.803
15208TIP3    H267116   0.447   4.103  14.793
15209TIP3   OH267117   1.307   4.440   1.152
15209TIP3    H167118   1.296   4.502   1.225
15209TIP3    H267119   1.228   4.453   1.098
15210TIP3   OH267120   6.355   6.455   1.272
15210TIP3    H167121   6.275   6.479   1.226
15210TIP3    H267122   6.412   6.419   1.204
15211TIP3   OH267123   1.351   5.115   6.281
15211TIP3    H167124   1.268   5.067   6.289
15211TIP3    H267125   1.326   5.200   6.245
15212TIP3   OH267126   4.206   0.531  13.262
15212TIP3    H167127   4.118   0.553  13.233
15212TIP3    H267128   4.248   0.495  13.184
15213TIP3   OH267129   0.691   1.356  14.532
15213TIP3    H167130   0.763   1.410  14.499
15213TIP3    H267131   0.704   1.354  14.627
15214TIP3   OH267132   6.599   3.567   1.240
15214TIP3    H167133   6.639   3.641   1.194
15214TIP3    H267134   6.672   3.509   1.262
15215TIP3   OH267135   0.713   3.977  14.909
15215TIP3    H167136   0.623   3.960  14.881
15215TIP3    H267137   0.725   4.071  14.896
15216TIP3   OH267138   3.676   5.033   0.875
15216TIP3    H167139   3.630   5.114   0.854
15216TIP3    H267140   3.670   4.981   0.795
15217TIP3   OH267141   5.515   6.486  14.653
15217TIP3    H167142   5.465   6.418  14.607
15217TIP3    H267143   5.521   6.455  14.743
15218TIP3   OH267144   3.879   3.417  10.697
15218TIP3    H167145   3.855   3.479  10.766
15218TIP3    H267146   3.796   3.383  10.664
15219TIP3   OH267147   2.686   1.815  11.106
15219TIP3    H167148   2.606   1.829  11.157
15219TIP3    H267149   2.663   1.841  11.017
15220TIP3   OH267150   3.196   1.348  12.546
15220TIP3    H167151   3.172   1.330  12.455
15220TIP3    H267152   3.215   1.262  12.584
15221TIP3   OH267153   5.557   4.162   5.139
15221TIP3    H167154   5.551   4.078   5.185
15221TIP3    H267155   5.468   4.197   5.144
15222TIP3   OH267156   2.650   3.821   4.074
15222TIP3    H167157   2.722   3.880   4.050
15222TIP3    H267158   2.583   3.879   4.112
15223TIP3   OH267159   2.654   0.729   0.625
15223TIP3    H167160   2.640   0.659   0.561
15223TIP3    H267161   2.588   0.714   0.692
15224TIP3   OH267162   6.209   3.859   1.954
15224TIP3    H167163   6.294   3.821   1.979
15224TIP3    H267164   6.172   3.796   1.893
15225TIP3   OH267165   5.446   3.878   5.358
15225TIP3    H167166   5.477   3.836   5.438
15225TIP3    H267167   5.392   3.951   5.389
15226TIP3   OH267168   0.222   4.466   6.485
15226TIP3    H167169   0.134   4.442   6.514
15226TIP3    H267170   0.241   4.548   6.531
15227TIP3   OH267171   3.674   4.473  12.873
15227TIP3    H167172   3.617   4.424  12.814
15227TIP3    H267173   3.654   4.565  12.854
15228TIP3   OH267174   5.350   0.018   2.797
15228TIP3    H167175   5.354   0.108   2.826
15228TIP3    H267176   5.331   0.024   2.703
15229TIP3   OH267177   2.652   5.426  15.347
15229TIP3    H167178   2.584   5.417  15.280
15229TIP3    H267179   2.606   5.407  15.429
15230TIP3   OH267180   2.435   6.174   6.723
15230TIP3    H167181   2.504   6.185   6.788
15230TIP3    H267182   2.408   6.263   6.701
15231TIP3   OH267183   3.337   5.496   3.978
15231TIP3    H167184   3.394   5.572   3.972
15231TIP3    H267185   3.389   5.430   4.023
15232TIP3   OH267186   4.427   1.443   5.031
15232TIP3    H167187   4.448   1.363   5.078
15232TIP3    H267188   4.492   1.506   5.061
15233TIP3   OH267189   2.976   3.583  16.126
15233TIP3    H167190   2.903   3.549  16.176
15233TIP3    H267191   2.970   3.540  16.040
15234TIP3   OH267192   2.865   3.711  16.428
15234TIP3    H167193   2.789   3.681  16.377
15234TIP3    H267194   2.829   3.773  16.491
15235TIP3   OH267195   3.661   6.809   4.133
15235TIP3    H167196   3.659   6.856   4.216
15235TIP3    H267197   3.572   6.816   4.099
15236TIP3   OH267198   3.395   2.220  10.626
15236TIP3    H167199   3.365   2.256  10.542
15236TIP3    H267200   3.396   2.126  10.613
15237TIP3   OH267201   4.229   2.398   1.640
15237TIP3    H167202   4.201   2.338   1.710
15237TIP3    H267203   4.322   2.413   1.658
15238TIP3   OH267204   1.835   2.675   5.292
15238TIP3    H167205   1.824   2.679   5.387
15238TIP3    H267206   1.884   2.594   5.276
15239TIP3   OH267207   0.133   6.696   3.182
15239TIP3    H167208   0.139   6.780   3.228
15239TIP3    H267209   0.089   6.638   3.245
15240TIP3   OH267210   2.635   0.783   4.702
15240TIP3    H167211   2.592   0.787   4.617
15240TIP3    H267212   2.726   0.805   4.684
15241TIP3   OH267213   1.777   3.383  14.191
15241TIP3    H167214   1.744   3.327  14.262
15241TIP3    H267215   1.720   3.363  14.117
15242TIP3   OH267216   5.425   0.095  14.309
15242TIP3    H167217   5.399   0.067  14.397
15242TIP3    H267218   5.343   0.111  14.264
15243TIP3   OH267219   2.309   4.907  14.586
15243TIP3    H167220   2.329   4.978  14.525
15243TIP3    H267221   2.263   4.950  14.658
15244TIP3   OH267222   0.264   1.256  11.169
15244TIP3    H167223   0.281   1.287  11.081
15244TIP3    H267224   0.304   1.322  11.226
15245TIP3   OH267225   1.574   6.510  14.581
15245TIP3    H167226   1.622   6.563  14.645
15245TIP3    H267227   1.593   6.420  14.605
15246TIP3   OH267228   3.453   1.205   0.117
15246TIP3    H167229   3.427   1.276   0.058
15246TIP3    H267230   3.548   1.197   0.106
15247TIP3   OH267231   5.456   1.285   1.187
15247TIP3    H167232   5.456   1.335   1.105
15247TIP3    H267233   5.369   1.245   1.190
15248TIP3   OH267234   4.324   6.643  13.295
15248TIP3    H167235   4.325   6.731  13.333
15248TIP3    H267236   4.232   6.625  13.279
15249TIP3   OH267237   3.085   3.627   3.512
15249TIP3    H167238   3.052   3.539   3.531
15249TIP3    H267239   3.126   3.656   3.593
15250TIP3   OH267240   5.667   6.673   0.332
15250TIP3    H167241   5.606   6.624   0.387
15250TIP3    H267242   5.633   6.664   0.243
15251TIP3   OH267243   0.234   1.387  10.902
15251TIP3    H167244   0.150   1.428  10.918
15251TIP3    H267245   0.213   1.298  10.873
15252TIP3   OH267246   0.133   5.718  14.323
15252TIP3    H167247   0.045   5.680  14.330
15252TIP3    H267248   0.119   5.812  14.333
15253TIP3   OH267249   5.791   6.359   2.351
15253TIP3    H167250   5.792   6.341   2.445
15253TIP3    H267251   5.846   6.290   2.313
15254TIP3   OH267252   0.771   5.912   6.345
15254TIP3    H167253   0.690   5.960   6.362
15254TIP3    H267254   0.765   5.834   6.399
15255TIP3   OH267255   4.160   4.607  11.677
15255TIP3    H167256   4.102   4.576  11.607
15255TIP3    H267257   4.172   4.531  11.733
15256TIP3   OH267258   2.190   1.982   5.446
15256TIP3    H167259   2.101   1.974   5.412
15256TIP3    H267260   2.215   2.072   5.427
15257TIP3   OH267261   2.551   2.864  15.571
15257TIP3    H167262   2.486   2.931  15.592
15257TIP3    H267263   2.509   2.781  15.594
15258TIP3   OH267264   0.226   1.928   2.061
15258TIP3    H167265   0.281   1.874   2.005
15258TIP3    H267266   0.285   1.996   2.094
15259TIP3   OH267267   2.809   2.510   5.001
15259TIP3    H167268   2.744   2.567   5.043
15259TIP3    H267269   2.867   2.569   4.955
15260TIP3   OH267270   5.328   0.356   3.475
15260TIP3    H167271   5.333   0.425   3.541
15260TIP3    H267272   5.296   0.401   3.396
15261TIP3   OH267273   5.427   1.713  13.718
15261TIP3    H167274   5.360   1.670  13.664
15261TIP3    H267275   5.385   1.793  13.749
15262TIP3   OH267276   3.410   5.136   3.516
15262TIP3    H167277   3.336   5.158   3.460
15262TIP3    H267278   3.409   5.202   3.585
15263TIP3   OH267279   1.200   6.402  15.869
15263TIP3    H167280   1.197   6.351  15.788
15263TIP3    H267281   1.109   6.406  15.899
15264TIP3   OH267282   2.709   4.529   1.276
15264TIP3    H167283   2.654   4.608   1.280
15264TIP3    H267284   2.767   4.537   1.352
15265TIP3   OH267285   4.388   5.446   4.025
15265TIP3    H167286   4.482   5.439   4.039
15265TIP3    H267287   4.362   5.359   3.992
15266TIP3   OH267288   2.463   3.697  16.075
15266TIP3    H167289   2.461   3.625  16.013
15266TIP3    H267290   2.382   3.745  16.059
15267TIP3   OH267291   5.240   0.947   0.988
15267TIP3    H167292   5.262   0.871   0.933
15267TIP3    H267293   5.146   0.960   0.974
15268TIP3   OH267294   0.428   4.015  13.501
15268TIP3    H167295   0.372   3.980  13.432
15268TIP3    H267296   0.423   4.110  13.490
15269TIP3   OH267297   2.609   4.377  12.260
15269TIP3    H167298   2.614   4.466  12.226
15269TIP3    H267299   2.657   4.324  12.196
15270TIP3   OH267300   5.207   6.217  11.805
15270TIP3    H167301   5.211   6.246  11.714
15270TIP3    H267302   5.289   6.250  11.844
15271TIP3   OH267303   4.716   5.475  13.410
15271TIP3    H167304   4.626   5.497  13.435
15271TIP3    H267305   4.722   5.500  13.318
15272TIP3   OH267306   6.329   1.839   4.815
15272TIP3    H167307   6.396   1.779   4.781
15272TIP3    H267308   6.367   1.872   4.896
15273TIP3   OH267309   5.775   5.636   2.030
15273TIP3    H167310   5.781   5.663   2.122
15273TIP3    H267311   5.735   5.549   2.033
15274TIP3   OH267312   3.820   1.951  16.486
15274TIP3    H167313   3.851   1.921  16.572
15274TIP3    H267314   3.856   2.040  16.477
15275TIP3   OH267315   6.110   5.288  12.702
15275TIP3    H167316   6.074   5.217  12.650
15275TIP3    H267317   6.135   5.355  12.638
15276TIP3   OH267318   4.422   3.767   1.192
15276TIP3    H167319   4.468   3.710   1.130
15276TIP3    H267320   4.352   3.712   1.228
15277TIP3   OH267321   3.808   0.403  13.469
15277TIP3    H167322   3.759   0.446  13.399
15277TIP3    H267323   3.744   0.344  13.510
15278TIP3   OH267324   0.749   3.617   4.722
15278TIP3    H167325   0.788   3.664   4.648
15278TIP3    H267326   0.823   3.602   4.782
15279TIP3   OH267327   4.919   5.595  12.477
15279TIP3    H167328   5.005   5.623  12.445
15279TIP3    H267329   4.924   5.609  12.572
15280TIP3   OH267330   5.983   2.520  15.855
15280TIP3    H167331   6.048   2.522  15.784
15280TIP3    H267332   6.025   2.566  15.927
15281TIP3   OH267333   2.003   2.310  13.263
15281TIP3    H167334   1.989   2.357  13.181
15281TIP3    H267335   2.062   2.238  13.240
15282TIP3   OH267336   5.339   4.024   2.383
15282TIP3    H167337   5.315   4.036   2.292
15282TIP3    H267338   5.399   4.096   2.402
15283TIP3   OH267339   5.741   0.310  16.233
15283TIP3    H167340   5.822   0.278  16.272
15283TIP3    H267341   5.718   0.386  16.286
15284TIP3   OH267342   5.524   2.931   6.003
15284TIP3    H167343   5.436   2.922   5.965
15284TIP3    H267344   5.535   3.025   6.016
15285TIP3   OH267345   2.191   1.838   1.964
15285TIP3    H167346   2.261   1.815   1.903
15285TIP3    H267347   2.221   1.806   2.049
15286TIP3   OH267348   6.080   0.289   0.984
15286TIP3    H167349   6.032   0.207   0.978
15286TIP3    H267350   6.022   0.354   0.943
15287TIP3   OH267351   5.592   1.181  11.850
15287TIP3    H167352   5.523   1.194  11.784
15287TIP3    H267353   5.673   1.193  11.801
15288TIP3   OH267354   5.277   0.797  13.509
15288TIP3    H167355   5.314   0.852  13.441
15288TIP3    H267356   5.221   0.735  13.462
15289TIP3   OH267357   3.990   4.220  11.790
15289TIP3    H167358   3.973   4.273  11.867
15289TIP3    H267359   4.060   4.267  11.743
15290TIP3   OH267360   4.546   5.222  12.023
15290TIP3    H167361   4.527   5.315  12.011
15290TIP3    H267362   4.636   5.220  12.054
15291TIP3   OH267363   0.117   1.547  16.365
15291TIP3    H167364   0.076   1.514  16.285
15291TIP3    H267365   0.081   1.492  16.435
15292TIP3   OH267366   1.208   3.268  11.715
15292TIP3    H167367   1.148   3.299  11.647
15292TIP3    H267368   1.294   3.295  11.685
15293TIP3   OH267369   4.090   2.551  14.975
15293TIP3    H167370   4.083   2.554  14.880
15293TIP3    H267371   4.031   2.621  15.005
15294TIP3   OH267372   5.166   0.228  13.288
15294TIP3    H167373   5.091   0.286  13.276
15294TIP3    H267374   5.188   0.236  13.381
15295TIP3   OH267375   5.678   4.358   3.264
15295TIP3    H167376   5.730   4.293   3.216
15295TIP3    H267377   5.595   4.362   3.216
15296TIP3   OH267378   0.338   2.164  15.153
15296TIP3    H167379   0.383   2.203  15.228
15296TIP3    H267380   0.245   2.168  15.176
15297TIP3   OH267381   2.984   6.427   0.985
15297TIP3    H167382   3.025   6.401   1.068
15297TIP3    H267383   3.012   6.361   0.922
15298TIP3   OH267384   2.254   0.738   4.910
15298TIP3    H167385   2.198   0.684   4.854
15298TIP3    H267386   2.291   0.803   4.850
15299TIP3   OH267387   1.587   0.574   5.494
15299TIP3    H167388   1.658   0.513   5.514
15299TIP3    H267389   1.620   0.660   5.521
15300TIP3   OH267390   3.029   4.468   0.050
15300TIP3    H167391   3.084   4.392   0.064
15300TIP3    H267392   3.000   4.493   0.138
15301TIP3   OH267393   0.777   2.780  16.979
15301TIP3    H167394   0.715   2.853  16.982
15301TIP3    H267395   0.728   2.707  17.017
15302TIP3   OH267396   4.443   0.191  15.072
15302TIP3    H167397   4.459   0.206  15.165
15302TIP3    H267398   4.524   0.219  15.029
15303TIP3   OH267399   6.259   2.415  13.481
15303TIP3    H167400   6.245   2.322  13.463
15303TIP3    H267401   6.326   2.416  13.549
15304TIP3   OH267402   1.133   5.218   5.882
15304TIP3    H167403   1.169   5.288   5.827
15304TIP3    H267404   1.143   5.251   5.971
15305TIP3   OH267405   0.832   4.803   0.798
15305TIP3    H167406   0.880   4.838   0.723
15305TIP3    H267407   0.889   4.819   0.873
15306TIP3   OH267408   4.337   6.644   3.285
15306TIP3    H167409   4.271   6.713   3.287
15306TIP3    H267410   4.378   6.647   3.372
15307TIP3   OH267411   1.902   1.130  11.322
15307TIP3    H167412   1.846   1.168  11.254
15307TIP3    H267413   1.943   1.054  11.280
15308TIP3   OH267414   3.901   2.952  14.354
15308TIP3    H167415   3.864   2.888  14.414
15308TIP3    H267416   3.971   2.905  14.308
15309TIP3   OH267417   5.760   2.364  16.409
15309TIP3    H167418   5.812   2.344  16.331
15309TIP3    H267419   5.687   2.417  16.377
15310TIP3   OH267420   3.181   5.982   6.079
15310TIP3    H167421   3.152   6.068   6.046
15310TIP3    H267422   3.140   5.976   6.166
15311TIP3   OH267423   4.155   0.524  15.181
15311TIP3    H167424   4.224   0.563  15.235
15311TIP3    H267425   4.095   0.596  15.162
15312TIP3   OH267426   5.598   2.866  17.113
15312TIP3    H167427   5.545   2.871  17.033
15312TIP3    H267428   5.573   2.784  17.154
15313TIP3   OH267429   3.335   5.693   2.670
15313TIP3    H167430   3.285   5.730   2.598
15313TIP3    H267431   3.269   5.674   2.737
15314TIP3   OH267432   2.079   5.345   4.316
15314TIP3    H167433   2.121   5.325   4.232
15314TIP3    H267434   1.995   5.384   4.293
15315TIP3   OH267435   2.786   5.447   4.481
15315TIP3    H167436   2.796   5.495   4.399
15315TIP3    H267437   2.837   5.496   4.545
15316TIP3   OH267438   3.152   6.502  15.176
15316TIP3    H167439   3.165   6.407  15.172
15316TIP3    H267440   3.070   6.517  15.129
15317TIP3   OH267441   3.646   4.690  11.720
15317TIP3    H167442   3.569   4.745  11.735
15317TIP3    H267443   3.695   4.735  11.651
15318TIP3   OH267444   4.809   4.871  11.136
15318TIP3    H167445   4.881   4.912  11.087
15318TIP3    H267446   4.750   4.944  11.155
15319TIP3   OH267447   2.467   5.798  14.863
15319TIP3    H167448   2.404   5.797  14.791
15319TIP3    H267449   2.414   5.812  14.941
15320TIP3   OH267450   0.132   0.780  12.981
15320TIP3    H167451   0.061   0.728  13.019
15320TIP3    H267452   0.103   0.800  12.893
15321TIP3   OH267453   1.644   6.182   1.235
15321TIP3    H167454   1.687   6.138   1.309
15321TIP3    H267455   1.693   6.263   1.223
15322TIP3   OH267456   3.710   1.940  11.424
15322TIP3    H167457   3.706   2.031  11.455
15322TIP3    H267458   3.640   1.934  11.359
15323TIP3   OH267459   2.237   5.483  16.680
15323TIP3    H167460   2.321   5.483  16.633
15323TIP3    H267461   2.255   5.435  16.761
15324TIP3   OH267462   3.334   5.137  13.843
15324TIP3    H167463   3.238   5.129  13.843
15324TIP3    H267464   3.351   5.226  13.813
15325TIP3   OH267465   4.719   5.761  14.205
15325TIP3    H167466   4.745   5.705  14.133
15325TIP3    H267467   4.756   5.847  14.183
15326TIP3   OH267468   2.171   2.166   6.018
15326TIP3    H167469   2.263   2.150   6.039
15326TIP3    H267470   2.151   2.248   6.062
15327TIP3   OH267471   6.080   0.869  16.844
15327TIP3    H167472   6.163   0.851  16.889
15327TIP3    H267473   6.048   0.950  16.883
15328TIP3   OH267474   1.819   0.343   5.200
15328TIP3    H167475   1.869   0.269   5.235
15328TIP3    H267476   1.858   0.420   5.241
15329TIP3   OH267477   1.202   1.911   5.658
15329TIP3    H167478   1.124   1.944   5.614
15329TIP3    H267479   1.275   1.953   5.612
15330TIP3   OH267480   5.449   2.801   5.043
15330TIP3    H167481   5.434   2.793   5.137
15330TIP3    H267482   5.509   2.730   5.022
15331TIP3   OH267483   1.349   2.907   0.702
15331TIP3    H167484   1.421   2.936   0.758
15331TIP3    H267485   1.330   2.818   0.731
15332TIP3   OH267486   5.458   0.327  16.785
15332TIP3    H167487   5.377   0.313  16.835
15332TIP3    H267488   5.524   0.275  16.831
15333TIP3   OH267489   3.837   3.283   1.300
15333TIP3    H167490   3.913   3.252   1.350
15333TIP3    H267491   3.764   3.232   1.333
15334TIP3   OH267492   2.270   0.182  12.565
15334TIP3    H167493   2.309   0.206  12.649
15334TIP3    H267494   2.344   0.177  12.505
15335TIP3   OH267495   1.053   4.432  16.187
15335TIP3    H167496   0.999   4.406  16.262
15335TIP3    H267497   0.993   4.480  16.130
15336TIP3   OH267498   4.993   1.591   4.771
15336TIP3    H167499   5.049   1.603   4.848
15336TIP3    H267500   5.053   1.594   4.697
15337TIP3   OH267501   4.942   4.955   2.786
15337TIP3    H167502   4.907   4.866   2.778
15337TIP3    H267503   4.910   4.986   2.871
15338TIP3   OH267504   6.361   3.248   5.545
15338TIP3    H167505   6.321   3.193   5.478
15338TIP3    H267506   6.361   3.195   5.624
15339TIP3   OH267507   3.808   5.041  14.276
15339TIP3    H167508   3.718   5.031  14.246
15339TIP3    H267509   3.857   5.064  14.197
15340TIP3   OH267510   0.940   2.172  15.747
15340TIP3    H167511   1.005   2.232  15.712
15340TIP3    H267512   0.955   2.090  15.699
15341TIP3   OH267513   2.762   5.565   0.760
15341TIP3    H167514   2.690   5.521   0.804
15341TIP3    H267515   2.784   5.639   0.816
15342TIP3   OH267516   5.369   3.822  14.593
15342TIP3    H167517   5.317   3.742  14.607
15342TIP3    H267518   5.355   3.843  14.501
15343TIP3   OH267519   4.534   6.447  14.428
15343TIP3    H167520   4.483   6.512  14.380
15343TIP3    H267521   4.559   6.383  14.362
15344TIP3   OH267522   2.585   4.405   4.236
15344TIP3    H167523   2.582   4.381   4.328
15344TIP3    H267524   2.556   4.497   4.234
15345TIP3   OH267525   2.361   6.711  14.428
15345TIP3    H167526   2.379   6.667  14.511
15345TIP3    H267527   2.409   6.660  14.363
15346TIP3   OH267528   3.626   0.194  15.235
15346TIP3    H167529   3.692   0.246  15.190
15346TIP3    H267530   3.641   0.211  15.328
15347TIP3   OH267531   2.340   0.823   5.320
15347TIP3    H167532   2.302   0.860   5.400
15347TIP3    H267533   2.283   0.854   5.250
15348TIP3   OH267534   1.436   0.407  10.824
15348TIP3    H167535   1.378   0.331  10.829
15348TIP3    H267536   1.406   0.454  10.746
15349TIP3   OH267537   5.076   4.917   3.590
15349TIP3    H167538   5.159   4.960   3.570
15349TIP3    H267539   5.100   4.829   3.618
15350TIP3   OH267540   6.601   0.512  15.367
15350TIP3    H167541   6.675   0.512  15.307
15350TIP3    H267542   6.559   0.597  15.354
15351TIP3   OH267543   4.831   6.648  16.175
15351TIP3    H167544   4.802   6.563  16.140
15351TIP3    H267545   4.881   6.625  16.254
15352TIP3   OH267546   1.455   3.245   0.149
15352TIP3    H167547   1.497   3.165   0.119
15352TIP3    H267548   1.450   3.300   0.070
15353TIP3   OH267549   2.878   3.710   0.934
15353TIP3    H167550   2.785   3.736   0.932
15353TIP3    H267551   2.876   3.615   0.939
15354TIP3   OH267552   5.447   0.378   2.505
15354TIP3    H167553   5.540   0.385   2.482
15354TIP3    H267554   5.418   0.468   2.514
15355TIP3   OH267555   2.031   5.219  11.885
15355TIP3    H167556   2.087   5.239  11.960
15355TIP3    H267557   2.014   5.125  11.892
15356TIP3   OH267558   6.161   1.715  15.622
15356TIP3    H167559   6.124   1.795  15.658
15356TIP3    H267560   6.153   1.651  15.692
15357TIP3   OH267561   5.357   0.056  12.772
15357TIP3    H167562   5.450   0.052  12.796
15357TIP3    H267563   5.315   0.096  12.848
15358TIP3   OH267564   4.902   1.983  13.216
15358TIP3    H167565   4.834   2.034  13.173
15358TIP3    H267566   4.939   1.929  13.146
15359TIP3   OH267567   5.289   4.589  13.746
15359TIP3    H167568   5.217   4.601  13.684
15359TIP3    H267569   5.330   4.507  13.719
15360TIP3   OH267570   0.648   2.157   3.860
15360TIP3    H167571   0.702   2.236   3.856
15360TIP3    H267572   0.682   2.101   3.790
15361TIP3   OH267573   1.274   6.097  15.705
15361TIP3    H167574   1.349   6.112  15.763
15361TIP3    H267575   1.218   6.035  15.752
15362TIP3   OH267576   3.390   1.677  14.246
15362TIP3    H167577   3.442   1.615  14.194
15362TIP3    H267578   3.400   1.646  14.336
15363TIP3   OH267579   1.770   4.341  12.454
15363TIP3    H167580   1.690   4.306  12.494
15363TIP3    H267581   1.782   4.288  12.375
15364TIP3   OH267582   6.259   3.945  12.155
15364TIP3    H167583   6.318   3.968  12.227
15364TIP3    H267584   6.287   3.858  12.127
15365TIP3   OH267585   6.544   4.069  11.578
15365TIP3    H167586   6.620   4.023  11.614
15365TIP3    H267587   6.577   4.110  11.498
15366TIP3   OH267588   6.043   0.046   5.935
15366TIP3    H167589   6.024   0.040   6.028
15366TIP3    H267590   5.969   0.003   5.892
15367TIP3   OH267591   2.626   4.868  16.421
15367TIP3    H167592   2.599   4.806  16.353
15367TIP3    H267593   2.577   4.948  16.401
15368TIP3   OH267594   5.261   0.020   4.058
15368TIP3    H167595   5.281   0.074   3.982
15368TIP3    H267596   5.346   0.001   4.098
15369TIP3   OH267597   2.836   0.855  17.216
15369TIP3    H167598   2.828   0.760  17.203
15369TIP3    H267599   2.748   0.883  17.242
15370TIP3   OH267600   5.476   1.428   1.686
15370TIP3    H167601   5.568   1.454   1.680
15370TIP3    H267602   5.468   1.388   1.772
15371TIP3   OH267603   2.079   4.868  16.329
15371TIP3    H167604   2.001   4.894  16.378
15371TIP3    H267605   2.083   4.928  16.254
15372TIP3   OH267606   3.368   1.130   5.097
15372TIP3    H167607   3.318   1.108   5.018
15372TIP3    H267608   3.307   1.111   5.169
15373TIP3   OH267609   1.067   4.957   6.120
15373TIP3    H167610   0.989   4.934   6.070
15373TIP3    H267611   1.034   5.016   6.188
15374TIP3   OH267612   3.544   4.928   3.278
15374TIP3    H167613   3.504   4.954   3.361
15374TIP3    H267614   3.551   4.833   3.284
15375TIP3   OH267615   2.601   1.586   6.714
15375TIP3    H167616   2.630   1.637   6.638
15375TIP3    H267617   2.626   1.496   6.694
15376TIP3   OH267618   2.429   1.855   1.353
15376TIP3    H167619   2.506   1.812   1.390
15376TIP3    H267620   2.463   1.936   1.315
15377TIP3   OH267621   4.001   1.022  16.084
15377TIP3    H167622   4.009   1.105  16.036
15377TIP3    H267623   3.965   1.047  16.169
15378TIP3   OH267624   0.030   4.285   6.750
15378TIP3    H167625  -0.009   4.316   6.668
15378TIP3    H267626   0.078   4.360   6.784
15379TIP3   OH267627   2.855   3.468   6.335
15379TIP3    H167628   2.851   3.400   6.402
15379TIP3    H267629   2.942   3.458   6.296
15380TIP3   OH267630   2.889   4.576  11.385
15380TIP3    H167631   2.826   4.510  11.357
15380TIP3    H267632   2.949   4.529  11.443
15381TIP3   OH267633   0.124   3.685   2.876
15381TIP3    H167634   0.163   3.615   2.928
15381TIP3    H267635   0.198   3.730   2.836
15382TIP3   OH267636   2.042   1.449   1.579
15382TIP3    H167637   2.087   1.440   1.663
15382TIP3    H267638   2.087   1.522   1.536
15383TIP3   OH267639   3.192   4.578   3.098
15383TIP3    H167640   3.169   4.565   3.007
15383TIP3    H267641   3.183   4.492   3.138
15384TIP3   OH267642   2.320   3.044  11.529
15384TIP3    H167643   2.338   3.138  11.531
15384TIP3    H267644   2.335   3.019  11.438
15385TIP3   OH267645   1.007   6.190  14.183
15385TIP3    H167646   1.056   6.250  14.128
15385TIP3    H267647   0.921   6.232  14.194
15386TIP3   OH267648   5.468   5.201   3.375
15386TIP3    H167649   5.492   5.291   3.354
15386TIP3    H267650   5.551   5.157   3.392
15387TIP3   OH267651   3.679   3.185  14.071
15387TIP3    H167652   3.700   3.278  14.063
15387TIP3    H267653   3.588   3.184  14.102
15388TIP3   OH267654   4.973   2.598   6.608
15388TIP3    H167655   4.999   2.655   6.680
15388TIP3    H267656   4.906   2.540   6.645
15389TIP3   OH267657   0.550   6.233   1.293
15389TIP3    H167658   0.633   6.185   1.301
15389TIP3    H267659   0.483   6.170   1.319
15390TIP3   OH267660   1.132   2.017   1.903
15390TIP3    H167661   1.073   2.014   1.979
15390TIP3    H267662   1.218   2.037   1.940
15391TIP3   OH267663   5.042   6.470   3.359
15391TIP3    H167664   5.051   6.393   3.416
15391TIP3    H267665   4.954   6.463   3.322
15392TIP3   OH267666   0.158   3.988  16.508
15392TIP3    H167667   0.163   3.912  16.566
15392TIP3    H267668   0.201   3.960  16.427
15393TIP3   OH267669   3.891   3.843   4.470
15393TIP3    H167670   3.864   3.821   4.381
15393TIP3    H267671   3.902   3.759   4.514
15394TIP3   OH267672   6.592   0.837  15.482
15394TIP3    H167673   6.498   0.839  15.502
15394TIP3    H267674   6.596   0.829  15.387
15395TIP3   OH267675   0.760   4.831   4.340
15395TIP3    H167676   0.761   4.737   4.355
15395TIP3    H267677   0.718   4.867   4.418
15396TIP3   OH267678   5.489   1.065   0.862
15396TIP3    H167679   5.443   1.137   0.818
15396TIP3    H267680   5.425   1.028   0.922
15397TIP3   OH267681   4.604   3.551   2.571
15397TIP3    H167682   4.652   3.542   2.653
15397TIP3    H267683   4.547   3.474   2.567
15398TIP3   OH267684   6.226   6.016  14.302
15398TIP3    H167685   6.191   5.989  14.217
15398TIP3    H267686   6.318   5.990  14.300
15399TIP3   OH267687   2.871   4.334  13.076
15399TIP3    H167688   2.835   4.254  13.037
15399TIP3    H267689   2.795   4.391  13.087
15400TIP3   OH267690   2.859   3.969   3.223
15400TIP3    H167691   2.887   4.039   3.282
15400TIP3    H267692   2.882   3.888   3.269
15401TIP3   OH267693   2.634   1.029   5.806
15401TIP3    H167694   2.722   1.033   5.768
15401TIP3    H267695   2.584   1.097   5.759
15402TIP3   OH267696   6.171   1.498  14.908
15402TIP3    H167697   6.173   1.405  14.927
15402TIP3    H267698   6.253   1.515  14.860
15403TIP3   OH267699   3.537   1.142   1.320
15403TIP3    H167700   3.444   1.119   1.319
15403TIP3    H267701   3.579   1.073   1.270
15404TIP3   OH267702   4.333   2.262  16.756
15404TIP3    H167703   4.339   2.262  16.661
15404TIP3    H267704   4.317   2.354  16.779
15405TIP3   OH267705   1.099   6.249   6.024
15405TIP3    H167706   1.134   6.335   6.046
15405TIP3    H267707   1.143   6.225   5.943
15406TIP3   OH267708   4.301   3.071  12.449
15406TIP3    H167709   4.226   3.094  12.504
15406TIP3    H267710   4.265   3.011  12.384
15407TIP3   OH267711   1.903   5.668  10.890
15407TIP3    H167712   1.920   5.616  10.969
15407TIP3    H267713   1.837   5.731  10.917
15408TIP3   OH267714   3.700   0.567  11.119
15408TIP3    H167715   3.627   0.523  11.164
15408TIP3    H267716   3.659   0.638  11.071
15409TIP3   OH267717   4.067   0.529   1.056
15409TIP3    H167718   4.024   0.444   1.057
15409TIP3    H267719   4.105   0.538   1.144
15410TIP3   OH267720   2.798   3.508  14.414
15410TIP3    H167721   2.770   3.591  14.452
15410TIP3    H267722   2.800   3.448  14.489
15411TIP3   OH267723   5.742   6.172  12.936
15411TIP3    H167724   5.707   6.115  13.004
15411TIP3    H267725   5.719   6.129  12.854
15412TIP3   OH267726   2.368   0.033  17.155
15412TIP3    H167727   2.377   0.005  17.064
15412TIP3    H267728   2.299  -0.023  17.191
15413TIP3   OH267729   1.261   1.166   5.572
15413TIP3    H167730   1.268   1.151   5.478
15413TIP3    H267731   1.202   1.241   5.579
15414TIP3   OH267732   3.436   3.798   2.336
15414TIP3    H167733   3.522   3.761   2.355
15414TIP3    H267734   3.378   3.722   2.326
15415TIP3   OH267735   6.516   5.196  15.685
15415TIP3    H167736   6.585   5.153  15.735
15415TIP3    H267737   6.439   5.193  15.741
15416TIP3   OH267738   2.684   2.157  15.758
15416TIP3    H167739   2.673   2.220  15.687
15416TIP3    H267740   2.611   2.173  15.817
15417TIP3   OH267741   4.228   1.477  14.066
15417TIP3    H167742   4.199   1.448  13.980
15417TIP3    H267743   4.147   1.491  14.115
15418TIP3   OH267744   6.209   1.988  13.309
15418TIP3    H167745   6.194   1.919  13.244
15418TIP3    H267746   6.296   1.969  13.344
15419TIP3   OH267747   0.019   3.589   4.644
15419TIP3    H167748  -0.033   3.509   4.632
15419TIP3    H267749  -0.041   3.651   4.685
15420TIP3   OH267750   5.977   0.106  12.027
15420TIP3    H167751   6.070   0.099  12.050
15420TIP3    H267752   5.976   0.156  11.946
15421TIP3   OH267753   0.075   6.164   4.429
15421TIP3    H167754  -0.008   6.119   4.412
15421TIP3    H267755   0.068   6.195   4.519
15422TIP3   OH267756   2.377   2.007  14.863
15422TIP3    H167757   2.294   2.049  14.843
15422TIP3    H267758   2.401   2.041  14.950
15423TIP3   OH267759   4.014   3.232   5.089
15423TIP3    H167760   3.964   3.241   5.007
15423TIP3    H267761   4.048   3.320   5.105
15424TIP3   OH267762   3.206   5.190   1.954
15424TIP3    H167763   3.127   5.194   1.901
15424TIP3    H267764   3.241   5.103   1.940
15425TIP3   OH267765   4.283   3.665  16.378
15425TIP3    H167766   4.326   3.605  16.316
15425TIP3    H267767   4.249   3.607  16.446
15426TIP3   OH267768   1.470   1.797   5.774
15426TIP3    H167769   1.393   1.844   5.741
15426TIP3    H267770   1.440   1.758   5.857
15427TIP3   OH267771   5.067   2.783  12.312
15427TIP3    H167772   4.975   2.796  12.335
15427TIP3    H267773   5.108   2.868  12.330
15428TIP3   OH267774   5.937   1.214  12.631
15428TIP3    H167775   5.897   1.281  12.575
15428TIP3    H267776   5.890   1.223  12.714
15429TIP3   OH267777   2.339   6.650   3.520
15429TIP3    H167778   2.414   6.655   3.579
15429TIP3    H267779   2.306   6.739   3.514
15430TIP3   OH267780   1.406   2.079   4.314
15430TIP3    H167781   1.435   2.090   4.405
15430TIP3    H267782   1.311   2.067   4.321
15431TIP3   OH267783   6.719   5.280   4.975
15431TIP3    H167784   6.702   5.312   5.063
15431TIP3    H267785   6.783   5.210   4.986
15432TIP3   OH267786   1.544   1.821  12.967
15432TIP3    H167787   1.616   1.867  12.923
15432TIP3    H267788   1.541   1.859  13.054
15433TIP3   OH267789   6.579   4.656  11.522
15433TIP3    H167790   6.639   4.726  11.547
15433TIP3    H267791   6.575   4.661  11.427
15434TIP3   OH267792   0.190   4.548  13.726
15434TIP3    H167793   0.117   4.523  13.670
15434TIP3    H267794   0.151   4.560  13.812
15435TIP3   OH267795   0.830   5.471   4.041
15435TIP3    H167796   0.923   5.449   4.036
15435TIP3    H267797   0.828   5.567   4.035
15436TIP3   OH267798   5.235   0.346   5.299
15436TIP3    H167799   5.229   0.251   5.298
15436TIP3    H267800   5.159   0.375   5.249
15437TIP3   OH267801   1.256   2.585  11.792
15437TIP3    H167802   1.186   2.645  11.767
15437TIP3    H267803   1.331   2.641  11.811
15438TIP3   OH267804   4.932   5.572   4.412
15438TIP3    H167805   4.929   5.549   4.505
15438TIP3    H267806   4.881   5.503   4.369
15439TIP3   OH267807   1.180   0.828  12.221
15439TIP3    H167808   1.118   0.820  12.294
15439TIP3    H267809   1.166   0.750  12.168
15440TIP3   OH267810   2.550   5.143   1.660
15440TIP3    H167811   2.485   5.160   1.728
15440TIP3    H267812   2.616   5.212   1.673
15441TIP3   OH267813   2.467   3.434  10.544
15441TIP3    H167814   2.535   3.450  10.478
15441TIP3    H267815   2.391   3.404  10.494
15442TIP3   OH267816   2.793   6.789  11.432
15442TIP3    H167817   2.775   6.719  11.369
15442TIP3    H267818   2.711   6.838  11.438
15443TIP3   OH267819   3.282   6.003  17.092
15443TIP3    H167820   3.204   6.000  17.037
15443TIP3    H267821   3.310   5.912  17.100
15444TIP3   OH267822   3.738   0.864  14.725
15444TIP3    H167823   3.756   0.925  14.797
15444TIP3    H267824   3.648   0.886  14.699
15445TIP3   OH267825   1.251   2.361  16.332
15445TIP3    H167826   1.231   2.452  16.355
15445TIP3    H267827   1.339   2.347  16.366
15446TIP3   OH267828   3.156   1.307  15.450
15446TIP3    H167829   3.090   1.345  15.392
15446TIP3    H267830   3.220   1.377  15.463
15447TIP3   OH267831   5.645   4.476  13.540
15447TIP3    H167832   5.616   4.558  13.499
15447TIP3    H267833   5.658   4.416  13.468
15448TIP3   OH267834   3.221   4.997  14.137
15448TIP3    H167835   3.202   5.059  14.207
15448TIP3    H267836   3.152   4.931  14.144
15449TIP3   OH267837   0.174   3.565  13.711
15449TIP3    H167838   0.104   3.517  13.754
15449TIP3    H267839   0.197   3.634  13.774
15450TIP3   OH267840   0.573   1.070  14.600
15450TIP3    H167841   0.581   1.102  14.510
15450TIP3    H267842   0.488   1.103  14.629
15451TIP3   OH267843   6.107   2.581  14.393
15451TIP3    H167844   6.107   2.524  14.470
15451TIP3    H267845   6.049   2.654  14.417
15452TIP3   OH267846   1.472   1.572  16.815
15452TIP3    H167847   1.491   1.593  16.906
15452TIP3    H267848   1.457   1.657  16.773
15453TIP3   OH267849   0.607   1.402   2.891
15453TIP3    H167850   0.602   1.467   2.822
15453TIP3    H267851   0.517   1.393   2.922
15454TIP3   OH267852   3.661   5.622   0.374
15454TIP3    H167853   3.706   5.658   0.298
15454TIP3    H267854   3.593   5.687   0.395
15455TIP3   OH267855   1.130   1.550   1.884
15455TIP3    H167856   1.180   1.631   1.872
15455TIP3    H267857   1.188   1.481   1.851
15456TIP3   OH267858   0.453   5.254  15.095
15456TIP3    H167859   0.538   5.263  15.051
15456TIP3    H267860   0.397   5.320  15.054
15457TIP3   OH267861   2.802   0.541   5.326
15457TIP3    H167862   2.847   0.593   5.259
15457TIP3    H267863   2.731   0.498   5.279
15458TIP3   OH267864   1.287   5.648   2.231
15458TIP3    H167865   1.379   5.629   2.212
15458TIP3    H267866   1.249   5.563   2.256
15459TIP3   OH267867   3.813   5.782   0.151
15459TIP3    H167868   3.838   5.874   0.136
15459TIP3    H267869   3.886   5.732   0.117
15460TIP3   OH267870   6.102   3.766   1.528
15460TIP3    H167871   6.159   3.740   1.600
15460TIP3    H267872   6.047   3.689   1.512
15461TIP3   OH267873   3.829   0.326   4.937
15461TIP3    H167874   3.833   0.353   4.845
15461TIP3    H267875   3.910   0.276   4.951
15462TIP3   OH267876   5.396   4.610  12.683
15462TIP3    H167877   5.455   4.677  12.719
15462TIP3    H267878   5.450   4.532  12.677
15463TIP3   OH267879   4.783   1.163   2.435
15463TIP3    H167880   4.859   1.218   2.457
15463TIP3    H267881   4.791   1.147   2.341
15464TIP3   OH267882   5.154   4.394  10.875
15464TIP3    H167883   5.176   4.345  10.954
15464TIP3    H267884   5.094   4.336  10.827
15465TIP3   OH267885   3.898   5.668  16.004
15465TIP3    H167886   3.954   5.656  15.927
15465TIP3    H267887   3.953   5.641  16.078
15466TIP3   OH267888   3.146   4.572  11.544
15466TIP3    H167889   3.183   4.484  11.541
15466TIP3    H267890   3.185   4.612  11.622
15467TIP3   OH267891   1.186   5.723   1.574
15467TIP3    H167892   1.164   5.631   1.590
15467TIP3    H267893   1.142   5.744   1.492
15468TIP3   OH267894   3.652   1.011  15.142
15468TIP3    H167895   3.649   1.060  15.060
15468TIP3    H267896   3.569   0.965  15.147
15469TIP3   OH267897   5.833   5.124   5.708
15469TIP3    H167898   5.755   5.070   5.694
15469TIP3    H267899   5.868   5.138   5.620
15470TIP3   OH267900   4.417   1.903   2.809
15470TIP3    H167901   4.423   1.897   2.904
15470TIP3    H267902   4.493   1.956   2.783
15471TIP3   OH267903   5.216   1.751   5.766
15471TIP3    H167904   5.262   1.709   5.838
15471TIP3    H267905   5.179   1.831   5.804
15472TIP3   OH267906   1.414   2.482  10.854
15472TIP3    H167907   1.503   2.511  10.875
15472TIP3    H267908   1.402   2.506  10.762
15473TIP3   OH267909   4.694   2.122   2.534
15473TIP3    H167910   4.652   2.160   2.458
15473TIP3    H267911   4.647   2.039   2.548
15474TIP3   OH267912   1.636   3.732   0.173
15474TIP3    H167913   1.572   3.798   0.201
15474TIP3    H267914   1.713   3.749   0.227
15475TIP3   OH267915   3.059   0.287  16.830
15475TIP3    H167916   3.051   0.194  16.808
15475TIP3    H267917   2.970   0.313  16.855
15476TIP3   OH267918   1.735   5.530   2.330
15476TIP3    H167919   1.690   5.510   2.247
15476TIP3    H267920   1.671   5.507   2.398
15477TIP3   OH267921   5.910   5.594  13.742
15477TIP3    H167922   5.815   5.600  13.756
15477TIP3    H267923   5.919   5.541  13.663
15478TIP3   OH267924   3.102   6.091  15.809
15478TIP3    H167925   3.196   6.105  15.820
15478TIP3    H267926   3.080   6.133  15.726
15479TIP3   OH267927   6.231   5.555   1.502
15479TIP3    H167928   6.158   5.496   1.487
15479TIP3    H267929   6.308   5.498   1.511
15480TIP3   OH267930   2.702   6.688  13.367
15480TIP3    H167931   2.683   6.781  13.357
15480TIP3    H267932   2.767   6.685  13.438
15481TIP3   OH267933   4.209   4.108  15.954
15481TIP3    H167934   4.269   4.155  15.897
15481TIP3    H267935   4.266   4.062  16.016
15482TIP3   OH267936   2.355   5.300  16.476
15482TIP3    H167937   2.409   5.379  16.487
15482TIP3    H267938   2.269   5.334  16.448
15483TIP3   OH267939   1.140   4.908   5.659
15483TIP3    H167940   1.189   4.985   5.688
15483TIP3    H267941   1.180   4.834   5.704
15484TIP3   OH267942   0.617   2.598  11.707
15484TIP3    H167943   0.685   2.578  11.642
15484TIP3    H267944   0.639   2.685  11.738
15485TIP3   OH267945   4.280   2.058  12.947
15485TIP3    H167946   4.210   2.121  12.929
15485TIP3    H267947   4.253   1.979  12.901
15486TIP3   OH267948   6.461   6.067   2.970
15486TIP3    H167949   6.457   5.979   2.933
15486TIP3    H267950   6.380   6.076   3.021
15487TIP3   OH267951   0.037   2.945  16.552
15487TIP3    H167952  -0.021   2.917  16.481
15487TIP3    H267953   0.117   2.895  16.538
15488TIP3   OH267954   2.012   4.351   4.279
15488TIP3    H167955   2.094   4.360   4.328
15488TIP3    H267956   1.977   4.266   4.305
15489TIP3   OH267957   0.767   6.517   2.193
15489TIP3    H167958   0.741   6.441   2.141
15489TIP3    H267959   0.724   6.591   2.150
15490TIP3   OH267960   2.368   0.172   5.056
15490TIP3    H167961   2.385   0.231   4.982
15490TIP3    H267962   2.293   0.211   5.100
15491TIP3   OH267963   6.664   5.135  15.171
15491TIP3    H167964   6.700   5.058  15.127
15491TIP3    H267965   6.740   5.178  15.210
15492TIP3   OH267966   0.296   6.484   0.720
15492TIP3    H167967   0.272   6.420   0.653
15492TIP3    H267968   0.213   6.528   0.742
15493TIP3   OH267969   4.327   0.240  16.180
15493TIP3    H167970   4.363   0.310  16.234
15493TIP3    H267971   4.401   0.183  16.161
15494TIP3   OH267972   6.075   6.187   3.801
15494TIP3    H167973   6.160   6.156   3.768
15494TIP3    H267974   6.066   6.145   3.886
15495TIP3   OH267975   0.643   2.438   3.495
15495TIP3    H167976   0.707   2.368   3.508
15495TIP3    H267977   0.574   2.419   3.558
15496TIP3   OH267978   1.104   5.387   3.615
15496TIP3    H167979   1.148   5.327   3.555
15496TIP3    H267980   1.161   5.464   3.619
15497TIP3   OH267981   2.564   1.891   4.695
15497TIP3    H167982   2.472   1.866   4.685
15497TIP3    H267983   2.588   1.860   4.782
15498TIP3   OH267984   3.405   6.359  15.498
15498TIP3    H167985   3.332   6.297  15.504
15498TIP3    H267986   3.366   6.438  15.462
15499TIP3   OH267987   4.950   1.709   5.814
15499TIP3    H167988   4.874   1.742   5.862
15499TIP3    H267989   5.025   1.747   5.859
15500TIP3   OH267990   0.721   3.573  12.436
15500TIP3    H167991   0.647   3.597  12.491
15500TIP3    H267992   0.724   3.641  12.369
15501TIP3   OH267993   1.412   3.881   0.626
15501TIP3    H167994   1.347   3.857   0.692
15501TIP3    H267995   1.473   3.807   0.623
15502TIP3   OH267996   4.913   3.866   0.831
15502TIP3    H167997   4.827   3.835   0.802
15502TIP3    H267998   4.961   3.882   0.750
15503TIP3   OH267999   3.305   5.787   1.792
15503TIP3    H168000   3.285   5.880   1.799
15503TIP3    H268001   3.400   5.782   1.782
15504TIP3   OH268002   6.430   1.605  15.135
15504TIP3    H168003   6.417   1.699  15.148
15504TIP3    H268004   6.379   1.564  15.206
15505TIP3   OH268005   4.996   2.055   5.384
15505TIP3    H168006   5.039   2.077   5.467
15505TIP3    H268007   4.905   2.038   5.407
15506TIP3   OH268008   1.921   0.169   2.909
15506TIP3    H168009   1.914   0.142   3.000
15506TIP3    H268010   1.934   0.087   2.861
15507TIP3   OH268011   1.076   1.109  15.599
15507TIP3    H168012   1.155   1.058  15.581
15507TIP3    H268013   1.083   1.185  15.541
15508TIP3   OH268014   0.493   5.609  14.863
15508TIP3    H168015   0.539   5.621  14.946
15508TIP3    H268016   0.513   5.520  14.836
15509TIP3   OH268017   0.483   1.554   0.852
15509TIP3    H168018   0.545   1.602   0.796
15509TIP3    H268019   0.400   1.599   0.840
15510TIP3   OH268020   2.016   3.911   5.298
15510TIP3    H168021   2.051   3.841   5.353
15510TIP3    H268022   2.080   3.919   5.227
15511TIP3   OH268023   1.228   1.371  14.910
15511TIP3    H168024   1.293   1.440  14.911
15511TIP3    H268025   1.249   1.316  14.985
15512TIP3   OH268026   1.095   1.283   5.861
15512TIP3    H168027   1.160   1.353   5.866
15512TIP3    H268028   1.023   1.312   5.917
15513TIP3   OH268029   1.450   0.758   2.767
15513TIP3    H168030   1.426   0.735   2.856
15513TIP3    H268031   1.475   0.850   2.771
15514TIP3   OH268032   4.894   3.581   2.227
15514TIP3    H168033   4.952   3.632   2.172
15514TIP3    H268034   4.946   3.505   2.254
15515TIP3   OH268035   5.386   5.495  16.232
15515TIP3    H168036   5.297   5.520  16.257
15515TIP3    H268037   5.443   5.554  16.281
15516TIP3   OH268038   1.786   5.834   0.969
15516TIP3    H168039   1.735   5.854   0.891
15516TIP3    H268040   1.841   5.912   0.982
15517TIP3   OH268041   1.418   5.171  13.374
15517TIP3    H168042   1.456   5.213  13.296
15517TIP3    H268043   1.325   5.189  13.367
15518TIP3   OH268044   0.092   4.050   2.350
15518TIP3    H168045   0.102   4.103   2.271
15518TIP3    H268046   0.021   3.990   2.330
15519TIP3   OH268047   4.665   6.524  15.587
15519TIP3    H168048   4.628   6.587  15.649
15519TIP3    H268049   4.599   6.456  15.578
15520TIP3   OH268050   0.845   0.529   3.953
15520TIP3    H168051   0.803   0.521   3.868
15520TIP3    H268052   0.776   0.559   4.012
15521TIP3   OH268053   4.866   2.299  15.783
15521TIP3    H168054   4.772   2.297  15.765
15521TIP3    H268055   4.882   2.388  15.815
15522TIP3   OH268056   6.305   2.894  10.754
15522TIP3    H168057   6.381   2.952  10.753
15522TIP3    H268058   6.287   2.877  10.661
15523TIP3   OH268059   5.828   6.300   4.091
15523TIP3    H168060   5.868   6.380   4.128
15523TIP3    H268061   5.903   6.243   4.073
15524TIP3   OH268062   2.579   3.189  11.025
15524TIP3    H168063   2.568   3.099  10.993
15524TIP3    H268064   2.523   3.242  10.969
15525TIP3   OH268065   5.805   2.049  12.078
15525TIP3    H168066   5.788   1.958  12.103
15525TIP3    H268067   5.879   2.045  12.018
15526TIP3   OH268068   3.490   1.409   1.447
15526TIP3    H168069   3.582   1.425   1.464
15526TIP3    H268070   3.482   1.313   1.444
15527TIP3   OH268071   3.125   1.791  17.240
15527TIP3    H168072   3.142   1.850  17.313
15527TIP3    H268073   3.211   1.759  17.214
15528TIP3   OH268074   0.410   4.151  16.046
15528TIP3    H168075   0.437   4.238  16.016
15528TIP3    H268076   0.379   4.107  15.967
15529TIP3   OH268077   1.364   2.600   4.663
15529TIP3    H168078   1.399   2.512   4.677
15529TIP3    H268079   1.356   2.637   4.750
15530TIP3   OH268080   6.301   2.608  12.012
15530TIP3    H168081   6.349   2.623  11.931
15530TIP3    H268082   6.308   2.513  12.027
15531TIP3   OH268083   2.568   0.905   4.937
15531TIP3    H168084   2.637   0.966   4.910
15531TIP3    H268085   2.567   0.838   4.869
15532TIP3   OH268086   4.157   4.008  14.679
15532TIP3    H168087   4.090   4.047  14.736
15532TIP3    H268088   4.117   3.927  14.648
15533TIP3   OH268089   1.929   5.794  14.805
15533TIP3    H168090   1.868   5.811  14.734
15533TIP3    H268091   1.908   5.704  14.833
15534TIP3   OH268092   6.368   0.294  12.215
15534TIP3    H168093   6.443   0.354  12.218
15534TIP3    H268094   6.329   0.301  12.302
15535TIP3   OH268095   5.197   5.308  13.304
15535TIP3    H168096   5.266   5.265  13.354
15535TIP3    H268097   5.119   5.255  13.319
15536TIP3   OH268098   2.948   4.222  17.154
15536TIP3    H168099   3.033   4.204  17.114
15536TIP3    H268100   2.966   4.290  17.219
15537TIP3   OH268101   1.651   5.415  12.607
15537TIP3    H168102   1.664   5.338  12.551
15537TIP3    H268103   1.644   5.380  12.695
15538TIP3   OH268104   4.770   0.307   2.197
15538TIP3    H168105   4.761   0.395   2.235
15538TIP3    H268106   4.749   0.319   2.105
15539TIP3   OH268107   1.782   6.200   6.187
15539TIP3    H168108   1.872   6.233   6.178
15539TIP3    H268109   1.740   6.222   6.104
15540TIP3   OH268110   5.583   5.377  12.302
15540TIP3    H168111   5.540   5.455  12.267
15540TIP3    H268112   5.666   5.408  12.337
15541TIP3   OH268113   2.979   2.218   0.491
15541TIP3    H168114   2.982   2.311   0.471
15541TIP3    H268115   2.933   2.179   0.417
15542TIP3   OH268116   0.225   3.290  14.791
15542TIP3    H168117   0.319   3.283  14.775
15542TIP3    H268118   0.199   3.369  14.744
15543TIP3   OH268119   4.426   5.967   1.851
15543TIP3    H168120   4.439   5.872   1.847
15543TIP3    H268121   4.480   5.997   1.924
15544TIP3   OH268122   0.621   0.368   0.223
15544TIP3    H168123   0.539   0.418   0.219
15544TIP3    H268124   0.594   0.281   0.254
15545TIP3   OH268125   0.578   0.573  14.469
15545TIP3    H168126   0.565   0.657  14.512
15545TIP3    H268127   0.530   0.510  14.524
15546TIP3   OH268128   0.917   3.472  15.950
15546TIP3    H168129   0.871   3.537  15.897
15546TIP3    H268130   0.992   3.518  15.986
15547TIP3   OH268131   1.570   2.661   2.493
15547TIP3    H168132   1.564   2.744   2.446
15547TIP3    H268133   1.508   2.670   2.566
15548TIP3   OH268134   3.361   5.771  15.404
15548TIP3    H168135   3.333   5.769  15.312
15548TIP3    H268136   3.334   5.686  15.439
15549TIP3   OH268137   0.326   1.363   2.229
15549TIP3    H168138   0.286   1.287   2.187
15549TIP3    H268139   0.403   1.383   2.174
15550TIP3   OH268140   0.458   2.126  13.043
15550TIP3    H168141   0.435   2.044  13.000
15550TIP3    H268142   0.513   2.172  12.980
15551TIP3   OH268143   3.945   1.170   5.842
15551TIP3    H168144   3.958   1.076   5.829
15551TIP3    H268145   3.856   1.176   5.878
15552TIP3   OH268146   1.282   4.292  13.583
15552TIP3    H168147   1.236   4.251  13.509
15552TIP3    H268148   1.293   4.383  13.556
15553TIP3   OH268149   1.067   4.922  14.533
15553TIP3    H168150   1.100   4.998  14.581
15553TIP3    H268151   1.035   4.958  14.451
15554TIP3   OH268152   2.842   3.581   5.034
15554TIP3    H168153   2.884   3.667   5.039
15554TIP3    H268154   2.883   3.531   5.104
15555TIP3   OH268155   5.623   2.240  11.528
15555TIP3    H168156   5.569   2.235  11.607
15555TIP3    H268157   5.603   2.326  11.491
15556TIP3   OH268158   4.155   1.137  13.341
15556TIP3    H168159   4.133   1.077  13.412
15556TIP3    H268160   4.081   1.131  13.280
15557TIP3   OH268161   3.019   0.548   0.709
15557TIP3    H168162   3.100   0.594   0.730
15557TIP3    H268163   3.023   0.467   0.759
15558TIP3   OH268164   1.898   2.658   1.834
15558TIP3    H168165   1.915   2.592   1.766
15558TIP3    H268166   1.803   2.661   1.841
15559TIP3   OH268167   1.768   1.875  16.088
15559TIP3    H168168   1.738   1.785  16.075
15559TIP3    H268169   1.859   1.874  16.060
15560TIP3   OH268170   2.868   1.038   3.544
15560TIP3    H168171   2.910   0.956   3.518
15560TIP3    H268172   2.797   1.011   3.601
15561TIP3   OH268173   2.065   1.206   1.387
15561TIP3    H168174   2.049   1.113   1.368
15561TIP3    H268175   2.079   1.209   1.481
15562TIP3   OH268176   2.780   2.259  12.351
15562TIP3    H168177   2.717   2.208  12.401
15562TIP3    H268178   2.776   2.222  12.263
15563TIP3   OH268179   5.386   3.517   2.967
15563TIP3    H168180   5.351   3.485   3.050
15563TIP3    H268181   5.349   3.459   2.900
15564TIP3   OH268182   1.631   6.613   4.181
15564TIP3    H168183   1.724   6.629   4.160
15564TIP3    H268184   1.613   6.674   4.252
15565TIP3   OH268185   1.729   1.700   2.763
15565TIP3    H168186   1.820   1.700   2.792
15565TIP3    H268187   1.725   1.767   2.694
15566TIP3   OH268188   2.675   5.804   3.820
15566TIP3    H168189   2.672   5.892   3.783
15566TIP3    H268190   2.649   5.746   3.748
15567TIP3   OH268191   4.944   0.443  15.238
15567TIP3    H168192   4.979   0.445  15.328
15567TIP3    H268193   5.009   0.492  15.187
15568TIP3   OH268194   0.950   1.639   4.179
15568TIP3    H168195   1.015   1.675   4.238
15568TIP3    H268196   0.866   1.663   4.218
15569TIP3   OH268197   1.034   6.341  12.209
15569TIP3    H168198   1.058   6.249  12.196
15569TIP3    H268199   1.042   6.355  12.303
15570TIP3   OH268200   3.817   5.214   3.150
15570TIP3    H168201   3.782   5.302   3.144
15570TIP3    H268202   3.778   5.167   3.076
15571TIP3   OH268203   3.369   0.269   1.132
15571TIP3    H168204   3.431   0.229   1.194
15571TIP3    H268205   3.338   0.197   1.078
15572TIP3   OH268206   4.811   0.759   2.866
15572TIP3    H168207   4.800   0.797   2.779
15572TIP3    H268208   4.764   0.676   2.862
15573TIP3   OH268209   5.358   1.630  14.072
15573TIP3    H168210   5.413   1.708  14.066
15573TIP3    H268211   5.418   1.561  14.102
15574TIP3   OH268212   2.933   3.403   3.578
15574TIP3    H168213   2.859   3.435   3.629
15574TIP3    H268214   2.926   3.308   3.582
15575TIP3   OH268215   1.813   4.338  12.897
15575TIP3    H168216   1.792   4.306  12.809
15575TIP3    H268217   1.734   4.320  12.948
15576TIP3   OH268218   0.241   3.449  16.864
15576TIP3    H168219   0.316   3.487  16.910
15576TIP3    H268220   0.165   3.492  16.904
15577TIP3   OH268221   5.414   4.833  13.193
15577TIP3    H168222   5.349   4.888  13.148
15577TIP3    H268223   5.394   4.744  13.164
15578TIP3   OH268224   2.419   6.620   3.208
15578TIP3    H168225   2.347   6.671   3.245
15578TIP3    H268226   2.473   6.684   3.163
15579TIP3   OH268227   4.363   4.206  14.644
15579TIP3    H168228   4.326   4.245  14.565
15579TIP3    H268229   4.291   4.156  14.682
15580TIP3   OH268230   2.278   2.812  12.612
15580TIP3    H168231   2.183   2.812  12.599
15580TIP3    H268232   2.290   2.823  12.706
15581TIP3   OH268233   5.604   6.115  15.979
15581TIP3    H168234   5.641   6.093  15.894
15581TIP3    H268235   5.579   6.031  16.017
15582TIP3   OH268236   4.590   4.054   3.583
15582TIP3    H168237   4.530   4.024   3.651
15582TIP3    H268238   4.588   3.985   3.517
15583TIP3   OH268239   1.347   5.720  11.383
15583TIP3    H168240   1.258   5.748  11.363
15583TIP3    H268241   1.337   5.662  11.458
15584TIP3   OH268242   0.738   6.085   4.846
15584TIP3    H168243   0.652   6.117   4.873
15584TIP3    H268244   0.735   6.086   4.750
15585TIP3   OH268245   0.003   4.358   3.714
15585TIP3    H168246   0.079   4.413   3.732
15585TIP3    H268247  -0.070   4.420   3.707
15586TIP3   OH268248   4.631   2.840  12.728
15586TIP3    H168249   4.677   2.915  12.690
15586TIP3    H268250   4.578   2.877  12.799
15587TIP3   OH268251   2.592   2.474   0.816
15587TIP3    H168252   2.603   2.433   0.729
15587TIP3    H268253   2.519   2.426   0.856
15588TIP3   OH268254   2.609   0.133   5.684
15588TIP3    H168255   2.633   0.153   5.594
15588TIP3    H268256   2.692   0.130   5.731
15589TIP3   OH268257   1.074   5.020  15.994
15589TIP3    H168258   0.990   4.990  16.030
15589TIP3    H268259   1.139   4.992  16.058
15590TIP3   OH268260   1.330   0.731   3.320
15590TIP3    H168261   1.266   0.799   3.301
15590TIP3    H268262   1.396   0.775   3.374
15591TIP3   OH268263   2.866   2.504   0.932
15591TIP3    H168264   2.792   2.457   0.894
15591TIP3    H268265   2.827   2.561   0.998
15592TIP3   OH268266   0.509   0.201  11.272
15592TIP3    H168267   0.601   0.213  11.248
15592TIP3    H268268   0.513   0.167  11.362
15593TIP3   OH268269   5.399   5.114  17.068
15593TIP3    H168270   5.361   5.130  16.982
15593TIP3    H268271   5.348   5.167  17.128
15594TIP3   OH268272   5.184   2.369  14.738
15594TIP3    H168273   5.230   2.380  14.821
15594TIP3    H268274   5.097   2.340  14.763
15595TIP3   OH268275   5.746   1.635  15.615
15595TIP3    H168276   5.730   1.670  15.703
15595TIP3    H268277   5.694   1.554  15.612
15596TIP3   OH268278   1.167   6.696   6.516
15596TIP3    H168279   1.191   6.710   6.608
15596TIP3    H268280   1.098   6.630   6.519
15597TIP3   OH268281   2.421   4.065   2.753
15597TIP3    H168282   2.435   4.136   2.690
15597TIP3    H268283   2.347   4.093   2.806
15598TIP3   OH268284   3.873   1.391  16.548
15598TIP3    H168285   3.817   1.314  16.553
15598TIP3    H268286   3.825   1.459  16.596
15599TIP3   OH268287   0.707   4.339  12.075
15599TIP3    H168288   0.689   4.339  12.169
15599TIP3    H268289   0.637   4.392  12.037
15600TIP3   OH268290   4.341   2.599   2.550
15600TIP3    H168291   4.332   2.687   2.588
15600TIP3    H268292   4.417   2.562   2.594
15601TIP3   OH268293   1.719   5.723   3.931
15601TIP3    H168294   1.742   5.742   3.840
15601TIP3    H268295   1.739   5.805   3.977
15602TIP3   OH268296   2.645   5.752  11.104
15602TIP3    H168297   2.705   5.825  11.116
15602TIP3    H268298   2.696   5.687  11.055
15603TIP3   OH268299   5.471   1.859  14.301
15603TIP3    H168300   5.445   1.818  14.219
15603TIP3    H268301   5.565   1.875  14.291
15604TIP3   OH268302   0.422   1.646  17.292
15604TIP3    H168303   0.411   1.705  17.216
15604TIP3    H268304   0.504   1.600  17.274
15605TIP3   OH268305   5.436   3.527   4.942
15605TIP3    H168306   5.420   3.584   5.017
15605TIP3    H268307   5.447   3.587   4.868
15606TIP3   OH268308   5.481   6.437  12.337
15606TIP3    H168309   5.559   6.477  12.301
15606TIP3    H268310   5.445   6.385  12.265
15607TIP3   OH268311   5.754   4.602  11.585
15607TIP3    H168312   5.680   4.655  11.555
15607TIP3    H268313   5.829   4.634  11.534
15608TIP3   OH268314   3.535   0.887   4.198
15608TIP3    H168315   3.443   0.862   4.201
15608TIP3    H268316   3.567   0.847   4.117
15609TIP3   OH268317   5.859   0.970  14.128
15609TIP3    H168318   5.865   1.047  14.184
15609TIP3    H268319   5.937   0.919  14.150
15610TIP3   OH268320   2.954   4.567  13.727
15610TIP3    H168321   2.907   4.542  13.807
15610TIP3    H268322   2.889   4.558  13.657
15611TIP3   OH268323   4.581   0.698  15.812
15611TIP3    H168324   4.636   0.620  15.803
15611TIP3    H268325   4.504   0.668  15.859
15612TIP3   OH268326   6.189   6.561   3.586
15612TIP3    H168327   6.157   6.521   3.667
15612TIP3    H268328   6.196   6.488   3.525
15613TIP3   OH268329   0.989   0.648   4.163
15613TIP3    H168330   0.996   0.738   4.133
15613TIP3    H268331   0.973   0.597   4.084
15614TIP3   OH268332   1.395   3.365   0.400
15614TIP3    H168333   1.476   3.365   0.451
15614TIP3    H268334   1.419   3.321   0.318
15615TIP3   OH268335   2.460   2.550  17.097
15615TIP3    H168336   2.472   2.539  17.002
15615TIP3    H268337   2.375   2.509  17.114
15616TIP3   OH268338   3.636   1.128   5.140
15616TIP3    H168339   3.547   1.116   5.107
15616TIP3    H268340   3.638   1.081   5.223
15617TIP3   OH268341   0.017   6.149  14.699
15617TIP3    H168342  -0.075   6.123  14.709
15617TIP3    H268343   0.056   6.135  14.785
15618TIP3   OH268344   5.326   2.809  13.563
15618TIP3    H168345   5.252   2.835  13.510
15618TIP3    H268346   5.350   2.889  13.611
15619TIP3   OH268347   6.816   5.504  15.770
15619TIP3    H168348   6.822   5.426  15.825
15619TIP3    H268349   6.889   5.494  15.707
15620TIP3   OH268350   1.218   0.216   1.407
15620TIP3    H168351   1.258   0.151   1.349
15620TIP3    H268352   1.207   0.293   1.352
15621TIP3   OH268353   3.266   2.864   3.401
15621TIP3    H168354   3.264   2.808   3.324
15621TIP3    H268355   3.213   2.940   3.377
15622TIP3   OH268356   0.194   0.801  15.949
15622TIP3    H168357   0.208   0.802  16.044
15622TIP3    H268358   0.277   0.832  15.912
15623TIP3   OH268359   1.281   3.134   3.793
15623TIP3    H168360   1.292   3.150   3.887
15623TIP3    H268361   1.278   3.221   3.755
15624TIP3   OH268362   0.340   5.977   4.969
15624TIP3    H168363   0.406   5.963   4.901
15624TIP3    H268364   0.361   5.913   5.037
15625TIP3   OH268365   0.087   2.461   1.369
15625TIP3    H168366   0.057   2.426   1.285
15625TIP3    H268367   0.017   2.521   1.396
15626TIP3   OH268368   2.323   1.414  16.472
15626TIP3    H168369   2.352   1.502  16.449
15626TIP3    H268370   2.383   1.385  16.541
15627TIP3   OH268371   0.298   1.197   0.829
15627TIP3    H168372   0.228   1.246   0.873
15627TIP3    H268373   0.254   1.124   0.787
15628TIP3   OH268374   3.292   4.700   0.799
15628TIP3    H168375   3.328   4.754   0.869
15628TIP3    H268376   3.256   4.763   0.736
15629TIP3   OH268377   1.910   3.367  13.744
15629TIP3    H168378   1.983   3.330  13.794
15629TIP3    H268379   1.951   3.432  13.687
15630TIP3   OH268380   2.465   0.105  15.649
15630TIP3    H168381   2.401   0.168  15.617
15630TIP3    H268382   2.515   0.079  15.570
15631TIP3   OH268383   1.048   5.227  14.471
15631TIP3    H168384   1.070   5.303  14.416
15631TIP3    H268385   1.119   5.220  14.534
15632TIP3   OH268386   0.263   5.395  17.169
15632TIP3    H168387   0.290   5.470  17.116
15632TIP3    H268388   0.183   5.363  17.127
15633TIP3   OH268389   3.379   0.589   4.107
15633TIP3    H168390   3.296   0.579   4.060
15633TIP3    H268391   3.430   0.649   4.054
15634TIP3   OH268392   4.487   6.323   1.442
15634TIP3    H168393   4.563   6.303   1.387
15634TIP3    H268394   4.464   6.239   1.482
15635TIP3   OH268395   6.614   5.383   1.262
15635TIP3    H168396   6.662   5.377   1.179
15635TIP3    H268397   6.562   5.463   1.254
15636TIP3   OH268398   5.051   5.929  13.417
15636TIP3    H168399   5.122   5.900  13.359
15636TIP3    H268400   5.058   6.024  13.418
15637TIP3   OH268401   1.533   6.363   3.600
15637TIP3    H168402   1.490   6.437   3.643
15637TIP3    H268403   1.626   6.380   3.611
15638TIP3   OH268404   1.580   6.347  15.066
15638TIP3    H168405   1.505   6.323  15.121
15638TIP3    H268406   1.651   6.291  15.097
15639TIP3   OH268407   5.820   4.704  14.204
15639TIP3    H168408   5.756   4.635  14.188
15639TIP3    H268409   5.890   4.686  14.141
15640TIP3   OH268410   4.464   0.984  17.221
15640TIP3    H168411   4.541   0.952  17.176
15640TIP3    H268412   4.457   0.930  17.299
15641TIP3   OH268413   0.800   4.894  14.590
15641TIP3    H168414   0.895   4.894  14.589
15641TIP3    H268415   0.776   4.804  14.610
15642TIP3   OH268416   1.718   3.993  13.136
15642TIP3    H168417   1.808   3.974  13.110
15642TIP3    H268418   1.689   3.914  13.181
15643TIP3   OH268419   2.798   2.006  14.196
15643TIP3    H168420   2.801   1.978  14.288
15643TIP3    H268421   2.752   1.935  14.151
15644TIP3   OH268422   5.811   3.287  13.697
15644TIP3    H168423   5.902   3.264  13.718
15644TIP3    H268424   5.781   3.216  13.640
15645TIP3   OH268425   0.462   2.041   2.928
15645TIP3    H168426   0.412   2.019   3.007
15645TIP3    H268427   0.549   2.062   2.959
15646TIP3   OH268428   2.491   3.675  16.512
15646TIP3    H168429   2.436   3.730  16.568
15646TIP3    H268430   2.504   3.595  16.563
15647TIP3   OH268431   0.555   4.012  12.945
15647TIP3    H168432   0.525   3.989  13.032
15647TIP3    H268433   0.647   4.035  12.956
15648TIP3   OH268434   2.397   2.209  13.607
15648TIP3    H168435   2.417   2.258  13.687
15648TIP3    H268436   2.404   2.273  13.537
15649TIP3   OH268437   3.161   1.743   3.870
15649TIP3    H168438   3.229   1.714   3.809
15649TIP3    H268439   3.100   1.670   3.876
15650TIP3   OH268440   4.000   2.654   6.008
15650TIP3    H168441   3.947   2.729   6.036
15650TIP3    H268442   3.941   2.579   6.015
15651TIP3   OH268443   6.151   0.930  15.308
15651TIP3    H168444   6.160   0.941  15.213
15651TIP3    H268445   6.056   0.932  15.323
15652TIP3   OH268446   0.591   5.524  16.639
15652TIP3    H168447   0.521   5.486  16.586
15652TIP3    H268448   0.585   5.618  16.623
15653TIP3   OH268449   3.342   0.447  16.298
15653TIP3    H168450   3.293   0.529  16.298
15653TIP3    H268451   3.283   0.384  16.339
15654TIP3   OH268452   2.682   1.382   4.158
15654TIP3    H168453   2.736   1.449   4.199
15654TIP3    H268454   2.662   1.320   4.228
15655TIP3   OH268455   6.697   3.729   5.535
15655TIP3    H168456   6.735   3.702   5.619
15655TIP3    H268457   6.746   3.808   5.512
15656TIP3   OH268458   4.566   4.542   2.560
15656TIP3    H168459   4.529   4.619   2.603
15656TIP3    H268460   4.544   4.469   2.617
15657TIP3   OH268461   0.678   4.222  14.154
15657TIP3    H168462   0.694   4.131  14.129
15657TIP3    H268463   0.672   4.219  14.250
15658TIP3   OH268464   2.185   3.717   4.085
15658TIP3    H168465   2.161   3.656   4.015
15658TIP3    H268466   2.184   3.665   4.165
15659TIP3   OH268467   4.607   3.162   1.848
15659TIP3    H168468   4.694   3.191   1.821
15659TIP3    H268469   4.586   3.089   1.789
15660TIP3   OH268470   2.403   2.992  11.260
15660TIP3    H168471   2.329   2.979  11.201
15660TIP3    H268472   2.479   2.962  11.210
15661TIP3   OH268473   1.054   4.532  13.368
15661TIP3    H168474   1.084   4.600  13.307
15661TIP3    H268475   1.123   4.526  13.433
15662TIP3   OH268476   1.559   0.191   4.968
15662TIP3    H168477   1.544   0.239   5.049
15662TIP3    H268478   1.640   0.228   4.932
15663TIP3   OH268479   2.394   5.999   0.372
15663TIP3    H168480   2.333   5.935   0.336
15663TIP3    H268481   2.362   6.084   0.341
15664TIP3   OH268482   4.476   0.733   0.900
15664TIP3    H168483   4.429   0.806   0.940
15664TIP3    H268484   4.413   0.661   0.898
15665TIP3   OH268485   0.524   6.102  14.778
15665TIP3    H168486   0.455   6.077  14.716
15665TIP3    H268487   0.596   6.133  14.722
15666TIP3   OH268488   1.970   4.660  13.885
15666TIP3    H168489   1.952   4.726  13.818
15666TIP3    H268490   2.061   4.635  13.869
15667TIP3   OH268491   5.365   4.593   2.095
15667TIP3    H168492   5.456   4.605   2.068
15667TIP3    H268493   5.320   4.672   2.065
15668TIP3   OH268494   3.402   3.359   4.998
15668TIP3    H168495   3.441   3.277   5.028
15668TIP3    H268496   3.477   3.415   4.977
15669TIP3   OH268497   3.509   2.379  17.018
15669TIP3    H168498   3.453   2.332  16.956
15669TIP3    H268499   3.451   2.402  17.090
15670TIP3   OH268500   3.958   1.628   1.292
15670TIP3    H168501   3.939   1.715   1.325
15670TIP3    H268502   3.943   1.569   1.366
15671TIP3   OH268503   3.895   4.575   0.190
15671TIP3    H168504   3.840   4.569   0.112
15671TIP3    H268505   3.833   4.574   0.263
15672TIP3   OH268506   4.113   4.752   0.118
15672TIP3    H168507   4.110   4.757   0.022
15672TIP3    H268508   4.054   4.680   0.140
15673TIP3   OH268509   5.904   5.847   1.127
15673TIP3    H168510   5.895   5.940   1.104
15673TIP3    H268511   5.821   5.825   1.169
15674TIP3   OH268512   0.913   3.253   3.021
15674TIP3    H168513   0.952   3.275   3.106
15674TIP3    H268514   0.835   3.202   3.043
15675TIP3   OH268515   1.585   2.209   1.652
15675TIP3    H168516   1.515   2.271   1.672
15675TIP3    H268517   1.539   2.128   1.627
15676TIP3   OH268518   4.447   5.504  12.062
15676TIP3    H168519   4.454   5.593  12.098
15676TIP3    H268520   4.360   5.475  12.091
15677TIP3   OH268521   6.764   5.723  14.042
15677TIP3    H168522   6.745   5.640  14.000
15677TIP3    H268523   6.828   5.765  13.985
15678TIP3   OH268524   0.131   2.705   3.190
15678TIP3    H168525   0.178   2.640   3.137
15678TIP3    H268526   0.040   2.675   3.188
15679TIP3   OH268527   3.306   2.063  15.435
15679TIP3    H168528   3.275   2.112  15.511
15679TIP3    H268529   3.303   2.126  15.363
15680TIP3   OH268530   4.697   2.509  12.169
15680TIP3    H168531   4.782   2.552  12.160
15680TIP3    H268532   4.713   2.434  12.225
15681TIP3   OH268533   1.871   0.598  16.026
15681TIP3    H168534   1.783   0.627  16.002
15681TIP3    H268535   1.882   0.627  16.117
15682TIP3   OH268536   3.111   4.571  16.668
15682TIP3    H168537   3.166   4.642  16.634
15682TIP3    H268538   3.022   4.609  16.670
15683TIP3   OH268539   6.271   0.554  13.832
15683TIP3    H168540   6.323   0.586  13.758
15683TIP3    H268541   6.293   0.461  13.838
15684TIP3   OH268542   6.461   2.603   5.823
15684TIP3    H168543   6.417   2.608   5.908
15684TIP3    H268544   6.403   2.650   5.763
15685TIP3   OH268545   1.573   1.781   2.984
15685TIP3    H168546   1.623   1.750   2.908
15685TIP3    H268547   1.626   1.756   3.059
15686TIP3   OH268548   3.939   4.166  12.413
15686TIP3    H168549   3.947   4.257  12.443
15686TIP3    H268550   3.951   4.114  12.493
15687TIP3   OH268551   4.192   3.828   3.068
15687TIP3    H168552   4.201   3.919   3.040
15687TIP3    H268553   4.247   3.778   3.008
15688TIP3   OH268554   2.341   0.602   0.192
15688TIP3    H168555   2.335   0.634   0.282
15688TIP3    H268556   2.262   0.636   0.150
15689TIP3   OH268557   6.319   0.461   5.361
15689TIP3    H168558   6.245   0.511   5.397
15689TIP3    H268559   6.305   0.464   5.266
15690TIP3   OH268560   6.755   2.330  15.888
15690TIP3    H168561   6.781   2.240  15.905
15690TIP3    H268562   6.663   2.335  15.915
15691TIP3   OH268563   5.430   1.557   0.725
15691TIP3    H168564   5.354   1.529   0.674
15691TIP3    H268565   5.501   1.500   0.696
15692TIP3   OH268566   3.211   5.427   6.224
15692TIP3    H168567   3.161   5.383   6.294
15692TIP3    H268568   3.194   5.520   6.238
15693TIP3   OH268569   0.159   5.220  11.685
15693TIP3    H168570   0.079   5.251  11.643
15693TIP3    H268571   0.194   5.154  11.626
15694TIP3   OH268572   6.319   1.710  15.384
15694TIP3    H168573   6.332   1.616  15.402
15694TIP3    H268574   6.290   1.746  15.468
15695TIP3   OH268575   5.778   6.654  16.032
15695TIP3    H168576   5.746   6.698  15.953
15695TIP3    H268577   5.844   6.593  16.000
15696TIP3   OH268578   3.187   5.786   4.856
15696TIP3    H168579   3.152   5.872   4.880
15696TIP3    H268580   3.202   5.792   4.761
15697TIP3   OH268581   6.024   0.436   4.413
15697TIP3    H168582   6.069   0.428   4.329
15697TIP3    H268583   5.933   0.415   4.393
15698TIP3   OH268584   5.604   4.622   1.951
15698TIP3    H168585   5.555   4.576   1.882
15698TIP3    H268586   5.677   4.663   1.906
15699TIP3   OH268587   6.060   3.638   0.545
15699TIP3    H168588   6.012   3.691   0.481
15699TIP3    H268589   6.004   3.637   0.622
15700TIP3   OH268590   5.364   5.042  15.064
15700TIP3    H168591   5.412   5.124  15.049
15700TIP3    H268592   5.363   5.033  15.159
15701TIP3   OH268593   0.180   1.690  13.739
15701TIP3    H168594   0.203   1.732  13.822
15701TIP3    H268595   0.085   1.680  13.742
15702TIP3   OH268596   0.418   4.335   0.994
15702TIP3    H168597   0.436   4.241   0.994
15702TIP3    H268598   0.370   4.351   1.075
15703TIP3   OH268599   3.689   6.734   4.499
15703TIP3    H168600   3.671   6.654   4.449
15703TIP3    H268601   3.606   6.782   4.497
15704TIP3   OH268602   5.155   3.064  16.274
15704TIP3    H168603   5.191   2.976  16.264
15704TIP3    H268604   5.196   3.098  16.353
15705TIP3   OH268605   3.415   6.500  12.699
15705TIP3    H168606   3.350   6.429  12.690
15705TIP3    H268607   3.401   6.554  12.622
15706TIP3   OH268608   0.740   4.530  13.834
15706TIP3    H168609   0.798   4.503  13.905
15706TIP3    H268610   0.674   4.462  13.830
15707TIP3   OH268611   2.589   3.883   0.305
15707TIP3    H168612   2.645   3.811   0.333
15707TIP3    H268613   2.537   3.847   0.233
15708TIP3   OH268614   6.006   3.972   5.097
15708TIP3    H168615   6.068   4.009   5.160
15708TIP3    H268616   6.059   3.955   5.019
15709TIP3   OH268617   5.131   6.722   1.996
15709TIP3    H168618   5.059   6.743   2.056
15709TIP3    H268619   5.093   6.729   1.909
15710TIP3   OH268620   3.016   2.366  12.732
15710TIP3    H168621   3.041   2.457  12.716
15710TIP3    H268622   3.099   2.317  12.728
15711TIP3   OH268623   1.607   3.253   4.298
15711TIP3    H168624   1.633   3.337   4.259
15711TIP3    H268625   1.667   3.189   4.261
15712TIP3   OH268626   3.472   6.185  14.817
15712TIP3    H168627   3.516   6.230  14.889
15712TIP3    H268628   3.453   6.253  14.753
15713TIP3   OH268629   4.590   5.400  17.194
15713TIP3    H168630   4.651   5.339  17.153
15713TIP3    H268631   4.504   5.370  17.167
15714TIP3   OH268632   2.050   0.009   2.246
15714TIP3    H168633   2.108  -0.033   2.182
15714TIP3    H268634   1.962  -0.023   2.223
15715TIP3   OH268635   3.732   1.591  16.655
15715TIP3    H168636   3.669   1.599  16.584
15715TIP3    H268637   3.798   1.658  16.637
15716TIP3   OH268638   4.967   0.033   3.955
15716TIP3    H168639   4.931   0.118   3.928
15716TIP3    H268640   5.051   0.054   3.995
15717TIP3   OH268641   3.687   4.113   2.530
15717TIP3    H168642   3.642   4.115   2.446
15717TIP3    H268643   3.779   4.124   2.509
15718TIP3   OH268644   6.704   6.395  13.639
15718TIP3    H168645   6.711   6.473  13.583
15718TIP3    H268646   6.651   6.334  13.589
15719TIP3   OH268647   3.363   5.741  12.800
15719TIP3    H168648   3.318   5.688  12.866
15719TIP3    H268649   3.388   5.678  12.733
15720TIP3   OH268650   4.705   0.682  12.261
15720TIP3    H168651   4.660   0.621  12.203
15720TIP3    H268652   4.717   0.761  12.208
15721TIP3   OH268653   3.285   5.931   1.222
15721TIP3    H168654   3.231   5.854   1.203
15721TIP3    H268655   3.347   5.936   1.150
15722TIP3   OH268656   6.372   3.339   3.914
15722TIP3    H168657   6.465   3.320   3.925
15722TIP3    H268658   6.366   3.381   3.828
15723TIP3   OH268659   1.965   2.922  11.282
15723TIP3    H168660   1.956   3.017  11.276
15723TIP3    H268661   1.981   2.894  11.192
15724TIP3   OH268662   5.413   6.467  16.246
15724TIP3    H168663   5.402   6.391  16.190
15724TIP3    H268664   5.329   6.512  16.244
15725TIP3   OH268665   6.108   1.649   4.981
15725TIP3    H168666   6.097   1.636   5.075
15725TIP3    H268667   6.149   1.735   4.973
15726TIP3   OH268668   4.231   2.266   5.291
15726TIP3    H168669   4.151   2.258   5.238
15726TIP3    H268670   4.292   2.315   5.236
15727TIP3   OH268671   3.849   0.084  15.613
15727TIP3    H168672   3.819   0.016  15.674
15727TIP3    H268673   3.916   0.132  15.662
15728TIP3   OH268674   3.523   4.281  17.073
15728TIP3    H168675   3.480   4.281  17.158
15728TIP3    H268676   3.515   4.191  17.042
15729TIP3   OH268677   1.113   3.964   3.145
15729TIP3    H168678   1.063   4.035   3.105
15729TIP3    H268679   1.196   4.004   3.170
15730TIP3   OH268680   6.769   1.554  11.550
15730TIP3    H168681   6.756   1.594  11.465
15730TIP3    H268682   6.693   1.580  11.602
15731TIP3   OH268683   1.572   1.346   4.950
15731TIP3    H168684   1.560   1.435   4.983
15731TIP3    H268685   1.607   1.297   5.024
15732TIP3   OH268686   5.404   5.024   5.093
15732TIP3    H168687   5.490   5.059   5.115
15732TIP3    H268688   5.421   4.953   5.031
15733TIP3   OH268689   6.429   0.176   4.552
15733TIP3    H168690   6.421   0.088   4.515
15733TIP3    H268691   6.339   0.199   4.577
15734TIP3   OH268692   6.704   0.821   4.011
15734TIP3    H168693   6.797   0.834   3.994
15734TIP3    H268694   6.690   0.854   4.099
15735TIP3   OH268695   1.405   4.092   4.964
15735TIP3    H168696   1.428   4.180   4.934
15735TIP3    H268697   1.487   4.043   4.958
15736TIP3   OH268698   4.965   2.745   2.497
15736TIP3    H168699   4.893   2.734   2.435
15736TIP3    H268700   4.970   2.839   2.512
15737TIP3   OH268701   5.668   4.517  14.467
15737TIP3    H168702   5.735   4.513  14.398
15737TIP3    H268703   5.609   4.445  14.447
15738TIP3   OH268704   0.278   3.078  11.485
15738TIP3    H168705   0.233   3.113  11.562
15738TIP3    H268706   0.371   3.083  11.508
15739TIP3   OH268707   0.923   6.799   0.147
15739TIP3    H168708   0.991   6.753   0.198
15739TIP3    H268709   0.892   6.868   0.205
15740TIP3   OH268710   1.541   6.486   5.941
15740TIP3    H168711   1.483   6.412   5.956
15740TIP3    H268712   1.486   6.553   5.901
15741TIP3   OH268713   4.351   0.745  16.949
15741TIP3    H168714   4.379   0.781  17.033
15741TIP3    H268715   4.275   0.690  16.970
15742TIP3   OH268716   4.959   1.342   3.495
15742TIP3    H168717   4.994   1.274   3.437
15742TIP3    H268718   4.864   1.328   3.494
15743TIP3   OH268719   2.969   2.713   5.213
15743TIP3    H168720   3.006   2.711   5.301
15743TIP3    H268721   2.975   2.623   5.183
15744TIP3   OH268722   6.541   6.475  11.260
15744TIP3    H168723   6.557   6.526  11.181
15744TIP3    H268724   6.603   6.401  11.255
15745TIP3   OH268725   1.729   0.565  15.042
15745TIP3    H168726   1.779   0.556  15.123
15745TIP3    H268727   1.694   0.478  15.026
15746TIP3   OH268728   5.828   2.510  17.195
15746TIP3    H168729   5.922   2.524  17.184
15746TIP3    H268730   5.821   2.417  17.218
15747TIP3   OH268731   1.229   3.655  15.746
15747TIP3    H168732   1.273   3.726  15.699
15747TIP3    H268733   1.164   3.700  15.801
15748TIP3   OH268734   1.060   5.069  11.519
15748TIP3    H168735   1.146   5.111  11.527
15748TIP3    H268736   1.021   5.112  11.443
15749TIP3   OH268737   5.188   4.153   5.672
15749TIP3    H168738   5.209   4.070   5.630
15749TIP3    H268739   5.213   4.219   5.607
15750TIP3   OH268740   3.685   4.456  16.290
15750TIP3    H168741   3.734   4.534  16.264
15750TIP3    H268742   3.748   4.384  16.281
15751TIP3   OH268743   3.487   0.505   2.733
15751TIP3    H168744   3.545   0.572   2.769
15751TIP3    H268745   3.527   0.422   2.760
15752TIP3   OH268746   2.101   5.052  14.751
15752TIP3    H168747   2.035   5.016  14.810
15752TIP3    H268748   2.123   5.137  14.788
15753TIP3   OH268749   0.438   6.280  17.049
15753TIP3    H168750   0.473   6.191  17.050
15753TIP3    H268751   0.417   6.296  16.958
15754TIP3   OH268752   0.299   5.841   3.042
15754TIP3    H168753   0.321   5.923   2.998
15754TIP3    H268754   0.241   5.796   2.981
15755TIP3   OH268755   2.444   6.290   0.037
15755TIP3    H168756   2.360   6.246   0.028
15755TIP3    H268757   2.440   6.363  -0.023
15756TIP3   OH268758   6.606   3.109   0.278
15756TIP3    H168759   6.682   3.064   0.314
15756TIP3    H268760   6.629   3.125   0.186
15757TIP3   OH268761   4.911   6.607  16.437
15757TIP3    H168762   4.963   6.664  16.494
15757TIP3    H268763   4.965   6.529  16.425
15758TIP3   OH268764   3.197   4.402  11.830
15758TIP3    H168765   3.217   4.320  11.785
15758TIP3    H268766   3.108   4.424  11.802
15759TIP3   OH268767   5.653   0.663   6.717
15759TIP3    H168768   5.648   0.583   6.664
15759TIP3    H268769   5.565   0.673   6.752
15760TIP3   OH268770   1.473   3.844  15.095
15760TIP3    H168771   1.427   3.792  15.161
15760TIP3    H268772   1.516   3.914  15.145
15761TIP3   OH268773   2.820   2.791  14.141
15761TIP3    H168774   2.866   2.786  14.057
15761TIP3    H268775   2.779   2.877  14.141
15762TIP3   OH268776   0.385   5.049  16.273
15762TIP3    H168777   0.341   5.133  16.262
15762TIP3    H268778   0.314   4.984  16.270
15763TIP3   OH268779   4.356   6.506   3.957
15763TIP3    H168780   4.323   6.417   3.971
15763TIP3    H268781   4.286   6.562   3.990
15764TIP3   OH268782   6.012   4.417  17.204
15764TIP3    H168783   6.003   4.389  17.295
15764TIP3    H268784   6.029   4.511  17.208
15765TIP3   OH268785   0.254   0.396   2.437
15765TIP3    H168786   0.241   0.463   2.504
15765TIP3    H268787   0.177   0.404   2.380
15766TIP3   OH268788   4.164   5.589  15.831
15766TIP3    H168789   4.182   5.496  15.846
15766TIP3    H268790   4.128   5.592  15.743
15767TIP3   OH268791   6.367   3.988   5.823
15767TIP3    H168792   6.393   3.911   5.874
15767TIP3    H268793   6.379   3.960   5.732
15768TIP3   OH268794   5.342   5.446   5.455
15768TIP3    H168795   5.338   5.535   5.491
15768TIP3    H268796   5.251   5.416   5.454
15769TIP3   OH268797   4.519   1.849   3.627
15769TIP3    H168798   4.483   1.771   3.586
15769TIP3    H268799   4.468   1.860   3.708
15770TIP3   OH268800   5.679   0.439  11.975
15770TIP3    H168801   5.595   0.473  11.944
15770TIP3    H268802   5.715   0.510  12.029
15771TIP3   OH268803   3.517   3.563  14.303
15771TIP3    H168804   3.432   3.521  14.291
15771TIP3    H268805   3.518   3.632  14.236
15772TIP3   OH268806   2.624   3.811   1.303
15772TIP3    H168807   2.590   3.742   1.246
15772TIP3    H268808   2.551   3.831   1.363
15773TIP3   OH268809   3.980   2.043   1.982
15773TIP3    H168810   3.891   2.010   1.967
15773TIP3    H268811   3.980   2.075   2.072
15774TIP3   OH268812   3.988   0.144  12.630
15774TIP3    H168813   4.066   0.121  12.681
15774TIP3    H268814   4.015   0.135  12.539
15775TIP3   OH268815   0.416   0.741  15.632
15775TIP3    H168816   0.374   0.812  15.679
15775TIP3    H268817   0.500   0.729  15.675
15776TIP3   OH268818   0.691   2.819  13.896
15776TIP3    H168819   0.665   2.737  13.855
15776TIP3    H268820   0.768   2.847  13.846
15777TIP3   OH268821   4.089   3.286  12.854
15777TIP3    H168822   4.163   3.232  12.881
15777TIP3    H268823   4.075   3.264  12.762
15778TIP3   OH268824   4.094   5.913   2.946
15778TIP3    H168825   4.088   5.823   2.917
15778TIP3    H268826   4.013   5.954   2.917
15779TIP3   OH268827   2.095   4.245  15.032
15779TIP3    H168828   2.129   4.156  15.024
15779TIP3    H268829   2.027   4.251  14.965
15780TIP3   OH268830   1.150   0.580  12.074
15780TIP3    H168831   1.206   0.530  12.014
15780TIP3    H268832   1.079   0.612  12.019
15781TIP3   OH268833   6.675   3.552  17.259
15781TIP3    H168834   6.588   3.522  17.232
15781TIP3    H268835   6.666   3.647  17.263
15782TIP3   OH268836   6.242   1.770  15.968
15782TIP3    H168837   6.209   1.688  15.932
15782TIP3    H268838   6.261   1.750  16.060
15783TIP3   OH268839   3.806   3.946  11.489
15783TIP3    H168840   3.785   3.882  11.556
15783TIP3    H268841   3.722   3.974  11.454
15784TIP3   OH268842   2.719   5.474   5.423
15784TIP3    H168843   2.640   5.470   5.478
15784TIP3    H268844   2.698   5.417   5.349
15785TIP3   OH268845   5.067   2.533   1.674
15785TIP3    H168846   5.008   2.602   1.703
15785TIP3    H268847   5.152   2.555   1.712
15786TIP3   OH268848   2.366   1.483  14.578
15786TIP3    H168849   2.385   1.570  14.614
15786TIP3    H268850   2.306   1.500  14.505
15787TIP3   OH268851   1.006   0.303   7.075
15787TIP3    H168852   1.057   0.246   7.018
15787TIP3    H268853   0.945   0.244   7.119
15788TIP3   OH268854   0.797   5.834  11.684
15788TIP3    H168855   0.722   5.889  11.704
15788TIP3    H268856   0.776   5.793  11.600
15789TIP3   OH268857   3.068   4.928  15.536
15789TIP3    H168858   3.058   4.888  15.450
15789TIP3    H268859   2.979   4.938  15.569
15790TIP3   OH268860   5.692   5.440  13.959
15790TIP3    H168861   5.631   5.368  13.976
15790TIP3    H268862   5.653   5.489  13.888
15791TIP3   OH268863   2.395   4.191  15.360
15791TIP3    H168864   2.340   4.266  15.340
15791TIP3    H268865   2.474   4.229  15.399
15792TIP3   OH268866   2.314   1.691  13.881
15792TIP3    H168867   2.327   1.708  13.788
15792TIP3    H268868   2.307   1.778  13.920
15793TIP3   OH268869   3.028   4.641   1.339
15793TIP3    H168870   3.004   4.610   1.252
15793TIP3    H268871   3.015   4.566   1.396
15794TIP3   OH268872   6.000   6.357   4.727
15794TIP3    H168873   5.998   6.262   4.742
15794TIP3    H268874   6.054   6.391   4.798
15795TIP3   OH268875   0.710   5.930  13.883
15795TIP3    H168876   0.727   5.843  13.848
15795TIP3    H268877   0.615   5.940  13.876
15796TIP3   OH268878   2.866   5.359   4.149
15796TIP3    H168879   2.835   5.437   4.196
15796TIP3    H268880   2.898   5.393   4.065
15797TIP3   OH268881   5.184   0.096   0.415
15797TIP3    H168882   5.133   0.016   0.401
15797TIP3    H268883   5.228   0.111   0.331
15798TIP3   OH268884   2.766   1.057   0.470
15798TIP3    H168885   2.781   1.011   0.552
15798TIP3    H268886   2.847   1.045   0.420
15799TIP3   OH268887   0.956   5.090  17.180
15799TIP3    H168888   0.926   5.152  17.113
15799TIP3    H268889   0.982   5.013  17.130
15800TIP3   OH268890   4.389   4.558   2.290
15800TIP3    H168891   4.458   4.617   2.261
15800TIP3    H268892   4.398   4.557   2.386
15801TIP3   OH268893   2.915   1.619  14.274
15801TIP3    H168894   2.915   1.655  14.186
15801TIP3    H268895   2.978   1.547  14.271
15802TIP3   OH268896   0.942   6.592   4.214
15802TIP3    H168897   0.950   6.601   4.309
15802TIP3    H268898   0.930   6.682   4.183
15803TIP3   OH268899   5.245   4.443   6.627
15803TIP3    H168900   5.259   4.535   6.651
15803TIP3    H268901   5.213   4.446   6.537
15804TIP3   OH268902   3.829   5.393   5.638
15804TIP3    H168903   3.857   5.484   5.634
15804TIP3    H268904   3.776   5.380   5.560
15805TIP3   OH268905   4.364   2.088  11.087
15805TIP3    H168906   4.301   2.126  11.025
15805TIP3    H268907   4.433   2.153  11.093
15806TIP3   OH268908   3.293   6.679  11.977
15806TIP3    H168909   3.230   6.609  11.958
15806TIP3    H268910   3.257   6.724  12.053
15807TIP3   OH268911   4.789   3.390  14.982
15807TIP3    H168912   4.791   3.363  15.073
15807TIP3    H268913   4.801   3.309  14.932
15808TIP3   OH268914   3.404   0.136  13.722
15808TIP3    H168915   3.338   0.197  13.690
15808TIP3    H268916   3.356   0.058  13.747
15809TIP3   OH268917   5.190   1.161   1.169
15809TIP3    H168918   5.199   1.107   1.091
15809TIP3    H268919   5.097   1.152   1.193
15810TIP3   OH268920   1.755   0.659  16.581
15810TIP3    H168921   1.741   0.700  16.666
15810TIP3    H268922   1.693   0.703  16.522
15811TIP3   OH268923   4.536   3.797  14.172
15811TIP3    H168924   4.585   3.781  14.091
15811TIP3    H268925   4.494   3.882  14.159
15812TIP3   OH268926   1.085   5.405  12.114
15812TIP3    H168927   1.126   5.457  12.045
15812TIP3    H268928   1.158   5.382  12.173
15813TIP3   OH268929   4.996   3.125  16.934
15813TIP3    H168930   5.036   3.190  16.993
15813TIP3    H268931   5.067   3.101  16.874
15814TIP3   OH268932   1.261   4.541   6.105
15814TIP3    H168933   1.278   4.447   6.102
15814TIP3    H268934   1.333   4.581   6.057
15815TIP3   OH268935   0.948   0.440   1.522
15815TIP3    H168936   0.917   0.498   1.452
15815TIP3    H268937   0.986   0.500   1.587
15816TIP3   OH268938   5.185   0.084  16.543
15816TIP3    H168939   5.264   0.091  16.596
15816TIP3    H268940   5.203   0.010  16.484
15817TIP3   OH268941   1.618   2.668  10.620
15817TIP3    H168942   1.648   2.599  10.561
15817TIP3    H268943   1.635   2.634  10.708
15818TIP3   OH268944   4.031   6.521  14.022
15818TIP3    H168945   3.938   6.504  14.008
15818TIP3    H268946   4.054   6.468  14.098
15819TIP3   OH268947   4.964   2.771  11.284
15819TIP3    H168948   4.884   2.718  11.290
15819TIP3    H268949   5.024   2.731  11.346
15820TIP3   OH268950   3.459   5.379  13.903
15820TIP3    H168951   3.404   5.345  13.974
15820TIP3    H268952   3.423   5.465  13.884
15821TIP3   OH268953   0.035   4.076   1.166
15821TIP3    H168954  -0.023   4.072   1.242
15821TIP3    H268955   0.008   4.154   1.119
15822TIP3   OH268956   6.085   0.845   1.515
15822TIP3    H168957   5.996   0.866   1.484
15822TIP3    H268958   6.088   0.750   1.517
15823TIP3   OH268959   6.380   1.267   1.377
15823TIP3    H168960   6.366   1.193   1.317
15823TIP3    H268961   6.293   1.286   1.412
15824TIP3   OH268962   3.926   4.956   3.975
15824TIP3    H168963   3.834   4.932   3.983
15824TIP3    H268964   3.935   5.035   4.026
15825TIP3   OH268965   6.122   4.097   2.953
15825TIP3    H168966   6.047   4.129   2.902
15825TIP3    H268967   6.085   4.032   3.012
15826TIP3   OH268968   1.650   6.306   5.315
15826TIP3    H168969   1.605   6.322   5.398
15826TIP3    H268970   1.742   6.327   5.333
15827TIP3   OH268971   5.649   0.057  14.996
15827TIP3    H168972   5.580   0.016  14.943
15827TIP3    H268973   5.725   0.059  14.937
15828TIP3   OH268974   5.460   6.308  11.844
15828TIP3    H168975   5.518   6.236  11.868
15828TIP3    H268976   5.474   6.320  11.750
15829TIP3   OH268977   6.447   5.943  13.845
15829TIP3    H168978   6.379   5.926  13.780
15829TIP3    H268979   6.431   6.034  13.873
15830TIP3   OH268980   4.933   0.078   2.263
15830TIP3    H168981   4.883   0.153   2.230
15830TIP3    H268982   4.927   0.086   2.358
15831TIP3   OH268983   0.476   2.044  15.970
15831TIP3    H168984   0.525   2.067  16.049
15831TIP3    H268985   0.388   2.026  16.000
15832TIP3   OH268986   0.274   0.111   2.400
15832TIP3    H168987   0.362   0.096   2.366
15832TIP3    H268988   0.266   0.206   2.406
15833TIP3   OH268989   0.655   4.875   1.821
15833TIP3    H168990   0.669   4.894   1.729
15833TIP3    H268991   0.625   4.784   1.823
15834TIP3   OH268992   6.685   6.393   0.321
15834TIP3    H168993   6.672   6.421   0.231
15834TIP3    H268994   6.631   6.453   0.373
15835TIP3   OH268995   2.956   3.105  11.283
15835TIP3    H168996   3.037   3.128  11.328
15835TIP3    H268997   2.894   3.173  11.308
15836TIP3   OH268998   0.221   2.466   4.899
15836TIP3    H168999   0.235   2.396   4.962
15836TIP3    H269000   0.233   2.547   4.949
15837TIP3   OH269001   6.520   4.213   4.785
15837TIP3    H169002   6.554   4.302   4.795
15837TIP3    H269003   6.592   4.157   4.814
15838TIP3   OH269004   1.162   6.517   1.476
15838TIP3    H169005   1.236   6.572   1.504
15838TIP3    H269006   1.090   6.579   1.464
15839TIP3   OH269007   2.399   5.468   0.601
15839TIP3    H169008   2.445   5.551   0.593
15839TIP3    H269009   2.452   5.407   0.549
15840TIP3   OH269010   5.466   2.009  11.520
15840TIP3    H169011   5.532   1.973  11.461
15840TIP3    H269012   5.482   2.103  11.520
15841TIP3   OH269013   5.961   0.427  14.863
15841TIP3    H169014   6.047   0.427  14.819
15841TIP3    H269015   5.917   0.505  14.828
15842TIP3   OH269016   3.011   4.983   1.634
15842TIP3    H169017   3.090   5.033   1.653
15842TIP3    H269018   3.039   4.892   1.635
15843TIP3   OH269019   6.301   1.361   5.186
15843TIP3    H169020   6.264   1.341   5.100
15843TIP3    H269021   6.365   1.291   5.201
15844TIP3   OH269022   2.136   4.679  14.603
15844TIP3    H169023   2.213   4.737  14.600
15844TIP3    H269024   2.154   4.619  14.675
15845TIP3   OH269025   2.368   4.340  12.710
15845TIP3    H169026   2.394   4.377  12.626
15845TIP3    H269027   2.444   4.290  12.738
15846TIP3   OH269028   2.591   3.513   2.818
15846TIP3    H169029   2.618   3.537   2.906
15846TIP3    H269030   2.512   3.460   2.830
15847TIP3   OH269031   4.503   1.739   0.595
15847TIP3    H169032   4.497   1.769   0.504
15847TIP3    H269033   4.529   1.647   0.588
15848TIP3   OH269034   6.008   4.872  11.998
15848TIP3    H169035   5.945   4.935  11.963
15848TIP3    H269036   5.996   4.794  11.944
15849TIP3   OH269037   0.630   3.587   5.675
15849TIP3    H169038   0.693   3.634   5.729
15849TIP3    H269039   0.592   3.654   5.618
15850TIP3   OH269040   4.652   3.797   6.280
15850TIP3    H169041   4.647   3.886   6.246
15850TIP3    H269042   4.740   3.767   6.256
15851TIP3   OH269043   6.576   5.318  13.165
15851TIP3    H169044   6.495   5.295  13.119
15851TIP3    H269045   6.645   5.272  13.117
15852TIP3   OH269046   6.255   0.977  13.215
15852TIP3    H169047   6.320   0.929  13.267
15852TIP3    H269048   6.295   0.985  13.128
15853TIP3   OH269049   0.189   3.769  13.908
15853TIP3    H169050   0.098   3.798  13.899
15853TIP3    H269051   0.241   3.849  13.904
15854TIP3   OH269052   5.382   1.708   2.900
15854TIP3    H169053   5.433   1.755   2.834
15854TIP3    H269054   5.342   1.777   2.953
15855TIP3   OH269055   2.469   2.651   5.811
15855TIP3    H169056   2.521   2.648   5.891
15855TIP3    H269057   2.390   2.600   5.831
15856TIP3   OH269058   3.576   5.358  11.946
15856TIP3    H169059   3.652   5.307  11.973
15856TIP3    H269060   3.505   5.295  11.942
15857TIP3   OH269061   1.330   2.956   2.660
15857TIP3    H169062   1.320   3.009   2.739
15857TIP3    H269063   1.312   3.016   2.588
15858TIP3   OH269064   0.978   2.051   3.408
15858TIP3    H169065   1.030   2.005   3.474
15858TIP3    H269066   0.899   1.998   3.398
15859TIP3   OH269067   0.048   3.045   6.345
15859TIP3    H169068   0.072   3.130   6.382
15859TIP3    H269069   0.012   2.996   6.419
15860TIP3   OH269070   5.930   4.095   5.863
15860TIP3    H169071   6.025   4.095   5.853
15860TIP3    H269072   5.914   4.140   5.946
15861TIP3   OH269073   5.043   4.423  11.790
15861TIP3    H169074   4.998   4.507  11.791
15861TIP3    H269075   5.075   4.411  11.879
15862TIP3   OH269076   1.202   1.437   1.170
15862TIP3    H169077   1.207   1.342   1.170
15862TIP3    H269078   1.262   1.465   1.101
15863TIP3   OH269079   6.544   0.694  15.038
15863TIP3    H169080   6.490   0.631  14.990
15863TIP3    H269081   6.587   0.745  14.969
15864TIP3   OH269082   6.375   3.524   5.444
15864TIP3    H169083   6.464   3.520   5.409
15864TIP3    H269084   6.358   3.436   5.477
15865TIP3   OH269085   5.363   4.124   1.885
15865TIP3    H169086   5.284   4.157   1.928
15865TIP3    H269087   5.408   4.203   1.855
15866TIP3   OH269088   6.624   0.461  13.910
15866TIP3    H169089   6.611   0.545  13.954
15866TIP3    H269090   6.718   0.447  13.912
15867TIP3   OH269091   1.346   1.898  13.604
15867TIP3    H169092   1.347   1.837  13.678
15867TIP3    H269093   1.435   1.894  13.569
15868TIP3   OH269094   5.490   2.813   5.311
15868TIP3    H169095   5.432   2.834   5.384
15868TIP3    H269096   5.553   2.885   5.309
15869TIP3   OH269097   2.627   0.146  12.601
15869TIP3    H169098   2.645   0.236  12.628
15869TIP3    H269099   2.652   0.143  12.509
15870TIP3   OH269100   6.503   0.179   5.884
15870TIP3    H169101   6.511   0.144   5.795
15870TIP3    H269102   6.409   0.191   5.896
15871TIP3   OH269103   3.099   5.517  11.156
15871TIP3    H169104   3.078   5.507  11.063
15871TIP3    H269105   3.037   5.583  11.187
15872TIP3   OH269106   4.222   1.069  17.118
15872TIP3    H169107   4.297   1.033  17.165
15872TIP3    H269108   4.149   1.011  17.141
15873TIP3   OH269109   3.836   5.225  11.185
15873TIP3    H169110   3.845   5.313  11.222
15873TIP3    H269111   3.809   5.239  11.095
15874TIP3   OH269112   6.030   3.616  13.035
15874TIP3    H169113   6.063   3.684  13.094
15874TIP3    H269114   6.005   3.543  13.093
15875TIP3   OH269115   2.977   3.128   4.811
15875TIP3    H169116   2.948   3.040   4.836
15875TIP3    H269117   3.016   3.116   4.725
15876TIP3   OH269118   2.715   0.704   5.528
15876TIP3    H169119   2.682   0.738   5.446
15876TIP3    H269120   2.751   0.618   5.506
15877TIP3   OH269121   5.790   4.325  12.680
15877TIP3    H169122   5.853   4.383  12.721
15877TIP3    H269123   5.843   4.255  12.642
15878TIP3   OH269124   1.758   4.169   5.475
15878TIP3    H169125   1.781   4.146   5.385
15878TIP3    H269126   1.828   4.228   5.504
15879TIP3   OH269127   0.335   2.354  13.410
15879TIP3    H169128   0.402   2.293  13.377
15879TIP3    H269129   0.303   2.313  13.490
15880TIP3   OH269130   6.311   3.438  11.459
15880TIP3    H169131   6.253   3.490  11.404
15880TIP3    H269132   6.376   3.402  11.398
15881TIP3   OH269133   5.938   1.494   0.379
15881TIP3    H169134   5.993   1.571   0.366
15881TIP3    H269135   5.980   1.446   0.450
15882TIP3   OH269136   4.204   4.697  16.247
15882TIP3    H169137   4.287   4.686  16.295
15882TIP3    H269138   4.198   4.620  16.191
15883TIP3   OH269139   2.864   6.366  14.611
15883TIP3    H169140   2.802   6.296  14.594
15883TIP3    H269141   2.942   6.322  14.646
15884TIP3   OH269142   2.101   5.654  15.038
15884TIP3    H169143   2.149   5.735  15.058
15884TIP3    H269144   2.030   5.651  15.102
15885TIP3   OH269145   5.662   4.395   1.120
15885TIP3    H169146   5.571   4.367   1.109
15885TIP3    H269147   5.682   4.442   1.040
15886TIP3   OH269148   2.790   1.823  13.343
15886TIP3    H169149   2.718   1.760  13.337
15886TIP3    H269150   2.835   1.815  13.259
15887TIP3   OH269151   2.248   5.200   4.901
15887TIP3    H169152   2.219   5.141   4.831
15887TIP3    H269153   2.176   5.262   4.912
15888TIP3   OH269154   5.804   1.824   0.070
15888TIP3    H169155   5.719   1.801   0.033
15888TIP3    H269156   5.851   1.741   0.076
15889TIP3   OH269157   3.703   2.984   4.507
15889TIP3    H169158   3.793   2.996   4.475
15889TIP3    H269159   3.665   2.920   4.448
15890TIP3   OH269160   4.360   0.050  13.739
15890TIP3    H169161   4.400  -0.033  13.715
15890TIP3    H269162   4.284   0.026  13.791
15891TIP3   OH269163   5.183   1.853   3.750
15891TIP3    H169164   5.196   1.768   3.792
15891TIP3    H269165   5.112   1.838   3.688
15892TIP3   OH269166   5.517   6.674   3.175
15892TIP3    H169167   5.597   6.722   3.197
15892TIP3    H269168   5.461   6.739   3.131
15893TIP3   OH269169   5.659   3.904  13.170
15893TIP3    H169170   5.598   3.831  13.182
15893TIP3    H269171   5.717   3.875  13.100
15894TIP3   OH269172   1.952   5.069  15.476
15894TIP3    H169173   1.906   5.082  15.559
15894TIP3    H269174   2.002   5.149  15.463
15895TIP3   OH269175   6.456   5.963  12.333
15895TIP3    H169176   6.501   5.915  12.403
15895TIP3    H269177   6.503   5.938  12.253
15896TIP3   OH269178   3.413   3.143  12.646
15896TIP3    H169179   3.483   3.192  12.604
15896TIP3    H269180   3.441   3.052  12.640
15897TIP3   OH269181   4.263   1.166   2.518
15897TIP3    H169182   4.336   1.105   2.518
15897TIP3    H269183   4.203   1.131   2.452
15898TIP3   OH269184   4.360   0.430   2.016
15898TIP3    H169185   4.339   0.359   2.077
15898TIP3    H269186   4.290   0.427   1.951
15899TIP3   OH269187   3.025   3.580  12.770
15899TIP3    H169188   2.943   3.599  12.725
15899TIP3    H269189   3.018   3.628  12.853
15900TIP3   OH269190   3.983   4.810  11.777
15900TIP3    H169191   4.058   4.790  11.722
15900TIP3    H269192   3.931   4.729  11.777
15901TIP3   OH269193   3.092   5.479   2.523
15901TIP3    H169194   3.140   5.557   2.497
15901TIP3    H269195   3.003   5.493   2.489
15902TIP3   OH269196   0.979   4.366   0.305
15902TIP3    H169197   1.015   4.329   0.224
15902TIP3    H269198   1.048   4.353   0.370
15903TIP3   OH269199   4.249   2.450   0.832
15903TIP3    H169200   4.341   2.445   0.858
15903TIP3    H269201   4.252   2.463   0.737
15904TIP3   OH269202   6.587   0.801  13.059
15904TIP3    H169203   6.644   0.836  13.128
15904TIP3    H269204   6.515   0.863  13.053
15905TIP3   OH269205   5.639   5.548   0.076
15905TIP3    H169206   5.660   5.480   0.012
15905TIP3    H269207   5.544   5.555   0.073
15906TIP3   OH269208   1.845   4.379  11.276
15906TIP3    H169209   1.928   4.370  11.322
15906TIP3    H269210   1.784   4.411  11.343
15907TIP3   OH269211   5.929   4.472  15.662
15907TIP3    H169212   6.015   4.431  15.673
15907TIP3    H269213   5.872   4.423  15.722
15908TIP3   OH269214   2.918   6.422  12.583
15908TIP3    H169215   2.929   6.514  12.603
15908TIP3    H269216   2.829   6.415  12.549
15909TIP3   OH269217   6.419   5.669   1.243
15909TIP3    H169218   6.358   5.705   1.307
15909TIP3    H269219   6.363   5.642   1.170
15910TIP3   OH269220   1.751   3.431   5.231
15910TIP3    H169221   1.664   3.407   5.262
15910TIP3    H269222   1.745   3.429   5.136
15911TIP3   OH269223   5.210   2.317  10.549
15911TIP3    H169224   5.305   2.322  10.556
15911TIP3    H269225   5.188   2.375  10.476
15912TIP3   OH269226   6.328   1.363   1.884
15912TIP3    H169227   6.241   1.337   1.853
15912TIP3    H269228   6.340   1.452   1.850
15913TIP3   OH269229   4.196   0.563   5.438
15913TIP3    H169230   4.115   0.614   5.429
15913TIP3    H269231   4.262   0.626   5.466
15914TIP3   OH269232   4.008   3.018  11.857
15914TIP3    H169233   3.946   3.085  11.828
15914TIP3    H269234   4.035   2.975  11.776
15915TIP3   OH269235   0.945   6.430  13.594
15915TIP3    H169236   0.857   6.468  13.602
15915TIP3    H269237   0.996   6.496  13.548
15916TIP3   OH269238   4.146   2.405  10.945
15916TIP3    H169239   4.124   2.312  10.946
15916TIP3    H269240   4.112   2.436  10.861
15917TIP3   OH269241   5.318   2.782  11.543
15917TIP3    H169242   5.355   2.761  11.629
15917TIP3    H269243   5.383   2.749  11.481
15918TIP3   OH269244   2.977   0.195  14.171
15918TIP3    H169245   2.965   0.239  14.086
15918TIP3    H269246   2.901   0.222  14.223
15919TIP3   OH269247   1.647   1.408  17.095
15919TIP3    H169248   1.563   1.416  17.141
15919TIP3    H269249   1.713   1.422  17.163
15920TIP3   OH269250   0.662   5.562  15.989
15920TIP3    H169251   0.585   5.585  16.042
15920TIP3    H269252   0.653   5.468  15.973
15921TIP3   OH269253   2.571   1.125   1.940
15921TIP3    H169254   2.567   1.073   1.860
15921TIP3    H269255   2.622   1.202   1.916
15922TIP3   OH269256   5.277   1.782  11.575
15922TIP3    H169257   5.235   1.765  11.490
15922TIP3    H269258   5.342   1.850  11.556
15923TIP3   OH269259   1.592   3.085  12.325
15923TIP3    H169260   1.653   3.028  12.279
15923TIP3    H269261   1.599   3.058  12.417
15924TIP3   OH269262   1.886   2.694  15.809
15924TIP3    H169263   1.815   2.631  15.820
15924TIP3    H269264   1.850   2.776  15.844
15925TIP3   OH269265   1.719   4.866  13.609
15925TIP3    H169266   1.770   4.918  13.547
15925TIP3    H269267   1.746   4.775  13.591
15926TIP3   OH269268   6.504   2.607  14.579
15926TIP3    H169269   6.580   2.625  14.633
15926TIP3    H269270   6.437   2.668  14.610
15927TIP3   OH269271   0.775   3.469  16.305
15927TIP3    H169272   0.801   3.393  16.253
15927TIP3    H269273   0.855   3.521  16.312
15928TIP3   OH269274   5.688   5.342  11.766
15928TIP3    H169275   5.688   5.354  11.861
15928TIP3    H269276   5.598   5.360  11.740
15929TIP3   OH269277   5.229   5.649   4.411
15929TIP3    H169278   5.238   5.592   4.335
15929TIP3    H269279   5.292   5.720   4.397
15930TIP3   OH269280   6.263   3.084   1.835
15930TIP3    H169281   6.169   3.099   1.846
15930TIP3    H269282   6.281   3.006   1.887
15931TIP3   OH269283   0.366   1.607   2.371
15931TIP3    H169284   0.337   1.677   2.312
15931TIP3    H269285   0.355   1.527   2.320
15932TIP3   OH269286   2.954   1.741   4.094
15932TIP3    H169287   2.975   1.763   4.185
15932TIP3    H269288   2.987   1.652   4.083
15933TIP3   OH269289   6.131   5.894  15.084
15933TIP3    H169290   6.137   5.906  14.989
15933TIP3    H269291   6.178   5.813  15.101
15934TIP3   OH269292   4.978   4.436  16.866
15934TIP3    H169293   4.964   4.360  16.809
15934TIP3    H269294   5.063   4.470  16.841
15935TIP3   OH269295   6.678   1.427   4.527
15935TIP3    H169296   6.730   1.443   4.449
15935TIP3    H269297   6.741   1.425   4.598
15936TIP3   OH269298   5.385   0.734  14.333
15936TIP3    H169299   5.317   0.666  14.327
15936TIP3    H269300   5.467   0.687  14.317
15937TIP3   OH269301   4.795   0.235   3.148
15937TIP3    H169302   4.879   0.274   3.122
15937TIP3    H269303   4.787   0.256   3.241
15938TIP3   OH269304   1.815   0.147   0.377
15938TIP3    H169305   1.800   0.140   0.283
15938TIP3    H269306   1.808   0.241   0.395
15939TIP3   OH269307   3.936   4.324  16.617
15939TIP3    H169308   3.854   4.309  16.664
15939TIP3    H269309   4.005   4.299  16.678
15940TIP3   OH269310   1.236   0.812   3.903
15940TIP3    H169311   1.158   0.845   3.947
15940TIP3    H269312   1.203   0.744   3.844
15941TIP3   OH269313   6.776   6.138  16.917
15941TIP3    H169314   6.855   6.125  16.969
15941TIP3    H269315   6.746   6.226  16.940
15942TIP3   OH269316   0.641   0.163   5.608
15942TIP3    H169317   0.726   0.126   5.584
15942TIP3    H269318   0.658   0.256   5.624
15943TIP3   OH269319   0.121   0.162   0.398
15943TIP3    H169320   0.169   0.079   0.395
15943TIP3    H269321   0.040   0.144   0.350
15944TIP3   OH269322   2.932   3.852   3.769
15944TIP3    H169323   2.919   3.927   3.827
15944TIP3    H269324   2.844   3.829   3.740
15945TIP3   OH269325   4.279   6.173  10.422
15945TIP3    H169326   4.298   6.184  10.515
15945TIP3    H269327   4.364   6.178  10.380
15946TIP3   OH269328   1.058   0.783  13.880
15946TIP3    H169329   1.121   0.720  13.914
15946TIP3    H269330   1.072   0.782  13.785
15947TIP3   OH269331   3.463   5.425   5.128
15947TIP3    H169332   3.398   5.417   5.197
15947TIP3    H269333   3.425   5.487   5.066
15948TIP3   OH269334   2.856   2.007  16.946
15948TIP3    H169335   2.917   2.063  16.993
15948TIP3    H269336   2.871   1.920  16.982
15949TIP3   OH269337   6.201   4.372   5.093
15949TIP3    H169338   6.205   4.342   5.002
15949TIP3    H269339   6.290   4.401   5.112
15950TIP3   OH269340   6.645   1.296  11.467
15950TIP3    H169341   6.668   1.301  11.559
15950TIP3    H269342   6.727   1.274  11.423
15951TIP3   OH269343   1.690   1.438   6.795
15951TIP3    H169344   1.659   1.520   6.835
15951TIP3    H269345   1.780   1.429   6.826
15952TIP3   OH269346   0.928   2.462  12.767
15952TIP3    H169347   0.911   2.556  12.763
15952TIP3    H269348   0.994   2.446  12.701
15953TIP3   OH269349   1.338   0.358  13.393
15953TIP3    H169350   1.414   0.415  13.386
15953TIP3    H269351   1.266   0.409  13.357
15954TIP3   OH269352   0.229   1.144  16.313
15954TIP3    H169353   0.222   1.120  16.221
15954TIP3    H269354   0.166   1.088  16.358
15955TIP3   OH269355   0.517   0.015   5.408
15955TIP3    H169356   0.571   0.059   5.474
15955TIP3    H269357   0.544   0.055   5.325
15956TIP3   OH269358   4.921   4.208   3.248
15956TIP3    H169359   4.925   4.301   3.228
15956TIP3    H269360   4.989   4.168   3.193
15957TIP3   OH269361   5.064   4.247   0.768
15957TIP3    H169362   5.002   4.204   0.709
15957TIP3    H269363   5.069   4.337   0.738
15958TIP3   OH269364   1.866   0.927   4.272
15958TIP3    H169365   1.877   0.871   4.195
15958TIP3    H269366   1.839   0.866   4.341
15959TIP3   OH269367   3.870   2.174   4.293
15959TIP3    H169368   3.845   2.193   4.202
15959TIP3    H269369   3.815   2.233   4.345
15960TIP3   OH269370   5.537   3.843   1.960
15960TIP3    H169371   5.508   3.929   1.987
15960TIP3    H269372   5.552   3.795   2.041
15961TIP3   OH269373   5.860   0.060  14.169
15961TIP3    H169374   5.906   0.140  14.196
15961TIP3    H269375   5.828   0.022  14.251
15962TIP3   OH269376   5.827   6.688  15.538
15962TIP3    H169377   5.813   6.659  15.448
15962TIP3    H269378   5.890   6.760  15.531
15963TIP3   OH269379   4.667   5.502  12.407
15963TIP3    H169380   4.661   5.486  12.313
15963TIP3    H269381   4.760   5.514  12.423
15964TIP3   OH269382   5.664   1.824  13.602
15964TIP3    H169383   5.579   1.787  13.624
15964TIP3    H269384   5.650   1.869  13.519
15965TIP3   OH269385   2.883   6.080  12.122
15965TIP3    H169386   2.823   6.100  12.194
15965TIP3    H269387   2.852   6.135  12.050
15966TIP3   OH269388   2.944   3.766  11.795
15966TIP3    H169389   2.859   3.741  11.831
15966TIP3    H269390   2.989   3.808  11.867
15967TIP3   OH269391   0.780   1.962  11.320
15967TIP3    H169392   0.686   1.983  11.317
15967TIP3    H269393   0.799   1.926  11.234
15968TIP3   OH269394   5.331   3.492  11.274
15968TIP3    H169395   5.322   3.425  11.342
15968TIP3    H269396   5.360   3.444  11.197
15969TIP3   OH269397   4.608   0.525  16.847
15969TIP3    H169398   4.676   0.570  16.897
15969TIP3    H269399   4.629   0.543  16.755
15970TIP3   OH269400   4.418   4.843  12.904
15970TIP3    H169401   4.345   4.890  12.865
15970TIP3    H269402   4.391   4.827  12.994
15971TIP3   OH269403   1.953   0.476  16.657
15971TIP3    H169404   1.914   0.470  16.744
15971TIP3    H269405   1.887   0.521  16.604
15972TIP3   OH269406   5.747   3.800  16.910
15972TIP3    H169407   5.817   3.861  16.885
15972TIP3    H269408   5.682   3.810  16.841
15973TIP3   OH269409   2.415   3.641   5.572
15973TIP3    H169410   2.489   3.681   5.527
15973TIP3    H269411   2.450   3.616   5.658
15974TIP3   OH269412   0.473   1.312  16.669
15974TIP3    H169413   0.411   1.254  16.713
15974TIP3    H269414   0.435   1.324  16.581
15975TIP3   OH269415   5.492   4.787   6.200
15975TIP3    H169416   5.422   4.801   6.136
15975TIP3    H269417   5.505   4.693   6.202
15976TIP3   OH269418   3.543   0.535  17.087
15976TIP3    H169419   3.507   0.612  17.130
15976TIP3    H269420   3.493   0.526  17.006
15977TIP3   OH269421   0.307   3.207   5.061
15977TIP3    H169422   0.361   3.249   5.128
15977TIP3    H269423   0.302   3.116   5.088
15978TIP3   OH269424   1.505   4.132   2.389
15978TIP3    H169425   1.595   4.113   2.362
15978TIP3    H269426   1.512   4.163   2.479
15979TIP3   OH269427   0.206   0.182  14.747
15979TIP3    H169428   0.114   0.154  14.742
15979TIP3    H269429   0.244   0.153  14.664
15980TIP3   OH269430   1.073   5.627   2.483
15980TIP3    H169431   0.997   5.591   2.437
15980TIP3    H269432   1.148   5.598   2.430
15981TIP3   OH269433   1.549   1.221  12.933
15981TIP3    H169434   1.625   1.177  12.969
15981TIP3    H269435   1.586   1.297  12.886
15982TIP3   OH269436   3.913   1.002   1.987
15982TIP3    H169437   3.997   0.956   1.988
15982TIP3    H269438   3.929   1.081   2.038
15983TIP3   OH269439   6.711   1.513   1.851
15983TIP3    H169440   6.650   1.479   1.786
15983TIP3    H269441   6.778   1.559   1.800
15984TIP3   OH269442   6.356   3.488  13.025
15984TIP3    H169443   6.432   3.528  12.983
15984TIP3    H269444   6.306   3.449  12.953
15985TIP3   OH269445   2.206   6.178   0.061
15985TIP3    H169446   2.136   6.115   0.044
15985TIP3    H269447   2.214   6.180   0.156
15986TIP3   OH269448   2.953   4.219  14.821
15986TIP3    H169449   2.886   4.276  14.858
15986TIP3    H269450   2.905   4.156  14.767
15987TIP3   OH269451   5.447   1.592   1.249
15987TIP3    H169452   5.426   1.685   1.259
15987TIP3    H269453   5.413   1.569   1.163
15988TIP3   OH269454   1.210   1.328   2.990
15988TIP3    H169455   1.230   1.379   2.912
15988TIP3    H269456   1.272   1.360   3.056
15989TIP3   OH269457   3.512   4.050   6.108
15989TIP3    H169458   3.551   4.137   6.118
15989TIP3    H269459   3.562   3.995   6.168
15990TIP3   OH269460   1.156   1.460  13.266
15990TIP3    H169461   1.180   1.369  13.249
15990TIP3    H269462   1.239   1.507  13.263
15991TIP3   OH269463   3.826   4.738  16.728
15991TIP3    H169464   3.757   4.672  16.729
15991TIP3    H269465   3.819   4.781  16.813
15992TIP3   OH269466   0.192   3.119  15.282
15992TIP3    H169467   0.240   3.070  15.349
15992TIP3    H269468   0.137   3.180  15.330
15993TIP3   OH269469   4.993   1.460   5.740
15993TIP3    H169470   5.083   1.491   5.727
15993TIP3    H269471   4.947   1.536   5.774
15994TIP3   OH269472   4.988   4.805  14.879
15994TIP3    H169473   5.058   4.750  14.845
15994TIP3    H269474   5.029   4.857  14.948
15995TIP3   OH269475   5.288   4.588   1.088
15995TIP3    H169476   5.207   4.632   1.062
15995TIP3    H269477   5.353   4.658   1.093
15996TIP3   OH269478   1.988   0.325   1.915
15996TIP3    H169479   2.021   0.326   1.825
15996TIP3    H269480   1.995   0.416   1.945
15997TIP3   OH269481   5.137   5.003   0.942
15997TIP3    H169482   5.115   4.965   1.027
15997TIP3    H269483   5.096   4.944   0.878
15998TIP3   OH269484   1.379   1.407  11.312
15998TIP3    H169485   1.435   1.468  11.359
15998TIP3    H269486   1.430   1.326  11.307
15999TIP3   OH269487   1.206   6.705  15.304
15999TIP3    H169488   1.290   6.660  15.293
15999TIP3    H269489   1.225   6.776  15.365
16000TIP3   OH269490   0.590   3.449   3.512
16000TIP3    H169491   0.571   3.500   3.590
16000TIP3    H269492   0.671   3.486   3.478
16001TIP3   OH269493   5.514   3.413   5.651
16001TIP3    H169494   5.445   3.356   5.617
16001TIP3    H269495   5.467   3.484   5.695
16002TIP3   OH269496   0.647   6.474  14.068
16002TIP3    H169497   0.558   6.506  14.085
16002TIP3    H269498   0.643   6.440  13.979
16003TIP3   OH269499   5.146   4.079   6.182
16003TIP3    H169500   5.161   4.158   6.234
16003TIP3    H269501   5.116   4.112   6.097
16004TIP3   OH269502   2.532   2.705  13.751
16004TIP3    H169503   2.502   2.616  13.731
16004TIP3    H269504   2.524   2.713  13.846
16005TIP3   OH269505   0.083   5.121   0.016
16005TIP3    H169506   0.088   5.124   0.111
16005TIP3    H269507   0.006   5.066  -0.002
16006TIP3   OH269508   1.589   0.568   6.018
16006TIP3    H169509   1.605   0.590   6.110
16006TIP3    H269510   1.505   0.609   5.998
16007TIP3   OH269511   2.821   5.487  14.729
16007TIP3    H169512   2.740   5.516  14.686
16007TIP3    H269513   2.860   5.567  14.763
16008TIP3   OH269514   4.299   1.210   0.292
16008TIP3    H169515   4.246   1.131   0.299
16008TIP3    H269516   4.355   1.209   0.370
16009TIP3   OH269517   2.932   2.851  12.652
16009TIP3    H169518   2.917   2.939  12.619
16009TIP3    H269519   2.921   2.859  12.747
16010TIP3   OH269520   3.597   4.454   0.974
16010TIP3    H169521   3.527   4.495   1.025
16010TIP3    H269522   3.577   4.360   0.976
16011TIP3   OH269523   3.768   6.379   3.214
16011TIP3    H169524   3.733   6.333   3.290
16011TIP3    H269525   3.690   6.410   3.167
16012TIP3   OH269526   5.580   6.583  11.506
16012TIP3    H169527   5.532   6.604  11.427
16012TIP3    H269528   5.541   6.639  11.574
16013TIP3   OH269529   4.994   0.178  12.194
16013TIP3    H169530   5.032   0.232  12.264
16013TIP3    H269531   4.952   0.105  12.240
16014TIP3   OH269532   2.724   1.332   0.417
16014TIP3    H169533   2.710   1.243   0.448
16014TIP3    H269534   2.764   1.378   0.491
16015TIP3   OH269535   6.416   6.022   5.197
16015TIP3    H169536   6.423   6.085   5.269
16015TIP3    H269537   6.483   6.049   5.135
16016TIP3   OH269538   4.809   5.398  16.127
16016TIP3    H169539   4.767   5.396  16.213
16016TIP3    H269540   4.796   5.309  16.093
16017TIP3   OH269541   0.454   3.071  14.507
16017TIP3    H169542   0.380   3.111  14.462
16017TIP3    H269543   0.459   3.117  14.591
16018TIP3   OH269544   4.471   1.470  10.596
16018TIP3    H169545   4.449   1.551  10.641
16018TIP3    H269546   4.388   1.438  10.562
16019TIP3   OH269547   3.863   2.532  15.454
16019TIP3    H169548   3.928   2.598  15.429
16019TIP3    H269549   3.821   2.508  15.371
16020TIP3   OH269550   6.452   6.706  16.538
16020TIP3    H169551   6.409   6.787  16.566
16020TIP3    H269552   6.397   6.636  16.574
16021TIP3   OH269553   3.929   6.614   3.238
16021TIP3    H169554   3.900   6.524   3.255
16021TIP3    H269555   3.890   6.636   3.154
16022TIP3   OH269556   3.215   4.141  17.010
16022TIP3    H169557   3.195   4.181  16.925
16022TIP3    H269558   3.292   4.086  16.994
16023TIP3   OH269559   0.756   6.458   5.362
16023TIP3    H169560   0.781   6.374   5.399
16023TIP3    H269561   0.698   6.436   5.289
16024TIP3   OH269562   6.296   2.842   2.438
16024TIP3    H169563   6.345   2.922   2.422
16024TIP3    H269564   6.259   2.819   2.353
16025TIP3   OH269565   2.924   3.131   0.173
16025TIP3    H169566   2.991   3.131   0.105
16025TIP3    H269567   2.847   3.170   0.132
16026TIP3   OH269568   3.592   4.858   2.330
16026TIP3    H169569   3.606   4.877   2.237
16026TIP3    H269570   3.510   4.903   2.352
16027TIP3   OH269571   5.219   4.365  15.433
16027TIP3    H169572   5.175   4.374  15.348
16027TIP3    H269573   5.218   4.453  15.470
16028TIP3   OH269574   1.011   3.498   4.156
16028TIP3    H169575   1.057   3.571   4.113
16028TIP3    H269576   0.962   3.457   4.085
16029TIP3   OH269577   3.210   6.819  10.599
16029TIP3    H169578   3.177   6.732  10.576
16029TIP3    H269579   3.210   6.820  10.695
16030TIP3   OH269580   0.647   3.609   2.435
16030TIP3    H169581   0.700   3.619   2.513
16030TIP3    H269582   0.697   3.651   2.365
16031TIP3   OH269583   3.944   5.158   2.827
16031TIP3    H169584   3.924   5.251   2.828
16031TIP3    H269585   4.038   5.153   2.813
16032TIP3   OH269586   1.471   4.822  12.577
16032TIP3    H169587   1.489   4.803  12.670
16032TIP3    H269588   1.443   4.738  12.540
16033TIP3   OH269589   3.934   0.786   1.097
16033TIP3    H169590   3.988   0.769   1.020
16033TIP3    H269591   3.926   0.700   1.139
16034TIP3   OH269592   3.166   6.184   1.649
16034TIP3    H169593   3.114   6.112   1.616
16034TIP3    H269594   3.114   6.221   1.720
16035TIP3   OH269595   4.224   0.683  11.922
16035TIP3    H169596   4.138   0.681  11.880
16035TIP3    H269597   4.208   0.652  12.011
16036TIP3   OH269598   1.856   0.460   5.962
16036TIP3    H169599   1.764   0.467   5.988
16036TIP3    H269600   1.904   0.495   6.037
16037TIP3   OH269601   0.008   2.501   4.762
16037TIP3    H169602  -0.022   2.414   4.785
16037TIP3    H269603   0.072   2.523   4.830
16038TIP3   OH269604   6.755   4.051   3.188
16038TIP3    H169605   6.771   4.029   3.096
16038TIP3    H269606   6.722   4.140   3.186
16039TIP3   OH269607   3.706   6.019  14.677
16039TIP3    H169608   3.697   6.115  14.673
16039TIP3    H269609   3.790   6.005  14.720
16040TIP3   OH269610   2.892   3.797  11.511
16040TIP3    H169611   2.902   3.796  11.606
16040TIP3    H269612   2.802   3.827  11.497
16041TIP3   OH269613   3.467   6.223  16.492
16041TIP3    H169614   3.562   6.229  16.495
16041TIP3    H269615   3.439   6.238  16.582
16042TIP3   OH269616   2.015   4.157  11.721
16042TIP3    H169617   1.981   4.113  11.799
16042TIP3    H269618   2.098   4.112  11.702
16043TIP3   OH269619   4.510   0.876   2.235
16043TIP3    H169620   4.459   0.795   2.233
16043TIP3    H269621   4.592   0.854   2.191
16044TIP3   OH269622   5.074   1.875   2.245
16044TIP3    H169623   4.980   1.878   2.267
16044TIP3    H269624   5.114   1.942   2.301
16045TIP3   OH269625   4.433   0.703   6.101
16045TIP3    H169626   4.445   0.718   6.195
16045TIP3    H269627   4.474   0.779   6.060
16046TIP3   OH269628   2.928   1.379  13.260
16046TIP3    H169629   2.885   1.295  13.247
16046TIP3    H269630   2.875   1.424  13.325
16047TIP3   OH269631   4.234   5.096  10.341
16047TIP3    H169632   4.246   5.191  10.331
16047TIP3    H269633   4.235   5.081  10.435
16048TIP3   OH269634   2.510   1.753  17.141
16048TIP3    H169635   2.568   1.719  17.209
16048TIP3    H269636   2.545   1.716  17.060
16049TIP3   OH269637   0.396   0.485  13.483
16049TIP3    H169638   0.436   0.566  13.516
16049TIP3    H269639   0.305   0.489  13.515
16050TIP3   OH269640   5.736   3.506  12.019
16050TIP3    H169641   5.700   3.458  12.094
16050TIP3    H269642   5.774   3.585  12.056
16051TIP3   OH269643   3.248   0.777   6.101
16051TIP3    H169644   3.340   0.787   6.128
16051TIP3    H269645   3.253   0.759   6.007
16052TIP3   OH269646   6.807   3.833  13.100
16052TIP3    H169647   6.852   3.781  13.034
16052TIP3    H269648   6.837   3.797  13.184
16053TIP3   OH269649   1.986   6.035   3.859
16053TIP3    H169650   1.908   6.033   3.803
16053TIP3    H269651   2.036   5.958   3.834
16054TIP3   OH269652   5.539   3.473  13.366
16054TIP3    H169653   5.578   3.439  13.447
16054TIP3    H269654   5.472   3.408  13.344
16055TIP3   OH269655   5.350   1.979   5.349
16055TIP3    H169656   5.401   1.904   5.319
16055TIP3    H269657   5.389   2.054   5.305
16056TIP3   OH269658   1.121   3.324   3.553
16056TIP3    H169659   1.211   3.322   3.522
16056TIP3    H269660   1.115   3.404   3.606
16057TIP3   OH269661   6.091   6.711   0.546
16057TIP3    H169662   6.094   6.625   0.504
16057TIP3    H269663   6.169   6.756   0.515
16058TIP3   OH269664   0.572   5.230  12.318
16058TIP3    H169665   0.549   5.166  12.251
16058TIP3    H269666   0.643   5.189  12.367
16059TIP3   OH269667   6.210   6.746   0.877
16059TIP3    H169668   6.183   6.695   0.801
16059TIP3    H269669   6.240   6.830   0.840
16060TIP3   OH269670   5.877   1.933   6.048
16060TIP3    H169671   5.941   1.904   6.113
16060TIP3    H269672   5.899   2.025   6.032
16061TIP3   OH269673   5.334   5.748  11.351
16061TIP3    H169674   5.362   5.742  11.442
16061TIP3    H269675   5.414   5.739  11.300
16062TIP3   OH269676   6.232   6.664  15.301
16062TIP3    H169677   6.148   6.711  15.294
16062TIP3    H269678   6.225   6.616  15.384
16063TIP3   OH269679   2.794   4.638  11.661
16063TIP3    H169680   2.757   4.725  11.648
16063TIP3    H269681   2.818   4.609  11.573
16064TIP3   OH269682   4.599   2.192  15.645
16064TIP3    H169683   4.594   2.270  15.589
16064TIP3    H269684   4.546   2.127  15.599
16065TIP3   OH269685   2.038   0.683  15.086
16065TIP3    H169686   2.044   0.774  15.059
16065TIP3    H269687   1.998   0.638  15.012
16066TIP3   OH269688   3.451   2.444   1.094
16066TIP3    H169689   3.399   2.369   1.124
16066TIP3    H269690   3.426   2.455   1.002
16067TIP3   OH269691   2.512   1.940   3.959
16067TIP3    H169692   2.575   1.869   3.962
16067TIP3    H269693   2.562   2.018   3.984
16068TIP3   OH269694   2.001   0.075  11.811
16068TIP3    H169695   2.094   0.053  11.817
16068TIP3    H269696   1.995   0.163  11.850
16069TIP3   OH269697   4.649   3.931  12.841
16069TIP3    H169698   4.570   3.919  12.894
16069TIP3    H269699   4.624   3.995  12.775
16070TIP3   OH269700   1.260   2.501  13.883
16070TIP3    H169701   1.286   2.419  13.925
16070TIP3    H269702   1.180   2.527  13.929
16071TIP3   OH269703   1.691   2.605   4.548
16071TIP3    H169704   1.648   2.601   4.633
16071TIP3    H269705   1.754   2.678   4.556
16072TIP3   OH269706   6.169   4.142  14.236
16072TIP3    H169707   6.141   4.232  14.224
16072TIP3    H269708   6.131   4.095  14.162
16073TIP3   OH269709   5.672   0.102   2.316
16073TIP3    H169710   5.751   0.048   2.312
16073TIP3    H269711   5.600   0.039   2.314
16074TIP3   OH269712   1.542   1.163   0.043
16074TIP3    H169713   1.508   1.155  -0.047
16074TIP3    H269714   1.635   1.144   0.035
16075TIP3   OH269715   3.593   3.324  16.199
16075TIP3    H169716   3.579   3.321  16.293
16075TIP3    H269717   3.624   3.413  16.182
16076TIP3   OH269718   3.211   3.326  14.422
16076TIP3    H169719   3.270   3.388  14.380
16076TIP3    H269720   3.246   3.240  14.398
16077TIP3   OH269721   2.406   2.465   4.073
16077TIP3    H169722   2.425   2.413   4.152
16077TIP3    H269723   2.481   2.449   4.016
16078TIP3   OH269724   0.224   1.818  11.050
16078TIP3    H169725   0.250   1.902  11.012
16078TIP3    H269726   0.263   1.818  11.137
16079TIP3   OH269727   6.795   0.515   3.192
16079TIP3    H169728   6.762   0.442   3.140
16079TIP3    H269729   6.874   0.481   3.235
16080TIP3   OH269730   2.030   6.651  13.828
16080TIP3    H169731   1.986   6.567  13.815
16080TIP3    H269732   1.989   6.687  13.907
16081TIP3   OH269733   6.761   0.327   2.936
16081TIP3    H169734   6.666   0.340   2.943
16081TIP3    H269735   6.771   0.235   2.912
16082TIP3   OH269736   3.387   5.631  13.859
16082TIP3    H169737   3.353   5.701  13.915
16082TIP3    H269738   3.341   5.642  13.776
16083TIP3   OH269739   4.420   3.146   6.498
16083TIP3    H169740   4.499   3.095   6.516
16083TIP3    H269741   4.349   3.083   6.504
16084TIP3   OH269742   4.270   5.363   0.203
16084TIP3    H169743   4.272   5.382   0.296
16084TIP3    H269744   4.324   5.284   0.193
16085TIP3   OH269745   4.075   1.419  10.854
16085TIP3    H169746   4.170   1.428  10.861
16085TIP3    H269747   4.049   1.375  10.935
16086TIP3   OH269748   0.956   3.909  12.092
16086TIP3    H169749   0.965   3.985  12.033
16086TIP3    H269750   1.035   3.911  12.146
16087TIP3   OH269751   5.561   1.301   1.966
16087TIP3    H169752   5.626   1.259   2.023
16087TIP3    H269753   5.567   1.394   1.986
16088TIP3   OH269754   5.210   1.121  16.379
16088TIP3    H169755   5.188   1.032  16.351
16088TIP3    H269756   5.207   1.173  16.299
16089TIP3   OH269757   1.855   0.695  16.292
16089TIP3    H169758   1.911   0.744  16.353
16089TIP3    H269759   1.769   0.736  16.301
16090TIP3   OH269760   0.881   3.043  14.199
16090TIP3    H169761   0.859   3.080  14.284
16090TIP3    H269762   0.977   3.036  14.200
16091TIP3   OH269763   4.809   6.370  11.908
16091TIP3    H169764   4.806   6.398  11.816
16091TIP3    H269765   4.824   6.450  11.957
16092TIP3   OH269766   1.537   4.236  17.124
16092TIP3    H169767   1.560   4.196  17.208
16092TIP3    H269768   1.551   4.330  17.138
16093TIP3   OH269769   4.575   6.158  11.084
16093TIP3    H169770   4.569   6.127  10.993
16093TIP3    H269771   4.495   6.208  11.097
16094TIP3   OH269772   2.836   3.086   1.459
16094TIP3    H169773   2.773   3.058   1.392
16094TIP3    H269774   2.921   3.073   1.419
16095TIP3   OH269775   2.564   5.712  11.836
16095TIP3    H169776   2.598   5.623  11.825
16095TIP3    H269777   2.605   5.744  11.916
16096TIP3   OH269778   4.826   2.562   3.250
16096TIP3    H169779   4.805   2.639   3.198
16096TIP3    H269780   4.822   2.592   3.341
16097TIP3   OH269781   2.442   4.113   5.376
16097TIP3    H169782   2.526   4.069   5.388
16097TIP3    H269783   2.377   4.045   5.393
16098TIP3   OH269784   0.018   0.682   2.104
16098TIP3    H169785   0.048   0.733   2.030
16098TIP3    H269786  -0.061   0.726   2.134
16099TIP3   OH269787   6.556   3.775   3.414
16099TIP3    H169788   6.476   3.749   3.459
16099TIP3    H269789   6.627   3.755   3.475
16100TIP3   OH269790   1.916   5.352  11.410
16100TIP3    H169791   1.954   5.265  11.415
16100TIP3    H269792   1.900   5.366  11.316
16101TIP3   OH269793   0.228   6.422  12.367
16101TIP3    H169794   0.251   6.456  12.281
16101TIP3    H269795   0.279   6.341  12.375
16102TIP3   OH269796   3.231   5.186   1.430
16102TIP3    H169797   3.209   5.162   1.339
16102TIP3    H269798   3.183   5.267   1.446
16103TIP3   OH269799   4.857   6.758   3.317
16103TIP3    H169800   4.906   6.720   3.390
16103TIP3    H269801   4.790   6.692   3.297
16104TIP3   OH269802   5.849   4.964   4.723
16104TIP3    H169803   5.905   4.908   4.777
16104TIP3    H269804   5.895   5.048   4.718
16105TIP3   OH269805   3.492   0.000   5.787
16105TIP3    H169806   3.458  -0.013   5.876
16105TIP3    H269807   3.444  -0.063   5.733
16106TIP3   OH269808   5.712   3.591  10.529
16106TIP3    H169809   5.727   3.672  10.577
16106TIP3    H269810   5.799   3.562  10.502
16107TIP3   OH269811   3.289   1.402   0.379
16107TIP3    H169812   3.345   1.453   0.437
16107TIP3    H269813   3.334   1.404   0.295
16108TIP3   OH269814   2.406   0.412   0.726
16108TIP3    H169815   2.346   0.348   0.688
16108TIP3    H269816   2.493   0.380   0.701
16109TIP3   OH269817   0.394   6.466   6.378
16109TIP3    H169818   0.437   6.381   6.390
16109TIP3    H269819   0.451   6.528   6.422
16110TIP3   OH269820   1.044   1.143   1.990
16110TIP3    H169821   1.120   1.107   1.944
16110TIP3    H269822   0.985   1.172   1.920
16111TIP3   OH269823   1.413   6.485  11.401
16111TIP3    H169824   1.341   6.547  11.388
16111TIP3    H269825   1.406   6.424  11.328
16112TIP3   OH269826   1.330   5.558   2.609
16112TIP3    H169827   1.320   5.520   2.522
16112TIP3    H269828   1.269   5.508   2.664
16113TIP3   OH269829   0.098   3.113  14.604
16113TIP3    H169830   0.162   3.164  14.653
16113TIP3    H269831   0.082   3.036  14.659
16114TIP3   OH269832   5.331   0.968  14.239
16114TIP3    H169833   5.333   0.938  14.148
16114TIP3    H269834   5.349   0.891  14.291
16115TIP3   OH269835   4.021   1.466   4.047
16115TIP3    H169836   3.994   1.444   4.136
16115TIP3    H269837   4.104   1.511   4.056
16116TIP3   OH269838   2.849   6.099   6.230
16116TIP3    H169839   2.801   6.017   6.220
16116TIP3    H269840   2.932   6.073   6.270
16117TIP3   OH269841   5.781   6.051  11.354
16117TIP3    H169842   5.690   6.029  11.374
16117TIP3    H269843   5.829   5.970  11.369
16118TIP3   OH269844   2.673   4.333  16.176
16118TIP3    H169845   2.761   4.301  16.196
16118TIP3    H269846   2.640   4.364  16.260
16119TIP3   OH269847   6.796   6.531   5.233
16119TIP3    H169848   6.872   6.507   5.287
16119TIP3    H269849   6.729   6.467   5.257
16120TIP3   OH269850   0.574   0.483  16.078
16120TIP3    H169851   0.610   0.427  16.009
16120TIP3    H269852   0.613   0.569  16.062
16121TIP3   OH269853   2.423   4.558   2.949
16121TIP3    H169854   2.349   4.540   2.891
16121TIP3    H269855   2.468   4.474   2.957
16122TIP3   OH269856   1.179   3.659   3.988
16122TIP3    H169857   1.176   3.753   4.009
16122TIP3    H269858   1.239   3.622   4.053
16123TIP3   OH269859   1.228   1.298   1.590
16123TIP3    H169860   1.252   1.241   1.517
16123TIP3    H269861   1.310   1.311   1.638
16124TIP3   OH269862   6.330   1.616  16.998
16124TIP3    H169863   6.358   1.591  16.910
16124TIP3    H269864   6.250   1.666  16.985
16125TIP3   OH269865   4.542   2.462  14.471
16125TIP3    H169866   4.558   2.470  14.565
16125TIP3    H269867   4.607   2.519  14.430
16126TIP3   OH269868   5.760   3.450  15.863
16126TIP3    H169869   5.706   3.412  15.932
16126TIP3    H269870   5.727   3.409  15.783
16127TIP3   OH269871   2.188   2.121   1.377
16127TIP3    H169872   2.167   2.039   1.333
16127TIP3    H269873   2.108   2.172   1.372
16128TIP3   OH269874   4.799   0.526  15.810
16128TIP3    H169875   4.890   0.509  15.833
16128TIP3    H269876   4.759   0.439  15.806
16129TIP3   OH269877   0.681   6.340  13.047
16129TIP3    H169878   0.752   6.385  13.002
16129TIP3    H269879   0.673   6.385  13.131
16130TIP3   OH269880   6.175   6.486  13.195
16130TIP3    H169881   6.119   6.409  13.191
16130TIP3    H269882   6.244   6.463  13.258
16131TIP3   OH269883   4.809   1.571   3.653
16131TIP3    H169884   4.843   1.507   3.715
16131TIP3    H269885   4.734   1.527   3.613
16132TIP3   OH269886   5.278   5.930   0.517
16132TIP3    H169887   5.324   5.858   0.561
16132TIP3    H269888   5.332   6.007   0.536
16133TIP3   OH269889   2.031   2.530  12.739
16133TIP3    H169890   2.074   2.492  12.662
16133TIP3    H269891   1.960   2.583  12.703
16134TIP3   OH269892   1.840   3.850  17.197
16134TIP3    H169893   1.888   3.768  17.210
16134TIP3    H269894   1.888   3.914  17.250
16135TIP3   OH269895   3.675   2.713   2.457
16135TIP3    H169896   3.642   2.702   2.368
16135TIP3    H269897   3.670   2.807   2.473
16136TIP3   OH269898   5.594   6.739   0.727
16136TIP3    H169899   5.660   6.670   0.719
16136TIP3    H269900   5.633   6.803   0.788
16137TIP3   OH269901   1.491   4.474   5.944
16137TIP3    H169902   1.530   4.413   6.006
16137TIP3    H269903   1.555   4.545   5.938
16138TIP3   OH269904   3.463   4.778   0.563
16138TIP3    H169905   3.398   4.837   0.600
16138TIP3    H269906   3.411   4.711   0.517
16139TIP3   OH269907   6.602   5.355   3.250
16139TIP3    H169908   6.552   5.331   3.173
16139TIP3    H269909   6.693   5.333   3.228
16140TIP3   OH269910   0.524   6.464   4.146
16140TIP3    H169911   0.530   6.484   4.240
16140TIP3    H269912   0.541   6.547   4.103
16141TIP3   OH269913   0.240   2.262  11.800
16141TIP3    H169914   0.318   2.314  11.778
16141TIP3    H269915   0.233   2.269  11.895
16142TIP3   OH269916   2.770   2.195  11.560
16142TIP3    H169917   2.752   2.149  11.478
16142TIP3    H269918   2.861   2.224  11.552
16143TIP3   OH269919   2.293   3.891  16.963
16143TIP3    H169920   2.364   3.934  17.011
16143TIP3    H269921   2.214   3.938  16.988
16144TIP3   OH269922   1.088   6.121   1.565
16144TIP3    H169923   1.167   6.080   1.529
16144TIP3    H269924   1.051   6.055   1.624
16145TIP3   OH269925   2.336   1.024   0.336
16145TIP3    H169926   2.342   1.099   0.395
16145TIP3    H269927   2.399   0.960   0.372
16146TIP3   OH269928   1.764   5.392  16.885
16146TIP3    H169929   1.716   5.335  16.824
16146TIP3    H269930   1.712   5.391  16.965
16147TIP3   OH269931   5.494   3.714  11.364
16147TIP3    H169932   5.459   3.643  11.310
16147TIP3    H269933   5.570   3.676  11.408
16148TIP3   OH269934   1.659   5.226  15.116
16148TIP3    H169935   1.655   5.149  15.173
16148TIP3    H269936   1.597   5.206  15.046
16149TIP3   OH269937   0.839   0.986  15.508
16149TIP3    H169938   0.844   0.891  15.515
16149TIP3    H269939   0.919   1.017  15.550
16150TIP3   OH269940   3.227   2.464   5.693
16150TIP3    H169941   3.305   2.418   5.660
16150TIP3    H269942   3.222   2.442   5.786
16151TIP3   OH269943   3.734   5.470   4.709
16151TIP3    H169944   3.805   5.407   4.717
16151TIP3    H269945   3.700   5.479   4.798
16152TIP3   OH269946   3.400   5.618   2.971
16152TIP3    H169947   3.322   5.584   2.929
16152TIP3    H269948   3.368   5.672   3.043
16153TIP3   OH269949   2.690   6.505  15.178
16153TIP3    H169950   2.758   6.499  15.245
16153TIP3    H269951   2.676   6.415  15.150
16154TIP3   OH269952   2.118   4.472   3.747
16154TIP3    H169953   2.137   4.562   3.776
16154TIP3    H269954   2.047   4.444   3.804
16155TIP3   OH269955   5.954   0.755   2.770
16155TIP3    H169956   6.007   0.818   2.818
16155TIP3    H269957   6.018   0.700   2.724
16156TIP3   OH269958   5.066   2.568  11.872
16156TIP3    H169959   5.160   2.560  11.855
16156TIP3    H269960   5.026   2.563  11.785
16157TIP3   OH269961   3.998   0.810  13.711
16157TIP3    H169962   4.017   0.852  13.795
16157TIP3    H269963   3.976   0.719  13.734
16158TIP3   OH269964   5.790   2.962   4.059
16158TIP3    H169965   5.852   2.956   4.132
16158TIP3    H269966   5.845   2.968   3.981
16159TIP3   OH269967   4.507   6.695   2.781
16159TIP3    H169968   4.418   6.660   2.773
16159TIP3    H269969   4.505   6.747   2.862
16160TIP3   OH269970   5.455   1.881  14.005
16160TIP3    H169971   5.366   1.892  13.971
16160TIP3    H269972   5.507   1.858  13.928
16161TIP3   OH269973   3.391   3.408   0.670
16161TIP3    H169974   3.398   3.345   0.597
16161TIP3    H269975   3.318   3.464   0.647
16162TIP3   OH269976   2.407   2.624   4.430
16162TIP3    H169977   2.460   2.551   4.461
16162TIP3    H269978   2.322   2.611   4.471
16163TIP3   OH269979   3.905   6.012  13.540
16163TIP3    H169980   3.896   6.107  13.532
16163TIP3    H269981   3.987   5.992  13.496
16164TIP3   OH269982   0.928   5.051   5.823
16164TIP3    H169983   0.946   4.996   5.746
16164TIP3    H269984   0.995   5.119   5.820
16165TIP3   OH269985   5.582   3.871   4.621
16165TIP3    H169986   5.558   3.961   4.644
16165TIP3    H269987   5.642   3.880   4.547
16166TIP3   OH269988   1.920   3.061   1.448
16166TIP3    H169989   1.963   2.976   1.454
16166TIP3    H269990   1.918   3.080   1.354
16167TIP3   OH269991   6.357   2.679  16.449
16167TIP3    H169992   6.420   2.617  16.486
16167TIP3    H269993   6.389   2.697  16.361
16168TIP3   OH269994   6.530   0.261   3.329
16168TIP3    H169995   6.508   0.319   3.256
16168TIP3    H269996   6.517   0.315   3.407
16169TIP3   OH269997   1.334   5.648   4.034
16169TIP3    H169998   1.340   5.736   3.997
16169TIP3    H269999   1.415   5.637   4.083
16170TIP3   OH270000   3.905   2.194   4.876
16170TIP3    H170001   3.843   2.166   4.943
16170TIP3    H270002   3.891   2.133   4.803
16171TIP3   OH270003   0.817   4.282  10.964
16171TIP3    H170004   0.779   4.258  11.049
16171TIP3    H270005   0.836   4.198  10.922
16172TIP3   OH270006   3.645   1.227   1.811
16172TIP3    H170007   3.622   1.167   1.740
16172TIP3    H270008   3.563   1.269   1.835
16173TIP3   OH270009   4.012   0.621   3.051
16173TIP3    H170010   4.084   0.671   3.013
16173TIP3    H270011   4.027   0.626   3.146
16174TIP3   OH270012   0.399   4.635  11.708
16174TIP3    H170013   0.318   4.584  11.713
16174TIP3    H270014   0.426   4.645  11.800
16175TIP3   OH270015   0.374   1.968  14.856
16175TIP3    H170016   0.468   1.952  14.858
16175TIP3    H270017   0.343   1.943  14.943
16176TIP3   OH270018   2.690   3.496  14.134
16176TIP3    H170019   2.708   3.508  14.228
16176TIP3    H270020   2.602   3.529  14.122
16177TIP3   OH270021   0.837   2.919  14.681
16177TIP3    H170022   0.924   2.879  14.690
16177TIP3    H270023   0.776   2.845  14.685
16178TIP3   OH270024   1.014   3.926   4.053
16178TIP3    H170025   1.001   3.882   4.138
16178TIP3    H270026   1.078   3.995   4.071
16179TIP3   OH270027   6.629   1.178   4.792
16179TIP3    H170028   6.722   1.160   4.808
16179TIP3    H270029   6.584   1.141   4.868
16180TIP3   OH270030   4.436   1.789   0.323
16180TIP3    H170031   4.497   1.715   0.317
16180TIP3    H270032   4.405   1.802   0.233
16181TIP3   OH270033   0.835   2.930   3.748
16181TIP3    H170034   0.783   2.989   3.802
16181TIP3    H270035   0.846   2.976   3.665
16182TIP3   OH270036   2.297   1.715  13.321
16182TIP3    H170037   2.212   1.675  13.336
16182TIP3    H270038   2.286   1.766  13.240
16183TIP3   OH270039   2.680   2.173  16.429
16183TIP3    H170040   2.728   2.248  16.395
16183TIP3    H270041   2.713   2.163  16.519
16184TIP3   OH270042   2.398   3.963  16.515
16184TIP3    H170043   2.397   3.930  16.426
16184TIP3    H270044   2.327   4.028  16.518
16185TIP3   OH270045   2.653   4.026  16.433
16185TIP3    H170046   2.582   4.029  16.497
16185TIP3    H270047   2.645   3.939  16.392
16186TIP3   OH270048   1.198   5.122   2.138
16186TIP3    H170049   1.138   5.148   2.208
16186TIP3    H270050   1.205   5.027   2.146
16187TIP3   OH270051   4.857   0.493  14.897
16187TIP3    H170052   4.855   0.574  14.948
16187TIP3    H270053   4.795   0.507  14.827
16188TIP3   OH270054   2.172   0.929   5.111
16188TIP3    H170055   2.083   0.943   5.080
16188TIP3    H270056   2.213   0.876   5.043
16189TIP3   OH270057   4.668   0.593   3.964
16189TIP3    H170058   4.600   0.532   3.934
16189TIP3    H270059   4.728   0.539   4.016
16190TIP3   OH270060   1.938   1.143   3.906
16190TIP3    H170061   2.001   1.194   3.855
16190TIP3    H270062   1.866   1.126   3.845
16191TIP3   OH270063   1.727   1.593   2.339
16191TIP3    H170064   1.787   1.667   2.339
16191TIP3    H270065   1.658   1.616   2.277
16192TIP3   OH270066   2.342   4.649  12.072
16192TIP3    H170067   2.270   4.683  12.126
16192TIP3    H270068   2.315   4.560  12.050
16193TIP3   OH270069   1.831   0.552  15.320
16193TIP3    H170070   1.916   0.511  15.337
16193TIP3    H270071   1.766   0.488  15.350
16194TIP3   OH270072   2.915   0.422   0.505
16194TIP3    H170073   2.960   0.466   0.577
16194TIP3    H270074   2.924   0.481   0.431
16195TIP3   OH270075   0.763   1.805   1.948
16195TIP3    H170076   0.839   1.771   1.996
16195TIP3    H270077   0.745   1.738   1.882
16196TIP3   OH270078   4.055   4.553   1.398
16196TIP3    H170079   4.084   4.536   1.308
16196TIP3    H270080   3.969   4.511   1.404
16197TIP3   OH270081   5.828   1.044  12.826
16197TIP3    H170082   5.883   1.028  12.902
16197TIP3    H270083   5.760   0.976  12.831
16198TIP3   OH270084   1.868   6.300   6.621
16198TIP3    H170085   1.841   6.219   6.578
16198TIP3    H270086   1.787   6.348   6.636
16199TIP3   OH270087   0.661   4.457  12.851
16199TIP3    H170088   0.619   4.535  12.885
16199TIP3    H270089   0.682   4.478  12.760
16200TIP3   OH270090   0.034   0.802  14.226
16200TIP3    H170091   0.079   0.788  14.309
16200TIP3    H270092  -0.053   0.763  14.239
16201TIP3   OH270093   3.042   4.172   2.228
16201TIP3    H170094   2.960   4.197   2.270
16201TIP3    H270095   3.028   4.083   2.197
16202TIP3   OH270096   4.523   2.200   2.817
16202TIP3    H170097   4.586   2.271   2.801
16202TIP3    H270098   4.451   2.218   2.758
16203TIP3   OH270099   6.090   5.556   4.355
16203TIP3    H170100   6.136   5.496   4.297
16203TIP3    H270101   6.125   5.642   4.334
16204TIP3   OH270102   4.806   3.140  13.136
16204TIP3    H170103   4.730   3.196  13.119
16204TIP3    H270104   4.772   3.067  13.187
16205TIP3   OH270105   4.188   3.844  17.284
16205TIP3    H170106   4.104   3.858  17.241
16205TIP3    H270107   4.197   3.916  17.346
16206TIP3   OH270108   5.223   4.878  11.505
16206TIP3    H170109   5.151   4.906  11.448
16206TIP3    H270110   5.243   4.789  11.475
16207TIP3   OH270111   2.673   4.334  14.392
16207TIP3    H170112   2.712   4.267  14.335
16207TIP3    H270113   2.596   4.364  14.344
16208TIP3   OH270114   4.269   0.076  12.683
16208TIP3    H170115   4.291   0.120  12.765
16208TIP3    H270116   4.318   0.123  12.616
16209TIP3   OH270117   0.488   3.894   6.174
16209TIP3    H170118   0.417   3.832   6.160
16209TIP3    H270119   0.543   3.852   6.241
16210TIP3   OH270120   2.350   2.733  14.421
16210TIP3    H170121   2.410   2.699  14.487
16210TIP3    H270122   2.361   2.675  14.346
16211TIP3   OH270123   0.895   4.351   1.375
16211TIP3    H170124   0.898   4.387   1.286
16211TIP3    H270125   0.861   4.262   1.365
16212TIP3   OH270126   5.613   1.303  13.573
16212TIP3    H170127   5.644   1.390  13.596
16212TIP3    H270128   5.609   1.256  13.656
16213TIP3   OH270129   6.021   2.048  17.009
16213TIP3    H170130   5.977   2.131  16.991
16213TIP3    H270131   6.005   1.995  16.931
16214TIP3   OH270132   6.672   3.337  11.607
16214TIP3    H170133   6.704   3.339  11.517
16214TIP3    H270134   6.639   3.248  11.619
16215TIP3   OH270135   2.866   0.522   4.962
16215TIP3    H170136   2.921   0.537   4.886
16215TIP3    H270137   2.901   0.581   5.029
16216TIP3   OH270138   1.693   0.314  11.215
16216TIP3    H170139   1.746   0.237  11.195
16216TIP3    H270140   1.746   0.389  11.187
16217TIP3   OH270141   6.470   3.131  12.943
16217TIP3    H170142   6.406   3.170  12.884
16217TIP3    H270143   6.553   3.138  12.896
16218TIP3   OH270144   5.088   4.904  14.595
16218TIP3    H170145   5.166   4.912  14.539
16218TIP3    H270146   5.118   4.928  14.682
16219TIP3   OH270147   5.127   4.410  15.182
16219TIP3    H170148   5.208   4.363  15.165
16219TIP3    H270149   5.141   4.497  15.145
16220TIP3   OH270150   5.260   5.033   4.605
16220TIP3    H170151   5.179   5.045   4.655
16220TIP3    H270152   5.323   5.002   4.669
16221TIP3   OH270153   5.508   4.770  15.745
16221TIP3    H170154   5.600   4.746  15.736
16221TIP3    H270155   5.479   4.791  15.656
16222TIP3   OH270156   3.695   6.222  17.145
16222TIP3    H170157   3.671   6.144  17.095
16222TIP3    H270158   3.654   6.295  17.097
16223TIP3   OH270159   0.025   2.600   2.897
16223TIP3    H170160  -0.034   2.536   2.857
16223TIP3    H270161  -0.031   2.674   2.920
16224TIP3   OH270162   5.957   4.973   3.180
16224TIP3    H170163   6.025   4.907   3.169
16224TIP3    H270164   5.887   4.945   3.121
16225TIP3   OH270165   4.410   2.979  11.207
16225TIP3    H170166   4.473   3.042  11.171
16225TIP3    H270167   4.465   2.910  11.245
16226TIP3   OH270168   2.650   5.533   1.134
16226TIP3    H170169   2.647   5.474   1.059
16226TIP3    H270170   2.561   5.534   1.168
16227TIP3   OH270171   3.476   3.459  14.054
16227TIP3    H170172   3.572   3.460  14.058
16227TIP3    H270173   3.452   3.373  14.089
16228TIP3   OH270174   1.756   3.381   3.344
16228TIP3    H170175   1.734   3.384   3.437
16228TIP3    H270176   1.848   3.407   3.341
16229TIP3   OH270177   3.145   4.702   3.711
16229TIP3    H170178   3.230   4.702   3.666
16229TIP3    H270179   3.104   4.785   3.685
16230TIP3   OH270180   5.119   3.693   6.671
16230TIP3    H170181   5.040   3.689   6.617
16230TIP3    H270182   5.167   3.769   6.639
16231TIP3   OH270183   2.616   1.231  12.789
16231TIP3    H170184   2.569   1.314  12.795
16231TIP3    H270185   2.693   1.252  12.736
16232TIP3   OH270186   3.858   4.452   4.525
16232TIP3    H170187   3.924   4.388   4.499
16232TIP3    H270188   3.860   4.518   4.455
16233TIP3   OH270189   6.753   6.632  15.614
16233TIP3    H170190   6.690   6.642  15.543
16233TIP3    H270191   6.749   6.539  15.637
16234TIP3   OH270192   1.830   1.142   0.022
16234TIP3    H170193   1.828   1.114  -0.069
16234TIP3    H270194   1.923   1.147   0.044
16235TIP3   OH270195   2.016   5.620   3.224
16235TIP3    H170196   1.944   5.557   3.225
16235TIP3    H270197   1.997   5.677   3.149
16236TIP3   OH270198   6.109   2.479   3.893
16236TIP3    H170199   6.178   2.439   3.839
16236TIP3    H270200   6.157   2.532   3.957
16237TIP3   OH270201   2.995   2.200   5.138
16237TIP3    H170202   2.927   2.190   5.071
16237TIP3    H270203   2.981   2.287   5.174
16238TIP3   OH270204   5.305   5.050   5.435
16238TIP3    H170205   5.228   5.081   5.482
16238TIP3    H270206   5.305   5.100   5.353
16239TIP3   OH270207   4.097   2.272  12.938
16239TIP3    H170208   4.180   2.316  12.920
16239TIP3    H270209   4.031   2.341  12.929
16240TIP3   OH270210   5.585   1.132   5.199
16240TIP3    H170211   5.592   1.206   5.138
16240TIP3    H270212   5.629   1.162   5.278
16241TIP3   OH270213   2.717   0.466   1.897
16241TIP3    H170214   2.768   0.515   1.831
16241TIP3    H270215   2.692   0.385   1.852
16242TIP3   OH270216   5.318   1.252   0.751
16242TIP3    H170217   5.301   1.266   0.658
16242TIP3    H270218   5.237   1.279   0.795
16243TIP3   OH270219   2.367   5.112   3.357
16243TIP3    H170220   2.436   5.149   3.412
16243TIP3    H270221   2.311   5.064   3.417
16244TIP3   OH270222   5.613   1.045   3.353
16244TIP3    H170223   5.536   1.077   3.401
16244TIP3    H270224   5.578   1.012   3.270
16245TIP3   OH270225   3.986   3.497  15.793
16245TIP3    H170226   3.972   3.563  15.724
16245TIP3    H270227   3.920   3.517  15.859
16246TIP3   OH270228   2.530   2.161   4.749
16246TIP3    H170229   2.569   2.073   4.745
16246TIP3    H270230   2.490   2.166   4.836
16247TIP3   OH270231   5.447   4.622  14.660
16247TIP3    H170232   5.470   4.552  14.599
16247TIP3    H270233   5.497   4.603  14.739
16248TIP3   OH270234   4.354   1.652  11.938
16248TIP3    H170235   4.406   1.588  11.987
16248TIP3    H270236   4.278   1.603  11.909
16249TIP3   OH270237   6.097   1.531   1.726
16249TIP3    H170238   6.082   1.566   1.814
16249TIP3    H270239   6.090   1.436   1.737
16250TIP3   OH270240   5.593   0.543  15.143
16250TIP3    H170241   5.549   0.487  15.207
16250TIP3    H270242   5.611   0.486  15.069
16251TIP3   OH270243   4.367   2.771  11.497
16251TIP3    H170244   4.371   2.753  11.403
16251TIP3    H270245   4.430   2.710  11.536
16252TIP3   OH270246   3.905   6.077   4.914
16252TIP3    H170247   3.850   6.117   4.982
16252TIP3    H270248   3.897   5.983   4.930
16253TIP3   OH270249   0.596   0.628   3.120
16253TIP3    H170250   0.549   0.562   3.172
16253TIP3    H270251   0.623   0.581   3.041
16254TIP3   OH270252   5.978   6.454   5.453
16254TIP3    H170253   5.952   6.519   5.518
16254TIP3    H270254   5.938   6.373   5.483
16255TIP3   OH270255   1.418   3.920  16.913
16255TIP3    H170256   1.412   3.967  16.996
16255TIP3    H270257   1.397   3.829  16.935
16256TIP3   OH270258   5.730   5.973  14.712
16256TIP3    H170259   5.727   5.927  14.795
16256TIP3    H270260   5.668   6.045  14.721
16257TIP3   OH270261   6.773   2.249  16.532
16257TIP3    H170262   6.820   2.329  16.510
16257TIP3    H270263   6.714   2.236  16.458
16258TIP3   OH270264   0.585   5.677  13.239
16258TIP3    H170265   0.528   5.600  13.237
16258TIP3    H270266   0.565   5.724  13.158
16259TIP3   OH270267   5.441   1.793  16.049
16259TIP3    H170268   5.452   1.706  16.011
16259TIP3    H270269   5.514   1.803  16.110
16260TIP3   OH270270   6.610   0.306  15.077
16260TIP3    H170271   6.546   0.367  15.043
16260TIP3    H270272   6.671   0.361  15.127
16261TIP3   OH270273   3.314   2.567   2.759
16261TIP3    H170274   3.404   2.535   2.759
16261TIP3    H270275   3.266   2.500   2.710
16262TIP3   OH270276   2.233   3.941   5.124
16262TIP3    H170277   2.279   3.911   5.203
16262TIP3    H270278   2.278   3.896   5.052
16263TIP3   OH270279   1.194   3.320  11.377
16263TIP3    H170280   1.278   3.331  11.420
16263TIP3    H270281   1.213   3.268  11.299
16264TIP3   OH270282   5.256   4.585   5.281
16264TIP3    H170283   5.347   4.594   5.308
16264TIP3    H270284   5.210   4.653   5.329
16265TIP3   OH270285   0.070   1.721  15.981
16265TIP3    H170286  -0.020   1.697  15.960
16265TIP3    H270287   0.108   1.642  16.021
16266TIP3   OH270288   0.361   6.290  15.055
16266TIP3    H170289   0.399   6.372  15.025
16266TIP3    H270290   0.435   6.241  15.091
16267TIP3   OH270291   5.816   5.566   6.155
16267TIP3    H170292   5.764   5.629   6.105
16267TIP3    H270293   5.906   5.580   6.125
16268TIP3   OH270294   2.204   6.236   3.814
16268TIP3    H170295   2.248   6.236   3.899
16268TIP3    H270296   2.121   6.191   3.829
16269TIP3   OH270297   1.178   0.561   3.753
16269TIP3    H170298   1.229   0.508   3.814
16269TIP3    H270299   1.087   0.533   3.766
16270TIP3   OH270300   5.180   4.566   3.429
16270TIP3    H170301   5.117   4.559   3.502
16270TIP3    H270302   5.224   4.481   3.428
16271TIP3   OH270303   0.207   0.394   3.275
16271TIP3    H170304   0.240   0.343   3.202
16271TIP3    H270305   0.236   0.346   3.353
16272TIP3   OH270306   5.987   0.037   2.680
16272TIP3    H170307   6.016   0.081   2.600
16272TIP3    H270308   5.936  -0.038   2.648
16273TIP3   OH270309   5.159   2.376  13.039
16273TIP3    H170310   5.068   2.366  13.008
16273TIP3    H270311   5.209   2.392  12.959
16274TIP3   OH270312   0.784   0.626  10.924
16274TIP3    H170313   0.721   0.555  10.910
16274TIP3    H270314   0.823   0.607  11.009
16275TIP3   OH270315   5.511   4.489   6.256
16275TIP3    H170316   5.483   4.557   6.317
16275TIP3    H270317   5.429   4.444   6.232
16276TIP3   OH270318   4.659   0.490   0.874
16276TIP3    H170319   4.574   0.459   0.906
16276TIP3    H270320   4.645   0.583   0.857
16277TIP3   OH270321   2.295   2.859  13.632
16277TIP3    H170322   2.385   2.826  13.630
16277TIP3    H270323   2.302   2.944  13.677
16278TIP3   OH270324   3.472   2.378   2.011
16278TIP3    H170325   3.545   2.418   1.963
16278TIP3    H270326   3.412   2.451   2.027
16279TIP3   OH270327   2.613   2.735   4.082
16279TIP3    H170328   2.629   2.646   4.051
16279TIP3    H270329   2.590   2.725   4.174
16280TIP3   OH270330   0.451   5.046  15.893
16280TIP3    H170331   0.445   4.955  15.865
16280TIP3    H270332   0.379   5.057  15.955
16281TIP3   OH270333   1.307   3.754  16.314
16281TIP3    H170334   1.343   3.696  16.381
16281TIP3    H270335   1.219   3.775  16.345
16282TIP3   OH270336   1.581   5.035  12.799
16282TIP3    H170337   1.612   5.098  12.733
16282TIP3    H270338   1.626   4.953  12.776
16283TIP3   OH270339   3.595   6.754  17.156
16283TIP3    H170340   3.654   6.802  17.097
16283TIP3    H270341   3.650   6.731  17.231
16284TIP3   OH270342   2.761   5.190  11.130
16284TIP3    H170343   2.805   5.153  11.053
16284TIP3    H270344   2.668   5.187  11.107
16285TIP3   OH270345   3.938   1.237   3.480
16285TIP3    H170346   4.032   1.226   3.489
16285TIP3    H270347   3.929   1.317   3.428
16286TIP3   OH270348   4.423   5.136   0.346
16286TIP3    H170349   4.371   5.067   0.387
16286TIP3    H270350   4.472   5.175   0.419
16287TIP3   OH270351   3.119   3.651  10.245
16287TIP3    H170352   3.203   3.689  10.268
16287TIP3    H270353   3.088   3.611  10.326
16288TIP3   OH270354   1.829   1.765   5.925
16288TIP3    H170355   1.847   1.859   5.918
16288TIP3    H270356   1.733   1.760   5.926
16289TIP3   OH270357   3.636   5.764  14.697
16289TIP3    H170358   3.647   5.859  14.689
16289TIP3    H270359   3.647   5.731  14.608
16290TIP3   OH270360   3.548   6.787   2.264
16290TIP3    H170361   3.575   6.730   2.336
16290TIP3    H270362   3.561   6.734   2.185
16291TIP3   OH270363   0.310   5.074  14.027
16291TIP3    H170364   0.281   5.060  13.937
16291TIP3    H270365   0.370   5.148  14.022
16292TIP3   OH270366   3.276   6.812  14.801
16292TIP3    H170367   3.318   6.893  14.830
16292TIP3    H270368   3.284   6.752  14.876
16293TIP3   OH270369   3.534   1.564  15.213
16293TIP3    H170370   3.479   1.568  15.135
16293TIP3    H270371   3.505   1.637  15.266
16294TIP3   OH270372   5.730   5.374  12.039
16294TIP3    H170373   5.759   5.462  12.015
16294TIP3    H270374   5.641   5.385  12.072
16295TIP3   OH270375   2.378   0.590  14.197
16295TIP3    H170376   2.303   0.617  14.143
16295TIP3    H270377   2.437   0.546  14.136
16296TIP3   OH270378   5.572   0.062  15.243
16296TIP3    H170379   5.614   0.052  15.158
16296TIP3    H270380   5.568  -0.027  15.278
16297TIP3   OH270381   4.239   4.960   3.785
16297TIP3    H170382   4.246   4.865   3.771
16297TIP3    H270383   4.318   4.996   3.745
16298TIP3   OH270384   2.892   2.908  16.183
16298TIP3    H170385   2.797   2.910  16.172
16298TIP3    H270386   2.923   2.852  16.112
16299TIP3   OH270387   4.627   6.563   4.220
16299TIP3    H170388   4.655   6.635   4.276
16299TIP3    H270389   4.705   6.540   4.170
16300TIP3   OH270390   2.338   1.729   2.173
16300TIP3    H170391   2.323   1.700   2.263
16300TIP3    H270392   2.422   1.689   2.149
16301TIP3   OH270393   6.102   3.730  14.092
16301TIP3    H170394   6.064   3.655  14.047
16301TIP3    H270395   6.117   3.795  14.023
16302TIP3   OH270396   0.453   4.940   1.574
16302TIP3    H170397   0.404   5.010   1.618
16302TIP3    H270398   0.399   4.862   1.588
16303TIP3   OH270399   0.878   5.720  13.147
16303TIP3    H170400   0.865   5.651  13.213
16303TIP3    H270401   0.970   5.745  13.158
16304TIP3   OH270402   6.031   3.134   2.588
16304TIP3    H170403   5.967   3.162   2.653
16304TIP3    H270404   6.044   3.041   2.605
16305TIP3   OH270405   1.556   1.152  17.016
16305TIP3    H170406   1.631   1.123  16.965
16305TIP3    H270407   1.570   1.246  17.028
16306TIP3   OH270408   4.601   6.128   4.812
16306TIP3    H170409   4.521   6.077   4.801
16306TIP3    H270410   4.571   6.218   4.829
16307TIP3   OH270411   6.301   4.915  17.214
16307TIP3    H170412   6.318   4.997  17.262
16307TIP3    H270413   6.358   4.851  17.256
16308TIP3   OH270414   1.142   0.550  15.177
16308TIP3    H170415   1.070   0.587  15.126
16308TIP3    H270416   1.207   0.523  15.111
16309TIP3   OH270417   0.487   0.068   4.456
16309TIP3    H170418   0.518  -0.011   4.411
16309TIP3    H270419   0.546   0.078   4.530
16310TIP3   OH270420   1.654   3.108  16.904
16310TIP3    H170421   1.737   3.150  16.925
16310TIP3    H270422   1.620   3.158  16.829
16311TIP3   OH270423   2.153   5.338   4.591
16311TIP3    H170424   2.122   5.330   4.501
16311TIP3    H270425   2.202   5.420   4.593
16312TIP3   OH270426   3.404   4.043   1.522
16312TIP3    H170427   3.475   4.076   1.577
16312TIP3    H270428   3.349   3.993   1.582
16313TIP3   OH270429   3.850   3.678   5.402
16313TIP3    H170430   3.788   3.623   5.450
16313TIP3    H270431   3.920   3.618   5.376
16314TIP3   OH270432   3.317   2.789  14.586
16314TIP3    H170433   3.247   2.792  14.521
16314TIP3    H270434   3.295   2.858  14.648
16315TIP3   OH270435   2.794   3.310   2.389
16315TIP3    H170436   2.768   3.234   2.441
16315TIP3    H270437   2.847   3.274   2.318
16316TIP3   OH270438   2.388   0.090  11.966
16316TIP3    H170439   2.340   0.153  12.019
16316TIP3    H270440   2.373   0.117  11.876
16317TIP3   OH270441   5.276   5.087  16.599
16317TIP3    H170442   5.313   5.116  16.516
16317TIP3    H270443   5.186   5.063  16.578
16318TIP3   OH270444   1.654   2.422  11.694
16318TIP3    H170445   1.669   2.328  11.687
16318TIP3    H270446   1.560   2.433  11.678
16319TIP3   OH270447   5.270   3.218   4.167
16319TIP3    H170448   5.217   3.286   4.210
16319TIP3    H270449   5.337   3.195   4.232
16320TIP3   OH270450   5.094   5.275  13.817
16320TIP3    H170451   5.117   5.189  13.851
16320TIP3    H270452   5.177   5.324  13.817
16321TIP3   OH270453   2.040   5.203  16.600
16321TIP3    H170454   2.120   5.151  16.605
16321TIP3    H270455   2.015   5.216  16.692
16322TIP3   OH270456   3.028   5.776   2.203
16322TIP3    H170457   2.938   5.750   2.226
16322TIP3    H270458   3.033   5.759   2.109
16323TIP3   OH270459   1.867   5.361  15.273
16323TIP3    H170460   1.811   5.313  15.211
16323TIP3    H270461   1.956   5.343  15.244
16324TIP3   OH270462   4.723   3.267  10.910
16324TIP3    H170463   4.763   3.197  10.960
16324TIP3    H270464   4.772   3.346  10.935
16325TIP3   OH270465   1.027   6.127   3.096
16325TIP3    H170466   0.934   6.105   3.095
16325TIP3    H270467   1.055   6.120   3.005
16326TIP3   OH270468   5.777   0.163  13.329
16326TIP3    H170469   5.834   0.137  13.401
16326TIP3    H270470   5.813   0.245  13.298
16327TIP3   OH270471   2.322   3.568   3.438
16327TIP3    H170472   2.401   3.522   3.410
16327TIP3    H270473   2.292   3.613   3.359
16328TIP3   OH270474   1.762   1.598  14.824
16328TIP3    H170475   1.711   1.673  14.794
16328TIP3    H270476   1.713   1.522  14.794
16329TIP3   OH270477   0.065   1.311  14.067
16329TIP3    H170478   0.014   1.256  14.007
16329TIP3    H270479   0.064   1.264  14.150
16330TIP3   OH270480   4.931   6.263  12.959
16330TIP3    H170481   4.839   6.285  12.973
16330TIP3    H270482   4.974   6.347  12.946
16331TIP3   OH270483   1.926   5.280  13.710
16331TIP3    H170484   1.999   5.312  13.762
16331TIP3    H270485   1.887   5.211  13.763
16332TIP3   OH270486   3.459   1.657  13.530
16332TIP3    H170487   3.383   1.695  13.486
16332TIP3    H270488   3.423   1.603  13.600
16333TIP3   OH270489   4.561   5.185   0.594
16333TIP3    H170490   4.590   5.276   0.587
16333TIP3    H270491   4.506   5.183   0.672
16334TIP3   OH270492   5.859   0.846  15.227
16334TIP3    H170493   5.856   0.910  15.298
16334TIP3    H270494   5.863   0.761  15.271
16335TIP3   OH270495   6.471   5.993   2.339
16335TIP3    H170496   6.463   5.901   2.365
16335TIP3    H270497   6.482   5.989   2.244
16336TIP3   OH270498   0.332   3.352   3.480
16336TIP3    H170499   0.308   3.384   3.567
16336TIP3    H270500   0.425   3.370   3.473
16337TIP3   OH270501   3.992   3.511  11.396
16337TIP3    H170502   3.993   3.587  11.454
16337TIP3    H270503   3.901   3.480  11.399
16338TIP3   OH270504   0.952   0.787  15.207
16338TIP3    H170505   0.903   0.844  15.148
16338TIP3    H270506   0.889   0.764  15.275
16339TIP3   OH270507   1.748   1.317   4.145
16339TIP3    H170508   1.721   1.233   4.109
16339TIP3    H270509   1.816   1.349   4.086
16340TIP3   OH270510   3.681   0.669   0.918
16340TIP3    H170511   3.659   0.744   0.861
16340TIP3    H270512   3.758   0.630   0.876
16341TIP3   OH270513   1.737   6.054  16.643
16341TIP3    H170514   1.693   6.015  16.568
16341TIP3    H270515   1.678   6.039  16.717
16342TIP3   OH270516   5.656   3.546   6.321
16342TIP3    H170517   5.617   3.630   6.346
16342TIP3    H270518   5.663   3.550   6.226
16343TIP3   OH270519   1.593   1.949  13.203
16343TIP3    H170520   1.614   1.897  13.281
16343TIP3    H270521   1.677   1.982  13.173
16344TIP3   OH270522   6.525   0.136  16.344
16344TIP3    H170523   6.564   0.162  16.261
16344TIP3    H270524   6.472   0.059  16.322
16345TIP3   OH270525   1.050   2.849  17.031
16345TIP3    H170526   0.967   2.804  17.016
16345TIP3    H270527   1.094   2.795  17.098
16346TIP3   OH270528   6.256   1.296   4.451
16346TIP3    H170529   6.169   1.288   4.491
16346TIP3    H270530   6.245   1.261   4.363
16347TIP3   OH270531   0.097   4.886  14.116
16347TIP3    H170532   0.166   4.949  14.134
16347TIP3    H270533   0.110   4.817  14.181
16348TIP3   OH270534   6.272   3.687  15.022
16348TIP3    H170535   6.203   3.660  15.081
16348TIP3    H270536   6.334   3.613  15.022
16349TIP3   OH270537   5.674   5.231   6.722
16349TIP3    H170538   5.597   5.182   6.692
16349TIP3    H270539   5.705   5.182   6.798
16350TIP3   OH270540   1.399   4.364   2.160
16350TIP3    H170541   1.398   4.271   2.137
16350TIP3    H270542   1.372   4.409   2.079
16351TIP3   OH270543   5.623   1.420  15.359
16351TIP3    H170544   5.706   1.372  15.354
16351TIP3    H270545   5.646   1.510  15.337
16352TIP3   OH270546   4.179   2.182   3.486
16352TIP3    H170547   4.126   2.229   3.422
16352TIP3    H270548   4.250   2.242   3.508
16353TIP3   OH270549   0.452   4.254   6.964
16353TIP3    H170550   0.365   4.214   6.966
16353TIP3    H270551   0.442   4.336   7.013
16354TIP3   OH270552   3.288   1.913  13.880
16354TIP3    H170553   3.339   1.992  13.862
16354TIP3    H270554   3.351   1.841  13.875
16355TIP3   OH270555   6.119   2.230  12.953
16355TIP3    H170556   6.065   2.306  12.973
16355TIP3    H270557   6.194   2.237  13.013
16356TIP3   OH270558   5.125   3.683  11.215
16356TIP3    H170559   5.192   3.638  11.267
16356TIP3    H270560   5.173   3.716  11.138
16357TIP3   OH270561   5.334   3.960  11.579
16357TIP3    H170562   5.411   3.941  11.526
16357TIP3    H270563   5.342   4.054  11.599
16358TIP3   OH270564   1.133   3.208  16.763
16358TIP3    H170565   1.216   3.257  16.759
16358TIP3    H270566   1.128   3.164  16.678
16359TIP3   OH270567   6.286   5.936  13.369
16359TIP3    H170568   6.275   5.844  13.393
16359TIP3    H270569   6.278   5.938  13.274
16360TIP3   OH270570   5.677   4.155  14.564
16360TIP3    H170571   5.702   4.112  14.646
16360TIP3    H270572   5.674   4.085  14.500
16361TIP3   OH270573   0.414   1.866   3.603
16361TIP3    H170574   0.336   1.834   3.649
16361TIP3    H270575   0.392   1.861   3.510
16362TIP3   OH270576   0.644   4.531  14.902
16362TIP3    H170577   0.713   4.581  14.945
16362TIP3    H270578   0.577   4.518  14.969
16363TIP3   OH270579   5.314   4.145  14.450
16363TIP3    H170580   5.312   4.141  14.354
16363TIP3    H270581   5.228   4.111  14.476
16364TIP3   OH270582   0.532   2.214  14.131
16364TIP3    H170583   0.593   2.288  14.136
16364TIP3    H270584   0.514   2.191  14.222
16365TIP3   OH270585   1.423   5.889   3.941
16365TIP3    H170586   1.388   5.956   3.999
16365TIP3    H270587   1.446   5.936   3.860
16366TIP3   OH270588   4.397   3.554  12.244
16366TIP3    H170589   4.306   3.582  12.238
16366TIP3    H270590   4.404   3.480  12.183
16367TIP3   OH270591   5.203   3.382  13.173
16367TIP3    H170592   5.271   3.314  13.176
16367TIP3    H270593   5.129   3.339  13.130
16368TIP3   OH270594   5.251   2.169  10.923
16368TIP3    H170595   5.179   2.220  10.960
16368TIP3    H270596   5.330   2.214  10.952
16369TIP3   OH270597   5.970   4.183  13.455
16369TIP3    H170598   5.930   4.142  13.378
16369TIP3    H270599   6.060   4.151  13.455
16370TIP3   OH270600   2.020   3.508   6.549
16370TIP3    H170601   2.046   3.418   6.566
16370TIP3    H270602   2.091   3.545   6.497
16371TIP3   OH270603   2.573   3.393  11.750
16371TIP3    H170604   2.560   3.304  11.717
16371TIP3    H270605   2.487   3.419  11.784
16372TIP3   OH270606   5.082   4.314  16.637
16372TIP3    H170607   5.119   4.240  16.686
16372TIP3    H270608   5.101   4.295  16.546
16373TIP3   OH270609   2.837   6.141   3.298
16373TIP3    H170610   2.844   6.217   3.356
16373TIP3    H270611   2.926   6.106   3.295
16374TIP3   OH270612   3.763   1.657  11.465
16374TIP3    H170613   3.753   1.745  11.430
16374TIP3    H270614   3.691   1.647  11.528
16375TIP3   OH270615   3.807   4.783  16.000
16375TIP3    H170616   3.801   4.687  15.997
16375TIP3    H270617   3.849   4.802  16.084
16376TIP3   OH270618   1.186   1.310  15.418
16376TIP3    H170619   1.109   1.363  15.398
16376TIP3    H270620   1.227   1.295  15.333
16377TIP3   OH270621   6.179   6.490  16.095
16377TIP3    H170622   6.251   6.448  16.048
16377TIP3    H270623   6.216   6.512  16.181
16378TIP3   OH270624   2.318   3.603   2.471
16378TIP3    H170625   2.346   3.676   2.526
16378TIP3    H270626   2.366   3.528   2.507
16379TIP3   OH270627   3.080   3.458  10.428
16379TIP3    H170628   3.024   3.389  10.392
16379TIP3    H270629   3.055   3.464  10.520
16380TIP3   OH270630   1.887   6.126  13.617
16380TIP3    H170631   1.845   6.146  13.700
16380TIP3    H270632   1.980   6.117  13.638
16381TIP3   OH270633   1.125   2.582  12.037
16381TIP3    H170634   1.172   2.659  12.069
16381TIP3    H270635   1.178   2.549  11.964
16382TIP3   OH270636   3.652   6.465  16.146
16382TIP3    H170637   3.729   6.517  16.125
16382TIP3    H270638   3.588   6.527  16.181
16383TIP3   OH270639   5.855   1.179  13.942
16383TIP3    H170640   5.915   1.251  13.963
16383TIP3    H270641   5.870   1.114  14.010
16384TIP3   OH270642   6.122   6.161  13.802
16384TIP3    H170643   6.095   6.242  13.759
16384TIP3    H270644   6.115   6.180  13.895
16385TIP3   OH270645   3.838   6.473   3.584
16385TIP3    H170646   3.788   6.548   3.552
16385TIP3    H270647   3.894   6.448   3.511
16386TIP3   OH270648   5.381   6.020  12.676
16386TIP3    H170649   5.452   6.076  12.643
16386TIP3    H270650   5.363   5.959  12.604
16387TIP3   OH270651   3.744   6.071   0.791
16387TIP3    H170652   3.806   6.004   0.762
16387TIP3    H270653   3.658   6.031   0.776
16388TIP3   OH270654   6.278   6.355   2.400
16388TIP3    H170655   6.231   6.432   2.432
16388TIP3    H270656   6.313   6.313   2.479
16389TIP3   OH270657   2.196   3.300   1.692
16389TIP3    H170658   2.174   3.306   1.785
16389TIP3    H270659   2.283   3.260   1.691
16390TIP3   OH270660   6.311   6.059  13.638
16390TIP3    H170661   6.241   6.086  13.696
16390TIP3    H270662   6.267   6.038  13.555
16391TIP3   OH270663   2.403   2.532   6.069
16391TIP3    H170664   2.376   2.480   6.144
16391TIP3    H270665   2.484   2.575   6.096
16392TIP3   OH270666   2.969   6.014  11.323
16392TIP3    H170667   2.917   6.007  11.403
16392TIP3    H270668   3.005   6.103  11.326
16393TIP3   OH270669   3.855   2.214  16.237
16393TIP3    H170670   3.772   2.168  16.251
16393TIP3    H270671   3.846   2.296  16.286
16394TIP3   OH270672   3.104   0.249   0.360
16394TIP3    H170673   3.033   0.279   0.416
16394TIP3    H270674   3.061   0.210   0.284
16395TIP3   OH270675   0.141   0.009  15.625
16395TIP3    H170676   0.086   0.087  15.636
16395TIP3    H270677   0.083  -0.064  15.644
16396TIP3   OH270678   1.549   1.145  15.348
16396TIP3    H170679   1.599   1.091  15.287
16396TIP3    H270680   1.532   1.226  15.300
16397TIP3   OH270681   4.182   0.234  11.411
16397TIP3    H170682   4.252   0.169  11.412
16397TIP3    H270683   4.153   0.240  11.502
16398TIP3   OH270684   2.582   5.626  17.275
16398TIP3    H170685   2.595   5.691  17.206
16398TIP3    H270686   2.615   5.544  17.238
16399TIP3   OH270687   2.864   4.286   0.680
16399TIP3    H170688   2.916   4.293   0.760
16399TIP3    H270689   2.813   4.206   0.692
16400TIP3   OH270690   1.709   1.447  16.712
16400TIP3    H170691   1.625   1.481  16.741
16400TIP3    H270692   1.769   1.466  16.785
16401TIP3   OH270693   5.654   6.250  11.213
16401TIP3    H170694   5.711   6.179  11.241
16401TIP3    H270695   5.712   6.326  11.205
16402TIP3   OH270696   6.745   1.006  16.388
16402TIP3    H170697   6.791   0.926  16.363
16402TIP3    H270698   6.685   0.977  16.458
16403TIP3   OH270699   0.222   0.984   5.538
16403TIP3    H170700   0.282   0.960   5.609
16403TIP3    H270701   0.195   1.073   5.559
16404TIP3   OH270702   6.629   5.095   5.479
16404TIP3    H170703   6.536   5.107   5.496
16404TIP3    H270704   6.633   5.056   5.392
16405TIP3   OH270705   0.519   6.755   4.069
16405TIP3    H170706   0.429   6.786   4.076
16405TIP3    H270707   0.531   6.734   3.977
16406TIP3   OH270708   1.669   3.910   2.730
16406TIP3    H170709   1.682   3.842   2.665
16406TIP3    H270710   1.750   3.962   2.728
16407TIP3   OH270711   3.286   0.504  10.985
16407TIP3    H170712   3.293   0.482  10.892
16407TIP3    H270713   3.301   0.599  10.988
16408TIP3   OH270714   2.087   3.871  10.775
16408TIP3    H170715   2.140   3.802  10.734
16408TIP3    H270716   2.151   3.923  10.823
16409TIP3   OH270717   2.005   5.510  14.178
16409TIP3    H170718   2.071   5.454  14.138
16409TIP3    H270719   1.929   5.454  14.189
16410TIP3   OH270720   5.931   2.752  16.135
16410TIP3    H170721   6.022   2.726  16.125
16410TIP3    H270722   5.929   2.803  16.216
16411TIP3   OH270723   5.732   3.419  10.829
16411TIP3    H170724   5.771   3.332  10.837
16411TIP3    H270725   5.798   3.478  10.866
16412TIP3   OH270726   5.245   1.609   4.584
16412TIP3    H170727   5.252   1.681   4.521
16412TIP3    H270728   5.336   1.585   4.604
16413TIP3   OH270729   2.661   0.264  15.102
16413TIP3    H170730   2.571   0.293  15.084
16413TIP3    H270731   2.688   0.218  15.022
16414TIP3   OH270732   1.170   0.898   2.947
16414TIP3    H170733   1.121   0.973   2.914
16414TIP3    H270734   1.255   0.935   2.974
16415TIP3   OH270735   1.910   4.095   4.381
16415TIP3    H170736   1.886   4.002   4.378
16415TIP3    H270737   1.954   4.104   4.466
16416TIP3   OH270738   0.064   2.665   6.308
16416TIP3    H170739   0.135   2.712   6.351
16416TIP3    H270740  -0.015   2.710   6.337
16417TIP3   OH270741   5.445   6.361  14.250
16417TIP3    H170742   5.507   6.325  14.186
16417TIP3    H270743   5.483   6.339  14.335
16418TIP3   OH270744   3.229   2.262  16.217
16418TIP3    H170745   3.176   2.314  16.157
16418TIP3    H270746   3.310   2.245  16.168
16419TIP3   OH270747   4.874   3.421  13.741
16419TIP3    H170748   4.949   3.421  13.682
16419TIP3    H270749   4.816   3.489  13.707
16420TIP3   OH270750   0.037   6.066  15.755
16420TIP3    H170751   0.119   6.047  15.800
16420TIP3    H270752   0.063   6.097  15.668
16421TIP3   OH270753   3.052   2.100  14.234
16421TIP3    H170754   2.960   2.085  14.213
16421TIP3    H270755   3.093   2.014  14.226
16422TIP3   OH270756   2.258   4.314  10.785
16422TIP3    H170757   2.198   4.329  10.712
16422TIP3    H270758   2.303   4.398  10.797
16423TIP3   OH270759   2.735   3.825   4.359
16423TIP3    H170760   2.797   3.893   4.385
16423TIP3    H270761   2.702   3.853   4.274
16424TIP3   OH270762   2.233   5.697  11.676
16424TIP3    H170763   2.156   5.670  11.625
16424TIP3    H270764   2.274   5.615  11.702
16425TIP3   OH270765   0.589   2.689  16.146
16425TIP3    H170766   0.670   2.661  16.187
16425TIP3    H270767   0.553   2.610  16.106
16426TIP3   OH270768   1.640   2.256  14.502
16426TIP3    H170769   1.705   2.286  14.565
16426TIP3    H270770   1.594   2.185  14.547
16427TIP3   OH270771   1.700   0.368  14.406
16427TIP3    H170772   1.738   0.303  14.465
16427TIP3    H270773   1.770   0.388  14.344
16428TIP3   OH270774   6.456   5.853  16.575
16428TIP3    H170775   6.402   5.854  16.654
16428TIP3    H270776   6.481   5.944  16.561
16429TIP3   OH270777   2.949   4.766  13.426
16429TIP3    H170778   2.918   4.779  13.516
16429TIP3    H270779   2.950   4.854  13.388
16430TIP3   OH270780   6.014   2.046  11.866
16430TIP3    H170781   6.054   2.131  11.851
16430TIP3    H270782   5.926   2.054  11.830
16431TIP3   OH270783   1.028   4.780  13.932
16431TIP3    H170784   0.934   4.794  13.924
16431TIP3    H270785   1.062   4.861  13.970
16432TIP3   OH270786   6.703   5.978   0.993
16432TIP3    H170787   6.651   5.964   1.072
16432TIP3    H270788   6.716   6.073   0.989
16433TIP3   OH270789   6.178   6.631  11.098
16433TIP3    H170790   6.115   6.559  11.096
16433TIP3    H270791   6.213   6.635  11.009
16434TIP3   OH270792   5.156   6.456  15.582
16434TIP3    H170793   5.085   6.457  15.646
16434TIP3    H270794   5.125   6.396  15.513
16435TIP3   OH270795   3.025   1.258   3.107
16435TIP3    H170796   2.976   1.337   3.087
16435TIP3    H270797   3.049   1.222   3.022
16436TIP3   OH270798   0.377   4.910  13.216
16436TIP3    H170799   0.369   4.888  13.309
16436TIP3    H270800   0.460   4.959  13.211
16437TIP3   OH270801   3.058   6.518  14.878
16437TIP3    H170802   3.029   6.514  14.787
16437TIP3    H270803   2.993   6.572  14.922
16438TIP3   OH270804   0.108   0.480  12.088
16438TIP3    H170805   0.160   0.428  12.149
16438TIP3    H270806   0.099   0.565  12.131
16439TIP3   OH270807   1.861   6.322   1.618
16439TIP3    H170808   1.769   6.301   1.605
16439TIP3    H270809   1.884   6.278   1.701
16440TIP3   OH270810   2.384   1.496   1.743
16440TIP3    H170811   2.357   1.525   1.656
16440TIP3    H270812   2.416   1.575   1.786
16441TIP3   OH270813   6.322   6.722  11.826
16441TIP3    H170814   6.364   6.689  11.906
16441TIP3    H270815   6.228   6.712  11.843
16442TIP3   OH270816   1.330   2.593  14.811
16442TIP3    H170817   1.395   2.522  14.812
16442TIP3    H270818   1.373   2.666  14.854
16443TIP3   OH270819   2.249   6.697  16.281
16443TIP3    H170820   2.301   6.661  16.210
16443TIP3    H270821   2.304   6.685  16.359
16444TIP3   OH270822   5.013   2.989  10.551
16444TIP3    H170823   4.919   2.988  10.536
16444TIP3    H270824   5.034   2.899  10.579
16445TIP3   OH270825   3.178   1.880  15.257
16445TIP3    H170826   3.143   1.806  15.306
16445TIP3    H270827   3.220   1.936  15.322
16446TIP3   OH270828   2.034   3.006   0.180
16446TIP3    H170829   1.975   3.012   0.105
16446TIP3    H270830   2.071   2.918   0.175
16447TIP3   OH270831   0.211   3.371  13.506
16447TIP3    H170832   0.297   3.330  13.516
16447TIP3    H270833   0.207   3.436  13.577
16448TIP3   OH270834   2.566   0.001  13.062
16448TIP3    H170835   2.575  -0.022  12.970
16448TIP3    H270836   2.478   0.036  13.069
16449TIP3   OH270837   5.733   1.754   1.863
16449TIP3    H170838   5.677   1.812   1.914
16449TIP3    H270839   5.780   1.813   1.804
16450TIP3   OH270840   2.485   4.038   4.040
16450TIP3    H170841   2.397   4.045   4.076
16450TIP3    H270842   2.509   4.129   4.018
16451TIP3   OH270843   2.668   1.871  15.980
16451TIP3    H170844   2.721   1.839  15.907
16451TIP3    H270845   2.722   1.938  16.022
16452TIP3   OH270846   3.560   4.144  11.584
16452TIP3    H170847   3.487   4.097  11.625
16452TIP3    H270848   3.638   4.110  11.627
16453TIP3   OH270849   4.566   0.394   3.135
16453TIP3    H170850   4.649   0.353   3.108
16453TIP3    H270851   4.509   0.320   3.156
16454TIP3   OH270852   2.467   0.692  15.204
16454TIP3    H170853   2.393   0.741  15.169
16454TIP3    H270854   2.541   0.751  15.195
16455TIP3   OH270855   1.049   5.106  13.142
16455TIP3    H170856   1.058   5.076  13.232
16455TIP3    H270857   1.121   5.169  13.130
16456TIP3   OH270858   6.548   4.949  14.195
16456TIP3    H170859   6.457   4.959  14.225
16456TIP3    H270860   6.601   4.979  14.269
16457TIP3   OH270861   0.704   1.342   5.374
16457TIP3    H170862   0.624   1.379   5.411
16457TIP3    H270863   0.751   1.307   5.449
16458TIP3   OH270864   2.968   4.364   5.895
16458TIP3    H170865   2.969   4.431   5.963
16458TIP3    H270866   2.875   4.351   5.876
16459TIP3   OH270867   4.893   5.543   0.954
16459TIP3    H170868   4.818   5.584   0.998
16459TIP3    H270869   4.898   5.588   0.869
16460TIP3   OH270870   0.973   1.776  14.905
16460TIP3    H170871   0.980   1.734  14.819
16460TIP3    H270872   0.981   1.869  14.887
16461TIP3   OH270873   4.163   3.326  16.052
16461TIP3    H170874   4.158   3.303  15.959
16461TIP3    H270875   4.076   3.361  16.073
16462TIP3   OH270876   1.724   1.597   3.574
16462TIP3    H170877   1.817   1.597   3.593
16462TIP3    H270878   1.699   1.689   3.570
16463TIP3   OH270879   5.926   4.470   3.805
16463TIP3    H170880   5.831   4.478   3.797
16463TIP3    H270881   5.953   4.427   3.724
16464TIP3   OH270882   2.566   0.821  14.220
16464TIP3    H170883   2.607   0.816  14.306
16464TIP3    H270884   2.516   0.740  14.212
16465TIP3   OH270885   0.816   3.178  13.773
16465TIP3    H170886   0.731   3.183  13.729
16465TIP3    H270887   0.795   3.177  13.867
16466TIP3   OH270888   0.638   0.480   1.531
16466TIP3    H170889   0.634   0.574   1.546
16466TIP3    H270890   0.630   0.470   1.437
16467TIP3   OH270891   4.957   4.974   5.660
16467TIP3    H170892   4.995   5.037   5.598
16467TIP3    H270893   4.941   5.025   5.739
16468TIP3   OH270894   4.058   3.242   4.582
16468TIP3    H170895   4.065   3.190   4.662
16468TIP3    H270896   4.110   3.320   4.601
16469TIP3   OH270897   1.053   3.807  16.490
16469TIP3    H170898   1.123   3.860  16.529
16469TIP3    H270899   0.974   3.837  16.534
16470TIP3   OH270900   2.383   3.982   5.630
16470TIP3    H170901   2.343   3.914   5.575
16470TIP3    H270902   2.320   4.054   5.628
16471TIP3   OH270903   1.230   0.120  16.048
16471TIP3    H170904   1.259   0.084  16.132
16471TIP3    H270905   1.254   0.054  15.983
16472TIP3   OH270906   3.005   5.643  15.660
16472TIP3    H170907   2.976   5.647  15.752
16472TIP3    H270908   2.924   5.644  15.609
16473TIP3   OH270909   6.083   0.409  16.385
16473TIP3    H170910   6.153   0.376  16.329
16473TIP3    H270911   6.021   0.337  16.391
16474TIP3   OH270912   1.847   5.382   0.106
16474TIP3    H170913   1.786   5.433   0.052
16474TIP3    H270914   1.926   5.437   0.111
16475TIP3   OH270915   4.237   0.587   0.833
16475TIP3    H170916   4.210   0.539   0.754
16475TIP3    H270917   4.166   0.571   0.896
16476TIP3   OH270918   6.664   3.369   3.006
16476TIP3    H170919   6.757   3.361   2.983
16476TIP3    H270920   6.665   3.396   3.098
16477TIP3   OH270921   2.075   0.170   4.673
16477TIP3    H170922   1.982   0.190   4.662
16477TIP3    H270923   2.110   0.244   4.722
16478TIP3   OH270924   1.732   1.196   1.984
16478TIP3    H170925   1.800   1.206   1.918
16478TIP3    H270926   1.660   1.153   1.938
16479TIP3   OH270927   5.735   5.105   1.177
16479TIP3    H170928   5.640   5.109   1.172
16479TIP3    H270929   5.765   5.142   1.094
16480TIP3   OH270930   3.965   1.254   3.130
16480TIP3    H170931   4.057   1.247   3.104
16480TIP3    H270932   3.950   1.178   3.187
16481TIP3   OH270933   0.568   2.039   0.692
16481TIP3    H170934   0.561   2.110   0.629
16481TIP3    H270935   0.506   1.973   0.661
16482TIP3   OH270936   0.284   6.814  17.192
16482TIP3    H170937   0.299   6.720  17.184
16482TIP3    H270938   0.191   6.826  17.171
16483TIP3   OH270939   0.534   6.754  13.330
16483TIP3    H170940   0.474   6.818  13.293
16483TIP3    H270941   0.593   6.732  13.258
16484TIP3   OH270942   1.449   0.478  15.081
16484TIP3    H170943   1.464   0.424  15.159
16484TIP3    H270944   1.496   0.433  15.011
16485TIP3   OH270945   6.144   3.415   4.876
16485TIP3    H170946   6.147   3.485   4.812
16485TIP3    H270947   6.132   3.459   4.960
16486TIP3   OH270948   2.859   4.234   3.337
16486TIP3    H170949   2.852   4.230   3.432
16486TIP3    H270950   2.819   4.318   3.314
16487TIP3   OH270951   5.419   6.323   1.139
16487TIP3    H170952   5.450   6.299   1.227
16487TIP3    H270953   5.437   6.246   1.086
16488TIP3   OH270954   4.794   6.155   3.886
16488TIP3    H170955   4.866   6.146   3.949
16488TIP3    H270956   4.726   6.203   3.934
16489TIP3   OH270957   6.441   4.887  16.775
16489TIP3    H170958   6.405   4.966  16.735
16489TIP3    H270959   6.383   4.868  16.849
16490TIP3   OH270960   6.200   5.602  13.310
16490TIP3    H170961   6.154   5.525  13.276
16490TIP3    H270962   6.176   5.604  13.403
16491TIP3   OH270963   0.697   6.687   3.096
16491TIP3    H170964   0.742   6.615   3.052
16491TIP3    H270965   0.656   6.737   3.026
16492TIP3   OH270966   1.549   5.131   3.132
16492TIP3    H170967   1.564   5.193   3.203
16492TIP3    H270968   1.549   5.184   3.052
16493TIP3   OH270969   3.545   2.911  11.452
16493TIP3    H170970   3.503   2.932  11.368
16493TIP3    H270971   3.566   2.818  11.445
16494TIP3   OH270972   5.448   1.925   0.082
16494TIP3    H170973   5.471   1.949   0.172
16494TIP3    H270974   5.479   1.835   0.073
16495TIP3   OH270975   3.371   2.326  14.926
16495TIP3    H170976   3.343   2.281  14.846
16495TIP3    H270977   3.448   2.376  14.901
16496TIP3   OH270978   4.047   1.276  11.358
16496TIP3    H170979   4.074   1.367  11.369
16496TIP3    H270980   4.085   1.230  11.434
16497TIP3   OH270981   3.052   1.383  13.631
16497TIP3    H170982   2.957   1.381  13.624
16497TIP3    H270983   3.078   1.291  13.630
16498TIP3   OH270984   0.502   5.662  15.164
16498TIP3    H170985   0.570   5.724  15.193
16498TIP3    H270986   0.450   5.712  15.101
16499TIP3   OH270987   6.241   0.235   5.909
16499TIP3    H170988   6.185   0.160   5.890
16499TIP3    H270989   6.216   0.300   5.843
16500TIP3   OH270990   2.575   0.324  13.015
16500TIP3    H170991   2.654   0.340  12.962
16500TIP3    H270992   2.599   0.252  13.073
16501TIP3   OH270993   5.113   5.397  16.427
16501TIP3    H170994   5.079   5.347  16.502
16501TIP3    H270995   5.179   5.455  16.465
16502TIP3   OH270996   5.120   5.018  13.491
16502TIP3    H170997   5.071   5.081  13.544
16502TIP3    H270998   5.055   4.952  13.465
16503TIP3   OH270999   4.050   4.734   3.758
16503TIP3    H171000   3.996   4.683   3.818
16503TIP3    H271001   4.071   4.673   3.687
16504TIP3   OH271002   6.427   1.093  10.945
16504TIP3    H171003   6.373   1.051  10.878
16504TIP3    H271004   6.369   1.157  10.986
16505TIP3   OH271005   3.312   4.317   5.513
16505TIP3    H171006   3.231   4.364   5.492
16505TIP3    H271007   3.290   4.266   5.591
16506TIP3   OH271008   4.467   5.940  11.615
16506TIP3    H171009   4.396   5.972  11.671
16506TIP3    H271010   4.536   6.006  11.624
16507TIP3   OH271011   2.383   5.328  12.886
16507TIP3    H171012   2.385   5.271  12.963
16507TIP3    H271013   2.320   5.396  12.909
16508TIP3   OH271014   0.098   0.487  13.868
16508TIP3    H171015   0.178   0.480  13.920
16508TIP3    H271016   0.056   0.567  13.900
16509TIP3   OH271017   2.633   2.531   2.600
16509TIP3    H171018   2.614   2.524   2.694
16509TIP3    H271019   2.552   2.566   2.562
16510TIP3   OH271020   2.213   2.359  10.813
16510TIP3    H171021   2.145   2.356  10.746
16510TIP3    H271022   2.192   2.287  10.872
16511TIP3   OH271023   3.784   3.334  16.710
16511TIP3    H171024   3.712   3.272  16.726
16511TIP3    H271025   3.817   3.311  16.624
16512TIP3   OH271026   6.500   0.943  11.697
16512TIP3    H171027   6.465   1.012  11.753
16512TIP3    H271028   6.590   0.970  11.678
16513TIP3   OH271029   6.281   5.525  12.227
16513TIP3    H171030   6.320   5.603  12.188
16513TIP3    H271031   6.337   5.453  12.197
16514TIP3   OH271032   1.538   2.423   1.181
16514TIP3    H171033   1.587   2.344   1.157
16514TIP3    H271034   1.521   2.466   1.097
16515TIP3   OH271035   0.572   4.183  11.556
16515TIP3    H171036   0.510   4.221  11.493
16515TIP3    H271037   0.532   4.100  11.582
16516TIP3   OH271038   0.184   3.607  11.419
16516TIP3    H171039   0.117   3.675  11.411
16516TIP3    H271040   0.237   3.616  11.340
16517TIP3   OH271041   4.861   4.381  13.095
16517TIP3    H171042   4.789   4.319  13.088
16517TIP3    H271043   4.841   4.432  13.173
16518TIP3   OH271044   0.532   6.534   5.782
16518TIP3    H171045   0.487   6.607   5.824
16518TIP3    H271046   0.507   6.542   5.690
16519TIP3   OH271047   1.618   0.066   5.801
16519TIP3    H171048   1.676   0.123   5.751
16519TIP3    H271049   1.592   0.119   5.877
16520TIP3   OH271050   1.974   5.136  16.056
16520TIP3    H171051   1.918   5.203  16.017
16520TIP3    H271052   2.062   5.174  16.054
16521TIP3   OH271053   6.734   2.942  13.875
16521TIP3    H171054   6.707   2.990  13.953
16521TIP3    H271055   6.823   2.974  13.858
16522TIP3   OH271056   1.502   2.734   5.397
16522TIP3    H171057   1.539   2.711   5.312
16522TIP3    H271058   1.556   2.687   5.460
16523TIP3   OH271059   3.452   5.986   2.009
16523TIP3    H171060   3.461   5.904   2.058
16523TIP3    H271061   3.358   5.992   1.991
16524TIP3   OH271062   1.148   6.207  16.961
16524TIP3    H171063   1.105   6.155  17.029
16524TIP3    H271064   1.076   6.249  16.913
16525TIP3   OH271065   3.118   4.078   5.579
16525TIP3    H171066   3.191   4.026   5.546
16525TIP3    H271067   3.151   4.121   5.657
16526TIP3   OH271068   4.562   0.686   3.371
16526TIP3    H171069   4.550   0.670   3.278
16526TIP3    H271070   4.475   0.714   3.402
16527TIP3   OH271071   3.641   2.868   3.092
16527TIP3    H171072   3.727   2.908   3.099
16527TIP3    H271073   3.597   2.891   3.174
16528TIP3   OH271074   4.743   3.288  12.346
16528TIP3    H171075   4.799   3.230  12.295
16528TIP3    H271076   4.654   3.259  12.326
16529TIP3   OH271077   2.888   2.761  11.804
16529TIP3    H171078   2.806   2.711  11.809
16529TIP3    H271079   2.882   2.823  11.877
16530TIP3   OH271080   3.804   6.616   1.065
16530TIP3    H171081   3.788   6.576   1.150
16530TIP3    H271082   3.817   6.709   1.085
16531TIP3   OH271083   1.973   4.364   4.874
16531TIP3    H171084   1.891   4.319   4.853
16531TIP3    H271085   2.027   4.297   4.917
16532TIP3   OH271086   1.950   1.744   2.939
16532TIP3    H171087   2.001   1.822   2.917
16532TIP3    H271088   2.011   1.671   2.928
16533TIP3   OH271089   1.446   2.787   3.594
16533TIP3    H171090   1.482   2.705   3.627
16533TIP3    H271091   1.374   2.761   3.537
16534TIP3   OH271092   4.999   3.753   1.149
16534TIP3    H171093   4.944   3.763   1.227
16534TIP3    H271094   4.961   3.813   1.085
16535TIP3   OH271095   1.156   3.271  12.856
16535TIP3    H171096   1.169   3.364  12.877
16535TIP3    H271097   1.243   3.232  12.868
16536TIP3   OH271098   2.580   4.752  15.043
16536TIP3    H171099   2.485   4.747  15.054
16536TIP3    H271100   2.592   4.809  14.968
16537TIP3   OH271101   6.648   3.852   5.196
16537TIP3    H171102   6.719   3.789   5.185
16537TIP3    H271103   6.572   3.810   5.157
16538TIP3   OH271104   5.738   2.407   1.351
16538TIP3    H171105   5.646   2.419   1.329
16538TIP3    H271106   5.786   2.448   1.279
16539TIP3   OH271107   3.817   4.601   4.316
16539TIP3    H171108   3.906   4.623   4.289
16539TIP3    H271109   3.763   4.627   4.242
16540TIP3   OH271110   3.150   6.651  16.776
16540TIP3    H171111   3.228   6.609  16.740
16540TIP3    H271112   3.171   6.667  16.868
16541TIP3   OH271113   5.209   0.540  15.135
16541TIP3    H171114   5.217   0.477  15.064
16541TIP3    H271115   5.228   0.624  15.095
16542TIP3   OH271116   1.435   3.368  11.485
16542TIP3    H171117   1.478   3.452  11.499
16542TIP3    H271118   1.471   3.311  11.553
16543TIP3   OH271119   2.173   3.502   1.913
16543TIP3    H171120   2.229   3.542   1.846
16543TIP3    H271121   2.112   3.572   1.939
16544TIP3   OH271122   5.977   0.943   5.142
16544TIP3    H171123   6.001   1.034   5.159
16544TIP3    H271124   5.907   0.947   5.077
16545TIP3   OH271125   5.427   1.805   4.420
16545TIP3    H171126   5.428   1.892   4.460
16545TIP3    H271127   5.375   1.816   4.340
16546TIP3   OH271128   2.053   3.353   3.424
16546TIP3    H171129   2.140   3.331   3.456
16546TIP3    H271130   2.004   3.378   3.503
16547TIP3   OH271131   6.368   4.529  14.623
16547TIP3    H171132   6.386   4.462  14.688
16547TIP3    H271133   6.392   4.489  14.539
16548TIP3   OH271134   2.257   2.296  11.675
16548TIP3    H171135   2.297   2.209  11.669
16548TIP3    H271136   2.331   2.357  11.665
16549TIP3   OH271137   4.693   2.845   5.276
16549TIP3    H171138   4.604   2.876   5.256
16549TIP3    H271139   4.715   2.887   5.359
16550TIP3   OH271140   2.497   2.637   3.623
16550TIP3    H171141   2.568   2.581   3.657
16550TIP3    H271142   2.537   2.723   3.614
16551TIP3   OH271143   2.531   3.734  11.738
16551TIP3    H171144   2.595   3.704  11.803
16551TIP3    H271145   2.524   3.828  11.753
16552TIP3   OH271146   0.257   3.144  13.123
16552TIP3    H171147   0.293   3.102  13.045
16552TIP3    H271148   0.330   3.193  13.160
16553TIP3   OH271149   4.123   2.032  13.829
16553TIP3    H171150   4.188   2.010  13.763
16553TIP3    H271151   4.046   1.979  13.807
16554TIP3   OH271152   2.121   1.385  14.332
16554TIP3    H171153   2.213   1.390  14.308
16554TIP3    H271154   2.112   1.445  14.406
16555TIP3   OH271155   6.139   4.541  15.177
16555TIP3    H171156   6.219   4.496  15.203
16555TIP3    H271157   6.107   4.491  15.102
16556TIP3   OH271158   1.755   5.934   6.743
16556TIP3    H171159   1.757   5.957   6.836
16556TIP3    H271160   1.846   5.936   6.716
16557TIP3   OH271161   4.339   0.277  15.770
16557TIP3    H171162   4.248   0.251  15.755
16557TIP3    H271163   4.364   0.230  15.849
16558TIP3   OH271164   3.452   5.920  11.865
16558TIP3    H171165   3.498   5.836  11.863
16558TIP3    H271166   3.375   5.904  11.920
16559TIP3   OH271167   5.641   3.401  16.870
16559TIP3    H171168   5.720   3.400  16.817
16559TIP3    H271169   5.656   3.335  16.938
16560TIP3   OH271170   3.932   4.663  12.551
16560TIP3    H171171   3.996   4.685  12.618
16560TIP3    H271172   3.965   4.705  12.471
16561TIP3   OH271173   0.632   6.067  16.275
16561TIP3    H171174   0.545   6.105  16.274
16561TIP3    H271175   0.624   5.987  16.224
16562TIP3   OH271176   0.476   2.257   5.842
16562TIP3    H171177   0.471   2.351   5.861
16562TIP3    H271178   0.554   2.227   5.888
16563TIP3   OH271179   2.429   5.054  11.341
16563TIP3    H171180   2.457   4.964  11.323
16563TIP3    H271181   2.494   5.086  11.404
16564TIP3   OH271182   1.398   4.245  14.562
16564TIP3    H171183   1.308   4.224  14.587
16564TIP3    H271184   1.405   4.340  14.574
16565TIP3   OH271185   0.735   4.208   3.904
16565TIP3    H171186   0.796   4.280   3.910
16565TIP3    H271187   0.755   4.153   3.980
16566TIP3   OH271188   2.136   2.793   2.975
16566TIP3    H171189   2.079   2.864   3.002
16566TIP3    H271190   2.207   2.837   2.927
16567TIP3   OH271191   2.382   2.143  16.614
16567TIP3    H171192   2.412   2.053  16.599
16567TIP3    H271193   2.288   2.135  16.629
16568TIP3   OH271194   3.897   0.666  14.506
16568TIP3    H171195   3.894   0.584  14.555
16568TIP3    H271196   3.944   0.727  14.563
16569TIP3   OH271197   6.414   2.948   5.090
16569TIP3    H171198   6.444   3.008   5.022
16569TIP3    H271199   6.322   2.931   5.067
16570TIP3   OH271200   6.109   5.664  16.885
16570TIP3    H171201   6.191   5.712  16.896
16570TIP3    H271202   6.126   5.603  16.813
16571TIP3   OH271203   4.002   0.446  12.025
16571TIP3    H171204   4.057   0.509  12.072
16571TIP3    H271205   3.920   0.445  12.074
16572TIP3   OH271206   3.600   4.305   1.261
16572TIP3    H171207   3.615   4.212   1.278
16572TIP3    H271208   3.610   4.314   1.166
16573TIP3   OH271209   4.641   6.405  12.208
16573TIP3    H171210   4.634   6.476  12.144
16573TIP3    H271211   4.735   6.391  12.217
16574TIP3   OH271212   6.687   2.256   5.630
16574TIP3    H171213   6.751   2.267   5.560
16574TIP3    H271214   6.614   2.209   5.590
16575TIP3   OH271215   0.631   6.023  16.726
16575TIP3    H171216   0.694   6.023  16.798
16575TIP3    H271217   0.568   5.954  16.749
16576TIP3   OH271218   4.664   6.096  15.967
16576TIP3    H171219   4.661   6.007  15.931
16576TIP3    H271220   4.585   6.138  15.933
16577TIP3   OH271221   5.132   1.085  13.249
16577TIP3    H171222   5.122   1.094  13.154
16577TIP3    H271223   5.226   1.074  13.262
16578TIP3   OH271224   1.960   0.224   6.237
16578TIP3    H171225   1.937   0.316   6.221
16578TIP3    H271226   1.971   0.218   6.332
16579TIP3   OH271227   2.705   5.301   1.338
16579TIP3    H171228   2.682   5.387   1.302
16579TIP3    H271229   2.798   5.290   1.316
16580TIP3   OH271230   6.375   4.573   3.969
16580TIP3    H171231   6.378   4.481   3.992
16580TIP3    H271232   6.328   4.576   3.885
16581TIP3   OH271233   0.034   2.314  17.069
16581TIP3    H171234  -0.009   2.400  17.069
16581TIP3    H271235   0.117   2.330  17.025
16582TIP3   OH271236   3.537   5.616  11.849
16582TIP3    H171237   3.578   5.532  11.869
16582TIP3    H271238   3.445   5.595  11.835
16583TIP3   OH271239   1.227   2.602  15.491
16583TIP3    H171240   1.246   2.601  15.397
16583TIP3    H271241   1.146   2.552  15.499
16584TIP3   OH271242   6.046   2.860   1.292
16584TIP3    H171243   6.032   2.951   1.317
16584TIP3    H271244   6.141   2.847   1.298
16585TIP3   OH271245   4.654   0.641   4.811
16585TIP3    H171246   4.613   0.690   4.882
16585TIP3    H271247   4.588   0.579   4.783
16586TIP3   OH271248   5.258   4.975  15.900
16586TIP3    H171249   5.287   5.036  15.833
16586TIP3    H271250   5.209   4.907  15.853
16587TIP3   OH271251   3.388   4.205  11.359
16587TIP3    H171252   3.452   4.203  11.430
16587TIP3    H271253   3.307   4.234  11.401
16588TIP3   OH271254   6.146   5.727  12.564
16588TIP3    H171255   6.174   5.818  12.580
16588TIP3    H271256   6.220   5.674  12.593
16589TIP3   OH271257   5.267   3.974   3.813
16589TIP3    H171258   5.262   4.011   3.902
16589TIP3    H271259   5.176   3.950   3.793
16590TIP3   OH271260   0.199   4.100  15.858
16590TIP3    H171261   0.207   4.031  15.792
16590TIP3    H271262   0.174   4.053  15.938
16591TIP3   OH271263   0.471   2.651   1.532
16591TIP3    H171264   0.477   2.565   1.573
16591TIP3    H271265   0.418   2.636   1.454
16592TIP3   OH271266   3.161   2.461  15.371
16592TIP3    H171267   3.142   2.545  15.410
16592TIP3    H271268   3.242   2.475  15.322
16593TIP3   OH271269   1.120   1.999  15.240
16593TIP3    H171270   1.150   1.995  15.149
16593TIP3    H271271   1.046   1.939  15.243
16594TIP3   OH271272   1.151   3.116  14.143
16594TIP3    H171273   1.242   3.099  14.167
16594TIP3    H271274   1.154   3.201  14.098
16595TIP3   OH271275   6.049   0.140   1.527
16595TIP3    H171276   6.002   0.153   1.609
16595TIP3    H271277   6.115   0.073   1.548
16596TIP3   OH271278   0.895   1.086  15.855
16596TIP3    H171279   0.946   1.141  15.796
16596TIP3    H271280   0.918   0.996  15.833
16597TIP3   OH271281   4.694   3.248  11.895
16597TIP3    H171282   4.621   3.253  11.833
16597TIP3    H271283   4.654   3.216  11.976
16598TIP3   OH271284   4.742   5.945  11.386
16598TIP3    H171285   4.771   5.951  11.477
16598TIP3    H271286   4.823   5.936  11.336
16599TIP3   OH271287   5.666   4.282  15.675
16599TIP3    H171288   5.687   4.188  15.675
16599TIP3    H271289   5.616   4.295  15.595
16600TIP3   OH271290   4.742   1.300   4.957
16600TIP3    H171291   4.675   1.321   5.023
16600TIP3    H271292   4.693   1.285   4.877
16601TIP3   OH271293   4.241   6.158  15.421
16601TIP3    H171294   4.217   6.182  15.510
16601TIP3    H271295   4.164   6.114  15.386
16602TIP3   OH271296   3.127   0.981  14.928
16602TIP3    H171297   3.037   0.984  14.896
16602TIP3    H271298   3.164   0.902  14.890
16603TIP3   OH271299   3.157   2.351  12.272
16603TIP3    H171300   3.206   2.269  12.276
16603TIP3    H271301   3.218   2.417  12.305
16604TIP3   OH271302   3.486   2.235   2.710
16604TIP3    H171303   3.526   2.149   2.698
16604TIP3    H271304   3.559   2.294   2.724
16605TIP3   OH271305   6.790   3.301  15.316
16605TIP3    H171306   6.768   3.354  15.239
16605TIP3    H271307   6.707   3.264  15.344
16606TIP3   OH271308   2.535   4.332  17.242
16606TIP3    H171309   2.568   4.302  17.327
16606TIP3    H271310   2.581   4.414  17.225
16607TIP3   OH271311   5.979   3.064  13.349
16607TIP3    H171312   6.027   2.985  13.323
16607TIP3    H271313   6.025   3.136  13.307
16608TIP3   OH271314   0.342   2.296   5.082
16608TIP3    H171315   0.432   2.328   5.080
16608TIP3    H271316   0.348   2.205   5.056
16609TIP3   OH271317   3.273   1.293   0.733
16609TIP3    H171318   3.320   1.376   0.724
16609TIP3    H271319   3.228   1.299   0.817
16610TIP3   OH271320   6.137   0.282   2.910
16610TIP3    H171321   6.072   0.284   2.980
16610TIP3    H271322   6.151   0.189   2.892
16611TIP3   OH271323   1.838   2.337   0.740
16611TIP3    H171324   1.851   2.426   0.774
16611TIP3    H271325   1.823   2.284   0.818
16612TIP3   OH271326   0.649   2.893  14.421
16612TIP3    H171327   0.564   2.920  14.456
16612TIP3    H271328   0.713   2.945  14.471
16613TIP3   OH271329   0.198   1.290  12.153
16613TIP3    H171330   0.125   1.312  12.210
16613TIP3    H271331   0.250   1.370  12.146
16614TIP3   OH271332   2.140   0.078  12.212
16614TIP3    H171333   2.058   0.106  12.252
16614TIP3    H271334   2.164   0.149  12.153
16615TIP3   OH271335   1.789   0.339  17.148
16615TIP3    H171336   1.755   0.250  17.156
16615TIP3    H271337   1.742   0.388  17.216
16616TIP3   OH271338   3.337   1.520  12.871
16616TIP3    H171339   3.295   1.556  12.793
16616TIP3    H271340   3.265   1.502  12.931
16617TIP3   OH271341   3.435   6.764   3.993
16617TIP3    H171342   3.345   6.737   3.976
16617TIP3    H271343   3.488   6.710   3.934
16618TIP3   OH271344   0.005   4.968   1.159
16618TIP3    H171345  -0.069   5.027   1.142
16618TIP3    H271346  -0.035   4.883   1.175
16619TIP3   OH271347   3.383   3.521   3.630
16619TIP3    H171348   3.422   3.475   3.704
16619TIP3    H271349   3.290   3.498   3.634
16620TIP3   OH271350   2.826   6.374  17.220
16620TIP3    H171351   2.897   6.335  17.169
16620TIP3    H271352   2.830   6.468  17.198
16621TIP3   OH271353   6.300   6.124   3.681
16621TIP3    H171354   6.358   6.121   3.756
16621TIP3    H271355   6.358   6.127   3.605
16622TIP3   OH271356   5.265   5.031  15.320
16622TIP3    H171357   5.265   5.125  15.338
16622TIP3    H271358   5.176   5.003  15.341
16623TIP3   OH271359   6.092   3.978  17.140
16623TIP3    H171360   6.073   4.054  17.085
16623TIP3    H271361   6.041   3.992  17.219
16624TIP3   OH271362   1.726   3.577   4.422
16624TIP3    H171363   1.745   3.526   4.343
16624TIP3    H271364   1.739   3.515   4.494
16625TIP3   OH271365   4.152   3.330  10.662
16625TIP3    H171366   4.119   3.341  10.573
16625TIP3    H271367   4.086   3.372  10.718
16626TIP3   OH271368   1.078   5.441   1.161
16626TIP3    H171369   1.003   5.396   1.120
16626TIP3    H271370   1.136   5.461   1.088
16627TIP3   OH271371   6.123   6.148   1.248
16627TIP3    H171372   6.073   6.121   1.325
16627TIP3    H271373   6.056   6.175   1.184
16628TIP3   OH271374   1.433   5.427   6.055
16628TIP3    H171375   1.365   5.434   5.988
16628TIP3    H271376   1.387   5.441   6.137
16629TIP3   OH271377   3.534   6.201   4.757
16629TIP3    H171378   3.562   6.174   4.669
16629TIP3    H271379   3.608   6.253   4.790
16630TIP3   OH271380   3.934   5.750  11.696
16630TIP3    H171381   4.004   5.714  11.751
16630TIP3    H271382   3.915   5.836  11.734
16631TIP3   OH271383   2.410   5.871  11.193
16631TIP3    H171384   2.481   5.809  11.175
16631TIP3    H271385   2.444   5.927  11.262
16632TIP3   OH271386   2.510   6.555  16.720
16632TIP3    H171387   2.578   6.569  16.786
16632TIP3    H271388   2.548   6.492  16.659
16633TIP3   OH271389   2.724   5.922  15.775
16633TIP3    H171390   2.633   5.947  15.760
16633TIP3    H271391   2.763   5.921  15.687
16634TIP3   OH271392   4.268   2.542  13.466
16634TIP3    H171393   4.177   2.514  13.481
16634TIP3    H271394   4.267   2.585  13.381
16635TIP3   OH271395   4.559   3.700   4.521
16635TIP3    H171396   4.586   3.708   4.430
16635TIP3    H271397   4.494   3.630   4.521
16636TIP3   OH271398   5.892   1.555  16.618
16636TIP3    H171399   5.865   1.646  16.607
16636TIP3    H271400   5.979   1.561  16.659
16637TIP3   OH271401   1.851   0.810   2.618
16637TIP3    H171402   1.818   0.844   2.535
16637TIP3    H271403   1.858   0.887   2.674
16638TIP3   OH271404   0.518   5.717  13.503
16638TIP3    H171405   0.555   5.724  13.416
16638TIP3    H271406   0.429   5.684  13.489
16639TIP3   OH271407   4.626   3.521   0.217
16639TIP3    H171408   4.676   3.439   0.224
16639TIP3    H271409   4.541   3.494   0.183
16640TIP3   OH271410   0.638   6.198   3.327
16640TIP3    H171411   0.603   6.109   3.333
16640TIP3    H271412   0.624   6.223   3.235
16641TIP3   OH271413   0.839   6.265  16.311
16641TIP3    H171414   0.790   6.329  16.364
16641TIP3    H271415   0.777   6.193  16.299
16642TIP3   OH271416   0.392   2.820  14.936
16642TIP3    H171417   0.384   2.862  14.850
16642TIP3    H271418   0.425   2.732  14.916
16643TIP3   OH271419   5.343   1.087  13.063
16643TIP3    H171420   5.351   1.090  12.968
16643TIP3    H271421   5.339   1.179  13.090
16644TIP3   OH271422   5.533   5.113  14.255
16644TIP3    H171423   5.601   5.059  14.215
16644TIP3    H271424   5.465   5.051  14.281
16645TIP3   OH271425   1.634   4.732  11.717
16645TIP3    H171426   1.666   4.642  11.720
16645TIP3    H271427   1.692   4.777  11.656
16646TIP3   OH271428   3.841   4.585  11.887
16646TIP3    H171429   3.822   4.640  11.963
16646TIP3    H271430   3.758   4.581  11.839
16647TIP3   OH271431   0.605   5.551  16.938
16647TIP3    H171432   0.515   5.560  16.968
16647TIP3    H271433   0.600   5.490  16.864
16648TIP3   OH271434   5.711   1.646  15.215
16648TIP3    H171435   5.754   1.616  15.135
16648TIP3    H271436   5.690   1.738  15.199
16649TIP3   OH271437   6.084   3.010   2.987
16649TIP3    H171438   6.050   2.979   2.903
16649TIP3    H271439   6.133   3.089   2.966
16650TIP3   OH271440   0.494   3.469   0.135
16650TIP3    H171441   0.443   3.517   0.200
16650TIP3    H271442   0.446   3.387   0.123
16651TIP3   OH271443   1.104   5.215  15.688
16651TIP3    H171444   1.186   5.219  15.737
16651TIP3    H271445   1.126   5.251  15.601
16652TIP3   OH271446   1.797   4.762   3.761
16652TIP3    H171447   1.829   4.740   3.849
16652TIP3    H271448   1.766   4.679   3.726
16653TIP3   OH271449   5.503   4.765  14.131
16653TIP3    H171450   5.582   4.818  14.119
16653TIP3    H271451   5.535   4.675  14.130
16654TIP3   OH271452   1.534   0.511   3.020
16654TIP3    H171453   1.442   0.519   2.994
16654TIP3    H271454   1.558   0.422   2.996
16655TIP3   OH271455   5.372   0.942   1.229
16655TIP3    H171456   5.354   0.865   1.282
16655TIP3    H271457   5.320   0.929   1.149
16656TIP3   OH271458   6.498   0.598   4.270
16656TIP3    H171459   6.587   0.572   4.245
16656TIP3    H271460   6.449   0.596   4.188
16657TIP3   OH271461   1.401   0.825  16.632
16657TIP3    H171462   1.483   0.806  16.677
16657TIP3    H271463   1.415   0.912  16.593
16658TIP3   OH271464   0.969   2.603   4.479
16658TIP3    H171465   1.031   2.641   4.417
16658TIP3    H271466   0.982   2.652   4.560
16659TIP3   OH271467   5.577   1.369   4.073
16659TIP3    H171468   5.657   1.391   4.121
16659TIP3    H271469   5.507   1.412   4.123
16660TIP3   OH271470   2.975   2.302   3.137
16660TIP3    H171471   2.884   2.289   3.163
16660TIP3    H271472   2.981   2.260   3.051
16661TIP3   OH271473   5.511   0.944   3.105
16661TIP3    H171474   5.544   0.977   3.021
16661TIP3    H271475   5.568   0.871   3.126
16662TIP3   OH271476   1.374   2.822  12.832
16662TIP3    H171477   1.377   2.784  12.920
16662TIP3    H271478   1.316   2.762  12.784
16663TIP3   OH271479   5.153   6.207  16.213
16663TIP3    H171480   5.237   6.227  16.171
16663TIP3    H271481   5.088   6.249  16.157
16664TIP3   OH271482   5.060   0.057  11.959
16664TIP3    H171483   5.051   0.103  12.042
16664TIP3    H271484   5.154   0.061  11.940
16665TIP3   OH271485   6.637   2.747   6.402
16665TIP3    H171486   6.570   2.690   6.365
16665TIP3    H271487   6.606   2.767   6.490
16666TIP3   OH271488   0.048   2.146   3.071
16666TIP3    H171489   0.016   2.184   2.989
16666TIP3    H271490  -0.029   2.147   3.130
16667TIP3   OH271491   6.230   0.641  14.113
16667TIP3    H171492   6.175   0.564  14.127
16667TIP3    H271493   6.228   0.655  14.018
16668TIP3   OH271494   0.643   1.488  13.122
16668TIP3    H171495   0.596   1.447  13.195
16668TIP3    H271496   0.734   1.460  13.133
16669TIP3   OH271497   1.843   3.517   2.340
16669TIP3    H171498   1.772   3.457   2.321
16669TIP3    H271499   1.888   3.530   2.256
16670TIP3   OH271500   4.013   3.686   0.948
16670TIP3    H171501   4.001   3.736   1.029
16670TIP3    H271502   3.924   3.672   0.915
16671TIP3   OH271503   4.592   3.770  10.530
16671TIP3    H171504   4.687   3.785  10.529
16671TIP3    H271505   4.574   3.740  10.619
16672TIP3   OH271506   5.421   5.637   3.460
16672TIP3    H171507   5.435   5.644   3.554
16672TIP3    H271508   5.438   5.724   3.426
16673TIP3   OH271509   1.519   6.030   0.535
16673TIP3    H171510   1.520   6.110   0.483
16673TIP3    H271511   1.599   5.983   0.509
16674TIP3   OH271512   3.463   1.382  17.125
16674TIP3    H171513   3.550   1.402  17.159
16674TIP3    H271514   3.474   1.299  17.078
16675TIP3   OH271515   1.095   1.651  13.941
16675TIP3    H171516   1.085   1.588  13.869
16675TIP3    H271517   1.127   1.598  14.014
16676TIP3   OH271518   4.073   5.843   4.728
16676TIP3    H171519   4.168   5.839   4.735
16676TIP3    H271520   4.043   5.863   4.817
16677TIP3   OH271521   3.698   0.915   3.721
16677TIP3    H171522   3.640   0.911   3.645
16677TIP3    H271523   3.739   1.001   3.714
16678TIP3   OH271524   3.304   0.080  10.917
16678TIP3    H171525   3.218   0.121  10.926
16678TIP3    H271526   3.285  -0.011  10.894
16679TIP3   OH271527   6.788   2.015   4.716
16679TIP3    H171528   6.730   2.042   4.787
16679TIP3    H271529   6.827   2.097   4.685
16680TIP3   OH271530   1.740   1.858   4.590
16680TIP3    H171531   1.755   1.950   4.609
16680TIP3    H271532   1.822   1.815   4.615
16681TIP3   OH271533   4.991   3.509   3.859
16681TIP3    H171534   4.909   3.485   3.816
16681TIP3    H271535   5.037   3.427   3.871
16682TIP3   OH271536   1.994   2.332   1.310
16682TIP3    H171537   2.025   2.372   1.391
16682TIP3    H271538   1.915   2.382   1.287
16683TIP3   OH271539   0.833   4.608  14.307
16683TIP3    H171540   0.908   4.667  14.313
16683TIP3    H271541   0.786   4.638  14.229
16684TIP3   OH271542   2.056   3.300   6.227
16684TIP3    H171543   2.129   3.263   6.179
16684TIP3    H271544   2.082   3.294   6.319
16685TIP3   OH271545   0.645   3.514   6.186
16685TIP3    H171546   0.580   3.454   6.223
16685TIP3    H271547   0.729   3.481   6.218
16686TIP3   OH271548   6.755   4.287   2.625
16686TIP3    H171549   6.831   4.239   2.591
16686TIP3    H271550   6.685   4.221   2.629
16687TIP3   OH271551   6.560   0.106  17.284
16687TIP3    H171552   6.577   0.126  17.376
16687TIP3    H271553   6.559   0.010  17.280
16688TIP3   OH271554   3.288   2.172  13.373
16688TIP3    H171555   3.307   2.263  13.396
16688TIP3    H271556   3.192   2.167  13.376
16689TIP3   OH271557   0.073   4.382  13.482
16689TIP3    H171558   0.028   4.344  13.406
16689TIP3    H271559   0.008   4.380  13.552
16690TIP3   OH271560   6.222   4.733   0.258
16690TIP3    H171561   6.138   4.777   0.268
16690TIP3    H271562   6.286   4.794   0.295
16691TIP3   OH271563   3.374   2.343  10.369
16691TIP3    H171564   3.423   2.420  10.341
16691TIP3    H271565   3.284   2.361  10.341
16692TIP3   OH271566   4.046   1.966   4.414
16692TIP3    H171567   3.977   2.026   4.384
16692TIP3    H271568   4.041   1.892   4.354
16693TIP3   OH271569   2.248   2.017   3.940
16693TIP3    H171570   2.334   1.974   3.939
16693TIP3    H271571   2.268   2.110   3.952
16694TIP3   OH271572   6.492   4.919   2.477
16694TIP3    H171573   6.471   4.898   2.568
16694TIP3    H271574   6.484   4.836   2.431
16695TIP3   OH271575   2.201   2.162  15.698
16695TIP3    H171576   2.268   2.105  15.738
16695TIP3    H271577   2.233   2.178  15.610
16696TIP3   OH271578   3.197   6.745  12.215
16696TIP3    H171579   3.221   6.789  12.297
16696TIP3    H271580   3.177   6.655  12.242
16697TIP3   OH271581   5.261   6.101   4.614
16697TIP3    H171582   5.180   6.059   4.644
16697TIP3    H271583   5.325   6.082   4.682
16698TIP3   OH271584   2.569   1.461  15.561
16698TIP3    H171585   2.486   1.494  15.596
16698TIP3    H271586   2.560   1.366  15.564
16699TIP3   OH271587   3.672   5.083   6.422
16699TIP3    H171588   3.661   5.087   6.517
16699TIP3    H271589   3.624   5.004   6.396
16700TIP3   OH271590   2.535   2.570  13.430
16700TIP3    H171591   2.454   2.619  13.420
16700TIP3    H271592   2.581   2.581  13.347
16701TIP3   OH271593   6.727   0.797  14.821
16701TIP3    H171594   6.723   0.892  14.831
16701TIP3    H271595   6.820   0.778  14.811
16702TIP3   OH271596   0.945   1.848  17.130
16702TIP3    H171597   0.898   1.786  17.186
16702TIP3    H271598   1.030   1.806  17.114
16703TIP3   OH271599   0.249   1.262   3.589
16703TIP3    H171600   0.332   1.267   3.636
16703TIP3    H271601   0.261   1.192   3.525
16704TIP3   OH271602   0.277   4.081  16.806
16704TIP3    H171603   0.248   4.014  16.744
16704TIP3    H271604   0.231   4.059  16.887
16705TIP3   OH271605   1.824   3.846   4.414
16705TIP3    H171606   1.775   3.819   4.337
16705TIP3    H271607   1.879   3.771   4.435
16706TIP3   OH271608   6.472   3.033  14.477
16706TIP3    H171609   6.479   3.129  14.475
16706TIP3    H271610   6.517   3.008  14.558
16707TIP3   OH271611   0.418   2.824  11.354
16707TIP3    H171612   0.502   2.816  11.308
16707TIP3    H271613   0.437   2.880  11.429
16708TIP3   OH271614   1.167   0.806   1.490
16708TIP3    H171615   1.108   0.814   1.414
16708TIP3    H271616   1.122   0.746   1.549
16709TIP3   OH271617   2.288   5.847   1.607
16709TIP3    H171618   2.219   5.913   1.614
16709TIP3    H271619   2.366   5.890   1.642
16710TIP3   OH271620   2.207   6.502   5.114
16710TIP3    H171621   2.206   6.503   5.018
16710TIP3    H271622   2.122   6.467   5.138
16711TIP3   OH271623   2.075   1.185   3.625
16711TIP3    H171624   2.167   1.199   3.646
16711TIP3    H271625   2.040   1.272   3.608
16712TIP3   OH271626   2.157   1.377   4.668
16712TIP3    H171627   2.125   1.456   4.623
16712TIP3    H271628   2.120   1.305   4.617
16713TIP3   OH271629   2.935   1.140  15.156
16713TIP3    H171630   3.024   1.105  15.156
16713TIP3    H271631   2.946   1.235  15.150
16714TIP3   OH271632   3.463   1.761  15.393
16714TIP3    H171633   3.404   1.784  15.465
16714TIP3    H271634   3.539   1.818  15.405
16715TIP3   OH271635   3.305   2.171   5.398
16715TIP3    H171636   3.263   2.107   5.456
16715TIP3    H271637   3.274   2.148   5.310
16716TIP3   OH271638   4.992   4.292  16.137
16716TIP3    H171639   5.073   4.267  16.092
16716TIP3    H271640   4.923   4.249  16.086
16717TIP3   OH271641   3.615   3.787  17.084
16717TIP3    H171642   3.552   3.806  17.153
16717TIP3    H271643   3.690   3.749  17.130
16718TIP3   OH271644   5.735   1.794  13.869
16718TIP3    H171645   5.712   1.815  13.779
16718TIP3    H271646   5.705   1.704  13.882
16719TIP3   OH271647   1.885   1.410   1.283
16719TIP3    H171648   1.901   1.320   1.309
16719TIP3    H271649   1.965   1.457   1.304
16720TIP3   OH271650   5.113   4.331  13.479
16720TIP3    H171651   5.198   4.289  13.495
16720TIP3    H271652   5.079   4.288  13.401
16721TIP3   OH271653   0.000   6.236   1.172
16721TIP3    H171654   0.036   6.223   1.084
16721TIP3    H271655   0.027   6.325   1.195
16722TIP3   OH271656   4.462   3.623   0.844
16722TIP3    H171657   4.396   3.592   0.782
16722TIP3    H271658   4.417   3.624   0.928
16723TIP3   OH271659   0.221   6.086  14.904
16723TIP3    H171660   0.176   6.130  14.977
16723TIP3    H271661   0.298   6.141  14.887
16724TIP3   OH271662   2.698   5.967   0.411
16724TIP3    H171663   2.624   6.027   0.402
16724TIP3    H271664   2.684   5.902   0.341
16725TIP3   OH271665   0.575   6.706  11.645
16725TIP3    H171666   0.527   6.634  11.605
16725TIP3    H271667   0.650   6.720  11.586
16726TIP3   OH271668   3.794   0.028  12.866
16726TIP3    H171669   3.875  -0.008  12.902
16726TIP3    H271670   3.726   0.001  12.928
16727TIP3   OH271671   1.004   5.059  15.167
16727TIP3    H171672   0.960   4.986  15.211
16727TIP3    H271673   0.943   5.132  15.175
16728TIP3   OH271674   3.542   1.439   3.745
16728TIP3    H171675   3.542   1.519   3.692
16728TIP3    H271676   3.515   1.468   3.832
16729TIP3   OH271677   2.892   6.465   0.415
16729TIP3    H171678   2.934   6.379   0.411
16729TIP3    H271679   2.814   6.456   0.360
16730TIP3   OH271680   5.193   1.189   0.241
16730TIP3    H171681   5.150   1.274   0.247
16730TIP3    H271682   5.205   1.175   0.147
16731TIP3   OH271683   0.965   2.604   0.792
16731TIP3    H171684   0.959   2.569   0.881
16731TIP3    H271685   0.892   2.666   0.786
16732TIP3   OH271686   0.116   4.696  12.951
16732TIP3    H171687   0.142   4.780  12.914
16732TIP3    H271688   0.109   4.638  12.875
16733TIP3   OH271689   4.148   3.686  14.362
16733TIP3    H171690   4.192   3.601  14.365
16733TIP3    H271691   4.105   3.693  14.448
16734TIP3   OH271692   4.040   6.110   0.289
16734TIP3    H171693   3.999   6.186   0.329
16734TIP3    H271694   4.125   6.142   0.259
16735TIP3   OH271695   2.609   4.541  10.985
16735TIP3    H171696   2.561   4.474  11.034
16735TIP3    H271697   2.572   4.624  11.015
16736TIP3   OH271698   3.731   3.752   0.897
16736TIP3    H171699   3.642   3.780   0.877
16736TIP3    H271700   3.786   3.823   0.863
16737TIP3   OH271701   2.429   1.473  14.013
16737TIP3    H171702   2.510   1.481  13.963
16737TIP3    H271703   2.365   1.527  13.966
16738TIP3   OH271704   3.230   0.777  14.804
16738TIP3    H171705   3.322   0.791  14.785
16738TIP3    H271706   3.186   0.789  14.720
16739TIP3   OH271707   5.564   6.287   3.520
16739TIP3    H171708   5.519   6.366   3.549
16739TIP3    H271709   5.584   6.239   3.601
16740TIP3   OH271710   4.240   6.467   5.540
16740TIP3    H171711   4.302   6.408   5.582
16740TIP3    H271712   4.238   6.544   5.598
16741TIP3   OH271713   1.881   2.829   2.419
16741TIP3    H171714   1.838   2.907   2.384
16741TIP3    H271715   1.967   2.860   2.447
16742TIP3   OH271716   5.437   4.523  15.800
16742TIP3    H171717   5.452   4.614  15.775
16742TIP3    H271718   5.465   4.472  15.724
16743TIP3   OH271719   3.686   3.542  12.275
16743TIP3    H171720   3.610   3.554  12.333
16743TIP3    H271721   3.756   3.516  12.334
16744TIP3   OH271722   5.945   2.965  10.724
16744TIP3    H171723   5.868   2.908  10.721
16744TIP3    H271724   6.010   2.915  10.773
16745TIP3   OH271725   6.706   1.084  15.702
16745TIP3    H171726   6.622   1.082  15.748
16745TIP3    H271727   6.704   1.165  15.652
16746TIP3   OH271728   2.362   0.192   0.342
16746TIP3    H171729   2.413   0.113   0.359
16746TIP3    H271730   2.384   0.216   0.252
16747TIP3   OH271731   5.427   2.139  12.481
16747TIP3    H171732   5.478   2.148  12.400
16747TIP3    H271733   5.339   2.168  12.457
16748TIP3   OH271734   0.894   0.440  11.498
16748TIP3    H171735   0.876   0.348  11.517
16748TIP3    H271736   0.984   0.454  11.528
16749TIP3   OH271737   4.863   3.644  14.968
16749TIP3    H171738   4.840   3.551  14.961
16749TIP3    H271739   4.785   3.690  14.939
16750TIP3   OH271740   1.821   1.290   2.811
16750TIP3    H171741   1.830   1.353   2.739
16750TIP3    H271742   1.730   1.300   2.840
16751TIP3   OH271743   0.984   4.557   6.093
16751TIP3    H171744   1.075   4.528   6.098
16751TIP3    H271745   0.960   4.577   6.184
16752TIP3   OH271746   1.712   0.688  14.080
16752TIP3    H171747   1.768   0.720  14.151
16752TIP3    H271748   1.697   0.765  14.025
16753TIP3   OH271749   0.634   2.729  13.617
16753TIP3    H171750   0.724   2.709  13.591
16753TIP3    H271751   0.613   2.665  13.685
16754TIP3   OH271752   2.413   3.572  14.557
16754TIP3    H171753   2.492   3.585  14.610
16754TIP3    H271754   2.384   3.660  14.534
16755TIP3   OH271755   4.764   2.956  10.657
16755TIP3    H171756   4.747   2.868  10.692
16755TIP3    H271757   4.752   3.014  10.732
16756TIP3   OH271758   5.639   6.663   1.469
16756TIP3    H171759   5.719   6.627   1.508
16756TIP3    H271760   5.665   6.686   1.380
16757TIP3   OH271761   5.264   3.558  15.374
16757TIP3    H171762   5.305   3.631  15.328
16757TIP3    H271763   5.321   3.483  15.356
16758TIP3   OH271764   0.339   6.300   6.074
16758TIP3    H171765   0.275   6.230   6.061
16758TIP3    H271766   0.416   6.257   6.110
16759TIP3   OH271767   4.815   0.728   6.439
16759TIP3    H171768   4.877   0.687   6.499
16759TIP3    H271769   4.862   0.802   6.402
16760TIP3   OH271770   1.988   5.893   2.814
16760TIP3    H171771   1.976   5.933   2.728
16760TIP3    H271772   1.900   5.866   2.840
16761TIP3   OH271773   3.130   6.067  13.526
16761TIP3    H171774   3.106   6.156  13.552
16761TIP3    H271775   3.136   6.071  13.430
16762TIP3   OH271776   2.525   1.976  13.525
16762TIP3    H171777   2.483   2.057  13.555
16762TIP3    H271778   2.523   1.983  13.429
16763TIP3   OH271779   6.794   2.228   1.141
16763TIP3    H171780   6.797   2.184   1.226
16763TIP3    H271781   6.719   2.189   1.096
16764TIP3   OH271782   2.887   4.069   4.796
16764TIP3    H171783   2.947   4.003   4.761
16764TIP3    H271784   2.896   4.144   4.737
16765TIP3   OH271785   3.749   0.301  15.480
16765TIP3    H171786   3.817   0.330  15.419
16765TIP3    H271787   3.786   0.223  15.521
16766TIP3   OH271788   2.875   2.943  15.125
16766TIP3    H171789   2.789   2.978  15.149
16766TIP3    H271790   2.919   2.929  15.209
16767TIP3   OH271791   1.445   5.536  15.375
16767TIP3    H171792   1.520   5.479  15.393
16767TIP3    H271793   1.399   5.492  15.304
16768TIP3   OH271794   3.512   2.673  14.748
16768TIP3    H171795   3.439   2.700  14.693
16768TIP3    H271796   3.590   2.688  14.694
16769TIP3   OH271797   2.517   0.440  15.314
16769TIP3    H171798   2.482   0.515  15.267
16769TIP3    H271799   2.572   0.395  15.250
16770TIP3   OH271800   1.801   0.341   4.910
16770TIP3    H171801   1.804   0.362   5.003
16770TIP3    H271802   1.834   0.252   4.904
16771TIP3   OH271803   2.362   2.659  11.293
16771TIP3    H171804   2.448   2.636  11.257
16771TIP3    H271805   2.316   2.701  11.221
16772TIP3   OH271806   0.017   3.649   5.197
16772TIP3    H171807   0.036   3.634   5.105
16772TIP3    H271808   0.084   3.599   5.244
16773TIP3   OH271809   4.087   4.889   1.023
16773TIP3    H171810   4.155   4.922   1.081
16773TIP3    H271811   4.005   4.907   1.069
16774TIP3   OH271812   1.016   3.262   4.338
16774TIP3    H171813   0.948   3.288   4.400
16774TIP3    H271814   1.022   3.335   4.276
16775TIP3   OH271815   3.890   6.448  13.332
16775TIP3    H171816   3.954   6.519  13.336
16775TIP3    H271817   3.918   6.395  13.257
16776TIP3   OH271818   2.663   0.133   2.289
16776TIP3    H171819   2.670   0.076   2.365
16776TIP3    H271820   2.753   0.159   2.270
16777TIP3   OH271821   5.660   5.029   5.456
16777TIP3    H171822   5.604   5.101   5.426
16777TIP3    H271823   5.632   5.012   5.546
16778TIP3   OH271824   3.772   5.700  12.052
16778TIP3    H171825   3.718   5.690  12.131
16778TIP3    H271826   3.709   5.721  11.983
16779TIP3   OH271827   5.124   2.405   6.220
16779TIP3    H171828   5.192   2.341   6.201
16779TIP3    H271829   5.160   2.488   6.192
16780TIP3   OH271830   3.557   3.429   3.360
16780TIP3    H171831   3.602   3.357   3.405
16780TIP3    H271832   3.464   3.408   3.369
16781TIP3   OH271833   1.514   5.173   6.060
16781TIP3    H171834   1.489   5.265   6.047
16781TIP3    H271835   1.536   5.167   6.153
16782TIP3   OH271836   2.100   2.302   4.250
16782TIP3    H171837   2.074   2.246   4.322
16782TIP3    H271838   2.081   2.251   4.171
16783TIP3   OH271839   0.502   3.008   0.741
16783TIP3    H171840   0.526   2.945   0.674
16783TIP3    H271841   0.578   3.066   0.748
16784TIP3   OH271842   5.585   3.784  16.125
16784TIP3    H171843   5.661   3.769  16.070
16784TIP3    H271844   5.610   3.856  16.182
16785TIP3   OH271845   6.593   5.850   3.294
16785TIP3    H171846   6.640   5.924   3.256
16785TIP3    H271847   6.535   5.820   3.224
16786TIP3   OH271848   3.273   6.487   6.130
16786TIP3    H171849   3.360   6.513   6.160
16786TIP3    H271850   3.216   6.560   6.157
16787TIP3   OH271851   4.342   3.226   5.753
16787TIP3    H171852   4.412   3.248   5.814
16787TIP3    H271853   4.369   3.143   5.714
16788TIP3   OH271854   4.840   4.993   1.915
16788TIP3    H171855   4.790   5.062   1.960
16788TIP3    H271856   4.805   4.911   1.950
16789TIP3   OH271857   0.212   2.435   3.466
16789TIP3    H171858   0.292   2.386   3.445
16789TIP3    H271859   0.243   2.523   3.489
16790TIP3   OH271860   4.468   5.618   6.135
16790TIP3    H171861   4.498   5.624   6.226
16790TIP3    H271862   4.415   5.539   6.133
16791TIP3   OH271863   4.905   0.844  16.741
16791TIP3    H171864   4.895   0.791  16.820
16791TIP3    H271865   4.919   0.780  16.671
16792TIP3   OH271866   0.878   0.053   4.300
16792TIP3    H171867   0.955   0.069   4.355
16792TIP3    H271868   0.858   0.138   4.261
16793TIP3   OH271869   6.482   5.391  11.818
16793TIP3    H171870   6.561   5.412  11.868
16793TIP3    H271871   6.444   5.477  11.797
16794TIP3   OH271872   5.761   4.704   5.627
16794TIP3    H171873   5.694   4.765   5.659
16794TIP3    H271874   5.747   4.701   5.532
16795TIP3   OH271875   5.409   0.647   2.482
16795TIP3    H171876   5.367   0.637   2.396
16795TIP3    H271877   5.420   0.742   2.492
16796TIP3   OH271878   3.310   6.133  14.121
16796TIP3    H171879   3.362   6.123  14.041
16796TIP3    H271880   3.228   6.087  14.101
16797TIP3   OH271881   6.568   5.046   4.638
16797TIP3    H171882   6.634   4.984   4.607
16797TIP3    H271883   6.526   5.078   4.559
16798TIP3   OH271884   3.735   6.377   4.845
16798TIP3    H171885   3.799   6.350   4.912
16798TIP3    H271886   3.684   6.447   4.888
16799TIP3   OH271887   0.484   3.203  14.743
16799TIP3    H171888   0.505   3.176  14.833
16799TIP3    H271889   0.533   3.284  14.731
16800TIP3   OH271890   1.650   6.478  12.069
16800TIP3    H171891   1.730   6.500  12.022
16800TIP3    H271892   1.674   6.403  12.124
16801TIP3   OH271893   1.699   6.202  11.509
16801TIP3    H171894   1.696   6.153  11.427
16801TIP3    H271895   1.748   6.146  11.569
16802TIP3   OH271896   3.197   4.189   4.274
16802TIP3    H171897   3.246   4.204   4.354
16802TIP3    H271898   3.188   4.276   4.234
16803TIP3   OH271899   5.887   2.742  13.298
16803TIP3    H171900   5.945   2.691  13.242
16803TIP3    H271901   5.932   2.746  13.382
16804TIP3   OH271902   3.184   5.591   1.630
16804TIP3    H171903   3.225   5.641   1.701
16804TIP3    H271904   3.210   5.637   1.550
16805TIP3   OH271905   5.443   4.776   3.062
16805TIP3    H171906   5.490   4.785   3.144
16805TIP3    H271907   5.507   4.796   2.994
16806TIP3   OH271908   3.611   1.249   5.604
16806TIP3    H171909   3.699   1.225   5.576
16806TIP3    H271910   3.560   1.253   5.523
16807TIP3   OH271911   2.476   6.362   0.580
16807TIP3    H171912   2.438   6.275   0.592
16807TIP3    H271913   2.449   6.389   0.492
16808TIP3   OH271914   4.469   3.961   2.836
16808TIP3    H171915   4.558   3.987   2.811
16808TIP3    H271916   4.417   3.975   2.756
16809TIP3   OH271917   6.459   5.070   3.384
16809TIP3    H171918   6.385   5.130   3.392
16809TIP3    H271919   6.535   5.121   3.413
16810TIP3   OH271920   4.044   6.023  11.914
16810TIP3    H171921   4.126   6.046  11.871
16810TIP3    H271922   3.976   6.059  11.858
16811TIP3   OH271923   4.888   5.585  14.852
16811TIP3    H171924   4.909   5.492  14.844
16811TIP3    H271925   4.915   5.623  14.768
16812TIP3   OH271926   4.624   5.038  11.248
16812TIP3    H171927   4.678   5.088  11.309
16812TIP3    H271928   4.537   5.040  11.286
16813TIP3   OH271929   5.893   3.553   3.001
16813TIP3    H171930   5.811   3.553   3.051
16813TIP3    H271931   5.944   3.481   3.037
16814TIP3   OH271932   3.823   2.086   3.435
16814TIP3    H171933   3.756   2.141   3.394
16814TIP3    H271934   3.875   2.053   3.361
16815TIP3   OH271935   5.568   5.102   3.142
16815TIP3    H171936   5.641   5.156   3.173
16815TIP3    H271937   5.490   5.147   3.174
16816TIP3   OH271938   2.165   0.238  15.807
16816TIP3    H171939   2.180   0.162  15.863
16816TIP3    H271940   2.222   0.306  15.843
16817TIP3   OH271941   1.179   1.663  15.339
16817TIP3    H171942   1.096   1.680  15.383
16817TIP3    H271943   1.161   1.679  15.247
16818TIP3   OH271944   0.017   4.266  14.827
16818TIP3    H171945   0.021   4.354  14.790
16818TIP3    H271946  -0.008   4.210  14.755
16819TIP3   OH271947   4.201   1.057  15.412
16819TIP3    H171948   4.273   1.106  15.451
16819TIP3    H271949   4.123   1.110  15.432
16820TIP3   OH271950   2.757   4.990   2.302
16820TIP3    H171951   2.824   4.938   2.346
16820TIP3    H271952   2.790   5.001   2.212
16821TIP3   OH271953   5.062   3.748  14.598
16821TIP3    H171954   5.013   3.736  14.679
16821TIP3    H271955   5.082   3.659  14.568
16822TIP3   OH271956   5.219   6.171  16.925
16822TIP3    H171957   5.161   6.114  16.976
16822TIP3    H271958   5.216   6.255  16.970
16823TIP3   OH271959   4.073   4.586   5.824
16823TIP3    H171960   4.140   4.653   5.837
16823TIP3    H271961   4.013   4.625   5.760
16824TIP3   OH271962   2.659   2.617  14.023
16824TIP3    H171963   2.606   2.582  14.095
16824TIP3    H271964   2.720   2.678  14.065
16825TIP3   OH271965   3.594   6.586   0.382
16825TIP3    H171966   3.539   6.652   0.339
16825TIP3    H271967   3.665   6.571   0.321
16826TIP3   OH271968   3.535   3.784   1.719
16826TIP3    H171969   3.549   3.861   1.774
16826TIP3    H271970   3.526   3.712   1.781
16827TIP3   OH271971   4.164   2.073   1.659
16827TIP3    H171972   4.151   1.978   1.657
16827TIP3    H271973   4.186   2.093   1.750
16828TIP3   OH271974   3.504   6.790   4.822
16828TIP3    H171975   3.548   6.785   4.736
16828TIP3    H271976   3.566   6.751   4.883
16829TIP3   OH271977   2.423   1.858  14.561
16829TIP3    H171978   2.482   1.923  14.601
16829TIP3    H271979   2.390   1.807  14.635
16830TIP3   OH271980   3.883   1.812   2.956
16830TIP3    H171981   3.971   1.779   2.940
16830TIP3    H271982   3.878   1.893   2.904
16831TIP3   OH271983   0.490   0.801  14.616
16831TIP3    H171984   0.439   0.802  14.698
16831TIP3    H271985   0.514   0.892  14.602
16832TIP3   OH271986   6.605   3.638  10.770
16832TIP3    H171987   6.521   3.683  10.781
16832TIP3    H271988   6.661   3.702  10.727
16833TIP3   OH271989   1.433   3.830   1.873
16833TIP3    H171990   1.491   3.841   1.948
16833TIP3    H271991   1.347   3.860   1.903
16834TIP3   OH271992   0.499   0.578   5.840
16834TIP3    H171993   0.591   0.579   5.814
16834TIP3    H271994   0.500   0.545   5.930
16835TIP3   OH271995   0.463   5.584   4.033
16835TIP3    H171996   0.509   5.655   3.990
16835TIP3    H271997   0.432   5.528   3.962
16836TIP3   OH271998   0.651   3.203  12.808
16836TIP3    H171999   0.716   3.163  12.750
16836TIP3    H272000   0.700   3.264  12.862
16837TIP3   OH272001   3.613   4.835   2.689
16837TIP3    H172002   3.628   4.929   2.687
16837TIP3    H272003   3.529   4.823   2.644
16838TIP3   OH272004   4.654   1.590   0.338
16838TIP3    H172005   4.729   1.628   0.291
16838TIP3    H272006   4.671   1.496   0.339
16839TIP3   OH272007   3.937   1.448   4.898
16839TIP3    H172008   4.024   1.414   4.881
16839TIP3    H272009   3.940   1.539   4.870
16840TIP3   OH272010   0.816   4.923  11.611
16840TIP3    H172011   0.748   4.879  11.561
16840TIP3    H272012   0.863   4.976  11.546
16841TIP3   OH272013   5.707   4.035  15.368
16841TIP3    H172014   5.677   4.035  15.277
16841TIP3    H272015   5.802   4.040  15.362
16842TIP3   OH272016   2.613   3.409   0.240
16842TIP3    H172017   2.530   3.399   0.287
16842TIP3    H272018   2.587   3.425   0.150
16843TIP3   OH272019   4.180   6.169  15.027
16843TIP3    H172020   4.200   6.104  14.960
16843TIP3    H272021   4.123   6.233  14.983
16844TIP3   OH272022   2.807   6.487   4.040
16844TIP3    H172023   2.848   6.573   4.055
16844TIP3    H272024   2.816   6.442   4.124
16845TIP3   OH272025   2.661   1.457  13.101
16845TIP3    H172026   2.600   1.413  13.042
16845TIP3    H272027   2.669   1.398  13.176
16846TIP3   OH272028   0.127   1.340   3.300
16846TIP3    H172029   0.214   1.370   3.326
16846TIP3    H272030   0.141   1.255   3.259
16847TIP3   OH272031   4.877   4.580   4.325
16847TIP3    H172032   4.787   4.565   4.352
16847TIP3    H272033   4.872   4.651   4.262
16848TIP3   OH272034   2.997   1.770  11.499
16848TIP3    H172035   2.915   1.783  11.547
16848TIP3    H272036   2.970   1.758  11.408
16849TIP3   OH272037   5.718   4.659   0.934
16849TIP3    H172038   5.628   4.691   0.941
16849TIP3    H272039   5.770   4.739   0.924
16850TIP3   OH272040   1.396   3.918   5.340
16850TIP3    H172041   1.456   3.974   5.290
16850TIP3    H272042   1.405   3.949   5.430
16851TIP3   OH272043   0.693   4.802  12.659
16851TIP3    H172044   0.746   4.723  12.665
16851TIP3    H272045   0.646   4.807  12.742
16852TIP3   OH272046   2.829   4.037  15.502
16852TIP3    H172047   2.905   4.025  15.558
16852TIP3    H272048   2.850   4.112  15.448
16853TIP3   OH272049   2.628   4.925  13.277
16853TIP3    H172050   2.673   4.950  13.358
16853TIP3    H272051   2.647   4.996  13.216
16854TIP3   OH272052   0.225   1.203   1.444
16854TIP3    H172053   0.250   1.130   1.388
16854TIP3    H272054   0.215   1.165   1.531
16855TIP3   OH272055   2.829   5.753  12.563
16855TIP3    H172056   2.884   5.676  12.550
16855TIP3    H272057   2.740   5.717  12.568
16856TIP3   OH272058   1.132   2.505   0.609
16856TIP3    H172059   1.156   2.413   0.607
16856TIP3    H272060   1.080   2.515   0.689
16857TIP3   OH272061   0.146   1.863  12.088
16857TIP3    H172062   0.212   1.908  12.140
16857TIP3    H272063   0.120   1.925  12.021
16858TIP3   OH272064   3.106   5.148   1.111
16858TIP3    H172065   3.147   5.104   1.036
16858TIP3    H272066   3.072   5.230   1.075
16859TIP3   OH272067   1.179   2.251  13.141
16859TIP3    H172068   1.100   2.213  13.102
16859TIP3    H272069   1.228   2.176  13.173
16860TIP3   OH272070   2.456   4.119   0.259
16860TIP3    H172071   2.402   4.087   0.187
16860TIP3    H272072   2.495   4.040   0.296
16861TIP3   OH272073   4.945   6.695  15.765
16861TIP3    H172074   4.966   6.727  15.853
16861TIP3    H272075   4.959   6.601  15.769
16862TIP3   OH272076   4.238   2.624   4.136
16862TIP3    H172077   4.164   2.648   4.080
16862TIP3    H272078   4.287   2.560   4.084
16863TIP3   OH272079   4.860   4.179   3.552
16863TIP3    H172080   4.869   4.204   3.460
16863TIP3    H272081   4.793   4.110   3.552
16864TIP3   OH272082   1.126   5.276  12.746
16864TIP3    H172083   1.192   5.324  12.796
16864TIP3    H272084   1.156   5.185  12.746
16865TIP3   OH272085   4.988   6.157  10.984
16865TIP3    H172086   4.935   6.083  10.954
16865TIP3    H272087   4.924   6.222  11.011
16866TIP3   OH272088   1.978   1.992  14.102
16866TIP3    H172089   2.031   2.016  14.178
16866TIP3    H272090   1.948   1.903  14.119
16867TIP3   OH272091   5.111   0.783  13.982
16867TIP3    H172092   5.054   0.805  13.908
16867TIP3    H272093   5.057   0.802  14.059
16868TIP3   OH272094   6.229   0.274   3.210
16868TIP3    H172095   6.237   0.322   3.292
16868TIP3    H272096   6.185   0.335   3.151
16869TIP3   OH272097   5.672   3.379   2.169
16869TIP3    H172098   5.666   3.470   2.139
16869TIP3    H272099   5.730   3.383   2.245
16870TIP3   OH272100   4.991   1.623  16.414
16870TIP3    H172101   4.991   1.590  16.324
16870TIP3    H272102   5.061   1.575  16.457
16871TIP3   OH272103   0.218   1.777  12.441
16871TIP3    H172104   0.295   1.725  12.463
16871TIP3    H272105   0.168   1.723  12.380
16872TIP3   OH272106   2.035   3.826  12.206
16872TIP3    H172107   2.121   3.785  12.215
16872TIP3    H272108   2.050   3.919  12.227
16873TIP3   OH272109   3.855   0.359   1.441
16873TIP3    H172110   3.854   0.297   1.514
16873TIP3    H272111   3.942   0.400   1.446
16874TIP3   OH272112   0.085   2.335  11.296
16874TIP3    H172113   0.044   2.405  11.244
16874TIP3    H272114   0.117   2.272  11.230
16875TIP3   OH272115   2.702   3.557   3.655
16875TIP3    H172116   2.707   3.545   3.749
16875TIP3    H272117   2.700   3.652   3.643
16876TIP3   OH272118   5.561   1.079   2.865
16876TIP3    H172119   5.588   0.993   2.835
16876TIP3    H272120   5.478   1.095   2.821
16877TIP3   OH272121   3.598   4.475  13.131
16877TIP3    H172122   3.637   4.484  13.044
16877TIP3    H272123   3.589   4.565  13.163
16878TIP3   OH272124   3.833   5.955  12.147
16878TIP3    H172125   3.814   5.865  12.174
16878TIP3    H272126   3.870   5.946  12.059
16879TIP3   OH272127   4.649   0.377  13.381
16879TIP3    H172128   4.592   0.324  13.437
16879TIP3    H272129   4.703   0.427  13.441
16880TIP3   OH272130   0.931   3.915   1.529
16880TIP3    H172131   0.962   4.003   1.509
16880TIP3    H272132   0.972   3.859   1.463
16881TIP3   OH272133   0.444   1.416   1.098
16881TIP3    H172134   0.457   1.476   1.025
16881TIP3    H272135   0.349   1.405   1.104
16882TIP3   OH272136   1.767   5.862   6.150
16882TIP3    H172137   1.729   5.838   6.066
16882TIP3    H272138   1.855   5.894   6.128
16883TIP3   OH272139   0.867   5.656  16.919
16883TIP3    H172140   0.782   5.615  16.912
16883TIP3    H272141   0.858   5.721  16.989
16884TIP3   OH272142   6.167   5.510  15.524
16884TIP3    H172143   6.214   5.427  15.514
16884TIP3    H272144   6.136   5.530  15.436
16885TIP3   OH272145   4.596   6.689  14.609
16885TIP3    H172146   4.535   6.755  14.577
16885TIP3    H272147   4.607   6.628  14.536
16886TIP3   OH272148   0.753   3.291   5.783
16886TIP3    H172149   0.679   3.325   5.833
16886TIP3    H272150   0.727   3.202   5.758
16887TIP3   OH272151   5.085   6.597  14.153
16887TIP3    H172152   5.091   6.549  14.071
16887TIP3    H272153   5.037   6.677  14.131
16888TIP3   OH272154   0.380   4.897   6.537
16888TIP3    H172155   0.391   4.944   6.454
16888TIP3    H272156   0.304   4.938   6.577
16889TIP3   OH272157   1.475   0.986  11.905
16889TIP3    H172158   1.526   1.034  11.970
16889TIP3    H272159   1.515   0.898  11.904
16890TIP3   OH272160   5.754   0.444  13.269
16890TIP3    H172161   5.673   0.462  13.317
16890TIP3    H272162   5.732   0.463  13.178
16891TIP3   OH272163   0.494   2.464   1.151
16891TIP3    H172164   0.451   2.518   1.217
16891TIP3    H272165   0.539   2.526   1.095
16892TIP3   OH272166   0.126   0.725  11.555
16892TIP3    H172167   0.062   0.656  11.540
16892TIP3    H272168   0.202   0.699  11.504
16893TIP3   OH272169   1.274   5.822  16.889
16893TIP3    H172170   1.213   5.797  16.957
16893TIP3    H272171   1.349   5.860  16.936
16894TIP3   OH272172   6.351   6.138   5.490
16894TIP3    H172173   6.324   6.201   5.423
16894TIP3    H272174   6.274   6.083   5.504
16895TIP3   OH272175   0.340   6.373  14.642
16895TIP3    H172176   0.423   6.418  14.654
16895TIP3    H272177   0.345   6.334  14.555
16896TIP3   OH272178   5.897   4.908  11.302
16896TIP3    H172179   5.821   4.951  11.340
16896TIP3    H272180   5.870   4.886  11.213
16897TIP3   OH272181   1.098   5.019   0.189
16897TIP3    H172182   1.135   5.040   0.103
16897TIP3    H272183   1.024   4.962   0.170
16898TIP3   OH272184   2.569   4.988   5.608
16898TIP3    H172185   2.554   5.055   5.675
16898TIP3    H272186   2.657   5.006   5.575
16899TIP3   OH272187   0.845   1.094   4.472
16899TIP3    H172188   0.891   1.026   4.521
16899TIP3    H272189   0.754   1.062   4.467
16900TIP3   OH272190   4.323   2.141  12.118
16900TIP3    H172191   4.365   2.106  12.196
16900TIP3    H272192   4.272   2.068  12.083
16901TIP3   OH272193   2.381   4.519   4.792
16901TIP3    H172194   2.344   4.591   4.844
16901TIP3    H272195   2.447   4.561   4.736
16902TIP3   OH272196   4.432   0.815  11.474
16902TIP3    H172197   4.459   0.727  11.501
16902TIP3    H272198   4.514   0.865  11.473
16903TIP3   OH272199   3.694   6.171  16.826
16903TIP3    H172200   3.734   6.107  16.886
16903TIP3    H272201   3.740   6.157  16.743
16904TIP3   OH272202   3.442   2.102   5.100
16904TIP3    H172203   3.428   2.196   5.114
16904TIP3    H272204   3.355   2.063   5.109
16905TIP3   OH272205   6.257   1.156  14.552
16905TIP3    H172206   6.204   1.170  14.474
16905TIP3    H272207   6.197   1.113  14.614
16906TIP3   OH272208   4.034   2.194   3.080
16906TIP3    H172209   4.055   2.175   2.989
16906TIP3    H272210   4.013   2.109   3.119
16907TIP3   OH272211   5.547   5.562   4.304
16907TIP3    H172212   5.591   5.641   4.336
16907TIP3    H272213   5.607   5.527   4.238
16908TIP3   OH272214   6.297   3.974   4.623
16908TIP3    H172215   6.320   4.000   4.534
16908TIP3    H272216   6.202   3.966   4.622
16909TIP3   OH272217   3.814   0.321   3.880
16909TIP3    H172218   3.722   0.344   3.883
16909TIP3    H272219   3.859   0.402   3.856
16910TIP3   OH272220   1.253   0.107  14.762
16910TIP3    H172221   1.174   0.112  14.709
16910TIP3    H272222   1.289   0.196  14.759
16911TIP3   OH272223   2.960   6.577  13.472
16911TIP3    H172224   2.962   6.583  13.568
16911TIP3    H272225   2.944   6.484  13.455
16912TIP3   OH272226   5.852   4.256  16.639
16912TIP3    H172227   5.926   4.255  16.700
16912TIP3    H272228   5.858   4.341  16.596
16913TIP3   OH272229   2.867   5.455  14.158
16913TIP3    H172230   2.950   5.502  14.162
16913TIP3    H272231   2.800   5.524  14.154
16914TIP3   OH272232   1.671   3.300   3.626
16914TIP3    H172233   1.601   3.331   3.684
16914TIP3    H272234   1.632   3.226   3.580
16915TIP3   OH272235   3.452   3.013   2.199
16915TIP3    H172236   3.413   2.981   2.281
16915TIP3    H272237   3.512   3.082   2.227
16916TIP3   OH272238   1.118   4.754   3.726
16916TIP3    H172239   1.132   4.755   3.820
16916TIP3    H272240   1.105   4.845   3.702
16917TIP3   OH272241   1.107   6.099  13.362
16917TIP3    H172242   1.057   6.109  13.443
16917TIP3    H272243   1.041   6.079  13.296
16918TIP3   OH272244   5.548   2.301   5.767
16918TIP3    H172245   5.545   2.344   5.853
16918TIP3    H272246   5.633   2.257   5.765
16919TIP3   OH272247   2.894   5.651  15.941
16919TIP3    H172248   2.927   5.741  15.950
16919TIP3    H272249   2.800   5.659  15.954
16920TIP3   OH272250   1.420   3.182   5.701
16920TIP3    H172251   1.434   3.246   5.631
16920TIP3    H272252   1.417   3.234   5.781
16921TIP3   OH272253   5.610   0.602  11.451
16921TIP3    H172254   5.578   0.589  11.362
16921TIP3    H272255   5.705   0.609  11.441
16922TIP3   OH272256   0.053   5.622  12.693
16922TIP3    H172257   0.106   5.569  12.752
16922TIP3    H272258  -0.014   5.660  12.749
16923TIP3   OH272259   0.175   2.816  16.779
16923TIP3    H172260   0.190   2.731  16.820
16923TIP3    H272261   0.209   2.879  16.843
16924TIP3   OH272262   0.674   4.784   2.605
16924TIP3    H172263   0.743   4.764   2.668
16924TIP3    H272264   0.699   4.870   2.570
16925TIP3   OH272265   2.372   5.582   2.826
16925TIP3    H172266   2.306   5.643   2.857
16925TIP3    H272267   2.393   5.528   2.903
16926TIP3   OH272268   2.536   1.147   5.593
16926TIP3    H172269   2.522   1.213   5.525
16926TIP3    H272270   2.586   1.078   5.549
16927TIP3   OH272271   0.140   3.246  12.373
16927TIP3    H172272   0.116   3.226  12.282
16927TIP3    H272273   0.196   3.173  12.400
16928TIP3   OH272274   4.541   4.011  16.788
16928TIP3    H172275   4.573   3.933  16.832
16928TIP3    H272276   4.571   4.001  16.697
16929TIP3   OH272277   1.081   2.382  17.158
16929TIP3    H172278   0.987   2.364  17.162
16929TIP3    H272279   1.123   2.297  17.175
16930TIP3   OH272280   0.680   3.204   4.393
16930TIP3    H172281   0.729   3.247   4.463
16930TIP3    H272282   0.614   3.269   4.367
16931TIP3   OH272283   1.614   2.402   0.626
16931TIP3    H172284   1.695   2.361   0.655
16931TIP3    H272285   1.595   2.467   0.694
16932TIP3   OH272286   5.878   6.637  13.446
16932TIP3    H172287   5.972   6.629  13.456
16932TIP3    H272288   5.844   6.549  13.464
16933TIP3   OH272289   5.147   1.661  14.258
16933TIP3    H172290   5.218   1.643  14.197
16933TIP3    H272291   5.131   1.577  14.301
16934TIP3   OH272292   2.288   5.752   0.287
16934TIP3    H172293   2.368   5.700   0.282
16934TIP3    H272294   2.228   5.700   0.340
16935TIP3   OH272295   2.652   4.694   6.301
16935TIP3    H172296   2.685   4.778   6.269
16935TIP3    H272297   2.731   4.641   6.316
16936TIP3   OH272298   6.053   0.417  12.251
16936TIP3    H172299   5.984   0.481  12.239
16936TIP3    H272300   6.009   0.340  12.286
16937TIP3   OH272301   2.212   0.359  13.875
16937TIP3    H172302   2.281   0.362  13.808
16937TIP3    H272303   2.142   0.414  13.839
16938TIP3   OH272304   6.488   1.775  13.930
16938TIP3    H172305   6.509   1.858  13.887
16938TIP3    H272306   6.524   1.783  14.018
16939TIP3   OH272307   2.993   0.404  13.424
16939TIP3    H172308   2.955   0.462  13.489
16939TIP3    H272309   3.077   0.377  13.461
16940TIP3   OH272310   4.028   5.122   5.046
16940TIP3    H172311   4.029   5.082   5.133
16940TIP3    H272312   4.008   5.049   4.987
16941TIP3   OH272313   0.209   6.736   5.062
16941TIP3    H172314   0.131   6.752   5.115
16941TIP3    H272315   0.205   6.643   5.040
16942TIP3   OH272316   6.399   3.679  15.728
16942TIP3    H172317   6.431   3.680  15.638
16942TIP3    H272318   6.378   3.588  15.746
16943TIP3   OH272319   5.952   6.114  16.822
16943TIP3    H172320   6.000   6.154  16.895
16943TIP3    H272321   5.918   6.188  16.773
16944TIP3   OH272322   3.426   6.219  11.703
16944TIP3    H172323   3.512   6.227  11.744
16944TIP3    H272324   3.442   6.169  11.623
16945TIP3   OH272325   5.741   0.204   4.116
16945TIP3    H172326   5.749   0.110   4.129
16945TIP3    H272327   5.766   0.217   4.024
16946TIP3   OH272328   3.067   0.228  10.508
16946TIP3    H172329   3.104   0.274  10.433
16946TIP3    H272330   3.137   0.170  10.538
16947TIP3   OH272331   3.549   0.588  16.635
16947TIP3    H172332   3.504   0.559  16.715
16947TIP3    H272333   3.481   0.629  16.583
16948TIP3   OH272334   1.642   2.826   6.097
16948TIP3    H172335   1.622   2.830   6.191
16948TIP3    H272336   1.577   2.883   6.056
16949TIP3   OH272337   3.285   1.449  11.852
16949TIP3    H172338   3.298   1.381  11.786
16949TIP3    H272339   3.234   1.517  11.806
16950TIP3   OH272340   4.417   6.510  12.996
16950TIP3    H172341   4.332   6.554  12.999
16950TIP3    H272342   4.396   6.418  12.981
16951TIP3   OH272343   4.791   1.488   1.694
16951TIP3    H172344   4.858   1.478   1.626
16951TIP3    H272345   4.763   1.399   1.712
16952TIP3   OH272346   6.539   2.441  15.495
16952TIP3    H172347   6.447   2.414  15.485
16952TIP3    H272348   6.534   2.532  15.522
16953TIP3   OH272349   4.168   2.900  11.316
16953TIP3    H172350   4.127   2.970  11.367
16953TIP3    H272351   4.230   2.946  11.259
16954TIP3   OH272352   0.924   0.887   1.279
16954TIP3    H172353   0.939   0.961   1.338
16954TIP3    H272354   0.829   0.874   1.281
16955TIP3   OH272355   0.493   5.360  14.743
16955TIP3    H172356   0.412   5.320  14.776
16955TIP3    H272357   0.547   5.285  14.717
16956TIP3   OH272358   4.800   1.539   2.524
16956TIP3    H172359   4.792   1.625   2.485
16956TIP3    H272360   4.775   1.551   2.616
16957TIP3   OH272361   2.328   1.364   1.327
16957TIP3    H172362   2.294   1.453   1.343
16957TIP3    H272363   2.254   1.317   1.289
16958TIP3   OH272364   0.606   2.058   2.672
16958TIP3    H172365   0.632   2.068   2.580
16958TIP3    H272366   0.689   2.060   2.721
16959TIP3   OH272367   5.881   0.091  17.024
16959TIP3    H172368   5.844   0.048  17.102
16959TIP3    H272369   5.885   0.183  17.047
16960TIP3   OH272370   3.268   1.872  14.978
16960TIP3    H172371   3.244   1.861  15.070
16960TIP3    H272372   3.212   1.943  14.947
16961TIP3   OH272373   1.517   6.667   0.260
16961TIP3    H172374   1.580   6.647   0.330
16961TIP3    H272375   1.490   6.582   0.226
16962TIP3   OH272376   6.039   2.588   2.482
16962TIP3    H172377   6.105   2.549   2.539
16962TIP3    H272378   6.088   2.619   2.406
16963TIP3   OH272379   1.709   3.390   5.613
16963TIP3    H172380   1.636   3.444   5.585
16963TIP3    H272381   1.709   3.316   5.552
16964TIP3   OH272382   1.848   1.956   4.241
16964TIP3    H172383   1.770   2.003   4.269
16964TIP3    H272384   1.893   2.016   4.182
16965TIP3   OH272385   3.679   1.359   4.452
16965TIP3    H172386   3.675   1.378   4.546
16965TIP3    H272387   3.604   1.302   4.436
16966TIP3   OH272388   2.515   2.604   0.059
16966TIP3    H172389   2.551   2.587  -0.028
16966TIP3    H272390   2.464   2.684   0.049
16967TIP3   OH272391   6.180   5.682   1.733
16967TIP3    H172392   6.140   5.759   1.691
16967TIP3    H272393   6.213   5.630   1.660
16968TIP3   OH272394   0.083   0.977   6.609
16968TIP3    H172395   0.036   0.953   6.688
16968TIP3    H272396   0.176   0.968   6.631
16969TIP3   OH272397   5.555   4.799  12.818
16969TIP3    H172398   5.596   4.719  12.850
16969TIP3    H272399   5.611   4.827  12.746
16970TIP3   OH272400   3.217   5.835  13.882
16970TIP3    H172401   3.169   5.899  13.935
16970TIP3    H272402   3.163   5.825  13.803
16971TIP3   OH272403   1.848   3.938  10.922
16971TIP3    H172404   1.934   3.909  10.890
16971TIP3    H272405   1.807   3.978  10.845
16972TIP3   OH272406   2.269   6.326  11.472
16972TIP3    H172407   2.182   6.291  11.487
16972TIP3    H272408   2.315   6.314  11.555
16973TIP3   OH272409   2.612   5.137  14.743
16973TIP3    H172410   2.576   5.050  14.760
16973TIP3    H272411   2.571   5.164  14.660
16974TIP3   OH272412   5.890   0.885  14.976
16974TIP3    H172413   5.982   0.861  14.983
16974TIP3    H272414   5.859   0.888  15.067
16975TIP3   OH272415   5.211   0.067  13.069
16975TIP3    H172416   5.180  -0.011  13.115
16975TIP3    H272417   5.202   0.138  13.133
16976TIP3   OH272418   0.389   6.520  14.044
16976TIP3    H172419   0.339   6.518  14.126
16976TIP3    H272420   0.347   6.454  13.989
16977TIP3   OH272421   4.113   5.704   5.398
16977TIP3    H172422   4.031   5.729   5.439
16977TIP3    H272423   4.169   5.781   5.405
16978TIP3   OH272424   5.979   6.716   0.276
16978TIP3    H172425   5.982   6.747   0.366
16978TIP3    H272426   5.886   6.699   0.260
16979TIP3   OH272427   5.223   3.165  14.842
16979TIP3    H172428   5.254   3.181  14.931
16979TIP3    H272429   5.301   3.143  14.793
16980TIP3   OH272430   5.356   0.235   1.296
16980TIP3    H172431   5.383   0.242   1.204
16980TIP3    H272432   5.261   0.236   1.293
16981TIP3   OH272433   1.023   5.170  12.434
16981TIP3    H172434   1.085   5.103  12.462
16981TIP3    H272435   0.940   5.145  12.475
16982TIP3   OH272436   3.786   4.442   3.130
16982TIP3    H172437   3.734   4.446   3.050
16982TIP3    H272438   3.874   4.471   3.103
16983TIP3   OH272439   2.846   1.026   4.690
16983TIP3    H172440   2.756   1.042   4.660
16983TIP3    H272441   2.871   1.107   4.733
16984TIP3   OH272442   0.201   1.850   6.556
16984TIP3    H172443   0.265   1.904   6.510
16984TIP3    H272444   0.221   1.761   6.527
16985TIP3   OH272445   5.285   0.422  17.080
16985TIP3    H172446   5.216   0.359  17.061
16985TIP3    H272447   5.266   0.498  17.025
16986TIP3   OH272448   3.750   3.600   0.653
16986TIP3    H172449   3.719   3.667   0.714
16986TIP3    H272450   3.724   3.517   0.693
16987TIP3   OH272451   2.608   1.786   3.039
16987TIP3    H172452   2.586   1.696   3.014
16987TIP3    H272453   2.673   1.814   2.975
16988TIP3   OH272454   0.027   3.608   5.746
16988TIP3    H172455   0.093   3.539   5.738
16988TIP3    H272456   0.038   3.642   5.834
16989TIP3   OH272457   1.013   2.664  15.324
16989TIP3    H172458   1.027   2.693  15.233
16989TIP3    H272459   0.963   2.583  15.316
16990TIP3   OH272460   3.271   2.545  13.960
16990TIP3    H172461   3.251   2.452  13.957
16990TIP3    H272462   3.193   2.587  13.922
16991TIP3   OH272463   5.031   6.046  17.082
16991TIP3    H172464   5.071   6.054  17.169
16991TIP3    H272465   4.989   5.960  17.084
16992TIP3   OH272466   5.793   4.785   3.020
16992TIP3    H172467   5.817   4.694   2.999
16992TIP3    H272468   5.725   4.807   2.957
16993TIP3   OH272469   3.683   3.166  17.277
16993TIP3    H172470   3.589   3.162  17.260
16993TIP3    H272471   3.709   3.075  17.289
16994TIP3   OH272472   3.857   6.783  16.726
16994TIP3    H172473   3.878   6.873  16.751
16994TIP3    H272474   3.765   6.772  16.748
16995TIP3   OH272475   0.855   2.122   0.249
16995TIP3    H172476   0.766   2.153   0.269
16995TIP3    H272477   0.857   2.115   0.154
16996TIP3   OH272478   0.377   0.755   3.583
16996TIP3    H172479   0.464   0.770   3.544
16996TIP3    H272480   0.323   0.724   3.510
16997TIP3   OH272481   0.816   3.520  13.668
16997TIP3    H172482   0.742   3.515  13.729
16997TIP3    H272483   0.776   3.509  13.582
16998TIP3   OH272484   6.453   5.513   5.079
16998TIP3    H172485   6.371   5.487   5.037
16998TIP3    H272486   6.473   5.599   5.043
16999TIP3   OH272487   4.352   5.366  15.067
16999TIP3    H172488   4.356   5.446  15.120
16999TIP3    H272489   4.443   5.338  15.059
17000TIP3   OH272490   2.610   5.588   1.523
17000TIP3    H172491   2.694   5.626   1.547
17000TIP3    H272492   2.606   5.505   1.570
17001TIP3   OH272493   3.805   6.242  16.533
17001TIP3    H172494   3.739   6.297  16.576
17001TIP3    H272495   3.858   6.304  16.483
17002TIP3   OH272496   5.923   0.266   3.105
17002TIP3    H172497   5.862   0.333   3.137
17002TIP3    H272498   5.868   0.207   3.053
17003TIP3   OH272499   5.030   1.258  15.087
17003TIP3    H172500   5.090   1.186  15.066
17003TIP3    H272501   4.950   1.238  15.038
17004TIP3   OH272502   0.979   6.166   1.918
17004TIP3    H172503   0.974   6.255   1.884
17004TIP3    H272504   0.955   6.111   1.843
17005TIP3   OH272505   0.573   3.059  11.238
17005TIP3    H172506   0.589   3.021  11.324
17005TIP3    H272507   0.630   3.136  11.235
17006TIP3   OH272508   4.721   2.663  14.360
17006TIP3    H172509   4.803   2.615  14.354
17006TIP3    H272510   4.674   2.642  14.279
17007TIP3   OH272511   1.737   1.573   5.128
17007TIP3    H172512   1.790   1.621   5.064
17007TIP3    H272513   1.780   1.487   5.133
17008TIP3   OH272514   4.774   2.846  12.407
17008TIP3    H172515   4.716   2.894  12.348
17008TIP3    H272516   4.802   2.912  12.472
17009TIP3   OH272517   5.749   5.520   4.550
17009TIP3    H172518   5.705   5.589   4.500
17009TIP3    H272519   5.752   5.554   4.640
17010TIP3   OH272520   4.519   1.362  11.370
17010TIP3    H172521   4.449   1.298  11.361
17010TIP3    H272522   4.593   1.323  11.323
17011TIP3   OH272523   2.025   5.972   6.089
17011TIP3    H172524   2.059   5.989   6.177
17011TIP3    H272525   2.026   6.057   6.047
17012TIP3   OH272526   0.684   0.006  13.820
17012TIP3    H172527   0.722   0.025  13.734
17012TIP3    H272528   0.704   0.083  13.873
17013TIP3   OH272529   6.750   2.953  12.443
17013TIP3    H172530   6.844   2.962  12.432
17013TIP3    H272531   6.714   2.973  12.356
17014TIP3   OH272532   0.297   5.819  17.142
17014TIP3    H172533   0.308   5.763  17.065
17014TIP3    H272534   0.360   5.890  17.129
17015TIP3   OH272535   1.171   4.012  15.436
17015TIP3    H172536   1.248   3.979  15.484
17015TIP3    H272537   1.102   4.016  15.502
17016TIP3   OH272538   4.095   3.374   5.778
17016TIP3    H172539   4.111   3.446   5.716
17016TIP3    H272540   4.169   3.315   5.765
17017TIP3   OH272541   5.241   6.200   3.084
17017TIP3    H172542   5.266   6.286   3.052
17017TIP3    H272543   5.313   6.142   3.056
17018TIP3   OH272544   1.919   1.924  13.056
17018TIP3    H172545   1.881   2.007  13.027
17018TIP3    H272546   1.905   1.923  13.151
17019TIP3   OH272547   2.912   5.849   2.472
17019TIP3    H172548   2.855   5.925   2.486
17019TIP3    H272549   2.984   5.883   2.419
17020TIP3   OH272550   2.447   1.459  12.798
17020TIP3    H172551   2.374   1.401  12.776
17020TIP3    H272552   2.416   1.547  12.777
17021TIP3   OH272553   1.746   2.478   6.558
17021TIP3    H172554   1.746   2.382   6.548
17021TIP3    H272555   1.697   2.493   6.639
17022TIP3   OH272556   3.535   3.135   3.844
17022TIP3    H172557   3.629   3.119   3.852
17022TIP3    H272558   3.501   3.057   3.802
17023TIP3   OH272559   6.542   0.337  13.075
17023TIP3    H172560   6.630   0.308  13.054
17023TIP3    H272561   6.525   0.301  13.162
17024TIP3   OH272562   5.323   4.376  16.173
17024TIP3    H172563   5.284   4.307  16.120
17024TIP3    H272564   5.300   4.457  16.128
17025TIP3   OH272565   6.159   2.323  16.784
17025TIP3    H172566   6.113   2.248  16.821
17025TIP3    H272567   6.098   2.361  16.721
17026TIP3   OH272568   2.046   5.263   3.970
17026TIP3    H172569   2.134   5.269   4.007
17026TIP3    H272570   2.014   5.353   3.967
17027TIP3   OH272571   5.132   5.540  17.241
17027TIP3    H172572   5.052   5.488  17.235
17027TIP3    H272573   5.151   5.543  17.335
17028TIP3   OH272574   0.783   0.234   0.673
17028TIP3    H172575   0.751   0.144   0.681
17028TIP3    H272576   0.706   0.288   0.689
17029TIP3   OH272577   4.415   5.461  13.497
17029TIP3    H172578   4.385   5.552  13.496
17029TIP3    H272579   4.361   5.418  13.564
17030TIP3   OH272580   6.665   0.773   5.694
17030TIP3    H172581   6.588   0.718   5.676
17030TIP3    H272582   6.667   0.835   5.621
17031TIP3   OH272583   6.639   3.598  12.236
17031TIP3    H172584   6.573   3.666  12.249
17031TIP3    H272585   6.704   3.638  12.178
17032TIP3   OH272586   1.664   4.760  17.055
17032TIP3    H172587   1.690   4.669  17.039
17032TIP3    H272588   1.692   4.778  17.145
17033TIP3   OH272589   1.111   4.180   0.497
17033TIP3    H172590   1.024   4.178   0.537
17033TIP3    H272591   1.155   4.254   0.539
17034TIP3   OH272592   5.612   5.296  13.232
17034TIP3    H172593   5.691   5.296  13.178
17034TIP3    H272594   5.600   5.205  13.258
17035TIP3   OH272595   2.397   5.373  13.312
17035TIP3    H172596   2.426   5.338  13.396
17035TIP3    H272597   2.397   5.298  13.253
17036TIP3   OH272598   1.555   3.709   3.935
17036TIP3    H172599   1.523   3.627   3.972
17036TIP3    H272600   1.649   3.695   3.925
17037TIP3   OH272601   0.129   4.541  11.688
17037TIP3    H172602   0.110   4.493  11.608
17037TIP3    H272603   0.082   4.494  11.757
17038TIP3   OH272604   0.505   2.630   4.783
17038TIP3    H172605   0.582   2.630   4.841
17038TIP3    H272606   0.482   2.537   4.775
17039TIP3   OH272607   6.496   3.623  12.638
17039TIP3    H172608   6.514   3.712  12.608
17039TIP3    H272609   6.545   3.614  12.719
17040TIP3   OH272610   6.449   0.795  16.616
17040TIP3    H172611   6.429   0.876  16.570
17040TIP3    H272612   6.545   0.796  16.625
17041TIP3   OH272613   1.823   0.092  16.884
17041TIP3    H172614   1.904   0.131  16.918
17041TIP3    H272615   1.806   0.139  16.802
17042TIP3   OH272616   6.356   4.142  15.916
17042TIP3    H172617   6.391   4.093  15.991
17042TIP3    H272618   6.261   4.138  15.927
17043TIP3   OH272619   4.803   1.412  13.685
17043TIP3    H172620   4.757   1.432  13.767
17043TIP3    H272621   4.858   1.337  13.706
17044TIP3   OH272622   5.856   2.264  16.944
17044TIP3    H172623   5.898   2.344  16.975
17044TIP3    H272624   5.793   2.294  16.878
17045TIP3   OH272625   5.317   5.684   0.915
17045TIP3    H172626   5.259   5.758   0.897
17045TIP3    H272627   5.361   5.707   0.996
17046TIP3   OH272628   0.541   6.412  15.833
17046TIP3    H172629   0.471   6.405  15.768
17046TIP3    H272630   0.503   6.465  15.903
17047TIP3   OH272631   1.799   5.556  11.776
17047TIP3    H172632   1.784   5.619  11.846
17047TIP3    H272633   1.894   5.540  11.777
17048TIP3   OH272634   1.415   0.928  16.258
17048TIP3    H172635   1.331   0.970  16.279
17048TIP3    H272636   1.411   0.913  16.164
17049TIP3   OH272637   5.344   2.234   0.219
17049TIP3    H172638   5.402   2.208   0.290
17049TIP3    H272639   5.316   2.323   0.242
17050TIP3   OH272640   4.965   0.349   3.912
17050TIP3    H172641   5.053   0.387   3.915
17050TIP3    H272642   4.928   0.371   3.998
17051TIP3   OH272643   6.550   1.158  16.188
17051TIP3    H172644   6.492   1.097  16.142
17051TIP3    H272645   6.612   1.101  16.233
17052TIP3   OH272646   4.487   5.468   2.564
17052TIP3    H172647   4.401   5.474   2.607
17052TIP3    H272648   4.548   5.505   2.627
17053TIP3   OH272649   6.777   3.649  15.722
17053TIP3    H172650   6.689   3.633  15.689
17053TIP3    H272651   6.773   3.622  15.814
17054TIP3   OH272652   0.024   3.909  15.485
17054TIP3    H172653  -0.044   3.973  15.504
17054TIP3    H272654   0.087   3.918  15.556
17055TIP3   OH272655   0.460   6.528  16.179
17055TIP3    H172656   0.533   6.551  16.236
17055TIP3    H272657   0.392   6.495  16.239
17056TIP3   OH272658   5.336   2.438   4.173
17056TIP3    H172659   5.259   2.494   4.177
17056TIP3    H272660   5.410   2.498   4.178
17057TIP3   OH272661   6.076   2.206  14.486
17057TIP3    H172662   6.149   2.206  14.424
17057TIP3    H272663   6.098   2.274  14.550
17058TIP3   OH272664   6.215   2.535  11.317
17058TIP3    H172665   6.162   2.605  11.280
17058TIP3    H272666   6.296   2.536  11.265
17059TIP3   OH272667   0.470   0.825   2.767
17059TIP3    H172668   0.512   0.756   2.715
17059TIP3    H272669   0.400   0.780   2.814
17060TIP3   OH272670   3.941   4.893  12.291
17060TIP3    H172671   4.014   4.840  12.323
17060TIP3    H272672   3.978   4.944  12.219
17061TIP3   OH272673   3.566   5.885   1.296
17061TIP3    H172674   3.493   5.928   1.340
17061TIP3    H272675   3.626   5.861   1.366
17062TIP3   OH272676   3.438   1.411   4.251
17062TIP3    H172677   3.489   1.331   4.263
17062TIP3    H272678   3.412   1.409   4.158
17063TIP3   OH272679   0.684   2.679   3.402
17063TIP3    H172680   0.608   2.695   3.347
17063TIP3    H272681   0.677   2.587   3.427
17064TIP3   OH272682   1.716   4.313   3.412
17064TIP3    H172683   1.756   4.252   3.350
17064TIP3    H272684   1.662   4.371   3.358
17065TIP3   OH272685   2.918   2.675   2.341
17065TIP3    H172686   2.832   2.716   2.354
17065TIP3    H272687   2.933   2.626   2.422
17066TIP3   OH272688   5.352   2.475   2.063
17066TIP3    H172689   5.408   2.398   2.062
17066TIP3    H272690   5.380   2.523   2.141
17067TIP3   OH272691   6.118   1.005  12.213
17067TIP3    H172692   6.026   0.978  12.203
17067TIP3    H272693   6.166   0.949  12.153
17068TIP3   OH272694   0.676   5.121  14.694
17068TIP3    H172695   0.608   5.069  14.735
17068TIP3    H272696   0.743   5.057  14.669
17069TIP3   OH272697   0.851   5.409  12.430
17069TIP3    H172698   0.885   5.487  12.385
17069TIP3    H272699   0.925   5.348  12.430
17070TIP3   OH272700   5.933   5.185  10.852
17070TIP3    H172701   6.028   5.191  10.859
17070TIP3    H272702   5.914   5.091  10.850
17071TIP3   OH272703   5.549   1.773   4.928
17071TIP3    H172704   5.569   1.720   4.851
17071TIP3    H272705   5.554   1.864   4.896
17072TIP3   OH272706   5.134   0.593   1.666
17072TIP3    H172707   5.142   0.514   1.612
17072TIP3    H272708   5.223   0.627   1.671
17073TIP3   OH272709   4.145   5.729   2.586
17073TIP3    H172710   4.150   5.749   2.493
17073TIP3    H272711   4.071   5.669   2.594
17074TIP3   OH272712   4.826   4.463   2.003
17074TIP3    H172713   4.915   4.485   2.032
17074TIP3    H272714   4.783   4.430   2.081
17075TIP3   OH272715   2.655   2.824   1.391
17075TIP3    H172716   2.710   2.885   1.342
17075TIP3    H272717   2.566   2.844   1.363
17076TIP3   OH272718   0.334   6.217  13.086
17076TIP3    H172719   0.417   6.171  13.095
17076TIP3    H272720   0.355   6.308  13.107
17077TIP3   OH272721   3.804   5.225   1.884
17077TIP3    H172722   3.858   5.254   1.810
17077TIP3    H272723   3.715   5.253   1.862
17078TIP3   OH272724   6.487   0.172   2.072
17078TIP3    H172725   6.467   0.229   1.999
17078TIP3    H272726   6.441   0.090   2.052
17079TIP3   OH272727   0.380   3.771   1.794
17079TIP3    H172728   0.359   3.733   1.708
17079TIP3    H272729   0.391   3.696   1.852
17080TIP3   OH272730   3.445   3.414   1.479
17080TIP3    H172731   3.431   3.508   1.493
17080TIP3    H272732   3.526   3.395   1.526
17081TIP3   OH272733   4.421   2.119   5.030
17081TIP3    H172734   4.404   2.198   5.081
17081TIP3    H272735   4.343   2.110   4.974
17082TIP3   OH272736   1.074   2.654  15.843
17082TIP3    H172737   1.053   2.682  15.754
17082TIP3    H272738   1.106   2.564  15.833
17083TIP3   OH272739   6.259   1.286  12.169
17083TIP3    H172740   6.214   1.207  12.138
17083TIP3    H272741   6.208   1.313  12.246
17084TIP3   OH272742   1.007   2.791   4.962
17084TIP3    H172743   0.966   2.876   4.973
17084TIP3    H272744   1.066   2.783   5.037
17085TIP3   OH272745   0.553   3.322  11.773
17085TIP3    H172746   0.549   3.322  11.678
17085TIP3    H272747   0.633   3.370  11.794
17086TIP3   OH272748   3.623   3.187   3.414
17086TIP3    H172749   3.674   3.188   3.495
17086TIP3    H272750   3.662   3.116   3.362
17087TIP3   OH272751   2.970   3.217   6.202
17087TIP3    H172752   2.931   3.238   6.287
17087TIP3    H272753   3.022   3.138   6.219
17088TIP3   OH272754   1.340   6.251   3.847
17088TIP3    H172755   1.373   6.327   3.894
17088TIP3    H272756   1.374   6.260   3.758
17089TIP3   OH272757   0.751   3.162   6.063
17089TIP3    H172758   0.812   3.184   6.133
17089TIP3    H272759   0.716   3.076   6.088
17090TIP3   OH272760   1.443   0.345   5.616
17090TIP3    H172761   1.382   0.297   5.559
17090TIP3    H272762   1.462   0.426   5.568
17091TIP3   OH272763   6.749   6.476  12.309
17091TIP3    H172764   6.839   6.455  12.332
17091TIP3    H272765   6.728   6.419  12.236
17092TIP3   OH272766   2.844   5.195  12.677
17092TIP3    H172767   2.748   5.195  12.677
17092TIP3    H272768   2.868   5.287  12.685
17093TIP3   OH272769   3.310   6.754  13.888
17093TIP3    H172770   3.337   6.797  13.969
17093TIP3    H272771   3.217   6.773  13.880
17094TIP3   OH272772   4.976   0.888   6.297
17094TIP3    H172773   5.007   0.911   6.209
17094TIP3    H272774   4.968   0.972   6.342
17095TIP3   OH272775   4.806   0.920   3.476
17095TIP3    H172776   4.798   0.826   3.491
17095TIP3    H272777   4.775   0.960   3.558
17096TIP3   OH272778   2.569   1.587   5.445
17096TIP3    H172779   2.632   1.604   5.375
17096TIP3    H272780   2.619   1.598   5.526
17097TIP3   OH272781   4.986   5.749   3.838
17097TIP3    H172782   5.001   5.718   3.749
17097TIP3    H272783   4.919   5.816   3.829
17098TIP3   OH272784   5.068   0.434  14.067
17098TIP3    H172785   4.997   0.422  14.004
17098TIP3    H272786   5.126   0.497  14.025
17099TIP3   OH272787   2.081   5.627   4.809
17099TIP3    H172788   2.128   5.692   4.863
17099TIP3    H272789   2.101   5.652   4.719
17100TIP3   OH272790   6.034   6.267  15.565
17100TIP3    H172791   6.123   6.286  15.535
17100TIP3    H272792   5.997   6.213  15.497
17101TIP3   OH272793   3.184   1.052   2.863
17101TIP3    H172794   3.171   0.972   2.913
17101TIP3    H272795   3.128   1.043   2.786
17102TIP3   OH272796   0.955   4.423   5.482
17102TIP3    H172797   0.943   4.410   5.388
17102TIP3    H272798   0.959   4.335   5.518
17103TIP3   OH272799   3.539   4.585   1.609
17103TIP3    H172800   3.632   4.577   1.586
17103TIP3    H272801   3.493   4.559   1.529
17104TIP3   OH272802   6.572   5.435  15.566
17104TIP3    H172803   6.507   5.429  15.495
17104TIP3    H272804   6.549   5.363  15.625
17105TIP3   OH272805   1.139   1.382  11.479
17105TIP3    H172806   1.150   1.288  11.493
17105TIP3    H272807   1.220   1.410  11.436
17106TIP3   OH272808   0.776   3.162  11.415
17106TIP3    H172809   0.821   3.101  11.357
17106TIP3    H272810   0.844   3.222  11.445
17107TIP3   OH272811   3.224   3.116  15.394
17107TIP3    H172812   3.145   3.064  15.378
17107TIP3    H272813   3.293   3.068  15.347
17108TIP3   OH272814   1.972   3.480  15.387
17108TIP3    H172815   1.971   3.571  15.359
17108TIP3    H272816   1.987   3.484  15.482
17109TIP3   OH272817   2.152   5.095   2.668
17109TIP3    H172818   2.065   5.118   2.701
17109TIP3    H272819   2.202   5.177   2.673
17110TIP3   OH272820   1.037   3.235  11.047
17110TIP3    H172821   1.124   3.227  11.008
17110TIP3    H272822   0.976   3.214  10.976
17111TIP3   OH272823   5.203   0.076   5.291
17111TIP3    H172824   5.208   0.024   5.371
17111TIP3    H272825   5.193   0.011   5.221
17112TIP3   OH272826   5.564   5.600  10.556
17112TIP3    H172827   5.536   5.659  10.626
17112TIP3    H272828   5.642   5.641  10.520
17113TIP3   OH272829   5.651   6.718   5.043
17113TIP3    H172830   5.705   6.690   5.117
17113TIP3    H272831   5.705   6.699   4.966
17114TIP3   OH272832   5.204   4.635  10.777
17114TIP3    H172833   5.160   4.551  10.793
17114TIP3    H272834   5.134   4.699  10.775
17115TIP3   OH272835   1.852   3.349  16.006
17115TIP3    H172836   1.785   3.319  15.944
17115TIP3    H272837   1.812   3.336  16.092
17116TIP3   OH272838   3.314   3.891  15.829
17116TIP3    H172839   3.237   3.835  15.825
17116TIP3    H272840   3.314   3.937  15.745
17117TIP3   OH272841   6.689   4.811   6.228
17117TIP3    H172842   6.688   4.739   6.290
17117TIP3    H272843   6.727   4.774   6.148
17118TIP3   OH272844   0.085   4.832  11.724
17118TIP3    H172845   0.131   4.749  11.714
17118TIP3    H272846   0.153   4.894  11.751
17119TIP3   OH272847   6.016   4.064  15.366
17119TIP3    H172848   6.004   3.998  15.298
17119TIP3    H272849   6.024   4.147  15.318
17120TIP3   OH272850   6.005   5.240   0.766
17120TIP3    H172851   6.028   5.214   0.855
17120TIP3    H272852   6.061   5.187   0.710
17121TIP3   OH272853   4.585   0.725  12.614
17121TIP3    H172854   4.661   0.694  12.662
17121TIP3    H272855   4.575   0.817  12.641
17122TIP3   OH272856   5.222   5.159  16.846
17122TIP3    H172857   5.244   5.121  16.761
17122TIP3    H272858   5.168   5.235  16.825
17123TIP3   OH272859   1.838   1.545  16.926
17123TIP3    H172860   1.781   1.506  16.992
17123TIP3    H272861   1.911   1.582  16.976
17124TIP3   OH272862   0.458   5.999   3.503
17124TIP3    H172863   0.390   6.000   3.436
17124TIP3    H272864   0.467   6.091   3.530
17125TIP3   OH272865   0.279   2.507  16.634
17125TIP3    H172866   0.192   2.546  16.633
17125TIP3    H272867   0.306   2.511  16.726
17126TIP3   OH272868   2.471   0.536   4.664
17126TIP3    H172869   2.529   0.592   4.715
17126TIP3    H272870   2.495   0.553   4.572
17127TIP3   OH272871   4.166   2.750  15.215
17127TIP3    H172872   4.227   2.798  15.271
17127TIP3    H272873   4.184   2.784  15.127
17128TIP3   OH272874   6.389   0.876   5.804
17128TIP3    H172875   6.402   0.965   5.839
17128TIP3    H272876   6.476   0.837   5.807
17129TIP3   OH272877   3.009   1.752  13.155
17129TIP3    H172878   3.022   1.659  13.139
17129TIP3    H272879   3.033   1.764  13.247
17130TIP3   OH272880   1.184   2.075   6.439
17130TIP3    H172881   1.184   2.114   6.526
17130TIP3    H272882   1.226   1.989   6.451
17131TIP3   OH272883   1.450   3.098  14.169
17131TIP3    H172884   1.503   3.072  14.245
17131TIP3    H272885   1.439   3.192  14.180
17132TIP3   OH272886   2.941   6.089  12.710
17132TIP3    H172887   2.928   6.122  12.621
17132TIP3    H272888   3.007   6.021  12.701
17133TIP3   OH272889   0.383   4.214  12.495
17133TIP3    H172890   0.296   4.244  12.522
17133TIP3    H272891   0.435   4.216  12.575
17134TIP3   OH272892   3.993   1.067   2.675
17134TIP3    H172893   3.982   0.993   2.734
17134TIP3    H272894   4.027   1.028   2.594
17135TIP3   OH272895   1.943   5.140   3.133
17135TIP3    H172896   1.869   5.137   3.193
17135TIP3    H272897   1.992   5.060   3.150
17136TIP3   OH272898   1.538   4.048  14.728
17136TIP3    H172899   1.496   4.088  14.804
17136TIP3    H272900   1.510   4.101  14.654
17137TIP3   OH272901   0.873   0.800  17.029
17137TIP3    H172902   0.792   0.750  17.023
17137TIP3    H272903   0.912   0.793  16.942
17138TIP3   OH272904   1.678   5.907   4.711
17138TIP3    H172905   1.677   5.811   4.720
17138TIP3    H272906   1.621   5.938   4.782
17139TIP3   OH272907   0.079   4.202   5.747
17139TIP3    H172908   0.011   4.144   5.713
17139TIP3    H272909   0.032   4.275   5.787
17140TIP3   OH272910   1.764   4.129  12.300
17140TIP3    H172911   1.693   4.079  12.341
17140TIP3    H272912   1.729   4.157  12.216
17141TIP3   OH272913   0.372   0.872   5.212
17141TIP3    H172914   0.293   0.831   5.246
17141TIP3    H272915   0.409   0.919   5.287
17142TIP3   OH272916   2.466   4.080  15.104
17142TIP3    H172917   2.474   4.151  15.168
17142TIP3    H272918   2.480   4.000  15.156
17143TIP3   OH272919   6.593   4.586  11.235
17143TIP3    H172920   6.592   4.585  11.140
17143TIP3    H272921   6.624   4.499  11.260
17144TIP3   OH272922   0.608   6.038   2.597
17144TIP3    H172923   0.674   5.982   2.558
17144TIP3    H272924   0.532   6.031   2.539
17145TIP3   OH272925   5.866   5.708  17.126
17145TIP3    H172926   5.845   5.618  17.148
17145TIP3    H272927   5.962   5.712  17.127
17146TIP3   OH272928   1.215   4.486   6.425
17146TIP3    H172929   1.216   4.409   6.481
17146TIP3    H272930   1.124   4.516   6.426
17147TIP3   OH272931   3.455   4.982   1.395
17147TIP3    H172932   3.495   5.035   1.326
17147TIP3    H272933   3.403   5.044   1.446
17148TIP3   OH272934   3.672   0.550  15.835
17148TIP3    H172935   3.680   0.548  15.740
17148TIP3    H272936   3.652   0.642  15.855
17149TIP3   OH272937   4.625   4.393   2.858
17149TIP3    H172938   4.686   4.320   2.860
17149TIP3    H272939   4.679   4.471   2.872
17150TIP3   OH272940   6.723   2.092  14.379
17150TIP3    H172941   6.648   2.107  14.321
17150TIP3    H272942   6.750   2.180  14.405
17151TIP3   OH272943   6.795   6.568   4.964
17151TIP3    H172944   6.801   6.562   5.060
17151TIP3    H272945   6.758   6.655   4.948
17152TIP3   OH272946   0.778   6.813  16.927
17152TIP3    H172947   0.689   6.788  16.904
17152TIP3    H272948   0.771   6.847  17.017
17153TIP3   OH272949   5.372   4.146  15.720
17153TIP3    H172950   5.438   4.079  15.738
17153TIP3    H272951   5.406   4.191  15.642
17154TIP3   OH272952   5.786   0.093   0.428
17154TIP3    H172953   5.804   0.068   0.519
17154TIP3    H272954   5.721   0.030   0.398
17155TIP3   OH272955   5.005   2.138   1.427
17155TIP3    H172956   5.054   2.139   1.345
17155TIP3    H272957   5.062   2.183   1.490
17156TIP3   OH272958   1.828   3.102   0.592
17156TIP3    H172959   1.739   3.126   0.566
17156TIP3    H272960   1.878   3.100   0.511
17157TIP3   OH272961   5.676   2.629   0.518
17157TIP3    H172962   5.729   2.555   0.545
17157TIP3    H272963   5.632   2.658   0.598
17158TIP3   OH272964   3.037   5.156   5.667
17158TIP3    H172965   2.988   5.166   5.749
17158TIP3    H272966   3.040   5.244   5.630
17159TIP3   OH272967   6.382   1.301  13.136
17159TIP3    H172968   6.353   1.300  13.228
17159TIP3    H272969   6.463   1.251  13.136
17160TIP3   OH272970   0.940   5.332   0.491
17160TIP3    H172971   0.919   5.343   0.583
17160TIP3    H272972   1.035   5.317   0.489
17161TIP3   OH272973   5.848   1.997   5.638
17161TIP3    H172974   5.910   2.068   5.651
17161TIP3    H272975   5.762   2.038   5.645
17162TIP3   OH272976   0.696   1.093   1.996
17162TIP3    H172977   0.683   1.188   1.998
17162TIP3    H272978   0.761   1.076   2.064
17163TIP3   OH272979   1.723   5.491  14.560
17163TIP3    H172980   1.748   5.583  14.570
17163TIP3    H272981   1.646   5.493  14.505
17164TIP3   OH272982   2.918   1.598  16.468
17164TIP3    H172983   2.840   1.548  16.444
17164TIP3    H272984   2.936   1.652  16.390
17165TIP3   OH272985   0.539   1.119   3.846
17165TIP3    H172986   0.509   1.203   3.809
17165TIP3    H272987   0.556   1.139   3.938
17166TIP3   OH272988   3.210   6.573  15.450
17166TIP3    H172989   3.192   6.544  15.361
17166TIP3    H272990   3.251   6.659  15.438
17167TIP3   OH272991   0.979   2.455   1.784
17167TIP3    H172992   0.969   2.375   1.733
17167TIP3    H272993   0.934   2.437   1.867
17168TIP3   OH272994   0.269   5.931   3.838
17168TIP3    H172995   0.301   6.014   3.873
17168TIP3    H272996   0.184   5.919   3.880
17169TIP3   OH272997   3.837   3.461  12.490
17169TIP3    H172998   3.854   3.522  12.562
17169TIP3    H272999   3.897   3.388  12.507
17170TIP3   OH273000   3.424   0.316   4.491
17170TIP3    H173001   3.430   0.406   4.459
17170TIP3    H273002   3.470   0.317   4.574
17171TIP3   OH273003   0.434   2.892  16.559
17171TIP3    H173004   0.431   2.925  16.649
17171TIP3    H273005   0.474   2.806  16.566
17172TIP3   OH273006   0.287   2.570  15.146
17172TIP3    H173007   0.274   2.663  15.162
17172TIP3    H273008   0.358   2.545  15.206
17173TIP3   OH273009   6.464   0.061  10.689
17173TIP3    H173010   6.499   0.148  10.670
17173TIP3    H273011   6.393   0.049  10.626
17174TIP3   OH273012   1.167   2.463  13.307
17174TIP3    H173013   1.163   2.398  13.237
17174TIP3    H273014   1.136   2.544  13.265
17175TIP3   OH273015   5.648   0.692  15.452
17175TIP3    H173016   5.643   0.787  15.451
17175TIP3    H273017   5.735   0.673  15.487
17176TIP3   OH273018   1.392   4.416   4.985
17176TIP3    H173019   1.436   4.459   4.911
17176TIP3    H273020   1.428   4.459   5.062
17177TIP3   OH273021   5.317   4.335   3.467
17177TIP3    H173022   5.283   4.262   3.519
17177TIP3    H273023   5.292   4.314   3.377
17178TIP3   OH273024   6.096   0.290   3.844
17178TIP3    H173025   6.136   0.223   3.899
17178TIP3    H273026   6.163   0.308   3.777
17179TIP3   OH273027   3.649   3.241  11.151
17179TIP3    H173028   3.739   3.250  11.119
17179TIP3    H273029   3.633   3.147  11.151
17180TIP3   OH273030   1.875   1.119  15.979
17180TIP3    H173031   1.902   1.034  15.942
17180TIP3    H273032   1.781   1.109  15.995
17181TIP3   OH273033   6.172   1.101  11.561
17181TIP3    H173034   6.103   1.148  11.514
17181TIP3    H273035   6.246   1.162  11.561
17182TIP3   OH273036   6.597   0.971   3.166
17182TIP3    H173037   6.639   0.892   3.201
17182TIP3    H273038   6.657   1.003   3.098
17183TIP3   OH273039   4.977   2.268   6.021
17183TIP3    H173040   4.908   2.330   6.000
17183TIP3    H273041   5.045   2.321   6.063
17184TIP3   OH273042   0.835   4.942   5.244
17184TIP3    H173043   0.926   4.925   5.221
17184TIP3    H273044   0.841   4.999   5.321
17185TIP3   OH273045   3.776   6.214   5.108
17185TIP3    H173046   3.789   6.305   5.136
17185TIP3    H273047   3.683   6.197   5.127
17186TIP3   OH273048   3.859   5.392  16.828
17186TIP3    H173049   3.941   5.432  16.799
17186TIP3    H273050   3.868   5.384  16.923
17187TIP3   OH273051   4.261   5.369  11.346
17187TIP3    H173052   4.316   5.345  11.420
17187TIP3    H273053   4.225   5.455  11.369
17188TIP3   OH273054   3.474   0.982   3.578
17188TIP3    H173055   3.450   0.901   3.622
17188TIP3    H273056   3.462   1.050   3.644
17189TIP3   OH273057   1.168   6.724  14.041
17189TIP3    H173058   1.183   6.800  13.986
17189TIP3    H273059   1.112   6.667  13.988
17190TIP3   OH273060   3.363   2.418  13.436
17190TIP3    H173061   3.442   2.407  13.488
17190TIP3    H273062   3.393   2.446  13.350
17191TIP3   OH273063   4.154   3.598   0.073
17191TIP3    H173064   4.176   3.545  -0.004
17191TIP3    H273065   4.190   3.685   0.053
17192TIP3   OH273066   4.641   1.900   3.934
17192TIP3    H173067   4.562   1.920   3.884
17192TIP3    H273068   4.633   1.953   4.013
17193TIP3   OH273069   6.756   2.565  13.124
17193TIP3    H173070   6.789   2.484  13.162
17193TIP3    H273071   6.716   2.611  13.198
17194TIP3   OH273072   4.119   4.539  15.410
17194TIP3    H173073   4.083   4.616  15.365
17194TIP3    H273074   4.050   4.512  15.470
17195TIP3   OH273075   4.670   0.410   5.099
17195TIP3    H173076   4.576   0.426   5.106
17195TIP3    H273077   4.709   0.496   5.086
17196TIP3   OH273078   0.502   3.560   3.187
17196TIP3    H173079   0.506   3.615   3.265
17196TIP3    H273080   0.514   3.471   3.220
17197TIP3   OH273081   1.283   6.265   3.218
17197TIP3    H173082   1.215   6.204   3.189
17197TIP3    H273083   1.340   6.211   3.273
17198TIP3   OH273084   1.825   1.317   3.690
17198TIP3    H173085   1.874   1.380   3.637
17198TIP3    H273086   1.742   1.305   3.643
17199TIP3   OH273087   1.401   3.142  16.505
17199TIP3    H173088   1.446   3.197  16.570
17199TIP3    H273089   1.313   3.179  16.500
17200TIP3   OH273090   3.898   4.127   4.282
17200TIP3    H173091   3.813   4.084   4.273
17200TIP3    H273092   3.962   4.059   4.258
17201TIP3   OH273093   2.575   0.895  12.105
17201TIP3    H173094   2.605   0.856  12.188
17201TIP3    H273095   2.655   0.931  12.067
17202TIP3   OH273096   3.580   2.688  10.984
17202TIP3    H173097   3.508   2.714  10.926
17202TIP3    H273098   3.543   2.694  11.072
17203TIP3   OH273099   5.314   5.472   0.166
17203TIP3    H173100   5.250   5.528   0.210
17203TIP3    H273101   5.313   5.391   0.216
17204TIP3   OH273102   6.151   1.823   0.696
17204TIP3    H173103   6.071   1.806   0.647
17204TIP3    H273104   6.136   1.907   0.738
17205TIP3   OH273105   4.174   0.970  16.815
17205TIP3    H173106   4.203   1.043  16.870
17205TIP3    H273107   4.239   0.901  16.832
17206TIP3   OH273108   3.201   4.233   5.789
17206TIP3    H173109   3.223   4.208   5.878
17206TIP3    H273110   3.115   4.274   5.795
17207TIP3   OH273111   5.673   6.669  16.992
17207TIP3    H173112   5.674   6.693  16.900
17207TIP3    H273113   5.586   6.631  17.007
17208TIP3   OH273114   2.909   1.755  10.887
17208TIP3    H173115   2.858   1.678  10.862
17208TIP3    H273116   2.990   1.720  10.923
17209TIP3   OH273117   2.617   6.257  17.051
17209TIP3    H173118   2.558   6.331  17.037
17209TIP3    H273119   2.669   6.281  17.127
17210TIP3   OH273120   6.377   3.537   0.310
17210TIP3    H173121   6.398   3.616   0.259
17210TIP3    H273122   6.329   3.481   0.249
17211TIP3   OH273123   5.029   4.285   2.405
17211TIP3    H173124   4.972   4.341   2.458
17211TIP3    H273125   5.070   4.226   2.468
17212TIP3   OH273126   0.194   1.291   5.956
17212TIP3    H173127   0.121   1.229   5.963
17212TIP3    H273128   0.191   1.341   6.037
17213TIP3   OH273129   6.537   1.444   1.653
17213TIP3    H173130   6.492   1.360   1.662
17213TIP3    H273131   6.586   1.436   1.572
17214TIP3   OH273132   6.260   5.335   1.117
17214TIP3    H173133   6.270   5.428   1.098
17214TIP3    H273134   6.343   5.296   1.089
17215TIP3   OH273135   5.857   3.738  11.156
17215TIP3    H173136   5.852   3.670  11.089
17215TIP3    H273137   5.913   3.701  11.224
17216TIP3   OH273138   4.223   2.774  12.701
17216TIP3    H173139   4.173   2.853  12.683
17216TIP3    H273140   4.159   2.712  12.737
17217TIP3   OH273141   0.858   4.284  15.581
17217TIP3    H173142   0.893   4.347  15.643
17217TIP3    H273143   0.841   4.335  15.502
17218TIP3   OH273144   2.879   3.650  15.474
17218TIP3    H173145   2.963   3.656  15.427
17218TIP3    H273146   2.816   3.622  15.407
17219TIP3   OH273147   2.030   5.224  16.931
17219TIP3    H173148   1.943   5.265  16.925
17219TIP3    H273149   2.014   5.141  16.976
17220TIP3   OH273150   4.774   6.211  15.567
17220TIP3    H173151   4.837   6.257  15.512
17220TIP3    H273152   4.829   6.168  15.634
17221TIP3   OH273153   1.303   4.837  11.879
17221TIP3    H173154   1.235   4.863  11.941
17221TIP3    H273155   1.293   4.743  11.870
17222TIP3   OH273156   6.818   5.228   3.917
17222TIP3    H173157   6.855   5.314   3.936
17222TIP3    H273158   6.730   5.231   3.956
17223TIP3   OH273159   0.089   3.706   4.402
17223TIP3    H173160   0.029   3.635   4.380
17223TIP3    H273161   0.131   3.677   4.483
17224TIP3   OH273162   2.379   0.315   1.471
17224TIP3    H173163   2.403   0.407   1.488
17224TIP3    H273164   2.422   0.266   1.541
17225TIP3   OH273165   0.977   3.061   2.493
17225TIP3    H173166   0.978   3.007   2.413
17225TIP3    H273167   0.903   3.120   2.481
17226TIP3   OH273168   5.800   5.330   2.623
17226TIP3    H173169   5.705   5.334   2.633
17226TIP3    H273170   5.818   5.238   2.606
17227TIP3   OH273171   1.177   1.377  14.436
17227TIP3    H173172   1.272   1.376  14.443
17227TIP3    H273173   1.146   1.377  14.526
17228TIP3   OH273174   3.544   2.845   0.324
17228TIP3    H173175   3.587   2.821   0.406
17228TIP3    H273176   3.478   2.910   0.350
17229TIP3   OH273177   5.057   0.887  15.962
17229TIP3    H173178   5.063   0.982  15.953
17229TIP3    H273179   4.964   0.871  15.976
17230TIP3   OH273180   2.658   6.234   4.527
17230TIP3    H173181   2.671   6.156   4.581
17230TIP3    H273182   2.620   6.298   4.587
17231TIP3   OH273183   4.143   5.128   4.597
17231TIP3    H173184   4.047   5.128   4.592
17231TIP3    H273185   4.168   5.036   4.594
17232TIP3   OH273186   2.237   6.738  15.599
17232TIP3    H173187   2.153   6.778  15.574
17232TIP3    H273188   2.297   6.812  15.608
17233TIP3   OH273189   2.784   0.179   3.456
17233TIP3    H173190   2.761   0.258   3.505
17233TIP3    H273191   2.739   0.188   3.372
17234TIP3   OH273192   2.177   5.572  10.677
17234TIP3    H173193   2.271   5.560  10.691
17234TIP3    H273194   2.146   5.485  10.652
17235TIP3   OH273195   2.386   3.800   3.924
17235TIP3    H173196   2.337   3.798   4.006
17235TIP3    H273197   2.456   3.864   3.940
17236TIP3   OH273198   0.470   5.021   5.191
17236TIP3    H173199   0.455   5.023   5.096
17236TIP3    H273200   0.434   4.936   5.218
17237TIP3   OH273201   3.537   0.415  12.462
17237TIP3    H173202   3.590   0.343  12.497
17237TIP3    H273203   3.579   0.494  12.496
17238TIP3   OH273204   4.265   0.535   3.565
17238TIP3    H173205   4.335   0.582   3.612
17238TIP3    H273206   4.312   0.485   3.498
17239TIP3   OH273207   3.386   4.072  14.919
17239TIP3    H173208   3.408   4.160  14.889
17239TIP3    H273209   3.339   4.032  14.846
17240TIP3   OH273210   3.995   4.142   0.726
17240TIP3    H173211   4.085   4.128   0.697
17240TIP3    H273212   3.996   4.228   0.768
17241TIP3   OH273213   3.271   4.217  13.897
17241TIP3    H173214   3.307   4.171  13.972
17241TIP3    H273215   3.191   4.259  13.930
17242TIP3   OH273216   0.154   5.702   4.886
17242TIP3    H173217   0.216   5.764   4.849
17242TIP3    H273218   0.150   5.631   4.822
17243TIP3   OH273219   5.233   4.723   3.897
17243TIP3    H173220   5.315   4.745   3.942
17243TIP3    H273221   5.252   4.640   3.853
17244TIP3   OH273222   0.597   4.366   1.292
17244TIP3    H173223   0.576   4.275   1.311
17244TIP3    H273224   0.632   4.401   1.374
17245TIP3   OH273225   2.955   3.658  15.092
17245TIP3    H173226   3.049   3.665  15.109
17245TIP3    H273227   2.949   3.610  15.009
17246TIP3   OH273228   3.781   5.054   3.414
17246TIP3    H173229   3.773   5.123   3.348
17246TIP3    H273230   3.773   4.973   3.365
17247TIP3   OH273231   6.744   5.610  11.703
17247TIP3    H173232   6.808   5.599  11.773
17247TIP3    H273233   6.663   5.636  11.747
17248TIP3   OH273234   6.756   4.899  13.715
17248TIP3    H173235   6.740   4.805  13.708
17248TIP3    H273236   6.743   4.919  13.807
17249TIP3   OH273237   2.234   2.644  12.914
17249TIP3    H173238   2.166   2.617  12.852
17249TIP3    H273239   2.187   2.696  12.979
17250TIP3   OH273240   0.460   1.260  15.885
17250TIP3    H173241   0.411   1.312  15.950
17250TIP3    H273242   0.538   1.230  15.932
17251TIP3   OH273243   5.088   3.630   2.702
17251TIP3    H173244   5.102   3.535   2.698
17251TIP3    H273245   5.163   3.664   2.751
17252TIP3   OH273246   4.684   1.817  12.999
17252TIP3    H173247   4.603   1.775  13.027
17252TIP3    H273248   4.733   1.748  12.955
17253TIP3   OH273249   5.877   0.010  13.680
17253TIP3    H173250   5.903  -0.081  13.689
17253TIP3    H273251   5.942   0.049  13.622
17254TIP3   OH273252   2.865   3.124  13.339
17254TIP3    H173253   2.909   3.113  13.423
17254TIP3    H273254   2.842   3.035  13.313
17255TIP3   OH273255   2.267   2.738  14.785
17255TIP3    H173256   2.248   2.703  14.698
17255TIP3    H273257   2.283   2.831  14.771
17256TIP3   OH273258   3.228   1.729   1.768
17256TIP3    H173259   3.293   1.720   1.698
17256TIP3    H273260   3.191   1.816   1.756
17257TIP3   OH273261   5.443   5.349   4.433
17257TIP3    H173262   5.479   5.431   4.399
17257TIP3    H273263   5.369   5.330   4.375
17258TIP3   OH273264   0.167   2.876   1.346
17258TIP3    H173265   0.121   2.826   1.279
17258TIP3    H273266   0.098   2.908   1.403
17259TIP3   OH273267   1.189   6.508   6.088
17259TIP3    H173268   1.111   6.549   6.050
17259TIP3    H273269   1.255   6.578   6.088
17260TIP3   OH273270   3.001   5.946  14.822
17260TIP3    H173271   3.056   6.024  14.812
17260TIP3    H273272   2.961   5.955  14.909
17261TIP3   OH273273   1.927   1.582   4.691
17261TIP3    H173274   1.841   1.540   4.683
17261TIP3    H273275   1.920   1.635   4.770
17262TIP3   OH273276   2.510   2.840  13.001
17262TIP3    H173277   2.454   2.887  12.939
17262TIP3    H273278   2.566   2.786  12.945
17263TIP3   OH273279   5.543   6.667   1.780
17263TIP3    H173280   5.604   6.707   1.842
17263TIP3    H273281   5.508   6.592   1.827
17264TIP3   OH273282   0.797   5.796   4.506
17264TIP3    H173283   0.750   5.720   4.471
17264TIP3    H273284   0.860   5.819   4.439
17265TIP3   OH273285   0.232   2.093  14.639
17265TIP3    H173286   0.166   2.097  14.708
17265TIP3    H273287   0.292   2.024  14.668
17266TIP3   OH273288   6.651   5.543   3.637
17266TIP3    H173289   6.654   5.556   3.732
17266TIP3    H273290   6.666   5.630   3.600
17267TIP3   OH273291   0.281   0.616   4.687
17267TIP3    H173292   0.202   0.653   4.648
17267TIP3    H273293   0.277   0.523   4.665
17268TIP3   OH273294   2.811   1.006  14.869
17268TIP3    H173295   2.779   1.088  14.907
17268TIP3    H273296   2.772   0.937  14.923
17269TIP3   OH273297   1.221   0.675  16.175
17269TIP3    H173298   1.191   0.588  16.150
17269TIP3    H273299   1.144   0.717  16.214
17270TIP3   OH273300   5.626   6.491   5.667
17270TIP3    H173301   5.663   6.567   5.712
17270TIP3    H273302   5.552   6.526   5.618
17271TIP3   OH273303   1.922   6.740  13.234
17271TIP3    H173304   1.866   6.802  13.281
17271TIP3    H273305   1.866   6.702  13.167
17272TIP3   OH273306   2.328   0.630  15.460
17272TIP3    H173307   2.343   0.686  15.537
17272TIP3    H273308   2.370   0.676  15.388
17273TIP3   OH273309   1.946   5.950   1.462
17273TIP3    H173310   1.993   5.995   1.534
17273TIP3    H273311   1.854   5.954   1.488
17274TIP3   OH273312   1.309   3.947   2.684
17274TIP3    H173313   1.342   3.907   2.604
17274TIP3    H273314   1.297   4.039   2.662
17275TIP3   OH273315   2.086   2.073   4.437
17275TIP3    H173316   1.997   2.056   4.465
17275TIP3    H273317   2.132   2.101   4.516
17276TIP3   OH273318   2.984   5.728   4.517
17276TIP3    H173319   3.033   5.795   4.470
17276TIP3    H273320   2.935   5.682   4.449
17277TIP3   OH273321   4.584   4.870  16.353
17277TIP3    H173322   4.520   4.799  16.344
17277TIP3    H273323   4.661   4.827  16.390
17278TIP3   OH273324   0.296   1.086   5.805
17278TIP3    H173325   0.272   1.163   5.857
17278TIP3    H273326   0.366   1.044   5.855
17279TIP3   OH273327   3.284   0.031  16.493
17279TIP3    H173328   3.293  -0.064  16.487
17279TIP3    H273329   3.190   0.045  16.503
17280TIP3   OH273330   4.088   4.714  15.201
17280TIP3    H173331   4.182   4.697  15.200
17280TIP3    H273332   4.081   4.808  15.218
17281TIP3   OH273333   0.533   2.394  17.180
17281TIP3    H173334   0.540   2.317  17.236
17281TIP3    H273335   0.450   2.382  17.133
17282TIP3   OH273336   1.439   5.204  14.888
17282TIP3    H173337   1.392   5.188  14.807
17282TIP3    H273338   1.378   5.179  14.957
17283TIP3   OH273339   5.603   6.609   4.378
17283TIP3    H173340   5.594   6.629   4.284
17283TIP3    H273341   5.576   6.689   4.422
17284TIP3   OH273342   2.647   3.851   3.691
17284TIP3    H173343   2.555   3.835   3.670
17284TIP3    H273344   2.647   3.933   3.740
17285TIP3   OH273345   1.833   2.823  17.245
17285TIP3    H173346   1.909   2.779  17.284
17285TIP3    H273347   1.846   2.812  17.150
17286TIP3   OH273348   0.002   4.449   5.592
17286TIP3    H173349   0.005   4.497   5.509
17286TIP3    H273350  -0.012   4.358   5.566
17287TIP3   OH273351   0.727   3.761  14.378
17287TIP3    H173352   0.649   3.796  14.420
17287TIP3    H273353   0.733   3.670  14.408
17288TIP3   OH273354   6.498   3.863   1.067
17288TIP3    H173355   6.445   3.863   1.147
17288TIP3    H273356   6.582   3.827   1.095
17289TIP3   OH273357   4.099   6.635   1.222
17289TIP3    H173358   4.148   6.609   1.144
17289TIP3    H273359   4.037   6.564   1.236
17290TIP3   OH273360   1.434   2.112  15.503
17290TIP3    H173361   1.497   2.046  15.531
17290TIP3    H273362   1.349   2.067  15.506
17291TIP3   OH273363   1.816   3.606  15.770
17291TIP3    H173364   1.851   3.523  15.738
17291TIP3    H273365   1.746   3.628  15.709
17292TIP3   OH273366   2.601   4.737  10.529
17292TIP3    H173367   2.613   4.692  10.446
17292TIP3    H273368   2.633   4.675  10.595
17293TIP3   OH273369   0.249   1.292  12.708
17293TIP3    H173370   0.175   1.344  12.676
17293TIP3    H273371   0.294   1.263  12.629
17294TIP3   OH273372   5.667   4.312  13.316
17294TIP3    H173373   5.577   4.286  13.338
17294TIP3    H273374   5.656   4.391  13.264
17295TIP3   OH273375   4.025   0.328  14.754
17295TIP3    H173376   4.016   0.285  14.839
17295TIP3    H273377   4.062   0.414  14.775
17296TIP3   OH273378   5.459   1.384   5.341
17296TIP3    H173379   5.442   1.291   5.356
17296TIP3    H273380   5.517   1.385   5.265
17297TIP3   OH273381   2.463   5.787   6.347
17297TIP3    H173382   2.397   5.717   6.352
17297TIP3    H273383   2.463   5.825   6.435
17298TIP3   OH273384   2.752   1.572   5.208
17298TIP3    H173385   2.753   1.509   5.136
17298TIP3    H273386   2.836   1.559   5.251
17299TIP3   OH273387   0.427   0.465   3.844
17299TIP3    H173388   0.391   0.478   3.756
17299TIP3    H273389   0.520   0.487   3.835
17300TIP3   OH273390   2.348   6.693  12.863
17300TIP3    H173391   2.324   6.697  12.770
17300TIP3    H273392   2.284   6.633  12.902
17301TIP3   OH273393   1.493   5.847   2.800
17301TIP3    H173394   1.462   5.903   2.871
17301TIP3    H273395   1.427   5.857   2.731
17302TIP3   OH273396   2.564   2.233   1.703
17302TIP3    H173397   2.581   2.313   1.653
17302TIP3    H273398   2.539   2.169   1.636
17303TIP3   OH273399   1.030   5.278   1.395
17303TIP3    H173400   1.068   5.339   1.331
17303TIP3    H273401   0.936   5.286   1.382
17304TIP3   OH273402   1.439   5.038   4.931
17304TIP3    H173403   1.525   5.037   4.888
17304TIP3    H273404   1.446   5.107   4.996
17305TIP3   OH273405   5.075   4.705   2.376
17305TIP3    H173406   5.164   4.700   2.411
17305TIP3    H273407   5.074   4.786   2.325
17306TIP3   OH273408   2.396   3.382  16.613
17306TIP3    H173409   2.353   3.463  16.640
17306TIP3    H273410   2.340   3.313  16.648
17307TIP3   OH273411   4.113   3.067   4.800
17307TIP3    H173412   4.147   3.029   4.880
17307TIP3    H273413   4.018   3.071   4.813
17308TIP3   OH273414   5.072   1.201  12.034
17308TIP3    H173415   5.065   1.142  11.959
17308TIP3    H273416   4.991   1.189  12.082
17309TIP3   OH273417   1.531   4.793  14.759
17309TIP3    H173418   1.491   4.851  14.694
17309TIP3    H273419   1.530   4.707  14.717
17310TIP3   OH273420   1.559   6.758   1.065
17310TIP3    H173421   1.635   6.817   1.068
17310TIP3    H273422   1.484   6.817   1.060
17311TIP3   OH273423   4.573   3.812  13.390
17311TIP3    H173424   4.506   3.753  13.354
17311TIP3    H273425   4.581   3.881  13.324
17312TIP3   OH273426   4.930   0.454   4.175
17312TIP3    H173427   4.920   0.510   4.252
17312TIP3    H273428   4.915   0.365   4.208
17313TIP3   OH273429   2.628   5.618   3.593
17313TIP3    H173430   2.717   5.591   3.570
17313TIP3    H273431   2.574   5.583   3.522
17314TIP3   OH273432   0.792   3.895  13.635
17314TIP3    H173433   0.852   3.834  13.678
17314TIP3    H273434   0.791   3.971  13.693
17315TIP3   OH273435   0.919   6.066  13.141
17315TIP3    H173436   0.849   6.012  13.177
17315TIP3    H273437   0.888   6.091  13.054
17316TIP3   OH273438   4.305   1.736   4.916
17316TIP3    H173439   4.219   1.746   4.959
17316TIP3    H273440   4.327   1.644   4.929
17317TIP3   OH273441   1.531   0.277   5.251
17317TIP3    H173442   1.516   0.368   5.227
17317TIP3    H273443   1.627   0.268   5.253
17318TIP3   OH273444   2.126   6.286  13.435
17318TIP3    H173445   2.089   6.234  13.364
17318TIP3    H273446   2.131   6.226  13.509
17319TIP3   OH273447   5.566   0.531  16.001
17319TIP3    H173448   5.479   0.530  16.042
17319TIP3    H273449   5.577   0.443  15.965
17320TIP3   OH273450   3.321   6.620   1.191
17320TIP3    H173451   3.356   6.534   1.214
17320TIP3    H273452   3.373   6.682   1.243
17321TIP3   OH273453   6.418   1.358  14.240
17321TIP3    H173454   6.449   1.396  14.157
17321TIP3    H273455   6.488   1.377  14.302
17322TIP3   OH273456   0.852   2.876   0.001
17322TIP3    H173457   0.921   2.910  -0.056
17322TIP3    H273458   0.815   2.802  -0.047
17323TIP3   OH273459   3.677   1.265   0.461
17323TIP3    H173460   3.708   1.303   0.543
17323TIP3    H273461   3.685   1.337   0.398
17324TIP3   OH273462   2.758   4.189  14.638
17324TIP3    H173463   2.704   4.183  14.718
17324TIP3    H273464   2.741   4.277  14.605
17325TIP3   OH273465   2.825   2.730  15.691
17325TIP3    H173466   2.845   2.814  15.648
17325TIP3    H273467   2.758   2.752  15.755
17326TIP3   OH273468   5.203   3.435   0.235
17326TIP3    H173469   5.287   3.481   0.248
17326TIP3    H273470   5.205   3.363   0.298
17327TIP3   OH273471   6.158   1.084   6.002
17327TIP3    H173472   6.076   1.073   6.049
17327TIP3    H273473   6.213   1.012   6.034
17328TIP3   OH273474   1.900   3.078   4.906
17328TIP3    H173475   1.866   3.069   4.816
17328TIP3    H273476   1.829   3.044   4.961
17329TIP3   OH273477   0.250   6.012  16.832
17329TIP3    H173478   0.209   6.067  16.899
17329TIP3    H273479   0.315   5.960  16.879
17330TIP3   OH273480   0.579   3.926  15.741
17330TIP3    H173481   0.546   4.014  15.721
17330TIP3    H273482   0.658   3.942  15.792
17331TIP3   OH273483   1.272   5.724   4.754
17331TIP3    H173484   1.365   5.724   4.732
17331TIP3    H273485   1.248   5.817   4.753
17332TIP3   OH273486   0.072   4.121   0.437
17332TIP3    H173487   0.145   4.115   0.376
17332TIP3    H273488   0.049   4.030   0.456
17333TIP3   OH273489   2.693   1.612   1.808
17333TIP3    H173490   2.764   1.675   1.794
17333TIP3    H273491   2.621   1.665   1.842
17334TIP3   OH273492   5.954   5.462   2.398
17334TIP3    H173493   5.897   5.490   2.326
17334TIP3    H273494   5.894   5.436   2.467
17335TIP3   OH273495   0.243   5.724   6.572
17335TIP3    H173496   0.217   5.796   6.630
17335TIP3    H273497   0.301   5.670   6.626
17336TIP3   OH273498   3.182   5.083   0.854
17336TIP3    H173499   3.209   5.021   0.787
17336TIP3    H273500   3.137   5.153   0.806
17337TIP3   OH273501   6.244   0.377  16.029
17337TIP3    H173502   6.308   0.444  16.006
17337TIP3    H273503   6.267   0.352  16.119
17338TIP3   OH273504   6.002   1.162   6.237
17338TIP3    H173505   5.991   1.069   6.259
17338TIP3    H273506   6.060   1.196   6.304
17339TIP3   OH273507   6.163   0.367   0.212
17339TIP3    H173508   6.206   0.404   0.135
17339TIP3    H273509   6.231   0.316   0.256
17340TIP3   OH273510   4.255   5.198   3.147
17340TIP3    H173511   4.281   5.195   3.239
17340TIP3    H273512   4.317   5.259   3.106
17341TIP3   OH273513   6.302   2.940  16.507
17341TIP3    H173514   6.344   2.856  16.491
17341TIP3    H273515   6.258   2.961  16.425
17342TIP3   OH273516   5.826   2.920   5.202
17342TIP3    H173517   5.755   2.977   5.230
17342TIP3    H273518   5.827   2.849   5.265
17343TIP3   OH273519   3.929   6.311  11.514
17343TIP3    H173520   3.938   6.335  11.606
17343TIP3    H273521   3.987   6.372  11.468
17344TIP3   OH273522   2.942   0.472  14.365
17344TIP3    H173523   2.887   0.412  14.315
17344TIP3    H273524   2.903   0.473  14.453
17345TIP3   OH273525   5.432   5.457  11.058
17345TIP3    H173526   5.367   5.443  11.127
17345TIP3    H273527   5.383   5.445  10.977
17346TIP3   OH273528   3.569   1.207  15.360
17346TIP3    H173529   3.477   1.184  15.377
17346TIP3    H273530   3.593   1.156  15.283
17347TIP3   OH273531   6.139   1.624   2.035
17347TIP3    H173532   6.126   1.575   2.117
17347TIP3    H273533   6.195   1.698   2.060
17348TIP3   OH273534   0.612   1.217   0.452
17348TIP3    H173535   0.565   1.244   0.531
17348TIP3    H273536   0.636   1.126   0.469
17349TIP3   OH273537   2.735   3.596  15.245
17349TIP3    H173538   2.682   3.560  15.174
17349TIP3    H273539   2.820   3.615  15.203
17350TIP3   OH273540   0.023   6.663   0.614
17350TIP3    H173541  -0.025   6.592   0.658
17350TIP3    H273542   0.068   6.709   0.685
17351TIP3   OH273543   1.437   2.292   2.634
17351TIP3    H173544   1.526   2.302   2.603
17351TIP3    H273545   1.383   2.340   2.570
17352TIP3   OH273546   5.436   0.041  11.383
17352TIP3    H173547   5.387  -0.039  11.364
17352TIP3    H273548   5.436   0.089  11.301
17353TIP3   OH273549   1.726   0.842  14.932
17353TIP3    H173550   1.727   0.763  14.986
17353TIP3    H273551   1.816   0.874  14.935
17354TIP3   OH273552   5.666   5.667  14.856
17354TIP3    H173553   5.676   5.599  14.922
17354TIP3    H273554   5.728   5.735  14.881
17355TIP3   OH273555   4.120   3.155  12.068
17355TIP3    H173556   4.104   3.088  12.002
17355TIP3    H273557   4.072   3.126  12.145
17356TIP3   OH273558   1.653   2.324   3.089
17356TIP3    H173559   1.692   2.248   3.047
17356TIP3    H273560   1.637   2.386   3.018
17357TIP3   OH273561   3.838   3.976  14.184
17357TIP3    H173562   3.855   3.889  14.149
17357TIP3    H273563   3.924   4.016  14.193
17358TIP3   OH273564   1.694   2.483  16.775
17358TIP3    H173565   1.604   2.471  16.803
17358TIP3    H273566   1.694   2.567  16.729
17359TIP3   OH273567   5.423   6.642   5.542
17359TIP3    H173568   5.362   6.711   5.568
17359TIP3    H273569   5.419   6.643   5.446
17360TIP3   OH273570   0.485   1.035  13.408
17360TIP3    H173571   0.551   1.097  13.439
17360TIP3    H273572   0.527   0.990  13.334
17361TIP3   OH273573   0.944   5.514   5.706
17361TIP3    H173574   1.038   5.528   5.719
17361TIP3    H273575   0.939   5.433   5.654
17362TIP3   OH273576   2.819   6.265   0.694
17362TIP3    H173577   2.898   6.259   0.748
17362TIP3    H273578   2.851   6.254   0.604
17363TIP3   OH273579   5.479   0.431   5.279
17363TIP3    H173580   5.538   0.418   5.353
17363TIP3    H273581   5.397   0.388   5.305
17364TIP3   OH273582   4.906   6.072  12.534
17364TIP3    H173583   4.881   6.163  12.546
17364TIP3    H273584   4.823   6.026  12.523
17365TIP3   OH273585   2.279   3.611  17.040
17365TIP3    H173586   2.295   3.581  17.129
17365TIP3    H273587   2.305   3.703  17.041
17366TIP3   OH273588   4.590   5.084   3.947
17366TIP3    H173589   4.598   5.162   4.001
17366TIP3    H273590   4.587   5.117   3.857
17367TIP3   OH273591   2.612   2.682   3.231
17367TIP3    H173592   2.616   2.613   3.164
17367TIP3    H273593   2.529   2.726   3.215
17368TIP3   OH273594   2.937   5.501  12.413
17368TIP3    H173595   3.002   5.523  12.345
17368TIP3    H273596   2.988   5.457  12.481
17369TIP3   OH273597   3.234   6.303   0.281
17369TIP3    H173598   3.193   6.284   0.197
17369TIP3    H273599   3.218   6.225   0.334
17370TIP3   OH273600   1.555   3.090   5.974
17370TIP3    H173601   1.536   3.094   5.881
17370TIP3    H273602   1.473   3.112   6.017
17371TIP3   OH273603   2.849   2.226   4.924
17371TIP3    H173604   2.839   2.318   4.950
17371TIP3    H273605   2.928   2.225   4.871
17372TIP3   OH273606   4.887   2.510  14.582
17372TIP3    H173607   4.905   2.429  14.629
17372TIP3    H273608   4.917   2.493  14.492
17373TIP3   OH273609   3.292   1.143  15.266
17373TIP3    H173610   3.238   1.201  15.319
17373TIP3    H273611   3.242   1.061  15.262
17374TIP3   OH273612   0.427   5.761  11.980
17374TIP3    H173613   0.380   5.677  11.983
17374TIP3    H273614   0.357   5.827  11.986
17375TIP3   OH273615   6.812   2.953  12.987
17375TIP3    H173616   6.817   3.008  12.908
17375TIP3    H273617   6.794   2.865  12.954
17376TIP3   OH273618   1.423   2.108  10.954
17376TIP3    H173619   1.377   2.058  10.887
17376TIP3    H273620   1.462   2.042  11.011
17377TIP3   OH273621   0.114   6.141   2.998
17377TIP3    H173622   0.209   6.127   3.007
17377TIP3    H273623   0.098   6.136   2.904
17378TIP3   OH273624   3.977   5.697  14.053
17378TIP3    H173625   3.930   5.665  13.976
17378TIP3    H273626   3.992   5.790  14.036
17379TIP3   OH273627   3.915   0.269   5.450
17379TIP3    H173628   3.886   0.360   5.451
17379TIP3    H273629   3.901   0.238   5.540
17380TIP3   OH273630   5.767   4.836  14.998
17380TIP3    H173631   5.809   4.771  14.941
17380TIP3    H273632   5.840   4.886  15.035
17381TIP3   OH273633   5.330   3.459  14.632
17381TIP3    H173634   5.368   3.502  14.709
17381TIP3    H273635   5.374   3.375  14.627
17382TIP3   OH273636   5.690   3.921   3.632
17382TIP3    H173637   5.627   3.984   3.668
17382TIP3    H273638   5.670   3.917   3.539
17383TIP3   OH273639   1.235   4.047   2.287
17383TIP3    H173640   1.328   4.068   2.289
17383TIP3    H273641   1.192   4.124   2.326
17384TIP3   OH273642   1.021   6.643  13.335
17384TIP3    H173643   1.116   6.656  13.337
17384TIP3    H273644   1.010   6.560  13.288
17385TIP3   OH273645   5.753   6.697   2.947
17385TIP3    H173646   5.747   6.762   3.017
17385TIP3    H273647   5.829   6.644   2.971
17386TIP3   OH273648   6.248   3.229  10.850
17386TIP3    H173649   6.237   3.192  10.762
17386TIP3    H273650   6.327   3.281  10.844
17387TIP3   OH273651   1.560   5.088  10.811
17387TIP3    H173652   1.598   5.086  10.723
17387TIP3    H273653   1.514   5.172  10.815
17388TIP3   OH273654   4.681   4.823  11.968
17388TIP3    H173655   4.685   4.858  12.057
17388TIP3    H273656   4.592   4.787  11.961
17389TIP3   OH273657   3.747   0.186   2.276
17389TIP3    H173658   3.683   0.118   2.300
17389TIP3    H273659   3.739   0.252   2.345
17390TIP3   OH273660   3.567   6.431  14.174
17390TIP3    H173661   3.597   6.351  14.218
17390TIP3    H273662   3.620   6.435  14.095
17391TIP3   OH273663   0.597   2.150   0.283
17391TIP3    H173664   0.593   2.164   0.188
17391TIP3    H273665   0.577   2.057   0.294
17392TIP3   OH273666   0.422   1.412   4.171
17392TIP3    H173667   0.446   1.320   4.161
17392TIP3    H273668   0.425   1.426   4.266
17393TIP3   OH273669   0.479   0.409   1.046
17393TIP3    H173670   0.404   0.468   1.037
17393TIP3    H273671   0.475   0.353   0.969
17394TIP3   OH273672   5.593   2.724  14.621
17394TIP3    H173673   5.514   2.761  14.661
17394TIP3    H273674   5.560   2.684  14.540
17395TIP3   OH273675   3.141   0.303   4.507
17395TIP3    H173676   3.125   0.298   4.412
17395TIP3    H273677   3.236   0.309   4.514
17396TIP3   OH273678   2.555   0.691   3.634
17396TIP3    H173679   2.563   0.751   3.708
17396TIP3    H273680   2.529   0.608   3.674
17397TIP3   OH273681   5.025   4.386   5.186
17397TIP3    H173682   5.035   4.389   5.281
17397TIP3    H273683   5.083   4.454   5.153
17398TIP3   OH273684   4.084   5.051   0.771
17398TIP3    H173685   4.090   4.991   0.845
17398TIP3    H273686   3.996   5.039   0.738
17399TIP3   OH273687   4.832   5.545  11.043
17399TIP3    H173688   4.921   5.569  11.068
17399TIP3    H273689   4.793   5.626  11.009
17400TIP3   OH273690   3.228   1.739  14.706
17400TIP3    H173691   3.297   1.805  14.703
17400TIP3    H273692   3.270   1.659  14.672
17401TIP3   OH273693   1.752   0.718   4.420
17401TIP3    H173694   1.755   0.641   4.364
17401TIP3    H273695   1.681   0.700   4.482
17402TIP3   OH273696   0.258   0.499  15.169
17402TIP3    H173697   0.289   0.439  15.101
17402TIP3    H273698   0.292   0.462  15.250
17403TIP3   OH273699   4.854   4.570  14.936
17403TIP3    H173700   4.853   4.513  15.013
17403TIP3    H273701   4.918   4.638  14.958
17404TIP3   OH273702   2.567   4.530  15.978
17404TIP3    H173703   2.472   4.524  15.989
17404TIP3    H273704   2.603   4.485  16.055
17405TIP3   OH273705   1.578   0.535   1.921
17405TIP3    H173706   1.614   0.535   2.009
17405TIP3    H273707   1.494   0.579   1.929
17406TIP3   OH273708   6.148   5.753  16.356
17406TIP3    H173709   6.148   5.660  16.377
17406TIP3    H273710   6.117   5.796  16.436
17407TIP3   OH273711   5.655   5.159   2.355
17407TIP3    H173712   5.580   5.161   2.415
17407TIP3    H273713   5.695   5.073   2.369
17408TIP3   OH273714   5.371   6.086   2.069
17408TIP3    H173715   5.356   6.152   2.001
17408TIP3    H273716   5.344   6.003   2.029
17409TIP3   OH273717   3.840   2.872  14.048
17409TIP3    H173718   3.842   2.867  13.952
17409TIP3    H273719   3.906   2.809  14.076
17410TIP3   OH273720   1.216   0.921  15.235
17410TIP3    H173721   1.134   0.891  15.275
17410TIP3    H273722   1.238   0.852  15.172
17411TIP3   OH273723   3.041   4.130  12.432
17411TIP3    H173724   3.136   4.145  12.440
17411TIP3    H273725   3.022   4.146  12.339
17412TIP3   OH273726   3.963   4.165  11.470
17412TIP3    H173727   3.914   4.084  11.455
17412TIP3    H273728   3.932   4.197  11.554
17413TIP3   OH273729   6.804   1.371  12.315
17413TIP3    H173730   6.731   1.429  12.297
17413TIP3    H273731   6.770   1.283  12.295
17414TIP3   OH273732   2.235   5.502   3.834
17414TIP3    H173733   2.142   5.521   3.845
17414TIP3    H273734   2.279   5.566   3.889
17415TIP3   OH273735   1.469   4.534   0.012
17415TIP3    H173736   1.482   4.599   0.081
17415TIP3    H273737   1.381   4.501   0.027
17416TIP3   OH273738   2.586   3.064   3.860
17416TIP3    H173739   2.557   3.092   3.773
17416TIP3    H273740   2.529   2.990   3.882
17417TIP3   OH273741   1.805   2.294  12.469
17417TIP3    H173742   1.750   2.256  12.537
17417TIP3    H273743   1.758   2.276  12.387
17418TIP3   OH273744   4.822   5.087  15.197
17418TIP3    H173745   4.897   5.146  15.205
17418TIP3    H273746   4.839   5.018  15.260
17419TIP3   OH273747   4.548   5.218   2.276
17419TIP3    H173748   4.570   5.161   2.350
17419TIP3    H273749   4.564   5.306   2.308
17420TIP3   OH273750   5.225   4.198  13.219
17420TIP3    H173751   5.291   4.134  13.243
17420TIP3    H273752   5.141   4.156  13.239
17421TIP3   OH273753   1.263   1.347   0.271
17421TIP3    H173754   1.224   1.266   0.239
17421TIP3    H273755   1.195   1.388   0.324
17422TIP3   OH273756   0.239   4.504  11.304
17422TIP3    H173757   0.199   4.526  11.220
17422TIP3    H273758   0.278   4.586  11.334
17423TIP3   OH273759   2.496   2.212   0.932
17423TIP3    H173760   2.554   2.230   1.006
17423TIP3    H273761   2.420   2.268   0.946
17424TIP3   OH273762   0.841   2.788   3.983
17424TIP3    H173763   0.890   2.821   4.058
17424TIP3    H273764   0.859   2.851   3.913
17425TIP3   OH273765   2.235   3.381   5.538
17425TIP3    H173766   2.214   3.398   5.446
17425TIP3    H273767   2.279   3.460   5.568
17426TIP3   OH273768   4.863   2.111  12.643
17426TIP3    H173769   4.777   2.071  12.651
17426TIP3    H273770   4.888   2.134  12.732
17427TIP3   OH273771   6.032   3.664   1.824
17427TIP3    H173772   6.037   3.578   1.865
17427TIP3    H273773   5.942   3.669   1.790
17428TIP3   OH273774   4.285   4.788  14.624
17428TIP3    H173775   4.202   4.781  14.578
17428TIP3    H273776   4.285   4.876  14.661
17429TIP3   OH273777   4.303   5.038  14.757
17429TIP3    H173778   4.264   5.065  14.840
17429TIP3    H273779   4.387   5.085  14.754
17430TIP3   OH273780   3.690   5.431   0.777
17430TIP3    H173781   3.730   5.441   0.691
17430TIP3    H273782   3.685   5.519   0.812
17431TIP3   OH273783   4.112   0.999  11.478
17431TIP3    H173784   4.132   0.915  11.518
17431TIP3    H273785   4.093   0.978  11.387
17432TIP3   OH273786   1.287   2.484  16.061
17432TIP3    H173787   1.204   2.447  16.030
17432TIP3    H273788   1.263   2.572  16.093
17433TIP3   OH273789   2.289   3.757  12.398
17433TIP3    H173790   2.264   3.674  12.439
17433TIP3    H273791   2.294   3.819  12.471
17434TIP3   OH273792   3.658   5.157  13.208
17434TIP3    H173793   3.571   5.121  13.192
17434TIP3    H273794   3.686   5.118  13.291
17435TIP3   OH273795   5.466   6.556   3.566
17435TIP3    H173796   5.388   6.571   3.512
17435TIP3    H273797   5.538   6.593   3.515
17436TIP3   OH273798   5.738   3.199  14.125
17436TIP3    H173799   5.822   3.188  14.169
17436TIP3    H273800   5.704   3.110  14.115
17437TIP3   OH273801   6.749   2.289   0.228
17437TIP3    H173802   6.781   2.316   0.314
17437TIP3    H273803   6.661   2.255   0.246
17438TIP3   OH273804   0.951   0.756  11.994
17438TIP3    H173805   0.889   0.797  12.055
17438TIP3    H273806   0.909   0.673  11.971
17439TIP3   OH273807   3.762   2.494  16.010
17439TIP3    H173808   3.828   2.563  16.006
17439TIP3    H273809   3.689   2.533  16.059
17440TIP3   OH273810   4.217   5.863   1.661
17440TIP3    H173811   4.213   5.924   1.734
17440TIP3    H273812   4.159   5.791   1.687
17441TIP3   OH273813   4.425   1.833  17.082
17441TIP3    H173814   4.407   1.795  16.996
17441TIP3    H273815   4.515   1.865  17.076
17442TIP3   OH273816   6.169   0.836  15.012
17442TIP3    H173817   6.221   0.913  14.990
17442TIP3    H273818   6.162   0.787  14.930
17443TIP3   OH273819   2.918   1.162  15.551
17443TIP3    H173820   2.949   1.072  15.548
17443TIP3    H273821   2.987   1.213  15.508
17444TIP3   OH273822   5.552   3.856   4.074
17444TIP3    H173823   5.538   3.949   4.056
17444TIP3    H273824   5.595   3.823   3.995
17445TIP3   OH273825   3.337   0.417   5.848
17445TIP3    H173826   3.295   0.331   5.854
17445TIP3    H273827   3.323   0.456   5.934
17446TIP3   OH273828   4.304   2.137  13.979
17446TIP3    H173829   4.383   2.089  13.954
17446TIP3    H273830   4.236   2.104  13.920
17447TIP3   OH273831   1.080   2.789   3.609
17447TIP3    H173832   0.988   2.812   3.623
17447TIP3    H273833   1.104   2.838   3.530
17448TIP3   OH273834   1.140   0.018  15.620
17448TIP3    H173835   1.129   0.047  15.530
17448TIP3    H273836   1.109  -0.073  15.620
17449TIP3   OH273837   5.169   3.104  16.724
17449TIP3    H173838   5.255   3.139  16.747
17449TIP3    H273839   5.155   3.132  16.633
17450TIP3   OH273840   0.599   1.414  17.215
17450TIP3    H173841   0.594   1.328  17.257
17450TIP3    H273842   0.688   1.445  17.235
17451TIP3   OH273843   3.785   5.203  16.148
17451TIP3    H173844   3.728   5.129  16.166
17451TIP3    H273845   3.726   5.279  16.145
17452TIP3   OH273846   0.448   4.477  14.207
17452TIP3    H173847   0.374   4.418  14.193
17452TIP3    H273848   0.509   4.427  14.261
17453TIP3   OH273849   6.390   0.308  13.971
17453TIP3    H173850   6.478   0.323  13.934
17453TIP3    H273851   6.385   0.213  13.983
17454TIP3   OH273852   5.391   6.715   2.083
17454TIP3    H173853   5.422   6.790   2.034
17454TIP3    H273854   5.296   6.716   2.071
17455TIP3   OH273855   4.490   1.762  11.750
17455TIP3    H173856   4.435   1.733  11.823
17455TIP3    H273857   4.452   1.718  11.674
17456TIP3   OH273858   1.935   3.508   1.375
17456TIP3    H173859   2.008   3.446   1.385
17456TIP3    H273860   1.882   3.496   1.453
17457TIP3   OH273861   6.157   4.013   2.493
17457TIP3    H173862   6.230   4.027   2.433
17457TIP3    H273863   6.197   4.003   2.579
17458TIP3   OH273864   4.944   1.981  11.436
17458TIP3    H173865   4.955   1.986  11.341
17458TIP3    H273866   4.875   1.917  11.449
17459TIP3   OH273867   3.746   2.307  13.146
17459TIP3    H173868   3.769   2.399  13.132
17459TIP3    H273869   3.729   2.273  13.058
17460TIP3   OH273870   3.110   3.882  13.480
17460TIP3    H173871   3.128   3.944  13.551
17460TIP3    H273872   3.189   3.883  13.426
17461TIP3   OH273873   4.691   1.544   4.694
17461TIP3    H173874   4.741   1.624   4.686
17461TIP3    H273875   4.741   1.478   4.646
17462TIP3   OH273876   3.029   3.305  12.715
17462TIP3    H173877   3.118   3.297  12.750
17462TIP3    H273878   3.016   3.399  12.701
17463TIP3   OH273879   6.435   1.237  13.936
17463TIP3    H173880   6.400   1.280  13.858
17463TIP3    H273881   6.358   1.200  13.980
17464TIP3   OH273882   4.660   6.751   5.119
17464TIP3    H173883   4.698   6.826   5.071
17464TIP3    H273884   4.668   6.775   5.211
17465TIP3   OH273885   0.305   1.678   5.644
17465TIP3    H173886   0.321   1.618   5.717
17465TIP3    H273887   0.391   1.717   5.627
17466TIP3   OH273888   0.209   6.059  11.613
17466TIP3    H173889   0.232   6.145  11.650
17466TIP3    H273890   0.128   6.075  11.564
17467TIP3   OH273891   6.098   6.470   5.183
17467TIP3    H173892   6.031   6.461   5.250
17467TIP3    H273893   6.121   6.563   5.184
17468TIP3   OH273894   2.070   3.597   2.771
17468TIP3    H173895   2.146   3.548   2.741
17468TIP3    H273896   2.099   3.638   2.852
17469TIP3   OH273897   4.297   6.022  16.149
17469TIP3    H173898   4.332   5.963  16.216
17469TIP3    H273899   4.254   5.963  16.086
17470TIP3   OH273900   1.652   2.020   3.750
17470TIP3    H173901   1.655   2.094   3.810
17470TIP3    H273902   1.596   1.956   3.793
17471TIP3   OH273903   4.328   1.748   5.680
17471TIP3    H173904   4.317   1.840   5.706
17471TIP3    H273905   4.279   1.741   5.598
17472TIP3   OH273906   2.672   2.775   2.327
17472TIP3    H173907   2.641   2.707   2.268
17472TIP3    H273908   2.616   2.850   2.309
17473TIP3   OH273909   3.319   3.966  11.197
17473TIP3    H173910   3.275   3.920  11.268
17473TIP3    H273911   3.343   4.051  11.235
17474TIP3   OH273912   5.845   5.995   5.512
17474TIP3    H173913   5.787   5.965   5.442
17474TIP3    H273914   5.822   5.942   5.588
17475TIP3   OH273915   4.895   0.041  13.090
17475TIP3    H173916   4.942   0.075  13.014
17475TIP3    H273917   4.863  -0.045  13.062
17476TIP3   OH273918   2.861   1.815   5.081
17476TIP3    H173919   2.822   1.744   5.132
17476TIP3    H273920   2.839   1.895   5.129
17477TIP3   OH273921   5.352   2.797   0.996
17477TIP3    H173922   5.347   2.809   1.091
17477TIP3    H273923   5.445   2.810   0.976
17478TIP3   OH273924   0.929   6.747  13.571
17478TIP3    H173925   0.858   6.812  13.571
17478TIP3    H273926   0.941   6.724  13.479
17479TIP3   OH273927   4.694   6.098  11.707
17479TIP3    H173928   4.680   6.074  11.798
17479TIP3    H273929   4.782   6.135  11.704
17480TIP3   OH273930   2.516   0.303  11.221
17480TIP3    H173931   2.539   0.363  11.292
17480TIP3    H273932   2.500   0.219  11.265
17481TIP3   OH273933   4.217   6.544   0.372
17481TIP3    H173934   4.200   6.573   0.283
17481TIP3    H273935   4.309   6.565   0.387
17482TIP3   OH273936   2.274   6.512   2.427
17482TIP3    H173937   2.230   6.475   2.503
17482TIP3    H273938   2.365   6.524   2.455
17483TIP3   OH273939   0.026   6.091  12.281
17483TIP3    H173940   0.079   6.115  12.205
17483TIP3    H273941  -0.064   6.095  12.249
17484TIP3   OH273942   3.716   2.868   4.049
17484TIP3    H173943   3.750   2.941   4.101
17484TIP3    H273944   3.691   2.908   3.965
17485TIP3   OH273945   1.378   5.843   3.177
17485TIP3    H173946   1.359   5.917   3.120
17485TIP3    H273947   1.293   5.802   3.193
17486TIP3   OH273948   2.079   1.979  16.920
17486TIP3    H173949   2.101   1.979  17.014
17486TIP3    H273950   2.141   2.041  16.882
17487TIP3   OH273951   3.700   0.693   4.720
17487TIP3    H173952   3.609   0.665   4.722
17487TIP3    H273953   3.735   0.665   4.805
17488TIP3   OH273954   4.314   4.896   4.113
17488TIP3    H173955   4.329   4.904   4.019
17488TIP3    H273956   4.328   4.984   4.148
17489TIP3   OH273957   6.617   3.131  16.760
17489TIP3    H173958   6.710   3.107  16.757
17489TIP3    H273959   6.587   3.122  16.670
17490TIP3   OH273960   6.076   0.651   3.517
17490TIP3    H173961   6.009   0.690   3.461
17490TIP3    H273962   6.158   0.670   3.473
17491TIP3   OH273963   4.416   0.812  12.370
17491TIP3    H173964   4.401   0.902  12.401
17491TIP3    H273965   4.509   0.797  12.387
17492TIP3   OH273966   0.241   5.799   0.263
17492TIP3    H173967   0.284   5.714   0.253
17492TIP3    H273968   0.179   5.803   0.190
17493TIP3   OH273969   0.918   1.673  10.279
17493TIP3    H173970   0.904   1.654  10.371
17493TIP3    H273971   0.838   1.717  10.251
17494TIP3   OH273972   3.240   3.194  11.078
17494TIP3    H173973   3.210   3.103  11.075
17494TIP3    H273974   3.282   3.209  10.993
17495TIP3   OH273975   4.961   1.590  11.601
17495TIP3    H173976   5.025   1.659  11.619
17495TIP3    H273977   4.941   1.600  11.508
17496TIP3   OH273978   4.116   2.203  14.748
17496TIP3    H173979   4.080   2.176  14.833
17496TIP3    H273980   4.040   2.224  14.695
17497TIP3   OH273981   3.890   6.391  11.781
17497TIP3    H173982   3.970   6.406  11.831
17497TIP3    H273983   3.871   6.475  11.740
17498TIP3   OH273984   2.720   5.344   1.603
17498TIP3    H173985   2.809   5.334   1.637
17498TIP3    H273986   2.726   5.314   1.512
17499TIP3   OH273987   6.097   3.343  12.082
17499TIP3    H173988   6.151   3.332  12.160
17499TIP3    H273989   6.007   3.342  12.114
17500TIP3   OH273990   4.064   3.785  13.077
17500TIP3    H173991   4.042   3.817  13.165
17500TIP3    H273992   3.984   3.742  13.047
17501TIP3   OH273993   4.993   2.777   1.866
17501TIP3    H173994   4.976   2.856   1.917
17501TIP3    H273995   5.018   2.711   1.931
17502TIP3   OH273996   5.459   1.773   0.995
17502TIP3    H173997   5.370   1.805   1.006
17502TIP3    H273998   5.453   1.706   0.927
17503TIP3   OH273999   1.475   4.505  12.746
17503TIP3    H174000   1.506   4.524  12.657
17503TIP3    H274001   1.459   4.591  12.784
17504TIP3   OH274002   1.597   0.399  16.902
17504TIP3    H174003   1.600   0.313  16.944
17504TIP3    H274004   1.568   0.459  16.971
17505TIP3   OH274005   2.636   1.730  13.063
17505TIP3    H174006   2.648   1.635  13.064
17505TIP3    H274007   2.721   1.765  13.036
17506TIP3   OH274008   3.284   2.514  12.774
17506TIP3    H174009   3.288   2.577  12.701
17506TIP3    H274010   3.219   2.551  12.833
17507TIP3   OH274011   0.493   1.164   1.040
17507TIP3    H174012   0.446   1.242   1.067
17507TIP3    H274013   0.453   1.138   0.957
17508TIP3   OH274014   0.007   0.273   4.888
17508TIP3    H174015  -0.007   0.288   4.982
17508TIP3    H274016  -0.061   0.325   4.845
17509TIP3   OH274017   1.636   4.066  15.169
17509TIP3    H174018   1.712   4.008  15.174
17509TIP3    H274019   1.669   4.152  15.191
17510TIP3   OH274020   0.028   1.550   0.896
17510TIP3    H174021  -0.047   1.591   0.939
17510TIP3    H274022   0.003   1.547   0.803
17511TIP3   OH274023   0.812   1.782   3.419
17511TIP3    H174024   0.837   1.744   3.504
17511TIP3    H274025   0.751   1.718   3.382
17512TIP3   OH274026   0.218   0.315   1.713
17512TIP3    H174027   0.212   0.268   1.630
17512TIP3    H274028   0.303   0.289   1.749
17513TIP3   OH274029   2.369   5.313  15.466
17513TIP3    H174030   2.424   5.235  15.454
17513TIP3    H274031   2.391   5.343  15.554
17514TIP3   OH274032   6.143   3.478   3.454
17514TIP3    H174033   6.221   3.497   3.403
17514TIP3    H274034   6.084   3.551   3.437
17515TIP3   OH274035   0.012   4.274  15.465
17515TIP3    H174036  -0.064   4.222  15.437
17515TIP3    H274037  -0.020   4.329  15.536
17516TIP3   OH274038   1.968   2.843  11.002
17516TIP3    H174039   1.929   2.755  11.004
17516TIP3    H274040   1.904   2.895  10.953
17517TIP3   OH274041   2.658   3.638  12.248
17517TIP3    H174042   2.621   3.554  12.224
17517TIP3    H274043   2.634   3.649  12.340
17518TIP3   OH274044   3.741   1.426  15.409
17518TIP3    H174045   3.677   1.356  15.393
17518TIP3    H274046   3.693   1.507  15.389
17519TIP3   OH274047   4.938   4.331  11.185
17519TIP3    H174048   4.897   4.386  11.119
17519TIP3    H274049   5.013   4.291  11.140
17520TIP3   OH274050   1.618   2.377  15.369
17520TIP3    H174051   1.554   2.420  15.425
17520TIP3    H274052   1.669   2.321  15.428
17521TIP3   OH274053   5.850   5.022  11.848
17521TIP3    H174054   5.833   5.116  11.852
17521TIP3    H274055   5.893   5.008  11.764
17522TIP3   OH274056   6.157   0.417   2.267
17522TIP3    H174057   6.200   0.503   2.264
17522TIP3    H274058   6.066   0.437   2.290
17523TIP3   OH274059   5.715   1.021  14.841
17523TIP3    H174060   5.787   0.984  14.893
17523TIP3    H274061   5.717   0.971  14.759
17524TIP3   OH274062   4.122   5.609   1.641
17524TIP3    H174063   4.179   5.543   1.682
17524TIP3    H274064   4.160   5.624   1.555
17525TIP3   OH274065   4.357   3.627  13.847
17525TIP3    H174066   4.296   3.699  13.831
17525TIP3    H274067   4.330   3.590  13.931
17526TIP3   OH274068   4.515   5.227  13.426
17526TIP3    H174069   4.470   5.310  13.443
17526TIP3    H274070   4.567   5.244  13.347
17527TIP3   OH274071   3.418   6.393  14.626
17527TIP3    H174072   3.463   6.472  14.596
17527TIP3    H274073   3.360   6.424  14.695
17528TIP3   OH274074   5.278   2.520  10.871
17528TIP3    H174075   5.317   2.513  10.783
17528TIP3    H274076   5.319   2.598  10.909
17529TIP3   OH274077   0.742   1.483  15.939
17529TIP3    H174078   0.707   1.499  16.026
17529TIP3    H274079   0.744   1.569  15.897
17530TIP3   OH274080   3.128   2.879  11.438
17530TIP3    H174081   3.193   2.886  11.508
17530TIP3    H274082   3.044   2.880  11.484
17531TIP3   OH274083   5.796   2.015  16.328
17531TIP3    H174084   5.864   2.007  16.261
17531TIP3    H274085   5.717   2.039  16.279
17532TIP3   OH274086   6.035   3.116   0.071
17532TIP3    H174087   5.940   3.103   0.067
17532TIP3    H274088   6.059   3.090   0.160
17533TIP3   OH274089   2.468   5.175  17.170
17533TIP3    H174090   2.395   5.229  17.201
17533TIP3    H274091   2.427   5.094  17.140
17534TIP3   OH274092   5.036   2.636  16.368
17534TIP3    H174093   5.126   2.654  16.339
17534TIP3    H274094   5.032   2.541  16.375
17535TIP3   OH274095   6.006   0.309   4.986
17535TIP3    H174096   5.915   0.281   4.995
17535TIP3    H274097   6.056   0.227   4.982
17536TIP3   OH274098   5.098   2.391  15.459
17536TIP3    H174099   5.182   2.371  15.500
17536TIP3    H274100   5.052   2.306  15.457
17537TIP3   OH274101   6.083   6.706   4.535
17537TIP3    H174102   6.065   6.800   4.537
17537TIP3    H274103   5.999   6.666   4.512
17538TIP3   OH274104   2.914   5.550   6.241
17538TIP3    H174105   2.828   5.572   6.278
17538TIP3    H274106   2.941   5.471   6.288
17539TIP3   OH274107   5.221   0.005   5.581
17539TIP3    H174108   5.156  -0.062   5.599
17539TIP3    H274109   5.225   0.057   5.662
17540TIP3   OH274110   4.275   5.912   2.743
17540TIP3    H174111   4.232   5.914   2.828
17540TIP3    H274112   4.218   5.856   2.689
17541TIP3   OH274113   5.854   1.171  14.324
17541TIP3    H174114   5.939   1.191  14.362
17541TIP3    H274115   5.791   1.216  14.381
17542TIP3   OH274116   0.787   3.965  15.913
17542TIP3    H174117   0.847   4.036  15.936
17542TIP3    H274118   0.750   3.937  15.997
17543TIP3   OH274119   5.290   6.594  12.688
17543TIP3    H174120   5.221   6.634  12.635
17543TIP3    H274121   5.328   6.667  12.737
17544TIP3   OH274122   5.945   4.928   5.297
17544TIP3    H174123   5.877   4.922   5.365
17544TIP3    H274124   6.011   4.865   5.324
17545TIP3   OH274125   3.738   2.402   6.163
17545TIP3    H174126   3.756   2.496   6.163
17545TIP3    H274127   3.644   2.396   6.181
17546TIP3   OH274128   4.187   3.729   6.013
17546TIP3    H174129   4.245   3.654   6.001
17546TIP3    H274130   4.212   3.791   5.945
17547TIP3   OH274131   0.149   3.785  16.694
17547TIP3    H174132   0.161   3.715  16.630
17547TIP3    H274133   0.153   3.740  16.779
17548TIP3   OH274134   2.908   2.605   2.921
17548TIP3    H174135   2.819   2.633   2.898
17548TIP3    H274136   2.921   2.523   2.873
17549TIP3   OH274137   2.363   5.131  14.445
17549TIP3    H174138   2.441   5.177  14.476
17549TIP3    H274139   2.295   5.199  14.441
17550TIP3   OH274140   3.114   1.483   4.285
17550TIP3    H174141   3.164   1.562   4.261
17550TIP3    H274142   3.083   1.448   4.202
17551TIP3   OH274143   5.249   0.933   5.496
17551TIP3    H174144   5.168   0.886   5.478
17551TIP3    H274145   5.299   0.874   5.553
17552TIP3   OH274146   6.128   1.898   2.765
17552TIP3    H174147   6.062   1.943   2.817
17552TIP3    H274148   6.211   1.919   2.807
17553TIP3   OH274149   5.691   5.660  11.676
17553TIP3    H174150   5.692   5.736  11.617
17553TIP3    H274151   5.603   5.622  11.664
17554TIP3   OH274152   0.551   6.042  15.340
17554TIP3    H174153   0.459   6.017  15.354
17554TIP3    H274154   0.547   6.118  15.282
17555TIP3   OH274155   6.622   4.044  17.286
17555TIP3    H174156   6.634   4.052  17.192
17555TIP3    H274157   6.536   4.081  17.303
17556TIP3   OH274158   0.394   5.138   4.940
17556TIP3    H174159   0.460   5.202   4.913
17556TIP3    H274160   0.352   5.111   4.858
17557TIP3   OH274161   3.803   6.455   0.249
17557TIP3    H174162   3.763   6.372   0.223
17557TIP3    H274163   3.853   6.434   0.328
17558TIP3   OH274164   5.792   3.147   4.359
17558TIP3    H174165   5.832   3.228   4.390
17558TIP3    H274166   5.866   3.090   4.338
17559TIP3   OH274167   6.479   5.578  14.773
17559TIP3    H174168   6.558   5.631  14.776
17559TIP3    H274169   6.505   5.493  14.810
17560TIP3   OH274170   4.847   5.158   2.938
17560TIP3    H174171   4.799   5.237   2.963
17560TIP3    H274172   4.804   5.087   2.986
17561TIP3   OH274173   4.815   2.359   5.579
17561TIP3    H174174   4.872   2.431   5.606
17561TIP3    H274175   4.853   2.282   5.622
17562TIP3   OH274176   3.906   4.239   4.990
17562TIP3    H174177   3.964   4.225   5.065
17562TIP3    H274178   3.850   4.312   5.017
17563TIP3   OH274179   0.555   4.441  13.612
17563TIP3    H174180   0.542   4.361  13.663
17563TIP3    H274181   0.650   4.446  13.599
17564TIP3   OH274182   4.602   0.157   4.695
17564TIP3    H174183   4.540   0.208   4.643
17564TIP3    H274184   4.681   0.154   4.642
17565TIP3   OH274185   6.130   2.691  12.190
17565TIP3    H174186   6.125   2.786  12.179
17565TIP3    H274187   6.204   2.663  12.136
17566TIP3   OH274188   0.696   1.060   0.817
17566TIP3    H174189   0.613   1.017   0.834
17566TIP3    H274190   0.672   1.149   0.790
17567TIP3   OH274191   1.448   3.669   3.292
17567TIP3    H174192   1.483   3.651   3.380
17567TIP3    H274193   1.482   3.599   3.238
17568TIP3   OH274194   0.685   4.979  10.931
17568TIP3    H174195   0.706   4.903  10.877
17568TIP3    H274196   0.592   4.996  10.912
17569TIP3   OH274197   2.038   6.620  16.740
17569TIP3    H174198   1.947   6.637  16.765
17569TIP3    H274199   2.033   6.592  16.648
17570TIP3   OH274200   0.763   3.698   5.364
17570TIP3    H174201   0.673   3.720   5.384
17570TIP3    H274202   0.806   3.782   5.348
17571TIP3   OH274203   5.201   0.268  16.866
17571TIP3    H174204   5.126   0.300  16.816
17571TIP3    H274205   5.185   0.174  16.877
17572TIP3   OH274206   4.015   6.357   0.426
17572TIP3    H174207   3.994   6.366   0.519
17572TIP3    H274208   4.101   6.397   0.417
17573TIP3   OH274209   2.089   4.778   5.487
17573TIP3    H174210   2.149   4.752   5.416
17573TIP3    H274211   2.146   4.792   5.562
17574TIP3   OH274212   2.663   2.068   5.844
17574TIP3    H174213   2.742   2.118   5.864
17574TIP3    H274214   2.659   2.001   5.913
17575TIP3   OH274215   2.744   4.352   2.567
17575TIP3    H174216   2.754   4.395   2.652
17575TIP3    H274217   2.718   4.422   2.507
17576TIP3   OH274218   0.396   0.398   6.109
17576TIP3    H174219   0.457   0.404   6.182
17576TIP3    H274220   0.328   0.463   6.129
17577TIP3   OH274221   2.808   5.143   0.555
17577TIP3    H174222   2.902   5.134   0.566
17577TIP3    H274223   2.796   5.153   0.460
17578TIP3   OH274224   1.770   5.569   1.062
17578TIP3    H174225   1.749   5.657   1.031
17578TIP3    H274226   1.756   5.513   0.986
17579TIP3   OH274227   4.225   5.725  16.525
17579TIP3    H174228   4.193   5.782  16.455
17579TIP3    H274229   4.257   5.786  16.592
17580TIP3   OH274230   4.476   6.637  14.010
17580TIP3    H174231   4.567   6.653  14.037
17580TIP3    H274232   4.454   6.711  13.954
17581TIP3   OH274233   6.503   6.025  15.888
17581TIP3    H174234   6.544   5.950  15.844
17581TIP3    H274235   6.409   6.014  15.871
17582TIP3   OH274236   6.325   5.005   4.172
17582TIP3    H174237   6.310   4.912   4.156
17582TIP3    H274238   6.313   5.016   4.266
17583TIP3   OH274239   0.091   2.708  12.114
17583TIP3    H174240   0.185   2.699  12.128
17583TIP3    H274241   0.051   2.646  12.174
17584TIP3   OH274242   6.624   0.563   6.908
17584TIP3    H174243   6.608   0.559   7.002
17584TIP3    H274244   6.696   0.625   6.898
17585TIP3   OH274245   4.568   6.031   4.263
17585TIP3    H174246   4.605   6.119   4.269
17585TIP3    H274247   4.546   6.020   4.171
17586TIP3   OH274248   6.457   0.469  14.180
17586TIP3    H174249   6.492   0.409  14.114
17586TIP3    H274250   6.383   0.513  14.136
17587TIP3   OH274251   4.209   4.847   4.663
17587TIP3    H174252   4.259   4.794   4.726
17587TIP3    H274253   4.194   4.788   4.589
17588TIP3   OH274254   4.759   6.713  10.351
17588TIP3    H174255   4.664   6.703  10.356
17588TIP3    H274256   4.789   6.637  10.303
17589TIP3   OH274257   3.393   1.287  12.256
17589TIP3    H174258   3.418   1.194  12.253
17589TIP3    H274259   3.475   1.334  12.241
17590TIP3   OH274260   4.602   6.303   4.023
17590TIP3    H174261   4.509   6.281   4.026
17590TIP3    H274262   4.605   6.398   4.030
17591TIP3   OH274263   5.169   0.531  14.324
17591TIP3    H174264   5.152   0.456  14.382
17591TIP3    H274265   5.125   0.509  14.242
17592TIP3   OH274266   0.446   3.454  12.918
17592TIP3    H174267   0.371   3.453  12.978
17592TIP3    H274268   0.434   3.377  12.863
17593TIP3   OH274269   4.878   0.117   5.873
17593TIP3    H174270   4.827   0.183   5.921
17593TIP3    H274271   4.949   0.095   5.933
17594TIP3   OH274272   0.661   3.333  11.132
17594TIP3    H174273   0.619   3.391  11.068
17594TIP3    H274274   0.728   3.388  11.173
17595TIP3   OH274275   6.529   2.510  11.595
17595TIP3    H174276   6.567   2.423  11.584
17595TIP3    H274277   6.502   2.513  11.687
17596TIP3   OH274278   4.738   6.534  10.731
17596TIP3    H174279   4.819   6.496  10.698
17596TIP3    H274280   4.674   6.463  10.727
17597TIP3   OH274281   5.303   4.731   0.229
17597TIP3    H174282   5.318   4.734   0.135
17597TIP3    H274283   5.335   4.645   0.256
17598TIP3   OH274284   3.824   2.100  17.031
17598TIP3    H174285   3.856   2.171  17.087
17598TIP3    H274286   3.881   2.026  17.051
17599TIP3   OH274287   5.154   2.807   1.639
17599TIP3    H174288   5.082   2.844   1.588
17599TIP3    H274289   5.111   2.768   1.715
17600TIP3   OH274290   3.143   4.023  14.709
17600TIP3    H174291   3.064   4.031  14.655
17600TIP3    H274292   3.167   4.113  14.730
17601TIP3   OH274293   1.132   3.862   0.108
17601TIP3    H174294   1.155   3.906   0.190
17601TIP3    H274295   1.191   3.899   0.043
17602TIP3   OH274296   5.423   4.731   1.434
17602TIP3    H174297   5.384   4.789   1.369
17602TIP3    H274298   5.368   4.653   1.433
17603TIP3   OH274299   6.652   5.383  12.846
17603TIP3    H174300   6.629   5.349  12.760
17603TIP3    H274301   6.740   5.348  12.863
17604TIP3   OH274302   2.660   2.485   1.664
17604TIP3    H174303   2.642   2.568   1.707
17604TIP3    H274304   2.752   2.466   1.686
17605TIP3   OH274305   0.288   0.808  16.223
17605TIP3    H174306   0.260   0.829  16.312
17605TIP3    H274307   0.357   0.871  16.204
17606TIP3   OH274308   1.921   2.303  14.306
17606TIP3    H174309   1.927   2.212  14.333
17606TIP3    H274310   1.861   2.343  14.370
17607TIP3   OH274311   5.410   4.972   0.281
17607TIP3    H174312   5.392   4.881   0.256
17607TIP3    H274313   5.353   5.024   0.224
17608TIP3   OH274314   0.478   2.330   4.296
17608TIP3    H174315   0.552   2.280   4.262
17608TIP3    H274316   0.404   2.303   4.241
17609TIP3   OH274317   3.718   0.731   5.979
17609TIP3    H174318   3.681   0.819   5.981
17609TIP3    H274319   3.810   0.743   5.955
17610TIP3   OH274320   1.216   3.416   4.665
17610TIP3    H174321   1.132   3.369   4.662
17610TIP3    H274322   1.260   3.392   4.584
17611TIP3   OH274323   2.523   2.991   2.283
17611TIP3    H174324   2.428   2.991   2.293
17611TIP3    H274325   2.539   3.046   2.206
17612TIP3   OH274326   2.280   1.805   0.007
17612TIP3    H174327   2.210   1.744  -0.016
17612TIP3    H274328   2.350   1.785  -0.055
17613TIP3   OH274329   5.744   6.437  12.216
17613TIP3    H174330   5.698   6.469  12.138
17613TIP3    H274331   5.731   6.342  12.214
17614TIP3   OH274332   2.831   6.675   2.320
17614TIP3    H174333   2.877   6.671   2.404
17614TIP3    H274334   2.893   6.717   2.261
17615TIP3   OH274335   0.288   6.330  13.882
17615TIP3    H174336   0.267   6.267  13.813
17615TIP3    H274337   0.202   6.360  13.913
17616TIP3   OH274338   4.140   2.148  17.082
17616TIP3    H174339   4.119   2.062  17.044
17616TIP3    H274340   4.235   2.145  17.095
17617TIP3   OH274341   5.354   3.654   5.759
17617TIP3    H174342   5.322   3.645   5.848
17617TIP3    H274343   5.283   3.620   5.704
17618TIP3   OH274344   6.442   2.290   2.913
17618TIP3    H174345   6.462   2.207   2.869
17618TIP3    H274346   6.392   2.340   2.848
17619TIP3   OH274347   4.954   2.529   0.796
17619TIP3    H174348   5.010   2.525   0.874
17619TIP3    H274349   4.913   2.615   0.801
17620TIP3   OH274350   2.916   6.764  10.806
17620TIP3    H174351   2.936   6.718  10.887
17620TIP3    H274352   2.927   6.698  10.737
17621TIP3   OH274353   1.233   1.070   3.754
17621TIP3    H174354   1.289   1.116   3.816
17621TIP3    H274355   1.229   0.980   3.788
17622TIP3   OH274356   4.589   2.326  14.713
17622TIP3    H174357   4.626   2.384  14.779
17622TIP3    H274358   4.652   2.326  14.641
17623TIP3   OH274359   3.102   3.474   1.750
17623TIP3    H174360   3.125   3.528   1.674
17623TIP3    H274361   3.059   3.535   1.810
17624TIP3   OH274362   6.357   5.932   0.218
17624TIP3    H174363   6.383   6.006   0.162
17624TIP3    H274364   6.346   5.859   0.157
17625TIP3   OH274365   4.249   6.188   2.047
17625TIP3    H174366   4.278   6.197   2.138
17625TIP3    H274367   4.203   6.269   2.028
17626TIP3   OH274368   4.766   0.661  10.767
17626TIP3    H174369   4.743   0.659  10.674
17626TIP3    H274370   4.805   0.575  10.784
17627TIP3   OH274371   6.577   1.526  11.947
17627TIP3    H174372   6.626   1.578  12.011
17627TIP3    H274373   6.567   1.441  11.989
17628TIP3   OH274374   3.307   1.012  17.235
17628TIP3    H174375   3.339   1.075  17.300
17628TIP3    H274376   3.222   0.985  17.269
17629TIP3   OH274377   1.397   4.862  15.133
17629TIP3    H174378   1.418   4.818  15.216
17629TIP3    H274379   1.475   4.914  15.113
17630TIP3   OH274380   0.273   2.070  16.168
17630TIP3    H174381   0.248   2.029  16.251
17630TIP3    H274382   0.341   2.133  16.193
17631TIP3   OH274383   0.357   4.353  13.009
17631TIP3    H174384   0.347   4.290  13.080
17631TIP3    H274385   0.409   4.424  13.046
17632TIP3   OH274386   3.253   0.798  15.710
17632TIP3    H174387   3.286   0.775  15.797
17632TIP3    H274388   3.167   0.837  15.725
17633TIP3   OH274389   1.713   1.456  16.257
17633TIP3    H174390   1.712   1.508  16.176
17633TIP3    H274391   1.624   1.421  16.264
17634TIP3   OH274392   3.333   3.489  13.039
17634TIP3    H174393   3.359   3.549  12.969
17634TIP3    H274394   3.297   3.413  12.994
17635TIP3   OH274395   2.052   5.646  11.482
17635TIP3    H174396   2.090   5.704  11.416
17635TIP3    H274397   2.037   5.563  11.436
17636TIP3   OH274398   2.312   2.016   0.608
17636TIP3    H174399   2.299   2.013   0.513
17636TIP3    H274400   2.289   1.928   0.638
17637TIP3   OH274401   2.479   1.442  12.193
17637TIP3    H174402   2.485   1.517  12.134
17637TIP3    H274403   2.548   1.383  12.163
17638TIP3   OH274404   5.785   5.642  11.957
17638TIP3    H174405   5.735   5.675  11.882
17638TIP3    H274406   5.868   5.691  11.955
17639TIP3   OH274407   1.136   3.202   5.090
17639TIP3    H174408   1.190   3.253   5.150
17639TIP3    H274409   1.081   3.266   5.046
17640TIP3   OH274410   4.931   0.257   4.806
17640TIP3    H174411   4.936   0.179   4.750
17640TIP3    H274412   4.869   0.233   4.875
17641TIP3   OH274413   4.419   4.249  15.558
17641TIP3    H174414   4.475   4.310  15.511
17641TIP3    H274415   4.390   4.187  15.491
17642TIP3   OH274416   5.594   2.939   3.698
17642TIP3    H174417   5.656   3.012   3.692
17642TIP3    H274418   5.614   2.884   3.622
17643TIP3   OH274419   4.062   3.028   2.698
17643TIP3    H174420   3.984   3.051   2.749
17643TIP3    H274421   4.028   2.983   2.621
17644TIP3   OH274422   3.310   2.479  12.510
17644TIP3    H174423   3.236   2.540  12.520
17644TIP3    H274424   3.287   2.405  12.567
17645TIP3   OH274425   4.405   3.749  11.966
17645TIP3    H174426   4.323   3.799  11.974
17645TIP3    H274427   4.384   3.664  12.004
17646TIP3   OH274428   4.403   5.602  15.174
17646TIP3    H174429   4.376   5.615  15.265
17646TIP3    H274430   4.465   5.672  15.158
17647TIP3   OH274431   1.130   5.497   4.294
17647TIP3    H174432   1.195   5.545   4.345
17647TIP3    H274433   1.103   5.558   4.225
17648TIP3   OH274434   6.182   6.388  17.196
17648TIP3    H174435   6.173   6.455  17.264
17648TIP3    H274436   6.275   6.368  17.194
17649TIP3   OH274437   5.342   5.328  12.464
17649TIP3    H174438   5.311   5.239  12.476
17649TIP3    H274439   5.416   5.320  12.404
17650TIP3   OH274440   4.732   1.273  11.203
17650TIP3    H174441   4.676   1.276  11.125
17650TIP3    H274442   4.819   1.252  11.169
17651TIP3   OH274443   0.967   0.561   5.092
17651TIP3    H174444   1.013   0.481   5.067
17651TIP3    H274445   0.879   0.532   5.113
17652TIP3   OH274446   1.388   0.876   6.079
17652TIP3    H174447   1.390   0.854   6.172
17652TIP3    H274448   1.377   0.793   6.035
17653TIP3   OH274449   2.476   4.970   0.156
17653TIP3    H174450   2.402   5.013   0.113
17653TIP3    H274451   2.460   4.876   0.143
17654TIP3   OH274452   3.017   1.697   0.789
17654TIP3    H174453   2.929   1.733   0.783
17654TIP3    H274454   3.014   1.617   0.738
17655TIP3   OH274455   5.020   1.755  14.566
17655TIP3    H174456   4.936   1.789  14.535
17655TIP3    H274457   5.061   1.717  14.488
17656TIP3   OH274458   0.569   4.027   3.753
17656TIP3    H174459   0.610   3.942   3.738
17656TIP3    H274460   0.641   4.084   3.780
17657TIP3   OH274461   1.225   5.831   0.297
17657TIP3    H174462   1.241   5.925   0.287
17657TIP3    H274463   1.134   5.818   0.270
17658TIP3   OH274464   2.522   0.947  16.820
17658TIP3    H174465   2.562   0.961  16.734
17658TIP3    H274466   2.465   1.023  16.833
17659TIP3   OH274467   5.645   5.060   0.850
17659TIP3    H174468   5.628   5.078   0.758
17659TIP3    H274469   5.740   5.066   0.859
17660TIP3   OH274470   1.935   6.268   3.607
17660TIP3    H174471   1.918   6.300   3.518
17660TIP3    H274472   1.891   6.183   3.610
17661TIP3   OH274473   5.979   1.377   4.021
17661TIP3    H174474   5.978   1.415   3.933
17661TIP3    H274475   6.051   1.314   4.019
17662TIP3   OH274476   2.836   5.982  11.555
17662TIP3    H174477   2.789   5.899  11.546
17662TIP3    H274478   2.791   6.027  11.627
17663TIP3   OH274479   1.791   4.920   4.567
17663TIP3    H174480   1.812   5.004   4.526
17663TIP3    H274481   1.709   4.893   4.526
17664TIP3   OH274482   0.762   6.816   4.641
17664TIP3    H174483   0.733   6.726   4.658
17664TIP3    H274484   0.844   6.806   4.593
17665TIP3   OH274485   0.410   3.716   1.528
17665TIP3    H174486   0.330   3.722   1.475
17665TIP3    H274487   0.464   3.652   1.482
17666TIP3   OH274488   5.091   1.190   5.398
17666TIP3    H174489   5.184   1.209   5.402
17666TIP3    H274490   5.050   1.271   5.367
17667TIP3   OH274491   0.350   1.483   5.829
17667TIP3    H174492   0.431   1.483   5.878
17667TIP3    H274493   0.298   1.412   5.867
17668TIP3   OH274494   3.767   6.634   5.818
17668TIP3    H174495   3.767   6.713   5.764
17668TIP3    H274496   3.813   6.659   5.898
17669TIP3   OH274497   0.170   2.252  12.542
17669TIP3    H174498   0.107   2.307  12.589
17669TIP3    H274499   0.119   2.176  12.515
17670TIP3   OH274500   1.888   1.158  14.954
17670TIP3    H174501   1.911   1.240  15.000
17670TIP3    H274502   1.800   1.138  14.984
17671TIP3   OH274503   1.789   1.134  15.499
17671TIP3    H174504   1.715   1.119  15.441
17671TIP3    H274505   1.751   1.181  15.574
17672TIP3   OH274506   5.835   2.493  15.222
17672TIP3    H174507   5.817   2.455  15.308
17672TIP3    H274508   5.758   2.470  15.170
17673TIP3   OH274509   4.714   2.479  13.819
17673TIP3    H174510   4.639   2.529  13.786
17673TIP3    H274511   4.790   2.519  13.776
17674TIP3   OH274512   6.634   3.996  15.161
17674TIP3    H174513   6.586   3.914  15.152
17674TIP3    H274514   6.714   3.982  15.111
17675TIP3   OH274515   6.038   5.520  10.633
17675TIP3    H174516   6.066   5.451  10.572
17675TIP3    H274517   5.975   5.476  10.690
17676TIP3   OH274518   4.365   5.278  11.585
17676TIP3    H174519   4.332   5.191  11.563
17676TIP3    H274520   4.344   5.288  11.678
17677TIP3   OH274521   2.184   0.078  11.298
17677TIP3    H174522   2.193   0.137  11.372
17677TIP3    H274523   2.158   0.135  11.225
17678TIP3   OH274524   3.484   3.422  17.142
17678TIP3    H174525   3.474   3.414  17.236
17678TIP3    H274526   3.494   3.516  17.127
17679TIP3   OH274527   1.350   4.326  12.906
17679TIP3    H174528   1.400   4.397  12.865
17679TIP3    H274529   1.390   4.317  12.993
17680TIP3   OH274530   0.126   5.431   3.654
17680TIP3    H174531   0.031   5.443   3.660
17680TIP3    H274532   0.160   5.517   3.630
17681TIP3   OH274533   6.189   1.750  14.401
17681TIP3    H174534   6.206   1.809  14.474
17681TIP3    H274535   6.145   1.804  14.335
17682TIP3   OH274536   3.384   5.422   3.444
17682TIP3    H174537   3.352   5.443   3.532
17682TIP3    H274538   3.315   5.454   3.385
17683TIP3   OH274539   3.270   4.891   0.111
17683TIP3    H174540   3.196   4.869   0.054
17683TIP3    H274541   3.283   4.813   0.165
17684TIP3   OH274542   5.447   0.663  16.742
17684TIP3    H174543   5.448   0.645  16.836
17684TIP3    H274544   5.354   0.659  16.718
17685TIP3   OH274545   0.699   3.031   5.720
17685TIP3    H174546   0.636   2.960   5.706
17685TIP3    H274547   0.770   2.991   5.769
17686TIP3   OH274548   2.192   1.305  13.322
17686TIP3    H174549   2.202   1.369  13.393
17686TIP3    H274550   2.196   1.356  13.242
17687TIP3   OH274551   1.747   1.177  16.612
17687TIP3    H174552   1.760   1.265  16.646
17687TIP3    H274553   1.805   1.171  16.536
17688TIP3   OH274554   1.616   3.710   0.654
17688TIP3    H174555   1.605   3.692   0.748
17688TIP3    H274556   1.701   3.753   0.648
17689TIP3   OH274557   2.952   1.664  15.117
17689TIP3    H174558   2.977   1.666  15.209
17689TIP3    H274559   2.878   1.724  15.110
17690TIP3   OH274560   0.325   4.792   5.348
17690TIP3    H174561   0.404   4.808   5.401
17690TIP3    H274562   0.258   4.847   5.388
17691TIP3   OH274563   2.076   0.807   5.436
17691TIP3    H174564   2.002   0.748   5.449
17691TIP3    H274565   2.038   0.894   5.431
17692TIP3   OH274566   2.652   1.543  15.862
17692TIP3    H174567   2.580   1.579  15.810
17692TIP3    H274568   2.709   1.500  15.799
17693TIP3   OH274569   2.562   4.733  12.996
17693TIP3    H174570   2.604   4.692  13.072
17693TIP3    H274571   2.469   4.710  13.005
17694TIP3   OH274572   1.148   4.756  12.706
17694TIP3    H174573   1.172   4.664  12.698
17694TIP3    H274574   1.080   4.768  12.640
17695TIP3   OH274575   2.930   4.024  14.509
17695TIP3    H174576   2.915   4.039  14.415
17695TIP3    H274577   2.868   4.084  14.552
17696TIP3   OH274578   2.579   0.852   3.192
17696TIP3    H174579   2.663   0.811   3.173
17696TIP3    H274580   2.536   0.792   3.254
17697TIP3   OH274581   4.494   3.166   1.494
17697TIP3    H174582   4.487   3.247   1.545
17697TIP3    H274583   4.580   3.131   1.517
17698TIP3   OH274584   4.037   5.176   4.138
17698TIP3    H174585   4.098   5.202   4.207
17698TIP3    H274586   4.023   5.255   4.087
17699TIP3   OH274587   4.277   5.876   0.747
17699TIP3    H174588   4.242   5.902   0.662
17699TIP3    H274589   4.253   5.947   0.806
17700TIP3   OH274590   6.596   2.052  12.683
17700TIP3    H174591   6.582   2.130  12.629
17700TIP3    H274592   6.680   2.018  12.654
17701TIP3   OH274593   3.809   5.612  17.116
17701TIP3    H174594   3.820   5.576  17.203
17701TIP3    H274595   3.736   5.563  17.078
17702TIP3   OH274596   2.843   3.842  16.701
17702TIP3    H174597   2.911   3.833  16.768
17702TIP3    H274598   2.793   3.919  16.729
17703TIP3   OH274599   4.931   5.364  11.338
17703TIP3    H174600   4.928   5.299  11.409
17703TIP3    H274601   4.895   5.318  11.262
17704TIP3   OH274602   4.417   0.014   5.948
17704TIP3    H174603   4.473   0.049   5.879
17704TIP3    H274604   4.363   0.088   5.975
17705TIP3   OH274605   0.205   4.920  14.448
17705TIP3    H174606   0.273   4.984  14.430
17705TIP3    H274607   0.209   4.859  14.374
17706TIP3   OH274608   0.916   1.951   6.088
17706TIP3    H174609   0.894   1.915   6.002
17706TIP3    H274610   0.863   2.030   6.095
17707TIP3   OH274611   5.478   3.363   6.182
17707TIP3    H174612   5.566   3.348   6.217
17707TIP3    H274613   5.423   3.299   6.228
17708TIP3   OH274614   4.831   4.710  16.308
17708TIP3    H174615   4.830   4.663  16.224
17708TIP3    H274616   4.923   4.721  16.329
17709TIP3   OH274617   6.144   3.482   1.339
17709TIP3    H174618   6.073   3.461   1.400
17709TIP3    H274619   6.202   3.406   1.343
17710TIP3   OH274620   1.245   3.881   0.876
17710TIP3    H174621   1.205   3.805   0.919
17710TIP3    H274622   1.211   3.956   0.925
17711TIP3   OH274623   5.504   4.306  14.323
17711TIP3    H174624   5.547   4.260  14.395
17711TIP3    H274625   5.470   4.237  14.267
17712TIP3   OH274626   5.386   2.752   4.448
17712TIP3    H174627   5.297   2.770   4.476
17712TIP3    H274628   5.439   2.763   4.527
17713TIP3   OH274629   4.485   5.536  15.773
17713TIP3    H174630   4.432   5.551  15.851
17713TIP3    H274631   4.421   5.532  15.701
17714TIP3   OH274632   3.819   5.626   5.194
17714TIP3    H174633   3.780   5.647   5.279
17714TIP3    H274634   3.878   5.553   5.212
17715TIP3   OH274635   1.647   0.661   1.649
17715TIP3    H174636   1.618   0.631   1.736
17715TIP3    H274637   1.710   0.594   1.621
17716TIP3   OH274638   5.663   4.802  11.843
17716TIP3    H174639   5.571   4.828  11.850
17716TIP3    H274640   5.690   4.831  11.756
17717TIP3   OH274641   0.361   5.098  17.250
17717TIP3    H174642   0.279   5.144  17.265
17717TIP3    H274643   0.335   5.008  17.229
17718TIP3   OH274644   6.564   4.685  15.735
17718TIP3    H174645   6.630   4.716  15.796
17718TIP3    H274646   6.607   4.616  15.684
17719TIP3   OH274647   1.147   1.548  16.488
17719TIP3    H174648   1.240   1.564  16.506
17719TIP3    H274649   1.140   1.555  16.393
17720TIP3   OH274650   0.390   4.502   2.895
17720TIP3    H174651   0.384   4.573   2.831
17720TIP3    H274652   0.462   4.448   2.863
17721TIP3   OH274653   4.802   6.660   2.337
17721TIP3    H174654   4.865   6.720   2.296
17721TIP3    H274655   4.852   6.619   2.408
17722TIP3   OH274656   5.420   2.606  13.140
17722TIP3    H174657   5.334   2.577  13.170
17722TIP3    H274658   5.467   2.524  13.120
17723TIP3   OH274659   4.095   1.812  14.282
17723TIP3    H174660   4.144   1.731  14.296
17723TIP3    H274661   4.036   1.792  14.210
17724TIP3   OH274662   1.705   2.754  11.589
17724TIP3    H174663   1.634   2.695  11.616
17724TIP3    H274664   1.665   2.841  11.591
17725TIP3   OH274665   6.122   6.055   2.873
17725TIP3    H174666   6.140   6.040   2.780
17725TIP3    H274667   6.101   5.968   2.908
17726TIP3   OH274668   4.795   1.658   0.779
17726TIP3    H174669   4.863   1.723   0.763
17726TIP3    H274670   4.816   1.587   0.718
17727TIP3   OH274671   5.265   5.604  13.437
17727TIP3    H174672   5.267   5.683  13.490
17727TIP3    H274673   5.356   5.593  13.407
17728TIP3   OH274674   4.073   0.415   5.165
17728TIP3    H174675   4.107   0.502   5.146
17728TIP3    H274676   4.005   0.429   5.231
17729TIP3   OH274677   4.762   0.598   1.226
17729TIP3    H174678   4.790   0.605   1.135
17729TIP3    H274679   4.780   0.685   1.263
17730TIP3   OH274680   0.375   0.650   1.267
17730TIP3    H174681   0.382   0.713   1.195
17730TIP3    H274682   0.284   0.620   1.263
17731TIP3   OH274683   0.149   6.386   6.452
17731TIP3    H174684   0.136   6.395   6.546
17731TIP3    H274685   0.215   6.451   6.430
17732TIP3   OH274686   2.633   4.046  14.280
17732TIP3    H174687   2.540   4.026  14.297
17732TIP3    H274688   2.649   4.014  14.192
17733TIP3   OH274689   6.000   5.500   0.692
17733TIP3    H174690   5.997   5.408   0.718
17733TIP3    H274691   6.022   5.547   0.773
17734TIP3   OH274692   2.630   3.024  11.674
17734TIP3    H174693   2.643   3.093  11.610
17734TIP3    H274694   2.574   2.960  11.630
17735TIP3   OH274695   1.356   1.049  12.302
17735TIP3    H174696   1.276   0.999  12.286
17735TIP3    H274697   1.346   1.127  12.247
17736TIP3   OH274698   1.395   2.801   3.063
17736TIP3    H174699   1.389   2.859   2.987
17736TIP3    H274700   1.398   2.713   3.026
17737TIP3   OH274701   5.905   0.376   0.550
17737TIP3    H174702   5.920   0.286   0.579
17737TIP3    H274703   5.815   0.376   0.517
17738TIP3   OH274704   4.055   5.123   2.456
17738TIP3    H174705   4.053   5.157   2.366
17738TIP3    H274706   3.978   5.066   2.461
17739TIP3   OH274707   3.405   1.117   2.244
17739TIP3    H174708   3.431   1.079   2.328
17739TIP3    H274709   3.471   1.085   2.182
17740TIP3   OH274710   0.747   5.375  16.390
17740TIP3    H174711   0.701   5.450  16.428
17740TIP3    H274712   0.716   5.371  16.299
17741TIP3   OH274713   4.150   6.072  12.831
17741TIP3    H174714   4.089   6.143  12.809
17741TIP3    H274715   4.111   5.994  12.792
17742TIP3   OH274716   3.676   1.024  15.700
17742TIP3    H174717   3.615   1.097  15.705
17742TIP3    H274718   3.629   0.950  15.738
17743TIP3   OH274719   1.076   0.013   5.744
17743TIP3    H174720   1.135  -0.006   5.671
17743TIP3    H274721   1.098   0.103   5.770
17744TIP3   OH274722   6.582   0.570   0.180
17744TIP3    H174723   6.573   0.590   0.273
17744TIP3    H274724   6.675   0.553   0.168
17745TIP3   OH274725   3.274   5.851  12.046
17745TIP3    H174726   3.249   5.940  12.071
17745TIP3    H274727   3.191   5.808  12.025
17746TIP3   OH274728   4.942   4.964  13.145
17746TIP3    H174729   4.947   5.038  13.205
17746TIP3    H274730   4.848   4.950  13.133
17747TIP3   OH274731   3.191   2.753   0.588
17747TIP3    H174732   3.112   2.754   0.535
17747TIP3    H274733   3.160   2.770   0.677
17748TIP3   OH274734   5.334   3.094  13.171
17748TIP3    H174735   5.371   3.080  13.084
17748TIP3    H274736   5.389   3.041  13.229
17749TIP3   OH274737   3.926   1.841  16.727
17749TIP3    H174738   3.937   1.914  16.788
17749TIP3    H274739   3.960   1.765  16.774
17750TIP3   OH274740   5.846   2.130   1.934
17750TIP3    H174741   5.778   2.095   1.876
17750TIP3    H274742   5.858   2.062   2.000
17751TIP3   OH274743   0.787   2.116  16.011
17751TIP3    H174744   0.879   2.093  16.025
17751TIP3    H274745   0.780   2.131  15.917
17752TIP3   OH274746   4.258   6.123   1.403
17752TIP3    H174747   4.292   6.033   1.405
17752TIP3    H274748   4.223   6.133   1.314
17753TIP3   OH274749   1.032   0.471   2.680
17753TIP3    H174750   1.004   0.458   2.771
17753TIP3    H274751   1.127   0.463   2.683
17754TIP3   OH274752   5.369   3.230   0.954
17754TIP3    H174753   5.315   3.207   0.878
17754TIP3    H274754   5.435   3.290   0.920
17755TIP3   OH274755   2.630   4.359   0.290
17755TIP3    H174756   2.710   4.336   0.338
17755TIP3    H274757   2.584   4.275   0.281
17756TIP3   OH274758   5.760   2.261   0.005
17756TIP3    H174759   5.816   2.184   0.009
17756TIP3    H274760   5.746   2.286   0.096
17757TIP3   OH274761   3.842   0.750  16.183
17757TIP3    H174762   3.891   0.803  16.121
17757TIP3    H274763   3.750   0.769  16.166
17758TIP3   OH274764   3.012   6.001  11.806
17758TIP3    H174765   3.097   6.044  11.806
17758TIP3    H274766   2.949   6.073  11.816
17759TIP3   OH274767   4.971   2.148   3.110
17759TIP3    H174768   5.049   2.161   3.163
17759TIP3    H274769   4.911   2.217   3.138
17760TIP3   OH274770   4.771   0.953  15.533
17760TIP3    H174771   4.685   0.913  15.543
17760TIP3    H274772   4.754   1.036  15.487
17761TIP3   OH274773   4.103   5.649   6.037
17761TIP3    H174774   4.176   5.591   6.014
17761TIP3    H274775   4.061   5.605   6.111
17762TIP3   OH274776   3.160   4.564   2.410
17762TIP3    H174777   3.100   4.533   2.477
17762TIP3    H274778   3.221   4.621   2.457
17763TIP3   OH274779   5.430   3.344  15.369
17763TIP3    H174780   5.498   3.280  15.347
17763TIP3    H274781   5.421   3.338  15.464
17764TIP3   OH274782   5.435   0.357  11.380
17764TIP3    H174783   5.482   0.373  11.298
17764TIP3    H274784   5.497   0.383  11.448
17765TIP3   OH274785   1.043   3.589   3.416
17765TIP3    H174786   1.090   3.635   3.486
17765TIP3    H274787   1.109   3.572   3.349
17766TIP3   OH274788   0.613   6.418   0.719
17766TIP3    H174789   0.648   6.507   0.727
17766TIP3    H274790   0.544   6.413   0.785
17767TIP3   OH274791   2.891   6.791  16.272
17767TIP3    H174792   2.825   6.742  16.223
17767TIP3    H274793   2.846   6.872  16.299
17768TIP3   OH274794   1.637   6.477   2.268
17768TIP3    H174795   1.655   6.410   2.201
17768TIP3    H274796   1.724   6.505   2.297
17769TIP3   OH274797   1.422   2.503  14.482
17769TIP3    H174798   1.433   2.547  14.398
17769TIP3    H274799   1.506   2.459  14.497
17770TIP3   OH274800   3.763   6.682  12.077
17770TIP3    H174801   3.857   6.694  12.066
17770TIP3    H274802   3.724   6.764  12.046
17771TIP3   OH274803   0.877   0.216  12.504
17771TIP3    H174804   0.888   0.204  12.598
17771TIP3    H274805   0.959   0.256  12.475
17772TIP3   OH274806   1.550   1.673   1.942
17772TIP3    H174807   1.633   1.627   1.927
17772TIP3    H274808   1.527   1.654   2.033
17773TIP3   OH274809   5.864   2.870   4.568
17773TIP3    H174810   5.893   2.902   4.482
17773TIP3    H274811   5.858   2.949   4.622
17774TIP3   OH274812   4.036   6.378  10.944
17774TIP3    H174813   3.966   6.333  10.896
17774TIP3    H274814   4.109   6.316  10.943
17775TIP3   OH274815   6.204   4.840  12.641
17775TIP3    H174816   6.164   4.757  12.668
17775TIP3    H274817   6.266   4.816  12.572
17776TIP3   OH274818   3.654   5.496  11.244
17776TIP3    H174819   3.687   5.494  11.155
17776TIP3    H274820   3.559   5.506  11.234
17777TIP3   OH274821   1.761   4.816  12.775
17777TIP3    H174822   1.803   4.773  12.700
17777TIP3    H274823   1.772   4.755  12.847
17778TIP3   OH274824   3.372   5.537  11.164
17778TIP3    H174825   3.410   5.512  11.079
17778TIP3    H274826   3.279   5.515  11.156
17779TIP3   OH274827   3.128   6.502   5.894
17779TIP3    H174828   3.056   6.439   5.896
17779TIP3    H274829   3.180   6.481   5.971
17780TIP3   OH274830   1.851   6.225  17.009
17780TIP3    H174831   1.828   6.154  17.069
17780TIP3    H274832   1.767   6.252  16.971
17781TIP3   OH274833   2.165   3.608   6.148
17781TIP3    H174834   2.149   3.682   6.207
17781TIP3    H274835   2.155   3.531   6.204
17782TIP3   OH274836   5.995   2.425  13.611
17782TIP3    H174837   5.998   2.353  13.675
17782TIP3    H274838   6.085   2.433  13.580
17783TIP3   OH274839   5.997   1.111  13.074
17783TIP3    H174840   6.017   1.141  13.162
17783TIP3    H274841   6.062   1.044  13.055
17784TIP3   OH274842   6.778   1.440   5.781
17784TIP3    H174843   6.699   1.458   5.832
17784TIP3    H274844   6.839   1.401   5.844
17785TIP3   OH274845   3.854   3.364   3.111
17785TIP3    H174846   3.772   3.319   3.094
17785TIP3    H274847   3.899   3.366   3.027
17786TIP3   OH274848   3.632   3.195   3.124
17786TIP3    H174849   3.603   3.228   3.209
17786TIP3    H274850   3.552   3.194   3.071
17787TIP3   OH274851   3.949   0.604   2.012
17787TIP3    H174852   3.896   0.530   2.044
17787TIP3    H274853   3.885   0.659   1.966
17788TIP3   OH274854   3.256   0.392  13.146
17788TIP3    H174855   3.199   0.460  13.181
17788TIP3    H274856   3.211   0.310  13.166
17789TIP3   OH274857   4.457   5.415   2.055
17789TIP3    H174858   4.484   5.499   2.091
17789TIP3    H274859   4.418   5.368   2.129
17790TIP3   OH274860   2.555   5.479   2.339
17790TIP3    H174861   2.471   5.441   2.313
17790TIP3    H274862   2.582   5.428   2.416
17791TIP3   OH274863   2.294   6.192   6.031
17791TIP3    H174864   2.285   6.101   6.058
17791TIP3    H274865   2.254   6.195   5.944
17792TIP3   OH274866   1.973   6.263   1.109
17792TIP3    H174867   1.938   6.337   1.158
17792TIP3    H274868   1.924   6.265   1.026
17793TIP3   OH274869   6.284   3.556  17.214
17793TIP3    H174870   6.199   3.593  17.236
17793TIP3    H274871   6.327   3.625  17.162
17794TIP3   OH274872   1.936   5.239  14.326
17794TIP3    H174873   1.902   5.152  14.347
17794TIP3    H274874   1.859   5.288  14.298
17795TIP3   OH274875   5.817   0.352   5.824
17795TIP3    H174876   5.817   0.441   5.788
17795TIP3    H274877   5.895   0.349   5.879
17796TIP3   OH274878   0.759   6.456   6.746
17796TIP3    H174879   0.718   6.450   6.833
17796TIP3    H274880   0.692   6.425   6.686
17797TIP3   OH274881   4.411   6.417  15.102
17797TIP3    H174882   4.379   6.452  15.185
17797TIP3    H274883   4.332   6.394  15.053
17798TIP3   OH274884   2.687   5.873  14.681
17798TIP3    H174885   2.615   5.847  14.739
17798TIP3    H274886   2.765   5.835  14.722
17799TIP3   OH274887   0.127   5.785   3.253
17799TIP3    H174888   0.069   5.736   3.194
17799TIP3    H274889   0.202   5.809   3.198
17800TIP3   OH274890   0.270   0.442  14.109
17800TIP3    H174891   0.322   0.503  14.161
17800TIP3    H274892   0.328   0.366  14.098
17801TIP3   OH274893   4.110   3.604   6.565
17801TIP3    H174894   4.052   3.617   6.640
17801TIP3    H274895   4.100   3.511   6.544
17802TIP3   OH274896   6.263   2.312   0.679
17802TIP3    H174897   6.323   2.352   0.616
17802TIP3    H274898   6.242   2.227   0.642
17803TIP3   OH274899   0.107   5.705   1.308
17803TIP3    H174900   0.111   5.799   1.329
17803TIP3    H274901   0.102   5.702   1.212
17804TIP3   OH274902   0.171   1.159  16.639
17804TIP3    H174903   0.101   1.216  16.606
17804TIP3    H274904   0.165   1.080  16.586
17805TIP3   OH274905   3.457   1.410  12.504
17805TIP3    H174906   3.369   1.382  12.532
17805TIP3    H274907   3.453   1.411  12.409
17806TIP3   OH274908   6.594   6.641  12.743
17806TIP3    H174909   6.617   6.557  12.702
17806TIP3    H274910   6.500   6.635  12.758
17807TIP3   OH274911   3.672   4.722   1.051
17807TIP3    H174912   3.592   4.763   1.018
17807TIP3    H274913   3.670   4.633   1.015
17808TIP3   OH274914   3.122   1.285  16.794
17808TIP3    H174915   3.117   1.299  16.888
17808TIP3    H274916   3.082   1.362  16.756
17809TIP3   OH274917   0.913   4.163   5.600
17809TIP3    H174918   0.880   4.215   5.673
17809TIP3    H274919   0.967   4.096   5.642
17810TIP3   OH274920   5.687   1.915  15.138
17810TIP3    H174921   5.629   1.975  15.090
17810TIP3    H274922   5.769   1.916  15.088
17811TIP3   OH274923   2.834   5.331   2.318
17811TIP3    H174924   2.749   5.338   2.275
17811TIP3    H274925   2.831   5.396   2.389
17812TIP3   OH274926   1.566   2.976   0.176
17812TIP3    H174927   1.571   2.933   0.262
17812TIP3    H274928   1.619   2.921   0.119
17813TIP3   OH274929   0.221   4.408   2.523
17813TIP3    H174930   0.189   4.414   2.432
17813TIP3    H274931   0.293   4.345   2.518
17814TIP3   OH274932   6.145   1.721  16.798
17814TIP3    H174933   6.188   1.786  16.742
17814TIP3    H274934   6.077   1.770  16.844
17815TIP3   OH274935   2.754   4.978   0.308
17815TIP3    H174936   2.667   4.988   0.268
17815TIP3    H274937   2.799   4.916   0.251
17816TIP3   OH274938   6.764   0.200  15.642
17816TIP3    H174939   6.768   0.289  15.676
17816TIP3    H274940   6.743   0.146  15.717
17817TIP3   OH274941   6.682   5.760  15.704
17817TIP3    H174942   6.651   5.757  15.613
17817TIP3    H274943   6.684   5.668  15.731
17818TIP3   OH274944   3.605   2.122  16.242
17818TIP3    H174945   3.560   2.131  16.326
17818TIP3    H274946   3.539   2.147  16.177
17819TIP3   OH274947   6.540   5.029   6.165
17819TIP3    H174948   6.608   4.964   6.182
17819TIP3    H274949   6.471   5.008   6.228
17820TIP3   OH274950   4.698   2.927  14.295
17820TIP3    H174951   4.686   2.833  14.308
17820TIP3    H274952   4.793   2.938  14.291
17821TIP3   OH274953   1.506   3.289  11.758
17821TIP3    H174954   1.546   3.374  11.737
17821TIP3    H274955   1.522   3.278  11.852
17822TIP3   OH274956   6.184   1.906   2.119
17822TIP3    H174957   6.093   1.934   2.113
17822TIP3    H274958   6.203   1.909   2.213
17823TIP3   OH274959   0.234   6.262   1.508
17823TIP3    H174960   0.287   6.263   1.588
17823TIP3    H274961   0.276   6.197   1.452
17824TIP3   OH274962   2.114   6.029  11.005
17824TIP3    H174963   2.069   6.076  11.076
17824TIP3    H274964   2.197   6.075  10.995
17825TIP3   OH274965   3.403   2.918   5.120
17825TIP3    H174966   3.449   2.997   5.092
17825TIP3    H274967   3.447   2.846   5.074
17826TIP3   OH274968   5.757   3.701  15.943
17826TIP3    H174969   5.759   3.614  15.902
17826TIP3    H274970   5.841   3.740  15.919
17827TIP3   OH274971   4.844   4.514  10.995
17827TIP3    H174972   4.825   4.571  10.921
17827TIP3    H274973   4.797   4.553  11.069
17828TIP3   OH274974   3.319   5.773  15.122
17828TIP3    H174975   3.268   5.696  15.100
17828TIP3    H274976   3.348   5.808  15.038
17829TIP3   OH274977   0.049   3.803   0.825
17829TIP3    H174978  -0.021   3.847   0.777
17829TIP3    H274979   0.116   3.871   0.837
17830TIP3   OH274980   4.993   1.587  16.147
17830TIP3    H174981   5.056   1.656  16.128
17830TIP3    H274982   4.937   1.584  16.069
17831TIP3   OH274983   2.056   1.555  10.963
17831TIP3    H174984   2.121   1.534  10.896
17831TIP3    H274985   2.056   1.478  11.021
17832TIP3   OH274986   1.101   2.713  15.064
17832TIP3    H174987   1.062   2.800  15.052
17832TIP3    H274988   1.140   2.693  14.979
17833TIP3   OH274989   0.749   5.074  13.905
17833TIP3    H174990   0.694   5.085  13.983
17833TIP3    H274991   0.745   4.980  13.886
17834TIP3   OH274992   6.418   1.157  11.843
17834TIP3    H174993   6.462   1.208  11.911
17834TIP3    H274994   6.413   1.217  11.768
17835TIP3   OH274995   6.540   1.044   0.319
17835TIP3    H174996   6.462   1.071   0.270
17835TIP3    H274997   6.609   1.040   0.253
17836TIP3   OH274998   3.434   1.746  13.089
17836TIP3    H174999   3.398   1.798  13.160
17836TIP3    H275000   3.427   1.656  13.120
17837TIP3   OH275001   5.873   4.475   2.637
17837TIP3    H175002   5.821   4.545   2.677
17837TIP3    H275003   5.808   4.420   2.593
17838TIP3   OH275004   4.803   2.639  12.591
17838TIP3    H175005   4.767   2.697  12.659
17838TIP3    H275006   4.804   2.693  12.512
17839TIP3   OH275007   4.281   5.193   5.277
17839TIP3    H175008   4.315   5.190   5.187
17839TIP3    H275009   4.258   5.285   5.289
17840TIP3   OH275010   1.401   5.884  16.146
17840TIP3    H175011   1.345   5.962  16.154
17840TIP3    H275012   1.454   5.884  16.225
17841TIP3   OH275013   3.848   1.814   2.139
17841TIP3    H175014   3.905   1.883   2.174
17841TIP3    H275015   3.818   1.849   2.055
17842TIP3   OH275016   2.252   5.582   1.014
17842TIP3    H175017   2.308   5.566   1.091
17842TIP3    H275018   2.180   5.635   1.047
17843TIP3   OH275019   6.584   1.325  14.888
17843TIP3    H175020   6.528   1.312  14.811
17843TIP3    H275021   6.559   1.255  14.948
17844TIP3   OH275022   2.821   3.965   6.770
17844TIP3    H175023   2.775   3.966   6.686
17844TIP3    H275024   2.914   3.961   6.746
17845TIP3   OH275025   4.262   4.357   0.165
17845TIP3    H175026   4.234   4.422   0.100
17845TIP3    H275027   4.218   4.384   0.246
17846TIP3   OH275028   0.433   6.704  14.825
17846TIP3    H175029   0.440   6.609  14.820
17846TIP3    H275030   0.384   6.720  14.905
17847TIP3   OH275031   0.180   6.118   2.263
17847TIP3    H175032   0.182   6.200   2.214
17847TIP3    H275033   0.179   6.050   2.196
17848TIP3   OH275034   5.293   3.581  11.552
17848TIP3    H175035   5.333   3.641  11.489
17848TIP3    H275036   5.364   3.560  11.613
17849TIP3   OH275037   3.624   6.219   4.220
17849TIP3    H175038   3.667   6.139   4.187
17849TIP3    H275039   3.626   6.279   4.146
17850TIP3   OH275040   4.748   3.369   1.238
17850TIP3    H175041   4.710   3.414   1.314
17850TIP3    H275042   4.674   3.356   1.179
17851TIP3   OH275043   5.750   3.196   6.133
17851TIP3    H175044   5.733   3.179   6.226
17851TIP3    H275045   5.844   3.187   6.123
17852TIP3   OH275046   5.782   1.318  14.813
17852TIP3    H175047   5.697   1.275  14.801
17852TIP3    H275048   5.830   1.261  14.873
17853TIP3   OH275049   5.783   0.859   4.978
17853TIP3    H175050   5.811   0.923   4.912
17853TIP3    H275051   5.822   0.777   4.949
17854TIP3   OH275052   0.301   1.133  11.737
17854TIP3    H175053   0.267   1.162  11.652
17854TIP3    H275054   0.224   1.110  11.788
17855TIP3   OH275055   2.301   6.281  16.688
17855TIP3    H175056   2.296   6.191  16.720
17855TIP3    H275057   2.338   6.331  16.760
17856TIP3   OH275058   2.249   6.371   2.033
17856TIP3    H175059   2.285   6.446   1.985
17856TIP3    H275060   2.324   6.336   2.082
17857TIP3   OH275061   0.993   3.284   5.920
17857TIP3    H175062   0.917   3.280   5.861
17857TIP3    H275063   0.961   3.329   5.998
17858TIP3   OH275064   3.902   3.764  12.409
17858TIP3    H175065   3.976   3.716  12.372
17858TIP3    H275066   3.889   3.724  12.495
17859TIP3   OH275067   3.405   5.743   0.055
17859TIP3    H175068   3.368   5.715  -0.029
17859TIP3    H275069   3.478   5.800   0.031
17860TIP3   OH275070   5.691   3.914   1.689
17860TIP3    H175071   5.741   3.917   1.770
17860TIP3    H275072   5.641   3.832   1.694
17861TIP3   OH275073   4.902   3.765   6.470
17861TIP3    H175074   4.880   3.672   6.472
17861TIP3    H275075   4.887   3.790   6.379
17862TIP3   OH275076   5.377   2.053   4.552
17862TIP3    H175077   5.344   2.110   4.483
17862TIP3    H275078   5.415   2.113   4.616
17863TIP3   OH275079   3.346   3.265  14.798
17863TIP3    H175080   3.398   3.303  14.727
17863TIP3    H275081   3.258   3.300  14.785
17864TIP3   OH275082   4.000   3.417  11.695
17864TIP3    H175083   3.979   3.496  11.646
17864TIP3    H275084   4.093   3.426  11.717
17865TIP3   OH275085   2.038   0.936  14.948
17865TIP3    H175086   2.040   0.919  14.853
17865TIP3    H275087   1.974   1.007  14.957
17866TIP3   OH275088   3.533   4.959   5.403
17866TIP3    H175089   3.542   4.933   5.311
17866TIP3    H275090   3.549   5.053   5.403
17867TIP3   OH275091   3.140   6.806   4.333
17867TIP3    H175092   3.197   6.853   4.272
17867TIP3    H275093   3.072   6.768   4.278
17868TIP3   OH275094   2.693   6.728   6.775
17868TIP3    H175095   2.672   6.817   6.803
17868TIP3    H275096   2.627   6.708   6.708
17869TIP3   OH275097   0.308   4.285  15.277
17869TIP3    H175098   0.234   4.227  15.260
17869TIP3    H275099   0.357   4.242  15.347
17870TIP3   OH275100   2.548   2.388  14.919
17870TIP3    H175101   2.532   2.355  14.830
17870TIP3    H275102   2.640   2.417  14.917
17871TIP3   OH275103   5.899   3.632   3.436
17871TIP3    H175104   5.953   3.704   3.404
17871TIP3    H275105   5.881   3.654   3.527
17872TIP3   OH275106   3.391   4.513   1.160
17872TIP3    H175107   3.382   4.501   1.254
17872TIP3    H275108   3.359   4.602   1.144
17873TIP3   OH275109   1.394   5.623  11.111
17873TIP3    H175110   1.362   5.636  11.200
17873TIP3    H275111   1.316   5.623  11.057
17874TIP3   OH275112   1.947   5.829  13.458
17874TIP3    H175113   1.853   5.844  13.443
17874TIP3    H275114   1.968   5.880  13.536
17875TIP3   OH275115   1.415   0.041  12.602
17875TIP3    H175116   1.342   0.009  12.549
17875TIP3    H275117   1.480   0.070  12.538
17876TIP3   OH275118   4.058   3.126  11.430
17876TIP3    H175119   4.104   3.154  11.509
17876TIP3    H275120   3.965   3.131  11.453
17877TIP3   OH275121   2.422   0.311   4.835
17877TIP3    H175122   2.486   0.381   4.820
17877TIP3    H275123   2.385   0.295   4.748
17878TIP3   OH275124   0.883   0.722   3.141
17878TIP3    H175125   0.797   0.688   3.117
17878TIP3    H275126   0.901   0.685   3.227
17879TIP3   OH275127   0.019   3.680   2.174
17879TIP3    H175128   0.076   3.646   2.105
17879TIP3    H275129   0.002   3.604   2.229
17880TIP3   OH275130   2.867   3.400  17.233
17880TIP3    H175131   2.808   3.328  17.212
17880TIP3    H275132   2.880   3.393  17.328
17881TIP3   OH275133   3.756   6.243  13.836
17881TIP3    H175134   3.716   6.239  13.750
17881TIP3    H275135   3.840   6.197  13.826
17882TIP3   OH275136   4.627   3.613  15.955
17882TIP3    H175137   4.570   3.646  15.885
17882TIP3    H275138   4.637   3.686  16.015
17883TIP3   OH275139   0.491   3.120  15.036
17883TIP3    H175140   0.560   3.055  15.018
17883TIP3    H275141   0.441   3.081  15.108
17884TIP3   OH275142   2.307   4.264   4.779
17884TIP3    H175143   2.340   4.353   4.769
17884TIP3    H275144   2.219   4.267   4.742
17885TIP3   OH275145   0.410   0.632  14.255
17885TIP3    H175146   0.485   0.619  14.312
17885TIP3    H275147   0.386   0.724  14.266
17886TIP3   OH275148   0.762   4.710   2.346
17886TIP3    H175149   0.748   4.776   2.278
17886TIP3    H275150   0.714   4.743   2.422
17887TIP3   OH275151   2.613   0.750   5.231
17887TIP3    H175152   2.663   0.801   5.168
17887TIP3    H275153   2.542   0.712   5.181
17888TIP3   OH275154   4.602   6.240   5.383
17888TIP3    H175155   4.679   6.186   5.401
17888TIP3    H275156   4.537   6.179   5.349
17889TIP3   OH275157   5.713   4.481  11.863
17889TIP3    H175158   5.706   4.541  11.937
17889TIP3    H275159   5.648   4.512  11.801
17890TIP3   OH275160   6.618   1.144   0.566
17890TIP3    H175161   6.645   1.121   0.477
17890TIP3    H275162   6.560   1.219   0.554
17891TIP3   OH275163   1.825   1.289   0.247
17891TIP3    H175164   1.815   1.239   0.165
17891TIP3    H275165   1.903   1.251   0.288
17892TIP3   OH275166   0.408   4.807   3.237
17892TIP3    H175167   0.402   4.900   3.263
17892TIP3    H275168   0.410   4.809   3.141
17893TIP3   OH275169   4.493   2.681   0.380
17893TIP3    H175170   4.496   2.771   0.348
17893TIP3    H275171   4.409   2.647   0.352
17894TIP3   OH275172   3.055   0.147   2.523
17894TIP3    H175173   3.031   0.240   2.528
17894TIP3    H275174   3.144   0.148   2.488
17895TIP3   OH275175   0.275   6.458   5.154
17895TIP3    H175176   0.261   6.504   5.237
17895TIP3    H275177   0.289   6.367   5.179
17896TIP3   OH275178   6.150   0.447   1.204
17896TIP3    H175179   6.122   0.399   1.126
17896TIP3    H275180   6.100   0.529   1.201
17897TIP3   OH275181   5.734   2.110  13.055
17897TIP3    H175182   5.676   2.045  13.017
17897TIP3    H275183   5.723   2.187  13.000
17898TIP3   OH275184   0.321   4.103   1.128
17898TIP3    H175185   0.389   4.129   1.191
17898TIP3    H275186   0.241   4.102   1.180
17899TIP3   OH275187   1.504   2.442  16.535
17899TIP3    H175188   1.570   2.378  16.509
17899TIP3    H275189   1.550   2.526  16.531
17900TIP3   OH275190   5.198   2.195  11.341
17900TIP3    H175191   5.273   2.219  11.287
17900TIP3    H275192   5.164   2.115  11.301
17901TIP3   OH275193   2.164   6.153   5.128
17901TIP3    H175194   2.150   6.074   5.181
17901TIP3    H275195   2.110   6.219   5.171
17902TIP3   OH275196   4.882   6.330   4.319
17902TIP3    H175197   4.789   6.310   4.326
17902TIP3    H275198   4.890   6.421   4.348
17903TIP3   OH275199   6.457   4.238   0.260
17903TIP3    H175200   6.542   4.258   0.223
17903TIP3    H275201   6.415   4.324   0.272
17904TIP3   OH275202   3.088   3.869  12.510
17904TIP3    H175203   3.056   3.954  12.482
17904TIP3    H275204   3.150   3.843  12.442
17905TIP3   OH275205   0.428   2.303   0.746
17905TIP3    H175206   0.488   2.315   0.673
17905TIP3    H275207   0.458   2.223   0.789
17906TIP3   OH275208   0.954   1.528  13.454
17906TIP3    H175209   1.015   1.602  13.459
17906TIP3    H275210   0.982   1.478  13.377
17907TIP3   OH275211   3.385   6.113  15.847
17907TIP3    H175212   3.473   6.079  15.829
17907TIP3    H275213   3.396   6.166  15.926
17908TIP3   OH275214   0.450   4.384   5.310
17908TIP3    H175215   0.360   4.355   5.293
17908TIP3    H275216   0.461   4.461   5.254
17909TIP3   OH275217   5.706   3.221  11.523
17909TIP3    H175218   5.771   3.161  11.560
17909TIP3    H275219   5.736   3.308  11.549
17910TIP3   OH275220   3.740   1.445   0.680
17910TIP3    H175221   3.732   1.518   0.742
17910TIP3    H275222   3.835   1.432   0.671
17911TIP3   OH275223   4.609   1.215  10.941
17911TIP3    H175224   4.640   1.235  10.853
17911TIP3    H275225   4.563   1.132  10.932
17912TIP3   OH275226   5.311   2.904  16.891
17912TIP3    H175227   5.353   2.990  16.887
17912TIP3    H275228   5.278   2.889  16.802
17913TIP3   OH275229   6.465   0.912  13.360
17913TIP3    H175230   6.463   1.004  13.384
17913TIP3    H275231   6.556   0.886  13.372
17914TIP3   OH275232   0.060   4.649  14.998
17914TIP3    H175233   0.057   4.570  15.052
17914TIP3    H275234   0.153   4.663  14.981
17915TIP3   OH275235   2.372   2.308   4.312
17915TIP3    H175236   2.365   2.326   4.406
17915TIP3    H275237   2.282   2.303   4.282
17916TIP3   OH275238   2.515   2.915   0.777
17916TIP3    H175239   2.599   2.899   0.733
17916TIP3    H275240   2.484   2.827   0.801
17917TIP3   OH275241   1.450   1.751   6.147
17917TIP3    H175242   1.515   1.689   6.112
17917TIP3    H275243   1.471   1.757   6.241
17918TIP3   OH275244   1.707   3.126  13.431
17918TIP3    H175245   1.687   3.159  13.519
17918TIP3    H275246   1.652   3.049  13.421
17919TIP3   OH275247   4.390   3.561  10.555
17919TIP3    H175248   4.313   3.615  10.538
17919TIP3    H275249   4.425   3.542  10.468
17920TIP3   OH275250   1.328   0.224   3.138
17920TIP3    H175251   1.422   0.208   3.143
17920TIP3    H275252   1.314   0.260   3.051
17921TIP3   OH275253   5.438   5.144  13.684
17921TIP3    H175254   5.391   5.121  13.604
17921TIP3    H275255   5.531   5.141  13.660
17922TIP3   OH275256   4.285   6.036  13.075
17922TIP3    H175257   4.365   5.984  13.067
17922TIP3    H275258   4.244   6.031  12.989
17923TIP3   OH275259   4.052   5.083   6.026
17923TIP3    H175260   4.072   5.170   5.992
17923TIP3    H275261   4.088   5.023   5.960
17924TIP3   OH275262   2.652   2.686   1.838
17924TIP3    H175263   2.727   2.740   1.861
17924TIP3    H275264   2.623   2.647   1.921
17925TIP3   OH275265   6.509   4.100  14.762
17925TIP3    H175266   6.603   4.101  14.745
17925TIP3    H275267   6.486   4.007  14.765
17926TIP3   OH275268   0.401   0.574   2.880
17926TIP3    H175269   0.386   0.511   2.810
17926TIP3    H275270   0.314   0.609   2.901
17927TIP3   OH275271   0.997   1.047  13.979
17927TIP3    H175272   1.090   1.069  13.985
17927TIP3    H275273   0.995   0.951  13.971
17928TIP3   OH275274   6.513   5.483  11.037
17928TIP3    H175275   6.475   5.395  11.040
17928TIP3    H275276   6.438   5.542  11.040
17929TIP3   OH275277   3.927   6.089   6.025
17929TIP3    H175278   3.924   6.135   5.941
17929TIP3    H275279   4.000   6.130   6.071
17930TIP3   OH275280   5.631   1.624   5.793
17930TIP3    H175281   5.574   1.663   5.727
17930TIP3    H275282   5.614   1.530   5.787
17931TIP3   OH275283   5.960   5.704  11.498
17931TIP3    H175284   5.920   5.621  11.526
17931TIP3    H275285   5.927   5.719  11.410
17932TIP3   OH275286   3.901   6.639   2.263
17932TIP3    H175287   3.943   6.723   2.248
17932TIP3    H275288   3.971   6.581   2.294
17933TIP3   OH275289   6.670   0.172   1.711
17933TIP3    H175290   6.581   0.183   1.677
17933TIP3    H275291   6.663   0.190   1.804
17934TIP3   OH275292   5.976   1.126   2.400
17934TIP3    H175293   6.064   1.157   2.421
17934TIP3    H275294   5.935   1.111   2.486
17935TIP3   OH275295   2.009   3.180   0.403
17935TIP3    H175296   2.004   3.264   0.356
17935TIP3    H275297   2.011   3.114   0.333
17936TIP3   OH275298   2.185   6.751  13.198
17936TIP3    H175299   2.219   6.671  13.239
17936TIP3    H275300   2.093   6.752  13.222
17937TIP3   OH275301   0.970   1.272  17.080
17937TIP3    H175302   0.969   1.367  17.069
17937TIP3    H275303   1.022   1.240  17.006
17938TIP3   OH275304   2.786   4.036  12.952
17938TIP3    H175305   2.723   3.966  12.938
17938TIP3    H275306   2.838   4.008  13.027
17939TIP3   OH275307   2.121   6.260  12.970
17939TIP3    H175308   2.107   6.188  12.908
17939TIP3    H275309   2.037   6.272  13.013
17940TIP3   OH275310   6.459   6.362  13.806
17940TIP3    H175311   6.420   6.445  13.778
17940TIP3    H275312   6.507   6.331  13.730
17941TIP3   OH275313   3.863   1.918  15.659
17941TIP3    H175314   3.861   1.912  15.754
17941TIP3    H275315   3.948   1.959  15.640
17942TIP3   OH275316   1.065   2.449  11.524
17942TIP3    H175317   1.130   2.382  11.546
17942TIP3    H275318   1.117   2.528  11.506
17943TIP3   OH275319   3.680   2.557  15.670
17943TIP3    H175320   3.765   2.540  15.630
17943TIP3    H275321   3.636   2.472  15.672
17944TIP3   OH275322   4.479   1.286   6.227
17944TIP3    H175323   4.445   1.371   6.197
17944TIP3    H275324   4.401   1.237   6.254
17945TIP3   OH275325   6.080   3.250  13.768
17945TIP3    H175326   6.108   3.226  13.856
17945TIP3    H275327   6.098   3.171  13.715
17946TIP3   OH275328   2.704   3.755  11.947
17946TIP3    H175329   2.708   3.843  11.984
17946TIP3    H275330   2.699   3.697  12.023
17947TIP3   OH275331   5.446   4.706  16.598
17947TIP3    H175332   5.447   4.617  16.561
17947TIP3    H275333   5.443   4.764  16.522
17948TIP3   OH275334   4.887   4.425   0.919
17948TIP3    H175335   4.810   4.372   0.938
17948TIP3    H275336   4.959   4.361   0.910
17949TIP3   OH275337   0.444   0.091  14.260
17949TIP3    H175338   0.402   0.170  14.294
17949TIP3    H275339   0.437   0.098  14.165
17950TIP3   OH275340   1.079   3.521  12.469
17950TIP3    H175341   1.003   3.481  12.428
17950TIP3    H275342   1.047   3.553  12.553
17951TIP3   OH275343   0.473   5.727  12.697
17951TIP3    H175344   0.482   5.640  12.736
17951TIP3    H275345   0.484   5.713  12.603
17952TIP3   OH275346   5.369   0.049  16.738
17952TIP3    H175347   5.315   0.008  16.806
17952TIP3    H275348   5.457   0.017  16.754
17953TIP3   OH275349   1.518   1.213   0.316
17953TIP3    H175350   1.599   1.248   0.353
17953TIP3    H275351   1.520   1.239   0.224
17954TIP3   OH275352   5.744   0.890  11.894
17954TIP3    H175353   5.690   0.827  11.846
17954TIP3    H275354   5.721   0.975  11.856
17955TIP3   OH275355   2.700   5.813  16.323
17955TIP3    H175356   2.669   5.839  16.236
17955TIP3    H275357   2.656   5.874  16.383
17956TIP3   OH275358   2.603   4.800   1.956
17956TIP3    H175359   2.512   4.818   1.933
17956TIP3    H275360   2.598   4.760   2.043
17957TIP3   OH275361   0.900   6.315   4.851
17957TIP3    H175362   0.903   6.361   4.935
17957TIP3    H275363   0.842   6.240   4.868
17958TIP3   OH275364   3.990   2.600   3.069
17958TIP3    H175365   4.029   2.661   3.132
17958TIP3    H275366   3.965   2.525   3.122
17959TIP3   OH275367   2.667   1.392   5.620
17959TIP3    H175368   2.737   1.348   5.572
17959TIP3    H275369   2.677   1.362   5.710
17960TIP3   OH275370   0.834   2.022  13.469
17960TIP3    H175371   0.818   2.105  13.425
17960TIP3    H275372   0.749   1.979  13.471
17961TIP3   OH275373   1.535   5.665  17.054
17961TIP3    H175374   1.475   5.595  17.028
17961TIP3    H275375   1.484   5.721  17.112
17962TIP3   OH275376   4.462   1.637   6.372
17962TIP3    H175377   4.514   1.565   6.406
17962TIP3    H275378   4.459   1.623   6.277
17963TIP3   OH275379   4.965   4.528   3.932
17963TIP3    H175380   5.054   4.549   3.959
17963TIP3    H275381   4.911   4.596   3.973
17964TIP3   OH275382   1.596   3.169   0.491
17964TIP3    H175383   1.530   3.155   0.559
17964TIP3    H275384   1.563   3.121   0.416
17965TIP3   OH275385   4.193   4.280   2.182
17965TIP3    H175386   4.205   4.186   2.167
17965TIP3    H275387   4.181   4.287   2.277
17966TIP3   OH275388   5.695   0.705   3.387
17966TIP3    H175389   5.699   0.626   3.441
17966TIP3    H275390   5.672   0.673   3.299
17967TIP3   OH275391   3.876   6.073  14.939
17967TIP3    H175392   3.908   5.982  14.941
17967TIP3    H275393   3.800   6.073  14.996
17968TIP3   OH275394   4.961   0.243  14.997
17968TIP3    H175395   4.913   0.322  14.973
17968TIP3    H275396   4.917   0.211  15.076
17969TIP3   OH275397   2.859   2.594  14.567
17969TIP3    H175398   2.910   2.530  14.616
17969TIP3    H275399   2.861   2.673  14.620
17970TIP3   OH275400   4.736   4.291  16.722
17970TIP3    H175401   4.712   4.384  16.730
17970TIP3    H275402   4.693   4.249  16.797
17971TIP3   OH275403   0.478   0.643   0.676
17971TIP3    H175404   0.545   0.705   0.703
17971TIP3    H275405   0.418   0.639   0.750
17972TIP3   OH275406   3.361   2.486  17.244
17972TIP3    H175407   3.341   2.528  17.328
17972TIP3    H275408   3.437   2.430  17.263
17973TIP3   OH275409   6.804   6.505  11.454
17973TIP3    H175410   6.713   6.535  11.457
17973TIP3    H275411   6.834   6.527  11.366
17974TIP3   OH275412   1.289   2.328   0.905
17974TIP3    H175413   1.277   2.359   0.994
17974TIP3    H275414   1.202   2.299   0.877
17975TIP3   OH275415   1.672   4.259   1.440
17975TIP3    H175416   1.671   4.325   1.370
17975TIP3    H275417   1.612   4.293   1.506
17976TIP3   OH275418   3.555   0.585  12.013
17976TIP3    H175419   3.552   0.612  12.105
17976TIP3    H275420   3.623   0.518  12.011
17977TIP3   OH275421   4.604   2.588   2.583
17977TIP3    H175422   4.604   2.589   2.487
17977TIP3    H275423   4.642   2.503   2.606
17978TIP3   OH275424   3.736   1.926  12.825
17978TIP3    H175425   3.783   1.903  12.745
17978TIP3    H275426   3.652   1.882  12.816
17979TIP3   OH275427   3.527   6.118   5.224
17979TIP3    H175428   3.477   6.107   5.143
17979TIP3    H275429   3.496   6.201   5.260
17980TIP3   OH275430   3.860   6.746   6.043
17980TIP3    H175431   3.823   6.759   6.130
17980TIP3    H275432   3.937   6.803   6.040
17981TIP3   OH275433   4.442   1.179  11.934
17981TIP3    H175434   4.427   1.085  11.947
17981TIP3    H275435   4.365   1.221  11.974
17982TIP3   OH275436   2.084   4.077  15.825
17982TIP3    H175437   2.099   4.033  15.742
17982TIP3    H275438   2.170   4.083  15.866
17983TIP3   OH275439   0.613   6.377  12.707
17983TIP3    H175440   0.563   6.306  12.747
17983TIP3    H275441   0.689   6.389  12.764
17984TIP3   OH275442   6.542   0.612  16.821
17984TIP3    H175443   6.470   0.549  16.834
17984TIP3    H275444   6.505   0.678  16.762
17985TIP3   OH275445   5.581   6.094   3.299
17985TIP3    H175446   5.561   6.182   3.330
17985TIP3    H275447   5.519   6.037   3.344
17986TIP3   OH275448   3.490   1.121   0.712
17986TIP3    H175449   3.521   1.124   0.622
17986TIP3    H275450   3.404   1.163   0.709
17987TIP3   OH275451   2.255   2.049   2.436
17987TIP3    H175452   2.164   2.020   2.430
17987TIP3    H275453   2.306   1.971   2.413
17988TIP3   OH275454   5.687   1.886  13.336
17988TIP3    H175455   5.734   1.831  13.273
17988TIP3    H275456   5.613   1.921  13.287
17989TIP3   OH275457   1.070   4.851   2.918
17989TIP3    H175458   1.102   4.928   2.872
17989TIP3    H275459   0.975   4.865   2.924
17990TIP3   OH275460   6.237   5.108  16.096
17990TIP3    H175461   6.311   5.057  16.062
17990TIP3    H275462   6.164   5.085  16.039
17991TIP3   OH275463   5.202   5.513   6.055
17991TIP3    H175464   5.293   5.542   6.057
17991TIP3    H275465   5.169   5.531   6.142
17992TIP3   OH275466   0.546   5.653  11.292
17992TIP3    H175467   0.552   5.578  11.232
17992TIP3    H275468   0.453   5.661  11.310
17993TIP3   OH275469   5.664   2.061   3.779
17993TIP3    H175470   5.715   2.045   3.858
17993TIP3    H275471   5.575   2.034   3.802
17994TIP3   OH275472   2.152   4.375   2.064
17994TIP3    H175473   2.099   4.381   1.984
17994TIP3    H275474   2.215   4.446   2.056
17995TIP3   OH275475   1.467   0.613  14.213
17995TIP3    H175476   1.548   0.641  14.171
17995TIP3    H275477   1.478   0.519  14.225
17996TIP3   OH275478   2.697   5.154  10.452
17996TIP3    H175479   2.750   5.211  10.396
17996TIP3    H275480   2.713   5.066  10.418
17997TIP3   OH275481   2.059   3.928  13.805
17997TIP3    H175482   2.061   3.903  13.897
17997TIP3    H275483   1.967   3.946  13.787
17998TIP3   OH275484   0.198   3.762  16.945
17998TIP3    H175485   0.122   3.809  16.980
17998TIP3    H275486   0.224   3.703  17.016
17999TIP3   OH275487   6.350   1.652  11.989
17999TIP3    H175488   6.406   1.580  11.961
17999TIP3    H275489   6.322   1.628  12.077
18000TIP3   OH275490   6.213   2.994  12.023
18000TIP3    H175491   6.237   3.069  11.968
18000TIP3    H275492   6.117   2.997  12.025
18001TIP3   OH275493   0.494   5.383   0.884
18001TIP3    H175494   0.423   5.404   0.823
18001TIP3    H275495   0.562   5.446   0.864
18002TIP3   OH275496   0.724   4.554  16.812
18002TIP3    H175497   0.631   4.558  16.789
18002TIP3    H275498   0.762   4.495  16.747
18003TIP3   OH275499   0.704   3.627   1.710
18003TIP3    H175500   0.732   3.551   1.761
18003TIP3    H275501   0.660   3.683   1.774
18004TIP3   OH275502   1.332   1.907   1.172
18004TIP3    H175503   1.418   1.892   1.211
18004TIP3    H275504   1.270   1.894   1.244
18005TIP3   OH275505   6.685   0.821   2.352
18005TIP3    H175506   6.638   0.739   2.368
18005TIP3    H275507   6.633   0.864   2.284
18006TIP3   OH275508   0.597   2.560   2.695
18006TIP3    H175509   0.649   2.633   2.660
18006TIP3    H275510   0.559   2.518   2.618
18007TIP3   OH275511   3.218   6.813  12.746
18007TIP3    H175512   3.203   6.795  12.838
18007TIP3    H275513   3.285   6.882  12.745
18008TIP3   OH275514   1.312   0.068  16.308
18008TIP3    H175515   1.282   0.013  16.380
18008TIP3    H275516   1.405   0.079  16.323
18009TIP3   OH275517   2.176   1.020  16.431
18009TIP3    H175518   2.264   1.056  16.447
18009TIP3    H275519   2.183   0.976  16.346
18010TIP3   OH275520   1.570   1.604   1.214
18010TIP3    H175521   1.561   1.652   1.297
18010TIP3    H275522   1.584   1.513   1.240
18011TIP3   OH275523   5.437   3.860  12.554
18011TIP3    H175524   5.364   3.864  12.492
18011TIP3    H275525   5.428   3.775  12.597
18012TIP3   OH275526   2.208   5.469   5.483
18012TIP3    H175527   2.169   5.401   5.537
18012TIP3    H275528   2.292   5.433   5.454
18013TIP3   OH275529   0.936   5.136   6.339
18013TIP3    H175530   0.978   5.148   6.425
18013TIP3    H275531   0.938   5.223   6.300
18014TIP3   OH275532   4.893   5.327  14.913
18014TIP3    H175533   4.894   5.245  14.962
18014TIP3    H275534   4.806   5.330  14.872
18015TIP3   OH275535   1.639   3.882  12.601
18015TIP3    H175536   1.612   3.839  12.682
18015TIP3    H275537   1.632   3.812  12.535
18016TIP3   OH275538   1.064   1.768  12.708
18016TIP3    H175539   1.055   1.839  12.644
18016TIP3    H275540   1.158   1.761  12.723
18017TIP3   OH275541   3.803   2.349  13.668
18017TIP3    H175542   3.779   2.346  13.761
18017TIP3    H275543   3.723   2.322  13.622
18018TIP3   OH275544   4.080   0.162  14.334
18018TIP3    H175545   4.013   0.223  14.304
18018TIP3    H275546   4.124   0.133  14.254
18019TIP3   OH275547   4.809   0.063   1.798
18019TIP3    H175548   4.719   0.034   1.784
18019TIP3    H275549   4.863  -0.007   1.762
18020TIP3   OH275550   6.741   6.287   3.766
18020TIP3    H175551   6.816   6.319   3.817
18020TIP3    H275552   6.681   6.362   3.762
18021TIP3   OH275553   1.190   6.071  11.224
18021TIP3    H175554   1.237   6.074  11.308
18021TIP3    H275555   1.260   6.072  11.158
18022TIP3   OH275556   0.975   0.710  14.402
18022TIP3    H175557   1.063   0.735  14.374
18022TIP3    H275558   0.961   0.623  14.364
18023TIP3   OH275559   2.695   4.627  13.276
18023TIP3    H175560   2.779   4.586  13.294
18023TIP3    H275561   2.706   4.718  13.305
18024TIP3   OH275562   1.662   2.510  14.289
18024TIP3    H175563   1.611   2.435  14.260
18024TIP3    H275564   1.628   2.583  14.237
18025TIP3   OH275565   2.592   2.356   0.536
18025TIP3    H175566   2.584   2.411   0.458
18025TIP3    H275567   2.581   2.266   0.504
18026TIP3   OH275568   4.591   2.822  11.325
18026TIP3    H175569   4.638   2.831  11.408
18026TIP3    H275570   4.620   2.739  11.289
18027TIP3   OH275571   2.771   5.445   3.088
18027TIP3    H175572   2.728   5.375   3.040
18027TIP3    H275573   2.824   5.491   3.023
18028TIP3   OH275574   2.561   1.082   4.711
18028TIP3    H175575   2.533   1.169   4.681
18028TIP3    H275576   2.479   1.034   4.722
18029TIP3   OH275577   4.960   1.705  13.299
18029TIP3    H175578   4.944   1.792  13.336
18029TIP3    H275579   5.026   1.720  13.231
18030TIP3   OH275580   3.607   5.805  13.875
18030TIP3    H175581   3.530   5.747  13.872
18030TIP3    H275582   3.681   5.745  13.884
18031TIP3   OH275583   1.556   4.472  15.750
18031TIP3    H175584   1.563   4.498  15.842
18031TIP3    H275585   1.628   4.410  15.738
18032TIP3   OH275586   0.129   1.007  14.059
18032TIP3    H175587   0.082   1.014  13.976
18032TIP3    H275588   0.073   0.953  14.114
18033TIP3   OH275589   5.942   6.691   3.153
18033TIP3    H175590   5.941   6.642   3.234
18033TIP3    H275591   5.918   6.780   3.178
18034TIP3   OH275592   6.627   2.730  10.270
18034TIP3    H175593   6.631   2.823  10.294
18034TIP3    H275594   6.712   2.711  10.231
18035TIP3   OH275595   1.148   2.740   3.186
18035TIP3    H175596   1.090   2.667   3.164
18035TIP3    H275597   1.183   2.769   3.102
18036TIP3   OH275598   6.447   1.156  15.781
18036TIP3    H175599   6.374   1.153  15.843
18036TIP3    H275600   6.409   1.128  15.698
18037TIP3   OH275601   6.414   6.170  11.763
18037TIP3    H175602   6.413   6.209  11.675
18037TIP3    H275603   6.431   6.244  11.822
18038TIP3   OH275604   2.834   5.406  16.682
18038TIP3    H175605   2.799   5.469  16.745
18038TIP3    H275606   2.926   5.396  16.707
18039TIP3   OH275607   5.286   1.378  13.112
18039TIP3    H175608   5.222   1.380  13.183
18039TIP3    H275609   5.344   1.451  13.130
18040TIP3   OH275610   6.303   4.006   0.218
18040TIP3    H175611   6.346   4.078   0.263
18040TIP3    H275612   6.222   3.991   0.267
18041TIP3   OH275613   0.910   6.117  16.637
18041TIP3    H175614   0.818   6.098  16.657
18041TIP3    H275615   0.960   6.060  16.696
18042TIP3   OH275616   1.936   5.247   4.719
18042TIP3    H175617   2.016   5.283   4.681
18042TIP3    H275618   1.934   5.283   4.808
18043TIP3   OH275619   1.557   2.653  13.507
18043TIP3    H175620   1.482   2.601  13.536
18043TIP3    H275621   1.526   2.697  13.428
18044TIP3   OH275622   0.960   6.640   1.334
18044TIP3    H175623   0.893   6.574   1.351
18044TIP3    H275624   0.915   6.708   1.286
18045TIP3   OH275625   0.045   3.251  11.191
18045TIP3    H175626   0.014   3.165  11.220
18045TIP3    H275627   0.139   3.241  11.181
18046TIP3   OH275628   0.680   5.777   4.771
18046TIP3    H175629   0.732   5.794   4.692
18046TIP3    H275630   0.706   5.689   4.798
18047TIP3   OH275631   1.933   0.180   2.460
18047TIP3    H175632   1.987   0.178   2.539
18047TIP3    H275633   1.983   0.131   2.395
18048TIP3   OH275634   3.677   2.553  11.982
18048TIP3    H175635   3.762   2.515  12.004
18048TIP3    H275636   3.693   2.604  11.903
18049TIP3   OH275637   2.525   6.167  14.924
18049TIP3    H175638   2.434   6.167  14.952
18049TIP3    H275639   2.564   6.244  14.966
18050TIP3   OH275640   2.031   0.390   5.437
18050TIP3    H175641   2.093   0.440   5.490
18050TIP3    H275642   2.050   0.299   5.458
18051TIP3   OH275643   6.631   0.601  13.525
18051TIP3    H175644   6.609   0.683  13.570
18051TIP3    H275645   6.598   0.613  13.436
18052TIP3   OH275646   4.672   2.775  17.292
18052TIP3    H175647   4.763   2.794  17.270
18052TIP3    H275648   4.653   2.691  17.251
18053TIP3   OH275649   4.144   1.656  12.912
18053TIP3    H175650   4.065   1.709  12.900
18053TIP3    H275651   4.186   1.657  12.826
18054TIP3   OH275652   2.651   2.941  13.427
18054TIP3    H175653   2.726   2.901  13.470
18054TIP3    H275654   2.623   3.010  13.486
18055TIP3   OH275655   4.680   0.057  16.124
18055TIP3    H175656   4.595   0.013  16.116
18055TIP3    H275657   4.744  -0.014  16.124
18056TIP3   OH275658   4.395   4.970   2.221
18056TIP3    H175659   4.452   5.046   2.232
18056TIP3    H275660   4.348   4.963   2.304
18057TIP3   OH275661   4.856   1.698   5.523
18057TIP3    H175662   4.761   1.700   5.518
18057TIP3    H275663   4.876   1.727   5.613
18058TIP3   OH275664   4.830   4.647   5.269
18058TIP3    H175665   4.884   4.657   5.191
18058TIP3    H275666   4.762   4.584   5.244
18059TIP3   OH275667   1.751   5.198   3.352
18059TIP3    H175668   1.666   5.242   3.346
18059TIP3    H275669   1.769   5.191   3.445
18060TIP3   OH275670   0.366   5.848  11.691
18060TIP3    H175671   0.317   5.928  11.672
18060TIP3    H275672   0.309   5.798  11.749
18061TIP3   OH275673   3.715   0.399  16.928
18061TIP3    H175674   3.786   0.458  16.904
18061TIP3    H275675   3.647   0.456  16.965
18062TIP3   OH275676   0.320   6.746   1.041
18062TIP3    H175677   0.366   6.710   0.966
18062TIP3    H275678   0.375   6.722   1.116
18063TIP3   OH275679   2.563   3.969   5.122
18063TIP3    H175680   2.529   4.058   5.118
18063TIP3    H275681   2.601   3.954   5.035
18064TIP3   OH275682   0.417   5.992   0.194
18064TIP3    H175683   0.338   5.941   0.212
18064TIP3    H275684   0.482   5.927   0.167
18065TIP3   OH275685   1.270   0.262  12.746
18065TIP3    H175686   1.306   0.187  12.699
18065TIP3    H275687   1.346   0.316  12.768
18066TIP3   OH275688   4.788   3.665  11.569
18066TIP3    H175689   4.860   3.602  11.565
18066TIP3    H275690   4.726   3.635  11.502
18067TIP3   OH275691   1.209   0.679  15.434
18067TIP3    H175692   1.147   0.718  15.374
18067TIP3    H275693   1.234   0.596  15.393
18068TIP3   OH275694   6.621   6.214  15.644
18068TIP3    H175695   6.692   6.163  15.683
18068TIP3    H275696   6.625   6.298  15.688
18069TIP3   OH275697   1.781   3.758  13.309
18069TIP3    H175698   1.826   3.800  13.381
18069TIP3    H275699   1.846   3.753  13.239
18070TIP3   OH275700   4.132   6.456  12.944
18070TIP3    H175701   4.038   6.444  12.958
18070TIP3    H275702   4.142   6.464  12.849
18071TIP3   OH275703   4.627   0.188  13.874
18071TIP3    H175704   4.585   0.225  13.951
18071TIP3    H275705   4.555   0.159  13.819
18072TIP3   OH275706   2.835   1.070   5.604
18072TIP3    H175707   2.826   1.024   5.521
18072TIP3    H275708   2.920   1.042   5.638
18073TIP3   OH275709   3.171   1.472   1.365
18073TIP3    H175710   3.082   1.501   1.343
18073TIP3    H275711   3.166   1.445   1.456
18074TIP3   OH275712   1.444   4.487  14.654
18074TIP3    H175713   1.414   4.456  14.739
18074TIP3    H275714   1.378   4.550  14.626
18075TIP3   OH275715   2.746   0.699  11.579
18075TIP3    H175716   2.721   0.747  11.500
18075TIP3    H275717   2.842   0.700  11.578
18076TIP3   OH275718   4.048   3.553  12.805
18076TIP3    H175719   4.006   3.569  12.890
18076TIP3    H275720   4.047   3.458  12.796
18077TIP3   OH275721   2.685   3.513  16.647
18077TIP3    H175722   2.748   3.519  16.719
18077TIP3    H275723   2.735   3.472  16.575
18078TIP3   OH275724   1.114   2.844   6.718
18078TIP3    H175725   1.200   2.858   6.756
18078TIP3    H275726   1.069   2.786   6.779
18079TIP3   OH275727   6.775   4.551   2.043
18079TIP3    H175728   6.808   4.474   2.090
18079TIP3    H275729   6.810   4.541   1.954
18080TIP3   OH275730   5.532   0.160  14.055
18080TIP3    H175731   5.488   0.136  14.137
18080TIP3    H275732   5.520   0.083  13.998
18081TIP3   OH275733   2.156   3.801   6.328
18081TIP3    H175734   2.123   3.888   6.304
18081TIP3    H275735   2.230   3.820   6.386
18082TIP3   OH275736   0.695   0.687   2.161
18082TIP3    H175737   0.605   0.679   2.193
18082TIP3    H275738   0.733   0.600   2.175
18083TIP3   OH275739   2.717   4.062   0.799
18083TIP3    H175740   2.655   4.032   0.733
18083TIP3    H275741   2.687   4.020   0.880
18084TIP3   OH275742   4.260   3.618   1.020
18084TIP3    H175743   4.248   3.559   1.094
18084TIP3    H275744   4.171   3.648   0.999
18085TIP3   OH275745   1.033   2.841  16.415
18085TIP3    H175746   0.986   2.776  16.363
18085TIP3    H275747   1.124   2.811  16.414
18086TIP3   OH275748   1.885   1.253  14.204
18086TIP3    H175749   1.908   1.238  14.112
18086TIP3    H275750   1.948   1.319  14.234
18087TIP3   OH275751   3.756   5.980   5.292
18087TIP3    H175752   3.813   6.000   5.218
18087TIP3    H275753   3.668   6.001   5.262
18088TIP3   OH275754   5.859   1.492  16.361
18088TIP3    H175755   5.876   1.534  16.445
18088TIP3    H275756   5.869   1.398  16.378
18089TIP3   OH275757   4.238   5.274   3.599
18089TIP3    H175758   4.172   5.205   3.600
18089TIP3    H275759   4.190   5.353   3.627
18090TIP3   OH275760   3.148   4.390  11.219
18090TIP3    H175761   3.089   4.322  11.186
18090TIP3    H275762   3.093   4.445  11.274
18091TIP3   OH275763   1.783   3.441  13.407
18091TIP3    H175764   1.845   3.504  13.445
18091TIP3    H275765   1.709   3.440  13.468
18092TIP3   OH275766   0.394   5.694  15.992
18092TIP3    H175767   0.428   5.606  15.976
18092TIP3    H275768   0.317   5.700  15.936
18093TIP3   OH275769   3.276   3.742   3.328
18093TIP3    H175770   3.201   3.726   3.386
18093TIP3    H275771   3.353   3.727   3.383
18094TIP3   OH275772   4.639   3.574  12.769
18094TIP3    H175773   4.557   3.622  12.786
18094TIP3    H275774   4.638   3.557  12.675
18095TIP3   OH275775   5.238   2.945   6.150
18095TIP3    H175776   5.250   2.945   6.055
18095TIP3    H275777   5.324   2.969   6.185
18096TIP3   OH275778   6.774   0.844   5.944
18096TIP3    H175779   6.749   0.768   5.997
18096TIP3    H275780   6.734   0.827   5.859
18097TIP3   OH275781   4.128   2.618   5.099
18097TIP3    H175782   4.177   2.633   5.018
18097TIP3    H275783   4.191   2.639   5.169
18098TIP3   OH275784   2.030   5.729  10.449
18098TIP3    H175785   2.121   5.757  10.448
18098TIP3    H275786   1.982   5.800  10.406
18099TIP3   OH275787   4.425   4.855   4.886
18099TIP3    H175788   4.473   4.828   4.963
18099TIP3    H275789   4.388   4.773   4.851
18100TIP3   OH275790   6.220   0.960   2.163
18100TIP3    H175791   6.304   0.933   2.125
18100TIP3    H275792   6.220   1.056   2.155
18101TIP3   OH275793   3.796   2.627   4.505
18101TIP3    H175794   3.718   2.578   4.532
18101TIP3    H275795   3.761   2.703   4.459
18102TIP3   OH275796   2.301   4.179   3.855
18102TIP3    H175797   2.386   4.224   3.852
18102TIP3    H275798   2.271   4.192   3.945
18103TIP3   OH275799   1.584   0.276   0.803
18103TIP3    H175800   1.588   0.371   0.807
18103TIP3    H275801   1.572   0.249   0.894
18104TIP3   OH275802   3.463   2.016   1.557
18104TIP3    H175803   3.381   2.013   1.605
18104TIP3    H275804   3.438   2.005   1.465
18105TIP3   OH275805   0.105   6.167   0.928
18105TIP3    H175806   0.077   6.103   0.862
18105TIP3    H275807   0.194   6.191   0.901
18106TIP3   OH275808   6.094   0.561   1.655
18106TIP3    H175809   6.011   0.532   1.693
18106TIP3    H275810   6.126   0.484   1.608
18107TIP3   OH275811   2.608   3.260  16.748
18107TIP3    H175812   2.580   3.314  16.674
18107TIP3    H275813   2.606   3.171  16.715
18108TIP3   OH275814   4.183   5.417  12.458
18108TIP3    H175815   4.262   5.471  12.460
18108TIP3    H275816   4.191   5.360  12.534
18109TIP3   OH275817   0.259   3.535  16.585
18109TIP3    H175818   0.334   3.591  16.605
18109TIP3    H275819   0.251   3.477  16.661
18110TIP3   OH275820   6.320   6.746  12.764
18110TIP3    H175821   6.248   6.799  12.728
18110TIP3    H275822   6.285   6.708  12.844
18111TIP3   OH275823   4.053   1.757   3.461
18111TIP3    H175824   3.963   1.737   3.485
18111TIP3    H275825   4.049   1.778   3.367
18112TIP3   OH275826   3.778   5.816   2.523
18112TIP3    H175827   3.762   5.741   2.467
18112TIP3    H275828   3.718   5.884   2.491
18113TIP3   OH275829   6.756   2.399  12.699
18113TIP3    H175830   6.721   2.345  12.770
18113TIP3    H275831   6.678   2.429  12.652
18114TIP3   OH275832   3.322   0.964  16.099
18114TIP3    H175833   3.347   1.008  16.018
18114TIP3    H275834   3.332   0.870  16.079
18115TIP3   OH275835   4.421   5.744  17.027
18115TIP3    H175836   4.416   5.839  17.015
18115TIP3    H275837   4.406   5.731  17.121
18116TIP3   OH275838   3.654   3.603   0.061
18116TIP3    H175839   3.570   3.558   0.071
18116TIP3    H275840   3.719   3.533   0.067
18117TIP3   OH275841   2.439   5.171  13.122
18117TIP3    H175842   2.392   5.095  13.157
18117TIP3    H275843   2.530   5.143  13.117
18118TIP3   OH275844   3.676   2.806  10.145
18118TIP3    H175845   3.607   2.869  10.125
18118TIP3    H275846   3.757   2.850  10.123
18119TIP3   OH275847   4.685   5.165   1.698
18119TIP3    H175848   4.691   5.158   1.793
18119TIP3    H275849   4.775   5.149   1.667
18120TIP3   OH275850   2.574   0.900   0.375
18120TIP3    H175851   2.570   0.819   0.425
18120TIP3    H275852   2.641   0.953   0.418
18121TIP3   OH275853   2.573   5.160  12.701
18121TIP3    H175854   2.605   5.085  12.750
18121TIP3    H275855   2.512   5.204  12.760
18122TIP3   OH275856   4.310   1.171   1.962
18122TIP3    H175857   4.246   1.229   1.921
18122TIP3    H275858   4.345   1.222   2.034
18123TIP3   OH275859   1.585   4.119   3.562
18123TIP3    H175860   1.641   4.178   3.512
18123TIP3    H275861   1.508   4.172   3.583
18124TIP3   OH275862   5.007   0.940  14.513
18124TIP3    H175863   5.094   0.979  14.521
18124TIP3    H275864   5.017   0.850  14.543
18125TIP3   OH275865   5.438   0.669   4.499
18125TIP3    H175866   5.506   0.674   4.566
18125TIP3    H275867   5.367   0.621   4.542
18126TIP3   OH275868   5.739   5.177  15.170
18126TIP3    H175869   5.804   5.122  15.127
18126TIP3    H275870   5.785   5.212  15.246
18127TIP3   OH275871   0.985   6.583   5.285
18127TIP3    H175872   0.904   6.569   5.334
18127TIP3    H275873   1.049   6.527   5.329
18128TIP3   OH275874   5.740   1.353   5.898
18128TIP3    H175875   5.745   1.274   5.845
18128TIP3    H275876   5.825   1.358   5.941
18129TIP3   OH275877   4.015   6.819   3.809
18129TIP3    H175878   3.922   6.820   3.785
18129TIP3    H275879   4.016   6.844   3.901
18130TIP3   OH275880   4.033   0.659   4.955
18130TIP3    H175881   3.961   0.598   4.938
18130TIP3    H275882   3.996   0.723   5.016
18131TIP3   OH275883   6.717   5.592  11.405
18131TIP3    H175884   6.747   5.629  11.489
18131TIP3    H275885   6.622   5.592  11.412
18132TIP3   OH275886   3.603   2.813  10.580
18132TIP3    H175887   3.511   2.825  10.556
18132TIP3    H275888   3.643   2.898  10.562
18133TIP3   OH275889   5.624   4.903   2.858
18133TIP3    H175890   5.654   4.990   2.884
18133TIP3    H275891   5.556   4.920   2.792
18134TIP3   OH275892   0.136   0.851   3.874
18134TIP3    H175893   0.189   0.927   3.850
18134TIP3    H275894   0.196   0.793   3.921
18135TIP3   OH275895   0.980   0.793  14.715
18135TIP3    H175896   0.920   0.866  14.729
18135TIP3    H275897   1.045   0.826  14.653
18136TIP3   OH275898   0.345   1.465  15.486
18136TIP3    H175899   0.388   1.544  15.454
18136TIP3    H275900   0.413   1.416  15.531
18137TIP3   OH275901   6.742   5.596  13.380
18137TIP3    H175902   6.813   5.658  13.400
18137TIP3    H275903   6.673   5.617  13.442
18138TIP3   OH275904   4.068   2.389  16.976
18138TIP3    H175905   3.977   2.391  17.007
18138TIP3    H275906   4.104   2.308  17.011
18139TIP3   OH275907   3.456   1.583   1.238
18139TIP3    H175908   3.392   1.653   1.249
18139TIP3    H275909   3.438   1.522   1.310
18140TIP3   OH275910   3.368   5.424   0.430
18140TIP3    H175911   3.354   5.442   0.523
18140TIP3    H275912   3.294   5.465   0.386
18141TIP3   OH275913   0.865   0.933   0.167
18141TIP3    H175914   0.806   0.863   0.140
18141TIP3    H275915   0.909   0.960   0.087
18142TIP3   OH275916   4.542   4.861   1.413
18142TIP3    H175917   4.484   4.794   1.376
18142TIP3    H275918   4.487   4.910   1.473
18143TIP3   OH275919   0.929   0.107   4.987
18143TIP3    H175920   1.006   0.069   4.944
18143TIP3    H275921   0.859   0.045   4.971
18144TIP3   OH275922   3.581   5.223   3.899
18144TIP3    H175923   3.510   5.286   3.887
18144TIP3    H275924   3.604   5.230   3.992
18145TIP3   OH275925   6.225   0.239   4.759
18145TIP3    H175926   6.251   0.331   4.757
18145TIP3    H275927   6.218   0.219   4.852
18146TIP3   OH275928   0.104   5.622  10.929
18146TIP3    H175929   0.175   5.564  10.956
18146TIP3    H275930   0.046   5.627  11.004
18147TIP3   OH275931   3.192   4.244  16.001
18147TIP3    H175932   3.169   4.237  16.094
18147TIP3    H275933   3.238   4.162  15.982
18148TIP3   OH275934   2.596   5.002  10.798
18148TIP3    H175935   2.509   5.030  10.768
18148TIP3    H275936   2.650   5.000  10.719
18149TIP3   OH275937   3.914   2.424   0.348
18149TIP3    H175938   3.914   2.345   0.294
18149TIP3    H275939   3.826   2.429   0.384
18150TIP3   OH275940   3.269   1.700   4.247
18150TIP3    H175941   3.280   1.734   4.336
18150TIP3    H275942   3.357   1.699   4.210
18151TIP3   OH275943   4.479   2.210   1.458
18151TIP3    H175944   4.517   2.153   1.391
18151TIP3    H275945   4.393   2.234   1.424
18152TIP3   OH275946   0.818   5.317  17.031
18152TIP3    H175947   0.819   5.326  16.936
18152TIP3    H275948   0.782   5.399  17.063
18153TIP3   OH275949   4.736   5.627  17.274
18153TIP3    H175950   4.752   5.686  17.201
18153TIP3    H275951   4.671   5.565  17.242
18154TIP3   OH275952   6.724   2.447  15.281
18154TIP3    H175953   6.674   2.446  15.363
18154TIP3    H275954   6.786   2.519  15.292
18155TIP3   OH275955   2.716   3.257   0.434
18155TIP3    H175956   2.774   3.296   0.500
18155TIP3    H275957   2.698   3.329   0.373
18156TIP3   OH275958   1.765   4.972   2.186
18156TIP3    H175959   1.718   5.052   2.208
18156TIP3    H275960   1.788   4.982   2.093
18157TIP3   OH275961   6.614   1.764  15.643
18157TIP3    H175962   6.573   1.761  15.556
18157TIP3    H275963   6.701   1.799  15.627
18158TIP3   OH275964   2.203   4.429  11.859
18158TIP3    H175965   2.131   4.421  11.797
18158TIP3    H275966   2.163   4.462  11.940
18159TIP3   OH275967   4.463   3.737  15.309
18159TIP3    H175968   4.368   3.746  15.313
18159TIP3    H275969   4.493   3.821  15.274
18160TIP3   OH275970   3.405   4.969  15.303
18160TIP3    H175971   3.398   5.040  15.367
18160TIP3    H275972   3.347   4.996  15.231
18161TIP3   OH275973   5.077   3.978  16.447
18161TIP3    H175974   5.075   4.070  16.422
18161TIP3    H275975   5.151   3.942  16.399
18162TIP3   OH275976   4.483   4.774  12.653
18162TIP3    H175977   4.470   4.798  12.745
18162TIP3    H275978   4.459   4.852  12.603
18163TIP3   OH275979   0.352   4.109   6.014
18163TIP3    H175980   0.333   4.049   5.941
18163TIP3    H275981   0.381   4.052   6.085
18164TIP3   OH275982   5.839   5.165  13.172
18164TIP3    H175983   5.873   5.112  13.245
18164TIP3    H275984   5.827   5.102  13.101
18165TIP3   OH275985   5.875   3.469  13.470
18165TIP3    H175986   5.966   3.439  13.472
18165TIP3    H275987   5.843   3.455  13.559
18166TIP3   OH275988   0.745   5.083  12.475
18166TIP3    H175989   0.758   5.145  12.547
18166TIP3    H275990   0.702   5.008  12.516
18167TIP3   OH275991   2.868   2.919   0.965
18167TIP3    H175992   2.818   2.882   0.893
18167TIP3    H275993   2.960   2.907   0.939
18168TIP3   OH275994   5.975   3.901   3.120
18168TIP3    H175995   5.911   3.891   3.050
18168TIP3    H275996   6.053   3.856   3.087
18169TIP3   OH275997   0.686   5.955  14.528
18169TIP3    H175998   0.657   5.981  14.440
18169TIP3    H275999   0.734   6.031  14.561
18170TIP3   OH276000   2.800   3.417   2.049
18170TIP3    H176001   2.869   3.369   2.094
18170TIP3    H276002   2.812   3.508   2.077
18171TIP3   OH276003   2.047   5.525  15.681
18171TIP3    H176004   1.982   5.586  15.646
18171TIP3    H276005   2.130   5.556  15.644
18172TIP3   OH276006   2.466   4.969  14.239
18172TIP3    H176007   2.431   5.019  14.312
18172TIP3    H276008   2.462   4.877  14.268
18173TIP3   OH276009   0.654   4.338   5.498
18173TIP3    H176010   0.584   4.362   5.436
18173TIP3    H276011   0.731   4.325   5.443
18174TIP3   OH276012   3.283   0.380   5.348
18174TIP3    H176013   3.310   0.299   5.392
18174TIP3    H276014   3.265   0.354   5.258
18175TIP3   OH276015   1.821   4.148  13.451
18175TIP3    H176016   1.807   4.243  13.455
18175TIP3    H276017   1.734   4.112  13.435
18176TIP3   OH276018   0.736   3.936  15.539
18176TIP3    H176019   0.802   3.946  15.608
18176TIP3    H276020   0.686   3.858  15.565
18177TIP3   OH276021   4.515   4.687   3.255
18177TIP3    H176022   4.444   4.627   3.279
18177TIP3    H276023   4.471   4.769   3.234
18178TIP3   OH276024   6.306   4.233  16.992
18178TIP3    H176025   6.330   4.240  17.085
18178TIP3    H276026   6.352   4.306  16.950
18179TIP3   OH276027   1.388   4.740  12.844
18179TIP3    H176028   1.386   4.807  12.912
18179TIP3    H276029   1.296   4.715  12.832
18180TIP3   OH276030   5.247   6.079  15.605
18180TIP3    H176031   5.183   6.097  15.536
18180TIP3    H276032   5.328   6.120  15.574
18181TIP3   OH276033   5.686   0.776   2.060
18181TIP3    H176034   5.749   0.773   1.987
18181TIP3    H276035   5.682   0.868   2.085
18182TIP3   OH276036   2.484   6.394  13.887
18182TIP3    H176037   2.402   6.426  13.924
18182TIP3    H276038   2.508   6.319  13.941
18183TIP3   OH276039   4.464   5.158   5.475
18183TIP3    H176040   4.475   5.252   5.489
18183TIP3    H276041   4.394   5.152   5.410
18184TIP3   OH276042   2.450   4.198   5.006
18184TIP3    H176043   2.397   4.242   5.073
18184TIP3    H276044   2.408   4.221   4.924
18185TIP3   OH276045   5.387   3.230   3.055
18185TIP3    H176046   5.292   3.223   3.053
18185TIP3    H276047   5.411   3.204   3.144
18186TIP3   OH276048   5.938   5.731   6.423
18186TIP3    H176049   5.876   5.681   6.370
18186TIP3    H276050   5.898   5.818   6.431
18187TIP3   OH276051   4.660   4.482   5.138
18187TIP3    H176052   4.694   4.441   5.058
18187TIP3    H276053   4.612   4.412   5.182
18188TIP3   OH276054   6.429   0.134   2.456
18188TIP3    H176055   6.423   0.214   2.508
18188TIP3    H276056   6.523   0.113   2.455
18189TIP3   OH276057   1.763   1.068   5.171
18189TIP3    H176058   1.840   1.118   5.143
18189TIP3    H276059   1.702   1.135   5.203
18190TIP3   OH276060   1.417   1.086  14.537
18190TIP3    H176061   1.489   1.025  14.553
18190TIP3    H276062   1.460   1.172  14.535
18191TIP3   OH276063   5.455   4.987   4.769
18191TIP3    H176064   5.524   4.944   4.820
18191TIP3    H276065   5.503   5.049   4.713
18192TIP3   OH276066   2.673   4.492   6.583
18192TIP3    H176067   2.751   4.516   6.534
18192TIP3    H276068   2.655   4.401   6.559
18193TIP3   OH276069   3.000   4.151   1.045
18193TIP3    H176070   3.024   4.243   1.040
18193TIP3    H276071   2.973   4.128   0.956
18194TIP3   OH276072   0.371   1.420  16.107
18194TIP3    H176073   0.364   1.390  16.198
18194TIP3    H276074   0.418   1.503  16.113
18195TIP3   OH276075   4.563   6.594  12.754
18195TIP3    H176076   4.597   6.597  12.843
18195TIP3    H276077   4.472   6.567  12.764
18196TIP3   OH276078   6.126   3.677   3.014
18196TIP3    H176079   6.044   3.628   3.004
18196TIP3    H276080   6.165   3.676   2.926
18197TIP3   OH276081   3.626   5.020   6.687
18197TIP3    H176082   3.546   4.967   6.690
18197TIP3    H276083   3.658   5.020   6.777
18198TIP3   OH276084   1.386   6.431   5.159
18198TIP3    H176085   1.416   6.442   5.250
18198TIP3    H276086   1.466   6.442   5.107
18199TIP3   OH276087   6.695   5.883   1.827
18199TIP3    H176088   6.622   5.877   1.765
18199TIP3    H276089   6.701   5.976   1.848
18200TIP3   OH276090   5.671   4.918  12.116
18200TIP3    H176091   5.696   4.891  12.028
18200TIP3    H276092   5.666   4.836  12.166
18201TIP3   OH276093   1.796   3.933  14.904
18201TIP3    H176094   1.808   4.028  14.893
18201TIP3    H276095   1.764   3.903  14.819
18202TIP3   OH276096   3.085   3.194  11.617
18202TIP3    H176097   3.129   3.204  11.533
18202TIP3    H276098   3.056   3.283  11.639
18203TIP3   OH276099   2.244   5.363  14.163
18203TIP3    H176100   2.234   5.384  14.256
18203TIP3    H276101   2.206   5.275  14.154
18204TIP3   OH276102   5.011   3.530  11.534
18204TIP3    H176103   5.099   3.567  11.535
18204TIP3    H276104   5.005   3.481  11.452
18205TIP3   OH276105   0.211   3.432  11.638
18205TIP3    H176106   0.219   3.338  11.625
18205TIP3    H276107   0.181   3.465  11.553
18206TIP3   OH276108   2.939   2.516   1.702
18206TIP3    H176109   2.920   2.609   1.685
18206TIP3    H276110   3.029   2.504   1.671
18207TIP3   OH276111   4.649   2.343   2.002
18207TIP3    H176112   4.635   2.273   1.939
18207TIP3    H276113   4.563   2.356   2.043
18208TIP3   OH276114   2.998   4.538  16.988
18208TIP3    H176115   2.933   4.562  16.922
18208TIP3    H276116   2.972   4.451  17.017
18209TIP3   OH276117   3.146   4.918   2.357
18209TIP3    H176118   3.213   4.884   2.298
18209TIP3    H276119   3.118   5.000   2.316
18210TIP3   OH276120   6.749   3.505  13.880
18210TIP3    H176121   6.817   3.446  13.911
18210TIP3    H276122   6.676   3.449  13.856
18211TIP3   OH276123   1.694   0.185  13.464
18211TIP3    H176124   1.696   0.143  13.378
18211TIP3    H276125   1.728   0.119  13.524
18212TIP3   OH276126   6.485   5.091  11.542
18212TIP3    H176127   6.570   5.048  11.529
18212TIP3    H276128   6.440   5.037  11.607
18213TIP3   OH276129   1.533   6.402   2.555
18213TIP3    H176130   1.579   6.333   2.604
18213TIP3    H276131   1.594   6.428   2.487
18214TIP3   OH276132   1.490   1.072   0.666
18214TIP3    H176133   1.570   1.055   0.616
18214TIP3    H276134   1.437   1.127   0.608
18215TIP3   OH276135   2.206   2.902  16.772
18215TIP3    H176136   2.155   2.835  16.727
18215TIP3    H276137   2.206   2.874  16.864
18216TIP3   OH276138   0.121   0.738   4.504
18216TIP3    H176139   0.150   0.673   4.441
18216TIP3    H276140   0.026   0.740   4.495
18217TIP3   OH276141   3.071   2.924   5.727
18217TIP3    H176142   3.055   3.015   5.700
18217TIP3    H276143   2.997   2.875   5.692
18218TIP3   OH276144   4.288   2.581   0.075
18218TIP3    H176145   4.326   2.529   0.004
18218TIP3    H276146   4.342   2.661   0.078
18219TIP3   OH276147   5.109   4.944  15.064
18219TIP3    H176148   5.190   4.982  15.030
18219TIP3    H276149   5.080   5.006  15.131
18220TIP3   OH276150   1.387   3.702   5.625
18220TIP3    H176151   1.297   3.733   5.625
18220TIP3    H276152   1.421   3.726   5.538
18221TIP3   OH276153   2.994   5.744  15.251
18221TIP3    H176154   3.029   5.798  15.180
18221TIP3    H276155   3.043   5.662  15.246
18222TIP3   OH276156   6.389   3.927  15.499
18222TIP3    H176157   6.411   3.845  15.542
18222TIP3    H276158   6.359   3.902  15.412
18223TIP3   OH276159   1.587   5.489   2.631
18223TIP3    H176160   1.491   5.498   2.626
18223TIP3    H276161   1.620   5.575   2.607
18224TIP3   OH276162   4.177   2.823   0.638
18224TIP3    H176163   4.218   2.799   0.555
18224TIP3    H276164   4.088   2.788   0.632
18225TIP3   OH276165   0.061   6.484   3.340
18225TIP3    H176166   0.017   6.422   3.282
18225TIP3    H276167  -0.000   6.495   3.414
18226TIP3   OH276168   2.342   3.719   4.581
18226TIP3    H176169   2.262   3.668   4.594
18226TIP3    H276170   2.315   3.792   4.525
18227TIP3   OH276171   4.383   1.945   4.479
18227TIP3    H176172   4.434   1.989   4.547
18227TIP3    H276173   4.383   1.853   4.505
18228TIP3   OH276174   3.122   5.210  12.272
18228TIP3    H176175   3.101   5.303  12.264
18228TIP3    H276176   3.056   5.174  12.331
18229TIP3   OH276177   2.109   5.643   5.930
18229TIP3    H176178   2.038   5.672   5.987
18229TIP3    H276179   2.070   5.642   5.842
18230TIP3   OH276180   3.588   5.866   4.636
18230TIP3    H176181   3.620   5.957   4.639
18230TIP3    H276182   3.668   5.813   4.641
18231TIP3   OH276183   2.386   4.894  10.444
18231TIP3    H176184   2.451   4.843  10.492
18231TIP3    H276185   2.384   4.856  10.357
18232TIP3   OH276186   3.373   1.785   2.713
18232TIP3    H176187   3.389   1.794   2.619
18232TIP3    H276188   3.448   1.737   2.746
18233TIP3   OH276189   3.620   2.352  14.779
18233TIP3    H176190   3.605   2.341  14.685
18233TIP3    H276191   3.621   2.263  14.814
18234TIP3   OH276192   6.775   0.169  12.813
18234TIP3    H176193   6.794   0.250  12.766
18234TIP3    H276194   6.681   0.173  12.830
18235TIP3   OH276195   3.821   4.436   3.987
18235TIP3    H176196   3.914   4.420   3.999
18235TIP3    H276197   3.778   4.375   4.047
18236TIP3   OH276198   5.237   4.042  11.318
18236TIP3    H176199   5.251   3.971  11.256
18236TIP3    H276200   5.285   4.016  11.397
18237TIP3   OH276201   4.595   1.043  16.440
18237TIP3    H176202   4.518   1.013  16.393
18237TIP3    H276203   4.575   1.027  16.532
18238TIP3   OH276204   0.559   1.717   5.958
18238TIP3    H176205   0.595   1.740   6.044
18238TIP3    H276206   0.480   1.770   5.950
18239TIP3   OH276207   3.777   1.917   1.211
18239TIP3    H176208   3.708   1.936   1.275
18239TIP3    H276209   3.752   1.833   1.173
18240TIP3   OH276210   1.676   2.241  16.447
18240TIP3    H176211   1.628   2.187  16.385
18240TIP3    H276212   1.768   2.227  16.424
18241TIP3   OH276213   1.575   5.930   5.692
18241TIP3    H176214   1.627   5.938   5.612
18241TIP3    H276215   1.504   5.871   5.667
18242TIP3   OH276216   1.315   2.869   6.894
18242TIP3    H176217   1.334   2.815   6.970
18242TIP3    H276218   1.360   2.952   6.912
18243TIP3   OH276219   5.582   1.419   2.807
18243TIP3    H176220   5.539   1.427   2.722
18243TIP3    H276221   5.536   1.482   2.863
18244TIP3   OH276222   1.490   0.318   5.909
18244TIP3    H176223   1.499   0.393   5.968
18244TIP3    H276224   1.503   0.355   5.821
18245TIP3   OH276225   5.769   0.215   4.575
18245TIP3    H176226   5.733   0.266   4.504
18245TIP3    H276227   5.863   0.209   4.555
18246TIP3   OH276228   5.527   2.776   0.737
18246TIP3    H176229   5.537   2.837   0.664
18246TIP3    H276230   5.569   2.820   0.811
18247TIP3   OH276231   2.074   1.067  16.768
18247TIP3    H176232   2.071   1.093  16.676
18247TIP3    H276233   2.167   1.054  16.786
18248TIP3   OH276234   0.736   1.124  17.103
18248TIP3    H176235   0.780   1.086  17.027
18248TIP3    H276236   0.796   1.192  17.133
18249TIP3   OH276237   3.024   2.880  13.333
18249TIP3    H176238   3.004   2.796  13.375
18249TIP3    H276239   3.003   2.866  13.241
18250TIP3   OH276240   5.769   5.228   1.432
18250TIP3    H176241   5.777   5.187   1.345
18250TIP3    H276242   5.835   5.184   1.485
18251TIP3   OH276243   2.500   1.752   3.307
18251TIP3    H176244   2.569   1.781   3.367
18251TIP3    H276245   2.535   1.771   3.220
18252TIP3   OH276246   3.178   5.218   2.250
18252TIP3    H176247   3.176   5.203   2.156
18252TIP3    H276248   3.088   5.239   2.274
18253TIP3   OH276249   2.879   1.660   0.176
18253TIP3    H176250   2.946   1.629   0.237
18253TIP3    H276251   2.879   1.755   0.187
18254TIP3   OH276252   1.195   1.479   4.446
18254TIP3    H176253   1.168   1.536   4.374
18254TIP3    H276254   1.115   1.465   4.497
18255TIP3   OH276255   0.400   3.365   1.720
18255TIP3    H176256   0.379   3.335   1.631
18255TIP3    H276257   0.493   3.385   1.718
18256TIP3   OH276258   4.410   2.499   2.037
18256TIP3    H176259   4.410   2.566   2.106
18256TIP3    H276260   4.317   2.484   2.019
18257TIP3   OH276261   5.087   6.599  13.116
18257TIP3    H176262   5.176   6.634  13.119
18257TIP3    H276263   5.079   6.560  13.030
18258TIP3   OH276264   0.728   4.451   0.385
18258TIP3    H176265   0.809   4.404   0.401
18258TIP3    H276266   0.712   4.441   0.291
18259TIP3   OH276267   2.569   5.051  11.628
18259TIP3    H176268   2.490   5.005  11.656
18259TIP3    H276269   2.554   5.142  11.653
18260TIP3   OH276270   6.464   5.401   3.795
18260TIP3    H176271   6.481   5.405   3.701
18260TIP3    H276272   6.481   5.310   3.819
18261TIP3   OH276273   0.918   3.372   2.296
18261TIP3    H176274   1.003   3.333   2.274
18261TIP3    H276275   0.921   3.459   2.257
18262TIP3   OH276276   4.831   4.962  14.700
18262TIP3    H176277   4.864   4.900  14.765
18262TIP3    H276278   4.896   4.959  14.630
18263TIP3   OH276279   3.707   5.512  10.980
18263TIP3    H176280   3.741   5.429  10.947
18263TIP3    H276281   3.715   5.572  10.906
18264TIP3   OH276282   0.010   6.013   0.719
18264TIP3    H176283   0.048   6.018   0.631
18264TIP3    H276284   0.000   5.919   0.735
18265TIP3   OH276285   0.960   0.289  13.489
18265TIP3    H176286   0.933   0.253  13.574
18265TIP3    H276287   0.879   0.295  13.439
18266TIP3   OH276288   5.802   6.521   0.075
18266TIP3    H176289   5.767   6.499  -0.011
18266TIP3    H276290   5.826   6.437   0.114
18267TIP3   OH276291   3.688   2.950   1.206
18267TIP3    H176292   3.658   3.034   1.239
18267TIP3    H276293   3.656   2.946   1.116
18268TIP3   OH276294   4.712   2.445  14.943
18268TIP3    H176295   4.655   2.432  15.018
18268TIP3    H276296   4.790   2.394  14.963
18269TIP3   OH276297   6.388   5.797   5.416
18269TIP3    H176298   6.324   5.726   5.416
18269TIP3    H276299   6.336   5.877   5.405
18270TIP3   OH276300   4.193   0.290   3.755
18270TIP3    H176301   4.191   0.249   3.669
18270TIP3    H276302   4.105   0.323   3.769
18271TIP3   OH276303   4.254   3.526  13.402
18271TIP3    H176304   4.287   3.599  13.350
18271TIP3    H276305   4.287   3.543  13.490
18272TIP3   OH276306   0.320   0.227  14.986
18272TIP3    H176307   0.277   0.218  14.901
18272TIP3    H276308   0.264   0.177  15.046
18273TIP3   OH276309   2.131   1.766   4.899
18273TIP3    H176310   2.214   1.725   4.876
18273TIP3    H276311   2.122   1.753   4.993
18274TIP3   OH276312   4.458   6.075   0.426
18274TIP3    H176313   4.391   6.006   0.426
18274TIP3    H276314   4.528   6.040   0.371
18275TIP3   OH276315   5.066   2.668  13.110
18275TIP3    H176316   5.096   2.626  13.191
18275TIP3    H276317   5.122   2.630  13.042
18276TIP3   OH276318   4.570   1.181  13.536
18276TIP3    H176319   4.520   1.100  13.541
18276TIP3    H276320   4.644   1.168  13.594
18277TIP3   OH276321   1.331   2.519  15.250
18277TIP3    H176322   1.341   2.558  15.163
18277TIP3    H276323   1.416   2.531  15.292
18278TIP3   OH276324   5.650   1.029   1.134
18278TIP3    H176325   5.690   1.116   1.128
18278TIP3    H276326   5.556   1.046   1.141
18279TIP3   OH276327   1.020   3.978  15.663
18279TIP3    H176328   0.985   4.064  15.686
18279TIP3    H276329   1.061   3.946  15.743
18280TIP3   OH276330   1.280   4.095  10.676
18280TIP3    H176331   1.226   4.164  10.638
18280TIP3    H276332   1.217   4.034  10.715
18281TIP3   OH276333   3.549   2.085   2.411
18281TIP3    H176334   3.622   2.142   2.385
18281TIP3    H276335   3.472   2.142   2.409
18282TIP3   OH276336   4.422   4.355  15.967
18282TIP3    H176337   4.371   4.373  16.046
18282TIP3    H276338   4.359   4.354  15.896
18283TIP3   OH276339   2.658   5.646   3.218
18283TIP3    H176340   2.627   5.592   3.291
18283TIP3    H276341   2.686   5.582   3.152
18284TIP3   OH276342   3.355   4.803   1.590
18284TIP3    H176343   3.409   4.726   1.574
18284TIP3    H276344   3.397   4.872   1.540
18285TIP3   OH276345   1.609   4.241  13.124
18285TIP3    H176346   1.657   4.158  13.124
18285TIP3    H276347   1.526   4.221  13.168
18286TIP3   OH276348   5.933   6.129  12.494
18286TIP3    H176349   5.874   6.077  12.440
18286TIP3    H276350   5.944   6.211  12.447
18287TIP3   OH276351   5.259   0.554   3.671
18287TIP3    H176352   5.176   0.570   3.628
18287TIP3    H276353   5.275   0.634   3.722
18288TIP3   OH276354   3.635   1.801  17.140
18288TIP3    H176355   3.607   1.789  17.050
18288TIP3    H276356   3.683   1.721  17.162
18289TIP3   OH276357   5.084   3.245   3.962
18289TIP3    H176358   5.037   3.162   3.970
18289TIP3    H276359   5.155   3.238   4.026
18290TIP3   OH276360   0.652   3.133   0.365
18290TIP3    H176361   0.645   3.159   0.273
18290TIP3    H276362   0.715   3.061   0.365
18291TIP3   OH276363   3.095   2.264  13.785
18291TIP3    H176364   3.006   2.242  13.811
18291TIP3    H276365   3.149   2.197  13.826
18292TIP3   OH276366   3.734   5.684   1.567
18292TIP3    H176367   3.819   5.718   1.539
18292TIP3    H276368   3.701   5.750   1.627
18293TIP3   OH276369   6.494   5.388  15.293
18293TIP3    H176370   6.587   5.382  15.270
18293TIP3    H276371   6.467   5.298  15.309
18294TIP3   OH276372   4.513   1.854  14.186
18294TIP3    H176373   4.507   1.760  14.167
18294TIP3    H276374   4.481   1.862  14.276
18295TIP3   OH276375   5.126   3.954   2.874
18295TIP3    H176376   5.189   3.883   2.888
18295TIP3    H276377   5.041   3.912   2.876
18296TIP3   OH276378   5.703   1.376  16.791
18296TIP3    H176379   5.738   1.287  16.792
18296TIP3    H276380   5.776   1.431  16.763
18297TIP3   OH276381   0.168   4.428  16.018
18297TIP3    H176382   0.264   4.433  16.016
18297TIP3    H276383   0.150   4.350  16.069
18298TIP3   OH276384   1.854   0.074   4.944
18298TIP3    H176385   1.804  -0.006   4.927
18298TIP3    H276386   1.941   0.044   4.969
18299TIP3   OH276387   2.240   5.441   6.142
18299TIP3    H176388   2.215   5.480   6.058
18299TIP3    H276389   2.198   5.496   6.208
18300TIP3   OH276390   5.113   6.239  13.427
18300TIP3    H176391   5.176   6.238  13.355
18300TIP3    H276392   5.142   6.312  13.482
18301TIP3   OH276393   0.766   3.544  14.559
18301TIP3    H176394   0.700   3.543  14.628
18301TIP3    H276395   0.847   3.520  14.603
18302TIP3   OH276396   4.804   5.229  13.575
18302TIP3    H176397   4.817   5.290  13.647
18302TIP3    H276398   4.730   5.265  13.526
18303TIP3   OH276399   2.780   5.222  15.034
18303TIP3    H176400   2.810   5.140  15.073
18303TIP3    H276401   2.690   5.204  15.005
18304TIP3   OH276402   2.349   1.505  14.267
18304TIP3    H176403   2.395   1.495  14.184
18304TIP3    H276404   2.383   1.586  14.304
18305TIP3   OH276405   6.688   3.207  13.663
18305TIP3    H176406   6.758   3.150  13.632
18305TIP3    H276407   6.673   3.181  13.754
18306TIP3   OH276408   5.775   6.742   2.029
18306TIP3    H176409   5.782   6.837   2.030
18306TIP3    H276410   5.852   6.712   1.980
18307TIP3   OH276411   0.635   5.825   1.733
18307TIP3    H176412   0.618   5.855   1.823
18307TIP3    H276413   0.548   5.819   1.693
18308TIP3   OH276414   0.558   1.424   2.057
18308TIP3    H176415   0.506   1.428   1.977
18308TIP3    H276416   0.646   1.448   2.029
18309TIP3   OH276417   2.349   2.978  12.024
18309TIP3    H176418   2.432   2.932  12.037
18309TIP3    H276419   2.361   3.027  11.943
18310TIP3   OH276420   6.770   4.823   2.996
18310TIP3    H176421   6.761   4.898   3.055
18310TIP3    H276422   6.794   4.751   3.054
18311TIP3   OH276423   1.858   4.151   1.616
18311TIP3    H176424   1.802   4.193   1.551
18311TIP3    H276425   1.823   4.180   1.700
18312TIP3   OH276426   3.821   5.978   3.368
18312TIP3    H176427   3.819   5.899   3.423
18312TIP3    H276428   3.909   5.978   3.331
18313TIP3   OH276429   1.897   4.391   5.191
18313TIP3    H176430   1.905   4.425   5.280
18313TIP3    H276431   1.930   4.462   5.136
18314TIP3   OH276432   6.065   5.712  13.927
18314TIP3    H176433   6.012   5.674  13.857
18314TIP3    H276434   6.005   5.718  14.002
18315TIP3   OH276435   4.960   5.475   5.096
18315TIP3    H176436   4.879   5.503   5.053
18315TIP3    H276437   5.013   5.554   5.102
18316TIP3   OH276438   5.527   1.872   3.294
18316TIP3    H176439   5.599   1.912   3.342
18316TIP3    H276440   5.493   1.941   3.237
18317TIP3   OH276441   0.569   6.002  11.623
18317TIP3    H176442   0.495   5.944  11.637
18317TIP3    H276443   0.531   6.090  11.622
18318TIP3   OH276444   2.088   0.327   1.621
18318TIP3    H176445   2.181   0.335   1.600
18318TIP3    H276446   2.053   0.271   1.552
18319TIP3   OH276447   2.024   1.450  14.827
18319TIP3    H176448   1.935   1.482  14.813
18319TIP3    H276449   2.034   1.447  14.922
18320TIP3   OH276450   2.209   4.526  16.540
18320TIP3    H176451   2.215   4.438  16.502
18320TIP3    H276452   2.116   4.537  16.560
18321TIP3   OH276453   5.391   2.988  14.528
18321TIP3    H176454   5.296   2.986  14.537
18321TIP3    H276455   5.407   2.983  14.434
18322TIP3   OH276456   0.942   1.188  15.146
18322TIP3    H176457   0.900   1.169  15.230
18322TIP3    H276458   0.967   1.281  15.152
18323TIP3   OH276459   6.699   4.012   5.685
18323TIP3    H176460   6.640   4.052   5.620
18323TIP3    H276461   6.642   3.955   5.737
18324TIP3   OH276462   4.190   1.802   5.455
18324TIP3    H176463   4.246   1.880   5.462
18324TIP3    H276464   4.101   1.837   5.450
18325TIP3   OH276465   2.986   4.421  14.281
18325TIP3    H176466   2.951   4.402  14.368
18325TIP3    H276467   3.059   4.480  14.296
18326TIP3   OH276468   0.556   0.615  10.480
18326TIP3    H176469   0.578   0.593  10.570
18326TIP3    H276470   0.566   0.711  10.476
18327TIP3   OH276471   4.564   3.410  15.319
18327TIP3    H176472   4.604   3.464  15.387
18327TIP3    H276473   4.474   3.398  15.347
18328TIP3   OH276474   4.885   1.949  16.930
18328TIP3    H176475   4.940   1.880  16.893
18328TIP3    H276476   4.886   2.018  16.864
18329TIP3   OH276477   0.291   2.242   1.478
18329TIP3    H176478   0.298   2.183   1.403
18329TIP3    H276479   0.224   2.306   1.453
18330TIP3   OH276480   5.310   1.404  13.722
18330TIP3    H176481   5.252   1.358  13.661
18330TIP3    H276482   5.302   1.354  13.804
18331TIP3   OH276483   3.868   4.288  15.404
18331TIP3    H176484   3.850   4.197  15.381
18331TIP3    H276485   3.781   4.327  15.416
18332TIP3   OH276486   1.378   4.660   2.322
18332TIP3    H176487   1.458   4.617   2.290
18332TIP3    H276488   1.351   4.609   2.398
18333TIP3   OH276489   0.128   2.580  11.658
18333TIP3    H176490   0.177   2.519  11.604
18333TIP3    H276491   0.073   2.524  11.714
18334TIP3   OH276492   0.692   4.088   4.184
18334TIP3    H176493   0.628   4.051   4.123
18334TIP3    H276494   0.694   4.026   4.257
18335TIP3   OH276495   1.551   0.476  15.467
18335TIP3    H176496   1.644   0.461  15.481
18335TIP3    H276497   1.547   0.557  15.416
18336TIP3   OH276498   2.217   3.035   6.077
18336TIP3    H176499   2.194   3.017   6.168
18336TIP3    H276500   2.253   3.123   6.078
18337TIP3   OH276501   4.039   2.145  15.003
18337TIP3    H176502   3.968   2.183  15.055
18337TIP3    H276503   4.056   2.060  15.045
18338TIP3   OH276504   5.176   3.595   2.056
18338TIP3    H176505   5.236   3.669   2.067
18338TIP3    H276506   5.098   3.633   2.017
18339TIP3   OH276507   2.722   3.640   0.323
18339TIP3    H176508   2.776   3.676   0.252
18339TIP3    H276509   2.693   3.555   0.290
18340TIP3   OH276510   4.633   3.385  14.015
18340TIP3    H176511   4.716   3.350  14.047
18340TIP3    H276512   4.580   3.397  14.094
18341TIP3   OH276513   1.755   6.604  16.796
18341TIP3    H176514   1.705   6.531  16.761
18341TIP3    H276515   1.689   6.666  16.827
18342TIP3   OH276516   6.293   3.354   3.150
18342TIP3    H176517   6.283   3.449   3.161
18342TIP3    H276518   6.365   3.331   3.209
18343TIP3   OH276519   6.290   3.805  12.530
18343TIP3    H176520   6.238   3.748  12.587
18343TIP3    H276521   6.303   3.885  12.581
18344TIP3   OH276522   3.361   3.080  14.411
18344TIP3    H176523   3.276   3.038  14.426
18344TIP3    H276524   3.412   3.059  14.489
18345TIP3   OH276525   1.460   5.874   1.291
18345TIP3    H176526   1.534   5.935   1.284
18345TIP3    H276527   1.484   5.815   1.362
18346TIP3   OH276528   0.451   6.311  16.785
18346TIP3    H176529   0.382   6.373  16.763
18346TIP3    H276530   0.459   6.255  16.708
18347TIP3   OH276531   6.453   0.825  14.780
18347TIP3    H176532   6.436   0.846  14.688
18347TIP3    H276533   6.480   0.733  14.779
18348TIP3   OH276534   4.675   4.069   5.189
18348TIP3    H176535   4.745   4.091   5.127
18348TIP3    H276536   4.615   4.144   5.183
18349TIP3   OH276537   0.129   4.482   0.738
18349TIP3    H176538   0.119   4.388   0.754
18349TIP3    H276539   0.127   4.491   0.643
18350TIP3   OH276540   0.044   4.259  12.261
18350TIP3    H176541   0.070   4.209  12.183
18350TIP3    H276542  -0.049   4.240  12.271
18351TIP3   OH276543   6.006   4.333   4.867
18351TIP3    H176544   5.958   4.323   4.950
18351TIP3    H276545   5.962   4.272   4.807
18352TIP3   OH276546   2.311   2.893   4.891
18352TIP3    H176547   2.245   2.833   4.858
18352TIP3    H276548   2.266   2.945   4.957
18353TIP3   OH276549   5.157   5.031   3.306
18353TIP3    H176550   5.208   4.955   3.276
18353TIP3    H276551   5.071   4.995   3.328
18354TIP3   OH276552   1.613   0.474  13.315
18354TIP3    H176553   1.593   0.538  13.383
18354TIP3    H276554   1.641   0.396  13.362
18355TIP3   OH276555   4.059   6.739  13.589
18355TIP3    H176556   4.143   6.767  13.627
18355TIP3    H276557   3.999   6.811  13.608
18356TIP3   OH276558   6.228   6.059  17.058
18356TIP3    H176559   6.233   6.153  17.042
18356TIP3    H276560   6.147   6.047  17.108
18357TIP3   OH276561   0.601   5.136  17.103
18357TIP3    H176562   0.683   5.179  17.126
18357TIP3    H276563   0.554   5.126  17.186
18358TIP3   OH276564   5.483   6.092   3.023
18358TIP3    H176565   5.527   6.090   3.109
18358TIP3    H276566   5.554   6.107   2.961
18359TIP3   OH276567   3.367   1.920  13.332
18359TIP3    H176568   3.461   1.931  13.325
18359TIP3    H276569   3.334   2.006  13.356
18360TIP3   OH276570   2.561   0.514  11.382
18360TIP3    H176571   2.628   0.548  11.443
18360TIP3    H276572   2.490   0.579  11.386
18361TIP3   OH276573   4.350   2.471   4.362
18361TIP3    H176574   4.302   2.526   4.299
18361TIP3    H276575   4.306   2.386   4.357
18362TIP3   OH276576   4.657   4.694   1.875
18362TIP3    H176577   4.723   4.625   1.880
18362TIP3    H276578   4.602   4.680   1.952
18363TIP3   OH276579   3.191   3.302   0.083
18363TIP3    H176580   3.185   3.314  -0.011
18363TIP3    H276581   3.135   3.372   0.119
18364TIP3   OH276582   0.156   0.011   0.811
18364TIP3    H176583   0.168   0.096   0.855
18364TIP3    H276584   0.148  -0.052   0.883
18365TIP3   OH276585   5.455   0.016   4.464
18365TIP3    H176586   5.455   0.089   4.402
18365TIP3    H276587   5.377  -0.034   4.441
18366TIP3   OH276588   1.265   6.341   0.605
18366TIP3    H176589   1.280   6.428   0.640
18366TIP3    H276590   1.175   6.319   0.632
18367TIP3   OH276591   3.649   1.818   5.189
18367TIP3    H176592   3.587   1.866   5.134
18367TIP3    H276593   3.638   1.856   5.276
18368TIP3   OH276594   6.191   0.752   0.579
18368TIP3    H176595   6.122   0.786   0.635
18368TIP3    H276596   6.144   0.703   0.511
18369TIP3   OH276597   5.560   4.549   0.612
18369TIP3    H176598   5.477   4.528   0.567
18369TIP3    H276599   5.541   4.536   0.705
18370TIP3   OH276600   4.347   5.043   1.955
18370TIP3    H176601   4.431   5.023   1.913
18370TIP3    H276602   4.357   5.010   2.044
18371TIP3   OH276603   1.002   0.611   0.056
18371TIP3    H176604   0.912   0.643   0.065
18371TIP3    H276605   1.027   0.584   0.145
18372TIP3   OH276606   2.456   2.750  12.376
18372TIP3    H176607   2.521   2.692  12.336
18372TIP3    H276608   2.493   2.838  12.369
18373TIP3   OH276609   0.139   3.651  15.512
18373TIP3    H176610   0.117   3.725  15.455
18373TIP3    H276611   0.080   3.659  15.587
18374TIP3   OH276612   1.970   4.332   5.979
18374TIP3    H176613   1.996   4.324   6.070
18374TIP3    H276614   2.002   4.418   5.952
18375TIP3   OH276615   4.262   6.392   3.208
18375TIP3    H176616   4.303   6.472   3.241
18375TIP3    H276617   4.330   6.349   3.156
18376TIP3   OH276618   3.563   4.632  16.794
18376TIP3    H176619   3.526   4.609  16.879
18376TIP3    H276620   3.515   4.578  16.732
18377TIP3   OH276621   5.872   3.143   5.450
18377TIP3    H176622   5.842   3.079   5.386
18377TIP3    H276623   5.822   3.223   5.430
18378TIP3   OH276624   1.559   2.153  11.907
18378TIP3    H176625   1.628   2.212  11.936
18378TIP3    H276626   1.563   2.155  11.812
18379TIP3   OH276627   0.787   5.362  16.768
18379TIP3    H176628   0.739   5.421  16.710
18379TIP3    H276629   0.822   5.294  16.711
18380TIP3   OH276630   0.506   0.662   5.093
18380TIP3    H176631   0.517   0.640   5.186
18380TIP3    H276632   0.428   0.718   5.092
18381TIP3   OH276633   5.354   6.230   1.835
18381TIP3    H176634   5.329   6.268   1.751
18381TIP3    H276635   5.413   6.294   1.874
18382TIP3   OH276636   1.990   4.631   1.483
18382TIP3    H176637   2.019   4.543   1.457
18382TIP3    H276638   1.896   4.621   1.500
18383TIP3   OH276639   1.030   5.489  11.271
18383TIP3    H176640   1.103   5.439  11.234
18383TIP3    H276641   0.979   5.518  11.196
18384TIP3   OH276642   3.903   6.751  10.622
18384TIP3    H176643   3.813   6.747  10.589
18384TIP3    H276644   3.957   6.728  10.546
18385TIP3   OH276645   2.649   4.715   2.930
18385TIP3    H176646   2.566   4.671   2.951
18385TIP3    H276647   2.624   4.782   2.866
18386TIP3   OH276648   2.178   6.196   2.859
18386TIP3    H176649   2.189   6.103   2.877
18386TIP3    H276650   2.182   6.238   2.945
18387TIP3   OH276651   1.708   5.828   0.508
18387TIP3    H176652   1.796   5.828   0.470
18387TIP3    H276653   1.705   5.748   0.562
18388TIP3   OH276654   5.222   4.420  12.362
18388TIP3    H176655   5.133   4.425  12.327
18388TIP3    H276656   5.276   4.464  12.297
18389TIP3   OH276657   0.968   2.344   4.943
18389TIP3    H176658   0.915   2.400   4.887
18389TIP3    H276659   0.944   2.255   4.917
18390TIP3   OH276660   5.295   6.785  15.850
18390TIP3    H176661   5.370   6.759  15.904
18390TIP3    H276662   5.272   6.706  15.801
18391TIP3   OH276663   2.508   1.779  14.297
18391TIP3    H176664   2.593   1.738  14.281
18391TIP3    H276665   2.498   1.778  14.392
18392TIP3   OH276666   1.912   2.825  11.957
18392TIP3    H176667   1.912   2.749  12.014
18392TIP3    H276668   1.828   2.821  11.911
18393TIP3   OH276669   0.043   2.766   0.618
18393TIP3    H176670   0.017   2.710   0.544
18393TIP3    H276671  -0.014   2.842   0.612
18394TIP3   OH276672   3.427   3.898  17.247
18394TIP3    H176673   3.415   3.904  17.342
18394TIP3    H276674   3.339   3.891  17.212
18395TIP3   OH276675   5.161   0.221  11.165
18395TIP3    H176676   5.117   0.245  11.083
18395TIP3    H276677   5.246   0.189  11.137
18396TIP3   OH276678   3.091   2.684   6.138
18396TIP3    H176679   3.086   2.737   6.217
18396TIP3    H276680   3.181   2.695   6.106
18397TIP3   OH276681   1.542   2.144   5.926
18397TIP3    H176682   1.469   2.085   5.909
18397TIP3    H276683   1.555   2.140   6.021
18398TIP3   OH276684   4.630   6.278  14.913
18398TIP3    H176685   4.694   6.349  14.902
18398TIP3    H276686   4.569   6.289  14.840
18399TIP3   OH276687   0.863   2.367   1.029
18399TIP3    H176688   0.780   2.323   1.013
18399TIP3    H276689   0.839   2.456   1.056
18400TIP3   OH276690   3.508   1.034  12.203
18400TIP3    H176691   3.573   1.058  12.269
18400TIP3    H276692   3.558   0.992  12.133
18401TIP3   OH276693   4.685   2.517  16.280
18401TIP3    H176694   4.694   2.427  16.312
18401TIP3    H276695   4.775   2.549  16.271
18402TIP3   OH276696   5.234   5.719  12.661
18402TIP3    H176697   5.279   5.637  12.683
18402TIP3    H276698   5.216   5.760  12.745
18403TIP3   OH276699   6.226   2.142  10.608
18403TIP3    H176700   6.283   2.106  10.540
18403TIP3    H276701   6.241   2.087  10.685
18404TIP3   OH276702   0.916   6.271   3.292
18404TIP3    H176703   0.944   6.205   3.230
18404TIP3    H276704   0.838   6.234   3.334
18405TIP3   OH276705   4.455   2.650   1.740
18405TIP3    H176706   4.509   2.573   1.722
18405TIP3    H276707   4.425   2.678   1.653
18406TIP3   OH276708   4.497   1.325   4.716
18406TIP3    H176709   4.529   1.407   4.681
18406TIP3    H276710   4.418   1.306   4.666
18407TIP3   OH276711   2.168   0.240   2.591
18407TIP3    H176712   2.219   0.282   2.522
18407TIP3    H276713   2.230   0.182   2.634
18408TIP3   OH276714   1.324   4.056  11.484
18408TIP3    H176715   1.387   4.051  11.412
18408TIP3    H276716   1.367   4.009  11.556
18409TIP3   OH276717   0.329   6.033   4.508
18409TIP3    H176718   0.265   6.098   4.479
18409TIP3    H276719   0.412   6.064   4.474
18410TIP3   OH276720   4.449   4.466  13.893
18410TIP3    H176721   4.512   4.407  13.852
18410TIP3    H276722   4.424   4.527  13.823
18411TIP3   OH276723   0.437   5.699   1.108
18411TIP3    H176724   0.523   5.741   1.097
18411TIP3    H276725   0.418   5.706   1.201
18412TIP3   OH276726   4.331   1.541  10.875
18412TIP3    H176727   4.382   1.586  10.808
18412TIP3    H276728   4.397   1.498  10.929
18413TIP3   OH276729   6.518   6.424  14.272
18413TIP3    H176730   6.588   6.402  14.334
18413TIP3    H276731   6.444   6.371  14.300
18414TIP3   OH276732   5.458   0.871  16.457
18414TIP3    H176733   5.454   0.949  16.400
18414TIP3    H276734   5.519   0.812  16.413
18415TIP3   OH276735   1.280   0.461   1.212
18415TIP3    H176736   1.263   0.462   1.118
18415TIP3    H276737   1.341   0.534   1.227
18416TIP3   OH276738   1.339   4.693  13.981
18416TIP3    H176739   1.345   4.786  14.004
18416TIP3    H276740   1.249   4.669  14.003
18417TIP3   OH276741   4.884   2.556  15.839
18417TIP3    H176742   4.877   2.649  15.820
18417TIP3    H276743   4.846   2.546  15.927
18418TIP3   OH276744   3.756   5.344   2.588
18418TIP3    H176745   3.665   5.318   2.601
18418TIP3    H276746   3.759   5.377   2.498
18419TIP3   OH276747   5.398   6.174   2.643
18419TIP3    H176748   5.426   6.084   2.663
18419TIP3    H276749   5.303   6.167   2.635
18420TIP3   OH276750   3.682   0.599   4.465
18420TIP3    H176751   3.710   0.651   4.541
18420TIP3    H276752   3.593   0.629   4.446
18421TIP3   OH276753   4.755   3.551   3.335
18421TIP3    H176754   4.671   3.505   3.340
18421TIP3    H276755   4.815   3.487   3.299
18422TIP3   OH276756   3.229   4.757   4.132
18422TIP3    H176757   3.270   4.812   4.199
18422TIP3    H276758   3.164   4.815   4.091
18423TIP3   OH276759   0.888   1.849  13.669
18423TIP3    H176760   0.857   1.922  13.616
18423TIP3    H276761   0.956   1.808  13.615
18424TIP3   OH276762   4.974   0.664  10.984
18424TIP3    H176763   4.922   0.633  11.058
18424TIP3    H276764   4.928   0.629  10.907
18425TIP3   OH276765   2.244   3.145  12.774
18425TIP3    H176766   2.154   3.121  12.749
18425TIP3    H276767   2.267   3.083  12.843
18426TIP3   OH276768   5.753   0.927   4.379
18426TIP3    H176769   5.673   0.884   4.411
18426TIP3    H276770   5.721   1.002   4.328
18427TIP3   OH276771   3.002   2.600  16.438
18427TIP3    H176772   3.066   2.672  16.440
18427TIP3    H276773   2.931   2.630  16.494
18428TIP3   OH276774   0.882   2.406   4.292
18428TIP3    H176775   0.905   2.480   4.347
18428TIP3    H276776   0.923   2.331   4.334
18429TIP3   OH276777   1.565   4.877   3.884
18429TIP3    H176778   1.543   4.797   3.930
18429TIP3    H276779   1.650   4.860   3.844
18430TIP3   OH276780   5.875   1.076   3.223
18430TIP3    H176781   5.906   1.153   3.270
18430TIP3    H276782   5.784   1.065   3.251
18431TIP3   OH276783   0.633   1.710   5.200
18431TIP3    H176784   0.588   1.717   5.284
18431TIP3    H276785   0.568   1.739   5.136
18432TIP3   OH276786   5.393   2.273   5.251
18432TIP3    H176787   5.327   2.258   5.183
18432TIP3    H276788   5.442   2.350   5.222
18433TIP3   OH276789   6.554   6.584  15.412
18433TIP3    H176790   6.623   6.529  15.375
18433TIP3    H276791   6.517   6.630  15.336
18434TIP3   OH276792   3.655   5.495   4.966
18434TIP3    H176793   3.596   5.457   5.031
18434TIP3    H276794   3.724   5.536   5.017
18435TIP3   OH276795   5.019   0.237   0.838
18435TIP3    H176796   5.079   0.312   0.841
18435TIP3    H276797   4.959   0.252   0.911
18436TIP3   OH276798   0.266   1.063   3.037
18436TIP3    H176799   0.205   1.074   2.964
18436TIP3    H276800   0.211   1.062   3.115
18437TIP3   OH276801   6.570   1.092   0.058
18437TIP3    H176802   6.510   1.058  -0.008
18437TIP3    H276803   6.655   1.095   0.014
18438TIP3   OH276804   1.553   4.108   4.632
18438TIP3    H176805   1.599   4.026   4.653
18438TIP3    H276806   1.461   4.090   4.652
18439TIP3   OH276807   5.807   2.005  12.763
18439TIP3    H176808   5.866   2.017  12.688
18439TIP3    H276809   5.720   1.998  12.724
18440TIP3   OH276810   5.944   5.886   3.202
18440TIP3    H176811   5.913   5.842   3.123
18440TIP3    H276812   5.968   5.814   3.261
18441TIP3   OH276813   4.036   2.306  15.510
18441TIP3    H176814   4.114   2.353  15.481
18441TIP3    H276815   3.974   2.376  15.533
18442TIP3   OH276816   3.230   3.106  16.009
18442TIP3    H176817   3.142   3.097  16.045
18442TIP3    H276818   3.218   3.143  15.922
18443TIP3   OH276819   4.169   2.126  15.273
18443TIP3    H176820   4.204   2.190  15.211
18443TIP3    H276821   4.076   2.147  15.279
18444TIP3   OH276822   6.107   5.985  12.673
18444TIP3    H176823   6.044   6.043  12.631
18444TIP3    H276824   6.185   6.038  12.684
18445TIP3   OH276825   5.164   4.703  13.171
18445TIP3    H176826   5.205   4.633  13.121
18445TIP3    H276827   5.158   4.776  13.109
18446TIP3   OH276828   2.174   3.727  15.073
18446TIP3    H176829   2.099   3.674  15.100
18446TIP3    H276830   2.224   3.739  15.154
18447TIP3   OH276831   0.419   4.306  11.369
18447TIP3    H176832   0.386   4.227  11.326
18447TIP3    H276833   0.349   4.370  11.359
18448TIP3   OH276834   0.737   6.428   1.196
18448TIP3    H176835   0.671   6.359   1.197
18448TIP3    H276836   0.820   6.381   1.202
18449TIP3   OH276837   3.327   0.554   2.490
18449TIP3    H176838   3.241   0.535   2.453
18449TIP3    H276839   3.331   0.504   2.571
18450TIP3   OH276840   6.283   6.487   4.022
18450TIP3    H176841   6.240   6.562   4.062
18450TIP3    H276842   6.376   6.498   4.044
18451TIP3   OH276843   1.506   3.327  14.728
18451TIP3    H176844   1.458   3.281  14.659
18451TIP3    H276845   1.438   3.358  14.787
18452TIP3   OH276846   1.219   4.399   0.085
18452TIP3    H176847   1.174   4.315   0.079
18452TIP3    H276848   1.239   4.409   0.178
18453TIP3   OH276849   1.254   0.215   5.457
18453TIP3    H176850   1.341   0.193   5.423
18453TIP3    H276851   1.196   0.150   5.418
18454TIP3   OH276852   1.242   4.223   6.099
18454TIP3    H176853   1.332   4.220   6.132
18454TIP3    H276854   1.204   4.140   6.126
18455TIP3   OH276855   3.020   5.202  14.946
18455TIP3    H176856   3.086   5.266  14.919
18455TIP3    H276857   2.944   5.254  14.970
18456TIP3   OH276858   4.302   0.757  13.825
18456TIP3    H176859   4.275   0.694  13.758
18456TIP3    H276860   4.270   0.719  13.907
18457TIP3   OH276861   1.741   6.582  11.696
18457TIP3    H176862   1.713   6.524  11.766
18457TIP3    H276863   1.744   6.669  11.735
18458TIP3   OH276864   0.593   4.953  16.890
18458TIP3    H176865   0.608   5.018  16.959
18458TIP3    H276866   0.656   4.977  16.821
18459TIP3   OH276867   6.107   5.154   5.681
18459TIP3    H176868   6.033   5.182   5.734
18459TIP3    H276869   6.108   5.058   5.690
18460TIP3   OH276870   4.371   0.540  14.477
18460TIP3    H176871   4.364   0.597  14.554
18460TIP3    H276872   4.329   0.458  14.504
18461TIP3   OH276873   6.211   0.261  12.737
18461TIP3    H176874   6.257   0.330  12.786
18461TIP3    H276875   6.123   0.260  12.774
18462TIP3   OH276876   5.751   5.566  14.197
18462TIP3    H176877   5.813   5.636  14.177
18462TIP3    H276878   5.741   5.519  14.114
18463TIP3   OH276879   6.696   5.324   2.293
18463TIP3    H176880   6.692   5.229   2.309
18463TIP3    H276881   6.607   5.355   2.309
18464TIP3   OH276882   3.782   1.714  16.287
18464TIP3    H176883   3.846   1.739  16.354
18464TIP3    H276884   3.782   1.787  16.226
18465TIP3   OH276885   6.474   3.861  12.316
18465TIP3    H176886   6.555   3.842  12.365
18465TIP3    H276887   6.406   3.865  12.383
18466TIP3   OH276888   1.964   0.486  13.753
18466TIP3    H176889   1.931   0.418  13.812
18466TIP3    H276890   1.926   0.465  13.668
18467TIP3   OH276891   3.024   0.118  11.483
18467TIP3    H176892   2.953   0.058  11.459
18467TIP3    H276893   2.999   0.150  11.570
18468TIP3   OH276894   2.812   0.619   0.933
18468TIP3    H176895   2.757   0.541   0.934
18468TIP3    H276896   2.840   0.627   0.842
18469TIP3   OH276897   2.941   5.036  15.286
18469TIP3    H176898   3.033   5.055  15.268
18469TIP3    H276899   2.902   5.122  15.304
18470TIP3   OH276900   4.676   2.918  13.268
18470TIP3    H176901   4.708   2.848  13.211
18470TIP3    H276902   4.707   2.893  13.356
18471TIP3   OH276903   3.856   5.483  14.649
18471TIP3    H176904   3.782   5.474  14.589
18471TIP3    H276905   3.815   5.498  14.735
18472TIP3   OH276906   2.207   5.476   2.474
18472TIP3    H176907   2.255   5.554   2.502
18472TIP3    H276908   2.239   5.459   2.385
18473TIP3   OH276909   6.232   0.154  12.487
18473TIP3    H176910   6.204   0.183  12.574
18473TIP3    H276911   6.318   0.114  12.502
18474TIP3   OH276912   2.292   2.636   3.845
18474TIP3    H176913   2.343   2.589   3.911
18474TIP3    H276914   2.321   2.600   3.761
18475TIP3   OH276915   6.425   1.951   6.345
18475TIP3    H176916   6.390   2.031   6.307
18475TIP3    H276917   6.400   1.882   6.283
18476TIP3   OH276918   1.583   1.715   1.468
18476TIP3    H176919   1.501   1.681   1.503
18476TIP3    H276920   1.650   1.686   1.530
18477TIP3   OH276921   4.703   2.122   4.123
18477TIP3    H176922   4.773   2.159   4.069
18477TIP3    H276923   4.748   2.068   4.188
18478TIP3   OH276924   2.009   4.679   5.146
18478TIP3    H176925   1.992   4.729   5.226
18478TIP3    H276926   1.966   4.730   5.077
18479TIP3   OH276927   6.409   6.261   1.924
18479TIP3    H176928   6.412   6.267   1.829
18479TIP3    H276929   6.354   6.334   1.952
18480TIP3   OH276930   4.793   0.623   2.542
18480TIP3    H176931   4.793   0.712   2.577
18480TIP3    H276932   4.703   0.593   2.551
18481TIP3   OH276933   2.155   3.749  16.112
18481TIP3    H176934   2.191   3.680  16.168
18481TIP3    H276935   2.071   3.715  16.083
18482TIP3   OH276936   4.910   0.743   0.956
18482TIP3    H176937   4.974   0.675   0.976
18482TIP3    H276938   4.878   0.722   0.869
18483TIP3   OH276939   4.581   3.798  13.793
18483TIP3    H176940   4.517   3.729  13.808
18483TIP3    H276941   4.635   3.798  13.872
18484TIP3   OH276942   0.015   4.603  13.188
18484TIP3    H176943   0.052   4.641  13.109
18484TIP3    H276944   0.058   4.518  13.197
18485TIP3   OH276945   5.082   0.612  17.239
18485TIP3    H176946   5.042   0.619  17.152
18485TIP3    H276947   5.090   0.518  17.254
18486TIP3   OH276948   5.824   3.912  10.562
18486TIP3    H176949   5.731   3.888  10.567
18486TIP3    H276950   5.863   3.872  10.640
18487TIP3   OH276951   1.206   0.219  16.600
18487TIP3    H176952   1.251   0.199  16.683
18487TIP3    H276953   1.272   0.266  16.548
18488TIP3   OH276954   3.363   0.390  15.707
18488TIP3    H176955   3.399   0.474  15.679
18488TIP3    H276956   3.440   0.333  15.717
18489TIP3   OH276957   2.653   4.626   0.251
18489TIP3    H176958   2.649   4.533   0.273
18489TIP3    H276959   2.703   4.666   0.321
18490TIP3   OH276960   1.293   5.698  15.736
18490TIP3    H176961   1.220   5.755  15.710
18490TIP3    H276962   1.254   5.611  15.743
18491TIP3   OH276963   1.889   2.913   3.155
18491TIP3    H176964   1.902   3.008   3.154
18491TIP3    H276965   1.885   2.890   3.248
18492TIP3   OH276966   1.559   0.883  12.612
18492TIP3    H176967   1.569   0.872  12.707
18492TIP3    H276968   1.647   0.900  12.580
18493TIP3   OH276969   3.929   4.804  11.081
18493TIP3    H176970   3.971   4.744  11.144
18493TIP3    H276971   3.956   4.769  10.995
18494TIP3   OH276972   2.635   0.347   3.289
18494TIP3    H176973   2.551   0.366   3.246
18494TIP3    H276974   2.701   0.363   3.221
18495TIP3   OH276975   5.621   0.122   5.433
18495TIP3    H176976   5.544   0.140   5.487
18495TIP3    H276977   5.586   0.081   5.354
18496TIP3   OH276978   2.731   5.386   0.118
18496TIP3    H176979   2.661   5.340   0.164
18496TIP3    H276980   2.708   5.379   0.026
18497TIP3   OH276981   2.880   3.982  13.325
18497TIP3    H176982   2.921   3.903  13.359
18497TIP3    H276983   2.933   4.004  13.248
18498TIP3   OH276984   0.395   2.329  15.384
18498TIP3    H176985   0.444   2.409  15.366
18498TIP3    H276986   0.325   2.357  15.444
18499TIP3   OH276987   3.276   4.737  11.719
18499TIP3    H176988   3.232   4.729  11.804
18499TIP3    H276989   3.355   4.787  11.737
18500TIP3   OH276990   3.378   0.118  14.522
18500TIP3    H176991   3.400   0.025  14.532
18500TIP3    H276992   3.459   0.164  14.543
18501TIP3   OH276993   0.231   2.744  15.819
18501TIP3    H176994   0.215   2.675  15.884
18501TIP3    H276995   0.204   2.824  15.863
18502TIP3   OH276996   2.696   1.290  12.437
18502TIP3    H176997   2.673   1.294  12.344
18502TIP3    H276998   2.667   1.204  12.466
18503TIP3   OH276999   2.876   4.463  12.703
18503TIP3    H177000   2.824   4.519  12.761
18503TIP3    H277001   2.814   4.432  12.637
18504TIP3   OH277002   6.168   6.739  14.059
18504TIP3    H177003   6.260   6.758  14.041
18504TIP3    H277004   6.144   6.801  14.127
18505TIP3   OH277005   3.759   0.540  16.424
18505TIP3    H177006   3.705   0.551  16.503
18505TIP3    H277007   3.830   0.603  16.435
18506TIP3   OH277008   3.395   5.472   0.734
18506TIP3    H177009   3.373   5.449   0.824
18506TIP3    H277010   3.490   5.464   0.730
18507TIP3   OH277011   0.922   2.112   6.392
18507TIP3    H177012   1.010   2.088   6.422
18507TIP3    H277013   0.937   2.168   6.316
18508TIP3   OH277014   2.997   5.490   4.665
18508TIP3    H177015   3.052   5.449   4.732
18508TIP3    H277016   3.032   5.579   4.656
18509TIP3   OH277017   6.412   0.233  11.571
18509TIP3    H177018   6.494   0.283  11.568
18509TIP3    H277019   6.425   0.170  11.641
18510TIP3   OH277020   5.024   6.222  14.506
18510TIP3    H177021   5.002   6.291  14.569
18510TIP3    H277022   5.095   6.174  14.549
18511TIP3   OH277023   0.761   4.796  13.893
18511TIP3    H177024   0.753   4.724  13.831
18511TIP3    H277025   0.743   4.757  13.979
18512TIP3   OH277026   3.663   0.178   0.506
18512TIP3    H177027   3.627   0.256   0.549
18512TIP3    H277028   3.655   0.196   0.413
18513TIP3   OH277029   5.352   3.391   2.074
18513TIP3    H177030   5.271   3.443   2.074
18513TIP3    H277031   5.331   3.313   2.023
18514TIP3   OH277032   4.099   1.670  17.219
18514TIP3    H177033   4.155   1.649  17.294
18514TIP3    H277034   4.131   1.614  17.149
18515TIP3   OH277035   5.689   5.739   0.800
18515TIP3    H177036   5.759   5.677   0.820
18515TIP3    H277037   5.719   5.822   0.836
18516TIP3   OH277038   6.264   1.306  15.187
18516TIP3    H177039   6.353   1.300  15.222
18516TIP3    H277040   6.265   1.254  15.107
18517TIP3   OH277041   2.043   1.391   5.907
18517TIP3    H177042   2.090   1.351   5.834
18517TIP3    H277043   2.099   1.376   5.983
18518TIP3   OH277044   1.850   1.866  12.288
18518TIP3    H177045   1.847   1.927  12.214
18518TIP3    H277046   1.943   1.842  12.296
18519TIP3   OH277047   6.374   1.018  14.945
18519TIP3    H177048   6.461   1.028  14.985
18519TIP3    H277049   6.385   0.949  14.880
18520TIP3   OH277050   0.547   4.654  15.340
18520TIP3    H177051   0.630   4.694  15.365
18520TIP3    H277052   0.481   4.722  15.358
18521TIP3   OH277053   3.751   4.067  11.777
18521TIP3    H177054   3.788   3.991  11.732
18521TIP3    H277055   3.826   4.114  11.813
18522TIP3   OH277056   5.749   4.888  14.413
18522TIP3    H177057   5.771   4.842  14.332
18522TIP3    H277058   5.813   4.958  14.420
18523TIP3   OH277059   3.104   6.243   4.055
18523TIP3    H177060   3.036   6.193   4.099
18523TIP3    H277061   3.185   6.218   4.099
18524TIP3   OH277062   0.744   0.627   5.697
18524TIP3    H177063   0.830   0.660   5.722
18524TIP3    H277064   0.762   0.550   5.643
18525TIP3   OH277065   4.921   1.295  11.769
18525TIP3    H177066   4.860   1.356  11.726
18525TIP3    H277067   4.864   1.233  11.815
18526TIP3   OH277068   0.520   6.620   5.142
18526TIP3    H177069   0.494   6.695   5.089
18526TIP3    H277070   0.445   6.561   5.139
18527TIP3   OH277071   5.801   4.377   2.184
18527TIP3    H177072   5.759   4.306   2.137
18527TIP3    H277073   5.890   4.380   2.149
18528TIP3   OH277074   3.947   0.804  15.877
18528TIP3    H177075   3.919   0.816  15.787
18528TIP3    H277076   3.972   0.891  15.907
18529TIP3   OH277077   1.125   4.143  16.479
18529TIP3    H177078   1.156   4.231  16.461
18529TIP3    H277079   1.198   4.102  16.527
18530TIP3   OH277080   2.303   6.495   1.536
18530TIP3    H177081   2.330   6.436   1.606
18530TIP3    H277082   2.213   6.470   1.516
18531TIP3   OH277083   3.547   3.901   2.681
18531TIP3    H177084   3.625   3.922   2.629
18531TIP3    H277085   3.474   3.932   2.627
18532TIP3   OH277086   3.087   2.751  12.176
18532TIP3    H177087   3.158   2.801  12.216
18532TIP3    H277088   3.026   2.817  12.143
18533TIP3   OH277089   3.739   0.630  14.841
18533TIP3    H177090   3.748   0.707  14.784
18533TIP3    H277091   3.786   0.654  14.921
18534TIP3   OH277092   4.109   5.973   3.394
18534TIP3    H177093   4.090   6.009   3.481
18534TIP3    H277094   4.162   6.041   3.352
18535TIP3   OH277095   3.309   2.450   3.147
18535TIP3    H177096   3.257   2.388   3.198
18535TIP3    H277097   3.305   2.416   3.057
18536TIP3   OH277098   0.549   4.027   1.871
18536TIP3    H177099   0.509   3.950   1.831
18536TIP3    H277100   0.642   4.019   1.851
18537TIP3   OH277101   5.243   1.525   5.498
18537TIP3    H177102   5.259   1.487   5.585
18537TIP3    H277103   5.316   1.495   5.445
18538TIP3   OH277104   0.046   4.854   5.099
18538TIP3    H177105  -0.045   4.873   5.124
18538TIP3    H277106   0.060   4.765   5.131
18539TIP3   OH277107   6.158   3.608  16.086
18539TIP3    H177108   6.142   3.537  16.148
18539TIP3    H277109   6.116   3.579  16.005
18540TIP3   OH277110   5.494   3.085   1.166
18540TIP3    H177111   5.427   3.106   1.101
18540TIP3    H277112   5.453   3.021   1.223
18541TIP3   OH277113   1.130   2.313  13.528
18541TIP3    H177114   1.131   2.353  13.441
18541TIP3    H277115   1.036   2.300  13.547
18542TIP3   OH277116   6.092   3.089   1.535
18542TIP3    H177117   6.051   3.154   1.592
18542TIP3    H277118   6.172   3.131   1.505
18543TIP3   OH277119   4.674   2.241  16.334
18543TIP3    H177120   4.622   2.174  16.289
18543TIP3    H277121   4.743   2.192  16.378
18544TIP3   OH277122   4.319   0.308  12.143
18544TIP3    H177123   4.249   0.255  12.183
18544TIP3    H277124   4.276   0.389  12.117
18545TIP3   OH277125   5.071   2.042  14.657
18545TIP3    H177126   5.165   2.055  14.653
18545TIP3    H277127   5.057   1.954  14.622
18546TIP3   OH277128   0.040   5.730   5.446
18546TIP3    H177129   0.088   5.685   5.377
18546TIP3    H277130  -0.050   5.732   5.415
18547TIP3   OH277131   2.281   2.621  10.900
18547TIP3    H177132   2.257   2.657  10.815
18547TIP3    H277133   2.269   2.527  10.890
18548TIP3   OH277134   4.846   3.863  15.974
18548TIP3    H177135   4.819   3.877  15.884
18548TIP3    H277136   4.921   3.922  15.986
18549TIP3   OH277137   2.584   3.108   0.205
18549TIP3    H177138   2.489   3.115   0.214
18549TIP3    H277139   2.618   3.149   0.285
18550TIP3   OH277140   1.202   0.439  16.870
18550TIP3    H177141   1.296   0.426  16.876
18550TIP3    H277142   1.178   0.484  16.950
18551TIP3   OH277143   0.871   4.016   0.291
18551TIP3    H177144   0.800   4.057   0.342
18551TIP3    H277145   0.866   3.924   0.315
18552TIP3   OH277146   3.228   4.132  11.758
18552TIP3    H177147   3.295   4.145  11.825
18552TIP3    H277148   3.257   4.054  11.710
18553TIP3   OH277149   5.159   1.598  13.886
18553TIP3    H177150   5.231   1.637  13.936
18553TIP3    H277151   5.201   1.529  13.834
18554TIP3   OH277152   3.662   6.209   3.445
18554TIP3    H177153   3.704   6.141   3.498
18554TIP3    H277154   3.617   6.264   3.509
18555TIP3   OH277155   4.973   2.215  16.040
18555TIP3    H177156   5.052   2.244  15.994
18555TIP3    H277157   4.918   2.178  15.971
18556TIP3   OH277158   5.714   1.173   1.761
18556TIP3    H177159   5.791   1.181   1.819
18556TIP3    H277160   5.659   1.248   1.785
18557TIP3   OH277161   6.693   4.395   0.560
18557TIP3    H177162   6.651   4.417   0.643
18557TIP3    H277163   6.725   4.306   0.573
18558TIP3   OH277164   5.706   2.578   0.927
18558TIP3    H177165   5.647   2.521   0.879
18558TIP3    H277166   5.649   2.644   0.967
18559TIP3   OH277167   4.961   4.214   4.105
18559TIP3    H177168   4.901   4.141   4.093
18559TIP3    H277169   4.969   4.252   4.017
18560TIP3   OH277170   3.470   2.545   4.102
18560TIP3    H177171   3.516   2.576   4.024
18560TIP3    H277172   3.443   2.625   4.148
18561TIP3   OH277173   3.607   4.378  15.408
18561TIP3    H177174   3.549   4.371  15.332
18561TIP3    H277175   3.572   4.314  15.470
18562TIP3   OH277176   0.722   3.064   3.056
18562TIP3    H177177   0.689   3.064   2.966
18562TIP3    H277178   0.745   2.972   3.072
18563TIP3   OH277179   3.334   1.759   0.279
18563TIP3    H177180   3.264   1.809   0.237
18563TIP3    H277181   3.299   1.736   0.365
18564TIP3   OH277182   3.829   2.871  17.214
18564TIP3    H177183   3.910   2.820  17.213
18564TIP3    H277184   3.815   2.893  17.307
18565TIP3   OH277185   6.527   5.297  11.315
18565TIP3    H177186   6.481   5.373  11.349
18565TIP3    H277187   6.482   5.277  11.233
18566TIP3   OH277188   4.858   5.350   1.146
18566TIP3    H177189   4.783   5.341   1.088
18566TIP3    H277190   4.914   5.416   1.104
18567TIP3   OH277191   2.990   1.495   2.875
18567TIP3    H177192   3.014   1.581   2.841
18567TIP3    H277193   2.937   1.513   2.953
18568TIP3   OH277194   4.821   2.018   2.269
18568TIP3    H177195   4.881   2.055   2.204
18568TIP3    H277196   4.734   2.049   2.242
18569TIP3   OH277197   2.841   4.853  15.084
18569TIP3    H177198   2.756   4.820  15.113
18569TIP3    H277199   2.868   4.913  15.153
18570TIP3   OH277200   1.468   5.532   1.268
18570TIP3    H177201   1.466   5.457   1.208
18570TIP3    H277202   1.387   5.580   1.250
18571TIP3   OH277203   6.755   5.381   1.506
18571TIP3    H177204   6.694   5.437   1.553
18571TIP3    H277205   6.709   5.356   1.426
18572TIP3   OH277206   4.045   3.740  10.760
18572TIP3    H177207   3.980   3.804  10.730
18572TIP3    H277208   4.063   3.686  10.683
18573TIP3   OH277209   4.707   1.995  16.004
18573TIP3    H177210   4.793   2.029  16.029
18573TIP3    H277211   4.698   1.913  16.053
18574TIP3   OH277212   1.376   5.663   5.357
18574TIP3    H177213   1.362   5.753   5.327
18574TIP3    H277214   1.426   5.671   5.438
18575TIP3   OH277215   6.453   5.458   2.350
18575TIP3    H177216   6.365   5.421   2.361
18575TIP3    H277217   6.485   5.467   2.440
18576TIP3   OH277218   2.892   4.583  11.958
18576TIP3    H177219   2.988   4.582  11.958
18576TIP3    H277220   2.868   4.577  11.866
18577TIP3   OH277221   6.362   6.593  15.623
18577TIP3    H177222   6.413   6.603  15.542
18577TIP3    H277223   6.365   6.680  15.663
18578TIP3   OH277224   6.165   6.459  12.711
18578TIP3    H177225   6.092   6.403  12.738
18578TIP3    H277226   6.124   6.542  12.688
18579TIP3   OH277227   1.901   1.887  16.345
18579TIP3    H177228   1.860   1.804  16.370
18579TIP3    H277229   1.837   1.927  16.286
18580TIP3   OH277230   2.643   0.944  16.032
18580TIP3    H177231   2.673   0.857  16.005
18580TIP3    H277232   2.609   0.984  15.951
18581TIP3   OH277233   3.923   5.445  16.413
18581TIP3    H177234   3.993   5.464  16.477
18581TIP3    H277235   3.943   5.357  16.382
18582TIP3   OH277236   1.351   0.744  15.061
18582TIP3    H177237   1.294   0.749  14.984
18582TIP3    H277238   1.396   0.660  15.051
18583TIP3   OH277239   3.442   0.252   4.990
18583TIP3    H177240   3.379   0.281   5.055
18583TIP3    H277241   3.401   0.175   4.950
18584TIP3   OH277242   4.668   5.987   3.471
18584TIP3    H177243   4.594   6.047   3.467
18584TIP3    H277244   4.630   5.900   3.460
18585TIP3   OH277245   4.974   3.492   5.371
18585TIP3    H177246   4.981   3.410   5.420
18585TIP3    H277247   4.944   3.465   5.284
18586TIP3   OH277248   2.977   5.162   5.340
18586TIP3    H177249   3.062   5.200   5.362
18586TIP3    H277250   2.966   5.179   5.247
18587TIP3   OH277251   1.668   1.582   6.141
18587TIP3    H177252   1.763   1.594   6.138
18587TIP3    H277253   1.656   1.489   6.164
18588TIP3   OH277254   5.572   0.720  16.246
18588TIP3    H177255   5.531   0.708  16.160
18588TIP3    H277256   5.651   0.666  16.242
18589TIP3   OH277257   4.197   3.175   2.283
18589TIP3    H177258   4.219   3.260   2.245
18589TIP3    H277259   4.109   3.188   2.320
18590TIP3   OH277260   4.607   1.975  11.365
18590TIP3    H177261   4.632   1.931  11.447
18590TIP3    H277262   4.541   1.917  11.326
18591TIP3   OH277263   0.460   3.674   4.651
18591TIP3    H177264   0.551   3.644   4.645
18591TIP3    H277265   0.461   3.740   4.720
18592TIP3   OH277266   0.954   2.401   5.505
18592TIP3    H177267   1.006   2.327   5.475
18592TIP3    H277268   0.978   2.412   5.597
18593TIP3   OH277269   5.463   2.645  15.285
18593TIP3    H177270   5.424   2.721  15.241
18593TIP3    H277271   5.391   2.583  15.295
18594TIP3   OH277272   0.235   6.695   5.675
18594TIP3    H177273   0.146   6.726   5.692
18594TIP3    H277274   0.291   6.764   5.712
18595TIP3   OH277275   1.539   3.050  12.791
18595TIP3    H177276   1.607   3.042  12.857
18595TIP3    H277277   1.493   2.966  12.792
18596TIP3   OH277278   6.434   4.620  16.155
18596TIP3    H177279   6.463   4.613  16.246
18596TIP3    H277280   6.384   4.539  16.139
18597TIP3   OH277281   6.785   3.047  13.236
18597TIP3    H177282   6.791   2.993  13.157
18597TIP3    H277283   6.777   3.137  13.202
18598TIP3   OH277284   4.517   0.819  16.729
18598TIP3    H177285   4.578   0.890  16.752
18598TIP3    H277286   4.494   0.779  16.812
18599TIP3   OH277287   5.641   1.319   3.089
18599TIP3    H177288   5.648   1.414   3.075
18599TIP3    H277289   5.646   1.309   3.184
18600TIP3   OH277290   6.635   1.075  15.026
18600TIP3    H177291   6.711   1.099  14.974
18600TIP3    H277292   6.668   1.065  15.115
18601TIP3   OH277293   3.530   0.885  11.392
18601TIP3    H177294   3.570   0.971  11.404
18601TIP3    H277295   3.492   0.888  11.304
18602TIP3   OH277296   3.035   1.370  14.286
18602TIP3    H177297   2.991   1.301  14.237
18602TIP3    H277298   3.064   1.329  14.367
18603TIP3   OH277299   2.285   4.867  10.863
18603TIP3    H177300   2.195   4.863  10.896
18603TIP3    H277301   2.278   4.916  10.781
18604TIP3   OH277302   5.329   6.299   5.677
18604TIP3    H177303   5.419   6.288   5.709
18604TIP3    H277304   5.340   6.319   5.584
18605TIP3   OH277305   4.501   1.403  16.830
18605TIP3    H177306   4.550   1.400  16.912
18605TIP3    H277307   4.474   1.494  16.821
18606TIP3   OH277308   6.148   0.397  14.199
18606TIP3    H177309   6.195   0.316  14.182
18606TIP3    H277310   6.065   0.368  14.238
18607TIP3   OH277311   0.224   2.082  14.316
18607TIP3    H177312   0.170   2.128  14.379
18607TIP3    H277313   0.310   2.074  14.358
18608TIP3   OH277314   3.025   4.865   5.240
18608TIP3    H177315   3.004   4.773   5.223
18608TIP3    H277316   2.941   4.905   5.262
18609TIP3   OH277317   5.863   4.053   4.382
18609TIP3    H177318   5.803   4.125   4.401
18609TIP3    H277319   5.806   3.980   4.357
18610TIP3   OH277320   2.772   4.744   3.198
18610TIP3    H177321   2.843   4.798   3.164
18610TIP3    H277322   2.767   4.767   3.291
18611TIP3   OH277323   3.509   2.096  12.893
18611TIP3    H177324   3.507   2.001  12.881
18611TIP3    H277325   3.598   2.115  12.920
18612TIP3   OH277326   1.521   4.276  10.700
18612TIP3    H177327   1.450   4.226  10.661
18612TIP3    H277328   1.594   4.214  10.707
18613TIP3   OH277329   1.679   2.591  17.112
18613TIP3    H177330   1.653   2.637  17.192
18613TIP3    H277331   1.735   2.653  17.065
18614TIP3   OH277332   0.346   2.389   2.149
18614TIP3    H177333   0.351   2.295   2.164
18614TIP3    H277334   0.393   2.428   2.222
18615TIP3   OH277335   0.284   6.514  12.108
18615TIP3    H177336   0.249   6.494  12.021
18615TIP3    H277337   0.354   6.577  12.092
18616TIP3   OH277338   1.344   3.925  15.640
18616TIP3    H177339   1.433   3.892  15.652
18616TIP3    H277340   1.351   4.020  15.645
18617TIP3   OH277341   1.637   2.103  16.756
18617TIP3    H177342   1.683   2.088  16.674
18617TIP3    H277343   1.704   2.098  16.823
18618TIP3   OH277344   2.324   3.496  15.222
18618TIP3    H177345   2.349   3.519  15.311
18618TIP3    H277346   2.252   3.434  15.233
18619TIP3   OH277347   0.182   3.599  13.000
18619TIP3    H177348   0.127   3.536  12.954
18619TIP3    H277349   0.196   3.670  12.937
18620TIP3   OH277350   4.110   2.855   5.624
18620TIP3    H177351   4.198   2.838   5.657
18620TIP3    H277352   4.106   2.808   5.541
18621TIP3   OH277353   2.223   4.947   5.937
18621TIP3    H177354   2.174   4.895   6.001
18621TIP3    H277355   2.308   4.961   5.978
18622TIP3   OH277356   0.871   1.637  14.190
18622TIP3    H177357   0.906   1.573  14.127
18622TIP3    H277358   0.814   1.694  14.139
18623TIP3   OH277359   4.277   1.087   6.342
18623TIP3    H177360   4.255   0.994   6.333
18623TIP3    H277361   4.203   1.132   6.302
18624TIP3   OH277362   5.158   2.293   4.758
18624TIP3    H177363   5.155   2.357   4.686
18624TIP3    H277364   5.086   2.232   4.739
18625TIP3   OH277365   0.012   5.245  16.181
18625TIP3    H177366  -0.022   5.333  16.202
18625TIP3    H277367  -0.020   5.228  16.093
18626TIP3   OH277368   0.030   4.410   2.282
18626TIP3    H177369  -0.063   4.434   2.285
18626TIP3    H277370   0.030   4.319   2.254
18627TIP3   OH277371   3.198   4.977  17.033
18627TIP3    H177372   3.199   5.005  16.942
18627TIP3    H277373   3.162   4.888  17.030
18628TIP3   OH277374   5.321   6.324   3.954
18628TIP3    H177375   5.391   6.311   3.890
18628TIP3    H277376   5.292   6.235   3.975
18629TIP3   OH277377   5.076   0.486  13.001
18629TIP3    H177378   5.141   0.510  13.067
18629TIP3    H277379   5.091   0.548  12.929
18630TIP3   OH277380   4.919   1.157  14.669
18630TIP3    H177381   4.873   1.221  14.616
18630TIP3    H277382   4.894   1.072  14.633
18631TIP3   OH277383   4.148   3.431   2.009
18631TIP3    H177384   4.220   3.370   2.027
18631TIP3    H277385   4.168   3.467   1.922
18632TIP3   OH277386   4.708   0.019   6.141
18632TIP3    H177387   4.694   0.099   6.091
18632TIP3    H277388   4.803   0.009   6.145
18633TIP3   OH277389   3.113   5.791   0.610
18633TIP3    H177390   3.122   5.729   0.538
18633TIP3    H277391   3.029   5.835   0.594
18634TIP3   OH277392   4.335   4.832  11.188
18634TIP3    H177393   4.279   4.906  11.163
18634TIP3    H277394   4.369   4.799  11.105
18635TIP3   OH277395   6.045   3.050  15.961
18635TIP3    H177396   5.952   3.029  15.955
18635TIP3    H277397   6.057   3.122  15.899
18636TIP3   OH277398   1.742   5.982   4.040
18636TIP3    H177399   1.706   6.070   4.047
18636TIP3    H277400   1.833   5.991   4.069
18637TIP3   OH277401   5.646   3.208  15.294
18637TIP3    H177402   5.706   3.210  15.369
18637TIP3    H277403   5.703   3.218  15.218
18638TIP3   OH277404   4.001   6.543   0.883
18638TIP3    H177405   3.932   6.582   0.937
18638TIP3    H277406   4.070   6.521   0.945
18639TIP3   OH277407   1.907   2.066   2.773
18639TIP3    H177408   1.898   2.161   2.776
18639TIP3    H277409   1.988   2.048   2.820
18640TIP3   OH277410   5.061   0.597  12.310
18640TIP3    H177411   5.022   0.642  12.234
18640TIP3    H277412   5.107   0.522  12.272
18641TIP3   OH277413   4.615   6.636   5.969
18641TIP3    H177414   4.529   6.669   5.944
18641TIP3    H277415   4.638   6.685   6.047
18642TIP3   OH277416   5.147   6.765  12.490
18642TIP3    H177417   5.098   6.843  12.516
18642TIP3    H277418   5.216   6.798  12.434
18643TIP3   OH277419   6.569   6.557   2.613
18643TIP3    H177420   6.590   6.580   2.703
18643TIP3    H277421   6.527   6.471   2.619
18644TIP3   OH277422   1.634   0.108   1.341
18644TIP3    H177423   1.650   0.202   1.332
18644TIP3    H277424   1.666   0.070   1.259
18645TIP3   OH277425   1.111   5.979   2.340
18645TIP3    H177426   1.016   5.988   2.331
18645TIP3    H277427   1.147   6.023   2.263
18646TIP3   OH277428   0.343   0.044  12.322
18646TIP3    H177429   0.405  -0.021  12.292
18646TIP3    H277430   0.389   0.090  12.393
18647TIP3   OH277431   4.238   0.904   4.801
18647TIP3    H177432   4.148   0.928   4.824
18647TIP3    H277433   4.279   0.882   4.884
18648TIP3   OH277434   2.055   0.095   5.527
18648TIP3    H177435   2.015   0.095   5.440
18648TIP3    H277436   2.109   0.016   5.528
18649TIP3   OH277437   0.605   0.930   3.233
18649TIP3    H177438   0.615   0.882   3.315
18649TIP3    H277439   0.629   0.867   3.165
18650TIP3   OH277440   5.436   3.517   5.382
18650TIP3    H177441   5.367   3.564   5.334
18650TIP3    H277442   5.398   3.499   5.468
18651TIP3   OH277443   6.022   5.733   5.255
18651TIP3    H177444   6.076   5.778   5.190
18651TIP3    H277445   5.995   5.653   5.211
18652TIP3   OH277446   5.733   1.034   2.174
18652TIP3    H177447   5.817   0.991   2.193
18652TIP3    H277448   5.719   1.092   2.249
18653TIP3   OH277449   3.589   3.815   3.248
18653TIP3    H177450   3.632   3.896   3.275
18653TIP3    H277451   3.502   3.844   3.218
18654TIP3   OH277452   2.798   0.048   5.851
18654TIP3    H177453   2.890   0.055   5.875
18654TIP3    H277454   2.754   0.018   5.931
18655TIP3   OH277455   6.198   6.309  14.096
18655TIP3    H177456   6.120   6.364  14.094
18655TIP3    H277457   6.221   6.303  14.189
18656TIP3   OH277458   4.659   4.220   0.783
18656TIP3    H177459   4.725   4.192   0.719
18656TIP3    H277460   4.576   4.185   0.749
18657TIP3   OH277461   2.349   4.613  11.637
18657TIP3    H177462   2.431   4.586  11.676
18657TIP3    H277463   2.294   4.639  11.711
18658TIP3   OH277464   5.641   5.390   1.988
18658TIP3    H177465   5.715   5.370   2.046
18658TIP3    H277466   5.627   5.310   1.938
18659TIP3   OH277467   3.244   6.125  11.241
18659TIP3    H177468   3.175   6.183  11.209
18659TIP3    H277469   3.236   6.128  11.336
18660TIP3   OH277470   0.966   5.843   3.468
18660TIP3    H177471   0.898   5.788   3.507
18660TIP3    H277472   0.935   5.932   3.483
18661TIP3   OH277473   4.206   4.782  14.942
18661TIP3    H177474   4.218   4.774  14.847
18661TIP3    H277475   4.229   4.873  14.962
18662TIP3   OH277476   2.612   1.532   2.938
18662TIP3    H177477   2.650   1.551   2.852
18662TIP3    H277478   2.677   1.477   2.982
18663TIP3   OH277479   5.186   4.939  13.021
18663TIP3    H177480   5.229   5.017  13.056
18663TIP3    H277481   5.098   4.941  13.058
18664TIP3   OH277482   3.576   4.600   2.165
18664TIP3    H177483   3.602   4.625   2.076
18664TIP3    H277484   3.485   4.628   2.173
18665TIP3   OH277485   6.233   3.195  11.551
18665TIP3    H177486   6.235   3.193  11.646
18665TIP3    H277487   6.273   3.280  11.528
18666TIP3   OH277488   1.190   4.756   3.139
18666TIP3    H177489   1.145   4.794   3.064
18666TIP3    H277490   1.211   4.831   3.194
18667TIP3   OH277491   3.435   0.857   0.237
18667TIP3    H177492   3.360   0.898   0.278
18667TIP3    H277493   3.468   0.922   0.174
18668TIP3   OH277494   3.480   3.661  13.457
18668TIP3    H177495   3.456   3.636  13.547
18668TIP3    H277496   3.543   3.594  13.430
18669TIP3   OH277497   2.561   1.779   2.552
18669TIP3    H177498   2.542   1.870   2.572
18669TIP3    H277499   2.557   1.774   2.456
18670TIP3   OH277500   3.899   5.969   1.650
18670TIP3    H177501   3.912   5.935   1.561
18670TIP3    H277502   3.967   6.036   1.660
18671TIP3   OH277503   5.051   0.504  15.512
18671TIP3    H177504   4.976   0.520  15.569
18671TIP3    H277505   5.060   0.584  15.461
18672TIP3   OH277506   1.118   4.465   5.056
18672TIP3    H177507   1.084   4.552   5.078
18672TIP3    H277508   1.207   4.481   5.026
18673TIP3   OH277509   4.654   3.831   0.764
18673TIP3    H177510   4.644   3.742   0.797
18673TIP3    H277511   4.585   3.840   0.699
18674TIP3   OH277512   2.904   3.836   1.643
18674TIP3    H177513   2.977   3.785   1.607
18674TIP3    H277514   2.871   3.886   1.569
18675TIP3   OH277515   4.416   3.611   5.247
18675TIP3    H177516   4.487   3.548   5.235
18675TIP3    H277517   4.460   3.694   5.264
18676TIP3   OH277518   5.206   2.958   6.779
18676TIP3    H177519   5.229   2.983   6.869
18676TIP3    H277520   5.252   3.021   6.724
18677TIP3   OH277521   6.007   2.192   5.363
18677TIP3    H177522   5.924   2.211   5.405
18677TIP3    H277523   5.988   2.117   5.306
18678TIP3   OH277524   5.481   6.182   0.801
18678TIP3    H177525   5.507   6.136   0.721
18678TIP3    H277526   5.415   6.125   0.841
18679TIP3   OH277527   2.762   4.430  14.886
18679TIP3    H177528   2.699   4.405  14.954
18679TIP3    H277529   2.709   4.460  14.813
18680TIP3   OH277530   3.294   0.411  12.352
18680TIP3    H177531   3.247   0.335  12.387
18680TIP3    H277532   3.383   0.403  12.386
18681TIP3   OH277533   3.778   0.531   0.664
18681TIP3    H177534   3.765   0.446   0.707
18681TIP3    H277535   3.701   0.543   0.610
18682TIP3   OH277536   2.080   4.510   2.341
18682TIP3    H177537   2.078   4.414   2.337
18682TIP3    H277538   2.162   4.530   2.385
18683TIP3   OH277539   2.747   0.263  14.322
18683TIP3    H177540   2.659   0.277  14.286
18683TIP3    H277541   2.735   0.196  14.389
18684TIP3   OH277542   5.291   4.080  13.819
18684TIP3    H177543   5.326   3.993  13.798
18684TIP3    H277544   5.318   4.095  13.910
18685TIP3   OH277545   6.395   0.289   0.993
18685TIP3    H177546   6.324   0.239   0.952
18685TIP3    H277547   6.363   0.379   0.994
18686TIP3   OH277548   6.133   5.052  16.333
18686TIP3    H177549   6.087   5.129  16.368
18686TIP3    H277550   6.182   5.086  16.258
18687TIP3   OH277551   4.386   1.862   4.111
18687TIP3    H177552   4.388   1.903   4.025
18687TIP3    H277553   4.420   1.774   4.097
18688TIP3   OH277554   3.506   5.274   2.963
18688TIP3    H177555   3.415   5.295   2.941
18688TIP3    H277556   3.516   5.300   3.054
18689TIP3   OH277557   6.283   2.266   5.298
18689TIP3    H177558   6.281   2.332   5.367
18689TIP3    H277559   6.199   2.221   5.306
18690TIP3   OH277560   4.591   0.431   0.583
18690TIP3    H177561   4.615   0.468   0.668
18690TIP3    H277562   4.673   0.400   0.545
18691TIP3   OH277563   3.690   4.087   0.202
18691TIP3    H177564   3.685   4.004   0.249
18691TIP3    H277565   3.721   4.150   0.268
18692TIP3   OH277566   4.823   6.424  11.624
18692TIP3    H177567   4.778   6.430  11.539
18692TIP3    H277568   4.890   6.492  11.620
18693TIP3   OH277569   6.385   1.373  12.446
18693TIP3    H177570   6.363   1.281  12.431
18693TIP3    H277571   6.310   1.422  12.413
18694TIP3   OH277572   5.302   5.233  14.418
18694TIP3    H177573   5.323   5.226  14.325
18694TIP3    H277574   5.208   5.219  14.423
18695TIP3   OH277575   5.916   5.565  13.416
18695TIP3    H177576   5.935   5.562  13.322
18695TIP3    H277577   5.952   5.649  13.445
18696TIP3   OH277578   4.802   3.122  13.548
18696TIP3    H177579   4.754   3.144  13.468
18696TIP3    H277580   4.892   3.150  13.530
18697TIP3   OH277581   6.653   3.666   6.339
18697TIP3    H177582   6.623   3.670   6.430
18697TIP3    H277583   6.733   3.613   6.343
18698TIP3   OH277584   5.001   3.408   1.735
18698TIP3    H177585   5.053   3.470   1.684
18698TIP3    H277586   4.928   3.461   1.769
18699TIP3   OH277587   0.499   6.587   1.202
18699TIP3    H177588   0.499   6.645   1.279
18699TIP3    H277589   0.589   6.555   1.197
18700TIP3   OH277590   4.540   2.923  15.614
18700TIP3    H177591   4.630   2.918  15.584
18700TIP3    H277592   4.541   2.992  15.681
18701TIP3   OH277593   0.909   5.484  15.476
18701TIP3    H177594   0.911   5.514  15.567
18701TIP3    H277595   0.986   5.525  15.436
18702TIP3   OH277596   0.833   5.864   5.548
18702TIP3    H177597   0.775   5.939   5.562
18702TIP3    H277598   0.787   5.810   5.483
18703TIP3   OH277599   2.880   2.315  16.084
18703TIP3    H177600   2.917   2.336  16.170
18703TIP3    H277601   2.828   2.393  16.061
18704TIP3   OH277602   3.053   2.672  14.375
18704TIP3    H177603   2.971   2.684  14.421
18704TIP3    H277604   3.028   2.631  14.292
18705TIP3   OH277605   5.375   3.275   4.675
18705TIP3    H177606   5.437   3.237   4.613
18705TIP3    H277607   5.427   3.337   4.726
18706TIP3   OH277608   1.477   0.321   2.576
18706TIP3    H177609   1.392   0.315   2.533
18706TIP3    H277610   1.479   0.410   2.613
18707TIP3   OH277611   3.042   0.791  11.638
18707TIP3    H177612   3.108   0.721  11.642
18707TIP3    H277613   3.093   0.872  11.634
18708TIP3   OH277614   4.646   2.179   1.767
18708TIP3    H177615   4.613   2.095   1.735
18708TIP3    H277616   4.740   2.176   1.749
18709TIP3   OH277617   2.530   3.309  15.138
18709TIP3    H177618   2.488   3.323  15.054
18709TIP3    H277619   2.485   3.368  15.198
18710TIP3   OH277620   1.605   2.308  15.088
18710TIP3    H177621   1.575   2.221  15.114
18710TIP3    H277622   1.621   2.353  15.171
18711TIP3   OH277623   0.509   3.563  15.063
18711TIP3    H177624   0.497   3.553  14.968
18711TIP3    H277625   0.556   3.485  15.090
18712TIP3   OH277626   0.263   4.038  12.962
18712TIP3    H177627   0.358   4.038  12.949
18712TIP3    H277628   0.252   4.060  13.054
18713TIP3   OH277629   2.970   5.195   1.776
18713TIP3    H177630   2.978   5.261   1.708
18713TIP3    H277631   2.935   5.118   1.730
18714TIP3   OH277632   4.552   0.860  14.279
18714TIP3    H177633   4.462   0.829  14.275
18714TIP3    H277634   4.598   0.792  14.329
18715TIP3   OH277635   1.062   1.869  11.915
18715TIP3    H177636   1.062   1.858  11.820
18715TIP3    H277637   1.070   1.963  11.928
18716TIP3   OH277638   0.138   3.833   4.970
18716TIP3    H177639   0.096   3.752   4.939
18716TIP3    H277640   0.203   3.804   5.034
18717TIP3   OH277641   4.937   5.050  15.707
18717TIP3    H177642   4.955   4.976  15.764
18717TIP3    H277643   5.018   5.101  15.708
18718TIP3   OH277644   2.233   3.955   4.461
18718TIP3    H177645   2.178   3.984   4.534
18718TIP3    H277646   2.184   3.980   4.383
18719TIP3   OH277647   2.009   4.907  13.703
18719TIP3    H177648   1.985   4.949  13.620
18719TIP3    H277649   2.102   4.885  13.692
18720TIP3   OH277650   0.817   3.281   2.557
18720TIP3    H177651   0.728   3.318   2.554
18720TIP3    H277652   0.867   3.335   2.497
18721TIP3   OH277653   3.623   6.589  13.581
18721TIP3    H177654   3.543   6.571  13.531
18721TIP3    H277655   3.592   6.626  13.663
18722TIP3   OH277656   3.116   5.104   4.557
18722TIP3    H177657   3.153   5.160   4.625
18722TIP3    H277658   3.163   5.128   4.477
18723TIP3   OH277659   4.910   5.052  12.236
18723TIP3    H177660   4.946   5.051  12.147
18723TIP3    H277661   4.978   5.010  12.290
18724TIP3   OH277662   1.318   0.540   2.657
18724TIP3    H177663   1.350   0.629   2.673
18724TIP3    H277664   1.307   0.536   2.562
18725TIP3   OH277665   5.168   1.815   1.004
18725TIP3    H177666   5.148   1.728   0.969
18725TIP3    H277667   5.104   1.873   0.962
18726TIP3   OH277668   4.886   4.689  13.072
18726TIP3    H177669   4.894   4.784  13.079
18726TIP3    H277670   4.817   4.666  13.134
18727TIP3   OH277671   5.553   1.431  14.107
18727TIP3    H177672   5.612   1.357  14.090
18727TIP3    H277673   5.610   1.501  14.138
18728TIP3   OH277674   5.395   0.841  13.169
18728TIP3    H177675   5.469   0.844  13.229
18728TIP3    H277676   5.379   0.932  13.145
18729TIP3   OH277677   0.540   4.616  11.486
18729TIP3    H177678   0.633   4.620  11.508
18729TIP3    H277679   0.495   4.624  11.570
18730TIP3   OH277680   0.075   5.695  13.724
18730TIP3    H177681   0.071   5.605  13.757
18730TIP3    H277682  -0.016   5.718  13.708
18731TIP3   OH277683   0.576   2.049   4.446
18731TIP3    H177684   0.609   2.088   4.364
18731TIP3    H277685   0.638   1.979   4.465
18732TIP3   OH277686   6.704   3.514   4.923
18732TIP3    H177687   6.639   3.505   4.993
18732TIP3    H277688   6.764   3.440   4.936
18733TIP3   OH277689   0.392   6.693  15.682
18733TIP3    H177690   0.412   6.654  15.767
18733TIP3    H277691   0.313   6.745  15.696
18734TIP3   OH277692   1.160   5.882  15.316
18734TIP3    H177693   1.143   5.789  15.332
18734TIP3    H277694   1.115   5.928  15.387
18735TIP3   OH277695   6.191   2.823  16.767
18735TIP3    H177696   6.264   2.769  16.798
18735TIP3    H277697   6.217   2.849  16.678
18736TIP3   OH277698   0.873   6.496   5.058
18736TIP3    H177699   0.782   6.469   5.074
18736TIP3    H277700   0.903   6.532   5.141
18737TIP3   OH277701   6.174   0.388   1.460
18737TIP3    H177702   6.112   0.316   1.466
18737TIP3    H277703   6.175   0.411   1.367
18738TIP3   OH277704   6.803   5.538  16.297
18738TIP3    H177705   6.893   5.564  16.276
18738TIP3    H277706   6.810   5.499  16.384
18739TIP3   OH277707   5.002   0.858  15.229
18739TIP3    H177708   5.061   0.846  15.155
18739TIP3    H277709   4.924   0.898  15.191
18740TIP3   OH277710   1.853   3.434  11.602
18740TIP3    H177711   1.888   3.376  11.535
18740TIP3    H277712   1.835   3.377  11.677
18741TIP3   OH277713   0.572   4.338  14.401
18741TIP3    H177714   0.656   4.319  14.442
18741TIP3    H277715   0.507   4.321  14.469
18742TIP3   OH277716   3.662   4.850  12.447
18742TIP3    H177717   3.728   4.919  12.461
18742TIP3    H277718   3.706   4.787  12.390
18743TIP3   OH277719   0.794   6.060   4.597
18743TIP3    H177720   0.790   5.966   4.578
18743TIP3    H277721   0.855   6.095   4.531
18744TIP3   OH277722   5.789   5.936  13.409
18744TIP3    H177723   5.794   5.884  13.330
18744TIP3    H277724   5.702   5.917  13.445
18745TIP3   OH277725   4.028   5.445   5.242
18745TIP3    H177726   4.102   5.463   5.299
18745TIP3    H277727   4.058   5.376   5.183
18746TIP3   OH277728   0.147   1.476  12.492
18746TIP3    H177729   0.083   1.445  12.428
18746TIP3    H277730   0.231   1.450  12.456
18747TIP3   OH277731   5.364   2.859   1.267
18747TIP3    H177732   5.286   2.806   1.281
18747TIP3    H277733   5.387   2.892   1.354
18748TIP3   OH277734   5.887   1.386   0.778
18748TIP3    H177735   5.810   1.442   0.787
18748TIP3    H277736   5.855   1.297   0.792
18749TIP3   OH277737   3.471   0.449  11.780
18749TIP3    H177738   3.472   0.494  11.696
18749TIP3    H277739   3.492   0.517  11.844
18750TIP3   OH277740   0.118   5.119   5.037
18750TIP3    H177741   0.212   5.123   5.022
18750TIP3    H277742   0.099   5.025   5.045
18751TIP3   OH277743   3.249   0.485   3.801
18751TIP3    H177744   3.284   0.413   3.748
18751TIP3    H277745   3.227   0.552   3.737
18752TIP3   OH277746   3.303   4.363   4.809
18752TIP3    H177747   3.350   4.336   4.888
18752TIP3    H277748   3.338   4.449   4.787
18753TIP3   OH277749   0.149   6.602   6.677
18753TIP3    H177750   0.152   6.662   6.602
18753TIP3    H277751   0.071   6.629   6.726
18754TIP3   OH277752   1.221   6.082   1.965
18754TIP3    H177753   1.139   6.096   1.917
18754TIP3    H277754   1.207   6.124   2.049
18755TIP3   OH277755   2.481   6.503  17.087
18755TIP3    H177756   2.401   6.499  17.035
18755TIP3    H277757   2.531   6.575  17.050
18756TIP3   OH277758   1.231   6.587   0.202
18756TIP3    H177759   1.243   6.567   0.109
18756TIP3    H277760   1.299   6.651   0.222
18757TIP3   OH277761   3.548   2.891   6.024
18757TIP3    H177762   3.621   2.944   6.056
18757TIP3    H277763   3.556   2.894   5.929
18758TIP3   OH277764   5.255   2.455  11.212
18758TIP3    H177765   5.307   2.506  11.275
18758TIP3    H277766   5.298   2.472  11.128
18759TIP3   OH277767   2.462   1.238   3.062
18759TIP3    H177768   2.433   1.329   3.065
18759TIP3    H277769   2.485   1.224   2.970
18760TIP3   OH277770   0.618   2.313  10.810
18760TIP3    H177771   0.648   2.403  10.824
18760TIP3    H277772   0.670   2.261  10.871
18761TIP3   OH277773   3.096   0.261   4.207
18761TIP3    H177774   3.096   0.324   4.134
18761TIP3    H277775   3.181   0.217   4.200
18762TIP3   OH277776   3.683   1.498  17.223
18762TIP3    H177777   3.716   1.460  17.305
18762TIP3    H277778   3.756   1.488  17.161
18763TIP3   OH277779   6.280   4.131   1.622
18763TIP3    H177780   6.352   4.069   1.624
18763TIP3    H277781   6.266   4.150   1.529
18764TIP3   OH277782   5.679   1.608   4.704
18764TIP3    H177783   5.762   1.574   4.738
18764TIP3    H277784   5.702   1.645   4.618
18765TIP3   OH277785   1.424   3.431   5.558
18765TIP3    H177786   1.404   3.512   5.606
18765TIP3    H277787   1.361   3.429   5.486
18766TIP3   OH277788   0.419   2.590   5.363
18766TIP3    H177789   0.446   2.673   5.403
18766TIP3    H277790   0.411   2.530   5.436
18767TIP3   OH277791   4.265   0.609  12.467
18767TIP3    H177792   4.314   0.692  12.466
18767TIP3    H277793   4.288   0.569  12.551
18768TIP3   OH277794   1.172   2.119  17.147
18768TIP3    H177795   1.244   2.100  17.086
18768TIP3    H277796   1.110   2.047  17.134
18769TIP3   OH277797   4.963   1.961  13.875
18769TIP3    H177798   4.969   1.901  13.950
18769TIP3    H277799   4.960   2.048  13.914
18770TIP3   OH277800   4.003   1.924  14.529
18770TIP3    H177801   4.063   1.921  14.604
18770TIP3    H277802   4.060   1.922  14.452
18771TIP3   OH277803   2.862   1.097  14.215
18771TIP3    H177804   2.793   1.148  14.258
18771TIP3    H277805   2.884   1.147  14.136
18772TIP3   OH277806   3.515   6.385   5.963
18772TIP3    H177807   3.583   6.451   5.973
18772TIP3    H277808   3.561   6.307   5.931
18773TIP3   OH277809   6.002   4.807  16.051
18773TIP3    H177810   6.022   4.882  15.996
18773TIP3    H277811   6.087   4.774  16.079
18774TIP3   OH277812   5.739   6.069  12.677
18774TIP3    H177813   5.809   6.126  12.645
18774TIP3    H277814   5.662   6.094  12.627
18775TIP3   OH277815   1.805   1.638  12.642
18775TIP3    H177816   1.899   1.656  12.642
18775TIP3    H277817   1.785   1.613  12.552
18776TIP3   OH277818   1.950   6.580   5.478
18776TIP3    H177819   2.014   6.646   5.452
18776TIP3    H277820   1.960   6.510   5.414
18777TIP3   OH277821   5.020   2.511  10.891
18777TIP3    H177822   4.994   2.460  10.815
18777TIP3    H277823   5.116   2.513  10.887
18778TIP3   OH277824   1.583   0.244   2.290
18778TIP3    H177825   1.632   0.233   2.209
18778TIP3    H277826   1.491   0.240   2.263
18779TIP3   OH277827   3.482   4.370   3.104
18779TIP3    H177828   3.577   4.361   3.102
18779TIP3    H277829   3.463   4.446   3.049
18780TIP3   OH277830   0.275   1.495  14.219
18780TIP3    H177831   0.359   1.538  14.201
18780TIP3    H277832   0.299   1.407  14.248
18781TIP3   OH277833   3.683   3.941  12.568
18781TIP3    H177834   3.694   3.990  12.487
18781TIP3    H277835   3.593   3.959  12.595
18782TIP3   OH277836   2.998   0.539  13.685
18782TIP3    H177837   3.024   0.454  13.721
18782TIP3    H277838   2.942   0.577  13.753
18783TIP3   OH277839   5.733   4.068   2.168
18783TIP3    H177840   5.795   4.064   2.095
18783TIP3    H277841   5.784   4.102   2.241
18784TIP3   OH277842   5.214   6.355  11.149
18784TIP3    H177843   5.127   6.335  11.185
18784TIP3    H277844   5.206   6.443  11.113
18785TIP3   OH277845   6.719   0.416   4.264
18785TIP3    H177846   6.730   0.336   4.212
18785TIP3    H277847   6.706   0.385   4.353
18786TIP3   OH277848   4.658   6.393  13.686
18786TIP3    H177849   4.743   6.349  13.681
18786TIP3    H277850   4.663   6.463  13.620
18787TIP3   OH277851   3.242   5.319  15.280
18787TIP3    H177852   3.242   5.269  15.362
18787TIP3    H277853   3.328   5.303  15.242
18788TIP3   OH277854   4.703   4.436  11.383
18788TIP3    H177855   4.630   4.458  11.441
18788TIP3    H277856   4.708   4.509  11.322
18789TIP3   OH277857   0.867   4.429  14.029
18789TIP3    H177858   0.882   4.460  14.119
18789TIP3    H277859   0.877   4.334  14.035
18790TIP3   OH277860   1.402   2.937  13.395
18790TIP3    H177861   1.336   2.868  13.388
18790TIP3    H277862   1.384   2.979  13.479
18791TIP3   OH277863   6.201   0.656   4.153
18791TIP3    H177864   6.184   0.676   4.245
18791TIP3    H277865   6.190   0.740   4.108
18792TIP3   OH277866   3.215   2.505   6.969
18792TIP3    H177867   3.232   2.595   6.941
18792TIP3    H277868   3.160   2.469   6.900
18793TIP3   OH277869   2.046   4.096  12.320
18793TIP3    H177870   1.956   4.103  12.353
18793TIP3    H277871   2.100   4.132  12.390
18794TIP3   OH277872   5.661   3.259   2.950
18794TIP3    H177873   5.719   3.256   3.026
18794TIP3    H277874   5.573   3.264   2.987
18795TIP3   OH277875   5.463   5.849  11.600
18795TIP3    H177876   5.382   5.900  11.597
18795TIP3    H277877   5.532   5.913  11.616
18796TIP3   OH277878   6.178   1.205  14.918
18796TIP3    H177879   6.260   1.158  14.902
18796TIP3    H277880   6.119   1.174  14.849
18797TIP3   OH277881   3.833   4.029   2.913
18797TIP3    H177882   3.750   4.024   2.960
18797TIP3    H277883   3.892   4.076   2.972
18798TIP3   OH277884   1.315   1.773  15.569
18798TIP3    H177885   1.277   1.741  15.487
18798TIP3    H277886   1.407   1.791  15.547
18799TIP3   OH277887   1.565   0.646   0.561
18799TIP3    H177888   1.659   0.642   0.550
18799TIP3    H277889   1.538   0.722   0.509
18800TIP3   OH277890   3.860   5.771   3.527
18800TIP3    H177891   3.939   5.732   3.489
18800TIP3    H277892   3.851   5.728   3.612
18801TIP3   OH277893   4.462   3.221  14.543
18801TIP3    H177894   4.440   3.152  14.480
18801TIP3    H277895   4.442   3.182  14.628
18802TIP3   OH277896   2.099   1.574  15.700
18802TIP3    H177897   2.027   1.618  15.655
18802TIP3    H277898   2.067   1.560  15.788
18803TIP3   OH277899   4.485   2.360   0.267
18803TIP3    H177900   4.479   2.275   0.311
18803TIP3    H277901   4.567   2.397   0.299
18804TIP3   OH277902   3.475   4.549  17.052
18804TIP3    H177903   3.420   4.564  17.130
18804TIP3    H277904   3.514   4.463  17.066
18805TIP3   OH277905   6.257   0.796   3.335
18805TIP3    H177906   6.315   0.835   3.401
18805TIP3    H277907   6.168   0.818   3.365
18806TIP3   OH277908   2.136   4.128   2.785
18806TIP3    H177909   2.180   4.200   2.832
18806TIP3    H277910   2.076   4.091   2.850
18807TIP3   OH277911   6.501   4.992   3.093
18807TIP3    H177912   6.444   4.959   3.163
18807TIP3    H277913   6.581   5.017   3.138
18808TIP3   OH277914   3.737   0.422   1.761
18808TIP3    H177915   3.826   0.390   1.776
18808TIP3    H277916   3.687   0.344   1.738
18809TIP3   OH277917   0.290   5.386  14.173
18809TIP3    H177918   0.297   5.481  14.175
18809TIP3    H277919   0.373   5.354  14.209
18810TIP3   OH277920   5.401   1.623  10.724
18810TIP3    H177921   5.353   1.642  10.643
18810TIP3    H277922   5.459   1.698  10.735
18811TIP3   OH277923   0.034   0.369  14.204
18811TIP3    H177924   0.114   0.392  14.155
18811TIP3    H277925   0.044   0.414  14.288
18812TIP3   OH277926   0.022   0.092   5.249
18812TIP3    H177927   0.079   0.071   5.323
18812TIP3    H277928   0.026   0.187   5.242
18813TIP3   OH277929   0.698   0.961   0.519
18813TIP3    H177930   0.717   0.867   0.509
18813TIP3    H277931   0.753   0.989   0.592
18814TIP3   OH277932   4.305   4.984  10.578
18814TIP3    H177933   4.377   4.921  10.583
18814TIP3    H277934   4.239   4.948  10.637
18815TIP3   OH277935   4.842   5.792   2.317
18815TIP3    H177936   4.798   5.877   2.312
18815TIP3    H277937   4.835   5.755   2.229
18816TIP3   OH277938   5.601   0.568   2.228
18816TIP3    H177939   5.516   0.606   2.206
18816TIP3    H277940   5.660   0.601   2.161
18817TIP3   OH277941   2.908   2.685   3.425
18817TIP3    H177942   2.859   2.607   3.452
18817TIP3    H277943   2.960   2.656   3.350
18818TIP3   OH277944   5.419   6.647   1.226
18818TIP3    H177945   5.424   6.558   1.261
18818TIP3    H277946   5.348   6.688   1.275
18819TIP3   OH277947   3.858   5.070  15.053
18819TIP3    H177948   3.795   4.999  15.059
18819TIP3    H277949   3.826   5.126  14.982
18820TIP3   OH277950   2.696   2.469   3.986
18820TIP3    H177951   2.786   2.467   4.018
18820TIP3    H277952   2.703   2.446   3.893
18821TIP3   OH277953   0.465   3.884   1.093
18821TIP3    H177954   0.526   3.915   1.026
18821TIP3    H277955   0.398   3.952   1.098
18822TIP3   OH277956   3.325   5.290   3.735
18822TIP3    H177957   3.309   5.287   3.829
18822TIP3    H277958   3.331   5.383   3.714
18823TIP3   OH277959   6.391   0.957  16.070
18823TIP3    H177960   6.316   1.002  16.030
18823TIP3    H277961   6.419   0.894  16.005
18824TIP3   OH277962   3.940   1.470  15.620
18824TIP3    H177963   3.887   1.452  15.542
18824TIP3    H277964   4.030   1.450  15.593
18825TIP3   OH277965   6.169   0.012   1.174
18825TIP3    H177966   6.095   0.056   1.216
18825TIP3    H277967   6.163   0.037   1.082
18826TIP3   OH277968   2.860   3.584  13.265
18826TIP3    H177969   2.855   3.609  13.357
18826TIP3    H277970   2.951   3.600  13.240
18827TIP3   OH277971   6.475   3.792   3.116
18827TIP3    H177972   6.486   3.846   3.195
18827TIP3    H277973   6.564   3.770   3.089
18828TIP3   OH277974   0.715   4.913   3.668
18828TIP3    H177975   0.729   4.987   3.608
18828TIP3    H277976   0.707   4.837   3.610
18829TIP3   OH277977   2.134   6.446   2.650
18829TIP3    H177978   2.190   6.510   2.693
18829TIP3    H277979   2.074   6.417   2.719
18830TIP3   OH277980   1.514   4.889   3.265
18830TIP3    H177981   1.539   4.982   3.264
18830TIP3    H277982   1.590   4.843   3.230
18831TIP3   OH277983   5.932   6.121  14.077
18831TIP3    H177984   5.893   6.066  14.145
18831TIP3    H277985   6.021   6.089  14.069
18832TIP3   OH277986   5.502   5.232  13.988
18832TIP3    H177987   5.531   5.140  13.982
18832TIP3    H277988   5.491   5.247  14.081
18833TIP3   OH277989   1.120   6.144  12.835
18833TIP3    H177990   1.120   6.061  12.883
18833TIP3    H277991   1.105   6.210  12.903
18834TIP3   OH277992   3.318   3.291  13.723
18834TIP3    H177993   3.392   3.232  13.736
18834TIP3    H277994   3.243   3.244  13.758
18835TIP3   OH277995   4.331   1.080   3.950
18835TIP3    H177996   4.258   1.100   4.009
18835TIP3    H277997   4.341   0.985   3.954
18836TIP3   OH277998   3.880   4.675  14.995
18836TIP3    H177999   3.865   4.582  15.012
18836TIP3    H278000   3.948   4.701  15.057
18837TIP3   OH278001   1.916   2.855   5.762
18837TIP3    H178002   1.976   2.784   5.738
18837TIP3    H278003   1.970   2.933   5.764
18838TIP3   OH278004   4.754   2.431   5.993
18838TIP3    H178005   4.664   2.401   5.979
18838TIP3    H278006   4.747   2.497   6.062
18839TIP3   OH278007   4.339   4.392   4.905
18839TIP3    H178008   4.417   4.360   4.860
18839TIP3    H278009   4.330   4.335   4.981
18840TIP3   OH278010   1.017   6.058   5.228
18840TIP3    H178011   1.079   6.121   5.192
18840TIP3    H278012   1.057   5.973   5.210
18841TIP3   OH278013   2.359   3.304  14.939
18841TIP3    H178014   2.290   3.246  14.970
18841TIP3    H278015   2.316   3.389  14.929
18842TIP3   OH278016   6.009   5.302   2.806
18842TIP3    H178017   5.987   5.256   2.887
18842TIP3    H278018   5.929   5.296   2.753
18843TIP3   OH278019   6.147   2.122  12.699
18843TIP3    H178020   6.062   2.163  12.685
18843TIP3    H278021   6.151   2.108  12.794
18844TIP3   OH278022   3.785   3.373   3.854
18844TIP3    H178023   3.695   3.394   3.878
18844TIP3    H278024   3.832   3.370   3.938
18845TIP3   OH278025   3.221   4.586  15.710
18845TIP3    H178026   3.183   4.605  15.624
18845TIP3    H278027   3.181   4.651  15.768
18846TIP3   OH278028   5.613   0.593   2.722
18846TIP3    H178029   5.528   0.598   2.678
18846TIP3    H278030   5.675   0.570   2.654
18847TIP3   OH278031   5.628   5.107  12.359
18847TIP3    H178032   5.707   5.138  12.316
18847TIP3    H278033   5.641   5.127  12.452
18848TIP3   OH278034   5.385   4.593   4.190
18848TIP3    H178035   5.341   4.654   4.250
18848TIP3    H278036   5.467   4.637   4.169
18849TIP3   OH278037   2.928   5.362   1.077
18849TIP3    H178038   2.922   5.321   0.991
18849TIP3    H278039   2.909   5.454   1.062
18850TIP3   OH278040   3.710   5.658  14.951
18850TIP3    H178041   3.668   5.691  14.872
18850TIP3    H278042   3.650   5.592  14.985
18851TIP3   OH278043   6.339   1.919  12.640
18851TIP3    H178044   6.279   1.993  12.653
18851TIP3    H278045   6.426   1.956  12.658
18852TIP3   OH278046   6.652   5.719   5.259
18852TIP3    H178047   6.644   5.659   5.184
18852TIP3    H278048   6.570   5.707   5.307
18853TIP3   OH278049   6.125   1.515   3.460
18853TIP3    H178050   6.123   1.444   3.525
18853TIP3    H278051   6.151   1.592   3.511
18854TIP3   OH278052   2.626   5.564  14.562
18854TIP3    H178053   2.532   5.578  14.558
18854TIP3    H278054   2.661   5.620  14.493
18855TIP3   OH278055   6.597   2.245   2.471
18855TIP3    H178056   6.686   2.276   2.459
18855TIP3    H278057   6.564   2.231   2.382
18856TIP3   OH278058   6.383   5.673  17.006
18856TIP3    H178059   6.461   5.652  17.058
18856TIP3    H278060   6.315   5.614  17.040
18857TIP3   OH278061   5.848   2.737  10.993
18857TIP3    H178062   5.808   2.664  10.947
18857TIP3    H278063   5.923   2.761  10.939
18858TIP3   OH278064   3.453   4.173   0.057
18858TIP3    H178065   3.394   4.100   0.043
18858TIP3    H278066   3.535   4.133   0.085
18859TIP3   OH278067   1.305   4.931  14.099
18859TIP3    H178068   1.304   4.990  14.175
18859TIP3    H278069   1.244   4.971  14.037
18860TIP3   OH278070   2.184   6.261  15.880
18860TIP3    H178071   2.148   6.342  15.917
18860TIP3    H278072   2.149   6.192  15.936
18861TIP3   OH278073   4.083   4.425   1.984
18861TIP3    H178074   4.148   4.424   1.913
18861TIP3    H278075   4.129   4.386   2.058
18862TIP3   OH278076   2.992   0.892  12.355
18862TIP3    H178077   3.070   0.888  12.411
18862TIP3    H278078   2.995   0.810  12.305
18863TIP3   OH278079   1.263   2.950   4.248
18863TIP3    H178080   1.302   2.870   4.283
18863TIP3    H278081   1.238   3.001   4.325
18864TIP3   OH278082   0.041   2.676  15.356
18864TIP3    H178083  -0.005   2.756  15.383
18864TIP3    H278084   0.122   2.707  15.317
18865TIP3   OH278085   2.125   5.054  12.277
18865TIP3    H178086   2.114   5.149  12.270
18865TIP3    H278087   2.219   5.040  12.265
18866TIP3   OH278088   2.262   0.857  15.149
18866TIP3    H178089   2.243   0.925  15.084
18866TIP3    H278090   2.196   0.871  15.217
18867TIP3   OH278091   2.833   5.062   1.146
18867TIP3    H178092   2.832   5.094   1.236
18867TIP3    H278093   2.925   5.064   1.121
18868TIP3   OH278094   5.229   6.316   4.935
18868TIP3    H178095   5.214   6.362   5.017
18868TIP3    H278096   5.156   6.342   4.879
18869TIP3   OH278097   2.423   5.141  11.034
18869TIP3    H178098   2.374   5.072  10.989
18869TIP3    H278099   2.412   5.121  11.127
18870TIP3   OH278100   5.271   2.988   3.945
18870TIP3    H178101   5.329   3.063   3.955
18870TIP3    H278102   5.255   2.957   4.034
18871TIP3   OH278103   2.847   4.539  13.981
18871TIP3    H178104   2.826   4.614  14.038
18871TIP3    H278105   2.770   4.482  13.988
18872TIP3   OH278106   3.605   0.898  11.974
18872TIP3    H178107   3.666   0.866  11.907
18872TIP3    H278108   3.581   0.819  12.023
18873TIP3   OH278109   6.644   1.349   2.399
18873TIP3    H178110   6.619   1.333   2.308
18873TIP3    H278111   6.735   1.321   2.403
18874TIP3   OH278112   6.125   3.252  15.116
18874TIP3    H178113   6.199   3.193  15.099
18874TIP3    H278114   6.063   3.200  15.167
18875TIP3   OH278115   1.566   3.131   1.305
18875TIP3    H178116   1.648   3.083   1.288
18875TIP3    H278117   1.570   3.207   1.247
18876TIP3   OH278118   2.387   6.170   5.300
18876TIP3    H178119   2.410   6.078   5.305
18876TIP3    H278120   2.328   6.176   5.225
18877TIP3   OH278121   0.224   1.167  17.095
18877TIP3    H178122   0.314   1.143  17.074
18877TIP3    H278123   0.202   1.234  17.031
18878TIP3   OH278124   0.787   1.821  11.076
18878TIP3    H178125   0.865   1.834  11.023
18878TIP3    H278126   0.714   1.840  11.017
18879TIP3   OH278127   0.470   2.207   5.473
18879TIP3    H178128   0.487   2.133   5.532
18879TIP3    H278129   0.555   2.224   5.432
18880TIP3   OH278130   3.493   0.270  13.253
18880TIP3    H178131   3.458   0.265  13.342
18880TIP3    H278132   3.420   0.301  13.200
18881TIP3   OH278133   0.755   4.464  15.343
18881TIP3    H178134   0.694   4.457  15.416
18881TIP3    H278135   0.705   4.509  15.275
18882TIP3   OH278136   0.007   6.792   5.750
18882TIP3    H178137  -0.034   6.752   5.826
18882TIP3    H278138  -0.049   6.867   5.730
18883TIP3   OH278139   1.701   1.444   4.645
18883TIP3    H178140   1.733   1.370   4.594
18883TIP3    H278141   1.642   1.405   4.710
18884TIP3   OH278142   0.802   6.151   5.398
18884TIP3    H178143   0.861   6.093   5.349
18884TIP3    H278144   0.717   6.108   5.393
18885TIP3   OH278145   3.447   6.103   1.734
18885TIP3    H178146   3.355   6.124   1.753
18885TIP3    H278147   3.497   6.162   1.790
18886TIP3   OH278148   5.053   0.442  15.899
18886TIP3    H178149   5.100   0.362  15.925
18886TIP3    H278150   5.118   0.493  15.850
18887TIP3   OH278151   5.322   1.619   2.027
18887TIP3    H178152   5.258   1.591   1.962
18887TIP3    H278153   5.295   1.707   2.052
18888TIP3   OH278154   5.751   5.779  15.198
18888TIP3    H178155   5.772   5.694  15.237
18888TIP3    H278156   5.754   5.840  15.272
18889TIP3   OH278157   2.909   3.918  14.820
18889TIP3    H178158   2.993   3.954  14.848
18889TIP3    H278159   2.931   3.845  14.763
18890TIP3   OH278160   1.617   3.554  11.590
18890TIP3    H178161   1.702   3.509  11.583
18890TIP3    H278162   1.640   3.646  11.604
18891TIP3   OH278163   3.285   4.260  14.523
18891TIP3    H178164   3.190   4.260  14.517
18891TIP3    H278165   3.304   4.289  14.612
18892TIP3   OH278166   2.363   0.166  13.589
18892TIP3    H178167   2.300   0.149  13.520
18892TIP3    H278168   2.324   0.128  13.668
18893TIP3   OH278169   0.901   0.300   3.312
18893TIP3    H178170   0.859   0.227   3.360
18893TIP3    H278171   0.983   0.315   3.359
18894TIP3   OH278172   2.173   3.082  15.013
18894TIP3    H178173   2.125   3.043  14.941
18894TIP3    H278174   2.152   3.028  15.089
18895TIP3   OH278175   5.458   4.102  14.733
18895TIP3    H178176   5.365   4.080  14.729
18895TIP3    H278177   5.499   4.045  14.668
18896TIP3   OH278178   5.572   5.210   4.654
18896TIP3    H178179   5.637   5.204   4.584
18896TIP3    H278180   5.500   5.259   4.615
18897TIP3   OH278181   4.834   1.199  16.427
18897TIP3    H178182   4.761   1.139  16.445
18897TIP3    H278183   4.876   1.211  16.513
18898TIP3   OH278184   1.022   3.292   5.481
18898TIP3    H178185   1.028   3.309   5.575
18898TIP3    H278186   0.938   3.332   5.455
18899TIP3   OH278187   3.860   2.058   0.453
18899TIP3    H178188   3.874   2.090   0.364
18899TIP3    H278189   3.768   2.076   0.470
18900TIP3   OH278190   1.500   1.627   0.595
18900TIP3    H178191   1.526   1.535   0.589
18900TIP3    H278192   1.409   1.627   0.566
18901TIP3   OH278193   2.977   5.114   3.423
18901TIP3    H178194   2.941   5.040   3.374
18901TIP3    H278195   3.071   5.112   3.405
18902TIP3   OH278196   6.613   5.443  17.117
18902TIP3    H178197   6.652   5.358  17.139
18902TIP3    H278198   6.666   5.507  17.165
18903TIP3   OH278199   0.478   2.825  16.889
18903TIP3    H178200   0.469   2.908  16.842
18903TIP3    H278201   0.411   2.829  16.958
18904TIP3   OH278202   1.188   0.396  15.679
18904TIP3    H178203   1.229   0.325  15.728
18904TIP3    H278204   1.226   0.391  15.592
18905TIP3   OH278205   3.675   4.456  11.426
18905TIP3    H178206   3.606   4.397  11.395
18905TIP3    H278207   3.684   4.520  11.355
18906TIP3   OH278208   3.386   2.436   5.475
18906TIP3    H178209   3.358   2.349   5.446
18906TIP3    H278210   3.363   2.493   5.402
18907TIP3   OH278211   6.797   0.152   4.203
18907TIP3    H178212   6.888   0.171   4.227
18907TIP3    H278213   6.803   0.090   4.131
18908TIP3   OH278214   0.568   0.081   6.455
18908TIP3    H178215   0.497   0.122   6.503
18908TIP3    H278216   0.627   0.153   6.433
18909TIP3   OH278217   2.165   3.807  16.733
18909TIP3    H178218   2.210   3.840  16.811
18909TIP3    H278219   2.137   3.885  16.687
18910TIP3   OH278220   4.383   1.979   2.011
18910TIP3    H178221   4.331   1.906   2.044
18910TIP3    H278222   4.449   1.939   1.956
18911TIP3   OH278223   1.900   4.622  12.648
18911TIP3    H178224   1.891   4.527  12.652
18911TIP3    H278225   1.992   4.636  12.628
18912TIP3   OH278226   4.658   4.922  12.290
18912TIP3    H178227   4.740   4.958  12.257
18912TIP3    H278228   4.601   4.998  12.302
18913TIP3   OH278229   0.241   3.549   3.095
18913TIP3    H178230   0.336   3.538   3.096
18913TIP3    H278231   0.224   3.623   3.154
18914TIP3   OH278232   1.780   6.246   2.431
18914TIP3    H178233   1.741   6.170   2.389
18914TIP3    H278234   1.780   6.314   2.363
18915TIP3   OH278235   4.713   1.636  12.472
18915TIP3    H178236   4.646   1.602  12.413
18915TIP3    H278237   4.686   1.727  12.489
18916TIP3   OH278238   1.705   5.179   3.639
18916TIP3    H178239   1.754   5.128   3.703
18916TIP3    H278240   1.613   5.161   3.659
18917TIP3   OH278241   1.723   1.181   1.100
18917TIP3    H178242   1.758   1.257   1.054
18917TIP3    H278243   1.678   1.130   1.033
18918TIP3   OH278244   1.862   1.446  16.490
18918TIP3    H178245   1.800   1.458  16.562
18918TIP3    H278246   1.806   1.431  16.413
18919TIP3   OH278247   1.319   6.729  13.609
18919TIP3    H178248   1.260   6.802  13.625
18919TIP3    H278249   1.306   6.707  13.516
18920TIP3   OH278250   4.723   2.623  13.224
18920TIP3    H178251   4.696   2.534  13.200
18920TIP3    H278252   4.770   2.612  13.307
18921TIP3   OH278253   1.994   2.036   3.233
18921TIP3    H178254   2.062   2.043   3.167
18921TIP3    H278255   1.986   1.942   3.250
18922TIP3   OH278256   1.371   1.148   6.046
18922TIP3    H178257   1.379   1.053   6.054
18922TIP3    H278258   1.402   1.168   5.958
18923TIP3   OH278259   6.489   1.824   2.616
18923TIP3    H178260   6.534   1.742   2.599
18923TIP3    H278261   6.458   1.816   2.707
18924TIP3   OH278262   1.267   5.271   3.342
18924TIP3    H178263   1.307   5.186   3.325
18924TIP3    H278264   1.271   5.317   3.258
18925TIP3   OH278265   2.392   4.600  10.087
18925TIP3    H178266   2.453   4.592  10.161
18925TIP3    H278267   2.320   4.540  10.110
18926TIP3   OH278268   5.787   4.162  10.436
18926TIP3    H178269   5.855   4.155  10.369
18926TIP3    H278270   5.794   4.080  10.486
18927TIP3   OH278271   1.005   4.931  11.841
18927TIP3    H178272   0.997   5.026  11.846
18927TIP3    H278273   1.041   4.906  11.926
18928TIP3   OH278274   1.888   3.582   0.475
18928TIP3    H178275   1.814   3.520   0.474
18928TIP3    H278276   1.850   3.664   0.445
18929TIP3   OH278277   4.699   4.384   3.960
18929TIP3    H178278   4.777   4.385   4.016
18929TIP3    H278279   4.729   4.422   3.877
18930TIP3   OH278280   3.234   1.096  12.649
18930TIP3    H178281   3.230   1.085  12.744
18930TIP3    H278282   3.221   1.009  12.613
18931TIP3   OH278283   4.965   4.153  14.946
18931TIP3    H178284   4.988   4.071  14.990
18931TIP3    H278285   4.872   4.143  14.924
18932TIP3   OH278286   4.729   4.535  13.632
18932TIP3    H178287   4.653   4.592  13.649
18932TIP3    H278288   4.702   4.450  13.666
18933TIP3   OH278289   6.068   3.450   5.342
18933TIP3    H178290   6.149   3.449   5.394
18933TIP3    H278291   5.998   3.439   5.406
18934TIP3   OH278292   5.786   2.764  15.691
18934TIP3    H178293   5.761   2.747  15.781
18934TIP3    H278294   5.750   2.691  15.641
18935TIP3   OH278295   4.379   3.859  11.150
18935TIP3    H178296   4.329   3.840  11.071
18935TIP3    H278297   4.449   3.794  11.151
18936TIP3   OH278298   5.220   0.642  11.932
18936TIP3    H178299   5.262   0.651  12.018
18936TIP3    H278300   5.263   0.566  11.892
18937TIP3   OH278301   1.663   3.613  15.435
18937TIP3    H178302   1.679   3.561  15.356
18937TIP3    H278303   1.713   3.694  15.421
18938TIP3   OH278304   4.448   5.040  11.840
18938TIP3    H178305   4.478   5.090  11.916
18938TIP3    H278306   4.446   4.949  11.869
18939TIP3   OH278307   5.098   0.614   5.697
18939TIP3    H178308   5.101   0.654   5.610
18939TIP3    H278309   5.004   0.605   5.716
18940TIP3   OH278310   5.938   0.198  16.452
18940TIP3    H178311   5.963   0.110  16.425
18940TIP3    H278312   5.890   0.184  16.534
18941TIP3   OH278313   3.355   5.628   4.971
18941TIP3    H178314   3.290   5.693   4.943
18941TIP3    H278315   3.436   5.655   4.928
18942TIP3   OH278316   5.272   2.268   1.799
18942TIP3    H178317   5.330   2.295   1.728
18942TIP3    H278318   5.199   2.329   1.796
18943TIP3   OH278319   1.021   3.068  11.628
18943TIP3    H178320   1.071   3.139  11.669
18943TIP3    H278321   1.078   3.036  11.558
18944TIP3   OH278322   0.779   2.297  12.530
18944TIP3    H178323   0.855   2.352  12.548
18944TIP3    H278324   0.707   2.358  12.518
18945TIP3   OH278325   6.296   2.556   6.587
18945TIP3    H178326   6.340   2.571   6.504
18945TIP3    H278327   6.239   2.481   6.570
18946TIP3   OH278328   3.115   0.805   2.971
18946TIP3    H178329   3.164   0.732   2.934
18946TIP3    H278330   3.038   0.813   2.915
18947TIP3   OH278331   2.755   6.476   0.847
18947TIP3    H178332   2.820   6.478   0.918
18947TIP3    H278333   2.783   6.402   0.792
18948TIP3   OH278334   1.027   3.808  14.294
18948TIP3    H178335   1.042   3.772  14.207
18948TIP3    H278336   0.933   3.800  14.307
18949TIP3   OH278337   2.915   5.921   5.860
18949TIP3    H178338   2.847   5.940   5.796
18949TIP3    H278339   2.976   5.995   5.853
18950TIP3   OH278340   2.962   2.641  13.418
18950TIP3    H178341   3.014   2.585  13.476
18950TIP3    H278342   2.903   2.688  13.477
18951TIP3   OH278343   1.816   2.291   1.547
18951TIP3    H178344   1.731   2.285   1.591
18951TIP3    H278345   1.811   2.228   1.476
18952TIP3   OH278346   3.223   0.099  15.211
18952TIP3    H178347   3.262   0.176  15.169
18952TIP3    H278348   3.130   0.105  15.191
18953TIP3   OH278349   4.688   6.732  12.534
18953TIP3    H178350   4.658   6.728  12.624
18953TIP3    H278351   4.609   6.742  12.482
18954TIP3   OH278352   3.518   4.647  14.134
18954TIP3    H178353   3.440   4.590  14.135
18954TIP3    H278354   3.486   4.729  14.097
18955TIP3   OH278355   1.348   1.334  16.649
18955TIP3    H178356   1.318   1.296  16.731
18955TIP3    H278357   1.384   1.419  16.673
18956TIP3   OH278358   3.667   5.018   3.039
18956TIP3    H178359   3.640   4.984   3.124
18956TIP3    H278360   3.594   5.071   3.009
18957TIP3   OH278361   4.992   6.276   1.783
18957TIP3    H178362   5.054   6.330   1.832
18957TIP3    H278363   5.023   6.187   1.797
18958TIP3   OH278364   0.820   2.029   0.541
18958TIP3    H178365   0.746   2.066   0.589
18958TIP3    H278366   0.827   2.083   0.462
18959TIP3   OH278367   5.309   2.157   5.832
18959TIP3    H178368   5.316   2.168   5.926
18959TIP3    H278369   5.378   2.211   5.795
18960TIP3   OH278370   5.771   3.097  16.143
18960TIP3    H178371   5.751   3.074  16.052
18960TIP3    H278372   5.851   3.049  16.162
18961TIP3   OH278373   2.035   3.683   5.496
18961TIP3    H178374   2.040   3.599   5.544
18961TIP3    H278375   2.055   3.749   5.562
18962TIP3   OH278376   0.794   3.390   6.382
18962TIP3    H178377   0.878   3.435   6.391
18962TIP3    H278378   0.816   3.306   6.342
18963TIP3   OH278379   2.510   3.972  16.752
18963TIP3    H178380   2.462   3.953  16.672
18963TIP3    H278381   2.504   3.892  16.804
18964TIP3   OH278382   2.613   2.681   6.024
18964TIP3    H178383   2.703   2.659   6.045
18964TIP3    H278384   2.601   2.770   6.058
18965TIP3   OH278385   2.043   0.909  17.044
18965TIP3    H178386   2.032   0.911  16.949
18965TIP3    H278387   1.958   0.882  17.078
18966TIP3   OH278388   1.553   4.888   1.249
18966TIP3    H178389   1.579   4.952   1.183
18966TIP3    H278390   1.464   4.915   1.274
18967TIP3   OH278391   6.806   0.526   1.630
18967TIP3    H178392   6.754   0.458   1.588
18967TIP3    H278393   6.790   0.514   1.724
18968TIP3   OH278394   0.126   3.768   3.259
18968TIP3    H178395   0.187   3.819   3.312
18968TIP3    H278396   0.040   3.805   3.281
18969TIP3   OH278397   4.552   0.648   5.747
18969TIP3    H178398   4.476   0.589   5.749
18969TIP3    H278399   4.561   0.677   5.837
18970TIP3   OH278400   5.188   3.389   0.515
18970TIP3    H178401   5.282   3.408   0.509
18970TIP3    H278402   5.150   3.469   0.550
18971TIP3   OH278403   6.342   0.863  16.932
18971TIP3    H178404   6.380   0.892  17.015
18971TIP3    H278405   6.383   0.919  16.866
18972TIP3   OH278406   2.991   5.747  11.306
18972TIP3    H178407   3.020   5.760  11.396
18972TIP3    H278408   2.993   5.834  11.267
18973TIP3   OH278409   2.675   5.607   1.888
18973TIP3    H178410   2.749   5.548   1.906
18973TIP3    H278411   2.716   5.691   1.867
18974TIP3   OH278412   6.476   3.818  11.772
18974TIP3    H178413   6.553   3.847  11.722
18974TIP3    H278414   6.450   3.736  11.729
18975TIP3   OH278415   2.081   6.532   1.712
18975TIP3    H178416   2.073   6.606   1.652
18975TIP3    H278417   2.055   6.456   1.660
18976TIP3   OH278418   3.133   3.078   3.880
18976TIP3    H178419   3.128   3.128   3.799
18976TIP3    H278420   3.073   3.005   3.867
18977TIP3   OH278421   5.244   3.362   2.739
18977TIP3    H178422   5.225   3.270   2.756
18977TIP3    H278423   5.271   3.364   2.647
18978TIP3   OH278424   5.164   1.553   4.980
18978TIP3    H178425   5.137   1.594   5.062
18978TIP3    H278426   5.258   1.536   4.992
18979TIP3   OH278427   4.330   3.177  15.528
18979TIP3    H178428   4.414   3.222  15.541
18979TIP3    H278429   4.283   3.231  15.465
18980TIP3   OH278430   0.961   0.624   2.346
18980TIP3    H178431   0.980   0.551   2.404
18980TIP3    H278432   0.899   0.678   2.395
18981TIP3   OH278433   6.638   6.550   2.865
18981TIP3    H178434   6.591   6.505   2.935
18981TIP3    H278435   6.729   6.523   2.875
18982TIP3   OH278436   1.180   1.794  14.419
18982TIP3    H178437   1.232   1.773  14.341
18982TIP3    H278438   1.101   1.834  14.386
18983TIP3   OH278439   4.703   4.272   4.623
18983TIP3    H178440   4.654   4.328   4.563
18983TIP3    H278441   4.686   4.183   4.593
18984TIP3   OH278442   6.361   0.704   0.116
18984TIP3    H178443   6.435   0.654   0.149
18984TIP3    H278444   6.330   0.755   0.191
18985TIP3   OH278445   2.383   5.423  15.798
18985TIP3    H178446   2.434   5.466  15.730
18985TIP3    H278447   2.444   5.360  15.837
18986TIP3   OH278448   6.276   3.480   3.694
18986TIP3    H178449   6.263   3.574   3.703
18986TIP3    H278450   6.270   3.463   3.600
18987TIP3   OH278451   0.132   5.399  11.445
18987TIP3    H178452   0.169   5.472  11.494
18987TIP3    H278453   0.038   5.402  11.465
18988TIP3   OH278454   6.751   2.456   6.145
18988TIP3    H178455   6.731   2.538   6.101
18988TIP3    H278456   6.846   2.455   6.154
18989TIP3   OH278457   5.959   4.215  15.143
18989TIP3    H178458   5.887   4.239  15.085
18989TIP3    H278459   6.027   4.279  15.124
18990TIP3   OH278460   2.708   4.759   3.915
18990TIP3    H178461   2.747   4.745   4.001
18990TIP3    H278462   2.774   4.726   3.854
18991TIP3   OH278463   4.162   2.632  10.556
18991TIP3    H178464   4.191   2.723  10.570
18991TIP3    H278465   4.120   2.634  10.470
18992TIP3   OH278466   6.415   2.088   5.839
18992TIP3    H178467   6.333   2.083   5.888
18992TIP3    H278468   6.390   2.122   5.754
18993TIP3   OH278469   5.265   0.454  16.132
18993TIP3    H178470   5.259   0.505  16.213
18993TIP3    H278471   5.218   0.506  16.067
18994TIP3   OH278472   0.167   0.783  14.480
18994TIP3    H178473   0.221   0.748  14.551
18994TIP3    H278474   0.109   0.846  14.523
18995TIP3   OH278475   1.096   1.996   2.974
18995TIP3    H178476   1.183   2.002   2.935
18995TIP3    H278477   1.078   1.902   2.978
18996TIP3   OH278478   4.688   6.557   3.143
18996TIP3    H178479   4.644   6.640   3.126
18996TIP3    H278480   4.638   6.518   3.215
18997TIP3   OH278481   2.376   3.008  15.760
18997TIP3    H178482   2.392   2.914  15.748
18997TIP3    H278483   2.363   3.019  15.854
18998TIP3   OH278484   4.350   1.445   4.014
18998TIP3    H178485   4.398   1.514   4.060
18998TIP3    H278486   4.330   1.482   3.928
18999TIP3   OH278487   3.472   6.591  15.765
18999TIP3    H178488   3.567   6.598  15.774
18999TIP3    H278489   3.439   6.677  15.789
19000TIP3   OH278490   5.742   0.030   1.689
19000TIP3    H178491   5.687   0.076   1.626
19000TIP3    H278492   5.743  -0.061   1.658
19001TIP3   OH278493   3.862   6.647  12.635
19001TIP3    H178494   3.921   6.670  12.564
19001TIP3    H278495   3.831   6.730  12.670
19002TIP3   OH278496   5.052   4.634  14.576
19002TIP3    H178497   5.076   4.722  14.603
19002TIP3    H278498   5.063   4.581  14.656
19003TIP3   OH278499   1.938   5.488   5.363
19003TIP3    H178500   1.977   5.468   5.448
19003TIP3    H278501   2.010   5.522   5.310
19004TIP3   OH278502   0.290   4.622   1.967
19004TIP3    H178503   0.292   4.551   2.031
19004TIP3    H278504   0.290   4.578   1.882
19005TIP3   OH278505   3.636   1.532  13.368
19005TIP3    H178506   3.579   1.569  13.435
19005TIP3    H278507   3.685   1.463  13.414
19006TIP3   OH278508   0.760   3.703   3.418
19006TIP3    H178509   0.853   3.684   3.429
19006TIP3    H278510   0.749   3.717   3.324
19007TIP3   OH278511   3.058   5.669  14.757
19007TIP3    H178512   3.043   5.681  14.663
19007TIP3    H278513   3.051   5.757  14.794
19008TIP3   OH278514   6.453   1.037   1.231
19008TIP3    H178515   6.492   0.991   1.157
19008TIP3    H278516   6.362   1.007   1.233
19009TIP3   OH278517   2.735   1.441   0.167
19009TIP3    H178518   2.798   1.511   0.185
19009TIP3    H278519   2.746   1.379   0.239
19010TIP3   OH278520   0.418   2.543   0.887
19010TIP3    H178521   0.356   2.511   0.953
19010TIP3    H278522   0.415   2.478   0.817
19011TIP3   OH278523   1.135   2.357  16.744
19011TIP3    H178524   1.100   2.393  16.662
19011TIP3    H278525   1.207   2.415  16.767
19012TIP3   OH278526   3.032   2.916   2.147
19012TIP3    H178527   2.965   2.950   2.207
19012TIP3    H278528   3.095   2.988   2.138
19013TIP3   OH278529   4.014   0.178  13.332
19013TIP3    H178530   3.978   0.265  13.348
19013TIP3    H278531   3.943   0.131  13.288
19014TIP3   OH278532   0.713   3.265   1.645
19014TIP3    H178533   0.750   3.290   1.561
19014TIP3    H278534   0.654   3.192   1.625
19015TIP3   OH278535   4.439   2.379   4.624
19015TIP3    H178536   4.424   2.433   4.546
19015TIP3    H278537   4.523   2.337   4.610
19016TIP3   OH278538   5.882   4.803   1.563
19016TIP3    H178539   5.853   4.861   1.493
19016TIP3    H278540   5.807   4.745   1.579
19017TIP3   OH278541   0.092   1.136   4.810
19017TIP3    H178542   0.186   1.123   4.826
19017TIP3    H278543   0.076   1.092   4.726
19018TIP3   OH278544   2.731   1.664  12.633
19018TIP3    H178545   2.734   1.748  12.678
19018TIP3    H278546   2.817   1.655  12.593
19019TIP3   OH278547   4.645   3.222  14.313
19019TIP3    H178548   4.640   3.228  14.408
19019TIP3    H278549   4.691   3.140  14.297
19020TIP3   OH278550   5.582   6.731   2.729
19020TIP3    H178551   5.511   6.764   2.785
19020TIP3    H278552   5.651   6.705   2.791
19021TIP3   OH278553   6.195   1.733  13.440
19021TIP3    H178554   6.176   1.695  13.526
19021TIP3    H278555   6.112   1.770  13.411
19022TIP3   OH278556   2.284   0.187   5.732
19022TIP3    H178557   2.204   0.236   5.745
19022TIP3    H278558   2.289   0.173   5.637
19023TIP3   OH278559   2.081   1.705  16.972
19023TIP3    H178560   2.070   1.797  16.950
19023TIP3    H278561   2.151   1.675  16.913
19024TIP3   OH278562   2.743   5.414   5.021
19024TIP3    H178563   2.762   5.508   5.025
19024TIP3    H278564   2.728   5.396   4.929
19025TIP3   OH278565   4.491   6.358   5.978
19025TIP3    H178566   4.470   6.265   5.985
19025TIP3    H278567   4.431   6.401   6.039
19026TIP3   OH278568   4.080   2.772   2.116
19026TIP3    H178569   4.031   2.843   2.157
19026TIP3    H278570   4.145   2.816   2.062
19027TIP3   OH278571   2.950   2.215  13.264
19027TIP3    H178572   2.919   2.298  13.228
19027TIP3    H278573   2.938   2.152  13.193
19028TIP3   OH278574   5.647   6.320  17.157
19028TIP3    H178575   5.614   6.235  17.129
19028TIP3    H278576   5.742   6.312  17.152
19029TIP3   OH278577   6.430   0.526   4.529
19029TIP3    H178578   6.520   0.543   4.556
19029TIP3    H278579   6.432   0.523   4.434
19030TIP3   OH278580   5.947   3.806   0.390
19030TIP3    H178581   5.988   3.835   0.309
19030TIP3    H278582   5.920   3.886   0.434
19031TIP3   OH278583   2.510   6.190   3.273
19031TIP3    H178584   2.446   6.126   3.304
19031TIP3    H278585   2.552   6.147   3.198
19032TIP3   OH278586   4.851   5.099  14.010
19032TIP3    H178587   4.930   5.119  14.062
19032TIP3    H278588   4.877   5.027  13.954
19033TIP3   OH278589   2.811   1.307   2.390
19033TIP3    H178590   2.796   1.213   2.390
19033TIP3    H278591   2.899   1.317   2.426
19034TIP3   OH278592   6.423   2.277  16.626
19034TIP3    H178593   6.470   2.266  16.709
19034TIP3    H278594   6.331   2.283  16.651
19035TIP3   OH278595   4.097   3.622  10.530
19035TIP3    H178596   4.112   3.538  10.488
19035TIP3    H278597   4.078   3.682  10.458
19036TIP3   OH278598   1.600   5.783  13.487
19036TIP3    H178599   1.516   5.739  13.474
19036TIP3    H278600   1.585   5.873  13.459
19037TIP3   OH278601   6.333   3.139  16.749
19037TIP3    H178602   6.374   3.068  16.699
19037TIP3    H278603   6.368   3.129  16.837
19038TIP3   OH278604   2.758   0.127  13.528
19038TIP3    H178605   2.674   0.154  13.491
19038TIP3    H278606   2.784   0.201  13.583
19039TIP3   OH278607   4.786   1.992   4.369
19039TIP3    H178608   4.868   2.039   4.383
19039TIP3    H278609   4.812   1.912   4.323
19040TIP3   OH278610   4.011   0.859   5.428
19040TIP3    H178611   4.101   0.861   5.460
19040TIP3    H278612   4.018   0.889   5.337
19041TIP3   OH278613   1.275   6.802   3.428
19041TIP3    H178614   1.183   6.824   3.444
19041TIP3    H278615   1.274   6.708   3.411
19042TIP3   OH278616   1.449   6.675  12.129
19042TIP3    H178617   1.410   6.632  12.205
19042TIP3    H278618   1.450   6.608  12.061
19043TIP3   OH278619   3.173   4.239   0.146
19043TIP3    H178620   3.231   4.168   0.118
19043TIP3    H278621   3.151   4.217   0.237
19044TIP3   OH278622   0.552   3.119  15.458
19044TIP3    H178623   0.637   3.109  15.502
19044TIP3    H278624   0.538   3.036  15.412
19045TIP3   OH278625   0.187   3.810  12.828
19045TIP3    H178626   0.236   3.788  12.749
19045TIP3    H278627   0.220   3.896  12.854
19046TIP3   OH278628   4.998   0.613   2.369
19046TIP3    H178629   4.926   0.593   2.428
19046TIP3    H278630   5.057   0.538   2.376
19047TIP3   OH278631   6.605   4.158   1.842
19047TIP3    H178632   6.587   4.068   1.868
19047TIP3    H278633   6.527   4.207   1.868
19048TIP3   OH278634   1.151   5.710  13.219
19048TIP3    H178635   1.155   5.615  13.211
19048TIP3    H278636   1.189   5.729  13.306
19049TIP3   OH278637   0.061   6.720  12.987
19049TIP3    H178638   0.116   6.784  12.942
19049TIP3    H278639  -0.027   6.756  12.983
19050TIP3   OH278640   4.825   0.314   5.296
19050TIP3    H178641   4.775   0.346   5.221
19050TIP3    H278642   4.916   0.317   5.267
19051TIP3   OH278643   2.265   4.519  14.359
19051TIP3    H178644   2.298   4.441  14.314
19051TIP3    H278645   2.184   4.491  14.400
19052TIP3   OH278646   0.203   6.433   1.269
19052TIP3    H178647   0.281   6.436   1.213
19052TIP3    H278648   0.227   6.374   1.340
19053TIP3   OH278649   2.254   1.357   6.094
19053TIP3    H178650   2.252   1.392   6.183
19053TIP3    H278651   2.305   1.421   6.045
19054TIP3   OH278652   2.966   1.754  12.446
19054TIP3    H178653   3.048   1.709  12.426
19054TIP3    H278654   2.986   1.847  12.434
19055TIP3   OH278655   1.777   2.131   4.597
19055TIP3    H178656   1.687   2.159   4.581
19055TIP3    H278657   1.805   2.183   4.672
19056TIP3   OH278658   3.625   6.337   1.877
19056TIP3    H178659   3.694   6.351   1.812
19056TIP3    H278660   3.658   6.266   1.932
19057TIP3   OH278661   2.382   0.241   0.061
19057TIP3    H178662   2.434   0.182   0.007
19057TIP3    H278663   2.292   0.208   0.052
19058TIP3   OH278664   2.992   5.860   2.996
19058TIP3    H178665   3.046   5.936   3.018
19058TIP3    H278666   2.917   5.897   2.949
19059TIP3   OH278667   5.280   0.455  15.376
19059TIP3    H178668   5.195   0.475  15.414
19059TIP3    H278669   5.280   0.500  15.291
19060TIP3   OH278670   0.941   5.372   4.933
19060TIP3    H178671   0.853   5.407   4.918
19060TIP3    H278672   1.000   5.439   4.900
19061TIP3   OH278673   2.117   3.581  12.587
19061TIP3    H178674   2.136   3.554  12.677
19061TIP3    H278675   2.081   3.502  12.546
19062TIP3   OH278676   4.777   5.875   2.737
19062TIP3    H178677   4.847   5.844   2.795
19062TIP3    H278678   4.791   5.970   2.732
19063TIP3   OH278679   6.181   1.695   3.799
19063TIP3    H178680   6.216   1.631   3.861
19063TIP3    H278681   6.122   1.646   3.743
19064TIP3   OH278682   0.324   3.274   1.478
19064TIP3    H178683   0.268   3.206   1.439
19064TIP3    H278684   0.317   3.348   1.417
19065TIP3   OH278685   0.332   3.212  11.169
19065TIP3    H178686   0.395   3.154  11.211
19065TIP3    H278687   0.379   3.295  11.158
19066TIP3   OH278688   3.832   6.387   4.600
19066TIP3    H178689   3.814   6.400   4.694
19066TIP3    H278690   3.905   6.326   4.598
19067TIP3   OH278691   2.669   5.903   6.206
19067TIP3    H178692   2.599   5.849   6.244
19067TIP3    H278693   2.625   5.955   6.139
19068TIP3   OH278694   2.146   4.746  11.794
19068TIP3    H178695   2.106   4.659  11.788
19068TIP3    H278696   2.113   4.782  11.876
19069TIP3   OH278697   6.048   5.743   4.151
19069TIP3    H178698   6.137   5.775   4.142
19069TIP3    H278699   6.007   5.804   4.213
19070TIP3   OH278700   4.200   4.243  11.595
19070TIP3    H178701   4.231   4.326  11.558
19070TIP3    H278702   4.127   4.217  11.539
19071TIP3   OH278703   2.323   5.336   2.676
19071TIP3    H178704   2.346   5.412   2.730
19071TIP3    H278705   2.265   5.370   2.609
19072TIP3   OH278706   3.389   1.506   3.977
19072TIP3    H178707   3.349   1.591   3.999
19072TIP3    H278708   3.314   1.447   3.967
19073TIP3   OH278709   5.969   5.929   6.191
19073TIP3    H178710   5.934   5.951   6.104
19073TIP3    H278711   5.901   5.957   6.252
19074TIP3   OH278712   0.662   6.435   0.428
19074TIP3    H178713   0.637   6.357   0.378
19074TIP3    H278714   0.638   6.415   0.518
19075TIP3   OH278715   6.199   5.665   3.081
19075TIP3    H178716   6.165   5.603   3.144
19075TIP3    H278717   6.152   5.646   3.000
19076TIP3   OH278718   0.712   0.857   4.113
19076TIP3    H178719   0.697   0.912   4.190
19076TIP3    H278720   0.690   0.768   4.143
19077TIP3   OH278721   0.807   4.066   2.101
19077TIP3    H178722   0.827   4.146   2.052
19077TIP3    H278723   0.747   4.093   2.170
19078TIP3   OH278724   6.603   6.379  17.014
19078TIP3    H178725   6.665   6.437  16.971
19078TIP3    H278726   6.551   6.343  16.942
19079TIP3   OH278727   1.235   0.503   0.919
19079TIP3    H178728   1.260   0.415   0.890
19079TIP3    H278729   1.289   0.562   0.866
19080TIP3   OH278730   6.491   4.985  13.670
19080TIP3    H178731   6.571   4.960  13.716
19080TIP3    H278732   6.499   4.946  13.583
19081TIP3   OH278733   4.912   1.086  10.719
19081TIP3    H178734   4.997   1.128  10.706
19081TIP3    H278735   4.923   1.031  10.797
19082TIP3   OH278736   5.088   2.004   4.451
19082TIP3    H178737   5.172   2.045   4.432
19082TIP3    H278738   5.107   1.943   4.523
19083TIP3   OH278739   5.054   3.060  12.400
19083TIP3    H178740   5.017   3.023  12.480
19083TIP3    H278741   5.119   3.123  12.430
19084TIP3   OH278742   3.331   0.267  16.937
19084TIP3    H178743   3.241   0.260  16.905
19084TIP3    H278744   3.386   0.249  16.860
19085TIP3   OH278745   2.564   0.400   2.345
19085TIP3    H178746   2.579   0.311   2.314
19085TIP3    H278747   2.619   0.454   2.288
19086TIP3   OH278748   0.826   6.819  11.556
19086TIP3    H178749   0.846   6.817  11.650
19086TIP3    H278750   0.910   6.807  11.513
19087TIP3   OH278751   0.572   3.527   4.134
19087TIP3    H178752   0.538   3.493   4.051
19087TIP3    H278753   0.617   3.608   4.110
19088TIP3   OH278754   1.179   4.207   1.197
19088TIP3    H178755   1.221   4.293   1.196
19088TIP3    H278756   1.235   4.152   1.143
19089TIP3   OH278757   0.899   2.757   0.448
19089TIP3    H178758   0.986   2.744   0.486
19089TIP3    H278759   0.907   2.835   0.394
19090TIP3   OH278760   5.539   3.461   0.845
19090TIP3    H178761   5.567   3.531   0.904
19090TIP3    H278762   5.613   3.399   0.844
19091TIP3   OH278763   2.287   5.558   4.484
19091TIP3    H178764   2.195   5.563   4.457
19091TIP3    H278765   2.291   5.608   4.566
19092TIP3   OH278766   6.314   4.066  12.653
19092TIP3    H178767   6.250   4.100  12.591
19092TIP3    H278768   6.373   4.140  12.670
19093TIP3   OH278769   5.235   3.119  12.677
19093TIP3    H178770   5.274   3.048  12.626
19093TIP3    H278771   5.227   3.084  12.766
19094TIP3   OH278772   2.208   1.829  16.486
19094TIP3    H178773   2.295   1.838  16.524
19094TIP3    H278774   2.160   1.773  16.547
19095TIP3   OH278775   5.767   1.886  15.537
19095TIP3    H178776   5.747   1.803  15.580
19095TIP3    H278777   5.689   1.907  15.486
19096TIP3   OH278778   6.684   3.432  16.534
19096TIP3    H178779   6.690   3.502  16.599
19096TIP3    H278780   6.731   3.358  16.573
19097TIP3   OH278781   1.488   0.881   5.483
19097TIP3    H178782   1.502   0.837   5.399
19097TIP3    H278783   1.433   0.956   5.462
19098TIP3   OH278784   3.229   5.472   2.006
19098TIP3    H178785   3.249   5.378   2.015
19098TIP3    H278786   3.291   5.515   2.064
19099TIP3   OH278787   0.395   3.481  11.045
19099TIP3    H178788   0.461   3.537  11.085
19099TIP3    H278789   0.425   3.469  10.955
19100TIP3   OH278790   1.738   0.818  12.010
19100TIP3    H178791   1.757   0.909  12.034
19100TIP3    H278792   1.810   0.768  12.049
19101TIP3   OH278793   3.672   1.679   2.453
19101TIP3    H178794   3.586   1.711   2.427
19101TIP3    H278795   3.725   1.686   2.374
19102TIP3   OH278796   5.259   3.696  17.229
19102TIP3    H178797   5.267   3.731  17.140
19102TIP3    H278798   5.278   3.603  17.220
19103TIP3   OH278799   3.017   3.258   0.407
19103TIP3    H178800   3.003   3.183   0.348
19103TIP3    H278801   3.001   3.223   0.494
19104TIP3   OH278802   6.529   6.148  14.411
19104TIP3    H178803   6.539   6.096  14.331
19104TIP3    H278804   6.618   6.171  14.436
19105TIP3   OH278805   2.086   3.208   6.525
19105TIP3    H178806   2.181   3.212   6.519
19105TIP3    H278807   2.066   3.115   6.522
19106TIP3   OH278808   2.962   3.468   0.202
19106TIP3    H178809   2.975   3.403   0.271
19106TIP3    H278810   3.038   3.526   0.208
19107TIP3   OH278811   4.644   4.153   2.151
19107TIP3    H178812   4.563   4.102   2.160
19107TIP3    H278813   4.614   4.238   2.119
19108TIP3   OH278814   4.143   1.074  12.358
19108TIP3    H178815   4.219   1.130  12.375
19108TIP3    H278816   4.069   1.135  12.355
19109TIP3   OH278817   3.002   1.994  11.995
19109TIP3    H178818   2.951   1.921  11.961
19109TIP3    H278819   3.058   1.955  12.062
19110TIP3   OH278820   2.332   4.849  10.158
19110TIP3    H178821   2.299   4.905  10.088
19110TIP3    H278822   2.385   4.783  10.114
19111TIP3   OH278823   3.317   2.930   1.038
19111TIP3    H178824   3.373   3.005   1.055
19111TIP3    H278825   3.344   2.865   1.103
19112TIP3   OH278826   6.589   1.516  13.208
19112TIP3    H178827   6.612   1.467  13.130
19112TIP3    H278828   6.673   1.531  13.253
19113TIP3   OH278829   5.627   0.356  11.631
19113TIP3    H178830   5.575   0.340  11.710
19113TIP3    H278831   5.703   0.405  11.662
19114TIP3   OH278832   3.043   3.695  11.099
19114TIP3    H178833   3.059   3.622  11.038
19114TIP3    H278834   3.048   3.655  11.186
19115TIP3   OH278835   6.794   6.686   0.120
19115TIP3    H178836   6.741   6.607   0.109
19115TIP3    H278837   6.854   6.685   0.046
19116TIP3   OH278838   3.462   6.290  15.197
19116TIP3    H178839   3.451   6.334  15.281
19116TIP3    H278840   3.453   6.197  15.217
19117TIP3   OH278841   4.197   5.564   4.285
19117TIP3    H178842   4.222   5.487   4.233
19117TIP3    H278843   4.271   5.624   4.275
19118TIP3   OH278844   4.392   4.929  13.381
19118TIP3    H178845   4.450   4.986  13.431
19118TIP3    H278846   4.359   4.866  13.445
19119TIP3   OH278847   2.573   4.705   5.687
19119TIP3    H178848   2.599   4.789   5.650
19119TIP3    H278849   2.643   4.682   5.747
19120TIP3   OH278850   5.250   5.085  13.927
19120TIP3    H178851   5.240   4.990  13.936
19120TIP3    H278852   5.316   5.096  13.858
19121TIP3   OH278853   2.190   4.760   3.798
19121TIP3    H178854   2.135   4.830   3.832
19121TIP3    H278855   2.276   4.775   3.838
19122TIP3   OH278856   3.399   3.013   1.681
19122TIP3    H178857   3.425   3.041   1.768
19122TIP3    H278858   3.334   3.078   1.653
19123TIP3   OH278859   1.207   6.407  16.673
19123TIP3    H178860   1.125   6.398  16.722
19123TIP3    H278861   1.193   6.355  16.593
19124TIP3   OH278862   3.547   1.928  16.455
19124TIP3    H178863   3.529   2.009  16.503
19124TIP3    H278864   3.643   1.923  16.453
19125TIP3   OH278865   0.277   4.912   4.009
19125TIP3    H178866   0.294   4.830   4.055
19125TIP3    H278867   0.318   4.901   3.923
19126TIP3   OH278868   1.510   2.879   5.718
19126TIP3    H178869   1.546   2.966   5.733
19126TIP3    H278870   1.501   2.872   5.623
19127TIP3   OH278871   4.503   2.394   0.961
19127TIP3    H178872   4.584   2.368   0.916
19127TIP3    H278873   4.474   2.314   1.005
19128TIP3   OH278874   5.527   4.667  13.390
19128TIP3    H178875   5.432   4.665  13.400
19128TIP3    H278876   5.541   4.714  13.308
19129TIP3   OH278877   3.675   6.445   5.391
19129TIP3    H178878   3.763   6.441   5.352
19129TIP3    H278879   3.691   6.440   5.486
19130TIP3   OH278880   2.356   3.833   2.618
19130TIP3    H178881   2.386   3.902   2.677
19130TIP3    H278882   2.349   3.876   2.533
19131TIP3   OH278883   1.167   3.756   1.778
19131TIP3    H178884   1.100   3.751   1.847
19131TIP3    H278885   1.248   3.729   1.821
19132TIP3   OH278886   4.834   4.229  13.532
19132TIP3    H178887   4.914   4.276  13.555
19132TIP3    H278888   4.841   4.146  13.579
19133TIP3   OH278889   5.288   4.507  16.919
19133TIP3    H178890   5.333   4.430  16.885
19133TIP3    H278891   5.287   4.494  17.014
19134TIP3   OH278892   3.972   6.463   1.427
19134TIP3    H178893   4.031   6.389   1.415
19134TIP3    H278894   3.974   6.481   1.521
19135TIP3   OH278895   3.425   4.446  16.256
19135TIP3    H178896   3.516   4.469  16.237
19135TIP3    H278897   3.374   4.505  16.202
19136TIP3   OH278898   4.550   6.449   3.372
19136TIP3    H178899   4.628   6.393   3.367
19136TIP3    H278900   4.496   6.409   3.440
19137TIP3   OH278901   3.790   5.155  12.040
19137TIP3    H178902   3.864   5.177  12.096
19137TIP3    H278903   3.829   5.118  11.961
19138TIP3   OH278904   1.835   1.983  16.599
19138TIP3    H178905   1.804   1.928  16.528
19138TIP3    H278906   1.880   1.923  16.659
19139TIP3   OH278907   1.274   3.419  16.584
19139TIP3    H178908   1.282   3.459  16.497
19139TIP3    H278909   1.212   3.476  16.630
19140TIP3   OH278910   0.819   1.785  13.130
19140TIP3    H178911   0.842   1.715  13.069
19140TIP3    H278912   0.778   1.852  13.075
19141TIP3   OH278913   4.368   6.015   0.971
19141TIP3    H178914   4.451   6.056   0.945
19141TIP3    H278915   4.310   6.089   0.989
19142TIP3   OH278916   0.690   6.472  14.565
19142TIP3    H178917   0.714   6.545  14.622
19142TIP3    H278918   0.639   6.512  14.494
19143TIP3   OH278919   4.503   4.364  16.914
19143TIP3    H178920   4.423   4.375  16.966
19143TIP3    H278921   4.551   4.295  16.960
19144TIP3   OH278922   4.868   2.961   1.987
19144TIP3    H178923   4.797   2.957   2.051
19144TIP3    H278924   4.880   3.055   1.970
19145TIP3   OH278925   2.716   2.707  12.047
19145TIP3    H178926   2.707   2.624  12.094
19145TIP3    H278927   2.748   2.769  12.114
19146TIP3   OH278928   6.121   0.466   2.692
19146TIP3    H178929   6.087   0.403   2.755
19146TIP3    H278930   6.204   0.497   2.730
19147TIP3   OH278931   0.431   2.549  15.731
19147TIP3    H178932   0.347   2.581  15.764
19147TIP3    H278933   0.434   2.579  15.640
19148TIP3   OH278934   3.898   5.111   2.213
19148TIP3    H178935   3.901   5.120   2.118
19148TIP3    H278936   3.857   5.025   2.227
19149TIP3   OH278937   6.045   0.822  13.199
19149TIP3    H178938   5.964   0.868  13.176
19149TIP3    H278939   6.113   0.889  13.192
19150TIP3   OH278940   0.243   3.347   0.582
19150TIP3    H178941   0.271   3.313   0.497
19150TIP3    H278942   0.168   3.293   0.606
19151TIP3   OH278943   4.808   5.812   2.031
19151TIP3    H178944   4.804   5.808   1.935
19151TIP3    H278945   4.901   5.820   2.051
19152TIP3   OH278946   0.096   0.523  12.759
19152TIP3    H178947   0.152   0.454  12.725
19152TIP3    H278948   0.008   0.484  12.760
19153TIP3   OH278949   0.618   6.411  12.262
19153TIP3    H178950   0.546   6.354  12.236
19153TIP3    H278951   0.577   6.482  12.311
19154TIP3   OH278952   0.747   6.559   4.772
19154TIP3    H178953   0.811   6.488   4.782
19154TIP3    H278954   0.671   6.516   4.734
19155TIP3   OH278955   2.740   0.441  13.320
19155TIP3    H178956   2.823   0.402  13.349
19155TIP3    H278957   2.675   0.372  13.333
19156TIP3   OH278958   4.360   6.384  15.592
19156TIP3    H178959   4.265   6.382  15.589
19156TIP3    H278960   4.382   6.335  15.672
19157TIP3   OH278961   1.956   0.291   1.140
19157TIP3    H178962   2.043   0.278   1.179
19157TIP3    H278963   1.959   0.380   1.105
19158TIP3   OH278964   4.455   3.292   4.214
19158TIP3    H178965   4.439   3.201   4.189
19158TIP3    H278966   4.389   3.342   4.165
19159TIP3   OH278967   1.789   2.584   6.209
19159TIP3    H178968   1.700   2.551   6.191
19159TIP3    H278969   1.779   2.680   6.208
19160TIP3   OH278970   3.827   0.208  11.652
19160TIP3    H178971   3.737   0.183  11.672
19160TIP3    H278972   3.865   0.130  11.611
19161TIP3   OH278973   0.383   0.889   4.783
19161TIP3    H178974   0.471   0.857   4.804
19161TIP3    H278975   0.337   0.813   4.747
19162TIP3   OH278976   6.071   1.127   3.794
19162TIP3    H178977   6.055   1.070   3.719
19162TIP3    H278978   5.989   1.124   3.844
19163TIP3   OH278979   5.413   3.587  12.510
19163TIP3    H178980   5.354   3.623  12.444
19163TIP3    H278981   5.355   3.563  12.583
19164TIP3   OH278982   6.553   0.574  13.256
19164TIP3    H178983   6.553   0.501  13.194
19164TIP3    H278984   6.511   0.646  13.209
19165TIP3   OH278985   2.613   4.872   4.335
19165TIP3    H178986   2.550   4.909   4.396
19165TIP3    H278987   2.586   4.905   4.249
19166TIP3   OH278988   2.798   4.294   2.191
19166TIP3    H178989   2.820   4.384   2.215
19166TIP3    H278990   2.726   4.270   2.249
19167TIP3   OH278991   6.411   3.222  13.686
19167TIP3    H178992   6.506   3.227  13.695
19167TIP3    H278993   6.396   3.188  13.598
19168TIP3   OH278994   0.293   4.234  14.179
19168TIP3    H178995   0.232   4.166  14.151
19168TIP3    H278996   0.358   4.188  14.232
19169TIP3   OH278997   1.494   0.409  12.881
19169TIP3    H178998   1.512   0.455  12.964
19169TIP3    H278999   1.529   0.467  12.814
19170TIP3   OH279000   1.163   3.071   4.491
19170TIP3    H179001   1.078   3.026   4.492
19170TIP3    H279002   1.144   3.157   4.452
19171TIP3   OH279003   2.102   2.466   5.568
19171TIP3    H179004   2.034   2.443   5.632
19171TIP3    H279005   2.119   2.559   5.583
19172TIP3   OH279006   4.717   1.202  12.376
19172TIP3    H179007   4.795   1.179  12.426
19172TIP3    H279008   4.645   1.160  12.423
19173TIP3   OH279009   5.607   2.596   1.845
19173TIP3    H179010   5.669   2.616   1.774
19173TIP3    H279011   5.596   2.501   1.841
19174TIP3   OH279012   4.854   1.143   2.149
19174TIP3    H179013   4.763   1.147   2.120
19174TIP3    H279014   4.904   1.178   2.075
19175TIP3   OH279015   5.379   0.699  12.191
19175TIP3    H179016   5.474   0.694  12.203
19175TIP3    H279017   5.364   0.785  12.152
19176TIP3   OH279018   3.425   1.118  17.005
19176TIP3    H179019   3.421   1.045  16.943
19176TIP3    H279020   3.370   1.089  17.078
19177TIP3   OH279021   4.561   5.409   0.204
19177TIP3    H179022   4.504   5.333   0.213
19177TIP3    H279023   4.548   5.439   0.114
19178TIP3   OH279024   4.642   1.319   3.966
19178TIP3    H179025   4.607   1.245   3.917
19178TIP3    H279026   4.567   1.353   4.015
19179TIP3   OH279027   6.173   3.631  14.334
19179TIP3    H179028   6.254   3.580  14.334
19179TIP3    H279029   6.149   3.638  14.242
19180TIP3   OH279030   0.160   5.918   2.117
19180TIP3    H179031   0.088   5.856   2.103
19180TIP3    H279032   0.231   5.864   2.152
19181TIP3   OH279033   2.706   1.537  17.184
19181TIP3    H179034   2.721   1.495  17.268
19181TIP3    H279035   2.789   1.527  17.136
19182TIP3   OH279036   0.945   6.212   4.417
19182TIP3    H179037   1.030   6.221   4.374
19182TIP3    H279038   0.884   6.259   4.361
19183TIP3   OH279039   1.008   2.204   1.690
19183TIP3    H179040   1.022   2.134   1.754
19183TIP3    H279041   1.084   2.201   1.633
19184TIP3   OH279042   4.894   3.894   5.876
19184TIP3    H179043   4.837   3.830   5.833
19184TIP3    H279044   4.839   3.971   5.887
19185TIP3   OH279045   2.209   5.771  12.984
19185TIP3    H179046   2.296   5.759  12.946
19185TIP3    H279047   2.209   5.862  13.015
19186TIP3   OH279048   2.357   3.406   5.886
19186TIP3    H179049   2.324   3.358   5.962
19186TIP3    H279050   2.280   3.450   5.850
19187TIP3   OH279051   6.333   1.489  13.390
19187TIP3    H179052   6.285   1.572  13.386
19187TIP3    H279053   6.397   1.495  13.319
19188TIP3   OH279054   5.183   2.767  14.281
19188TIP3    H179055   5.215   2.677  14.286
19188TIP3    H279056   5.247   2.812  14.226
19189TIP3   OH279057   2.714   6.634  11.227
19189TIP3    H179058   2.633   6.649  11.178
19189TIP3    H279059   2.760   6.566  11.177
19190TIP3   OH279060   6.625   3.443  14.132
19190TIP3    H179061   6.671   3.412  14.210
19190TIP3    H279062   6.658   3.532  14.119
19191TIP3   OH279063   5.395   3.112   3.744
19191TIP3    H179064   5.474   3.060   3.729
19191TIP3    H279065   5.338   3.056   3.797
19192TIP3   OH279066   0.396   6.791  11.142
19192TIP3    H179067   0.449   6.870  11.150
19192TIP3    H279068   0.319   6.818  11.092
19193TIP3   OH279069   0.718   2.678  12.278
19193TIP3    H179070   0.773   2.611  12.237
19193TIP3    H279071   0.770   2.758  12.274
19194TIP3   OH279072   0.511   4.198  15.712
19194TIP3    H179073   0.582   4.263  15.713
19194TIP3    H279074   0.432   4.249  15.699
19195TIP3   OH279075   0.177   0.350   4.688
19195TIP3    H179076   0.145   0.345   4.779
19195TIP3    H279077   0.154   0.266   4.650
19196TIP3   OH279078   0.901   4.202  15.995
19196TIP3    H179079   0.827   4.246  16.036
19196TIP3    H279080   0.941   4.269  15.939
19197TIP3   OH279081   3.834   5.241  13.840
19197TIP3    H179082   3.781   5.164  13.823
19197TIP3    H279083   3.798   5.309  13.784
19198TIP3   OH279084   6.418   2.516   2.205
19198TIP3    H179085   6.497   2.534   2.154
19198TIP3    H279086   6.346   2.545   2.149
19199TIP3   OH279087   1.783   5.018  14.479
19199TIP3    H179088   1.740   5.011  14.394
19199TIP3    H279089   1.869   4.977  14.465
19200TIP3   OH279090   4.404   3.621   3.033
19200TIP3    H179091   4.473   3.582   3.087
19200TIP3    H279092   4.434   3.610   2.943
19201TIP3   OH279093   3.095   3.298  14.114
19201TIP3    H179094   3.030   3.333  14.054
19201TIP3    H279095   3.046   3.275  14.193
19202TIP3   OH279096   6.374   0.624   2.546
19202TIP3    H179097   6.338   0.583   2.625
19202TIP3    H279098   6.468   0.605   2.550
19203TIP3   OH279099   2.103   1.759   5.809
19203TIP3    H179100   2.070   1.820   5.743
19203TIP3    H279101   2.145   1.815   5.874
19204TIP3   OH279102   1.044   1.440  11.972
19204TIP3    H179103   0.975   1.438  11.906
19204TIP3    H279104   1.050   1.350  12.004
19205TIP3   OH279105   4.311   0.629  10.964
19205TIP3    H179106   4.268   0.714  10.954
19205TIP3    H279107   4.263   0.571  10.905
19206TIP3   OH279108   3.696   5.899   4.143
19206TIP3    H179109   3.763   5.957   4.182
19206TIP3    H279110   3.722   5.811   4.170
19207TIP3   OH279111   4.092   0.068   1.371
19207TIP3    H179112   4.088  -0.015   1.324
19207TIP3    H279113   4.044   0.129   1.315
19208TIP3   OH279114   1.264   3.045   2.157
19208TIP3    H179115   1.263   2.949   2.151
19208TIP3    H279116   1.228   3.074   2.074
19209TIP3   OH279117   1.393   2.188   2.302
19209TIP3    H179118   1.402   2.095   2.319
19209TIP3    H279119   1.478   2.214   2.265
19210TIP3   OH279120   3.534   4.797  15.120
19210TIP3    H179121   3.545   4.861  15.191
19210TIP3    H279122   3.563   4.715  15.158
19211TIP3   OH279123   1.059   1.616  15.811
19211TIP3    H179124   1.047   1.637  15.904
19211TIP3    H279125   1.037   1.697  15.766
19212TIP3   OH279126   6.498   1.872  11.687
19212TIP3    H179127   6.446   1.907  11.760
19212TIP3    H279128   6.492   1.777  11.698
19213TIP3   OH279129   1.648   2.609   0.376
19213TIP3    H179130   1.615   2.546   0.441
19213TIP3    H279131   1.741   2.618   0.398
19214TIP3   OH279132   5.586   1.450  11.699
19214TIP3    H179133   5.673   1.476  11.728
19214TIP3    H279134   5.532   1.451  11.778
19215TIP3   OH279135   1.117   6.762  11.947
19215TIP3    H179136   1.157   6.760  11.860
19215TIP3    H279137   1.158   6.689  11.994
19216TIP3   OH279138   4.640   2.596  14.116
19216TIP3    H179139   4.593   2.513  14.117
19216TIP3    H279140   4.583   2.655  14.066
19217TIP3   OH279141   2.500   5.450  12.033
19217TIP3    H179142   2.513   5.373  11.978
19217TIP3    H279143   2.581   5.500  12.024
19218TIP3   OH279144   3.063   6.810   4.668
19218TIP3    H179145   3.092   6.723   4.697
19218TIP3    H279146   3.078   6.810   4.574
19219TIP3   OH279147   5.274   1.076  11.045
19219TIP3    H179148   5.286   1.163  11.007
19219TIP3    H279149   5.218   1.030  10.983
19220TIP3   OH279150   1.135   3.090   1.101
19220TIP3    H179151   1.125   3.144   1.180
19220TIP3    H279152   1.130   3.152   1.028
19221TIP3   OH279153   2.508   0.832  13.767
19221TIP3    H179154   2.501   0.860  13.858
19221TIP3    H279155   2.536   0.910  13.720
19222TIP3   OH279156   6.114   3.010   5.445
19222TIP3    H179157   6.023   3.040   5.443
19222TIP3    H279158   6.111   2.929   5.496
19223TIP3   OH279159   5.336   0.806   5.252
19223TIP3    H179160   5.382   0.793   5.169
19223TIP3    H279161   5.405   0.814   5.317
19224TIP3   OH279162   2.869   1.112   1.706
19224TIP3    H179163   2.879   1.133   1.613
19224TIP3    H279164   2.894   1.020   1.713
19225TIP3   OH279165   0.054   5.237  12.885
19225TIP3    H179166   0.096   5.170  12.940
19225TIP3    H279167   0.108   5.240  12.806
19226TIP3   OH279168   1.912   5.986   0.738
19226TIP3    H179169   1.847   6.030   0.794
19226TIP3    H279170   1.913   6.038   0.658
19227TIP3   OH279171   0.971   0.873   0.644
19227TIP3    H179172   1.066   0.878   0.657
19227TIP3    H279173   0.961   0.841   0.554
19228TIP3   OH279174   1.926   2.101  15.681
19228TIP3    H179175   2.021   2.108  15.671
19228TIP3    H279176   1.914   2.048  15.759
19229TIP3   OH279177   2.230   2.518   5.869
19229TIP3    H179178   2.276   2.536   5.951
19229TIP3    H279179   2.137   2.527   5.891
19230TIP3   OH279180   3.881   6.237  15.393
19230TIP3    H179181   3.941   6.220  15.321
19230TIP3    H279182   3.888   6.331  15.409
19231TIP3   OH279183   4.966   4.461   3.158
19231TIP3    H179184   4.897   4.522   3.182
19231TIP3    H279185   4.960   4.454   3.063
19232TIP3   OH279186   5.106   2.501  10.293
19232TIP3    H179187   5.182   2.450  10.266
19232TIP3    H279188   5.032   2.458  10.251
19233TIP3   OH279189   6.218   5.819   4.693
19233TIP3    H179190   6.256   5.904   4.715
19233TIP3    H279191   6.208   5.774   4.778
19234TIP3   OH279192   0.793   1.820   2.994
19234TIP3    H179193   0.728   1.764   3.036
19234TIP3    H279194   0.871   1.811   3.048
19235TIP3   OH279195   6.638   4.214  11.898
19235TIP3    H179196   6.560   4.184  11.852
19235TIP3    H279197   6.623   4.307  11.915
19236TIP3   OH279198   3.960   0.900   5.785
19236TIP3    H179199   3.958   0.847   5.866
19236TIP3    H279200   3.934   0.839   5.717
19237TIP3   OH279201   0.526   4.321  12.283
19237TIP3    H179202   0.508   4.415  12.290
19237TIP3    H279203   0.465   4.280  12.344
19238TIP3   OH279204   4.650   6.312   2.391
19238TIP3    H179205   4.603   6.346   2.467
19238TIP3    H279206   4.732   6.277   2.426
19239TIP3   OH279207   1.935   1.413  17.184
19239TIP3    H179208   1.927   1.336  17.240
19239TIP3    H279209   2.000   1.388  17.118
19240TIP3   OH279210   0.804   4.925   6.010
19240TIP3    H179211   0.759   5.004   6.042
19240TIP3    H279212   0.853   4.955   5.934
19241TIP3   OH279213   6.733   0.882   2.913
19241TIP3    H179214   6.826   0.859   2.913
19241TIP3    H279215   6.722   0.937   2.836
19242TIP3   OH279216   5.670   0.092   3.405
19242TIP3    H179217   5.714   0.017   3.445
19242TIP3    H279218   5.599   0.114   3.465
19243TIP3   OH279219   4.889   4.272   4.840
19243TIP3    H179220   4.852   4.342   4.893
19243TIP3    H279221   4.843   4.277   4.757
19244TIP3   OH279222   3.632   2.546   5.203
19244TIP3    H179223   3.637   2.460   5.161
19244TIP3    H279224   3.721   2.579   5.202
19245TIP3   OH279225   6.511   3.610   3.834
19245TIP3    H179226   6.509   3.527   3.786
19245TIP3    H279227   6.599   3.613   3.873
19246TIP3   OH279228   0.633   4.376  17.008
19246TIP3    H179229   0.591   4.363  16.923
19246TIP3    H279230   0.685   4.456  16.997
19247TIP3   OH279231   3.941   3.312  14.554
19247TIP3    H179232   3.866   3.352  14.510
19247TIP3    H279233   4.017   3.355  14.515
19248TIP3   OH279234   2.204   6.288  16.223
19248TIP3    H179235   2.247   6.282  16.308
19248TIP3    H279236   2.276   6.302  16.161
19249TIP3   OH279237   5.802   3.972  15.750
19249TIP3    H179238   5.840   3.911  15.814
19249TIP3    H279239   5.874   4.032  15.729
19250TIP3   OH279240   3.460   5.810   3.380
19250TIP3    H179241   3.506   5.786   3.300
19250TIP3    H279242   3.505   5.761   3.449
19251TIP3   OH279243   1.028   1.432  15.117
19251TIP3    H179244   1.059   1.396  15.034
19251TIP3    H279245   1.054   1.524  15.114
19252TIP3   OH279246   3.369   5.797  14.394
19252TIP3    H179247   3.385   5.798  14.300
19252TIP3    H279248   3.313   5.873  14.409
19253TIP3   OH279249   2.947   3.149  16.006
19253TIP3    H179250   2.864   3.147  15.959
19253TIP3    H279251   2.937   3.085  16.076
19254TIP3   OH279252   6.299   1.460   3.223
19254TIP3    H179253   6.395   1.467   3.230
19254TIP3    H279254   6.267   1.491   3.308
19255TIP3   OH279255   3.369   6.137   1.437
19255TIP3    H179256   3.285   6.093   1.452
19255TIP3    H279257   3.426   6.104   1.506
19256TIP3   OH279258   1.398   5.818  14.885
19256TIP3    H179259   1.465   5.842  14.949
19256TIP3    H279260   1.336   5.764  14.934
19257TIP3   OH279261   0.140   5.660  13.114
19257TIP3    H179262   0.166   5.642  13.204
19257TIP3    H279263   0.046   5.644  13.111
19258TIP3   OH279264   5.582   2.353   1.610
19258TIP3    H179265   5.576   2.448   1.611
19258TIP3    H279266   5.648   2.334   1.543
19259TIP3   OH279267   3.816   5.937  16.470
19259TIP3    H179268   3.860   6.007  16.518
19259TIP3    H279269   3.728   5.933  16.508
19260TIP3   OH279270   3.471   6.442   5.041
19260TIP3    H179271   3.503   6.532   5.054
19260TIP3    H279272   3.456   6.409   5.129
19261TIP3   OH279273   2.035   2.727   2.192
19261TIP3    H179274   2.074   2.801   2.144
19261TIP3    H279275   2.007   2.765   2.275
19262TIP3   OH279276   5.990   0.799   5.553
19262TIP3    H179277   6.068   0.745   5.565
19262TIP3    H279278   5.939   0.783   5.633
19263TIP3   OH279279   3.965   3.387   2.819
19263TIP3    H179280   3.914   3.451   2.769
19263TIP3    H279281   4.032   3.440   2.863
19264TIP3   OH279282   6.478   5.536   6.016
19264TIP3    H179283   6.423   5.473   5.970
19264TIP3    H279284   6.442   5.622   5.990
19265TIP3   OH279285   6.019   2.703  12.452
19265TIP3    H179286   6.034   2.704  12.357
19265TIP3    H279287   6.091   2.651  12.487
19266TIP3   OH279288   4.610   1.417  13.913
19266TIP3    H179289   4.564   1.336  13.934
19266TIP3    H279290   4.549   1.486  13.939
19267TIP3   OH279291   2.028   5.472   2.042
19267TIP3    H179292   1.942   5.430   2.042
19267TIP3    H279293   2.009   5.564   2.060
19268TIP3   OH279294   0.692   3.007   2.454
19268TIP3    H179295   0.704   3.066   2.379
19268TIP3    H279296   0.598   3.014   2.474
19269TIP3   OH279297   2.540   0.801  11.752
19269TIP3    H179298   2.623   0.764  11.723
19269TIP3    H279299   2.542   0.795  11.848
19270TIP3   OH279300   1.725   2.188  15.533
19270TIP3    H179301   1.712   2.094  15.546
19270TIP3    H279302   1.807   2.208  15.579
19271TIP3   OH279303   0.147   3.099  14.999
19271TIP3    H179304   0.171   3.170  14.939
19271TIP3    H279305   0.172   3.132  15.086
19272TIP3   OH279306   1.147   4.176  13.373
19272TIP3    H179307   1.069   4.141  13.415
19272TIP3    H279308   1.114   4.224  13.297
19273TIP3   OH279309   6.142   3.713   2.716
19273TIP3    H179310   6.084   3.778   2.677
19273TIP3    H279311   6.216   3.764   2.750
19274TIP3   OH279312   6.498   1.630   4.418
19274TIP3    H179313   6.554   1.558   4.446
19274TIP3    H279314   6.551   1.708   4.431
19275TIP3   OH279315   3.880   1.322   1.707
19275TIP3    H179316   3.929   1.241   1.691
19275TIP3    H279317   3.803   1.295   1.756
19276TIP3   OH279318   3.251   0.469  15.070
19276TIP3    H179319   3.323   0.528  15.047
19276TIP3    H279320   3.199   0.518  15.134
19277TIP3   OH279321   6.294   2.095   0.450
19277TIP3    H179322   6.202   2.096   0.424
19277TIP3    H279323   6.322   2.004   0.437
19278TIP3   OH279324   3.710   6.223   2.948
19278TIP3    H179325   3.802   6.210   2.928
19278TIP3    H279326   3.698   6.187   3.036
19279TIP3   OH279327   3.580   4.885  16.655
19279TIP3    H179328   3.543   4.847  16.734
19279TIP3    H279329   3.673   4.861  16.658
19280TIP3   OH279330   2.084   4.046   4.679
19280TIP3    H179331   2.147   4.059   4.749
19280TIP3    H279332   2.000   4.036   4.724
19281TIP3   OH279333   5.144   1.207   3.219
19281TIP3    H179334   5.127   1.292   3.178
19281TIP3    H279335   5.161   1.148   3.146
19282TIP3   OH279336   2.106   0.726  13.675
19282TIP3    H179337   2.036   0.737  13.612
19282TIP3    H279338   2.090   0.641  13.716
19283TIP3   OH279339   1.861   4.678  14.605
19283TIP3    H179340   1.827   4.687  14.516
19283TIP3    H279341   1.955   4.666  14.594
19284TIP3   OH279342   1.306   1.313   4.265
19284TIP3    H179343   1.264   1.380   4.320
19284TIP3    H279344   1.379   1.359   4.224
19285TIP3   OH279345   5.343   5.390  13.795
19285TIP3    H179346   5.363   5.337  13.718
19285TIP3    H279347   5.391   5.348  13.866
19286TIP3   OH279348   2.335   0.353  10.601
19286TIP3    H179349   2.420   0.348  10.557
19286TIP3    H279350   2.292   0.428  10.561
19287TIP3   OH279351   6.373   5.702  15.593
19287TIP3    H179352   6.311   5.639  15.556
19287TIP3    H279353   6.388   5.672  15.683
19288TIP3   OH279354   5.131   5.022   1.700
19288TIP3    H179355   5.211   4.971   1.698
19288TIP3    H279356   5.157   5.106   1.737
19289TIP3   OH279357   3.123   5.506  15.134
19289TIP3    H179358   3.158   5.421  15.159
19289TIP3    H279359   3.129   5.508  15.039
19290TIP3   OH279360   2.012   3.807  11.504
19290TIP3    H179361   1.997   3.778  11.414
19290TIP3    H279362   1.968   3.891  11.510
19291TIP3   OH279363   5.991   1.773   5.493
19291TIP3    H179364   5.987   1.710   5.565
19291TIP3    H279365   5.939   1.847   5.525
19292TIP3   OH279366   5.767   4.688   1.206
19292TIP3    H179367   5.743   4.601   1.237
19292TIP3    H279368   5.758   4.683   1.110
19293TIP3   OH279369   5.193   0.193  15.965
19293TIP3    H179370   5.240   0.118  15.930
19293TIP3    H279371   5.261   0.253  15.995
19294TIP3   OH279372   3.156   3.706   5.977
19294TIP3    H179373   3.121   3.782   6.023
19294TIP3    H279374   3.225   3.673   6.034
19295TIP3   OH279375   6.607   4.603   1.557
19295TIP3    H179376   6.528   4.583   1.508
19295TIP3    H279377   6.604   4.546   1.634
19296TIP3   OH279378   1.836   0.877  15.533
19296TIP3    H179379   1.817   0.969  15.551
19296TIP3    H279380   1.762   0.830  15.571
19297TIP3   OH279381   6.032   6.727  16.339
19297TIP3    H179382   6.043   6.697  16.429
19297TIP3    H279383   5.943   6.701  16.315
19298TIP3   OH279384   4.114   3.116   1.963
19298TIP3    H179385   4.132   3.181   1.895
19298TIP3    H279386   4.162   3.038   1.935
19299TIP3   OH279387   2.333   1.804   6.245
19299TIP3    H179388   2.279   1.728   6.267
19299TIP3    H279389   2.286   1.846   6.172
19300TIP3   OH279390   1.927   4.990  13.444
19300TIP3    H179391   1.935   4.956  13.355
19300TIP3    H279392   1.912   5.084  13.433
19301TIP3   OH279393   2.094   3.886   5.704
19301TIP3    H179394   2.041   3.886   5.784
19301TIP3    H279395   2.128   3.976   5.698
19302TIP3   OH279396   2.464   0.578   5.442
19302TIP3    H179397   2.525   0.536   5.381
19302TIP3    H279398   2.453   0.667   5.407
19303TIP3   OH279399   3.729   2.657   2.935
19303TIP3    H179400   3.704   2.723   2.999
19303TIP3    H279401   3.819   2.634   2.958
19304TIP3   OH279402   6.375   0.688  13.590
19304TIP3    H179403   6.359   0.675  13.497
19304TIP3    H279404   6.352   0.779  13.606
19305TIP3   OH279405   5.002   6.089   3.146
19305TIP3    H179406   5.019   5.998   3.121
19305TIP3    H279407   5.078   6.138   3.114
19306TIP3   OH279408   2.383   2.327  13.081
19306TIP3    H179409   2.365   2.421  13.093
19306TIP3    H279410   2.418   2.321  12.992
19307TIP3   OH279411   6.709   6.278   4.135
19307TIP3    H179412   6.734   6.186   4.124
19307TIP3    H279413   6.734   6.299   4.225
19308TIP3   OH279414   1.750   1.187  11.576
19308TIP3    H179415   1.785   1.178  11.487
19308TIP3    H279416   1.705   1.104  11.592
19309TIP3   OH279417   4.705   3.954  13.598
19309TIP3    H179418   4.640   3.949  13.527
19309TIP3    H279419   4.682   3.881  13.656
19310TIP3   OH279420   2.242   0.371  17.021
19310TIP3    H179421   2.283   0.448  17.061
19310TIP3    H279422   2.161   0.358  17.070
19311TIP3   OH279423   5.080   0.167   1.436
19311TIP3    H179424   5.105   0.205   1.521
19311TIP3    H279425   4.994   0.205   1.417
19312TIP3   OH279426   5.358   5.128  13.443
19312TIP3    H179427   5.440   5.083  13.425
19312TIP3    H279428   5.294   5.057  13.454
19313TIP3   OH279429   0.146   1.237   5.628
19313TIP3    H179430   0.183   1.171   5.687
19313TIP3    H279431   0.215   1.303   5.621
19314TIP3   OH279432   1.237   4.469  11.640
19314TIP3    H179433   1.235   4.504  11.551
19314TIP3    H279434   1.224   4.375  11.630
19315TIP3   OH279435   3.354   1.273  14.335
19315TIP3    H179436   3.351   1.183  14.369
19315TIP3    H279437   3.303   1.269  14.254
19316TIP3   OH279438   5.537   3.270  11.305
19316TIP3    H179439   5.561   3.263  11.397
19316TIP3    H279440   5.617   3.300  11.261
19317TIP3   OH279441   0.626   3.764   0.390
19317TIP3    H179442   0.678   3.800   0.461
19317TIP3    H279443   0.669   3.681   0.367
19318TIP3   OH279444   3.021   4.826  11.552
19318TIP3    H179445   3.045   4.739  11.521
19318TIP3    H279446   2.930   4.837  11.523
19319TIP3   OH279447   2.709   4.772   4.764
19319TIP3    H179448   2.661   4.738   4.839
19319TIP3    H279449   2.692   4.708   4.694
19320TIP3   OH279450   2.940   2.928  13.925
19320TIP3    H179451   2.864   2.986  13.924
19320TIP3    H279452   3.013   2.985  13.897
19321TIP3   OH279453   0.330   5.301   5.221
19321TIP3    H179454   0.249   5.294   5.272
19321TIP3    H279455   0.359   5.210   5.211
19322TIP3   OH279456   5.881   1.015  17.024
19322TIP3    H179457   5.880   0.947  17.090
19322TIP3    H279458   5.881   1.097  17.073
19323TIP3   OH279459   5.457   6.192   4.232
19323TIP3    H179460   5.375   6.191   4.282
19323TIP3    H279461   5.516   6.246   4.284
19324TIP3   OH279462   3.725   5.325   2.276
19324TIP3    H179463   3.644   5.274   2.277
19324TIP3    H279464   3.794   5.262   2.254
19325TIP3   OH279465   2.245   1.160   5.367
19325TIP3    H179466   2.247   1.115   5.451
19325TIP3    H279467   2.333   1.193   5.355
19326TIP3   OH279468   1.295   4.276   1.780
19326TIP3    H179469   1.200   4.291   1.780
19326TIP3    H279470   1.312   4.231   1.863
19327TIP3   OH279471   1.951   5.529  16.703
19327TIP3    H179472   1.929   5.521  16.796
19327TIP3    H279473   1.999   5.449  16.683
19328TIP3   OH279474   0.220   5.015  16.025
19328TIP3    H179475   0.140   5.062  16.002
19328TIP3    H279476   0.198   4.923  16.014
19329TIP3   OH279477   4.558   2.946   0.486
19329TIP3    H179478   4.488   2.997   0.527
19329TIP3    H279479   4.552   2.967   0.393
19330TIP3   OH279480   4.811   4.614  11.605
19330TIP3    H179481   4.764   4.648  11.529
19330TIP3    H279482   4.850   4.532  11.575
19331TIP3   OH279483   4.518   0.102  14.134
19331TIP3    H179484   4.603   0.061  14.152
19331TIP3    H279485   4.509   0.168  14.202
19332TIP3   OH279486   2.207   1.330   1.869
19332TIP3    H179487   2.277   1.375   1.821
19332TIP3    H279488   2.233   1.338   1.961
19333TIP3   OH279489   2.004   4.150  16.075
19333TIP3    H179490   2.012   4.095  15.997
19333TIP3    H279491   1.930   4.208  16.056
19334TIP3   OH279492   6.053   1.253  13.688
19334TIP3    H179493   6.052   1.186  13.757
19334TIP3    H279494   6.010   1.329  13.727
19335TIP3   OH279495   0.932   1.962  14.365
19335TIP3    H179496   0.934   2.030  14.433
19335TIP3    H279497   0.842   1.932  14.364
19336TIP3   OH279498   2.102   2.438   3.711
19336TIP3    H179499   2.085   2.458   3.618
19336TIP3    H279500   2.087   2.521   3.756
19337TIP3   OH279501   3.201   2.992  10.634
19337TIP3    H179502   3.144   2.953  10.700
19337TIP3    H279503   3.178   3.085  10.635
19338TIP3   OH279504   3.883   1.169  13.111
19338TIP3    H179505   3.881   1.265  13.112
19338TIP3    H279506   3.798   1.143  13.146
19339TIP3   OH279507   2.299   4.297   2.966
19339TIP3    H179508   2.261   4.253   3.042
19339TIP3    H279509   2.393   4.290   2.978
19340TIP3   OH279510   3.650   1.231  16.562
19340TIP3    H179511   3.623   1.194  16.478
19340TIP3    H279512   3.579   1.289  16.587
19341TIP3   OH279513   6.804   3.505   3.985
19341TIP3    H179514   6.899   3.498   3.975
19341TIP3    H279515   6.786   3.598   3.972
19342TIP3   OH279516   6.649   6.733   5.413
19342TIP3    H179517   6.732   6.736   5.366
19342TIP3    H279518   6.585   6.769   5.352
19343TIP3   OH279519   2.494   4.331  11.200
19343TIP3    H179520   2.547   4.377  11.265
19343TIP3    H279521   2.541   4.248  11.187
19344TIP3   OH279522   4.275   5.837  15.003
19344TIP3    H179523   4.325   5.790  15.070
19344TIP3    H279524   4.330   5.911  14.980
19345TIP3   OH279525   3.050   0.650  15.213
19345TIP3    H179526   3.055   0.617  15.302
19345TIP3    H279527   2.994   0.588  15.167
19346TIP3   OH279528   4.803   3.648  15.653
19346TIP3    H179529   4.861   3.714  15.613
19346TIP3    H279530   4.790   3.680  15.742
19347TIP3   OH279531   4.951   2.014   6.146
19347TIP3    H179532   4.918   2.086   6.092
19347TIP3    H279533   4.943   2.046   6.236
19348TIP3   OH279534   1.538   3.066   0.795
19348TIP3    H179535   1.633   3.056   0.809
19348TIP3    H279536   1.524   3.161   0.805
19349TIP3   OH279537   1.665   3.855   4.644
19349TIP3    H179538   1.728   3.850   4.573
19349TIP3    H279539   1.691   3.785   4.704
19350TIP3   OH279540   1.821   0.817  14.287
19350TIP3    H179541   1.894   0.858  14.241
19350TIP3    H279542   1.802   0.875  14.360
19351TIP3   OH279543   0.446   0.157  16.466
19351TIP3    H179544   0.458   0.190  16.377
19351TIP3    H279545   0.475   0.229  16.522
19352TIP3   OH279546   1.634   2.057  15.281
19352TIP3    H179547   1.644   2.117  15.355
19352TIP3    H279548   1.601   1.976  15.320
19353TIP3   OH279549   6.186   3.632  11.152
19353TIP3    H179550   6.172   3.626  11.057
19353TIP3    H279551   6.279   3.613  11.164
19354TIP3   OH279552   5.970   3.921   3.663
19354TIP3    H179553   6.000   3.915   3.573
19354TIP3    H279554   5.875   3.929   3.656
19355TIP3   OH279555   1.881   1.696   0.618
19355TIP3    H179556   1.861   1.671   0.527
19355TIP3    H279557   1.803   1.744   0.647
19356TIP3   OH279558   0.570   1.554  11.949
19356TIP3    H179559   0.550   1.474  11.997
19356TIP3    H279560   0.505   1.617  11.978
19357TIP3   OH279561   5.004   3.357  10.344
19357TIP3    H179562   5.015   3.265  10.321
19357TIP3    H279563   4.920   3.360  10.390
19358TIP3   OH279564   2.157   2.661   0.353
19358TIP3    H179565   2.179   2.660   0.446
19358TIP3    H279566   2.211   2.591   0.315
19359TIP3   OH279567   3.109   3.148  13.889
19359TIP3    H179568   3.023   3.179  13.863
19359TIP3    H279569   3.127   3.193  13.972
19360TIP3   OH279570   3.914   2.064   3.705
19360TIP3    H179571   3.933   2.104   3.621
19360TIP3    H279572   3.832   2.016   3.690
19361TIP3   OH279573   4.697   3.930   5.589
19361TIP3    H179574   4.789   3.915   5.568
19361TIP3    H279575   4.672   3.855   5.643
19362TIP3   OH279576   0.744   6.383   5.847
19362TIP3    H179577   0.818   6.432   5.811
19362TIP3    H279578   0.667   6.433   5.820
19363TIP3   OH279579   1.821   1.626  15.144
19363TIP3    H179580   1.797   1.643  15.235
19363TIP3    H279581   1.753   1.669  15.092
19364TIP3   OH279582   6.089   2.194   1.382
19364TIP3    H179583   6.115   2.114   1.335
19364TIP3    H279584   6.144   2.194   1.460
19365TIP3   OH279585   2.335   1.634   1.513
19365TIP3    H179586   2.403   1.680   1.464
19365TIP3    H279587   2.304   1.699   1.577
19366TIP3   OH279588   3.934   4.305   3.451
19366TIP3    H179589   4.006   4.342   3.400
19366TIP3    H279590   3.933   4.213   3.427
19367TIP3   OH279591   0.653   2.278  12.086
19367TIP3    H179592   0.619   2.367  12.083
19367TIP3    H279593   0.581   2.226  12.122
19368TIP3   OH279594   2.809   2.860   1.962
19368TIP3    H179595   2.763   2.943   1.973
19368TIP3    H279596   2.892   2.871   2.009
19369TIP3   OH279597   4.310   4.500  13.243
19369TIP3    H179598   4.249   4.514  13.315
19369TIP3    H279599   4.288   4.413  13.210
19370TIP3   OH279600   0.732   0.300  13.358
19370TIP3    H179601   0.671   0.373  13.346
19370TIP3    H279602   0.762   0.279  13.269
19371TIP3   OH279603   2.158   3.525  12.860
19371TIP3    H179604   2.199   3.598  12.905
19371TIP3    H279605   2.096   3.489  12.924
19372TIP3   OH279606   0.613   1.802  12.258
19372TIP3    H179607   0.696   1.754  12.255
19372TIP3    H279608   0.546   1.734  12.262
19373TIP3   OH279609   2.867   5.827   1.789
19373TIP3    H179610   2.833   5.911   1.822
19373TIP3    H279611   2.935   5.803   1.852
19374TIP3   OH279612   4.507   1.482   2.142
19374TIP3    H179613   4.545   1.536   2.212
19374TIP3    H279614   4.431   1.531   2.113
19375TIP3   OH279615   0.333   6.523   2.968
19375TIP3    H179616   0.358   6.615   2.966
19375TIP3    H279617   0.325   6.502   3.062
19376TIP3   OH279618   2.338   1.233   3.725
19376TIP3    H179619   2.402   1.175   3.684
19376TIP3    H279620   2.374   1.249   3.813
19377TIP3   OH279621   0.010   1.600  17.028
19377TIP3    H179622   0.071   1.619  17.099
19377TIP3    H279623  -0.052   1.537  17.065
19378TIP3   OH279624   4.525   4.185  16.231
19378TIP3    H179625   4.620   4.178  16.241
19378TIP3    H279626   4.499   4.101  16.194
19379TIP3   OH279627   0.131   5.628  14.731
19379TIP3    H179628   0.046   5.659  14.761
19379TIP3    H279629   0.113   5.585  14.648
19380TIP3   OH279630   4.972   0.872   2.284
19380TIP3    H179631   5.038   0.938   2.305
19380TIP3    H279632   5.007   0.791   2.320
19381TIP3   OH279633   4.562   0.882   5.937
19381TIP3    H179634   4.468   0.901   5.942
19381TIP3    H279635   4.602   0.939   6.002
19382TIP3   OH279636   5.413   3.297  16.731
19382TIP3    H179637   5.438   3.364  16.795
19382TIP3    H279638   5.426   3.340  16.646
19383TIP3   OH279639   6.580   4.397  17.119
19383TIP3    H179640   6.607   4.478  17.076
19383TIP3    H279641   6.661   4.351  17.137
19384TIP3   OH279642   0.632   0.666  11.717
19384TIP3    H179643   0.580   0.595  11.678
19384TIP3    H279644   0.675   0.708  11.642
19385TIP3   OH279645   6.731   1.798  12.403
19385TIP3    H179646   6.737   1.732  12.472
19385TIP3    H279647   6.749   1.750  12.322
19386TIP3   OH279648   6.672   2.026   3.553
19386TIP3    H179649   6.689   1.935   3.578
19386TIP3    H279650   6.757   2.068   3.557
19387TIP3   OH279651   0.131   3.941  16.081
19387TIP3    H179652   0.053   3.918  16.131
19387TIP3    H279653   0.155   3.859  16.037
19388TIP3   OH279654   3.349   2.192   2.236
19388TIP3    H179655   3.392   2.253   2.177
19388TIP3    H279656   3.278   2.153   2.185
19389TIP3   OH279657   1.939   2.442  13.013
19389TIP3    H179658   1.972   2.469  12.927
19389TIP3    H279659   1.891   2.519  13.044
19390TIP3   OH279660   5.129   3.259  17.200
19390TIP3    H179661   5.036   3.265  17.224
19390TIP3    H279662   5.170   3.214  17.274
19391TIP3   OH279663   3.865   6.470  16.384
19391TIP3    H179664   3.807   6.484  16.309
19391TIP3    H279665   3.895   6.557  16.408
19392TIP3   OH279666   4.137   2.754   2.909
19392TIP3    H179667   4.102   2.668   2.931
19392TIP3    H279668   4.139   2.802   2.992
19393TIP3   OH279669   1.236   5.460   5.452
19393TIP3    H179670   1.287   5.530   5.409
19393TIP3    H279671   1.261   5.466   5.544
19394TIP3   OH279672   3.186   1.199   3.871
19394TIP3    H179673   3.120   1.130   3.877
19394TIP3    H279674   3.143   1.277   3.906
19395TIP3   OH279675   3.561   2.525  12.427
19395TIP3    H179676   3.470   2.500  12.444
19395TIP3    H279677   3.560   2.621  12.430
19396TIP3   OH279678   0.427   2.098  12.730
19396TIP3    H179679   0.349   2.072  12.779
19396TIP3    H279680   0.449   2.022  12.677
19397TIP3   OH279681   6.438   1.551  14.795
19397TIP3    H179682   6.457   1.519  14.707
19397TIP3    H279683   6.496   1.500  14.852
19398TIP3   OH279684   4.346   6.080  11.836
19398TIP3    H179685   4.313   6.160  11.796
19398TIP3    H279686   4.398   6.110  11.910
19399TIP3   OH279687   6.000   4.769  15.276
19399TIP3    H179688   5.988   4.716  15.355
19399TIP3    H279689   6.069   4.724  15.227
19400TIP3   OH279690   6.432   4.302   2.007
19400TIP3    H179691   6.400   4.376   2.058
19400TIP3    H279692   6.421   4.226   2.064
19401TIP3   OH279693   1.007   5.863   4.005
19401TIP3    H179694   1.020   5.826   3.917
19401TIP3    H279695   1.043   5.952   3.998
19402TIP3   OH279696   3.003   4.127  16.699
19402TIP3    H179697   2.911   4.151  16.709
19402TIP3    H279698   3.003   4.061  16.630
19403TIP3   OH279699   3.626   6.261   0.116
19403TIP3    H179700   3.639   6.253   0.022
19403TIP3    H279701   3.554   6.201   0.136
19404TIP3   OH279702   3.299   0.707   3.314
19404TIP3    H179703   3.380   0.742   3.277
19404TIP3    H279704   3.233   0.773   3.292
19405TIP3   OH279705   1.356   1.383   6.547
19405TIP3    H179706   1.270   1.363   6.586
19405TIP3    H279707   1.419   1.348   6.609
19406TIP3   OH279708   1.125   3.905   4.341
19406TIP3    H179709   1.220   3.902   4.335
19406TIP3    H279710   1.101   3.830   4.396
19407TIP3   OH279711   4.906   4.677  15.456
19407TIP3    H179712   4.840   4.686  15.388
19407TIP3    H279713   4.859   4.696  15.538
19408TIP3   OH279714   5.480   4.139   1.344
19408TIP3    H179715   5.421   4.125   1.419
19408TIP3    H279716   5.428   4.187   1.281
19409TIP3   OH279717   2.159   5.098   5.484
19409TIP3    H179718   2.095   5.139   5.541
19409TIP3    H279719   2.197   5.028   5.537
19410TIP3   OH279720   3.570   2.599  11.576
19410TIP3    H179721   3.588   2.644  11.659
19410TIP3    H279722   3.653   2.558  11.553
19411TIP3   OH279723   3.868   2.980   3.113
19411TIP3    H179724   3.850   3.050   3.049
19411TIP3    H279725   3.963   2.969   3.109
19412TIP3   OH279726   0.681   2.943   1.870
19412TIP3    H179727   0.709   2.885   1.800
19412TIP3    H279728   0.720   2.907   1.949
19413TIP3   OH279729   4.045   1.030   5.216
19413TIP3    H179730   4.119   1.032   5.156
19413TIP3    H279731   4.067   1.097   5.282
19414TIP3   OH279732   5.883   5.766  14.098
19414TIP3    H179733   5.909   5.834  14.161
19414TIP3    H279734   5.817   5.809  14.043
19415TIP3   OH279735   4.660   1.294  10.677
19415TIP3    H179736   4.674   1.232  10.605
19415TIP3    H279737   4.602   1.361  10.639
19416TIP3   OH279738   5.327   5.662  13.847
19416TIP3    H179739   5.349   5.588  13.790
19416TIP3    H279740   5.297   5.621  13.928
19417TIP3   OH279741   5.007   5.211  14.636
19417TIP3    H179742   5.008   5.162  14.718
19417TIP3    H279743   5.052   5.293  14.657
19418TIP3   OH279744   0.201   4.368   5.189
19418TIP3    H179745   0.167   4.294   5.138
19418TIP3    H279746   0.125   4.406   5.231
19419TIP3   OH279747   5.435   0.717   6.041
19419TIP3    H179748   5.526   0.698   6.019
19419TIP3    H279749   5.427   0.694   6.134
19420TIP3   OH279750   5.279   0.221  11.591
19420TIP3    H179751   5.324   0.234  11.507
19420TIP3    H279752   5.315   0.289  11.648
19421TIP3   OH279753   1.603   3.639  15.976
19421TIP3    H179754   1.595   3.596  15.891
19421TIP3    H279755   1.692   3.673  15.977
19422TIP3   OH279756   0.787   3.722  14.810
19422TIP3    H179757   0.740   3.767  14.739
19422TIP3    H279758   0.771   3.776  14.887
19423TIP3   OH279759   0.143   1.704   4.232
19423TIP3    H179760   0.238   1.714   4.231
19423TIP3    H279761   0.119   1.713   4.324
19424TIP3   OH279762   3.871   0.339  15.838
19424TIP3    H179763   3.792   0.383  15.870
19424TIP3    H279764   3.939   0.405  15.842
19425TIP3   OH279765   0.311   1.362   1.882
19425TIP3    H179766   0.338   1.270   1.874
19425TIP3    H279767   0.216   1.360   1.877
19426TIP3   OH279768   6.172   6.312  16.899
19426TIP3    H179769   6.187   6.321  16.805
19426TIP3    H279770   6.163   6.402  16.930
19427TIP3   OH279771   3.920   3.552   2.365
19427TIP3    H179772   3.908   3.481   2.302
19427TIP3    H279773   3.998   3.598   2.334
19428TIP3   OH279774   1.606   6.664  16.080
19428TIP3    H179775   1.546   6.593  16.105
19428TIP3    H279776   1.693   6.623  16.084
19429TIP3   OH279777   3.813   3.578   3.272
19429TIP3    H179778   3.827   3.642   3.201
19429TIP3    H279779   3.839   3.494   3.234
19430TIP3   OH279780   4.216   6.667   0.117
19430TIP3    H179781   4.289   6.687   0.177
19430TIP3    H279782   4.217   6.739   0.054
19431TIP3   OH279783   4.570   3.718  16.425
19431TIP3    H179784   4.623   3.661  16.369
19431TIP3    H279785   4.483   3.678  16.426
19432TIP3   OH279786   2.900   2.512  12.340
19432TIP3    H179787   2.993   2.494  12.350
19432TIP3    H279788   2.860   2.425  12.329
19433TIP3   OH279789   2.653   4.063   3.058
19433TIP3    H179790   2.731   4.051   3.113
19433TIP3    H279791   2.660   3.995   2.991
19434TIP3   OH279792   2.815   2.034  14.853
19434TIP3    H179793   2.855   2.043  14.939
19434TIP3    H279794   2.889   2.037  14.792
19435TIP3   OH279795   5.623   1.339  13.004
19435TIP3    H179796   5.706   1.376  13.034
19435TIP3    H279797   5.592   1.285  13.076
19436TIP3   OH279798   3.236   6.135   0.980
19436TIP3    H179799   3.250   6.114   1.072
19436TIP3    H279800   3.321   6.162   0.948
19437TIP3   OH279801   1.894   5.299  15.655
19437TIP3    H179802   1.954   5.374  15.654
19437TIP3    H279803   1.879   5.281  15.748
19438TIP3   OH279804   0.401   0.562   2.245
19438TIP3    H179805   0.397   0.509   2.324
19438TIP3    H279806   0.389   0.652   2.275
19439TIP3   OH279807   3.473   0.941  13.418
19439TIP3    H179808   3.526   0.990  13.481
19439TIP3    H279809   3.384   0.949  13.450
19440TIP3   OH279810   5.883   2.469   4.313
19440TIP3    H179811   5.880   2.560   4.283
19440TIP3    H279812   5.925   2.422   4.241
19441TIP3   OH279813   3.675   1.402   5.079
19441TIP3    H179814   3.747   1.391   5.016
19441TIP3    H279815   3.651   1.313   5.105
19442TIP3   OH279816   4.371   2.682  14.854
19442TIP3    H179817   4.285   2.706  14.888
19442TIP3    H279818   4.363   2.590  14.829
19443TIP3   OH279819   5.693   5.018  15.837
19443TIP3    H179820   5.660   5.043  15.923
19443TIP3    H279821   5.785   4.995  15.851
19444TIP3   OH279822   0.749   4.632  14.620
19444TIP3    H179823   0.703   4.568  14.674
19444TIP3    H279824   0.786   4.580  14.548
19445TIP3   OH279825   1.681   6.325  15.575
19445TIP3    H179826   1.684   6.349  15.668
19445TIP3    H279827   1.761   6.275  15.560
19446TIP3   OH279828   1.640   5.758  11.397
19446TIP3    H179829   1.546   5.746  11.387
19446TIP3    H279830   1.671   5.677  11.437
19447TIP3   OH279831   1.012   6.469   1.027
19447TIP3    H179832   1.077   6.523   1.072
19447TIP3    H279833   0.951   6.532   0.989
19448TIP3   OH279834   3.626   5.445  13.278
19448TIP3    H179835   3.539   5.471  13.247
19448TIP3    H279836   3.658   5.384  13.211
19449TIP3   OH279837   1.736   4.201   4.206
19449TIP3    H179838   1.692   4.123   4.171
19449TIP3    H279839   1.799   4.166   4.270
19450TIP3   OH279840   4.807   1.488   1.051
19450TIP3    H179841   4.844   1.525   0.971
19450TIP3    H279842   4.798   1.562   1.111
19451TIP3   OH279843   5.683   2.309   3.671
19451TIP3    H179844   5.671   2.227   3.718
19451TIP3    H279845   5.778   2.319   3.663
19452TIP3   OH279846   4.284   5.419  15.595
19452TIP3    H179847   4.222   5.377  15.536
19452TIP3    H279848   4.247   5.407  15.682
19453TIP3   OH279849   5.101   1.333  11.235
19453TIP3    H179850   5.083   1.309  11.325
19453TIP3    H279851   5.035   1.286  11.184
19454TIP3   OH279852   3.663   1.809  13.719
19454TIP3    H179853   3.614   1.751  13.660
19454TIP3    H279854   3.631   1.788  13.806
19455TIP3   OH279855   1.162   1.147   1.109
19455TIP3    H179856   1.205   1.171   1.027
19455TIP3    H279857   1.135   1.057   1.097
19456TIP3   OH279858   1.350   3.844  13.149
19456TIP3    H179859   1.432   3.808  13.184
19456TIP3    H279860   1.291   3.768  13.145
19457TIP3   OH279861   5.066   0.921  10.903
19457TIP3    H179862   5.026   0.855  10.959
19457TIP3    H279863   5.139   0.876  10.861
19458TIP3   OH279864   6.633   2.436   1.097
19458TIP3    H179865   6.575   2.362   1.111
19458TIP3    H279866   6.721   2.401   1.111
19459TIP3   OH279867   5.359   1.921  13.131
19459TIP3    H179868   5.434   1.920  13.073
19459TIP3    H279869   5.326   2.011  13.126
19460TIP3   OH279870   4.052   1.006  12.856
19460TIP3    H179871   4.105   1.084  12.868
19460TIP3    H279872   4.114   0.933  12.861
19461TIP3   OH279873   3.086   4.134   2.918
19461TIP3    H179874   3.048   4.091   2.995
19461TIP3    H279875   3.180   4.114   2.924
19462TIP3   OH279876   6.243   4.264   0.865
19462TIP3    H179877   6.191   4.285   0.787
19462TIP3    H279878   6.193   4.299   0.938
19463TIP3   OH279879   2.237   4.526   3.514
19463TIP3    H179880   2.184   4.520   3.593
19463TIP3    H279881   2.246   4.436   3.483
19464TIP3   OH279882   5.839   6.299  14.941
19464TIP3    H179883   5.910   6.327  14.883
19464TIP3    H279884   5.878   6.228  14.993
19465TIP3   OH279885   3.482   4.931  13.953
19465TIP3    H179886   3.429   5.005  13.926
19465TIP3    H279887   3.438   4.854  13.917
19466TIP3   OH279888   3.261   4.779  16.582
19466TIP3    H179889   3.333   4.783  16.519
19466TIP3    H279890   3.241   4.871  16.601
19467TIP3   OH279891   3.343   0.505   3.143
19467TIP3    H179892   3.335   0.549   3.058
19467TIP3    H279893   3.326   0.573   3.207
19468TIP3   OH279894   1.989   3.823  15.635
19468TIP3    H179895   2.081   3.813  15.662
19468TIP3    H279896   1.940   3.770  15.697
19469TIP3   OH279897   2.714   0.006   3.138
19469TIP3    H179898   2.640   0.043   3.091
19469TIP3    H279899   2.790   0.056   3.108
19470TIP3   OH279900   1.893   5.748  15.585
19470TIP3    H179901   1.855   5.792  15.661
19470TIP3    H279902   1.827   5.757  15.517
19471TIP3   OH279903   0.768   2.635   4.865
19471TIP3    H179904   0.813   2.708   4.822
19471TIP3    H279905   0.767   2.566   4.799
19472TIP3   OH279906   5.084   4.032  14.554
19472TIP3    H179907   4.991   4.021  14.538
19472TIP3    H279908   5.119   3.943  14.556
19473TIP3   OH279909   1.749   3.619   3.000
19473TIP3    H179910   1.711   3.639   2.914
19473TIP3    H279911   1.684   3.563   3.043
19474TIP3   OH279912   2.917   2.350   5.573
19474TIP3    H179913   2.849   2.286   5.551
19474TIP3    H279914   2.954   2.318   5.656
19475TIP3   OH279915   1.589   5.952  15.970
19475TIP3    H179916   1.538   5.918  16.043
19475TIP3    H279917   1.589   6.047  15.982
19476TIP3   OH279918   0.912   3.686  11.858
19476TIP3    H179919   0.831   3.738  11.860
19476TIP3    H279920   0.973   3.735  11.913
19477TIP3   OH279921   3.308   5.845   0.293
19477TIP3    H179922   3.218   5.848   0.261
19477TIP3    H279923   3.358   5.803   0.223
19478TIP3   OH279924   0.349   2.445   5.579
19478TIP3    H179925   0.350   2.358   5.540
19478TIP3    H279926   0.259   2.476   5.568
19479TIP3   OH279927   1.359   4.319   3.595
19479TIP3    H179928   1.264   4.326   3.589
19479TIP3    H279929   1.385   4.391   3.653
19480TIP3   OH279930   2.173   0.806  14.089
19480TIP3    H179931   2.100   0.864  14.070
19480TIP3    H279932   2.250   0.852  14.057
19481TIP3   OH279933   3.664   2.009   0.002
19481TIP3    H179934   3.665   1.935  -0.059
19481TIP3    H279935   3.619   1.976   0.079
19482TIP3   OH279936   3.978   0.216  11.215
19482TIP3    H179937   4.001   0.309  11.206
19482TIP3    H279938   4.024   0.188  11.293
19483TIP3   OH279939   4.226   4.937   5.286
19483TIP3    H179940   4.133   4.931   5.266
19483TIP3    H279941   4.238   5.024   5.324
19484TIP3   OH279942   4.844   1.688   1.436
19484TIP3    H179943   4.885   1.604   1.458
19484TIP3    H279944   4.918   1.746   1.418
19485TIP3   OH279945   3.644   4.788  12.824
19485TIP3    H179946   3.739   4.798  12.822
19485TIP3    H279947   3.620   4.803  12.916
19486TIP3   OH279948   2.836   3.468   2.652
19486TIP3    H179949   2.802   3.413   2.581
19486TIP3    H279950   2.778   3.450   2.726
19487TIP3   OH279951   4.223   2.991   0.899
19487TIP3    H179952   4.218   2.934   0.822
19487TIP3    H279953   4.303   2.963   0.944
19488TIP3   OH279954   2.319   2.312   0.539
19488TIP3    H179955   2.408   2.339   0.561
19488TIP3    H279956   2.326   2.218   0.524
19489TIP3   OH279957   3.693   3.738   2.409
19489TIP3    H179958   3.653   3.682   2.475
19489TIP3    H279959   3.762   3.684   2.371
19490TIP3   OH279960   6.066   4.688  16.750
19490TIP3    H179961   6.040   4.766  16.701
19490TIP3    H279962   6.067   4.717  16.842
19491TIP3   OH279963   4.492   5.772   0.892
19491TIP3    H179964   4.546   5.840   0.851
19491TIP3    H279965   4.402   5.805   0.884
19492TIP3   OH279966   5.666   3.564  12.401
19492TIP3    H179967   5.588   3.573  12.457
19492TIP3    H279968   5.649   3.485  12.349
19493TIP3   OH279969   5.140   4.733   4.550
19493TIP3    H179970   5.233   4.752   4.542
19493TIP3    H279971   5.133   4.638   4.541
19494TIP3   OH279972   0.453   2.608  12.678
19494TIP3    H179973   0.391   2.657  12.624
19494TIP3    H279974   0.456   2.657  12.760
19495TIP3   OH279975   3.705   6.237  12.755
19495TIP3    H179976   3.785   6.280  12.726
19495TIP3    H279977   3.735   6.165  12.811
19496TIP3   OH279978   1.093   4.994  16.532
19496TIP3    H179979   1.173   5.044  16.519
19496TIP3    H279980   1.072   5.007  16.625
19497TIP3   OH279981   6.406   4.853  12.417
19497TIP3    H179982   6.348   4.780  12.395
19497TIP3    H279983   6.466   4.861  12.343
19498TIP3   OH279984   2.462   1.006  12.713
19498TIP3    H179985   2.522   1.071  12.748
19498TIP3    H279986   2.448   0.944  12.784
19499TIP3   OH279987   0.674   1.915   3.679
19499TIP3    H179988   0.688   1.911   3.585
19499TIP3    H279989   0.579   1.907   3.690
19500TIP3   OH279990   3.618   5.843  17.192
19500TIP3    H179991   3.673   5.772  17.224
19500TIP3    H279992   3.666   5.880  17.118
19501TIP3   OH279993   4.512   6.253   3.121
19501TIP3    H179994   4.589   6.285   3.167
19501TIP3    H279995   4.467   6.197   3.184
19502TIP3   OH279996   4.863   4.687  17.117
19502TIP3    H179997   4.819   4.723  17.194
19502TIP3    H279998   4.838   4.595  17.115
19503TIP3   OH279999   2.750   0.026   4.588
19503TIP3    H180000   2.677   0.022   4.526
19503TIP3    H280001   2.811   0.089   4.549
19504TIP3   OH280002   2.418   1.207  14.423
19504TIP3    H180003   2.423   1.285  14.478
19504TIP3    H280004   2.472   1.228  14.347
19505TIP3   OH280005   3.451   2.081   3.982
19505TIP3    H180006   3.396   2.064   4.058
19505TIP3    H280007   3.445   2.001   3.929
19506TIP3   OH280008   2.884   5.050  14.740
19506TIP3    H180009   2.802   5.098  14.754
19506TIP3    H280010   2.948   5.097  14.794
19507TIP3   OH280011   5.691   2.369   4.896
19507TIP3    H180012   5.679   2.369   4.801
19507TIP3    H280013   5.738   2.288   4.914
19508TIP3   OH280014   6.759   0.308   0.092
19508TIP3    H180015   6.717   0.244   0.150
19508TIP3    H280016   6.728   0.286   0.005
19509TIP3   OH280017   2.837   2.983   5.174
19509TIP3    H180018   2.801   2.997   5.262
19509TIP3    H280019   2.914   2.928   5.188
19510TIP3   OH280020   0.452   4.968  16.516
19510TIP3    H180021   0.449   4.985  16.422
19510TIP3    H280022   0.463   5.055  16.555
19511TIP3   OH280023   2.861   3.283  11.002
19511TIP3    H180024   2.779   3.329  11.019
19511TIP3    H280025   2.842   3.227  10.927
19512TIP3   OH280026   1.991   4.577   3.078
19512TIP3    H180027   2.072   4.538   3.111
19512TIP3    H280028   1.966   4.640   3.145
19513TIP3   OH280029   0.889   3.661   4.366
19513TIP3    H180030   0.825   3.728   4.342
19513TIP3    H280031   0.891   3.601   4.291
19514TIP3   OH280032   0.765   1.209  15.388
19514TIP3    H180033   0.785   1.134  15.443
19514TIP3    H280034   0.736   1.277  15.449
19515TIP3   OH280035   4.237   4.316  17.070
19515TIP3    H180036   4.266   4.226  17.060
19515TIP3    H280037   4.168   4.312  17.136
19516TIP3   OH280038   1.627   0.246   3.009
19516TIP3    H180039   1.710   0.252   3.055
19516TIP3    H280040   1.606   0.153   3.009
19517TIP3   OH280041   5.036   1.416  14.352
19517TIP3    H180042   5.067   1.351  14.415
19517TIP3    H280043   4.963   1.373  14.308
19518TIP3   OH280044   1.233   1.002   1.773
19518TIP3    H180045   1.180   0.929   1.740
19518TIP3    H280046   1.318   0.992   1.729
19519TIP3   OH280047   1.616   4.337  14.398
19519TIP3    H180048   1.536   4.290  14.422
19519TIP3    H280049   1.655   4.363  14.481
19520TIP3   OH280050   3.506   2.623  15.473
19520TIP3    H180051   3.583   2.668  15.508
19520TIP3    H280052   3.472   2.573  15.547
19521TIP3   OH280053   5.527   4.081   4.432
19521TIP3    H180054   5.527   4.129   4.515
19521TIP3    H280055   5.524   4.149   4.365
19522TIP3   OH280056   0.092   4.691   0.935
19522TIP3    H180057   0.107   4.643   0.854
19522TIP3    H280058   0.175   4.735   0.954
19523TIP3   OH280059   6.104   5.421  12.940
19523TIP3    H180060   6.200   5.419  12.935
19523TIP3    H280061   6.075   5.372  12.863
19524TIP3   OH280062   4.605   6.605   0.994
19524TIP3    H180063   4.538   6.640   0.935
19524TIP3    H280064   4.678   6.667   0.986
19525TIP3   OH280065   1.684   4.976  11.028
19525TIP3    H180066   1.630   4.995  10.952
19525TIP3    H280067   1.624   4.937  11.091
19526TIP3   OH280068   0.951   5.430  10.994
19526TIP3    H180069   0.925   5.354  10.942
19526TIP3    H280070   1.041   5.448  10.968
19527TIP3   OH280071   3.552   6.740   3.025
19527TIP3    H180072   3.554   6.653   3.064
19527TIP3    H280073   3.485   6.787   3.074
19528TIP3   OH280074   5.600   5.031  13.320
19528TIP3    H180075   5.664   4.973  13.360
19528TIP3    H280076   5.546   4.973  13.266
19529TIP3   OH280077   3.650   2.255   1.207
19529TIP3    H180078   3.745   2.250   1.198
19529TIP3    H280079   3.629   2.347   1.189
19530TIP3   OH280080   2.724   4.450   1.914
19530TIP3    H180081   2.633   4.479   1.925
19530TIP3    H280082   2.773   4.502   1.977
19531TIP3   OH280083   6.596   0.676  12.038
19531TIP3    H180084   6.611   0.616  11.965
19531TIP3    H280085   6.653   0.751  12.021
19532TIP3   OH280086   5.949   0.109   1.291
19532TIP3    H180087   5.883   0.178   1.284
19532TIP3    H280088   5.992   0.126   1.375
19533TIP3   OH280089   6.048   6.269   2.537
19533TIP3    H180090   6.097   6.224   2.468
19533TIP3    H280091   6.055   6.361   2.513
19534TIP3   OH280092   4.942   1.908  15.147
19534TIP3    H180093   5.016   1.948  15.193
19534TIP3    H280094   4.899   1.854  15.213
19535TIP3   OH280095   6.374   2.802  16.998
19535TIP3    H180096   6.403   2.893  16.992
19535TIP3    H280097   6.445   2.751  16.961
19536TIP3   OH280098   4.673   5.653   1.296
19536TIP3    H180099   4.728   5.730   1.285
19536TIP3    H280100   4.656   5.622   1.207
19537TIP3   OH280101   6.704   1.022   1.737
19537TIP3    H180102   6.617   1.050   1.765
19537TIP3    H280103   6.688   0.949   1.676
19538TIP3   OH280104   2.795   1.246  17.071
19538TIP3    H180105   2.846   1.326  17.062
19538TIP3    H280106   2.860   1.176  17.076
19539TIP3   OH280107   4.159   0.564   5.912
19539TIP3    H180108   4.097   0.493   5.924
19539TIP3    H280109   4.241   0.531   5.951
19540TIP3   OH280110   6.488   3.763   2.561
19540TIP3    H180111   6.462   3.768   2.653
19540TIP3    H280112   6.572   3.716   2.563
19541TIP3   OH280113   3.435   6.291   3.611
19541TIP3    H180114   3.421   6.198   3.590
19541TIP3    H280115   3.431   6.295   3.706
19542TIP3   OH280116   4.727   6.731  14.107
19542TIP3    H180117   4.738   6.648  14.154
19542TIP3    H280118   4.757   6.713  14.018
19543TIP3   OH280119   1.488   2.057   0.370
19543TIP3    H180120   1.403   2.019   0.392
19543TIP3    H280121   1.533   1.988   0.321
19544TIP3   OH280122   1.510   6.726  16.858
19544TIP3    H180123   1.428   6.682  16.835
19544TIP3    H280124   1.528   6.697  16.947
19545TIP3   OH280125   6.267   2.442   2.660
19545TIP3    H180126   6.334   2.482   2.604
19545TIP3    H280127   6.279   2.485   2.745
19546TIP3   OH280128   0.666   0.842   1.360
19546TIP3    H180129   0.597   0.902   1.334
19546TIP3    H280130   0.662   0.771   1.295
19547TIP3   OH280131   4.836   0.035  13.393
19547TIP3    H180132   4.847  -0.058  13.415
19547TIP3    H280133   4.844   0.038  13.298
19548TIP3   OH280134   1.719   5.442   0.828
19548TIP3    H180135   1.633   5.404   0.845
19548TIP3    H280136   1.720   5.460   0.734
19549TIP3   OH280137   0.696   3.975  11.311
19549TIP3    H180138   0.663   3.929  11.388
19549TIP3    H280139   0.658   3.927  11.237
19550TIP3   OH280140   5.699   5.714   1.282
19550TIP3    H180141   5.728   5.628   1.254
19550TIP3    H280142   5.647   5.698   1.361
19551TIP3   OH280143   1.003   2.194   3.178
19551TIP3    H180144   1.048   2.142   3.111
19551TIP3    H280145   0.989   2.133   3.250
19552TIP3   OH280146   5.271   0.764   0.803
19552TIP3    H180147   5.201   0.701   0.821
19552TIP3    H280148   5.342   0.712   0.766
19553TIP3   OH280149   1.353   0.438   6.471
19553TIP3    H180150   1.269   0.420   6.430
19553TIP3    H280151   1.338   0.426   6.565
19554TIP3   OH280152   4.598   4.315  12.546
19554TIP3    H180153   4.548   4.394  12.565
19554TIP3    H280154   4.535   4.243  12.559
19555TIP3   OH280155   6.783   2.190  10.313
19555TIP3    H180156   6.817   2.279  10.312
19555TIP3    H280157   6.821   2.150  10.391
19556TIP3   OH280158   6.546   1.310   6.110
19556TIP3    H180159   6.491   1.365   6.167
19556TIP3    H280160   6.630   1.305   6.156
19557TIP3   OH280161   4.366   4.735   2.000
19557TIP3    H180162   4.360   4.648   2.039
19557TIP3    H280163   4.384   4.793   2.073
19558TIP3   OH280164   4.053   6.046  15.264
19558TIP3    H180165   3.973   5.993  15.258
19558TIP3    H280166   4.074   6.070  15.174
19559TIP3   OH280167   3.036   2.099   1.368
19559TIP3    H180168   3.077   2.136   1.446
19559TIP3    H280169   2.942   2.102   1.386
19560TIP3   OH280170   1.400   5.210   5.711
19560TIP3    H180171   1.344   5.287   5.703
19560TIP3    H280172   1.381   5.159   5.632
19561TIP3   OH280173   4.625   0.081  12.910
19561TIP3    H180174   4.682   0.140  12.959
19561TIP3    H280175   4.684   0.012  12.877
19562TIP3   OH280176   2.950   2.859   3.910
19562TIP3    H180177   2.935   2.775   3.866
19562TIP3    H280178   2.874   2.912   3.888
19563TIP3   OH280179   4.747   4.585  11.882
19563TIP3    H180180   4.728   4.673  11.913
19563TIP3    H280181   4.775   4.597  11.791
19564TIP3   OH280182   2.714   4.096   3.848
19564TIP3    H180183   2.771   4.075   3.921
19564TIP3    H280184   2.667   4.175   3.876
19565TIP3   OH280185   0.553   0.932  10.806
19565TIP3    H180186   0.572   0.932  10.712
19565TIP3    H280187   0.484   0.866  10.815
19566TIP3   OH280188   0.698   1.046  11.954
19566TIP3    H180189   0.706   1.108  11.882
19566TIP3    H280190   0.729   1.095  12.031
19567TIP3   OH280191   2.586   5.026   1.407
19567TIP3    H180192   2.615   5.038   1.498
19567TIP3    H280193   2.637   5.090   1.357
19568TIP3   OH280194   2.389   0.417   4.370
19568TIP3    H180195   2.483   0.403   4.383
19568TIP3    H280196   2.383   0.494   4.313
19569TIP3   OH280197   2.182   0.571   5.254
19569TIP3    H180198   2.195   0.649   5.308
19569TIP3    H280199   2.255   0.572   5.192
19570TIP3   OH280200   5.946   1.972  10.960
19570TIP3    H180201   5.863   1.959  10.913
19570TIP3    H280202   6.010   1.923  10.910
19571TIP3   OH280203   1.142   3.404   0.428
19571TIP3    H180204   1.233   3.376   0.413
19571TIP3    H280205   1.150   3.491   0.467
19572TIP3   OH280206   3.005   1.810  11.204
19572TIP3    H180207   3.083   1.826  11.151
19572TIP3    H280208   2.932   1.839  11.150
19573TIP3   OH280209   3.238   4.842   2.878
19573TIP3    H180210   3.235   4.818   2.786
19573TIP3    H280211   3.170   4.790   2.920
19574TIP3   OH280212   4.470   2.170   4.273
19574TIP3    H180213   4.512   2.220   4.342
19574TIP3    H280214   4.543   2.130   4.225
19575TIP3   OH280215   4.415   2.051  13.190
19575TIP3    H180216   4.398   2.141  13.220
19575TIP3    H280217   4.354   2.038  13.117
19576TIP3   OH280218   2.848   5.850   0.579
19576TIP3    H180219   2.815   5.893   0.501
19576TIP3    H280220   2.771   5.828   0.631
19577TIP3   OH280221   3.780   0.386   2.086
19577TIP3    H180222   3.778   0.304   2.136
19577TIP3    H280223   3.773   0.455   2.152
19578TIP3   OH280224   4.340   5.401   1.485
19578TIP3    H180225   4.265   5.376   1.539
19578TIP3    H280226   4.396   5.323   1.483
19579TIP3   OH280227   4.866   3.132   4.704
19579TIP3    H180228   4.905   3.210   4.744
19579TIP3    H280229   4.910   3.059   4.747
19580TIP3   OH280230   5.974   2.122   3.158
19580TIP3    H180231   6.003   2.192   3.217
19580TIP3    H280232   5.981   2.043   3.211
19581TIP3   OH280233   5.124   5.005   5.122
19581TIP3    H180234   5.218   5.020   5.110
19581TIP3    H280235   5.097   5.072   5.185
19582TIP3   OH280236   4.237   2.229   0.460
19582TIP3    H180237   4.273   2.200   0.377
19582TIP3    H280238   4.250   2.154   0.519
19583TIP3   OH280239   2.371   3.905  12.851
19583TIP3    H180240   2.456   3.929  12.886
19583TIP3    H280241   2.331   3.852  12.919
19584TIP3   OH280242   4.274   2.725   4.830
19584TIP3    H180243   4.311   2.812   4.846
19584TIP3    H280244   4.259   2.723   4.736
19585TIP3   OH280245   5.525   3.671   1.609
19585TIP3    H180246   5.470   3.608   1.654
19585TIP3    H280247   5.481   3.686   1.525
19586TIP3   OH280248   5.146   4.817   5.746
19586TIP3    H180249   5.189   4.872   5.812
19586TIP3    H280250   5.080   4.874   5.707
19587TIP3   OH280251   6.212   1.355  15.463
19587TIP3    H180252   6.212   1.345  15.368
19587TIP3    H280253   6.131   1.402  15.482
19588TIP3   OH280254   6.682   0.062  14.959
19588TIP3    H180255   6.661   0.137  15.013
19588TIP3    H280256   6.771   0.037  14.986
19589TIP3   OH280257   1.103   1.977   3.648
19589TIP3    H180258   1.047   1.933   3.712
19589TIP3    H280259   1.192   1.955   3.676
19590TIP3   OH280260   1.017   1.148  12.965
19590TIP3    H180261   0.954   1.203  12.918
19590TIP3    H280262   1.102   1.171  12.927
19591TIP3   OH280263   0.423   4.683   2.402
19591TIP3    H180264   0.442   4.744   2.474
19591TIP3    H280265   0.329   4.692   2.388
19592TIP3   OH280266   5.665   6.491  12.552
19592TIP3    H180267   5.585   6.501  12.501
19592TIP3    H280268   5.731   6.541  12.504
19593TIP3   OH280269   4.855   1.961   1.270
19593TIP3    H180270   4.854   2.015   1.191
19593TIP3    H280271   4.913   2.007   1.330
19594TIP3   OH280272   6.284   2.299  14.324
19594TIP3    H180273   6.260   2.373  14.269
19594TIP3    H280274   6.362   2.328  14.371
19595TIP3   OH280275   0.880   0.615   1.312
19595TIP3    H180276   0.833   0.554   1.255
19595TIP3    H280277   0.900   0.690   1.256
19596TIP3   OH280278   5.071   5.826   1.217
19596TIP3    H180279   5.064   5.731   1.229
19596TIP3    H280280   5.071   5.837   1.122
19597TIP3   OH280281   1.283   4.761   0.952
19597TIP3    H180282   1.221   4.689   0.937
19597TIP3    H280283   1.351   4.747   0.886
19598TIP3   OH280284   2.171   0.523  12.738
19598TIP3    H180285   2.244   0.477  12.778
19598TIP3    H280286   2.122   0.560  12.811
19599TIP3   OH280287   4.395   3.397   0.137
19599TIP3    H180288   4.307   3.361   0.132
19599TIP3    H280289   4.433   3.378   0.051
19600TIP3   OH280290   5.531   3.181   0.434
19600TIP3    H180291   5.452   3.127   0.427
19600TIP3    H280292   5.538   3.224   0.349
19601TIP3   OH280293   4.335   1.420   3.420
19601TIP3    H180294   4.338   1.482   3.492
19601TIP3    H280295   4.425   1.388   3.412
19602TIP3   OH280296   6.676   0.228  11.670
19602TIP3    H180297   6.747   0.215  11.733
19602TIP3    H280298   6.637   0.141  11.660
19603TIP3   OH280299   3.040   3.518   2.452
19603TIP3    H180300   2.979   3.517   2.526
19603TIP3    H280301   3.030   3.433   2.411
19604TIP3   OH280302   3.250   5.406  10.372
19604TIP3    H180303   3.343   5.411  10.349
19604TIP3    H280304   3.215   5.492  10.347
19605TIP3   OH280305   2.045   2.489   2.345
19605TIP3    H180306   1.954   2.510   2.366
19605TIP3    H280307   2.069   2.551   2.276
19606TIP3   OH280308   4.767   0.017   1.016
19606TIP3    H180309   4.784   0.104   0.980
19606TIP3    H280310   4.803   0.021   1.105
19607TIP3   OH280311   0.976   0.807  11.489
19607TIP3    H180312   0.888   0.823  11.454
19607TIP3    H280313   0.980   0.859  11.569
19608TIP3   OH280314   5.841   4.470  15.393
19608TIP3    H180315   5.925   4.455  15.351
19608TIP3    H280316   5.856   4.450  15.485
19609TIP3   OH280317   1.766   5.398   2.028
19609TIP3    H180318   1.724   5.344   1.961
19609TIP3    H280319   1.804   5.336   2.089
19610TIP3   OH280320   6.109   0.220   2.510
19610TIP3    H180321   6.194   0.210   2.468
19610TIP3    H280322   6.120   0.297   2.566
19611TIP3   OH280323   4.371   2.125  15.044
19611TIP3    H180324   4.386   2.144  14.951
19611TIP3    H280325   4.369   2.211  15.086
19612TIP3   OH280326   3.833   4.902   1.515
19612TIP3    H180327   3.754   4.945   1.549
19612TIP3    H280328   3.802   4.852   1.439
19613TIP3   OH280329   6.173   4.273  16.406
19613TIP3    H180330   6.243   4.260  16.343
19613TIP3    H280331   6.202   4.347  16.460
19614TIP3   OH280332   3.472   1.507  14.446
19614TIP3    H180333   3.428   1.422  14.441
19614TIP3    H280334   3.465   1.531  14.539
19615TIP3   OH280335   2.480   2.442   1.455
19615TIP3    H180336   2.468   2.505   1.383
19615TIP3    H280337   2.556   2.476   1.503
19616TIP3   OH280338   6.648   2.803  12.124
19616TIP3    H180339   6.743   2.805  12.132
19616TIP3    H280340   6.620   2.892  12.148
19617TIP3   OH280341   4.074   4.862  13.155
19617TIP3    H180342   4.076   4.934  13.218
19617TIP3    H280343   4.161   4.821  13.161
19618TIP3   OH280344   4.536   3.577   4.097
19618TIP3    H180345   4.447   3.611   4.088
19618TIP3    H280346   4.541   3.507   4.031
19619TIP3   OH280347   3.594   6.640   3.534
19619TIP3    H180348   3.578   6.653   3.441
19619TIP3    H280349   3.637   6.721   3.563
19620TIP3   OH280350   2.321   0.726  16.629
19620TIP3    H180351   2.379   0.768  16.692
19620TIP3    H280352   2.282   0.653  16.676
19621TIP3   OH280353   1.856   4.844   5.386
19621TIP3    H180354   1.817   4.893   5.459
19621TIP3    H280355   1.942   4.818   5.419
19622TIP3   OH280356   1.402   5.129   1.451
19622TIP3    H180357   1.480   5.128   1.394
19622TIP3    H280358   1.423   5.191   1.520
19623TIP3   OH280359   4.301   5.906  14.034
19623TIP3    H180360   4.381   5.924  14.084
19623TIP3    H280361   4.246   5.983  14.049
19624TIP3   OH280362   4.513   0.735  15.360
19624TIP3    H180363   4.515   0.787  15.440
19624TIP3    H280364   4.435   0.681  15.367
19625TIP3   OH280365   1.246   1.884  14.714
19625TIP3    H180366   1.185   1.924  14.652
19625TIP3    H280367   1.221   1.791  14.715
19626TIP3   OH280368   6.103   2.469   4.967
19626TIP3    H180369   6.188   2.499   5.002
19626TIP3    H280370   6.043   2.477   5.042
19627TIP3   OH280371   0.530   4.150   3.485
19627TIP3    H180372   0.586   4.089   3.534
19627TIP3    H280373   0.539   4.122   3.394
19628TIP3   OH280374   5.774   2.587   4.545
19628TIP3    H180375   5.851   2.543   4.509
19628TIP3    H280376   5.786   2.679   4.521
19629TIP3   OH280377   0.761   2.096   5.692
19629TIP3    H180378   0.708   2.168   5.660
19629TIP3    H280379   0.790   2.124   5.779
19630TIP3   OH280380   5.088   5.216  15.168
19630TIP3    H180381   5.141   5.235  15.091
19630TIP3    H280382   5.147   5.231  15.242
19631TIP3   OH280383   6.274   1.456  11.714
19631TIP3    H180384   6.217   1.509  11.657
19631TIP3    H280385   6.232   1.460  11.800
19632TIP3   OH280386   4.592   4.016   4.566
19632TIP3    H180387   4.601   3.944   4.628
19632TIP3    H280388   4.509   4.058   4.589
19633TIP3   OH280389   4.223   2.680  10.249
19633TIP3    H180390   4.312   2.712  10.265
19633TIP3    H280391   4.229   2.585  10.259
19634TIP3   OH280392   5.937   5.956  14.298
19634TIP3    H180393   5.898   5.897  14.363
19634TIP3    H280394   6.030   5.957  14.318
19635TIP3   OH280395   4.409   6.375   3.594
19635TIP3    H180396   4.403   6.386   3.689
19635TIP3    H280397   4.374   6.288   3.577
19636TIP3   OH280398   6.441   5.178   1.322
19636TIP3    H180399   6.473   5.263   1.292
19636TIP3    H280400   6.434   5.125   1.243
19637TIP3   OH280401   2.122   3.958   4.204
19637TIP3    H180402   2.138   3.879   4.153
19637TIP3    H280403   2.027   3.971   4.198
19638TIP3   OH280404   2.864   0.705  13.059
19638TIP3    H180405   2.794   0.735  13.116
19638TIP3    H280406   2.872   0.773  12.993
19639TIP3   OH280407   1.133   5.753  12.278
19639TIP3    H180408   1.067   5.684  12.291
19639TIP3    H280409   1.101   5.826  12.330
19640TIP3   OH280410   5.297   1.244   4.516
19640TIP3    H180411   5.257   1.220   4.600
19640TIP3    H280412   5.361   1.312   4.539
19641TIP3   OH280413   1.378   4.043   1.111
19641TIP3    H180414   1.462   4.085   1.131
19641TIP3    H280415   1.355   3.995   1.191
19642TIP3   OH280416   0.966   4.048   1.056
19642TIP3    H180417   1.008   4.091   0.981
19642TIP3    H280418   1.021   4.071   1.131
19643TIP3   OH280419   2.036   1.670  16.620
19643TIP3    H180420   1.998   1.706  16.700
19643TIP3    H280421   1.990   1.587  16.606
19644TIP3   OH280422   6.015   6.453   1.399
19644TIP3    H180423   5.954   6.526   1.395
19644TIP3    H280424   6.102   6.494   1.402
19645TIP3   OH280425   5.073   6.283   0.541
19645TIP3    H180426   5.093   6.269   0.633
19645TIP3    H280427   5.159   6.294   0.500
19646TIP3   OH280428   1.491   3.319   0.924
19646TIP3    H180429   1.529   3.332   1.011
19646TIP3    H280430   1.416   3.379   0.921
19647TIP3   OH280431   0.619   6.058   5.600
19647TIP3    H180432   0.556   6.021   5.661
19647TIP3    H280433   0.585   6.146   5.582
19648TIP3   OH280434   5.450   6.725   5.245
19648TIP3    H180435   5.530   6.733   5.193
19648TIP3    H280436   5.386   6.685   5.186
19649TIP3   OH280437   2.414   4.977   5.386
19649TIP3    H180438   2.462   4.980   5.470
19649TIP3    H280439   2.390   4.885   5.376
19650TIP3   OH280440   4.475   6.360  14.705
19650TIP3    H180441   4.480   6.389  14.614
19650TIP3    H280442   4.384   6.334  14.718
19651TIP3   OH280443   3.751   3.739  11.681
19651TIP3    H180444   3.672   3.687  11.667
19651TIP3    H280445   3.821   3.675  11.685
19652TIP3   OH280446   3.853   2.304   2.083
19652TIP3    H180447   3.832   2.396   2.099
19652TIP3    H280448   3.946   2.297   2.104
19653TIP3   OH280449   4.984   2.849  16.522
19653TIP3    H180450   4.976   2.924  16.463
19653TIP3    H280451   4.985   2.773  16.464
19654TIP3   OH280452   1.154   4.843   5.100
19654TIP3    H180453   1.232   4.795   5.073
19654TIP3    H280454   1.131   4.806   5.185
19655TIP3   OH280455   6.152   4.790   3.556
19655TIP3    H180456   6.072   4.746   3.527
19655TIP3    H280457   6.130   4.825   3.643
19656TIP3   OH280458   1.398   1.642  14.921
19656TIP3    H180459   1.411   1.617  14.829
19656TIP3    H280460   1.474   1.696  14.943
19657TIP3   OH280461   5.637   5.601   1.778
19657TIP3    H180462   5.658   5.518   1.736
19657TIP3    H280463   5.695   5.605   1.854
19658TIP3   OH280464   4.506   0.764  13.035
19658TIP3    H180465   4.472   0.838  13.086
19658TIP3    H280466   4.578   0.801  12.985
19659TIP3   OH280467   1.649   5.386   0.529
19659TIP3    H180468   1.651   5.436   0.448
19659TIP3    H280469   1.556   5.378   0.550
19660TIP3   OH280470   0.393   3.299   4.608
19660TIP3    H180471   0.446   3.341   4.539
19660TIP3    H280472   0.335   3.368   4.640
19661TIP3   OH280473   1.994   0.061  11.544
19661TIP3    H180474   2.024   0.146  11.512
19661TIP3    H280475   1.999   0.068  11.640
19662TIP3   OH280476   4.810   3.903  15.146
19662TIP3    H180477   4.890   3.897  15.198
19662TIP3    H280478   4.819   3.834  15.080
19663TIP3   OH280479   6.354   0.676  12.404
19663TIP3    H180480   6.315   0.697  12.320
19663TIP3    H280481   6.314   0.593  12.430
19664TIP3   OH280482   6.090   1.765   4.709
19664TIP3    H180483   6.118   1.761   4.617
19664TIP3    H280484   6.168   1.794   4.757
19665TIP3   OH280485   3.165   6.588   4.802
19665TIP3    H180486   3.258   6.565   4.801
19665TIP3    H280487   3.147   6.611   4.893
19666TIP3   OH280488   1.167   3.363  14.040
19666TIP3    H180489   1.100   3.420  14.076
19666TIP3    H280490   1.214   3.418  13.977
19667TIP3   OH280491   4.525   0.962   2.856
19667TIP3    H180492   4.468   1.039   2.856
19667TIP3    H280493   4.611   0.996   2.882
19668TIP3   OH280494   6.428   4.149   6.805
19668TIP3    H180495   6.454   4.206   6.877
19668TIP3    H280496   6.503   4.089   6.794
19669TIP3   OH280497   1.871   2.872  15.331
19669TIP3    H180498   1.892   2.779  15.340
19669TIP3    H280499   1.885   2.909  15.418
19670TIP3   OH280500   3.041   5.261   2.678
19670TIP3    H180501   2.965   5.232   2.628
19670TIP3    H280502   3.059   5.350   2.646
19671TIP3   OH280503   3.308   3.320  10.823
19671TIP3    H180504   3.320   3.258  10.751
19671TIP3    H280505   3.381   3.381  10.814
19672TIP3   OH280506   6.091   0.975  12.607
19672TIP3    H180507   6.041   0.901  12.574
19672TIP3    H280508   6.029   1.048  12.607
19673TIP3   OH280509   0.049   4.465  14.653
19673TIP3    H180510   0.108   4.538  14.671
19673TIP3    H280511   0.062   4.446  14.560
19674TIP3   OH280512   1.181   2.683  14.499
19674TIP3    H180513   1.253   2.655  14.556
19674TIP3    H280514   1.103   2.639  14.535
19675TIP3   OH280515   2.188   1.764   5.156
19675TIP3    H180516   2.225   1.835   5.209
19675TIP3    H280517   2.199   1.685   5.210
19676TIP3   OH280518   2.034   0.768  11.604
19676TIP3    H180519   2.093   0.824  11.553
19676TIP3    H280520   2.087   0.737  11.677
19677TIP3   OH280521   6.630   0.035  15.848
19677TIP3    H180522   6.557   0.082  15.889
19677TIP3    H280523   6.653  -0.033  15.912
19678TIP3   OH280524   0.879   0.870  12.238
19678TIP3    H180525   0.833   0.898  12.317
19678TIP3    H280526   0.945   0.937  12.223
19679TIP3   OH280527   3.122   3.450  10.990
19679TIP3    H180528   3.053   3.397  11.031
19679TIP3    H280529   3.185   3.385  10.959
19680TIP3   OH280530   4.756   0.919  15.068
19680TIP3    H180531   4.683   0.856  15.065
19680TIP3    H280532   4.717   0.998  15.104
19681TIP3   OH280533   2.805   0.667   3.213
19681TIP3    H180534   2.814   0.624   3.298
19681TIP3    H280535   2.824   0.598   3.150
19682TIP3   OH280536   2.410   3.323   0.050
19682TIP3    H180537   2.451   3.296  -0.031
19682TIP3    H280538   2.350   3.393   0.025
19683TIP3   OH280539   1.140   1.448   5.589
19683TIP3    H180540   1.084   1.521   5.564
19683TIP3    H280541   1.225   1.468   5.549
19684TIP3   OH280542   5.441   1.615   2.300
19684TIP3    H180543   5.445   1.710   2.312
19684TIP3    H280544   5.425   1.603   2.207
19685TIP3   OH280545   2.390   3.955   1.066
19685TIP3    H180546   2.319   3.890   1.064
19685TIP3    H280547   2.366   4.014   1.137
19686TIP3   OH280548   1.840   2.132  13.874
19686TIP3    H180549   1.881   2.085  13.947
19686TIP3    H280550   1.783   2.197  13.916
19687TIP3   OH280551   1.609   5.175   1.244
19687TIP3    H180552   1.628   5.143   1.156
19687TIP3    H280553   1.540   5.240   1.232
19688TIP3   OH280554   6.195   1.279   0.301
19688TIP3    H180555   6.223   1.216   0.368
19688TIP3    H280556   6.264   1.345   0.300
19689TIP3   OH280557   5.190   3.988   5.171
19689TIP3    H180558   5.146   3.979   5.256
19689TIP3    H280559   5.208   4.082   5.162
19690TIP3   OH280560   4.992   3.260  11.383
19690TIP3    H180561   4.907   3.227  11.352
19690TIP3    H280562   5.047   3.183  11.391
19691TIP3   OH280563   3.306   1.328   1.180
19691TIP3    H180564   3.320   1.272   1.257
19691TIP3    H280565   3.274   1.411   1.216
19692TIP3   OH280566   1.046   0.450  16.541
19692TIP3    H180567   1.104   0.390  16.587
19692TIP3    H280568   1.078   0.450  16.450
19693TIP3   OH280569   6.116   5.741  15.341
19693TIP3    H180570   6.185   5.801  15.368
19693TIP3    H280571   6.041   5.797  15.321
19694TIP3   OH280572   4.149   5.778   2.312
19694TIP3    H180573   4.138   5.690   2.278
19694TIP3    H280574   4.231   5.809   2.272
19695TIP3   OH280575   4.448   2.632  12.087
19695TIP3    H180576   4.535   2.602  12.059
19695TIP3    H280577   4.456   2.642  12.182
19696TIP3   OH280578   3.939   3.071   4.407
19696TIP3    H180579   3.964   3.127   4.481
19696TIP3    H280580   3.996   3.099   4.336
19697TIP3   OH280581   2.906   1.022   6.106
19697TIP3    H180582   2.921   1.100   6.160
19697TIP3    H280583   2.980   1.021   6.045
19698TIP3   OH280584   5.989   4.855   0.269
19698TIP3    H180585   5.967   4.945   0.293
19698TIP3    H280586   5.921   4.802   0.312
19699TIP3   OH280587   3.916   5.429   1.087
19699TIP3    H180588   3.915   5.494   1.158
19699TIP3    H280589   3.963   5.473   1.016
19700TIP3   OH280590   0.602   0.096   1.453
19700TIP3    H180591   0.517   0.054   1.463
19700TIP3    H280592   0.657   0.055   1.520
19701TIP3   OH280593   0.311   0.889   4.265
19701TIP3    H180594   0.365   0.956   4.306
19701TIP3    H280595   0.235   0.881   4.323
19702TIP3   OH280596   0.002   3.547  16.984
19702TIP3    H180597  -0.053   3.579  16.913
19702TIP3    H280598  -0.042   3.467  17.013
19703TIP3   OH280599   4.988   3.147  15.098
19703TIP3    H180600   4.978   3.149  15.003
19703TIP3    H280601   4.910   3.192  15.131
19704TIP3   OH280602   1.448   3.957  11.742
19704TIP3    H180603   1.482   4.043  11.769
19704TIP3    H280604   1.525   3.902  11.734
19705TIP3   OH280605   6.391   3.767   2.854
19705TIP3    H180606   6.433   3.681   2.854
19705TIP3    H280607   6.413   3.804   2.940
19706TIP3   OH280608   6.212   5.562   5.400
19706TIP3    H180609   6.174   5.500   5.337
19706TIP3    H280610   6.136   5.602   5.443
19707TIP3   OH280611   1.977   3.990  12.982
19707TIP3    H180612   1.924   3.938  12.922
19707TIP3    H280613   2.027   4.049  12.926
19708TIP3   OH280614   6.160   1.154  14.065
19708TIP3    H180615   6.160   1.114  13.978
19708TIP3    H280616   6.129   1.084  14.123
19709TIP3   OH280617   2.073   3.476   0.973
19709TIP3    H180618   2.147   3.417   0.963
19709TIP3    H280619   2.075   3.530   0.895
19710TIP3   OH280620   5.376   4.885   0.600
19710TIP3    H180621   5.309   4.954   0.600
19710TIP3    H280622   5.327   4.805   0.576
19711TIP3   OH280623   1.239   5.551   0.955
19711TIP3    H180624   1.250   5.569   0.861
19711TIP3    H280625   1.242   5.637   0.996
19712TIP3   OH280626   2.295   3.114  13.708
19712TIP3    H180627   2.262   3.185  13.763
19712TIP3    H280628   2.295   3.149  13.619
19713TIP3   OH280629   2.325   1.284   2.470
19713TIP3    H180630   2.365   1.199   2.449
19713TIP3    H280631   2.395   1.334   2.511
19714TIP3   OH280632   1.283   4.562  13.527
19714TIP3    H180633   1.308   4.597  13.441
19714TIP3    H280634   1.346   4.602  13.588
19715TIP3   OH280635   2.843   0.699   1.702
19715TIP3    H180636   2.936   0.719   1.714
19715TIP3    H280637   2.825   0.725   1.612
19716TIP3   OH280638   4.798   6.176  16.215
19716TIP3    H180639   4.791   6.132  16.299
19716TIP3    H280640   4.750   6.119  16.154
19717TIP3   OH280641   0.957   4.732  11.161
19717TIP3    H180642   0.959   4.665  11.229
19717TIP3    H280643   0.928   4.686  11.082
19718TIP3   OH280644   4.586   0.188   0.159
19718TIP3    H180645   4.498   0.150   0.153
19718TIP3    H280646   4.599   0.202   0.253
19719TIP3   OH280647   1.878   1.440   3.935
19719TIP3    H180648   1.827   1.392   3.870
19719TIP3    H280649   1.969   1.433   3.905
19720TIP3   OH280650   0.850   4.654  15.025
19720TIP3    H180651   0.905   4.579  15.049
19720TIP3    H280652   0.912   4.719  14.993
19721TIP3   OH280653   3.829   0.709   6.630
19721TIP3    H180654   3.743   0.723   6.671
19721TIP3    H280655   3.863   0.797   6.617
19722TIP3   OH280656   3.001   2.465   3.961
19722TIP3    H180657   3.068   2.397   3.955
19722TIP3    H280658   3.009   2.514   3.879
19723TIP3   OH280659   4.750   0.838   2.120
19723TIP3    H180660   4.765   0.904   2.053
19723TIP3    H280661   4.827   0.842   2.176
19724TIP3   OH280662   0.178   3.373   4.369
19724TIP3    H180663   0.137   3.291   4.396
19724TIP3    H280664   0.105   3.431   4.348
19725TIP3   OH280665   4.588   3.248   6.287
19725TIP3    H180666   4.509   3.253   6.340
19725TIP3    H280667   4.604   3.338   6.258
19726TIP3   OH280668   1.582   5.278  11.731
19726TIP3    H180669   1.669   5.249  11.704
19726TIP3    H280670   1.532   5.197  11.741
19727TIP3   OH280671   4.554   4.275  10.392
19727TIP3    H180672   4.607   4.196  10.376
19727TIP3    H280673   4.482   4.268  10.330
19728TIP3   OH280674   5.621   0.472  13.713
19728TIP3    H180675   5.633   0.377  13.713
19728TIP3    H280676   5.586   0.492  13.626
19729TIP3   OH280677   6.122   3.863  11.440
19729TIP3    H180678   6.205   3.816  11.430
19729TIP3    H280679   6.137   3.923  11.513
19730TIP3   OH280680   1.658   6.770  16.571
19730TIP3    H180681   1.649   6.853  16.618
19730TIP3    H280682   1.695   6.710  16.635
19731TIP3   OH280683   5.940   3.069  14.461
19731TIP3    H180684   5.855   3.111  14.475
19731TIP3    H280685   6.004   3.137  14.479
19732TIP3   OH280686   2.885   5.259   0.833
19732TIP3    H180687   2.798   5.219   0.835
19732TIP3    H280688   2.891   5.298   0.746
19733TIP3   OH280689   4.724   2.264  14.202
19733TIP3    H180690   4.636   2.298  14.184
19733TIP3    H280691   4.780   2.342  14.200
19734TIP3   OH280692   2.584   1.572   0.453
19734TIP3    H180693   2.517   1.517   0.493
19734TIP3    H280694   2.650   1.511   0.421
19735TIP3   OH280695   5.167   3.757   4.894
19735TIP3    H180696   5.242   3.717   4.852
19735TIP3    H280697   5.134   3.821   4.830
19736TIP3   OH280698   3.260   0.491   6.121
19736TIP3    H180699   3.228   0.440   6.195
19736TIP3    H280700   3.305   0.566   6.161
19737TIP3   OH280701   3.582   4.302   4.719
19737TIP3    H180702   3.579   4.386   4.673
19737TIP3    H280703   3.647   4.251   4.672
19738TIP3   OH280704   3.696   6.769  13.375
19738TIP3    H180705   3.707   6.715  13.453
19738TIP3    H280706   3.639   6.718  13.317
19739TIP3   OH280707   1.356   1.050  12.645
19739TIP3    H180708   1.340   1.048  12.551
19739TIP3    H280709   1.436   1.000  12.657
19740TIP3   OH280710   1.810   6.798  13.592
19740TIP3    H180711   1.868   6.721  13.587
19740TIP3    H280712   1.731   6.766  13.636
19741TIP3   OH280713   6.018   2.829   1.587
19741TIP3    H180714   6.004   2.922   1.569
19741TIP3    H280715   6.042   2.792   1.502
19742TIP3   OH280716   4.715   0.391  14.145
19742TIP3    H180717   4.793   0.362  14.191
19742TIP3    H280718   4.724   0.486  14.136
19743TIP3   OH280719   6.254   2.301  10.838
19743TIP3    H180720   6.223   2.246  10.766
19743TIP3    H280721   6.314   2.245  10.887
19744TIP3   OH280722   0.026   4.925  12.294
19744TIP3    H180723   0.112   4.964  12.311
19744TIP3    H280724   0.042   4.863  12.223
19745TIP3   OH280725   1.866   3.252  16.955
19745TIP3    H180726   1.937   3.283  16.899
19745TIP3    H280727   1.897   3.266  17.044
19746TIP3   OH280728   3.572   6.392   5.652
19746TIP3    H180729   3.484   6.372   5.619
19746TIP3    H280730   3.568   6.370   5.746
19747TIP3   OH280731   3.217   6.165  11.512
19747TIP3    H180732   3.128   6.196  11.527
19747TIP3    H280733   3.273   6.229  11.556
19748TIP3   OH280734   5.614   3.964   3.114
19748TIP3    H180735   5.550   3.991   3.048
19748TIP3    H280736   5.683   3.921   3.063
19749TIP3   OH280737   2.162   4.422   5.445
19749TIP3    H180738   2.158   4.406   5.351
19749TIP3    H280739   2.245   4.468   5.458
19750TIP3   OH280740   1.503   1.672  17.059
19750TIP3    H180741   1.463   1.626  17.134
19750TIP3    H280742   1.469   1.762  17.066
19751TIP3   OH280743   4.831   4.197  10.570
19751TIP3    H180744   4.822   4.129  10.637
19751TIP3    H280745   4.822   4.151  10.487
19752TIP3   OH280746   6.551   2.066  15.678
19752TIP3    H180747   6.610   2.115  15.736
19752TIP3    H280748   6.578   1.974  15.690
19753TIP3   OH280749   4.965   5.268  12.399
19753TIP3    H180750   5.018   5.346  12.387
19753TIP3    H280751   4.959   5.228  12.312
19754TIP3   OH280752   5.989   6.415  12.367
19754TIP3    H180753   5.916   6.424  12.305
19754TIP3    H280754   6.007   6.505  12.395
19755TIP3   OH280755   2.008   3.112  14.787
19755TIP3    H180756   1.987   3.027  14.748
19755TIP3    H280757   2.013   3.172  14.712
19756TIP3   OH280758   3.719   1.150   2.599
19756TIP3    H180759   3.748   1.238   2.574
19756TIP3    H280760   3.799   1.098   2.604
19757TIP3   OH280761   0.695   3.766   6.061
19757TIP3    H180762   0.685   3.683   6.108
19757TIP3    H280763   0.614   3.813   6.077
19758TIP3   OH280764   0.492   1.601   4.609
19758TIP3    H180765   0.522   1.612   4.699
19758TIP3    H280766   0.473   1.690   4.578
19759TIP3   OH280767   2.416   1.306   3.982
19759TIP3    H180768   2.473   1.383   3.981
19759TIP3    H280769   2.371   1.310   4.066
19760TIP3   OH280770   2.898   2.081   6.339
19760TIP3    H180771   2.826   2.122   6.387
19760TIP3    H280772   2.909   1.995   6.381
19761TIP3   OH280773   5.922   2.751   2.069
19761TIP3    H180774   5.961   2.752   1.982
19761TIP3    H280775   5.864   2.675   2.069
19762TIP3   OH280776   1.275   6.193  16.095
19762TIP3    H180777   1.288   6.240  16.013
19762TIP3    H280778   1.183   6.168  16.095
19763TIP3   OH280779   6.787   2.993   1.492
19763TIP3    H180780   6.855   3.037   1.544
19763TIP3    H280781   6.716   2.978   1.554
19764TIP3   OH280782   1.256   0.758   2.460
19764TIP3    H180783   1.338   0.805   2.450
19764TIP3    H280784   1.267   0.677   2.410
19765TIP3   OH280785   5.363   5.308  11.958
19765TIP3    H180786   5.416   5.232  11.980
19765TIP3    H280787   5.290   5.273  11.907
19766TIP3   OH280788   3.911   2.188  15.267
19766TIP3    H180789   3.956   2.189  15.351
19766TIP3    H280790   3.826   2.229  15.284
19767TIP3   OH280791   5.232   3.335  11.786
19767TIP3    H180792   5.236   3.288  11.870
19767TIP3    H280793   5.316   3.380  11.779
19768TIP3   OH280794   6.127   0.763   4.405
19768TIP3    H180795   6.065   0.836   4.399
19768TIP3    H280796   6.084   0.700   4.462
19769TIP3   OH280797   0.832   1.253   2.405
19769TIP3    H180798   0.813   1.163   2.381
19769TIP3    H280799   0.761   1.304   2.365
19770TIP3   OH280800   5.966   2.676   0.897
19770TIP3    H180801   6.026   2.701   0.968
19770TIP3    H280802   5.896   2.627   0.941
19771TIP3   OH280803   3.983   6.720   5.564
19771TIP3    H180804   3.898   6.759   5.586
19771TIP3    H280805   3.965   6.627   5.554
19772TIP3   OH280806   2.475   0.712   0.852
19772TIP3    H180807   2.410   0.776   0.879
19772TIP3    H280808   2.429   0.628   0.855
19773TIP3   OH280809   2.993   4.161   1.595
19773TIP3    H180810   2.951   4.158   1.509
19773TIP3    H280811   2.924   4.189   1.655
19774TIP3   OH280812   3.617   2.176  10.388
19774TIP3    H180813   3.554   2.240  10.354
19774TIP3    H280814   3.564   2.114  10.438
19775TIP3   OH280815   3.715   2.665   6.101
19775TIP3    H180816   3.741   2.756   6.110
19775TIP3    H280817   3.695   2.655   6.007
19776TIP3   OH280818   4.696   1.076  10.526
19776TIP3    H180819   4.753   1.077  10.603
19776TIP3    H280820   4.681   0.983  10.508
19777TIP3   OH280821   6.244   0.902   3.615
19777TIP3    H180822   6.161   0.888   3.660
19777TIP3    H280823   6.310   0.869   3.675
19778TIP3   OH280824   5.938   3.404   5.619
19778TIP3    H180825   5.851   3.444   5.628
19778TIP3    H280826   5.920   3.314   5.592
19779TIP3   OH280827   3.153   6.664   0.036
19779TIP3    H180828   3.140   6.652   0.130
19779TIP3    H280829   3.225   6.726   0.030
19780TIP3   OH280830   1.291   2.962  16.149
19780TIP3    H180831   1.280   2.917  16.066
19780TIP3    H280832   1.323   3.049  16.125
19781TIP3   OH280833   1.898   4.103   0.022
19781TIP3    H180834   1.817   4.153   0.030
19781TIP3    H280835   1.964   4.168  -0.001
19782TIP3   OH280836   5.833   6.528   1.607
19782TIP3    H180837   5.798   6.441   1.627
19782TIP3    H280838   5.871   6.557   1.690
19783TIP3   OH280839   2.314   2.051   3.632
19783TIP3    H180840   2.375   2.109   3.677
19783TIP3    H280841   2.360   1.967   3.628
19784TIP3   OH280842   2.374   6.274   2.661
19784TIP3    H180843   2.383   6.199   2.721
19784TIP3    H280844   2.301   6.324   2.697
19785TIP3   OH280845   0.655   5.715   0.361
19785TIP3    H180846   0.686   5.625   0.346
19785TIP3    H280847   0.641   5.750   0.273
19786TIP3   OH280848   5.192   0.646  12.561
19786TIP3    H180849   5.263   0.591  12.531
19786TIP3    H280850   5.127   0.642  12.491
19787TIP3   OH280851   3.623   2.894   5.377
19787TIP3    H180852   3.575   2.879   5.296
19787TIP3    H280853   3.665   2.809   5.395
19788TIP3   OH280854   4.208   0.375   4.432
19788TIP3    H180855   4.187   0.329   4.351
19788TIP3    H280856   4.125   0.413   4.460
19789TIP3   OH280857   4.325   5.596   2.775
19789TIP3    H180858   4.255   5.637   2.725
19789TIP3    H280859   4.401   5.653   2.761
19790TIP3   OH280860   3.274   5.787   3.168
19790TIP3    H180861   3.299   5.873   3.202
19790TIP3    H280862   3.214   5.752   3.233
19791TIP3   OH280863   2.200   5.720  16.155
19791TIP3    H180864   2.105   5.731  16.169
19791TIP3    H280865   2.207   5.647  16.094
19792TIP3   OH280866   2.405   5.457   4.252
19792TIP3    H180867   2.398   5.524   4.184
19792TIP3    H280868   2.358   5.494   4.326
19793TIP3   OH280869   4.575   2.278  11.028
19793TIP3    H180870   4.566   2.373  11.040
19793TIP3    H280871   4.665   2.266  10.997
19794TIP3   OH280872   4.538   5.743  13.950
19794TIP3    H180873   4.516   5.836  13.947
19794TIP3    H280874   4.486   5.703  13.881
19795TIP3   OH280875   1.375   6.673   1.611
19795TIP3    H180876   1.429   6.750   1.594
19795TIP3    H280877   1.422   6.626   1.681
19796TIP3   OH280878   5.940   3.334  12.409
19796TIP3    H180879   6.008   3.400  12.414
19796TIP3    H280880   5.878   3.358  12.477
19797TIP3   OH280881   5.898   4.666  14.844
19797TIP3    H180882   5.982   4.648  14.801
19797TIP3    H280883   5.842   4.701  14.774
19798TIP3   OH280884   5.922   1.649   2.561
19798TIP3    H180885   5.883   1.699   2.633
19798TIP3    H280886   6.016   1.655   2.575
19799TIP3   OH280887   3.922   2.272  11.642
19799TIP3    H180888   3.986   2.256  11.711
19799TIP3    H280889   3.842   2.231  11.674
19800TIP3   OH280890   5.783   2.469   2.486
19800TIP3    H180891   5.766   2.401   2.421
19800TIP3    H280892   5.876   2.487   2.479
19801TIP3   OH280893   1.618   6.035   4.459
19801TIP3    H180894   1.566   5.958   4.439
19801TIP3    H280895   1.651   6.020   4.548
19802TIP3   OH280896   5.411   3.244   1.395
19802TIP3    H180897   5.477   3.238   1.464
19802TIP3    H280898   5.443   3.183   1.327
19803TIP3   OH280899   0.034   0.916   4.980
19803TIP3    H180900   0.086   0.966   4.918
19803TIP3    H280901   0.068   0.940   5.066
19804TIP3   OH280902   5.843   1.769   2.833
19804TIP3    H180903   5.806   1.767   2.921
19804TIP3    H280904   5.860   1.862   2.817
19805TIP3   OH280905   3.142   3.839  12.116
19805TIP3    H180906   3.067   3.782  12.098
19805TIP3    H280907   3.103   3.920  12.148
19806TIP3   OH280908   6.202   4.917  14.994
19806TIP3    H180909   6.265   4.848  15.016
19806TIP3    H280910   6.246   4.998  15.019
19807TIP3   OH280911   4.364   4.640  15.445
19807TIP3    H180912   4.282   4.592  15.446
19807TIP3    H280913   4.377   4.664  15.354
19808TIP3   OH280914   5.449   2.756   3.192
19808TIP3    H180915   5.430   2.823   3.127
19808TIP3    H280916   5.513   2.698   3.150
19809TIP3   OH280917   1.481   1.795  14.448
19809TIP3    H180918   1.448   1.883  14.428
19809TIP3    H280919   1.448   1.740  14.378
19810TIP3   OH280920   4.649   1.732  12.089
19810TIP3    H180921   4.645   1.706  11.997
19810TIP3    H280922   4.670   1.825  12.086
19811TIP3   OH280923   5.265   4.657  16.078
19811TIP3    H180924   5.330   4.727  16.074
19811TIP3    H280925   5.255   4.628  15.987
19812TIP3   OH280926   2.131   1.624   4.519
19812TIP3    H180927   2.099   1.647   4.432
19812TIP3    H280928   2.059   1.647   4.578
19813TIP3   OH280929   0.949   1.175  14.870
19813TIP3    H180930   0.954   1.170  14.966
19813TIP3    H280931   0.999   1.099  14.840
19814TIP3   OH280932   6.354   6.242  16.015
19814TIP3    H180933   6.431   6.190  15.993
19814TIP3    H280934   6.299   6.183  16.066
19815TIP3   OH280935   1.442   4.310   2.990
19815TIP3    H180936   1.391   4.246   3.040
19815TIP3    H280937   1.532   4.279   2.996
19816TIP3   OH280938   4.580   1.808   0.863
19816TIP3    H180939   4.649   1.743   0.876
19816TIP3    H280940   4.548   1.790   0.774
19817TIP3   OH280941   0.452   5.326   3.304
19817TIP3    H180942   0.425   5.242   3.266
19817TIP3    H280943   0.443   5.314   3.398
19818TIP3   OH280944   4.403   4.715  11.906
19818TIP3    H180945   4.420   4.631  11.864
19818TIP3    H280946   4.316   4.706  11.944
19819TIP3   OH280947   0.993   0.329  12.771
19819TIP3    H180948   0.980   0.254  12.830
19819TIP3    H280949   1.075   0.311  12.726
19820TIP3   OH280950   3.103   4.578   3.956
19820TIP3    H180951   3.156   4.615   4.027
19820TIP3    H280952   3.127   4.629   3.879
19821TIP3   OH280953   4.035   3.681  11.597
19821TIP3    H180954   3.992   3.754  11.643
19821TIP3    H280955   4.106   3.723  11.548
19822TIP3   OH280956   2.888   2.512   6.232
19822TIP3    H180957   2.842   2.550   6.307
19822TIP3    H280958   2.962   2.571   6.217
19823TIP3   OH280959   4.442   0.210   1.671
19823TIP3    H180960   4.405   0.230   1.585
19823TIP3    H280961   4.488   0.127   1.659
19824TIP3   OH280962   2.837   0.989   0.972
19824TIP3    H180963   2.779   0.945   1.034
19824TIP3    H280964   2.792   0.982   0.888
19825TIP3   OH280965   0.942   6.550   3.022
19825TIP3    H180966   0.981   6.556   3.109
19825TIP3    H280967   1.017   6.561   2.962
19826TIP3   OH280968   6.563   3.231  11.033
19826TIP3    H180969   6.601   3.190  10.956
19826TIP3    H280970   6.630   3.292  11.063
19827TIP3   OH280971   1.943   4.283   5.695
19827TIP3    H180972   1.903   4.298   5.781
19827TIP3    H280973   1.961   4.371   5.662
19828TIP3   OH280974   4.792   2.849   5.595
19828TIP3    H180975   4.766   2.757   5.602
19828TIP3    H280976   4.872   2.855   5.648
19829TIP3   OH280977   6.306   3.128  12.675
19829TIP3    H180978   6.257   3.113  12.595
19829TIP3    H280979   6.301   3.223  12.690
19830TIP3   OH280980   0.258   1.125  16.029
19830TIP3    H180981   0.353   1.117  16.018
19830TIP3    H280982   0.223   1.124  15.940
19831TIP3   OH280983   2.915   5.340  17.003
19831TIP3    H180984   2.972   5.297  17.066
19831TIP3    H280985   2.976   5.385  16.943
19832TIP3   OH280986   6.358   2.654  10.296
19832TIP3    H180987   6.364   2.580  10.235
19832TIP3    H280988   6.446   2.692  10.296
19833TIP3   OH280989   0.762   5.018  15.771
19833TIP3    H180990   0.807   5.082  15.826
19833TIP3    H280991   0.823   4.944  15.766
19834TIP3   OH280992   2.090   5.575   0.793
19834TIP3    H180993   2.158   5.542   0.852
19834TIP3    H280994   2.031   5.501   0.780
19835TIP3   OH280995   0.882   6.772  13.089
19835TIP3    H180996   0.918   6.706  13.148
19835TIP3    H280997   0.790   6.747  13.080
19836TIP3   OH280998   1.463   6.558  12.547
19836TIP3    H180999   1.447   6.502  12.471
19836TIP3    H281000   1.557   6.577  12.543
19837TIP3   OH281001   2.477   1.321   5.376
19837TIP3    H181002   2.517   1.283   5.298
19837TIP3    H281003   2.533   1.395   5.398
19838TIP3   OH281004   2.438   2.364   4.580
19838TIP3    H181005   2.444   2.282   4.628
19838TIP3    H281006   2.463   2.431   4.644
19839TIP3   OH281007   5.075   0.185  16.235
19839TIP3    H181008   5.157   0.233  16.239
19839TIP3    H281009   5.064   0.149  16.323
19840TIP3   OH281010   2.071   1.338   4.339
19840TIP3    H181011   2.120   1.267   4.381
19840TIP3    H281012   2.061   1.309   4.248
19841TIP3   OH281013   6.564   5.046   4.899
19841TIP3    H181014   6.614   5.114   4.944
19841TIP3    H281015   6.564   5.073   4.807
19842TIP3   OH281016   4.388   3.280  16.945
19842TIP3    H181017   4.357   3.362  16.908
19842TIP3    H281018   4.310   3.225  16.952
19843TIP3   OH281019   0.877   0.649   4.653
19843TIP3    H181020   0.889   0.713   4.722
19843TIP3    H281021   0.793   0.607   4.673
19844TIP3   OH281022   3.013   2.014  15.104
19844TIP3    H181023   2.989   2.087  15.161
19844TIP3    H281024   3.071   1.960  15.158
19845TIP3   OH281025   1.094   5.503   3.944
19845TIP3    H181026   1.082   5.536   3.855
19845TIP3    H281027   1.183   5.531   3.968
19846TIP3   OH281028   2.399   0.512   1.212
19846TIP3    H181029   2.336   0.559   1.266
19846TIP3    H281030   2.463   0.578   1.187
19847TIP3   OH281031   1.882   4.102  11.477
19847TIP3    H181032   1.930   4.136  11.552
19847TIP3    H281033   1.791   4.129  11.492
19848TIP3   OH281034   3.772   4.263   0.369
19848TIP3    H181035   3.755   4.340   0.315
19848TIP3    H281036   3.714   4.274   0.444
19849TIP3   OH281037   4.748   1.158   0.847
19849TIP3    H181038   4.658   1.152   0.816
19849TIP3    H281039   4.800   1.112   0.780
19850TIP3   OH281040   4.643   4.167  12.176
19850TIP3    H181041   4.677   4.250  12.144
19850TIP3    H281042   4.594   4.131  12.102
19851TIP3   OH281043   1.767   6.258  12.828
19851TIP3    H181044   1.753   6.163  12.833
19851TIP3    H281045   1.771   6.286  12.919
19852TIP3   OH281046   6.090   4.586  12.626
19852TIP3    H181047   6.059   4.548  12.544
19852TIP3    H281048   6.101   4.512  12.686
19853TIP3   OH281049   1.626   4.770  16.767
19853TIP3    H181050   1.642   4.785  16.860
19853TIP3    H281051   1.713   4.766  16.728
19854TIP3   OH281052   0.382   2.168   3.492
19854TIP3    H181053   0.413   2.077   3.489
19854TIP3    H281054   0.401   2.202   3.405
19855TIP3   OH281055   4.652   0.385   3.611
19855TIP3    H181056   4.709   0.310   3.596
19855TIP3    H281057   4.599   0.392   3.532
19856TIP3   OH281058   3.431   4.420  11.586
19856TIP3    H181059   3.523   4.427  11.562
19856TIP3    H281060   3.432   4.407  11.681
19857TIP3   OH281061   3.112   1.129   2.121
19857TIP3    H181062   3.198   1.151   2.155
19857TIP3    H281063   3.064   1.212   2.120
19858TIP3   OH281064   0.354   5.851  15.036
19858TIP3    H181065   0.289   5.879  15.101
19858TIP3    H281066   0.317   5.876  14.952
19859TIP3   OH281067   6.523   3.320   2.354
19859TIP3    H181068   6.494   3.350   2.441
19859TIP3    H281069   6.604   3.368   2.338
19860TIP3   OH281070   1.087   1.997  13.408
19860TIP3    H181071   0.997   2.019  13.433
19860TIP3    H281072   1.087   2.004  13.313
19861TIP3   OH281073   2.415   5.983  12.838
19861TIP3    H181074   2.364   5.933  12.775
19861TIP3    H281075   2.501   5.994  12.796
19862TIP3   OH281076   3.993   5.640  12.191
19862TIP3    H181077   3.949   5.651  12.107
19862TIP3    H281078   3.930   5.594  12.246
19863TIP3   OH281079   1.690   5.007  13.055
19863TIP3    H181080   1.629   5.068  13.096
19863TIP3    H281081   1.672   5.015  12.961
19864TIP3   OH281082   1.246   1.625   4.225
19864TIP3    H181083   1.270   1.578   4.146
19864TIP3    H281084   1.324   1.675   4.248
19865TIP3   OH281085   3.482   2.975  15.708
19865TIP3    H181086   3.563   2.925  15.700
19865TIP3    H281087   3.480   3.029  15.629
19866TIP3   OH281088   6.198   5.714   4.960
19866TIP3    H181089   6.173   5.633   5.005
19866TIP3    H281090   6.290   5.727   4.984
19867TIP3   OH281091   1.070   4.784  14.250
19867TIP3    H181092   1.031   4.872  14.252
19867TIP3    H281093   1.163   4.801  14.234
19868TIP3   OH281094   1.168   0.689   6.591
19868TIP3    H181095   1.093   0.739   6.560
19868TIP3    H281096   1.192   0.633   6.517
19869TIP3   OH281097   1.917   2.331   2.857
19869TIP3    H181098   1.884   2.407   2.810
19869TIP3    H281099   2.000   2.361   2.896
19870TIP3   OH281100   2.200   5.509   3.424
19870TIP3    H181101   2.123   5.557   3.395
19870TIP3    H281102   2.206   5.433   3.366
19871TIP3   OH281103   0.035   4.377   3.110
19871TIP3    H181104   0.088   4.312   3.064
19871TIP3    H281105   0.096   4.446   3.134
19872TIP3   OH281106   5.058   3.192   3.655
19872TIP3    H181107   5.087   3.214   3.744
19872TIP3    H281108   5.110   3.250   3.598
19873TIP3   OH281109   3.172   3.274   3.196
19873TIP3    H181110   3.231   3.221   3.142
19873TIP3    H281111   3.215   3.359   3.201
19874TIP3   OH281112   5.098   4.735   6.336
19874TIP3    H181113   5.062   4.773   6.416
19874TIP3    H281114   5.039   4.764   6.266
19875TIP3   OH281115   3.242   4.959   5.101
19875TIP3    H181116   3.168   4.970   5.161
19875TIP3    H281117   3.205   4.971   5.014
19876TIP3   OH281118   5.203   6.339  11.543
19876TIP3    H181119   5.132   6.397  11.515
19876TIP3    H281120   5.258   6.329  11.465
19877TIP3   OH281121   1.874   2.565  12.478
19877TIP3    H181122   1.928   2.538  12.404
19877TIP3    H281123   1.841   2.483  12.516
19878TIP3   OH281124   2.190   2.123   4.705
19878TIP3    H181125   2.126   2.076   4.758
19878TIP3    H281126   2.273   2.110   4.751
19879TIP3   OH281127   0.487   6.007  17.177
19879TIP3    H181128   0.576   5.977  17.159
19879TIP3    H281129   0.490   6.034  17.269
19880TIP3   OH281130   4.111   2.703   1.000
19880TIP3    H181131   4.041   2.745   1.050
19880TIP3    H281132   4.167   2.776   0.973
19881TIP3   OH281133   4.679   4.997  13.671
19881TIP3    H181134   4.618   5.039  13.733
19881TIP3    H281135   4.717   5.070  13.622
19882TIP3   OH281136   3.086   3.997  15.170
19882TIP3    H181137   3.181   4.000  15.159
19882TIP3    H281138   3.054   3.955  15.090
19883TIP3   OH281139   4.934   5.485   4.051
19883TIP3    H181140   4.994   5.559   4.064
19883TIP3    H281141   4.859   5.505   4.107
19884TIP3   OH281142   0.554   4.462  15.523
19884TIP3    H181143   0.555   4.533  15.459
19884TIP3    H281144   0.539   4.506  15.607
19885TIP3   OH281145   1.183   2.987  15.904
19885TIP3    H181146   1.097   3.029  15.908
19885TIP3    H281147   1.168   2.907  15.853
19886TIP3   OH281148   6.415   3.762   0.138
19886TIP3    H181149   6.369   3.709   0.072
19886TIP3    H281150   6.376   3.850   0.129
19887TIP3   OH281151   1.747   1.009  14.461
19887TIP3    H181152   1.710   0.965  14.538
19887TIP3    H281153   1.801   1.079  14.497
19888TIP3   OH281154   6.487   5.275   3.009
19888TIP3    H181155   6.466   5.184   2.989
19888TIP3    H281156   6.402   5.315   3.026
19889TIP3   OH281157   0.273   1.263  10.582
19889TIP3    H181158   0.229   1.177  10.576
19889TIP3    H281159   0.297   1.283  10.491
19890TIP3   OH281160   3.071   4.351  12.176
19890TIP3    H181161   3.030   4.405  12.242
19890TIP3    H281162   3.059   4.399  12.094
19891TIP3   OH281163   6.518   6.458  14.885
19891TIP3    H181164   6.529   6.439  14.978
19891TIP3    H281165   6.451   6.396  14.856
19892TIP3   OH281166   0.769   2.610   1.382
19892TIP3    H181167   0.680   2.645   1.383
19892TIP3    H281168   0.768   2.542   1.314
19893TIP3   OH281169   1.404   0.929   1.571
19893TIP3    H181170   1.435   0.952   1.483
19893TIP3    H281171   1.332   0.869   1.556
19894TIP3   OH281172   3.476   4.783  11.362
19894TIP3    H181173   3.428   4.702  11.381
19894TIP3    H281174   3.554   4.754  11.315
19895TIP3   OH281175   0.558   4.320  16.759
19895TIP3    H181176   0.521   4.312  16.671
19895TIP3    H281177   0.582   4.230  16.783
19896TIP3   OH281178   1.543   1.117  11.178
19896TIP3    H181179   1.623   1.069  11.155
19896TIP3    H281180   1.472   1.059  11.154
19897TIP3   OH281181   4.664   6.778  10.581
19897TIP3    H181182   4.683   6.688  10.605
19897TIP3    H281183   4.719   6.796  10.505
19898TIP3   OH281184   6.640   0.397   1.446
19898TIP3    H181185   6.670   0.306   1.439
19898TIP3    H281186   6.545   0.391   1.449
19899TIP3   OH281187   0.615   1.044   3.591
19899TIP3    H181188   0.613   1.070   3.683
19899TIP3    H281189   0.704   1.063   3.563
19900TIP3   OH281190   0.083   1.989  15.993
19900TIP3    H181191   0.131   2.013  16.072
19900TIP3    H281192   0.062   1.896  16.004
19901TIP3   OH281193   5.795   6.009   0.868
19901TIP3    H181194   5.832   6.046   0.948
19901TIP3    H281195   5.809   6.076   0.802
19902TIP3   OH281196   1.247   0.467  11.850
19902TIP3    H181197   1.197   0.385  11.857
19902TIP3    H281198   1.338   0.440  11.857
19903TIP3   OH281199   3.218   3.412  15.948
19903TIP3    H181200   3.297   3.404  16.001
19903TIP3    H281201   3.249   3.398  15.858
19904TIP3   OH281202   2.827   1.435   6.148
19904TIP3    H181203   2.836   1.358   6.205
19904TIP3    H281204   2.829   1.509   6.208
19905TIP3   OH281205   1.094   4.993   1.401
19905TIP3    H181206   1.138   4.965   1.321
19905TIP3    H281207   1.102   5.088   1.400
19906TIP3   OH281208   5.140   1.977  17.053
19906TIP3    H181209   5.048   1.974  17.026
19906TIP3    H281210   5.188   1.989  16.971
19907TIP3   OH281211   1.725   2.636   3.440
19907TIP3    H181212   1.709   2.716   3.390
19907TIP3    H281213   1.679   2.649   3.523
19908TIP3   OH281214   4.770   1.799  15.579
19908TIP3    H181215   4.689   1.755  15.607
19908TIP3    H281216   4.771   1.881  15.629
19909TIP3   OH281217   2.845   5.659   0.242
19909TIP3    H181218   2.792   5.648   0.321
19909TIP3    H281219   2.809   5.596   0.180
19910TIP3   OH281220   5.227   3.274  15.103
19910TIP3    H181221   5.276   3.259  15.183
19910TIP3    H281222   5.143   3.229  15.117
19911TIP3   OH281223   2.426   3.684  14.942
19911TIP3    H181224   2.366   3.664  15.014
19911TIP3    H281225   2.452   3.775  14.958
19912TIP3   OH281226   1.640   1.445  12.796
19912TIP3    H181227   1.726   1.413  12.825
19912TIP3    H281228   1.659   1.531  12.758
19913TIP3   OH281229   0.582   2.559  12.007
19913TIP3    H181230   0.633   2.550  11.926
19913TIP3    H281231   0.616   2.639  12.047
19914TIP3   OH281232   3.380   0.519   0.849
19914TIP3    H181233   3.362   0.613   0.849
19914TIP3    H281234   3.305   0.481   0.895
19915TIP3   OH281235   5.427   6.193  16.761
19915TIP3    H181236   5.332   6.195  16.770
19915TIP3    H281237   5.459   6.174  16.849
19916TIP3   OH281238   0.365   5.394   1.131
19916TIP3    H181239   0.269   5.396   1.120
19916TIP3    H281240   0.398   5.407   1.042
19917TIP3   OH281241   3.925   2.251   2.748
19917TIP3    H181242   4.001   2.308   2.758
19917TIP3    H281243   3.858   2.307   2.708
19918TIP3   OH281244   6.771   2.495  15.673
19918TIP3    H181245   6.694   2.451  15.637
19918TIP3    H281246   6.787   2.451  15.757
19919TIP3   OH281247   5.535   3.106  16.253
19919TIP3    H181248   5.514   3.064  16.169
19919TIP3    H281249   5.630   3.105  16.256
19920TIP3   OH281250   0.401   4.774   0.456
19920TIP3    H181251   0.389   4.839   0.387
19920TIP3    H281252   0.487   4.735   0.437
19921TIP3   OH281253   3.922   0.829   2.801
19921TIP3    H181254   3.873   0.749   2.785
19921TIP3    H281255   3.914   0.844   2.895
19922TIP3   OH281256   1.522   2.602  13.970
19922TIP3    H181257   1.429   2.605  13.991
19922TIP3    H281258   1.530   2.651  13.888
19923TIP3   OH281259   2.162   4.107  16.615
19923TIP3    H181260   2.068   4.093  16.628
19923TIP3    H281261   2.168   4.163  16.538
19924TIP3   OH281262   2.664   3.540   2.393
19924TIP3    H181263   2.709   3.457   2.381
19924TIP3    H281264   2.677   3.561   2.486
19925TIP3   OH281265   2.606   0.564  14.568
19925TIP3    H181266   2.539   0.563  14.500
19925TIP3    H281267   2.659   0.642  14.547
19926TIP3   OH281268   6.167   3.609  13.685
19926TIP3    H181269   6.143   3.535  13.629
19926TIP3    H281270   6.249   3.642  13.648
19927TIP3   OH281271   5.044   2.100   6.377
19927TIP3    H181272   5.063   2.191   6.403
19927TIP3    H281273   5.109   2.082   6.309
19928TIP3   OH281274   2.362   0.172  14.412
19928TIP3    H181275   2.394   0.180  14.322
19928TIP3    H281276   2.358   0.077  14.426
19929TIP3   OH281277   4.394   0.568   4.414
19929TIP3    H181278   4.352   0.648   4.445
19929TIP3    H281279   4.324   0.503   4.414
19930TIP3   OH281280   6.451   5.459   3.469
19930TIP3    H181281   6.507   5.416   3.404
19930TIP3    H281282   6.510   5.485   3.539
19931TIP3   OH281283   5.101   4.043   1.242
19931TIP3    H181284   5.131   4.097   1.169
19931TIP3    H281285   5.016   4.080   1.267
19932TIP3   OH281286   3.607   5.665   2.791
19932TIP3    H181287   3.542   5.623   2.846
19932TIP3    H281288   3.586   5.636   2.702
19933TIP3   OH281289   2.049   2.534  14.810
19933TIP3    H181290   2.120   2.470  14.817
19933TIP3    H281291   2.091   2.617  14.833
19934TIP3   OH281292   1.933   6.021   0.267
19934TIP3    H181293   1.951   6.007   0.174
19934TIP3    H281294   1.926   5.934   0.304
19935TIP3   OH281295   6.615   1.086   2.028
19935TIP3    H181296   6.709   1.085   2.044
19935TIP3    H281297   6.595   1.179   2.014
19936TIP3   OH281298   6.664   2.319  13.453
19936TIP3    H181299   6.699   2.384  13.515
19936TIP3    H281300   6.739   2.296  13.398
19937TIP3   OH281301   4.384   1.829  16.175
19937TIP3    H181302   4.406   1.776  16.099
19937TIP3    H281303   4.427   1.784  16.248
19938TIP3   OH281304   4.010   3.480  13.783
19938TIP3    H181305   3.991   3.514  13.696
19938TIP3    H281306   4.003   3.385  13.774
19939TIP3   OH281307   3.811   5.875   1.883
19939TIP3    H181308   3.864   5.804   1.919
19939TIP3    H281309   3.855   5.898   1.801
19940TIP3   OH281310   2.842   4.266  10.810
19940TIP3    H181311   2.881   4.315  10.882
19940TIP3    H281312   2.903   4.193  10.795
19941TIP3   OH281313   0.104   3.680  11.742
19941TIP3    H181314   0.132   3.598  11.701
19941TIP3    H281315   0.184   3.719  11.775
19942TIP3   OH281316   3.711   4.584  15.242
19942TIP3    H181317   3.761   4.634  15.306
19942TIP3    H281318   3.659   4.523  15.294
19943TIP3   OH281319   3.448   5.426   5.578
19943TIP3    H181320   3.465   5.472   5.660
19943TIP3    H281321   3.361   5.455   5.552
19944TIP3   OH281322   4.097   6.650  12.484
19944TIP3    H181323   4.092   6.576  12.423
19944TIP3    H281324   4.114   6.726  12.428
19945TIP3   OH281325   5.795   0.378  17.058
19945TIP3    H181326   5.823   0.428  17.134
19945TIP3    H281327   5.706   0.350  17.078
19946TIP3   OH281328   2.109   6.105   0.877
19946TIP3    H181329   2.013   6.107   0.872
19946TIP3    H281330   2.132   6.015   0.853
19947TIP3   OH281331   4.860   2.538  13.439
19947TIP3    H181332   4.954   2.520  13.451
19947TIP3    H281333   4.816   2.467  13.485
19948TIP3   OH281334   2.091   6.074   1.250
19948TIP3    H181335   2.052   6.140   1.193
19948TIP3    H281336   2.018   6.040   1.301
19949TIP3   OH281337   2.861   3.367  11.284
19949TIP3    H181338   2.827   3.454  11.260
19949TIP3    H281339   2.860   3.318  11.202
19950TIP3   OH281340   2.937   0.725   5.120
19950TIP3    H181341   3.013   0.772   5.154
19950TIP3    H281342   2.900   0.784   5.054
19951TIP3   OH281343   4.584   4.601   0.644
19951TIP3    H181344   4.522   4.674   0.637
19951TIP3    H281345   4.561   4.543   0.571
19952TIP3   OH281346   1.350   6.014  11.456
19952TIP3    H181347   1.328   5.927  11.423
19952TIP3    H281348   1.445   6.016  11.459
19953TIP3   OH281349   2.941   4.757   1.845
19953TIP3    H181350   2.888   4.831   1.814
19953TIP3    H281351   2.978   4.719   1.765
19954TIP3   OH281352   2.153   5.279   3.249
19954TIP3    H181353   2.082   5.229   3.209
19954TIP3    H281354   2.213   5.213   3.282
19955TIP3   OH281355   6.185   5.385   6.485
19955TIP3    H181356   6.184   5.315   6.420
19955TIP3    H281357   6.229   5.346   6.561
19956TIP3   OH281358   5.522   6.142  14.780
19956TIP3    H181359   5.447   6.122  14.835
19956TIP3    H281360   5.560   6.221  14.818
19957TIP3   OH281361   5.402   0.250   1.003
19957TIP3    H181362   5.332   0.305   0.968
19957TIP3    H281363   5.365   0.163   1.006
19958TIP3   OH281364   4.985   5.032  16.914
19958TIP3    H181365   5.061   5.090  16.902
19958TIP3    H281366   5.021   4.944  16.907
19959TIP3   OH281367   4.647   5.755  13.432
19959TIP3    H181368   4.730   5.777  13.474
19959TIP3    H281369   4.581   5.789  13.491
19960TIP3   OH281370   3.861   2.712  14.979
19960TIP3    H181371   3.829   2.634  15.023
19960TIP3    H281372   3.885   2.682  14.891
19961TIP3   OH281373   5.189   3.938  15.371
19961TIP3    H181374   5.243   3.995  15.425
19961TIP3    H281375   5.122   3.904  15.430
19962TIP3   OH281376   2.956   4.029   4.397
19962TIP3    H181377   2.988   3.962   4.457
19962TIP3    H281378   3.035   4.063   4.354
19963TIP3   OH281379   0.870   1.383  11.399
19963TIP3    H181380   0.961   1.388  11.428
19963TIP3    H281381   0.860   1.455  11.336
19964TIP3   OH281382   0.960   0.840   3.694
19964TIP3    H181383   0.924   0.911   3.642
19964TIP3    H281384   1.037   0.811   3.645
19965TIP3   OH281385   1.562   2.130   6.217
19965TIP3    H181386   1.472   2.163   6.223
19965TIP3    H281387   1.570   2.070   6.291
19966TIP3   OH281388   0.169   1.454   2.739
19966TIP3    H181389   0.229   1.431   2.810
19966TIP3    H281390   0.202   1.538   2.706
19967TIP3   OH281391   0.835   4.311   1.955
19967TIP3    H181392   0.805   4.401   1.970
19967TIP3    H281393   0.809   4.291   1.866
19968TIP3   OH281394   4.122   6.151   1.170
19968TIP3    H181395   4.058   6.081   1.172
19968TIP3    H281396   4.082   6.219   1.116
19969TIP3   OH281397   1.225   2.758   5.434
19969TIP3    H181398   1.314   2.761   5.399
19969TIP3    H281399   1.230   2.693   5.505
19970TIP3   OH281400   3.671   5.362   0.449
19970TIP3    H181401   3.579   5.346   0.471
19970TIP3    H281402   3.669   5.439   0.391
19971TIP3   OH281403   3.353   5.539  13.245
19971TIP3    H181404   3.325   5.599  13.314
19971TIP3    H281405   3.297   5.559  13.170
19972TIP3   OH281406   4.743   3.893  11.298
19972TIP3    H181407   4.719   3.936  11.215
19972TIP3    H281408   4.819   3.942  11.328
19973TIP3   OH281409   6.340   2.401   3.788
19973TIP3    H181410   6.371   2.318   3.753
19973TIP3    H281411   6.420   2.447   3.814
19974TIP3   OH281412   3.129   3.590   4.007
19974TIP3    H181413   3.057   3.549   3.958
19974TIP3    H281414   3.146   3.531   4.080
19975TIP3   OH281415   5.715   3.018   2.444
19975TIP3    H181416   5.680   3.057   2.523
19975TIP3    H281417   5.786   2.961   2.474
19976TIP3   OH281418   1.804   3.076   0.030
19976TIP3    H181419   1.721   3.104  -0.007
19976TIP3    H281420   1.802   2.981   0.024
19977TIP3   OH281421   5.396   5.940   3.450
19977TIP3    H181422   5.303   5.936   3.431
19977TIP3    H281423   5.402   5.943   3.546
19978TIP3   OH281424   5.859   2.305  11.710
19978TIP3    H181425   5.790   2.260  11.661
19978TIP3    H281426   5.823   2.392  11.727
19979TIP3   OH281427   2.746   2.122   1.379
19979TIP3    H181428   2.693   2.186   1.426
19979TIP3    H281429   2.692   2.099   1.302
19980TIP3   OH281430   5.079   3.073  11.123
19980TIP3    H181431   5.013   3.031  11.068
19980TIP3    H281432   5.075   3.165  11.099
19981TIP3   OH281433   6.500   2.939   1.636
19981TIP3    H181434   6.543   2.956   1.720
19981TIP3    H281435   6.431   3.005   1.631
19982TIP3   OH281436   2.409   0.819  16.373
19982TIP3    H181437   2.370   0.792  16.456
19982TIP3    H281438   2.478   0.880  16.398
19983TIP3   OH281439   5.833   0.628   5.768
19983TIP3    H181440   5.774   0.700   5.744
19983TIP3    H281441   5.900   0.669   5.822
19984TIP3   OH281442   1.992   2.053   2.382
19984TIP3    H181443   1.965   2.140   2.353
19984TIP3    H281444   1.930   1.993   2.340
19985TIP3   OH281445   3.717   1.699   0.257
19985TIP3    H181446   3.781   1.756   0.214
19985TIP3    H281447   3.770   1.643   0.314
19986TIP3   OH281448   2.244   4.060   1.437
19986TIP3    H181449   2.166   4.008   1.452
19986TIP3    H281450   2.259   4.106   1.520
19987TIP3   OH281451   2.934   3.263   1.840
19987TIP3    H181452   2.913   3.322   1.913
19987TIP3    H281453   2.978   3.319   1.776
19988TIP3   OH281454   6.075   2.152   4.614
19988TIP3    H181455   6.063   2.161   4.708
19988TIP3    H281456   5.992   2.115   4.583
19989TIP3   OH281457   4.417   5.075  16.205
19989TIP3    H181458   4.470   5.006  16.245
19989TIP3    H281459   4.377   5.033  16.128
19990TIP3   OH281460   3.822   0.674  15.427
19990TIP3    H181461   3.857   0.763  15.417
19990TIP3    H281462   3.896   0.622  15.459
19991TIP3   OH281463   4.849   5.260   3.266
19991TIP3    H181464   4.912   5.250   3.337
19991TIP3    H281465   4.885   5.330   3.211
19992TIP3   OH281466   3.852   2.903   2.262
19992TIP3    H181467   3.905   2.881   2.339
19992TIP3    H281468   3.762   2.905   2.294
19993TIP3   OH281469   5.000   2.139  15.428
19993TIP3    H181470   5.024   2.047  15.420
19993TIP3    H281471   4.926   2.150  15.369
19994TIP3   OH281472   4.318   6.772   3.774
19994TIP3    H181473   4.335   6.705   3.840
19994TIP3    H281474   4.229   6.803   3.793
19995TIP3   OH281475   6.664   2.511  13.651
19995TIP3    H181476   6.620   2.596  13.661
19995TIP3    H281477   6.745   2.520  13.702
19996TIP3   OH281478   1.698   6.281   3.207
19996TIP3    H181479   1.610   6.301   3.242
19996TIP3    H281480   1.705   6.186   3.213
19997TIP3   OH281481   3.603   5.428  16.121
19997TIP3    H181482   3.565   5.405  16.206
19997TIP3    H281483   3.656   5.505  16.138
19998TIP3   OH281484   2.870   6.630  12.906
19998TIP3    H181485   2.848   6.620  12.999
19998TIP3    H281486   2.797   6.680  12.870
19999TIP3   OH281487   2.055   5.370  14.992
19999TIP3    H181488   2.128   5.340  14.936
19999TIP3    H281489   2.060   5.465  14.988
20000TIP3   OH281490   0.218   3.830   5.535
20000TIP3    H181491   0.238   3.737   5.549
20000TIP3    H281492   0.226   3.869   5.622
20001TIP3   OH281493   5.901   0.546  13.970
20001TIP3    H181494   5.831   0.485  13.946
20001TIP3    H281495   5.964   0.491  14.018
20002TIP3   OH281496   0.199   2.830  11.775
20002TIP3    H181497   0.183   2.737  11.759
20002TIP3    H281498   0.170   2.874  11.695
20003TIP3   OH281499   2.934   2.656   3.725
20003TIP3    H181500   2.996   2.648   3.653
20003TIP3    H281501   2.868   2.589   3.707
20004TIP3   OH281502   4.253   1.785   0.785
20004TIP3    H181503   4.348   1.797   0.776
20004TIP3    H281504   4.231   1.829   0.867
20005TIP3   OH281505   1.943   4.153  14.507
20005TIP3    H181506   1.866   4.153  14.450
20005TIP3    H281507   1.981   4.066  14.496
20006TIP3   OH281508   0.971   5.696   0.401
20006TIP3    H181509   0.971   5.754   0.325
20006TIP3    H281510   0.914   5.623   0.376
20007TIP3   OH281511   0.188   4.961   1.367
20007TIP3    H181512   0.265   5.015   1.351
20007TIP3    H281513   0.150   4.948   1.280
20008TIP3   OH281514   0.088   2.113  15.269
20008TIP3    H181515   0.024   2.121  15.340
20008TIP3    H281516   0.064   2.032  15.224
20009TIP3   OH281517   4.267   4.195   0.618
20009TIP3    H181518   4.243   4.149   0.537
20009TIP3    H281519   4.341   4.146   0.653
20010TIP3   OH281520   3.518   6.554  16.388
20010TIP3    H181521   3.543   6.504  16.465
20010TIP3    H281522   3.430   6.522  16.366
20011TIP3   OH281523   5.217   4.127   4.282
20011TIP3    H181524   5.288   4.184   4.313
20011TIP3    H281525   5.233   4.118   4.189
20012TIP3   OH281526   6.052   5.493  11.826
20012TIP3    H181527   6.108   5.569  11.842
20012TIP3    H281528   5.965   5.523  11.853
20013TIP3   OH281529   5.068   6.595   2.660
20013TIP3    H181530   5.129   6.530   2.692
20013TIP3    H281531   5.061   6.658   2.732
20014TIP3   OH281532   1.980   0.749   2.340
20014TIP3    H181533   1.958   0.775   2.251
20014TIP3    H281534   1.991   0.654   2.335
20015TIP3   OH281535   0.110   1.965   1.582
20015TIP3    H181536   0.187   1.907   1.577
20015TIP3    H281537   0.130   2.024   1.655
20016TIP3   OH281538   3.638   5.998  15.082
20016TIP3    H181539   3.580   6.013  15.156
20016TIP3    H281540   3.589   5.940  15.024
20017TIP3   OH281541   4.477   2.033  16.505
20017TIP3    H181542   4.495   2.126  16.487
20017TIP3    H281543   4.494   1.989  16.422
20018TIP3   OH281544   0.083   0.503  14.437
20018TIP3    H181545   0.113   0.583  14.480
20018TIP3    H281546  -0.005   0.489  14.472
20019TIP3   OH281547   1.354   3.638  12.084
20019TIP3    H181548   1.279   3.661  12.029
20019TIP3    H281549   1.317   3.583  12.153
20020TIP3   OH281550   0.984   3.813  17.178
20020TIP3    H181551   1.010   3.843  17.266
20020TIP3    H281552   0.899   3.855  17.163
20021TIP3   OH281553   3.233   3.991   4.858
20021TIP3    H181554   3.310   4.039   4.828
20021TIP3    H281555   3.181   4.056   4.904
20022TIP3   OH281556   5.334   2.827  15.129
20022TIP3    H181557   5.246   2.824  15.166
20022TIP3    H281558   5.320   2.830  15.034
20023TIP3   OH281559   3.592   2.529   2.745
20023TIP3    H181560   3.627   2.576   2.820
20023TIP3    H281561   3.670   2.502   2.696
20024TIP3   OH281562   0.336   5.459   5.010
20024TIP3    H181563   0.328   5.411   4.928
20024TIP3    H281564   0.348   5.391   5.077
20025TIP3   OH281565   2.312   6.545  13.647
20025TIP3    H181566   2.295   6.522  13.738
20025TIP3    H281567   2.381   6.612  13.652
20026TIP3   OH281568   5.911   0.057  11.729
20026TIP3    H181569   5.899   0.143  11.770
20026TIP3    H281570   5.901   0.074  11.635
20027TIP3   OH281571   0.322   5.617   3.487
20027TIP3    H181572   0.371   5.634   3.567
20027TIP3    H281573   0.245   5.674   3.493
20028TIP3   OH281574   1.225   5.031  12.825
20028TIP3    H181575   1.281   5.006  12.898
20028TIP3    H281576   1.180   4.950  12.800
20029TIP3   OH281577   4.593   6.296  15.375
20029TIP3    H181578   4.665   6.295  15.437
20029TIP3    H281579   4.516   6.317  15.428
20030TIP3   OH281580   2.737   3.505   4.256
20030TIP3    H181581   2.696   3.538   4.176
20030TIP3    H281582   2.789   3.431   4.227
20031TIP3   OH281583   2.952   0.021  13.242
20031TIP3    H181584   2.948  -0.057  13.297
20031TIP3    H281585   3.036   0.061  13.263
20032TIP3   OH281586   1.941   5.332  10.911
20032TIP3    H181587   1.909   5.340  10.821
20032TIP3    H281588   2.035   5.322  10.902
20033TIP3   OH281589   1.202   5.866   5.172
20033TIP3    H181590   1.139   5.826   5.112
20033TIP3    H281591   1.284   5.866   5.123
20034TIP3   OH281592   4.638   1.365  15.611
20034TIP3    H181593   4.608   1.454  15.593
20034TIP3    H281594   4.660   1.365  15.704
20035TIP3   OH281595   5.250   0.058   5.861
20035TIP3    H181596   5.306  -0.018   5.845
20035TIP3    H281597   5.239   0.059   5.956
20036TIP3   OH281598   2.388   4.763  13.593
20036TIP3    H181599   2.388   4.668  13.601
20036TIP3    H281600   2.398   4.780  13.500
20037TIP3   OH281601   0.889   2.689   6.536
20037TIP3    H181602   0.862   2.733   6.455
20037TIP3    H281603   0.821   2.712   6.600
20038TIP3   OH281604   5.556   1.262  17.017
20038TIP3    H181605   5.613   1.279  16.942
20038TIP3    H281606   5.580   1.328  17.082
20039TIP3   OH281607   4.216   0.198   2.092
20039TIP3    H181608   4.207   0.129   2.158
20039TIP3    H281609   4.276   0.161   2.027
20040TIP3   OH281610   4.877   3.986   2.047
20040TIP3    H181611   4.864   3.952   1.958
20040TIP3    H281612   4.789   4.003   2.079
20041TIP3   OH281613   6.719   3.765   2.993
20041TIP3    H181614   6.798   3.734   2.948
20041TIP3    H281615   6.701   3.850   2.953
20042TIP3   OH281616   6.016   3.426   1.074
20042TIP3    H181617   6.007   3.521   1.071
20042TIP3    H281618   6.084   3.410   1.140
20043TIP3   OH281619   5.507   3.126   0.701
20043TIP3    H181620   5.530   3.139   0.609
20043TIP3    H281621   5.429   3.180   0.715
20044TIP3   OH281622   4.510   1.094  12.508
20044TIP3    H181623   4.447   1.161  12.535
20044TIP3    H281624   4.533   1.048  12.589
20045TIP3   OH281625   4.241   1.365   2.870
20045TIP3    H181626   4.274   1.386   2.958
20045TIP3    H281627   4.300   1.296   2.839
20046TIP3   OH281628   6.392   5.395   5.552
20046TIP3    H181629   6.394   5.326   5.486
20046TIP3    H281630   6.337   5.463   5.515
20047TIP3   OH281631   5.675   3.638   0.990
20047TIP3    H181632   5.640   3.727   0.990
20047TIP3    H281633   5.760   3.645   1.033
20048TIP3   OH281634   1.172   6.508   4.082
20048TIP3    H181635   1.094   6.513   4.137
20048TIP3    H281636   1.150   6.556   4.003
20049TIP3   OH281637   2.627   3.399  13.749
20049TIP3    H181638   2.666   3.465  13.692
20049TIP3    H281639   2.539   3.433  13.768
20050TIP3   OH281640   5.328   4.938  14.269
20050TIP3    H181641   5.322   4.929  14.364
20050TIP3    H281642   5.383   4.864  14.242
20051TIP3   OH281643   4.855   1.402  10.826
20051TIP3    H181644   4.814   1.480  10.863
20051TIP3    H281645   4.785   1.358  10.778
20052TIP3   OH281646   3.542   1.609   2.137
20052TIP3    H181647   3.458   1.613   2.090
20052TIP3    H281648   3.552   1.696   2.176
20053TIP3   OH281649   5.696   3.856   4.321
20053TIP3    H181650   5.601   3.857   4.335
20053TIP3    H281651   5.706   3.836   4.228
20054TIP3   OH281652   0.948   2.848   1.330
20054TIP3    H181653   0.872   2.903   1.313
20054TIP3    H281654   0.912   2.764   1.358
20055TIP3   OH281655   2.273   1.349   0.175
20055TIP3    H181656   2.250   1.415   0.240
20055TIP3    H281657   2.339   1.391   0.120
20056TIP3   OH281658   5.529   2.643  11.007
20056TIP3    H181659   5.592   2.628  10.937
20056TIP3    H281660   5.477   2.718  10.976
20057TIP3   OH281661   0.053   2.224   2.484
20057TIP3    H181662   0.148   2.222   2.481
20057TIP3    H281663   0.029   2.143   2.531
20058TIP3   OH281664   2.268   0.874   4.645
20058TIP3    H181665   2.320   0.903   4.570
20058TIP3    H281666   2.220   0.797   4.613
20059TIP3   OH281667   3.013   1.809   1.497
20059TIP3    H181668   3.013   1.836   1.588
20059TIP3    H281669   2.988   1.716   1.500
20060TIP3   OH281670   1.814   5.613  12.413
20060TIP3    H181671   1.895   5.564  12.427
20060TIP3    H281672   1.791   5.648  12.499
20061TIP3   OH281673   6.349   3.842   1.289
20061TIP3    H181674   6.395   3.801   1.362
20061TIP3    H281675   6.293   3.772   1.254
20062TIP3   OH281676   2.213   4.136   0.887
20062TIP3    H181677   2.211   4.043   0.911
20062TIP3    H281678   2.274   4.176   0.949
20063TIP3   OH281679   5.793   1.555  14.962
20063TIP3    H181680   5.776   1.483  14.901
20063TIP3    H281681   5.855   1.612  14.916
20064TIP3   OH281682   1.173   1.772  16.991
20064TIP3    H181683   1.141   1.841  16.932
20064TIP3    H281684   1.210   1.706  16.932
20065TIP3   OH281685   1.782   0.181   5.569
20065TIP3    H181686   1.869   0.144   5.551
20065TIP3    H281687   1.801   0.272   5.594
20066TIP3   OH281688   1.229   2.125   1.539
20066TIP3    H181689   1.301   2.071   1.572
20066TIP3    H281690   1.273   2.201   1.500
20067TIP3   OH281691   3.994   5.464   0.290
20067TIP3    H181692   4.045   5.438   0.367
20067TIP3    H281693   3.980   5.558   0.302
20068TIP3   OH281694   5.802   2.351  15.478
20068TIP3    H181695   5.894   2.339  15.502
20068TIP3    H281696   5.755   2.288  15.532
20069TIP3   OH281697   6.447   3.741  15.993
20069TIP3    H181698   6.530   3.693  15.991
20069TIP3    H281699   6.416   3.740  15.902
20070TIP3   OH281700   3.751   2.057  13.944
20070TIP3    H181701   3.725   2.038  13.853
20070TIP3    H281702   3.775   2.149  13.943
20071TIP3   OH281703   6.446   6.109   0.627
20071TIP3    H181704   6.478   6.035   0.678
20071TIP3    H281705   6.371   6.074   0.579
20072TIP3   OH281706   1.305   3.698  13.673
20072TIP3    H181707   1.365   3.632  13.707
20072TIP3    H281708   1.246   3.715  13.747
20073TIP3   OH281709   2.123   2.283  13.959
20073TIP3    H181710   2.029   2.297  13.945
20073TIP3    H281711   2.138   2.314  14.048
20074TIP3   OH281712   4.506   1.098  14.907
20074TIP3    H181713   4.497   1.189  14.879
20074TIP3    H281714   4.525   1.103  15.001
20075TIP3   OH281715   1.980   3.410  15.666
20075TIP3    H181716   2.056   3.372  15.710
20075TIP3    H281717   1.960   3.349  15.595
20076TIP3   OH281718   2.054   2.344  15.823
20076TIP3    H181719   2.081   2.330  15.914
20076TIP3    H281720   2.100   2.276  15.774
20077TIP3   OH281721   1.300   5.131   6.606
20077TIP3    H181722   1.237   5.072   6.565
20077TIP3    H281723   1.247   5.207   6.633
20078TIP3   OH281724   4.817   1.234  16.883
20078TIP3    H181725   4.753   1.295  16.919
20078TIP3    H281726   4.899   1.254  16.928
20079TIP3   OH281727   1.900   6.222  14.700
20079TIP3    H181728   1.893   6.276  14.622
20079TIP3    H281729   1.815   6.228  14.742
20080TIP3   OH281730   6.000   5.671   3.362
20080TIP3    H181731   6.055   5.595   3.381
20080TIP3    H281732   5.944   5.680   3.439
20081TIP3   OH281733   5.444   0.646  17.031
20081TIP3    H181734   5.362   0.695  17.035
20081TIP3    H281735   5.436   0.579  17.099
20082TIP3   OH281736   0.434   1.880   4.623
20082TIP3    H181737   0.515   1.929   4.610
20082TIP3    H281738   0.371   1.946   4.653
20083TIP3   OH281739   0.257   0.191   5.121
20083TIP3    H181740   0.202   0.211   5.045
20083TIP3    H281741   0.262   0.096   5.123
20084TIP3   OH281742   1.633   6.535   0.447
20084TIP3    H181743   1.618   6.556   0.539
20084TIP3    H281744   1.717   6.575   0.427
20085TIP3   OH281745   6.552   2.653   2.822
20085TIP3    H181746   6.584   2.674   2.909
20085TIP3    H281747   6.473   2.707   2.813
20086TIP3   OH281748   6.574   1.281   4.073
20086TIP3    H181749   6.667   1.301   4.082
20086TIP3    H281750   6.533   1.324   4.148
20087TIP3   OH281751   0.460   5.785   6.397
20087TIP3    H181752   0.384   5.731   6.422
20087TIP3    H281753   0.442   5.871   6.434
20088TIP3   OH281754   1.903   3.529  14.748
20088TIP3    H181755   1.990   3.545  14.787
20088TIP3    H281756   1.848   3.507  14.823
20089TIP3   OH281757   0.191   0.870   2.534
20089TIP3    H181758   0.264   0.920   2.570
20089TIP3    H281759   0.184   0.899   2.443
20090TIP3   OH281760   5.193   2.285   5.040
20090TIP3    H181761   5.187   2.298   4.946
20090TIP3    H281762   5.111   2.317   5.075
20091TIP3   OH281763   1.211   0.050   0.485
20091TIP3    H181764   1.152   0.126   0.479
20091TIP3    H281765   1.297   0.084   0.463
20092TIP3   OH281766   2.038   4.759   2.692
20092TIP3    H181767   2.083   4.792   2.614
20092TIP3    H281768   1.965   4.708   2.657
20093TIP3   OH281769   6.564   0.908   6.221
20093TIP3    H181770   6.549   0.817   6.195
20093TIP3    H281771   6.493   0.957   6.180
20094TIP3   OH281772   2.068   0.031   1.713
20094TIP3    H181773   1.980   0.027   1.752
20094TIP3    H281774   2.128   0.024   1.787
20095TIP3   OH281775   4.763   5.018   0.023
20095TIP3    H181776   4.772   4.928   0.054
20095TIP3    H281777   4.772   5.071   0.101
20096TIP3   OH281778   3.572   6.573   0.916
20096TIP3    H181779   3.536   6.640   0.859
20096TIP3    H281780   3.638   6.618   0.968
20097TIP3   OH281781   5.293   6.345  13.193
20097TIP3    H181782   5.308   6.439  13.185
20097TIP3    H281783   5.303   6.311  13.104
20098TIP3   OH281784   0.347   6.055   1.368
20098TIP3    H181785   0.349   6.038   1.274
20098TIP3    H281786   0.283   5.992   1.402
20099TIP3   OH281787   1.883   3.708   3.389
20099TIP3    H181788   1.908   3.649   3.459
20099TIP3    H281789   1.813   3.762   3.426
20100TIP3   OH281790   4.733   6.190  16.531
20100TIP3    H181791   4.644   6.199  16.497
20100TIP3    H281792   4.777   6.271  16.506
20101TIP3   OH281793   1.484   2.024   4.597
20101TIP3    H181794   1.470   1.960   4.667
20101TIP3    H281795   1.520   1.974   4.524
20102TIP3   OH281796   6.163   3.642  15.489
20102TIP3    H181797   6.182   3.551  15.511
20102TIP3    H281798   6.178   3.648  15.395
20103TIP3   OH281799   2.853   4.641   2.405
20103TIP3    H181800   2.898   4.580   2.463
20103TIP3    H281801   2.882   4.727   2.434
20104TIP3   OH281802   3.646   2.789   4.325
20104TIP3    H181803   3.694   2.783   4.242
20104TIP3    H281804   3.556   2.769   4.302
20105TIP3   OH281805   0.711   6.479  13.322
20105TIP3    H181806   0.664   6.510  13.399
20105TIP3    H281807   0.789   6.435  13.358
20106TIP3   OH281808   5.895   3.639   0.781
20106TIP3    H181809   5.842   3.584   0.839
20106TIP3    H281810   5.881   3.728   0.814
20107TIP3   OH281811   4.762   1.930   3.417
20107TIP3    H181812   4.710   1.852   3.434
20107TIP3    H281813   4.724   1.968   3.338
20108TIP3   OH281814   4.591   4.906   0.367
20108TIP3    H181815   4.600   4.855   0.287
20108TIP3    H281816   4.509   4.955   0.355
20109TIP3   OH281817   1.398   6.280   6.047
20109TIP3    H181818   1.423   6.195   6.011
20109TIP3    H281819   1.425   6.276   6.139
20110TIP3   OH281820   5.863   5.312  16.008
20110TIP3    H181821   5.891   5.238  15.955
20110TIP3    H281822   5.886   5.288  16.098
20111TIP3   OH281823   4.794   5.429   1.396
20111TIP3    H181824   4.745   5.503   1.360
20111TIP3    H281825   4.825   5.381   1.319
20112TIP3   OH281826   2.347   4.889  16.761
20112TIP3    H181827   2.276   4.878  16.697
20112TIP3    H281828   2.418   4.929  16.711
20113TIP3   OH281829   4.788   3.978   4.016
20113TIP3    H181830   4.706   4.021   4.037
20113TIP3    H281831   4.774   3.941   3.928
20114TIP3   OH281832   5.008   4.042  13.724
20114TIP3    H181833   4.943   4.079  13.784
20114TIP3    H281834   5.092   4.056  13.767
20115TIP3   OH281835   1.871   2.963  10.484
20115TIP3    H181836   1.858   3.037  10.425
20115TIP3    H281837   1.783   2.928  10.498
20116TIP3   OH281838   5.118   6.164  15.402
20116TIP3    H181839   5.081   6.104  15.338
20116TIP3    H281840   5.114   6.250  15.360
20117TIP3   OH281841   1.449   3.646  16.518
20117TIP3    H181842   1.490   3.605  16.594
20117TIP3    H281843   1.457   3.740  16.534
20118TIP3   OH281844   6.251   2.258  16.285
20118TIP3    H181845   6.181   2.320  16.306
20118TIP3    H281846   6.315   2.310  16.234
20119TIP3   OH281847   2.399   3.057   5.379
20119TIP3    H181848   2.358   3.112   5.312
20119TIP3    H281849   2.346   3.071   5.457
20120TIP3   OH281850   4.455   3.695   2.760
20120TIP3    H181851   4.478   3.772   2.813
20120TIP3    H281852   4.522   3.693   2.691
20121TIP3   OH281853   2.007   1.174  12.635
20121TIP3    H181854   1.977   1.113  12.568
20121TIP3    H281855   1.971   1.139  12.717
20122TIP3   OH281856   4.527   4.822  14.464
20122TIP3    H181857   4.445   4.811  14.512
20122TIP3    H281858   4.558   4.909  14.488
20123TIP3   OH281859   3.594   1.519   5.769
20123TIP3    H181860   3.543   1.593   5.737
20123TIP3    H281861   3.614   1.468   5.690
20124TIP3   OH281862   5.450   4.529  15.530
20124TIP3    H181863   5.470   4.477  15.451
20124TIP3    H281864   5.365   4.570  15.511
20125TIP3   OH281865   2.374   6.814   6.395
20125TIP3    H181866   2.341   6.889   6.445
20125TIP3    H281867   2.454   6.789   6.441
20126TIP3   OH281868   3.054   6.647   5.030
20126TIP3    H181869   2.983   6.591   5.061
20126TIP3    H281870   3.010   6.719   4.984
20127TIP3   OH281871   0.963   5.050   5.505
20127TIP3    H181872   1.040   5.108   5.499
20127TIP3    H281873   0.997   4.969   5.543
20128TIP3   OH281874   2.109   4.490  15.861
20128TIP3    H181875   2.038   4.430  15.886
20128TIP3    H281876   2.078   4.530  15.780
20129TIP3   OH281877   5.970   5.145   2.227
20129TIP3    H181878   5.917   5.092   2.167
20129TIP3    H281879   5.996   5.221   2.176
20130TIP3   OH281880   3.585   0.854   0.737
20130TIP3    H181881   3.614   0.870   0.648
20130TIP3    H281882   3.524   0.925   0.756
20131TIP3   OH281883   5.404   2.022   3.839
20131TIP3    H181884   5.393   1.971   3.920
20131TIP3    H281885   5.348   1.979   3.776
20132TIP3   OH281886   0.189   6.414  15.279
20132TIP3    H181887   0.204   6.371  15.195
20132TIP3    H281888   0.174   6.342  15.340
20133TIP3   OH281889   6.368   1.939   1.325
20133TIP3    H181890   6.412   1.933   1.409
20133TIP3    H281891   6.279   1.907   1.341
20134TIP3   OH281892   4.145   4.800   4.330
20134TIP3    H181893   4.181   4.713   4.343
20134TIP3    H281894   4.175   4.826   4.243
20135TIP3   OH281895   3.849   5.450   1.689
20135TIP3    H181896   3.820   5.538   1.664
20135TIP3    H281897   3.943   5.459   1.703
20136TIP3   OH281898   6.143   4.310  15.361
20136TIP3    H181899   6.161   4.312  15.267
20136TIP3    H281900   6.220   4.349  15.402
20137TIP3   OH281901   1.643   6.450  17.204
20137TIP3    H181902   1.710   6.518  17.198
20137TIP3    H281903   1.677   6.377  17.153
20138TIP3   OH281904   5.899   3.877   2.645
20138TIP3    H181905   5.842   3.819   2.595
20138TIP3    H281906   5.951   3.922   2.579
20139TIP3   OH281907   2.955   1.973  13.873
20139TIP3    H181908   2.909   2.052  13.843
20139TIP3    H281909   2.887   1.920  13.915
20140TIP3   OH281910   0.388   0.563  13.025
20140TIP3    H181911   0.389   0.641  13.082
20140TIP3    H281912   0.427   0.593  12.943
20141TIP3   OH281913   3.831   2.870  11.536
20141TIP3    H181914   3.748   2.903  11.501
20141TIP3    H281915   3.874   2.947  11.573
20142TIP3   OH281916   2.173   5.306  10.606
20142TIP3    H181917   2.085   5.269  10.608
20142TIP3    H281918   2.200   5.297  10.515
20143TIP3   OH281919   5.632   0.879  11.428
20143TIP3    H181920   5.574   0.806  11.450
20143TIP3    H281921   5.710   0.864  11.483
20144TIP3   OH281922   3.913   1.993   5.924
20144TIP3    H181923   3.824   2.026   5.940
20144TIP3    H281924   3.903   1.932   5.851
20145TIP3   OH281925   0.238   2.493  14.315
20145TIP3    H181926   0.231   2.416  14.371
20145TIP3    H281927   0.185   2.471  14.238
20146TIP3   OH281928   3.754   4.022  15.087
20146TIP3    H181929   3.693   4.042  15.015
20146TIP3    H281930   3.714   4.064  15.164
20147TIP3   OH281931   5.140   3.966   4.706
20147TIP3    H181932   5.187   3.898   4.658
20147TIP3    H281933   5.083   4.007   4.640
20148TIP3   OH281934   0.220   0.195   1.444
20148TIP3    H181935   0.277   0.240   1.381
20148TIP3    H281936   0.233   0.102   1.426
20149TIP3   OH281937   5.512   5.779  16.895
20149TIP3    H181938   5.556   5.763  16.812
20149TIP3    H281939   5.514   5.695  16.940
20150TIP3   OH281940   2.278   3.378  14.132
20150TIP3    H181941   2.332   3.439  14.181
20150TIP3    H281942   2.206   3.356  14.192
20151TIP3   OH281943   5.120   6.267  13.846
20151TIP3    H181944   5.191   6.233  13.902
20151TIP3    H281945   5.089   6.344  13.893
20152TIP3   OH281946   0.938   6.488  11.221
20152TIP3    H181947   0.875   6.527  11.161
20152TIP3    H281948   0.923   6.394  11.215
20153TIP3   OH281949   5.411   6.485   4.180
20153TIP3    H181950   5.392   6.459   4.089
20153TIP3    H281951   5.432   6.403   4.224
20154TIP3   OH281952   1.761   4.783  13.221
20154TIP3    H181953   1.734   4.857  13.167
20154TIP3    H281954   1.690   4.719  13.212
20155TIP3   OH281955   3.415   0.021   0.275
20155TIP3    H181956   3.403   0.035   0.181
20155TIP3    H281957   3.329   0.041   0.313
20156TIP3   OH281958   2.294   1.128  11.335
20156TIP3    H181959   2.265   1.071  11.263
20156TIP3    H281960   2.387   1.144  11.316
20157TIP3   OH281961   5.489   5.517  17.022
20157TIP3    H181962   5.532   5.459  17.085
20157TIP3    H281963   5.478   5.463  16.944
20158TIP3   OH281964   2.569   3.854   6.850
20158TIP3    H181965   2.662   3.873   6.863
20158TIP3    H281966   2.566   3.811   6.765
20159TIP3   OH281967   0.069   3.229  16.582
20159TIP3    H181968   0.060   3.145  16.538
20159TIP3    H281969   0.063   3.209  16.675
20160TIP3   OH281970   3.190   0.378   5.095
20160TIP3    H181971   3.197   0.462   5.049
20160TIP3    H281972   3.096   0.363   5.103
20161TIP3   OH281973   3.798   1.020   0.943
20161TIP3    H181974   3.875   0.975   0.909
20161TIP3    H281975   3.768   0.965   1.015
20162TIP3   OH281976   4.047   4.914  16.426
20162TIP3    H181977   4.052   4.825  16.462
20162TIP3    H281978   4.059   4.903  16.332
20163TIP3   OH281979   2.264   3.225   1.166
20163TIP3    H181980   2.230   3.248   1.253
20163TIP3    H281981   2.217   3.145   1.142
20164TIP3   OH281982   3.259   1.882  11.344
20164TIP3    H181983   3.165   1.875  11.365
20164TIP3    H281984   3.262   1.892  11.249
20165TIP3   OH281985   3.751   2.485  15.220
20165TIP3    H181986   3.716   2.402  15.253
20165TIP3    H281987   3.695   2.506  15.145
20166TIP3   OH281988   5.531   1.903   2.005
20166TIP3    H181989   5.437   1.896   1.992
20166TIP3    H281990   5.540   1.953   2.087
20167TIP3   OH281991   5.278   6.366   1.613
20167TIP3    H181992   5.221   6.326   1.547
20167TIP3    H281993   5.362   6.378   1.568
20168TIP3   OH281994   6.326   3.816  17.137
20168TIP3    H181995   6.362   3.864  17.062
20168TIP3    H281996   6.249   3.866  17.162
20169TIP3   OH281997   2.090   6.388  11.968
20169TIP3    H181998   2.058   6.421  11.884
20169TIP3    H281999   2.054   6.299  11.974
20170TIP3   OH282000   5.748   5.946   2.163
20170TIP3    H182001   5.812   5.953   2.093
20170TIP3    H282002   5.684   6.016   2.145
20171TIP3   OH282003   6.807   2.124  13.196
20171TIP3    H182004   6.878   2.086  13.248
20171TIP3    H282005   6.851   2.169  13.124
20172TIP3   OH282006   0.676   2.948   1.427
20172TIP3    H182007   0.582   2.935   1.414
20172TIP3    H282008   0.690   3.040   1.406
20173TIP3   OH282009   5.097   1.436  13.309
20173TIP3    H182010   5.070   1.527  13.316
20173TIP3    H282011   5.017   1.388  13.286
20174TIP3   OH282012   1.955   6.186  16.282
20174TIP3    H182013   2.039   6.227  16.260
20174TIP3    H282014   1.935   6.218  16.370
20175TIP3   OH282015   0.477   3.835  14.849
20175TIP3    H182016   0.438   3.836  14.937
20175TIP3    H282017   0.476   3.743  14.823
20176TIP3   OH282018   5.019   2.159  14.410
20176TIP3    H182019   5.098   2.117  14.374
20176TIP3    H282020   5.018   2.133  14.502
20177TIP3   OH282021   6.676   2.339   3.776
20177TIP3    H182022   6.611   2.273   3.751
20177TIP3    H282023   6.751   2.288   3.806
20178TIP3   OH282024   6.568   6.223  16.262
20178TIP3    H182025   6.499   6.183  16.314
20178TIP3    H282026   6.552   6.317  16.269
20179TIP3   OH282027   4.214   0.226  16.822
20179TIP3    H182028   4.263   0.301  16.855
20179TIP3    H282029   4.208   0.242  16.728
20180TIP3   OH282030   1.362   5.509  12.583
20180TIP3    H182031   1.387   5.483  12.672
20180TIP3    H282032   1.363   5.427  12.533
20181TIP3   OH282033   6.755   2.082  15.494
20181TIP3    H182034   6.813   2.056  15.566
20181TIP3    H282035   6.685   2.132  15.535
20182TIP3   OH282036   0.007   1.376  16.645
20182TIP3    H182037  -0.065   1.377  16.583
20182TIP3    H282038  -0.009   1.450  16.703
20183TIP3   OH282039   0.112   1.842   3.418
20183TIP3    H182040   0.143   1.769   3.364
20183TIP3    H282041   0.050   1.801   3.478
20184TIP3   OH282042   4.949   2.259  17.172
20184TIP3    H182043   5.037   2.285  17.200
20184TIP3    H282044   4.905   2.234  17.253
20185TIP3   OH282045   4.518   0.931  14.643
20185TIP3    H182046   4.496   0.974  14.725
20185TIP3    H282047   4.563   0.998  14.591
20186TIP3   OH282048   5.318   3.511  16.455
20186TIP3    H182049   5.401   3.542  16.491
20186TIP3    H282050   5.326   3.523  16.361
20187TIP3   OH282051   5.020   6.757   3.090
20187TIP3    H182052   4.952   6.773   3.156
20187TIP3    H282053   4.991   6.677   3.046
20188TIP3   OH282054   0.673   3.792   3.671
20188TIP3    H182055   0.725   3.774   3.592
20188TIP3    H282056   0.734   3.782   3.743
20189TIP3   OH282057   2.923   4.443  16.364
20189TIP3    H182058   2.860   4.378  16.396
20189TIP3    H282059   2.926   4.510  16.432
20190TIP3   OH282060   2.602   3.770  16.298
20190TIP3    H182061   2.564   3.720  16.225
20190TIP3    H282062   2.547   3.749  16.373
20191TIP3   OH282063   1.924   2.737  15.028
20191TIP3    H182064   1.990   2.783  15.080
20191TIP3    H282065   1.846   2.736  15.083
20192TIP3   OH282066   3.119   5.473  14.354
20192TIP3    H182067   3.109   5.567  14.370
20192TIP3    H282068   3.073   5.432  14.427
20193TIP3   OH282069   6.503   1.960   1.699
20193TIP3    H182070   6.504   1.875   1.654
20193TIP3    H282071   6.499   1.939   1.792
20194TIP3   OH282072   1.491   3.582   5.024
20194TIP3    H182073   1.399   3.557   5.016
20194TIP3    H282074   1.508   3.580   5.118
20195TIP3   OH282075   4.139   0.836  14.985
20195TIP3    H182076   4.113   0.914  15.034
20195TIP3    H282077   4.230   0.853  14.961
20196TIP3   OH282078   2.678   4.596  12.128
20196TIP3    H182079   2.759   4.576  12.081
20196TIP3    H282080   2.677   4.692  12.134
20197TIP3   OH282081   3.626   4.455  15.840
20197TIP3    H182082   3.543   4.408  15.833
20197TIP3    H282083   3.693   4.387  15.834
20198TIP3   OH282084   1.083   3.308  14.642
20198TIP3    H182085   1.050   3.398  14.638
20198TIP3    H282086   1.141   3.301  14.566
20199TIP3   OH282087   4.884   5.082   3.699
20199TIP3    H182088   4.941   5.016   3.660
20199TIP3    H282089   4.830   5.033   3.761
20200TIP3   OH282090   4.010   0.698   1.526
20200TIP3    H182091   3.915   0.696   1.542
20200TIP3    H282092   4.048   0.670   1.609
20201TIP3   OH282093   3.291   3.752  14.654
20201TIP3    H182094   3.260   3.843  14.653
20201TIP3    H282095   3.225   3.703  14.606
20202TIP3   OH282096   3.439   0.249   2.997
20202TIP3    H182097   3.403   0.332   3.029
20202TIP3    H282098   3.377   0.220   2.930
20203TIP3   OH282099   5.506   6.571   3.846
20203TIP3    H182100   5.584   6.514   3.844
20203TIP3    H282101   5.488   6.589   3.754
20204TIP3   OH282102   2.740   4.254  12.025
20204TIP3    H182103   2.836   4.253  12.014
20204TIP3    H282104   2.707   4.284  11.941
20205TIP3   OH282105   5.549   0.927   1.877
20205TIP3    H182106   5.520   0.847   1.833
20205TIP3    H282107   5.641   0.936   1.852
20206TIP3   OH282108   6.595   0.976   3.722
20206TIP3    H182109   6.559   0.907   3.666
20206TIP3    H282110   6.667   0.934   3.769
20207TIP3   OH282111   4.161   5.585   4.883
20207TIP3    H182112   4.145   5.492   4.896
20207TIP3    H282113   4.226   5.588   4.812
20208TIP3   OH282114   0.274   0.203  11.908
20208TIP3    H182115   0.211   0.158  11.965
20208TIP3    H282116   0.325   0.132  11.869
20209TIP3   OH282117   5.470   3.561   3.568
20209TIP3    H182118   5.479   3.641   3.620
20209TIP3    H282119   5.509   3.492   3.622
20210TIP3   OH282120   4.904   0.013   2.791
20210TIP3    H182121   4.888   0.005   2.885
20210TIP3    H282122   4.853  -0.058   2.752
20211TIP3   OH282123   4.422   4.972   3.127
20211TIP3    H182124   4.482   5.037   3.165
20211TIP3    H282125   4.335   5.009   3.140
20212TIP3   OH282126   3.769   6.640  11.716
20212TIP3    H182127   3.740   6.608  11.630
20212TIP3    H282128   3.688   6.648  11.766
20213TIP3   OH282129   0.125   3.364   2.963
20213TIP3    H182130   0.147   3.433   3.025
20213TIP3    H282131   0.176   3.289   2.991
20214TIP3   OH282132   1.104   4.148   1.476
20214TIP3    H182133   1.176   4.196   1.517
20214TIP3    H282134   1.117   4.160   1.382
20215TIP3   OH282135   0.429   5.033   6.292
20215TIP3    H182136   0.373   5.100   6.252
20215TIP3    H282137   0.516   5.051   6.258
20216TIP3   OH282138   2.501   0.991  13.062
20216TIP3    H182139   2.414   1.021  13.037
20216TIP3    H282140   2.485   0.925  13.130
20217TIP3   OH282141   1.806   6.417   3.797
20217TIP3    H182142   1.861   6.376   3.730
20217TIP3    H282143   1.805   6.354   3.869
20218TIP3   OH282144   5.099   5.703  14.113
20218TIP3    H182145   5.188   5.674  14.095
20218TIP3    H282146   5.045   5.659  14.047
20219TIP3   OH282147   5.112   2.625   3.574
20219TIP3    H182148   5.122   2.557   3.641
20219TIP3    H282149   5.200   2.635   3.538
20220TIP3   OH282150   5.178   1.807   1.764
20220TIP3    H182151   5.207   1.719   1.740
20220TIP3    H282152   5.083   1.803   1.761
20221TIP3   OH282153   5.795   3.117   2.721
20221TIP3    H182154   5.709   3.155   2.701
20221TIP3    H282155   5.781   3.066   2.801
20222TIP3   OH282156   2.613   3.219  10.700
20222TIP3    H182157   2.695   3.192  10.742
20222TIP3    H282158   2.640   3.251  10.614
20223TIP3   OH282159   5.839   0.900   1.403
20223TIP3    H182160   5.775   0.955   1.449
20223TIP3    H282161   5.822   0.916   1.310
20224TIP3   OH282162   0.846   1.938  12.096
20224TIP3    H182163   0.911   1.878  12.059
20224TIP3    H282164   0.787   1.882  12.146
20225TIP3   OH282165   4.681   6.363  13.033
20225TIP3    H182166   4.613   6.327  12.975
20225TIP3    H282167   4.657   6.330  13.120
20226TIP3   OH282168   1.291   2.699   1.655
20226TIP3    H182169   1.209   2.740   1.682
20226TIP3    H282170   1.305   2.729   1.565
20227TIP3   OH282171   3.912   0.567  16.833
20227TIP3    H182172   3.955   0.589  16.750
20227TIP3    H282173   3.941   0.635  16.893
20228TIP3   OH282174   5.389   4.855  14.526
20228TIP3    H182175   5.472   4.815  14.500
20228TIP3    H282176   5.358   4.801  14.599
20229TIP3   OH282177   1.465   5.575  14.444
20229TIP3    H182178   1.460   5.651  14.501
20229TIP3    H282179   1.435   5.607  14.359
20230TIP3   OH282180   3.423   3.971   4.524
20230TIP3    H182181   3.408   3.878   4.538
20230TIP3    H282182   3.431   4.008   4.612
20231TIP3   OH282183   4.883   0.808   4.566
20231TIP3    H182184   4.798   0.804   4.522
20231TIP3    H282185   4.887   0.727   4.617
20232TIP3   OH282186   2.129   0.677   4.112
20232TIP3    H182187   2.076   0.725   4.047
20232TIP3    H282188   2.159   0.599   4.065
20233TIP3   OH282189   3.621   4.007  15.594
20233TIP3    H182190   3.580   4.087  15.625
20233TIP3    H282191   3.699   3.997  15.650
20234TIP3   OH282192   6.233   1.702  12.758
20234TIP3    H182193   6.262   1.782  12.713
20234TIP3    H282194   6.307   1.678  12.814
20235TIP3   OH282195   6.564   4.988  15.522
20235TIP3    H182196   6.489   4.936  15.551
20235TIP3    H282197   6.551   5.074  15.563
20236TIP3   OH282198   4.522   2.391   1.648
20236TIP3    H182199   4.534   2.326   1.579
20236TIP3    H282200   4.574   2.357   1.721
20237TIP3   OH282201   0.172   1.631   5.143
20237TIP3    H182202   0.251   1.581   5.162
20237TIP3    H282203   0.115   1.614   5.218
20238TIP3   OH282204   0.324   6.398   3.257
20238TIP3    H182205   0.382   6.467   3.289
20238TIP3    H282206   0.241   6.412   3.303
20239TIP3   OH282207   4.574   1.771   4.878
20239TIP3    H182208   4.583   1.676   4.890
20239TIP3    H282209   4.486   1.791   4.908
20240TIP3   OH282210   4.526   5.040  16.953
20240TIP3    H182211   4.494   5.101  17.019
20240TIP3    H282212   4.613   5.073  16.929
20241TIP3   OH282213   6.547   6.589  11.498
20241TIP3    H182214   6.457   6.577  11.528
20241TIP3    H282215   6.555   6.534  11.420
20242LIG      S82216   3.765   4.106  16.422
20242LIG     F182217   3.434   2.984  16.223
20242LIG     F282218   3.601   2.845  16.400
20242LIG     N182219   3.592   3.844  16.511
20242LIG     N282220   3.099   3.232  16.526
20242LIG     C182221   3.520   3.717  16.495
20242LIG     C282222   3.525   3.956  16.443
20242LIG     C382223   3.733   3.829  16.471
20242LIG     C482224   3.396   3.718  16.586
20242LIG     C582225   3.593   4.090  16.479
20242LIG     C682226   3.815   3.954  16.509
20242LIG     C782227   3.322   3.588  16.567
20242LIG     C882228   3.135   3.106  16.597
20242LIG     C982229   3.355   3.477  16.646
20242LIG    C1082230   3.222   3.577  16.470
20242LIG    C1182231   3.182   3.346  16.536
20242LIG    C1282232   3.285   3.357  16.630
20242LIG    C1382233   3.151   3.457  16.455
20242LIG    C1482234   3.258   3.036  16.539
20242LIG    C1582235   3.015   3.008  16.591
20242LIG    C1682236   3.290   3.041  16.402
20242LIG    C1782237   3.342   2.965  16.626
20242LIG    C1882238   3.405   2.977  16.356
20242LIG    C1982239   3.458   2.901  16.580
20242LIG    C2082240   3.488   2.907  16.444
20242LIG     H182241   3.585   3.631  16.523
20242LIG     H282242   3.490   3.704  16.388
20242LIG     H382243   3.418   3.964  16.472
20242LIG     H482244   3.529   3.941  16.333
20242LIG     H582245   3.740   3.811  16.361
20242LIG     H682246   3.778   3.741  16.523
20242LIG     H782247   3.326   3.800  16.564
20242LIG     H882248   3.427   3.726  16.692
20242LIG     H982249   3.532   4.171  16.433
20242LIG    H1082250   3.587   4.103  16.589
20242LIG    H1182251   3.807   3.968  16.619
20242LIG    H1282252   3.921   3.933  16.485
20242LIG    H1382253   3.150   3.129  16.705
20242LIG    H1482254   3.434   3.485  16.719
20242LIG    H1582255   3.197   3.662  16.408
20242LIG    H1682256   3.052   3.218  16.438
20242LIG    H1782257   3.312   3.274  16.694
20242LIG    H1882258   3.072   3.451  16.381
20242LIG    H1982259   2.992   2.979  16.486
20242LIG    H2082260   2.925   3.057  16.634
20242LIG    H2182261   3.036   2.917  16.650
20242LIG    H2282262   3.227   3.095  16.333
20242LIG    H2382263   3.319   2.961  16.731
20242LIG    H2482264   3.523   2.847  16.648
   6.82013   6.82013  17.29240
