;;
;; Generated by CHARMM-GUI (http://www.charmm-gui.org) v1.7
;;
;; psf2itp_mol.py
;;
;; Correspondance:
;; jul316@lehigh.edu or wonpil@lehigh.edu
;;
;; GROMACS topology file for LIG
;;


[ moleculetype ]
; name	nrexcl
LIG	     3

[ atoms ]
; nr	type	resnr	residu	atom	cgnr	charge	mass
     1      SG311      1      LIG      S      1      0.108    32.0600   ; qtot  0.108
     2     OG2R50      1      LIG     O1      2     -0.258    15.9994   ; qtot -0.150
     3      OG2N1      1      LIG     O2      3     -0.290    15.9994   ; qtot -0.440
     4      OG2N1      1      LIG     O3      4     -0.290    15.9994   ; qtot -0.730
     5      NG311      1      LIG     N1      5     -0.218    14.0070   ; qtot -0.948
     6      NG2D1      1      LIG     N2      6     -0.702    14.0070   ; qtot -1.650
     7      NG2O1      1      LIG     N3      7      0.118    14.0070   ; qtot -1.532
     8      NG301      1      LIG     N4      8     -0.589    14.0070   ; qtot -2.121
     9      CG311      1      LIG     C1      9     -0.058    12.0110   ; qtot -2.179
    10      CG321      1      LIG     C2     10     -0.186    12.0110   ; qtot -2.365
    11      CG321      1      LIG     C3     11     -0.186    12.0110   ; qtot -2.551
    12      CG321      1      LIG     C4     12     -0.190    12.0110   ; qtot -2.741
    13      CG321      1      LIG     C5     13     -0.190    12.0110   ; qtot -2.931
    14      CG321      1      LIG     C6     14     -0.157    12.0110   ; qtot -3.088
    15      CG321      1      LIG     C7     15     -0.157    12.0110   ; qtot -3.245
    16      CG321      1      LIG     C8     16     -0.180    12.0110   ; qtot -3.425
    17      CG2N2      1      LIG     C9     17      0.390    12.0110   ; qtot -3.035
    18      CG324      1      LIG    C10     18      0.206    12.0110   ; qtot -2.829
    19      CG321      1      LIG    C11     19      0.028    12.0110   ; qtot -2.801
    20      CG321      1      LIG    C12     20     -0.110    12.0110   ; qtot -2.911
    21      CG321      1      LIG    C13     21     -0.214    12.0110   ; qtot -3.125
    22     CG2R51      1      LIG    C14     22      0.123    12.0110   ; qtot -3.002
    23     CG2R51      1      LIG    C15     23      0.246    12.0110   ; qtot -2.756
    24      CG321      1      LIG    C16     24      0.024    12.0110   ; qtot -2.732
    25     CG2R51      1      LIG    C17     25     -0.310    12.0110   ; qtot -3.042
    26     CG2R51      1      LIG    C18     26     -0.241    12.0110   ; qtot -3.283
    27      CG331      1      LIG    C19     27     -0.102    12.0110   ; qtot -3.385
    28      CG331      1      LIG    C20     28     -0.102    12.0110   ; qtot -3.487
    29       HGA1      1      LIG     H1     29      0.090     1.0080   ; qtot -3.397
    30       HGA2      1      LIG     H2     30      0.090     1.0080   ; qtot -3.307
    31       HGA2      1      LIG     H3     31      0.090     1.0080   ; qtot -3.217
    32       HGA2      1      LIG     H4     32      0.090     1.0080   ; qtot -3.127
    33       HGA2      1      LIG     H5     33      0.090     1.0080   ; qtot -3.037
    34       HGA2      1      LIG     H6     34      0.090     1.0080   ; qtot -2.947
    35       HGA2      1      LIG     H7     35      0.090     1.0080   ; qtot -2.857
    36       HGA2      1      LIG     H8     36      0.090     1.0080   ; qtot -2.767
    37       HGA2      1      LIG     H9     37      0.090     1.0080   ; qtot -2.677
    38       HGA2      1      LIG    H10     38      0.090     1.0080   ; qtot -2.587
    39       HGA2      1      LIG    H11     39      0.090     1.0080   ; qtot -2.497
    40       HGA2      1      LIG    H12     40      0.090     1.0080   ; qtot -2.407
    41       HGA2      1      LIG    H13     41      0.090     1.0080   ; qtot -2.317
    42       HGA2      1      LIG    H14     42      0.090     1.0080   ; qtot -2.227
    43       HGA2      1      LIG    H15     43      0.090     1.0080   ; qtot -2.137
    44     HGPAM1      1      LIG    H16     44      0.347     1.0080   ; qtot -1.790
    45       HGA2      1      LIG    H17     45      0.090     1.0080   ; qtot -1.700
    46       HGA2      1      LIG    H18     46      0.090     1.0080   ; qtot -1.610
    47       HGA2      1      LIG    H19     47      0.090     1.0080   ; qtot -1.520
    48       HGA2      1      LIG    H20     48      0.090     1.0080   ; qtot -1.430
    49       HGA2      1      LIG    H21     49      0.090     1.0080   ; qtot -1.340
    50       HGA2      1      LIG    H22     50      0.090     1.0080   ; qtot -1.250
    51       HGA2      1      LIG    H23     51      0.090     1.0080   ; qtot -1.160
    52       HGA2      1      LIG    H24     52      0.090     1.0080   ; qtot -1.070
    53       HGA2      1      LIG    H25     53      0.090     1.0080   ; qtot -0.980
    54       HGA2      1      LIG    H26     54      0.090     1.0080   ; qtot -0.890
    55      HGR51      1      LIG    H27     55      0.175     1.0080   ; qtot -0.715
    56      HGR51      1      LIG    H28     56      0.175     1.0080   ; qtot -0.540
    57       HGA3      1      LIG    H29     57      0.090     1.0080   ; qtot -0.450
    58       HGA3      1      LIG    H30     58      0.090     1.0080   ; qtot -0.360
    59       HGA3      1      LIG    H31     59      0.090     1.0080   ; qtot -0.270
    60       HGA3      1      LIG    H32     60      0.090     1.0080   ; qtot -0.180
    61       HGA3      1      LIG    H33     61      0.090     1.0080   ; qtot -0.090
    62       HGA3      1      LIG    H34     62      0.090     1.0080   ; qtot -0.000

[ bonds ]
; ai	aj	funct	b0	Kb
    1    20     1
    1    21     1
    2    22     1
    2    23     1
    3     7     1
    4     7     1
    5     9     1
    5    17     1
    5    44     1
    6    17     1
    6    19     1
    7    18     1
    8    24     1
    8    27     1
    8    28     1
    9    10     1
    9    11     1
    9    29     1
   10    12     1
   10    30     1
   10    31     1
   11    13     1
   11    32     1
   11    33     1
   12    14     1
   12    34     1
   12    35     1
   13    15     1
   13    36     1
   13    37     1
   14    16     1
   14    38     1
   14    39     1
   15    16     1
   15    40     1
   15    41     1
   16    42     1
   16    43     1
   17    18     1
   18    45     1
   18    46     1
   19    20     1
   19    47     1
   19    48     1
   20    49     1
   20    50     1
   21    22     1
   21    51     1
   21    52     1
   22    25     1
   23    24     1
   23    26     1
   24    53     1
   24    54     1
   25    26     1
   25    55     1
   26    56     1
   27    57     1
   27    58     1
   27    59     1
   28    60     1
   28    61     1
   28    62     1

[ pairs ]
; ai	aj	funct	c6	c12
    1     2     1 
    1     6     1 
    1    25     1 
    1    47     1 
    1    48     1 
    2     8     1 
    2    51     1 
    2    52     1 
    2    53     1 
    2    54     1 
    2    55     1 
    2    56     1 
    3    17     1 
    3    45     1 
    3    46     1 
    4    17     1 
    4    45     1 
    4    46     1 
    5     7     1 
    5    12     1 
    5    13     1 
    5    19     1 
    5    30     1 
    5    31     1 
    5    32     1 
    5    33     1 
    5    45     1 
    5    46     1 
    6     7     1 
    6     9     1 
    6    44     1 
    6    45     1 
    6    46     1 
    6    49     1 
    6    50     1 
    8    26     1 
    9    14     1 
    9    15     1 
    9    18     1 
    9    34     1 
    9    35     1 
    9    36     1 
    9    37     1 
   10    13     1 
   10    16     1 
   10    17     1 
   10    32     1 
   10    33     1 
   10    38     1 
   10    39     1 
   10    44     1 
   11    12     1 
   11    16     1 
   11    17     1 
   11    30     1 
   11    31     1 
   11    40     1 
   11    41     1 
   11    44     1 
   12    15     1 
   12    29     1 
   12    42     1 
   12    43     1 
   13    14     1 
   13    29     1 
   13    42     1 
   13    43     1 
   14    30     1 
   14    31     1 
   14    40     1 
   14    41     1 
   15    32     1 
   15    33     1 
   15    38     1 
   15    39     1 
   16    34     1 
   16    35     1 
   16    36     1 
   16    37     1 
   17    20     1 
   17    29     1 
   17    47     1 
   17    48     1 
   18    19     1 
   18    44     1 
   19    21     1 
   20    22     1 
   20    51     1 
   20    52     1 
   21    23     1 
   21    26     1 
   21    49     1 
   21    50     1 
   21    55     1 
   22    24     1 
   22    56     1 
   23    27     1 
   23    28     1 
   23    55     1 
   24    25     1 
   24    56     1 
   24    57     1 
   24    58     1 
   24    59     1 
   24    60     1 
   24    61     1 
   24    62     1 
   25    51     1 
   25    52     1 
   26    53     1 
   26    54     1 
   27    53     1 
   27    54     1 
   27    60     1 
   27    61     1 
   27    62     1 
   28    53     1 
   28    54     1 
   28    57     1 
   28    58     1 
   28    59     1 
   29    30     1 
   29    31     1 
   29    32     1 
   29    33     1 
   29    44     1 
   30    34     1 
   30    35     1 
   31    34     1 
   31    35     1 
   32    36     1 
   32    37     1 
   33    36     1 
   33    37     1 
   34    38     1 
   34    39     1 
   35    38     1 
   35    39     1 
   36    40     1 
   36    41     1 
   37    40     1 
   37    41     1 
   38    42     1 
   38    43     1 
   39    42     1 
   39    43     1 
   40    42     1 
   40    43     1 
   41    42     1 
   41    43     1 
   47    49     1 
   47    50     1 
   48    49     1 
   48    50     1 
   55    56     1 

[ angles ] 
; ai	aj	ak	funct	th0	cth	S0	Kub
   20     1    21     5
   22     2    23     5
    9     5    17     5
    9     5    44     5
   17     5    44     5
   17     6    19     5
    3     7     4     5
    3     7    18     5
    4     7    18     5
   24     8    27     5
   24     8    28     5
   27     8    28     5
    5     9    10     5
    5     9    11     5
    5     9    29     5
   10     9    11     5
   10     9    29     5
   11     9    29     5
    9    10    12     5
    9    10    30     5
    9    10    31     5
   12    10    30     5
   12    10    31     5
   30    10    31     5
    9    11    13     5
    9    11    32     5
    9    11    33     5
   13    11    32     5
   13    11    33     5
   32    11    33     5
   10    12    14     5
   10    12    34     5
   10    12    35     5
   14    12    34     5
   14    12    35     5
   34    12    35     5
   11    13    15     5
   11    13    36     5
   11    13    37     5
   15    13    36     5
   15    13    37     5
   36    13    37     5
   12    14    16     5
   12    14    38     5
   12    14    39     5
   16    14    38     5
   16    14    39     5
   38    14    39     5
   13    15    16     5
   13    15    40     5
   13    15    41     5
   16    15    40     5
   16    15    41     5
   40    15    41     5
   14    16    15     5
   14    16    42     5
   14    16    43     5
   15    16    42     5
   15    16    43     5
   42    16    43     5
    5    17     6     5
    5    17    18     5
    6    17    18     5
    7    18    17     5
    7    18    45     5
    7    18    46     5
   17    18    45     5
   17    18    46     5
   45    18    46     5
    6    19    20     5
    6    19    47     5
    6    19    48     5
   20    19    47     5
   20    19    48     5
   47    19    48     5
    1    20    19     5
    1    20    49     5
    1    20    50     5
   19    20    49     5
   19    20    50     5
   49    20    50     5
    1    21    22     5
    1    21    51     5
    1    21    52     5
   22    21    51     5
   22    21    52     5
   51    21    52     5
    2    22    21     5
    2    22    25     5
   21    22    25     5
    2    23    24     5
    2    23    26     5
   24    23    26     5
    8    24    23     5
    8    24    53     5
    8    24    54     5
   23    24    53     5
   23    24    54     5
   53    24    54     5
   22    25    26     5
   22    25    55     5
   26    25    55     5
   23    26    25     5
   23    26    56     5
   25    26    56     5
    8    27    57     5
    8    27    58     5
    8    27    59     5
   57    27    58     5
   57    27    59     5
   58    27    59     5
    8    28    60     5
    8    28    61     5
    8    28    62     5
   60    28    61     5
   60    28    62     5
   61    28    62     5

[ dihedrals ]
; ai	aj	ak	al	funct	phi0	cp	mult
   21     1    20    49     9
   21     1    20    50     9
   20     1    21    22     9
   20     1    21    51     9
   20     1    21    52     9
   23     2    22    25     9
   22     2    23    24     9
   22     2    23    26     9
   17     5     9    29     9
    9     5    17    18     9
   17     6    19    20     9
   17     6    19    47     9
   17     6    19    48     9
    3     7    18    17     9
    3     7    18    45     9
    3     7    18    46     9
    4     7    18    17     9
    4     7    18    45     9
    4     7    18    46     9
   27     8    24    53     9
   27     8    24    54     9
   28     8    24    53     9
   28     8    24    54     9
   24     8    27    57     9
   24     8    27    58     9
   24     8    27    59     9
   28     8    27    57     9
   28     8    27    58     9
   28     8    27    59     9
   24     8    28    60     9
   24     8    28    61     9
   24     8    28    62     9
   27     8    28    60     9
   27     8    28    61     9
   27     8    28    62     9
   10     9     5    17     9
   10     9     5    44     9
   11     9     5    17     9
   11     9     5    44     9
   29     9     5    44     9
    5     9    10    12     9
    5     9    10    30     9
    5     9    10    31     9
   11     9    10    12     9
   11     9    10    30     9
   11     9    10    31     9
   29     9    10    30     9
   29     9    10    31     9
    5     9    11    13     9
    5     9    11    32     9
    5     9    11    33     9
   10     9    11    13     9
   10     9    11    32     9
   10     9    11    33     9
   29     9    11    32     9
   29     9    11    33     9
   12    10     9    29     9
    9    10    12    14     9
    9    10    12    34     9
    9    10    12    35     9
   30    10    12    34     9
   30    10    12    35     9
   31    10    12    34     9
   31    10    12    35     9
   13    11     9    29     9
    9    11    13    15     9
    9    11    13    36     9
    9    11    13    37     9
   32    11    13    36     9
   32    11    13    37     9
   33    11    13    36     9
   33    11    13    37     9
   14    12    10    30     9
   14    12    10    31     9
   10    12    14    16     9
   10    12    14    38     9
   10    12    14    39     9
   34    12    14    38     9
   34    12    14    39     9
   35    12    14    38     9
   35    12    14    39     9
   15    13    11    32     9
   15    13    11    33     9
   11    13    15    16     9
   11    13    15    40     9
   11    13    15    41     9
   36    13    15    40     9
   36    13    15    41     9
   37    13    15    40     9
   37    13    15    41     9
   16    14    12    34     9
   16    14    12    35     9
   12    14    16    15     9
   12    14    16    42     9
   12    14    16    43     9
   38    14    16    42     9
   38    14    16    43     9
   39    14    16    42     9
   39    14    16    43     9
   16    15    13    36     9
   16    15    13    37     9
   13    15    16    14     9
   13    15    16    42     9
   13    15    16    43     9
   40    15    16    42     9
   40    15    16    43     9
   41    15    16    42     9
   41    15    16    43     9
   15    16    14    38     9
   15    16    14    39     9
   14    16    15    40     9
   14    16    15    41     9
    6    17     5     9     9
    6    17     5    44     9
   18    17     5    44     9
    5    17     6    19     9
   18    17     6    19     9
    5    17    18     7     9
    5    17    18    45     9
    5    17    18    46     9
    6    17    18     7     9
    6    17    18    45     9
    6    17    18    46     9
    6    19    20    49     9
    6    19    20    50     9
   47    19    20    49     9
   47    19    20    50     9
   48    19    20    49     9
   48    19    20    50     9
   19    20     1    21     9
    1    20    19     6     9
    1    20    19    47     9
    1    20    19    48     9
    1    21    22     2     9
    1    21    22    25     9
   21    22     2    23     9
    2    22    21    51     9
    2    22    21    52     9
   25    22    21    51     9
   25    22    21    52     9
    2    22    25    26     9
    2    22    25    55     9
   21    22    25    26     9
   21    22    25    55     9
    2    23    24     8     9
    2    23    24    53     9
    2    23    24    54     9
   26    23    24    53     9
   26    23    24    54     9
    2    23    26    25     9
    2    23    26    56     9
   24    23    26    25     9
   24    23    26    56     9
   23    24     8    27     9
   23    24     8    28     9
    8    24    23    26     9
   22    25    26    23     9
   22    25    26    56     9
   55    25    26    56     9
   23    26    25    55     9

[ dihedrals ]
; ai	aj	ak	al	funct	q0	cq
   17    18     6     5     2
